                         Program Version 4.2.1 -  RELEASE  -
|  1> ! wB97X-D3 SP def2-SVP
|  2> %pal
|  3> nprocs 24
|  4> end
|  5>
|  6> * xyz 0 1
|  7> S 	 -62.2479 	 20.8787 	 -118.239
|  8> C 	 -60.6648 	 21.5558 	 -118.197
|  9> C 	 -60.356 	 22.1223 	 -116.94
| 10> C 	 -61.4808 	 22.0102 	 -116.045
| 11> C 	 -62.5878 	 21.325 	 -116.588
| 12> H 	 -61.4521 	 22.4011 	 -115.061
| 13> C 	 -59.0066 	 22.5995 	 -116.512
| 14> H 	 -58.2742 	 22.3653 	 -117.263
| 15> H 	 -58.8381 	 22.0251 	 -115.603
| 16> C 	 -58.8296 	 24.0704 	 -116.023
| 17> H 	 -59.6763 	 24.4316 	 -115.534
| 18> H 	 -58.0919 	 24.1047 	 -115.14
| 19> C 	 -58.3051 	 25.1017 	 -117.054
| 20> H 	 -59.0377 	 24.9499 	 -117.891
| 21> H 	 -58.3087 	 26.1529 	 -116.774
| 22> H 	 -57.2989 	 24.9416 	 -117.511
| 23> S 	 -64.5609 	 19.5242 	 -116.543
| 24> C 	 -65.7007 	 19.5615 	 -115.274
| 25> C 	 -65.6544 	 20.7313 	 -114.52
| 26> C 	 -64.529 	 21.5538 	 -114.902
| 27> C 	 -63.869 	 21.0094 	 -115.954
| 28> H 	 -66.2726 	 20.9268 	 -113.648
| 29> C 	 -64.2267 	 22.9173 	 -114.152
| 30> H 	 -63.2192 	 23.1339 	 -113.879
| 31> H 	 -64.7153 	 22.8483 	 -113.166
| 32> C 	 -64.6914 	 24.1209 	 -114.918
| 33> H 	 -65.798 	 24.0415 	 -115.059
| 34> H 	 -64.1336 	 24.1242 	 -115.866
| 35> C 	 -64.5242 	 25.5022 	 -114.244
| 36> H 	 -64.4584 	 26.3159 	 -114.964
| 37> H 	 -63.5868 	 25.541 	 -113.596
| 38> H 	 -65.2571 	 25.731 	 -113.543
| 39> H 	 -60.0892 	 21.6045 	 -119.045
| 40> H 	 -66.5288 	 18.9358 	 -115.066
| 41> *
| 42>
| 43>                          ****END OF INPUT****

CARTESIAN COORDINATES (ANGSTROEM)
---------------------------------
  S    -62.247900   20.878700  -118.239000
  C    -60.664800   21.555800  -118.197000
  C    -60.356000   22.122300  -116.940000
  C    -61.480800   22.010200  -116.045000
  C    -62.587800   21.325000  -116.588000
  H    -61.452100   22.401100  -115.061000
  C    -59.006600   22.599500  -116.512000
  H    -58.274200   22.365300  -117.263000
  H    -58.838100   22.025100  -115.603000
  C    -58.829600   24.070400  -116.023000
  H    -59.676300   24.431600  -115.534000
  H    -58.091900   24.104700  -115.140000
  C    -58.305100   25.101700  -117.054000
  H    -59.037700   24.949900  -117.891000
  H    -58.308700   26.152900  -116.774000
  H    -57.298900   24.941600  -117.511000
  S    -64.560900   19.524200  -116.543000
  C    -65.700700   19.561500  -115.274000
  C    -65.654400   20.731300  -114.520000
  C    -64.529000   21.553800  -114.902000
  C    -63.869000   21.009400  -115.954000
  H    -66.272600   20.926800  -113.648000
  C    -64.226700   22.917300  -114.152000
  H    -63.219200   23.133900  -113.879000
  H    -64.715300   22.848300  -113.166000
  C    -64.691400   24.120900  -114.918000
  H    -65.798000   24.041500  -115.059000
  H    -64.133600   24.124200  -115.866000
  C    -64.524200   25.502200  -114.244000
  H    -64.458400   26.315900  -114.964000
  H    -63.586800   25.541000  -113.596000
  H    -65.257100   25.731000  -113.543000
  H    -60.089200   21.604500  -119.045000
  H    -66.528800   18.935800  -115.066000

 Total Charge           Charge          ....    0
 Multiplicity           Mult            ....    1
 Number of Electrons    NEL             ....  134
 Basis Dimension        Dim             ....  322

ORBITAL ENERGIES
----------------

  NO   OCC          E(Eh)            E(eV)
   0   2.0000     -88.969392     -2420.9802
   1   2.0000     -88.967429     -2420.9268
   2   2.0000     -10.333535      -281.1898
   3   2.0000     -10.325615      -280.9743
   4   2.0000     -10.313312      -280.6395
   5   2.0000     -10.309086      -280.5245
   6   2.0000     -10.307012      -280.4681
   7   2.0000     -10.305120      -280.4166
   8   2.0000     -10.296565      -280.1838
   9   2.0000     -10.296273      -280.1758
  10   2.0000     -10.294457      -280.1264
  11   2.0000     -10.294195      -280.1193
  12   2.0000     -10.292970      -280.0860
  13   2.0000     -10.286381      -279.9067
  14   2.0000     -10.284200      -279.8473
  15   2.0000     -10.277937      -279.6769
  16   2.0000      -8.085143      -220.0079
  17   2.0000      -8.082666      -219.9405
  18   2.0000      -6.043612      -164.4550
  19   2.0000      -6.041121      -164.3872
  20   2.0000      -6.039562      -164.3448
  21   2.0000      -6.037033      -164.2760
  22   2.0000      -6.035824      -164.2431
  23   2.0000      -6.033556      -164.1814
  24   2.0000      -1.012416       -27.5492
  25   2.0000      -0.986042       -26.8316
  26   2.0000      -0.910790       -24.7839
  27   2.0000      -0.909210       -24.7409
  28   2.0000      -0.868334       -23.6286
  29   2.0000      -0.854860       -23.2619
  30   2.0000      -0.845816       -23.0158
  31   2.0000      -0.813343       -22.1322
  32   2.0000      -0.787475       -21.4283
  33   2.0000      -0.776065       -21.1178
  34   2.0000      -0.710357       -19.3298
  35   2.0000      -0.699853       -19.0440
  36   2.0000      -0.689467       -18.7614
  37   2.0000      -0.668166       -18.1817
  38   2.0000      -0.643250       -17.5037
  39   2.0000      -0.626938       -17.0599
  40   2.0000      -0.599820       -16.3219
  41   2.0000      -0.567823       -15.4513
  42   2.0000      -0.564175       -15.3520
  43   2.0000      -0.554069       -15.0770
  44   2.0000      -0.529761       -14.4155
  45   2.0000      -0.524261       -14.2659
  46   2.0000      -0.522474       -14.2173
  47   2.0000      -0.506793       -13.7905
  48   2.0000      -0.505167       -13.7463
  49   2.0000      -0.500497       -13.6192
  50   2.0000      -0.492543       -13.4028
  51   2.0000      -0.481594       -13.1049
  52   2.0000      -0.475722       -12.9450
  53   2.0000      -0.470518       -12.8035
  54   2.0000      -0.460233       -12.5236
  55   2.0000      -0.456631       -12.4255
  56   2.0000      -0.444710       -12.1012
  57   2.0000      -0.438920       -11.9436
  58   2.0000      -0.435956       -11.8630
  59   2.0000      -0.431576       -11.7438
  60   2.0000      -0.419478       -11.4146
  61   2.0000      -0.413130       -11.2418
  62   2.0000      -0.400095       -10.8871
  63   2.0000      -0.358370        -9.7517
  64   2.0000      -0.337822        -9.1926
  65   2.0000      -0.327790        -8.9196
  66   2.0000      -0.283325        -7.7097
  67   0.0000       0.025500         0.6939
  68   0.0000       0.076270         2.0754
  69   0.0000       0.104299         2.8381
  70   0.0000       0.111430         3.0322
  71   0.0000       0.130112         3.5405

MULLIKEN ATOMIC CHARGES
-----------------------
   0 S :    0.103855
   1 C :   -0.096544
   2 C :   -0.083118
   3 C :    0.014640
   4 C :   -0.114442
   5 H :   -0.013288
   6 C :    0.080914
   7 H :    0.021211
   8 H :    0.039753
   9 C :   -0.068192
  10 H :    0.011320
  11 H :    0.026142
  12 C :   -0.081094
  13 H :    0.033060
  14 H :    0.040980
  15 H :    0.038637
  16 S :    0.117890
  17 C :   -0.053426
  18 C :   -0.054826
  19 C :   -0.063220
  20 C :   -0.116162
  21 H :    0.022155
  22 C :    0.073712
  23 H :    0.011627
  24 H :    0.012112
  25 C :   -0.083870
  26 H :    0.035392
  27 H :    0.045499
  28 C :   -0.037722
  29 H :    0.040381
  30 H :    0.017726
  31 H :    0.019079
  32 H :    0.019328
  33 H :    0.040493
Sum of atomic charges:   -0.0000000

LOEWDIN ATOMIC CHARGES
----------------------
   0 S :    0.417237
   1 C :   -0.198580
   2 C :   -0.057390
   3 C :   -0.065320
   4 C :   -0.191598
   5 H :    0.020314
   6 C :   -0.028852
   7 H :    0.030519
   8 H :    0.043944
   9 C :   -0.041981
  10 H :    0.014567
  11 H :    0.027440
  12 C :   -0.078073
  13 H :    0.029525
  14 H :    0.026364
  15 H :    0.027203
  16 S :    0.428520
  17 C :   -0.195597
  18 C :   -0.066668
  19 C :   -0.052679
  20 C :   -0.195170
  21 H :    0.031853
  22 C :   -0.027659
  23 H :    0.019587
  24 H :    0.028526
  25 C :   -0.044108
  26 H :    0.029926
  27 H :    0.030730
  28 C :   -0.066730
  29 H :    0.029485
  30 H :    0.026434
  31 H :    0.014285
  32 H :    0.008969
  33 H :    0.024977

  Mayer bond orders larger than 0.100000
B(  0-S ,  1-C ) :   1.1505 B(  0-S ,  4-C ) :   1.1641 B(  1-C ,  2-C ) :   1.5652
B(  1-C , 32-H ) :   0.9819 B(  2-C ,  3-C ) :   1.2654 B(  2-C ,  6-C ) :   1.0369
B(  3-C ,  4-C ) :   1.5422 B(  3-C ,  5-H ) :   0.9977 B(  4-C , 20-C ) :   1.0416
B(  6-C ,  7-H ) :   0.9497 B(  6-C ,  8-H ) :   0.9341 B(  6-C ,  9-C ) :   1.0490
B(  9-C , 10-H ) :   0.9580 B(  9-C , 11-H ) :   0.9594 B(  9-C , 12-C ) :   1.0668
B( 12-C , 13-H ) :   0.9781 B( 12-C , 14-H ) :   0.9766 B( 12-C , 15-H ) :   0.9771
B( 16-S , 17-C ) :   1.1576 B( 16-S , 20-C ) :   1.1314 B( 17-C , 18-C ) :   1.6243
B( 17-C , 33-H ) :   0.9656 B( 18-C , 19-C ) :   1.2393 B( 18-C , 21-H ) :   0.9826
B( 19-C , 20-C ) :   1.6432 B( 19-C , 22-C ) :   1.0232 B( 22-C , 23-H ) :   0.9385
B( 22-C , 24-H ) :   0.9323 B( 22-C , 25-C ) :   1.0739 B( 25-C , 26-H ) :   0.9541
B( 25-C , 27-H ) :   0.9572 B( 25-C , 28-C ) :   1.0749 B( 28-C , 29-H ) :   0.9756
B( 28-C , 30-H ) :   0.9723 B( 28-C , 31-H ) :   0.9766

Dispersion correction           -0.013832702
FINAL SINGLE POINT ENERGY     -1339.868472701450

DIPOLE MOMENT
-------------
                                X             Y             Z
Electronic contribution:    -12.03406     -27.31163     -11.60633
Nuclear contribution   :     12.15855      27.73761      12.08797
                        -----------------------------------------
Total Dipole Moment    :      0.12449       0.42597       0.48164
                        -----------------------------------------
Magnitude (a.u.)       :      0.65493
Magnitude (Debye)      :      1.66469

Rotational constants in cm-1:     0.017645     0.009134     0.006541
Rotational constants in MHz :   528.969575   273.841042   196.089439

                             ****ORCA TERMINATED NORMALLY****
TOTAL RUN TIME: 0 days 0 hours 0 minutes 21 seconds 370 msec
