                         Program Version 4.2.1 -  RELEASE  -
|  1> ! wB97X-D3 SP def2-SVP
|  2> %pal
|  3> nprocs 24
|  4> end
|  5>
|  6> * xyz 0 1
|  7> S 	 -71.6277 	 12.5119 	 -76.526
|  8> C 	 -70.1176 	 12.897 	 -77.3432
|  9> C 	 -69.0107 	 13.0997 	 -76.4672
| 10> C 	 -69.4413 	 12.9015 	 -75.1523
| 11> C 	 -70.7744 	 12.6397 	 -75.0162
| 12> H 	 -68.835 	 12.9801 	 -74.2792
| 13> C 	 -67.5866 	 13.328 	 -76.8417
| 14> H 	 -67.2631 	 12.7845 	 -77.7838
| 15> H 	 -67.0687 	 12.8407 	 -75.9792
| 16> C 	 -67.1241 	 14.8326 	 -76.9266
| 17> H 	 -66.0225 	 14.7515 	 -77.1766
| 18> H 	 -67.5261 	 15.3751 	 -77.7587
| 19> C 	 -67.2146 	 15.6035 	 -75.6078
| 20> H 	 -66.4848 	 15.2145 	 -74.8513
| 21> H 	 -67.0223 	 16.6557 	 -75.8802
| 22> H 	 -68.1709 	 15.514 	 -75.0945
| 23> S 	 -72.4144 	 11.1843 	 -73.4008
| 24> C 	 -72.6953 	 11.7314 	 -71.7449
| 25> C 	 -71.9969 	 12.8801 	 -71.4304
| 26> C 	 -71.216 	 13.4156 	 -72.5435
| 27> C 	 -71.5076 	 12.6832 	 -73.7173
| 28> H 	 -71.9919 	 13.3509 	 -70.3952
| 29> C 	 -70.5616 	 14.7777 	 -72.3682
| 30> H 	 -71.3464 	 15.5217 	 -72.0623
| 31> H 	 -70.2099 	 15.1263 	 -73.3079
| 32> C 	 -69.331 	 14.7084 	 -71.5151
| 33> H 	 -68.611 	 14.139 	 -72.1622
| 34> H 	 -69.588 	 14.1067 	 -70.6604
| 35> C 	 -69.014 	 16.1478 	 -71.0379
| 36> H 	 -67.9736 	 16.3881 	 -70.8314
| 37> H 	 -69.5168 	 16.2664 	 -70.0761
| 38> H 	 -69.268 	 17.021 	 -71.6977
| 39> H 	 -69.8948 	 12.8281 	 -78.3937
| 40> H 	 -73.1075 	 11.1686 	 -70.8971
| 41> *
| 42>
| 43>                          ****END OF INPUT****

CARTESIAN COORDINATES (ANGSTROEM)
---------------------------------
  S    -71.627700   12.511900  -76.526000
  C    -70.117600   12.897000  -77.343200
  C    -69.010700   13.099700  -76.467200
  C    -69.441300   12.901500  -75.152300
  C    -70.774400   12.639700  -75.016200
  H    -68.835000   12.980100  -74.279200
  C    -67.586600   13.328000  -76.841700
  H    -67.263100   12.784500  -77.783800
  H    -67.068700   12.840700  -75.979200
  C    -67.124100   14.832600  -76.926600
  H    -66.022500   14.751500  -77.176600
  H    -67.526100   15.375100  -77.758700
  C    -67.214600   15.603500  -75.607800
  H    -66.484800   15.214500  -74.851300
  H    -67.022300   16.655700  -75.880200
  H    -68.170900   15.514000  -75.094500
  S    -72.414400   11.184300  -73.400800
  C    -72.695300   11.731400  -71.744900
  C    -71.996900   12.880100  -71.430400
  C    -71.216000   13.415600  -72.543500
  C    -71.507600   12.683200  -73.717300
  H    -71.991900   13.350900  -70.395200
  C    -70.561600   14.777700  -72.368200
  H    -71.346400   15.521700  -72.062300
  H    -70.209900   15.126300  -73.307900
  C    -69.331000   14.708400  -71.515100
  H    -68.611000   14.139000  -72.162200
  H    -69.588000   14.106700  -70.660400
  C    -69.014000   16.147800  -71.037900
  H    -67.973600   16.388100  -70.831400
  H    -69.516800   16.266400  -70.076100
  H    -69.268000   17.021000  -71.697700
  H    -69.894800   12.828100  -78.393700
  H    -73.107500   11.168600  -70.897100

 Total Charge           Charge          ....    0
 Multiplicity           Mult            ....    1
 Number of Electrons    NEL             ....  134
 Basis Dimension        Dim             ....  322

ORBITAL ENERGIES
----------------

  NO   OCC          E(Eh)            E(eV)
   0   2.0000     -88.972256     -2421.0582
   1   2.0000     -88.967730     -2420.9350
   2   2.0000     -10.332763      -281.1688
   3   2.0000     -10.325231      -280.9638
   4   2.0000     -10.319472      -280.8071
   5   2.0000     -10.314169      -280.6628
   6   2.0000     -10.308921      -280.5200
   7   2.0000     -10.302260      -280.3388
   8   2.0000     -10.300981      -280.3040
   9   2.0000     -10.299803      -280.2719
  10   2.0000     -10.293666      -280.1049
  11   2.0000     -10.292678      -280.0780
  12   2.0000     -10.289988      -280.0048
  13   2.0000     -10.286765      -279.9171
  14   2.0000     -10.285382      -279.8795
  15   2.0000     -10.283905      -279.8393
  16   2.0000      -8.086552      -220.0463
  17   2.0000      -8.081704      -219.9143
  18   2.0000      -6.044983      -164.4923
  19   2.0000      -6.041219      -164.3899
  20   2.0000      -6.040284      -164.3645
  21   2.0000      -6.037345      -164.2845
  22   2.0000      -6.036461      -164.2604
  23   2.0000      -6.032281      -164.1467
  24   2.0000      -1.003545       -27.3079
  25   2.0000      -0.978472       -26.6256
  26   2.0000      -0.917780       -24.9741
  27   2.0000      -0.908869       -24.7316
  28   2.0000      -0.861470       -23.4418
  29   2.0000      -0.854012       -23.2389
  30   2.0000      -0.844710       -22.9857
  31   2.0000      -0.810863       -22.0647
  32   2.0000      -0.782562       -21.2946
  33   2.0000      -0.768988       -20.9252
  34   2.0000      -0.704842       -19.1797
  35   2.0000      -0.703813       -19.1517
  36   2.0000      -0.690209       -18.7816
  37   2.0000      -0.656420       -17.8621
  38   2.0000      -0.636920       -17.3315
  39   2.0000      -0.616719       -16.7818
  40   2.0000      -0.596323       -16.2268
  41   2.0000      -0.570659       -15.5284
  42   2.0000      -0.565090       -15.3769
  43   2.0000      -0.544759       -14.8236
  44   2.0000      -0.538159       -14.6440
  45   2.0000      -0.517115       -14.0714
  46   2.0000      -0.512591       -13.9483
  47   2.0000      -0.511420       -13.9165
  48   2.0000      -0.503034       -13.6882
  49   2.0000      -0.494540       -13.4571
  50   2.0000      -0.488556       -13.2943
  51   2.0000      -0.473618       -12.8878
  52   2.0000      -0.469780       -12.7834
  53   2.0000      -0.464010       -12.6264
  54   2.0000      -0.456299       -12.4165
  55   2.0000      -0.454502       -12.3676
  56   2.0000      -0.446968       -12.1626
  57   2.0000      -0.440244       -11.9796
  58   2.0000      -0.435466       -11.8496
  59   2.0000      -0.430322       -11.7096
  60   2.0000      -0.418587       -11.3903
  61   2.0000      -0.416479       -11.3330
  62   2.0000      -0.413216       -11.2442
  63   2.0000      -0.344107        -9.3636
  64   2.0000      -0.336664        -9.1611
  65   2.0000      -0.329060        -8.9542
  66   2.0000      -0.288500        -7.8505
  67   0.0000       0.027036         0.7357
  68   0.0000       0.065405         1.7798
  69   0.0000       0.100419         2.7325
  70   0.0000       0.115740         3.1495
  71   0.0000       0.118562         3.2262

MULLIKEN ATOMIC CHARGES
-----------------------
   0 S :    0.130839
   1 C :   -0.104347
   2 C :   -0.083391
   3 C :    0.011664
   4 C :   -0.135083
   5 H :   -0.013978
   6 C :    0.014039
   7 H :    0.045391
   8 H :    0.032839
   9 C :   -0.063641
  10 H :    0.034850
  11 H :    0.031445
  12 C :   -0.074294
  13 H :    0.035397
  14 H :    0.044933
  15 H :    0.040799
  16 S :    0.093706
  17 C :   -0.076647
  18 C :   -0.070218
  19 C :   -0.060950
  20 C :   -0.126735
  21 H :    0.046358
  22 C :    0.034054
  23 H :    0.052028
  24 H :    0.011817
  25 C :   -0.059358
  26 H :    0.037642
  27 H :    0.026504
  28 C :   -0.059770
  29 H :    0.027280
  30 H :    0.036408
  31 H :    0.041788
  32 H :    0.034891
  33 H :    0.063741
Sum of atomic charges:   -0.0000000

LOEWDIN ATOMIC CHARGES
----------------------
   0 S :    0.415788
   1 C :   -0.198031
   2 C :   -0.063800
   3 C :   -0.066342
   4 C :   -0.202780
   5 H :    0.023979
   6 C :   -0.040639
   7 H :    0.039009
   8 H :    0.037387
   9 C :   -0.039593
  10 H :    0.031469
  11 H :    0.020067
  12 C :   -0.072542
  13 H :    0.029532
  14 H :    0.033088
  15 H :    0.021942
  16 S :    0.387346
  17 C :   -0.190629
  18 C :   -0.076386
  19 C :   -0.055295
  20 C :   -0.185069
  21 H :    0.041473
  22 C :   -0.033359
  23 H :    0.038901
  24 H :    0.021545
  25 C :   -0.037986
  26 H :    0.028282
  27 H :    0.020040
  28 C :   -0.072900
  29 H :    0.023882
  30 H :    0.030993
  31 H :    0.032030
  32 H :    0.022000
  33 H :    0.036601

  Mayer bond orders larger than 0.100000
B(  0-S ,  1-C ) :   1.1489 B(  0-S ,  4-C ) :   1.1512 B(  1-C ,  2-C ) :   1.5896
B(  1-C ,  4-C ) :   0.1009 B(  1-C , 32-H ) :   0.9639 B(  2-C ,  3-C ) :   1.2622
B(  2-C ,  6-C ) :   1.0152 B(  3-C ,  4-C ) :   1.5817 B(  3-C ,  5-H ) :   0.9948
B(  4-C , 20-C ) :   0.9845 B(  6-C ,  7-H ) :   0.9433 B(  6-C ,  8-H ) :   0.9448
B(  6-C ,  9-C ) :   1.0615 B(  9-C , 10-H ) :   0.9547 B(  9-C , 11-H ) :   0.9613
B(  9-C , 12-C ) :   1.0717 B( 12-C , 13-H ) :   0.9730 B( 12-C , 14-H ) :   0.9717
B( 12-C , 15-H ) :   0.9767 B( 16-S , 17-C ) :   1.1346 B( 16-S , 20-C ) :   1.1350
B( 17-C , 18-C ) :   1.6534 B( 17-C , 33-H ) :   0.9588 B( 18-C , 19-C ) :   1.2127
B( 18-C , 21-H ) :   0.9707 B( 19-C , 20-C ) :   1.6189 B( 19-C , 22-C ) :   1.0328
B( 22-C , 23-H ) :   0.9504 B( 22-C , 24-H ) :   0.9372 B( 22-C , 25-C ) :   1.0363
B( 25-C , 26-H ) :   0.9513 B( 25-C , 27-H ) :   0.9706 B( 25-C , 28-C ) :   1.0511
B( 28-C , 29-H ) :   0.9756 B( 28-C , 30-H ) :   0.9772 B( 28-C , 31-H ) :   0.9762

Dispersion correction           -0.015200630
FINAL SINGLE POINT ENERGY     -1339.863734469584

DIPOLE MOMENT
-------------
                                X             Y             Z
Electronic contribution:    -23.73845     -21.22728      -7.64549
Nuclear contribution   :     24.37668      21.64484       7.95045
                        -----------------------------------------
Total Dipole Moment    :      0.63823       0.41755       0.30496
                        -----------------------------------------
Magnitude (a.u.)       :      0.82139
Magnitude (Debye)      :      2.08781

Rotational constants in cm-1:     0.015908     0.010952     0.006914
Rotational constants in MHz :   476.909781   328.321930   207.287729

                             ****ORCA TERMINATED NORMALLY****
TOTAL RUN TIME: 0 days 0 hours 0 minutes 22 seconds 384 msec
