                         Program Version 4.2.1 -  RELEASE  -
|  1> ! wB97X-D3 SP def2-SVP
|  2> %pal
|  3> nprocs 24
|  4> end
|  5>
|  6> * xyz 0 1
|  7> S 	 -128.766 	 27.5156 	 -15.0676
|  8> C 	 -128.944 	 25.8664 	 -15.6068
|  9> C 	 -129.83 	 25.127 	 -14.7492
| 10> C 	 -130.474 	 26.0316 	 -13.8115
| 11> C 	 -130.072 	 27.364 	 -13.8964
| 12> H 	 -131.297 	 25.7431 	 -13.2405
| 13> C 	 -130.173 	 23.6363 	 -14.8455
| 14> H 	 -129.724 	 23.2786 	 -15.7298
| 15> H 	 -131.263 	 23.6616 	 -15.122
| 16> C 	 -129.841 	 22.6838 	 -13.6579
| 17> H 	 -130.437 	 22.8035 	 -12.7611
| 18> H 	 -130.185 	 21.725 	 -14.0434
| 19> C 	 -128.333 	 22.6713 	 -13.2546
| 20> H 	 -127.716 	 22.6323 	 -14.1237
| 21> H 	 -128.244 	 23.569 	 -12.6439
| 22> H 	 -128.082 	 21.9336 	 -12.5898
| 23> S 	 -129.392 	 29.0918 	 -12.0692
| 24> C 	 -130.561 	 30.2309 	 -11.4078
| 25> C 	 -131.809 	 30.0906 	 -11.9402
| 26> C 	 -131.768 	 29.0814 	 -12.9897
| 27> C 	 -130.572 	 28.4506 	 -13.109
| 28> H 	 -132.667 	 30.5836 	 -11.5797
| 29> C 	 -133.001 	 28.7138 	 -13.6933
| 30> H 	 -132.779 	 28.052 	 -14.5527
| 31> H 	 -133.294 	 29.6203 	 -14.0983
| 32> C 	 -134.123 	 28.0381 	 -12.9141
| 33> H 	 -134.178 	 28.6528 	 -12.0356
| 34> H 	 -133.781 	 27.0663 	 -12.5043
| 35> C 	 -135.402 	 27.9225 	 -13.6864
| 36> H 	 -136.043 	 27.2626 	 -13.0948
| 37> H 	 -135.087 	 27.3919 	 -14.6361
| 38> H 	 -135.932 	 28.8826 	 -13.8482
| 39> H 	 -128.53 	 25.4845 	 -16.5321
| 40> H 	 -130.398 	 30.8804 	 -10.5603
| 41> *
| 42>
| 43>                          ****END OF INPUT****

CARTESIAN COORDINATES (ANGSTROEM)
---------------------------------
  S    -128.766000   27.515600  -15.067600
  C    -128.944000   25.866400  -15.606800
  C    -129.830000   25.127000  -14.749200
  C    -130.474000   26.031600  -13.811500
  C    -130.072000   27.364000  -13.896400
  H    -131.297000   25.743100  -13.240500
  C    -130.173000   23.636300  -14.845500
  H    -129.724000   23.278600  -15.729800
  H    -131.263000   23.661600  -15.122000
  C    -129.841000   22.683800  -13.657900
  H    -130.437000   22.803500  -12.761100
  H    -130.185000   21.725000  -14.043400
  C    -128.333000   22.671300  -13.254600
  H    -127.716000   22.632300  -14.123700
  H    -128.244000   23.569000  -12.643900
  H    -128.082000   21.933600  -12.589800
  S    -129.392000   29.091800  -12.069200
  C    -130.561000   30.230900  -11.407800
  C    -131.809000   30.090600  -11.940200
  C    -131.768000   29.081400  -12.989700
  C    -130.572000   28.450600  -13.109000
  H    -132.667000   30.583600  -11.579700
  C    -133.001000   28.713800  -13.693300
  H    -132.779000   28.052000  -14.552700
  H    -133.294000   29.620300  -14.098300
  C    -134.123000   28.038100  -12.914100
  H    -134.178000   28.652800  -12.035600
  H    -133.781000   27.066300  -12.504300
  C    -135.402000   27.922500  -13.686400
  H    -136.043000   27.262600  -13.094800
  H    -135.087000   27.391900  -14.636100
  H    -135.932000   28.882600  -13.848200
  H    -128.530000   25.484500  -16.532100
  H    -130.398000   30.880400  -10.560300

 Total Charge           Charge          ....    0
 Multiplicity           Mult            ....    1
 Number of Electrons    NEL             ....  134
 Basis Dimension        Dim             ....  322

ORBITAL ENERGIES
----------------

  NO   OCC          E(Eh)            E(eV)
   0   2.0000     -88.966539     -2420.9026
   1   2.0000     -88.960696     -2420.7436
   2   2.0000     -10.327653      -281.0297
   3   2.0000     -10.318908      -280.7918
   4   2.0000     -10.314841      -280.6811
   5   2.0000     -10.314042      -280.6593
   6   2.0000     -10.308456      -280.5074
   7   2.0000     -10.297287      -280.2034
   8   2.0000     -10.295425      -280.1528
   9   2.0000     -10.291851      -280.0555
  10   2.0000     -10.291128      -280.0358
  11   2.0000     -10.291039      -280.0334
  12   2.0000     -10.284998      -279.8690
  13   2.0000     -10.282181      -279.7924
  14   2.0000     -10.275334      -279.6060
  15   2.0000     -10.268973      -279.4330
  16   2.0000      -8.080967      -219.8943
  17   2.0000      -8.076658      -219.7770
  18   2.0000      -6.039482      -164.3427
  19   2.0000      -6.035410      -164.2318
  20   2.0000      -6.035195      -164.2260
  21   2.0000      -6.031848      -164.1349
  22   2.0000      -6.031015      -164.1123
  23   2.0000      -6.027272      -164.0104
  24   2.0000      -1.011097       -27.5133
  25   2.0000      -0.979165       -26.6444
  26   2.0000      -0.917473       -24.9657
  27   2.0000      -0.905436       -24.6382
  28   2.0000      -0.872488       -23.7416
  29   2.0000      -0.854513       -23.2525
  30   2.0000      -0.845133       -22.9972
  31   2.0000      -0.816296       -22.2125
  32   2.0000      -0.783282       -21.3142
  33   2.0000      -0.769485       -20.9387
  34   2.0000      -0.710472       -19.3329
  35   2.0000      -0.699928       -19.0460
  36   2.0000      -0.692756       -18.8508
  37   2.0000      -0.669487       -18.2177
  38   2.0000      -0.640864       -17.4388
  39   2.0000      -0.621056       -16.8998
  40   2.0000      -0.597954       -16.2712
  41   2.0000      -0.570898       -15.5349
  42   2.0000      -0.561459       -15.2781
  43   2.0000      -0.553386       -15.0584
  44   2.0000      -0.541524       -14.7356
  45   2.0000      -0.525847       -14.3090
  46   2.0000      -0.520223       -14.1560
  47   2.0000      -0.515739       -14.0340
  48   2.0000      -0.511740       -13.9252
  49   2.0000      -0.499796       -13.6001
  50   2.0000      -0.488523       -13.2934
  51   2.0000      -0.472714       -12.8632
  52   2.0000      -0.470970       -12.8157
  53   2.0000      -0.463363       -12.6088
  54   2.0000      -0.459024       -12.4907
  55   2.0000      -0.454674       -12.3723
  56   2.0000      -0.444350       -12.0914
  57   2.0000      -0.436480       -11.8772
  58   2.0000      -0.435528       -11.8513
  59   2.0000      -0.427963       -11.6455
  60   2.0000      -0.421154       -11.4602
  61   2.0000      -0.411591       -11.2000
  62   2.0000      -0.409355       -11.1391
  63   2.0000      -0.343610        -9.3501
  64   2.0000      -0.326653        -8.8887
  65   2.0000      -0.323787        -8.8107
  66   2.0000      -0.294676        -8.0185
  67   0.0000       0.041540         1.1304
  68   0.0000       0.060965         1.6589
  69   0.0000       0.111426         3.0320
  70   0.0000       0.123846         3.3700
  71   0.0000       0.127004         3.4559

MULLIKEN ATOMIC CHARGES
-----------------------
   0 S :    0.125535
   1 C :   -0.126104
   2 C :   -0.118833
   3 C :    0.071493
   4 C :   -0.166569
   5 H :   -0.012972
   6 C :    0.066672
   7 H :    0.000984
   8 H :    0.043125
   9 C :   -0.070075
  10 H :    0.027357
  11 H :    0.023093
  12 C :   -0.006278
  13 H :    0.031830
  14 H :    0.039977
  15 H :    0.014239
  16 S :    0.104919
  17 C :   -0.073118
  18 C :   -0.026145
  19 C :   -0.040696
  20 C :   -0.162132
  21 H :    0.010569
  22 C :    0.073193
  23 H :    0.018816
  24 H :    0.002369
  25 C :   -0.067616
  26 H :    0.001344
  27 H :    0.023253
  28 C :   -0.034493
  29 H :    0.036078
  30 H :    0.040585
  31 H :    0.046297
  32 H :    0.053686
  33 H :    0.049615
Sum of atomic charges:    0.0000000

LOEWDIN ATOMIC CHARGES
----------------------
   0 S :    0.407926
   1 C :   -0.206031
   2 C :   -0.059141
   3 C :   -0.052503
   4 C :   -0.200647
   5 H :    0.019191
   6 C :   -0.034355
   7 H :    0.022059
   8 H :    0.041858
   9 C :   -0.035902
  10 H :    0.021703
  11 H :    0.022445
  12 C :   -0.052502
  13 H :    0.023221
  14 H :    0.034687
  15 H :    0.014888
  16 S :    0.419293
  17 C :   -0.174670
  18 C :   -0.062173
  19 C :   -0.055335
  20 C :   -0.215831
  21 H :    0.026309
  22 C :   -0.036178
  23 H :    0.029269
  24 H :    0.022550
  25 C :   -0.042883
  26 H :    0.014360
  27 H :    0.025058
  28 C :   -0.065148
  29 H :    0.028586
  30 H :    0.034903
  31 H :    0.030824
  32 H :    0.027330
  33 H :    0.026840

  Mayer bond orders larger than 0.100000
B(  0-S ,  1-C ) :   1.1515 B(  0-S ,  4-C ) :   1.1462 B(  1-C ,  2-C ) :   1.5802
B(  1-C ,  4-C ) :   0.1057 B(  1-C , 32-H ) :   0.9674 B(  2-C ,  3-C ) :   1.2421
B(  2-C ,  6-C ) :   1.0223 B(  3-C ,  4-C ) :   1.5687 B(  3-C ,  5-H ) :   1.0026
B(  4-C , 20-C ) :   1.0222 B(  6-C ,  7-H ) :   0.9374 B(  6-C ,  8-H ) :   0.9391
B(  6-C ,  9-C ) :   1.0622 B(  9-C , 10-H ) :   0.9604 B(  9-C , 11-H ) :   0.9553
B(  9-C , 12-C ) :   1.0689 B( 12-C , 13-H ) :   0.9794 B( 12-C , 14-H ) :   0.9729
B( 12-C , 15-H ) :   0.9736 B( 16-S , 17-C ) :   1.1431 B( 16-S , 20-C ) :   1.1377
B( 17-C , 18-C ) :   1.6441 B( 17-C , 33-H ) :   0.9653 B( 18-C , 19-C ) :   1.1904
B( 18-C , 21-H ) :   0.9965 B( 19-C , 20-C ) :   1.6517 B( 19-C , 22-C ) :   1.0664
B( 22-C , 23-H ) :   0.9250 B( 22-C , 24-H ) :   0.9165 B( 22-C , 25-C ) :   1.0662
B( 25-C , 26-H ) :   0.9499 B( 25-C , 27-H ) :   0.9491 B( 25-C , 28-C ) :   1.0821
B( 28-C , 29-H ) :   0.9722 B( 28-C , 30-H ) :   0.9711 B( 28-C , 31-H ) :   0.9733

Dispersion correction           -0.014185296
FINAL SINGLE POINT ENERGY     -1339.865102294643

DIPOLE MOMENT
-------------
                                X             Y             Z
Electronic contribution:     17.17264      18.18025      -0.05536
Nuclear contribution   :    -17.78948     -18.60760       0.14659
                        -----------------------------------------
Total Dipole Moment    :     -0.61683      -0.42735       0.09123
                        -----------------------------------------
Magnitude (a.u.)       :      0.75593
Magnitude (Debye)      :      1.92142

Rotational constants in cm-1:     0.017593     0.008638     0.006978
Rotational constants in MHz :   527.433008   258.963217   209.207194

                             ****ORCA TERMINATED NORMALLY****
TOTAL RUN TIME: 0 days 0 hours 0 minutes 21 seconds 360 msec
