                         Program Version 4.2.1 -  RELEASE  -
|  1> ! wB97X-D3 SP def2-SVP
|  2> %pal
|  3> nprocs 24
|  4> end
|  5>
|  6> * xyz 0 1
|  7> S 	 -110.55 	 36.508 	 -16.4442
|  8> C 	 -109.308 	 36.9956 	 -15.4008
|  9> C 	 -108.063 	 36.6283 	 -15.8006
| 10> C 	 -108.12 	 35.7668 	 -16.9725
| 11> C 	 -109.426 	 35.5815 	 -17.4446
| 12> H 	 -107.237 	 35.4672 	 -17.543
| 13> C 	 -106.78 	 37.2103 	 -15.2293
| 14> H 	 -106.956 	 38.0682 	 -14.6322
| 15> H 	 -106.245 	 37.5577 	 -16.1142
| 16> C 	 -105.846 	 36.1793 	 -14.5228
| 17> H 	 -106.497 	 35.7235 	 -13.7769
| 18> H 	 -105.696 	 35.455 	 -15.3162
| 19> C 	 -104.552 	 36.7718 	 -13.827
| 20> H 	 -103.801 	 35.9199 	 -13.7513
| 21> H 	 -103.866 	 37.3893 	 -14.4126
| 22> H 	 -104.693 	 37.1535 	 -12.8149
| 23> S 	 -111.306 	 35.3156 	 -19.4987
| 24> C 	 -111.271 	 33.9464 	 -20.6089
| 25> C 	 -110.198 	 33.1569 	 -20.3001
| 26> C 	 -109.489 	 33.5019 	 -19.0823
| 27> C 	 -109.943 	 34.7114 	 -18.4994
| 28> H 	 -109.95 	 32.3742 	 -20.9268
| 29> C 	 -108.331 	 32.6414 	 -18.6175
| 30> H 	 -107.427 	 33.2379 	 -18.9237
| 31> H 	 -108.219 	 31.6931 	 -19.2091
| 32> C 	 -108.261 	 32.2995 	 -17.1034
| 33> H 	 -109.284 	 32.3106 	 -16.6926
| 34> H 	 -107.791 	 33.0133 	 -16.4798
| 35> C 	 -107.555 	 30.8734 	 -16.9327
| 36> H 	 -108.015 	 30.1741 	 -17.527
| 37> H 	 -107.503 	 30.5096 	 -15.9127
| 38> H 	 -106.563 	 30.9354 	 -17.2875
| 39> H 	 -109.535 	 37.7238 	 -14.6659
| 40> H 	 -111.756 	 33.898 	 -21.5445
| 41> *
| 42>
| 43>                          ****END OF INPUT****

CARTESIAN COORDINATES (ANGSTROEM)
---------------------------------
  S    -110.550000   36.508000  -16.444200
  C    -109.308000   36.995600  -15.400800
  C    -108.063000   36.628300  -15.800600
  C    -108.120000   35.766800  -16.972500
  C    -109.426000   35.581500  -17.444600
  H    -107.237000   35.467200  -17.543000
  C    -106.780000   37.210300  -15.229300
  H    -106.956000   38.068200  -14.632200
  H    -106.245000   37.557700  -16.114200
  C    -105.846000   36.179300  -14.522800
  H    -106.497000   35.723500  -13.776900
  H    -105.696000   35.455000  -15.316200
  C    -104.552000   36.771800  -13.827000
  H    -103.801000   35.919900  -13.751300
  H    -103.866000   37.389300  -14.412600
  H    -104.693000   37.153500  -12.814900
  S    -111.306000   35.315600  -19.498700
  C    -111.271000   33.946400  -20.608900
  C    -110.198000   33.156900  -20.300100
  C    -109.489000   33.501900  -19.082300
  C    -109.943000   34.711400  -18.499400
  H    -109.950000   32.374200  -20.926800
  C    -108.331000   32.641400  -18.617500
  H    -107.427000   33.237900  -18.923700
  H    -108.219000   31.693100  -19.209100
  C    -108.261000   32.299500  -17.103400
  H    -109.284000   32.310600  -16.692600
  H    -107.791000   33.013300  -16.479800
  C    -107.555000   30.873400  -16.932700
  H    -108.015000   30.174100  -17.527000
  H    -107.503000   30.509600  -15.912700
  H    -106.563000   30.935400  -17.287500
  H    -109.535000   37.723800  -14.665900
  H    -111.756000   33.898000  -21.544500

 Total Charge           Charge          ....    0
 Multiplicity           Mult            ....    1
 Number of Electrons    NEL             ....  134
 Basis Dimension        Dim             ....  322

ORBITAL ENERGIES
----------------

  NO   OCC          E(Eh)            E(eV)
   0   2.0000     -88.964278     -2420.8411
   1   2.0000     -88.962859     -2420.8025
   2   2.0000     -10.337243      -281.2907
   3   2.0000     -10.335768      -281.2506
   4   2.0000     -10.316040      -280.7137
   5   2.0000     -10.311166      -280.5811
   6   2.0000     -10.306534      -280.4550
   7   2.0000     -10.303244      -280.3655
   8   2.0000     -10.302197      -280.3370
   9   2.0000     -10.300618      -280.2941
  10   2.0000     -10.294462      -280.1266
  11   2.0000     -10.291347      -280.0418
  12   2.0000     -10.290494      -280.0186
  13   2.0000     -10.289497      -279.9914
  14   2.0000     -10.285553      -279.8841
  15   2.0000     -10.269716      -279.4532
  16   2.0000      -8.080176      -219.8728
  17   2.0000      -8.076840      -219.7820
  18   2.0000      -6.038582      -164.3182
  19   2.0000      -6.035533      -164.2352
  20   2.0000      -6.034538      -164.2081
  21   2.0000      -6.031381      -164.1222
  22   2.0000      -6.030951      -164.1105
  23   2.0000      -6.027515      -164.0170
  24   2.0000      -1.005480       -27.3605
  25   2.0000      -0.981887       -26.7185
  26   2.0000      -0.907150       -24.6848
  27   2.0000      -0.900437       -24.5021
  28   2.0000      -0.870566       -23.6893
  29   2.0000      -0.847718       -23.0676
  30   2.0000      -0.841788       -22.9062
  31   2.0000      -0.817616       -22.2485
  32   2.0000      -0.782536       -21.2939
  33   2.0000      -0.771150       -20.9841
  34   2.0000      -0.716925       -19.5085
  35   2.0000      -0.705471       -19.1968
  36   2.0000      -0.692726       -18.8500
  37   2.0000      -0.665400       -18.1065
  38   2.0000      -0.645606       -17.5678
  39   2.0000      -0.623037       -16.9537
  40   2.0000      -0.592403       -16.1201
  41   2.0000      -0.568079       -15.4582
  42   2.0000      -0.564306       -15.3555
  43   2.0000      -0.557855       -15.1800
  44   2.0000      -0.523519       -14.2457
  45   2.0000      -0.519536       -14.1373
  46   2.0000      -0.515044       -14.0150
  47   2.0000      -0.510546       -13.8927
  48   2.0000      -0.505724       -13.7615
  49   2.0000      -0.501932       -13.6583
  50   2.0000      -0.489616       -13.3231
  51   2.0000      -0.482082       -13.1181
  52   2.0000      -0.476761       -12.9733
  53   2.0000      -0.471947       -12.8423
  54   2.0000      -0.457102       -12.4384
  55   2.0000      -0.449870       -12.2416
  56   2.0000      -0.443456       -12.0670
  57   2.0000      -0.439607       -11.9623
  58   2.0000      -0.433733       -11.8025
  59   2.0000      -0.424279       -11.5452
  60   2.0000      -0.417878       -11.3711
  61   2.0000      -0.416067       -11.3218
  62   2.0000      -0.412249       -11.2179
  63   2.0000      -0.358730        -9.7615
  64   2.0000      -0.330245        -8.9864
  65   2.0000      -0.324908        -8.8412
  66   2.0000      -0.286715        -7.8019
  67   0.0000       0.019465         0.5297
  68   0.0000       0.077113         2.0983
  69   0.0000       0.102103         2.7784
  70   0.0000       0.122208         3.3254
  71   0.0000       0.125982         3.4281

MULLIKEN ATOMIC CHARGES
-----------------------
   0 S :    0.107248
   1 C :   -0.109678
   2 C :   -0.098696
   3 C :    0.004634
   4 C :   -0.139297
   5 H :    0.026218
   6 C :    0.082278
   7 H :    0.009137
   8 H :    0.026377
   9 C :   -0.073540
  10 H :    0.034083
  11 H :    0.026595
  12 C :   -0.064125
  13 H :    0.030060
  14 H :    0.030898
  15 H :    0.052559
  16 S :    0.074447
  17 C :   -0.059533
  18 C :   -0.020010
  19 C :   -0.057016
  20 C :   -0.109315
  21 H :   -0.006659
  22 C :    0.022497
  23 H :    0.046153
  24 H :    0.026537
  25 C :   -0.063367
  26 H :    0.040857
  27 H :    0.029021
  28 C :   -0.027527
  29 H :    0.015243
  30 H :    0.033916
  31 H :    0.018407
  32 H :    0.039047
  33 H :    0.052551
Sum of atomic charges:    0.0000000

LOEWDIN ATOMIC CHARGES
----------------------
   0 S :    0.420221
   1 C :   -0.202575
   2 C :   -0.065379
   3 C :   -0.063334
   4 C :   -0.186058
   5 H :    0.033204
   6 C :   -0.028351
   7 H :    0.020554
   8 H :    0.031348
   9 C :   -0.037076
  10 H :    0.026782
  11 H :    0.021960
  12 C :   -0.081425
  13 H :    0.037598
  14 H :    0.026770
  15 H :    0.029835
  16 S :    0.376871
  17 C :   -0.173146
  18 C :   -0.061976
  19 C :   -0.053035
  20 C :   -0.188297
  21 H :    0.018651
  22 C :   -0.040542
  23 H :    0.039411
  24 H :    0.034776
  25 C :   -0.034750
  26 H :    0.029330
  27 H :    0.016473
  28 C :   -0.053686
  29 H :    0.011461
  30 H :    0.026899
  31 H :    0.019666
  32 H :    0.020625
  33 H :    0.027196

  Mayer bond orders larger than 0.100000
B(  0-S ,  1-C ) :   1.1547 B(  0-S ,  4-C ) :   1.1544 B(  1-C ,  2-C ) :   1.6160
B(  1-C , 32-H ) :   0.9702 B(  2-C ,  3-C ) :   1.2368 B(  2-C ,  6-C ) :   1.0248
B(  3-C ,  4-C ) :   1.5678 B(  3-C ,  5-H ) :   0.9880 B(  4-C , 20-C ) :   1.0561
B(  6-C ,  7-H ) :   0.9467 B(  6-C ,  8-H ) :   0.9390 B(  6-C ,  9-C ) :   1.0443
B(  9-C , 10-H ) :   0.9607 B(  9-C , 11-H ) :   0.9638 B(  9-C , 12-C ) :   1.0665
B( 12-C , 13-H ) :   0.9717 B( 12-C , 14-H ) :   0.9748 B( 12-C , 15-H ) :   0.9777
B( 16-S , 17-C ) :   1.1419 B( 16-S , 20-C ) :   1.1243 B( 17-C , 18-C ) :   1.6189
B( 17-C , 33-H ) :   0.9677 B( 18-C , 19-C ) :   1.2466 B( 18-C , 21-H ) :   0.9975
B( 19-C , 20-C ) :   1.5689 B( 19-C , 22-C ) :   1.0444 B( 22-C , 23-H ) :   0.9226
B( 22-C , 24-H ) :   0.9466 B( 22-C , 25-C ) :   1.0388 B( 25-C , 26-H ) :   0.9672
B( 25-C , 27-H ) :   0.9504 B( 25-C , 28-C ) :   1.0761 B( 28-C , 29-H ) :   0.9796
B( 28-C , 30-H ) :   0.9764 B( 28-C , 31-H ) :   0.9758

Dispersion correction           -0.014102112
FINAL SINGLE POINT ENERGY     -1339.865670056333

DIPOLE MOMENT
-------------
                                X             Y             Z
Electronic contribution:    -27.44026      10.72714     -13.52226
Nuclear contribution   :     28.22423     -10.88582      13.50455
                        -----------------------------------------
Total Dipole Moment    :      0.78397      -0.15868      -0.01771
                        -----------------------------------------
Magnitude (a.u.)       :      0.80006
Magnitude (Debye)      :      2.03360

Rotational constants in cm-1:     0.018460     0.008566     0.006360
Rotational constants in MHz :   553.426041   256.787578   190.682984

                             ****ORCA TERMINATED NORMALLY****
TOTAL RUN TIME: 0 days 0 hours 0 minutes 21 seconds 505 msec
