                         Program Version 4.2.1 -  RELEASE  -
|  1> ! wB97X-D3 SP def2-SVP
|  2> %pal
|  3> nprocs 24
|  4> end
|  5>
|  6> * xyz 0 1
|  7> S 	 -107.112 	 14.5735 	 -123.582
|  8> C 	 -107.241 	 14.7872 	 -121.879
|  9> C 	 -108.529 	 15.1975 	 -121.501
| 10> C 	 -109.341 	 15.5219 	 -122.676
| 11> C 	 -108.726 	 15.1789 	 -123.887
| 12> H 	 -110.315 	 15.9568 	 -122.759
| 13> C 	 -109.008 	 15.3643 	 -120.135
| 14> H 	 -109.608 	 16.3134 	 -120.122
| 15> H 	 -108.056 	 15.4043 	 -119.515
| 16> C 	 -109.861 	 14.2105 	 -119.597
| 17> H 	 -109.287 	 13.3231 	 -119.744
| 18> H 	 -110.062 	 14.2511 	 -118.512
| 19> C 	 -111.182 	 14.0926 	 -120.372
| 20> H 	 -111.469 	 15.084 	 -120.712
| 21> H 	 -111.108 	 13.3753 	 -121.282
| 22> H 	 -112.044 	 13.6769 	 -119.7
| 23> S 	 -108.362 	 16.2447 	 -126.248
| 24> C 	 -109.656 	 16.6313 	 -127.371
| 25> C 	 -110.775 	 15.944 	 -126.994
| 26> C 	 -110.609 	 15.2995 	 -125.775
| 27> C 	 -109.378 	 15.4354 	 -125.196
| 28> H 	 -111.717 	 15.8689 	 -127.656
| 29> C 	 -111.631 	 14.4263 	 -125.153
| 30> H 	 -112.432 	 15.1257 	 -124.836
| 31> H 	 -111.375 	 13.9844 	 -124.241
| 32> C 	 -112.296 	 13.3267 	 -125.998
| 33> H 	 -111.642 	 12.5284 	 -126.313
| 34> H 	 -112.702 	 13.7407 	 -126.879
| 35> C 	 -113.402 	 12.5349 	 -125.25
| 36> H 	 -113.123 	 12.288 	 -124.207
| 37> H 	 -113.513 	 11.558 	 -125.782
| 38> H 	 -114.333 	 13.0522 	 -125.24
| 39> H 	 -106.546 	 14.4988 	 -121.156
| 40> H 	 -109.742 	 17.3353 	 -128.199
| 41> *
| 42>
| 43>                          ****END OF INPUT****

CARTESIAN COORDINATES (ANGSTROEM)
---------------------------------
  S    -107.112000   14.573500  -123.582000
  C    -107.241000   14.787200  -121.879000
  C    -108.529000   15.197500  -121.501000
  C    -109.341000   15.521900  -122.676000
  C    -108.726000   15.178900  -123.887000
  H    -110.315000   15.956800  -122.759000
  C    -109.008000   15.364300  -120.135000
  H    -109.608000   16.313400  -120.122000
  H    -108.056000   15.404300  -119.515000
  C    -109.861000   14.210500  -119.597000
  H    -109.287000   13.323100  -119.744000
  H    -110.062000   14.251100  -118.512000
  C    -111.182000   14.092600  -120.372000
  H    -111.469000   15.084000  -120.712000
  H    -111.108000   13.375300  -121.282000
  H    -112.044000   13.676900  -119.700000
  S    -108.362000   16.244700  -126.248000
  C    -109.656000   16.631300  -127.371000
  C    -110.775000   15.944000  -126.994000
  C    -110.609000   15.299500  -125.775000
  C    -109.378000   15.435400  -125.196000
  H    -111.717000   15.868900  -127.656000
  C    -111.631000   14.426300  -125.153000
  H    -112.432000   15.125700  -124.836000
  H    -111.375000   13.984400  -124.241000
  C    -112.296000   13.326700  -125.998000
  H    -111.642000   12.528400  -126.313000
  H    -112.702000   13.740700  -126.879000
  C    -113.402000   12.534900  -125.250000
  H    -113.123000   12.288000  -124.207000
  H    -113.513000   11.558000  -125.782000
  H    -114.333000   13.052200  -125.240000
  H    -106.546000   14.498800  -121.156000
  H    -109.742000   17.335300  -128.199000

 Total Charge           Charge          ....    0
 Multiplicity           Mult            ....    1
 Number of Electrons    NEL             ....  134
 Basis Dimension        Dim             ....  322

ORBITAL ENERGIES
----------------

  NO   OCC          E(Eh)            E(eV)
   0   2.0000     -88.971150     -2421.0281
   1   2.0000     -88.962021     -2420.7797
   2   2.0000     -10.335109      -281.2326
   3   2.0000     -10.321607      -280.8652
   4   2.0000     -10.316031      -280.7135
   5   2.0000     -10.311988      -280.6035
   6   2.0000     -10.303871      -280.3826
   7   2.0000     -10.296950      -280.1943
   8   2.0000     -10.295839      -280.1640
   9   2.0000     -10.295270      -280.1485
  10   2.0000     -10.295229      -280.1474
  11   2.0000     -10.291544      -280.0472
  12   2.0000     -10.286715      -279.9157
  13   2.0000     -10.282015      -279.7878
  14   2.0000     -10.280646      -279.7506
  15   2.0000     -10.279355      -279.7155
  16   2.0000      -8.085804      -220.0259
  17   2.0000      -8.078455      -219.8259
  18   2.0000      -6.044401      -164.4765
  19   2.0000      -6.040250      -164.3636
  20   2.0000      -6.036906      -164.2726
  21   2.0000      -6.036545      -164.2628
  22   2.0000      -6.032569      -164.1545
  23   2.0000      -6.029278      -164.0650
  24   2.0000      -1.019223       -27.7345
  25   2.0000      -0.990358       -26.9490
  26   2.0000      -0.918779       -25.0012
  27   2.0000      -0.909860       -24.7585
  28   2.0000      -0.875187       -23.8150
  29   2.0000      -0.853282       -23.2190
  30   2.0000      -0.843850       -22.9623
  31   2.0000      -0.821327       -22.3495
  32   2.0000      -0.775624       -21.1058
  33   2.0000      -0.768498       -20.9119
  34   2.0000      -0.705347       -19.1935
  35   2.0000      -0.704381       -19.1672
  36   2.0000      -0.698719       -19.0131
  37   2.0000      -0.663119       -18.0444
  38   2.0000      -0.645016       -17.5518
  39   2.0000      -0.613557       -16.6957
  40   2.0000      -0.598385       -16.2829
  41   2.0000      -0.577709       -15.7203
  42   2.0000      -0.564277       -15.3548
  43   2.0000      -0.548397       -14.9227
  44   2.0000      -0.543875       -14.7996
  45   2.0000      -0.526939       -14.3387
  46   2.0000      -0.518755       -14.1161
  47   2.0000      -0.511963       -13.9312
  48   2.0000      -0.509289       -13.8585
  49   2.0000      -0.501408       -13.6440
  50   2.0000      -0.485360       -13.2073
  51   2.0000      -0.478504       -13.0207
  52   2.0000      -0.471991       -12.8435
  53   2.0000      -0.467977       -12.7343
  54   2.0000      -0.460748       -12.5376
  55   2.0000      -0.450094       -12.2477
  56   2.0000      -0.439026       -11.9465
  57   2.0000      -0.436151       -11.8683
  58   2.0000      -0.432222       -11.7613
  59   2.0000      -0.428923       -11.6716
  60   2.0000      -0.422700       -11.5023
  61   2.0000      -0.418053       -11.3758
  62   2.0000      -0.408387       -11.1128
  63   2.0000      -0.355399        -9.6709
  64   2.0000      -0.329087        -8.9549
  65   2.0000      -0.323146        -8.7932
  66   2.0000      -0.291191        -7.9237
  67   0.0000       0.033469         0.9107
  68   0.0000       0.070454         1.9172
  69   0.0000       0.112355         3.0573
  70   0.0000       0.115591         3.1454
  71   0.0000       0.130025         3.5381

MULLIKEN ATOMIC CHARGES
-----------------------
   0 S :    0.127523
   1 C :   -0.085498
   2 C :   -0.096160
   3 C :    0.024866
   4 C :   -0.127353
   5 H :    0.010085
   6 C :    0.013265
   7 H :    0.047382
   8 H :    0.030836
   9 C :   -0.024705
  10 H :    0.015589
  11 H :    0.040589
  12 C :   -0.115419
  13 H :    0.025674
  14 H :    0.063373
  15 H :    0.047567
  16 S :    0.106462
  17 C :   -0.086263
  18 C :   -0.080033
  19 C :   -0.028459
  20 C :   -0.153975
  21 H :    0.051051
  22 C :    0.075778
  23 H :    0.021391
  24 H :   -0.004224
  25 C :   -0.050030
  26 H :    0.028301
  27 H :    0.009852
  28 C :   -0.073366
  29 H :    0.032142
  30 H :    0.038087
  31 H :    0.031779
  32 H :    0.027775
  33 H :    0.056118
Sum of atomic charges:   -0.0000000

LOEWDIN ATOMIC CHARGES
----------------------
   0 S :    0.419001
   1 C :   -0.203921
   2 C :   -0.059557
   3 C :   -0.061090
   4 C :   -0.198172
   5 H :    0.027385
   6 C :   -0.041957
   7 H :    0.037187
   8 H :    0.039084
   9 C :   -0.043238
  10 H :    0.021196
  11 H :    0.028320
  12 C :   -0.079304
  13 H :    0.015852
  14 H :    0.037039
  15 H :    0.036219
  16 S :    0.442715
  17 C :   -0.190250
  18 C :   -0.081259
  19 C :   -0.072155
  20 C :   -0.214223
  21 H :    0.048458
  22 C :   -0.033193
  23 H :    0.034619
  24 H :    0.018404
  25 C :   -0.033265
  26 H :    0.024573
  27 H :    0.013228
  28 C :   -0.063230
  29 H :    0.025785
  30 H :    0.032356
  31 H :    0.017784
  32 H :    0.018793
  33 H :    0.036816

  Mayer bond orders larger than 0.100000
B(  0-S ,  1-C ) :   1.1375 B(  0-S ,  4-C ) :   1.1541 B(  1-C ,  2-C ) :   1.6075
B(  1-C , 32-H ) :   0.9686 B(  2-C ,  3-C ) :   1.2167 B(  2-C ,  6-C ) :   1.0410
B(  3-C ,  4-C ) :   1.5771 B(  3-C ,  5-H ) :   0.9929 B(  4-C , 20-C ) :   1.0036
B(  6-C ,  7-H ) :   0.9426 B(  6-C ,  8-H ) :   0.9330 B(  6-C ,  9-C ) :   1.0739
B(  9-C , 10-H ) :   0.9499 B(  9-C , 11-H ) :   0.9601 B(  9-C , 12-C ) :   1.0664
B( 12-C , 13-H ) :   0.9761 B( 12-C , 14-H ) :   0.9705 B( 12-C , 15-H ) :   0.9730
B( 16-S , 17-C ) :   1.1693 B( 16-S , 20-C ) :   1.1562 B( 17-C , 18-C ) :   1.5866
B( 17-C , 33-H ) :   0.9657 B( 18-C , 19-C ) :   1.2772 B( 18-C , 21-H ) :   0.9744
B( 19-C , 20-C ) :   1.5876 B( 19-C , 22-C ) :   1.0415 B( 22-C , 23-H ) :   0.9229
B( 22-C , 24-H ) :   0.9395 B( 22-C , 25-C ) :   1.0670 B( 25-C , 26-H ) :   0.9605
B( 25-C , 27-H ) :   0.9509 B( 25-C , 28-C ) :   1.0823 B( 28-C , 29-H ) :   0.9755
B( 28-C , 30-H ) :   0.9784 B( 28-C , 31-H ) :   0.9781

Dispersion correction           -0.014494998
FINAL SINGLE POINT ENERGY     -1339.859518344499

DIPOLE MOMENT
-------------
                                X             Y             Z
Electronic contribution:     24.57234      11.01821     -13.49094
Nuclear contribution   :    -25.16556     -11.13029      13.77545
                        -----------------------------------------
Total Dipole Moment    :     -0.59323      -0.11209       0.28451
                        -----------------------------------------
Magnitude (a.u.)       :      0.66741
Magnitude (Debye)      :      1.69641

Rotational constants in cm-1:     0.016556     0.010086     0.006975
Rotational constants in MHz :   496.330875   302.369751   209.094258

                             ****ORCA TERMINATED NORMALLY****
TOTAL RUN TIME: 0 days 0 hours 0 minutes 22 seconds 265 msec
