                         Program Version 4.2.1 -  RELEASE  -
|  1> ! wB97X-D3 SP def2-SVP
|  2> %pal
|  3> nprocs 24
|  4> end
|  5>
|  6> * xyz 0 1
|  7> S 	 -109.852 	 53.9177 	 -111.53
|  8> C 	 -109.52 	 55.5772 	 -111.069
|  9> C 	 -109.253 	 55.7165 	 -109.711
| 10> C 	 -109.352 	 54.4446 	 -109.049
| 11> C 	 -109.747 	 53.4145 	 -109.847
| 12> H 	 -109.147 	 54.3818 	 -107.961
| 13> C 	 -109.009 	 57.0361 	 -109
| 14> H 	 -109.51 	 57.0136 	 -108.03
| 15> H 	 -109.535 	 57.8057 	 -109.668
| 16> C 	 -107.553 	 57.5714 	 -108.97
| 17> H 	 -107.193 	 57.8529 	 -109.925
| 18> H 	 -107.622 	 58.5517 	 -108.491
| 19> C 	 -106.641 	 56.6487 	 -108.116
| 20> H 	 -105.684 	 57.1898 	 -107.826
| 21> H 	 -107.118 	 56.3066 	 -107.212
| 22> H 	 -106.398 	 55.7669 	 -108.737
| 23> S 	 -108.872 	 51.3489 	 -108.203
| 24> C 	 -109.813 	 49.9605 	 -108.125
| 25> C 	 -110.798 	 49.8597 	 -109.065
| 26> C 	 -111.007 	 51.1444 	 -109.648
| 27> C 	 -109.97 	 52.0542 	 -109.407
| 28> H 	 -111.326 	 48.8708 	 -109.243
| 29> C 	 -112.166 	 51.3444 	 -110.488
| 30> H 	 -112.621 	 50.3773 	 -110.655
| 31> H 	 -111.819 	 51.6037 	 -111.532
| 32> C 	 -113.18 	 52.3738 	 -110.022
| 33> H 	 -113.73 	 52.6448 	 -110.932
| 34> H 	 -112.588 	 53.3006 	 -109.921
| 35> C 	 -114.13 	 52.0771 	 -108.842
| 36> H 	 -113.527 	 51.7738 	 -107.963
| 37> H 	 -114.822 	 51.3163 	 -109.142
| 38> H 	 -114.844 	 52.7994 	 -108.452
| 39> H 	 -109.739 	 56.3809 	 -111.744
| 40> H 	 -109.37 	 49.1109 	 -107.52
| 41> *
| 42>
| 43>                          ****END OF INPUT****

CARTESIAN COORDINATES (ANGSTROEM)
---------------------------------
  S    -109.852000   53.917700  -111.530000
  C    -109.520000   55.577200  -111.069000
  C    -109.253000   55.716500  -109.711000
  C    -109.352000   54.444600  -109.049000
  C    -109.747000   53.414500  -109.847000
  H    -109.147000   54.381800  -107.961000
  C    -109.009000   57.036100  -109.000000
  H    -109.510000   57.013600  -108.030000
  H    -109.535000   57.805700  -109.668000
  C    -107.553000   57.571400  -108.970000
  H    -107.193000   57.852900  -109.925000
  H    -107.622000   58.551700  -108.491000
  C    -106.641000   56.648700  -108.116000
  H    -105.684000   57.189800  -107.826000
  H    -107.118000   56.306600  -107.212000
  H    -106.398000   55.766900  -108.737000
  S    -108.872000   51.348900  -108.203000
  C    -109.813000   49.960500  -108.125000
  C    -110.798000   49.859700  -109.065000
  C    -111.007000   51.144400  -109.648000
  C    -109.970000   52.054200  -109.407000
  H    -111.326000   48.870800  -109.243000
  C    -112.166000   51.344400  -110.488000
  H    -112.621000   50.377300  -110.655000
  H    -111.819000   51.603700  -111.532000
  C    -113.180000   52.373800  -110.022000
  H    -113.730000   52.644800  -110.932000
  H    -112.588000   53.300600  -109.921000
  C    -114.130000   52.077100  -108.842000
  H    -113.527000   51.773800  -107.963000
  H    -114.822000   51.316300  -109.142000
  H    -114.844000   52.799400  -108.452000
  H    -109.739000   56.380900  -111.744000
  H    -109.370000   49.110900  -107.520000

 Total Charge           Charge          ....    0
 Multiplicity           Mult            ....    1
 Number of Electrons    NEL             ....  134
 Basis Dimension        Dim             ....  322

ORBITAL ENERGIES
----------------

  NO   OCC          E(Eh)            E(eV)
   0   2.0000     -88.966830     -2420.9105
   1   2.0000     -88.963795     -2420.8279
   2   2.0000     -10.328272      -281.0466
   3   2.0000     -10.323238      -280.9096
   4   2.0000     -10.313920      -280.6560
   5   2.0000     -10.312361      -280.6136
   6   2.0000     -10.301712      -280.3238
   7   2.0000     -10.299767      -280.2709
   8   2.0000     -10.298504      -280.2365
   9   2.0000     -10.295753      -280.1617
  10   2.0000     -10.293412      -280.0980
  11   2.0000     -10.286777      -279.9174
  12   2.0000     -10.284851      -279.8650
  13   2.0000     -10.282545      -279.8023
  14   2.0000     -10.281810      -279.7823
  15   2.0000     -10.275108      -279.5999
  16   2.0000      -8.081129      -219.8987
  17   2.0000      -8.079654      -219.8586
  18   2.0000      -6.039714      -164.3490
  19   2.0000      -6.037949      -164.3010
  20   2.0000      -6.035773      -164.2417
  21   2.0000      -6.034019      -164.1940
  22   2.0000      -6.031787      -164.1333
  23   2.0000      -6.030567      -164.1001
  24   2.0000      -1.009665       -27.4744
  25   2.0000      -0.987024       -26.8583
  26   2.0000      -0.913380       -24.8543
  27   2.0000      -0.907334       -24.6898
  28   2.0000      -0.868225       -23.6256
  29   2.0000      -0.850299       -23.1378
  30   2.0000      -0.843663       -22.9572
  31   2.0000      -0.810204       -22.0468
  32   2.0000      -0.785591       -21.3770
  33   2.0000      -0.769266       -20.9328
  34   2.0000      -0.711873       -19.3711
  35   2.0000      -0.705565       -19.1994
  36   2.0000      -0.685425       -18.6514
  37   2.0000      -0.661357       -17.9964
  38   2.0000      -0.634374       -17.2622
  39   2.0000      -0.612767       -16.6742
  40   2.0000      -0.591045       -16.0832
  41   2.0000      -0.568779       -15.4773
  42   2.0000      -0.550580       -14.9821
  43   2.0000      -0.544870       -14.8267
  44   2.0000      -0.539392       -14.6776
  45   2.0000      -0.535092       -14.5606
  46   2.0000      -0.515299       -14.0220
  47   2.0000      -0.507881       -13.8201
  48   2.0000      -0.503454       -13.6997
  49   2.0000      -0.489389       -13.3170
  50   2.0000      -0.487535       -13.2665
  51   2.0000      -0.475286       -12.9332
  52   2.0000      -0.472061       -12.8454
  53   2.0000      -0.467927       -12.7329
  54   2.0000      -0.461808       -12.5664
  55   2.0000      -0.450965       -12.2714
  56   2.0000      -0.447108       -12.1664
  57   2.0000      -0.445639       -12.1265
  58   2.0000      -0.431042       -11.7292
  59   2.0000      -0.418847       -11.3974
  60   2.0000      -0.413756       -11.2589
  61   2.0000      -0.407764       -11.0958
  62   2.0000      -0.406002       -11.0479
  63   2.0000      -0.346333        -9.4242
  64   2.0000      -0.330305        -8.9880
  65   2.0000      -0.329496        -8.9661
  66   2.0000      -0.287559        -7.8249
  67   0.0000       0.025025         0.6810
  68   0.0000       0.077934         2.1207
  69   0.0000       0.105894         2.8815
  70   0.0000       0.113218         3.0808
  71   0.0000       0.123064         3.3487

MULLIKEN ATOMIC CHARGES
-----------------------
   0 S :    0.105268
   1 C :   -0.127778
   2 C :   -0.076511
   3 C :   -0.006489
   4 C :   -0.139452
   5 H :    0.023959
   6 C :    0.008502
   7 H :    0.039869
   8 H :    0.031163
   9 C :   -0.028990
  10 H :    0.018836
  11 H :    0.023497
  12 C :   -0.074606
  13 H :    0.044430
  14 H :    0.028539
  15 H :    0.052187
  16 S :    0.114221
  17 C :   -0.117033
  18 C :   -0.048785
  19 C :   -0.056346
  20 C :   -0.127876
  21 H :    0.052490
  22 C :    0.041689
  23 H :    0.001986
  24 H :    0.036899
  25 C :   -0.051733
  26 H :    0.017030
  27 H :    0.029809
  28 C :   -0.031729
  29 H :    0.042423
  30 H :    0.019280
  31 H :    0.032931
  32 H :    0.046463
  33 H :    0.075856
Sum of atomic charges:   -0.0000000

LOEWDIN ATOMIC CHARGES
----------------------
   0 S :    0.399214
   1 C :   -0.194692
   2 C :   -0.062923
   3 C :   -0.072229
   4 C :   -0.191720
   5 H :    0.034219
   6 C :   -0.034868
   7 H :    0.031328
   8 H :    0.040360
   9 C :   -0.036655
  10 H :    0.019088
  11 H :    0.024714
  12 C :   -0.070680
  13 H :    0.032987
  14 H :    0.020292
  15 H :    0.031262
  16 S :    0.428637
  17 C :   -0.210155
  18 C :   -0.083382
  19 C :   -0.056121
  20 C :   -0.197903
  21 H :    0.048523
  22 C :   -0.042039
  23 H :    0.025001
  24 H :    0.038576
  25 C :   -0.044375
  26 H :    0.025889
  27 H :    0.026566
  28 C :   -0.072216
  29 H :    0.031992
  30 H :    0.022691
  31 H :    0.030170
  32 H :    0.022109
  33 H :    0.036340

  Mayer bond orders larger than 0.100000
B(  0-S ,  1-C ) :   1.1326 B(  0-S ,  4-C ) :   1.1389 B(  1-C ,  2-C ) :   1.6192
B(  1-C , 32-H ) :   0.9648 B(  2-C ,  3-C ) :   1.2421 B(  2-C ,  6-C ) :   1.0166
B(  3-C ,  4-C ) :   1.5684 B(  3-C ,  5-H ) :   0.9888 B(  4-C , 20-C ) :   1.0608
B(  6-C ,  7-H ) :   0.9479 B(  6-C ,  8-H ) :   0.9391 B(  6-C ,  9-C ) :   1.0776
B(  9-C , 10-H ) :   0.9565 B(  9-C , 11-H ) :   0.9532 B(  9-C , 12-C ) :   1.0650
B( 12-C , 13-H ) :   0.9752 B( 12-C , 14-H ) :   0.9762 B( 12-C , 15-H ) :   0.9763
B( 16-S , 17-C ) :   1.1991 B( 16-S , 20-C ) :   1.1283 B( 17-C , 18-C ) :   1.5924
B( 17-C , 33-H ) :   0.9513 B( 18-C , 19-C ) :   1.2433 B( 18-C , 21-H ) :   0.9805
B( 19-C , 20-C ) :   1.5609 B( 19-C , 22-C ) :   1.0672 B( 22-C , 23-H ) :   0.9273
B( 22-C , 24-H ) :   0.9252 B( 22-C , 25-C ) :   1.0685 B( 25-C , 26-H ) :   0.9494
B( 25-C , 27-H ) :   0.9542 B( 25-C , 28-C ) :   1.0594 B( 28-C , 29-H ) :   0.9773
B( 28-C , 30-H ) :   0.9723 B( 28-C , 31-H ) :   0.9754

Dispersion correction           -0.015049038
FINAL SINGLE POINT ENERGY     -1339.876300381747

DIPOLE MOMENT
-------------
                                X             Y             Z
Electronic contribution:      6.59689     -12.16689      -5.40770
Nuclear contribution   :     -6.79837      12.35054       5.53857
                        -----------------------------------------
Total Dipole Moment    :     -0.20147       0.18365       0.13086
                        -----------------------------------------
Magnitude (a.u.)       :      0.30240
Magnitude (Debye)      :      0.76863

Rotational constants in cm-1:     0.021088     0.008511     0.007171
Rotational constants in MHz :   632.202700   255.150107   214.986039

                             ****ORCA TERMINATED NORMALLY****
TOTAL RUN TIME: 0 days 0 hours 0 minutes 20 seconds 900 msec
