                         Program Version 4.2.1 -  RELEASE  -
|  1> ! wB97X-D3 SP def2-SVP
|  2> %pal
|  3> nprocs 24
|  4> end
|  5>
|  6> * xyz 0 1
|  7> S 	 -75.5245 	 -4.09311 	 0.984937
|  8> C 	 -73.7498 	 -3.91335 	 0.956867
|  9> C 	 -73.134 	 -5.1813 	 0.992829
| 10> C 	 -74.0495 	 -6.27223 	 0.933919
| 11> C 	 -75.3628 	 -5.82877 	 1.04655
| 12> H 	 -73.7785 	 -7.31203 	 0.766584
| 13> C 	 -71.6139 	 -5.3916 	 0.833302
| 14> H 	 -71.3642 	 -4.65593 	 0.142069
| 15> H 	 -71.432 	 -6.32981 	 0.188184
| 16> C 	 -70.8001 	 -5.55836 	 2.11459
| 17> H 	 -69.657 	 -5.53164 	 1.92415
| 18> H 	 -70.9153 	 -4.71184 	 2.84331
| 19> C 	 -71.0601 	 -6.93956 	 2.82658
| 20> H 	 -70.3552 	 -7.05741 	 3.71517
| 21> H 	 -72.0543 	 -7.10758 	 3.21293
| 22> H 	 -70.8335 	 -7.77485 	 2.20105
| 23> S 	 -76.9625 	 -7.54673 	 -0.210196
| 24> C 	 -78.0052 	 -8.62046 	 0.753764
| 25> C 	 -78.1247 	 -8.12293 	 2.05803
| 26> C 	 -77.2787 	 -7.05607 	 2.36107
| 27> C 	 -76.5093 	 -6.69709 	 1.23881
| 28> H 	 -78.7513 	 -8.62206 	 2.74201
| 29> C 	 -77.2043 	 -6.43862 	 3.7131
| 30> H 	 -78.0964 	 -6.72687 	 4.23755
| 31> H 	 -77.0778 	 -5.34033 	 3.50674
| 32> C 	 -76.0268 	 -6.77346 	 4.62085
| 33> H 	 -75.1322 	 -6.60782 	 4.07477
| 34> H 	 -76.0388 	 -7.86239 	 4.82319
| 35> C 	 -76.1201 	 -6.25391 	 6.05679
| 36> H 	 -77.0827 	 -6.2644 	 6.54928
| 37> H 	 -75.9999 	 -5.15758 	 6.12265
| 38> H 	 -75.3355 	 -6.65882 	 6.71057
| 39> H 	 -73.158 	 -3.00704 	 0.91466
| 40> H 	 -78.664 	 -9.39311 	 0.289068
| 41> *
| 42>
| 43>                          ****END OF INPUT****

CARTESIAN COORDINATES (ANGSTROEM)
---------------------------------
  S    -75.524500   -4.093110    0.984937
  C    -73.749800   -3.913350    0.956867
  C    -73.134000   -5.181300    0.992829
  C    -74.049500   -6.272230    0.933919
  C    -75.362800   -5.828770    1.046550
  H    -73.778500   -7.312030    0.766584
  C    -71.613900   -5.391600    0.833302
  H    -71.364200   -4.655930    0.142069
  H    -71.432000   -6.329810    0.188184
  C    -70.800100   -5.558360    2.114590
  H    -69.657000   -5.531640    1.924150
  H    -70.915300   -4.711840    2.843310
  C    -71.060100   -6.939560    2.826580
  H    -70.355200   -7.057410    3.715170
  H    -72.054300   -7.107580    3.212930
  H    -70.833500   -7.774850    2.201050
  S    -76.962500   -7.546730   -0.210196
  C    -78.005200   -8.620460    0.753764
  C    -78.124700   -8.122930    2.058030
  C    -77.278700   -7.056070    2.361070
  C    -76.509300   -6.697090    1.238810
  H    -78.751300   -8.622060    2.742010
  C    -77.204300   -6.438620    3.713100
  H    -78.096400   -6.726870    4.237550
  H    -77.077800   -5.340330    3.506740
  C    -76.026800   -6.773460    4.620850
  H    -75.132200   -6.607820    4.074770
  H    -76.038800   -7.862390    4.823190
  C    -76.120100   -6.253910    6.056790
  H    -77.082700   -6.264400    6.549280
  H    -75.999900   -5.157580    6.122650
  H    -75.335500   -6.658820    6.710570
  H    -73.158000   -3.007040    0.914660
  H    -78.664000   -9.393110    0.289068

 Total Charge           Charge          ....    0
 Multiplicity           Mult            ....    1
 Number of Electrons    NEL             ....  134
 Basis Dimension        Dim             ....  322

ORBITAL ENERGIES
----------------

  NO   OCC          E(Eh)            E(eV)
   0   2.0000     -88.973266     -2421.0857
   1   2.0000     -88.966403     -2420.8989
   2   2.0000     -10.329341      -281.0757
   3   2.0000     -10.323189      -280.9083
   4   2.0000     -10.321100      -280.8514
   5   2.0000     -10.319574      -280.8099
   6   2.0000     -10.304960      -280.4122
   7   2.0000     -10.302867      -280.3553
   8   2.0000     -10.300830      -280.2998
   9   2.0000     -10.296468      -280.1811
  10   2.0000     -10.295764      -280.1620
  11   2.0000     -10.290651      -280.0228
  12   2.0000     -10.288715      -279.9702
  13   2.0000     -10.281819      -279.7825
  14   2.0000     -10.281412      -279.7714
  15   2.0000     -10.277663      -279.6694
  16   2.0000      -8.086847      -220.0543
  17   2.0000      -8.080685      -219.8866
  18   2.0000      -6.045364      -164.5027
  19   2.0000      -6.041476      -164.3969
  20   2.0000      -6.039065      -164.3313
  21   2.0000      -6.037713      -164.2945
  22   2.0000      -6.035174      -164.2254
  23   2.0000      -6.031702      -164.1310
  24   2.0000      -1.005244       -27.3541
  25   2.0000      -0.979935       -26.6654
  26   2.0000      -0.910087       -24.7647
  27   2.0000      -0.904948       -24.6249
  28   2.0000      -0.866104       -23.5679
  29   2.0000      -0.851172       -23.1616
  30   2.0000      -0.844431       -22.9781
  31   2.0000      -0.811039       -22.0695
  32   2.0000      -0.783498       -21.3201
  33   2.0000      -0.768527       -20.9127
  34   2.0000      -0.707920       -19.2635
  35   2.0000      -0.700650       -19.0657
  36   2.0000      -0.690354       -18.7855
  37   2.0000      -0.667368       -18.1600
  38   2.0000      -0.638308       -17.3692
  39   2.0000      -0.613591       -16.6967
  40   2.0000      -0.592051       -16.1105
  41   2.0000      -0.571279       -15.5453
  42   2.0000      -0.562231       -15.2991
  43   2.0000      -0.550259       -14.9733
  44   2.0000      -0.536740       -14.6054
  45   2.0000      -0.521484       -14.1903
  46   2.0000      -0.513754       -13.9799
  47   2.0000      -0.509187       -13.8557
  48   2.0000      -0.503296       -13.6954
  49   2.0000      -0.495383       -13.4801
  50   2.0000      -0.484591       -13.1864
  51   2.0000      -0.481515       -13.1027
  52   2.0000      -0.469392       -12.7728
  53   2.0000      -0.464162       -12.6305
  54   2.0000      -0.455587       -12.3972
  55   2.0000      -0.449500       -12.2315
  56   2.0000      -0.446544       -12.1511
  57   2.0000      -0.440127       -11.9765
  58   2.0000      -0.436225       -11.8703
  59   2.0000      -0.426789       -11.6135
  60   2.0000      -0.420346       -11.4382
  61   2.0000      -0.412273       -11.2185
  62   2.0000      -0.399575       -10.8730
  63   2.0000      -0.338549        -9.2124
  64   2.0000      -0.333270        -9.0687
  65   2.0000      -0.322519        -8.7762
  66   2.0000      -0.297671        -8.1000
  67   0.0000       0.032874         0.8946
  68   0.0000       0.053444         1.4543
  69   0.0000       0.103377         2.8130
  70   0.0000       0.111465         3.0331
  71   0.0000       0.125702         3.4205

MULLIKEN ATOMIC CHARGES
-----------------------
   0 S :    0.128209
   1 C :   -0.118622
   2 C :   -0.100564
   3 C :    0.056150
   4 C :   -0.173383
   5 H :    0.024368
   6 C :    0.054680
   7 H :    0.013955
   8 H :    0.032273
   9 C :   -0.076963
  10 H :    0.042798
  11 H :    0.039915
  12 C :   -0.076550
  13 H :    0.038814
  14 H :    0.043012
  15 H :    0.023426
  16 S :    0.114644
  17 C :   -0.117548
  18 C :   -0.038744
  19 C :    0.020251
  20 C :   -0.210047
  21 H :    0.002053
  22 C :    0.082943
  23 H :    0.008390
  24 H :    0.033681
  25 C :   -0.050508
  26 H :    0.030325
  27 H :    0.018646
  28 C :   -0.048832
  29 H :    0.022970
  30 H :    0.015093
  31 H :    0.043323
  32 H :    0.048315
  33 H :    0.073527
Sum of atomic charges:    0.0000000

LOEWDIN ATOMIC CHARGES
----------------------
   0 S :    0.408093
   1 C :   -0.197336
   2 C :   -0.058072
   3 C :   -0.057648
   4 C :   -0.207958
   5 H :    0.036110
   6 C :   -0.037939
   7 H :    0.021543
   8 H :    0.040138
   9 C :   -0.047558
  10 H :    0.034531
  11 H :    0.027555
  12 C :   -0.071322
  13 H :    0.034454
  14 H :    0.022220
  15 H :    0.018863
  16 S :    0.411838
  17 C :   -0.189809
  18 C :   -0.064421
  19 C :   -0.055536
  20 C :   -0.205712
  21 H :    0.024567
  22 C :   -0.032282
  23 H :    0.027500
  24 H :    0.037717
  25 C :   -0.039363
  26 H :    0.021584
  27 H :    0.025472
  28 C :   -0.074382
  29 H :    0.026100
  30 H :    0.023808
  31 H :    0.031434
  32 H :    0.029669
  33 H :    0.036140

  Mayer bond orders larger than 0.100000
B(  0-S ,  1-C ) :   1.1301 B(  0-S ,  4-C ) :   1.1642 B(  1-C ,  2-C ) :   1.6099
B(  1-C ,  4-C ) :   0.1030 B(  1-C , 32-H ) :   0.9685 B(  2-C ,  3-C ) :   1.2538
B(  2-C ,  6-C ) :   0.9976 B(  3-C ,  4-C ) :   1.5570 B(  3-C ,  5-H ) :   0.9914
B(  4-C , 20-C ) :   1.0078 B(  6-C ,  7-H ) :   0.9462 B(  6-C ,  8-H ) :   0.9512
B(  6-C ,  9-C ) :   1.0559 B(  9-C , 10-H ) :   0.9559 B(  9-C , 11-H ) :   0.9588
B(  9-C , 12-C ) :   1.0653 B( 12-C , 13-H ) :   0.9747 B( 12-C , 14-H ) :   0.9779
B( 12-C , 15-H ) :   0.9754 B( 16-S , 17-C ) :   1.1557 B( 16-S , 20-C ) :   1.1782
B( 17-C , 18-C ) :   1.5761 B( 17-C , 20-C ) :   0.1155 B( 17-C , 33-H ) :   0.9630
B( 18-C , 19-C ) :   1.2726 B( 18-C , 21-H ) :   0.9940 B( 19-C , 20-C ) :   1.5455
B( 19-C , 22-C ) :   1.0535 B( 22-C , 23-H ) :   0.9243 B( 22-C , 24-H ) :   0.9223
B( 22-C , 25-C ) :   1.0800 B( 25-C , 26-H ) :   0.9550 B( 25-C , 27-H ) :   0.9528
B( 25-C , 28-C ) :   1.0737 B( 28-C , 29-H ) :   0.9705 B( 28-C , 30-H ) :   0.9698
B( 28-C , 31-H ) :   0.9758

Dispersion correction           -0.014919236
FINAL SINGLE POINT ENERGY     -1339.864945605775

DIPOLE MOMENT
-------------
                                X             Y             Z
Electronic contribution:    -16.75789       3.61330     -21.23483
Nuclear contribution   :     17.07903      -3.78117      21.52563
                        -----------------------------------------
Total Dipole Moment    :      0.32113      -0.16787       0.29080
                        -----------------------------------------
Magnitude (a.u.)       :      0.46462
Magnitude (Debye)      :      1.18098

Rotational constants in cm-1:     0.016461     0.009505     0.007885
Rotational constants in MHz :   493.485804   284.949017   236.399016

                             ****ORCA TERMINATED NORMALLY****
TOTAL RUN TIME: 0 days 0 hours 0 minutes 20 seconds 993 msec
