                         Program Version 4.2.1 -  RELEASE  -
|  1> ! wB97X-D3 SP def2-SVP
|  2> %pal
|  3> nprocs 24
|  4> end
|  5>
|  6> * xyz 0 1
|  7> S 	 -120.404 	 59.6038 	 -34.694
|  8> C 	 -120.903 	 58.9385 	 -36.2501
|  9> C 	 -120.878 	 59.9168 	 -37.2474
| 10> C 	 -120.367 	 61.1873 	 -36.7731
| 11> C 	 -120.037 	 61.1853 	 -35.4199
| 12> H 	 -120.171 	 62.098 	 -37.3504
| 13> C 	 -121.217 	 59.5904 	 -38.6436
| 14> H 	 -121.01 	 58.5507 	 -38.7637
| 15> H 	 -120.518 	 60.15 	 -39.2057
| 16> C 	 -122.73 	 59.9199 	 -39.0264
| 17> H 	 -123.471 	 59.4493 	 -38.3871
| 18> H 	 -122.977 	 60.9677 	 -38.9242
| 19> C 	 -122.966 	 59.4764 	 -40.4415
| 20> H 	 -123.699 	 60.0134 	 -40.962
| 21> H 	 -122.101 	 59.6213 	 -41.1004
| 22> H 	 -123.264 	 58.402 	 -40.3834
| 23> S 	 -118.111 	 62.1306 	 -33.7638
| 24> C 	 -118.13 	 63.7574 	 -33.2304
| 25> C 	 -119.321 	 64.3863 	 -33.7368
| 26> C 	 -120.065 	 63.615 	 -34.6712
| 27> C 	 -119.583 	 62.3058 	 -34.6713
| 28> H 	 -119.552 	 65.3685 	 -33.4369
| 29> C 	 -121.405 	 64.0081 	 -35.0886
| 30> H 	 -121.465 	 64.2058 	 -36.1725
| 31> H 	 -121.5 	 65.0256 	 -34.7862
| 32> C 	 -122.69 	 63.2288 	 -34.7077
| 33> H 	 -122.622 	 63.2245 	 -33.642
| 34> H 	 -122.622 	 62.1672 	 -34.9889
| 35> C 	 -123.953 	 63.9305 	 -35.1173
| 36> H 	 -124.034 	 64.9442 	 -34.7446
| 37> H 	 -124.88 	 63.4986 	 -34.8339
| 38> H 	 -123.94 	 64.0707 	 -36.1936
| 39> H 	 -121.337 	 57.9658 	 -36.4233
| 40> H 	 -117.554 	 64.2839 	 -32.4606
| 41> *
| 42>
| 43>                          ****END OF INPUT****

CARTESIAN COORDINATES (ANGSTROEM)
---------------------------------
  S    -120.404000   59.603800  -34.694000
  C    -120.903000   58.938500  -36.250100
  C    -120.878000   59.916800  -37.247400
  C    -120.367000   61.187300  -36.773100
  C    -120.037000   61.185300  -35.419900
  H    -120.171000   62.098000  -37.350400
  C    -121.217000   59.590400  -38.643600
  H    -121.010000   58.550700  -38.763700
  H    -120.518000   60.150000  -39.205700
  C    -122.730000   59.919900  -39.026400
  H    -123.471000   59.449300  -38.387100
  H    -122.977000   60.967700  -38.924200
  C    -122.966000   59.476400  -40.441500
  H    -123.699000   60.013400  -40.962000
  H    -122.101000   59.621300  -41.100400
  H    -123.264000   58.402000  -40.383400
  S    -118.111000   62.130600  -33.763800
  C    -118.130000   63.757400  -33.230400
  C    -119.321000   64.386300  -33.736800
  C    -120.065000   63.615000  -34.671200
  C    -119.583000   62.305800  -34.671300
  H    -119.552000   65.368500  -33.436900
  C    -121.405000   64.008100  -35.088600
  H    -121.465000   64.205800  -36.172500
  H    -121.500000   65.025600  -34.786200
  C    -122.690000   63.228800  -34.707700
  H    -122.622000   63.224500  -33.642000
  H    -122.622000   62.167200  -34.988900
  C    -123.953000   63.930500  -35.117300
  H    -124.034000   64.944200  -34.744600
  H    -124.880000   63.498600  -34.833900
  H    -123.940000   64.070700  -36.193600
  H    -121.337000   57.965800  -36.423300
  H    -117.554000   64.283900  -32.460600

 Total Charge           Charge          ....    0
 Multiplicity           Mult            ....    1
 Number of Electrons    NEL             ....  134
 Basis Dimension        Dim             ....  322

ORBITAL ENERGIES
----------------

  NO   OCC          E(Eh)            E(eV)
   0   2.0000     -88.970254     -2421.0037
   1   2.0000     -88.966367     -2420.8979
   2   2.0000     -10.328357      -281.0489
   3   2.0000     -10.322363      -280.8858
   4   2.0000     -10.319409      -280.8054
   5   2.0000     -10.313990      -280.6579
   6   2.0000     -10.300444      -280.2893
   7   2.0000     -10.300148      -280.2813
   8   2.0000     -10.297376      -280.2058
   9   2.0000     -10.293719      -280.1063
  10   2.0000     -10.287880      -279.9474
  11   2.0000     -10.287459      -279.9360
  12   2.0000     -10.284501      -279.8555
  13   2.0000     -10.280672      -279.7513
  14   2.0000     -10.273559      -279.5577
  15   2.0000     -10.271865      -279.5117
  16   2.0000      -8.085287      -220.0118
  17   2.0000      -8.080133      -219.8716
  18   2.0000      -6.043636      -164.4557
  19   2.0000      -6.039529      -164.3440
  20   2.0000      -6.038706      -164.3215
  21   2.0000      -6.036414      -164.2592
  22   2.0000      -6.034741      -164.2136
  23   2.0000      -6.030925      -164.1098
  24   2.0000      -1.007887       -27.4260
  25   2.0000      -0.979970       -26.6663
  26   2.0000      -0.914254       -24.8781
  27   2.0000      -0.913045       -24.8452
  28   2.0000      -0.871091       -23.7036
  29   2.0000      -0.860280       -23.4094
  30   2.0000      -0.848773       -23.0963
  31   2.0000      -0.812058       -22.0972
  32   2.0000      -0.783555       -21.3216
  33   2.0000      -0.766908       -20.8686
  34   2.0000      -0.714102       -19.4317
  35   2.0000      -0.706874       -19.2350
  36   2.0000      -0.695483       -18.9251
  37   2.0000      -0.667181       -18.1549
  38   2.0000      -0.639525       -17.4024
  39   2.0000      -0.616609       -16.7788
  40   2.0000      -0.596645       -16.2355
  41   2.0000      -0.568679       -15.4746
  42   2.0000      -0.562370       -15.3029
  43   2.0000      -0.558758       -15.2046
  44   2.0000      -0.527817       -14.3626
  45   2.0000      -0.524423       -14.2703
  46   2.0000      -0.519369       -14.1328
  47   2.0000      -0.517327       -14.0772
  48   2.0000      -0.510735       -13.8978
  49   2.0000      -0.502191       -13.6653
  50   2.0000      -0.488335       -13.2883
  51   2.0000      -0.485621       -13.2144
  52   2.0000      -0.465166       -12.6578
  53   2.0000      -0.464663       -12.6441
  54   2.0000      -0.460215       -12.5231
  55   2.0000      -0.452971       -12.3260
  56   2.0000      -0.447029       -12.1643
  57   2.0000      -0.438326       -11.9275
  58   2.0000      -0.436417       -11.8755
  59   2.0000      -0.424023       -11.5383
  60   2.0000      -0.421376       -11.4662
  61   2.0000      -0.416646       -11.3375
  62   2.0000      -0.408689       -11.1210
  63   2.0000      -0.343435        -9.3453
  64   2.0000      -0.331705        -9.0262
  65   2.0000      -0.326591        -8.8870
  66   2.0000      -0.287157        -7.8139
  67   0.0000       0.023309         0.6343
  68   0.0000       0.069505         1.8913
  69   0.0000       0.117748         3.2041
  70   0.0000       0.121570         3.3081
  71   0.0000       0.124902         3.3987

MULLIKEN ATOMIC CHARGES
-----------------------
   0 S :    0.106057
   1 C :   -0.111568
   2 C :   -0.111307
   3 C :    0.029455
   4 C :   -0.161002
   5 H :    0.022734
   6 C :    0.092580
   7 H :    0.017199
   8 H :    0.018206
   9 C :   -0.065303
  10 H :    0.026307
  11 H :    0.021377
  12 C :   -0.030735
  13 H :    0.016710
  14 H :    0.026439
  15 H :    0.038966
  16 S :    0.139234
  17 C :   -0.095689
  18 C :   -0.053068
  19 C :    0.015433
  20 C :   -0.181168
  21 H :    0.000346
  22 C :    0.040444
  23 H :    0.009129
  24 H :   -0.009692
  25 C :   -0.020813
  26 H :    0.017436
  27 H :    0.049002
  28 C :   -0.023681
  29 H :    0.016239
  30 H :    0.028972
  31 H :    0.018675
  32 H :    0.046688
  33 H :    0.066397
Sum of atomic charges:   -0.0000000

LOEWDIN ATOMIC CHARGES
----------------------
   0 S :    0.386136
   1 C :   -0.198299
   2 C :   -0.059697
   3 C :   -0.061425
   4 C :   -0.190636
   5 H :    0.036243
   6 C :   -0.022615
   7 H :    0.029350
   8 H :    0.028458
   9 C :   -0.034840
  10 H :    0.024614
  11 H :    0.021125
  12 C :   -0.067823
  13 H :    0.016883
  14 H :    0.026197
  15 H :    0.032045
  16 S :    0.446825
  17 C :   -0.216458
  18 C :   -0.058631
  19 C :   -0.060809
  20 C :   -0.205568
  21 H :    0.018971
  22 C :   -0.040807
  23 H :    0.029201
  24 H :    0.026504
  25 C :   -0.034069
  26 H :    0.021156
  27 H :    0.030446
  28 C :   -0.061695
  29 H :    0.025319
  30 H :    0.024428
  31 H :    0.023521
  32 H :    0.028127
  33 H :    0.037824

  Mayer bond orders larger than 0.100000
B(  0-S ,  1-C ) :   1.1245 B(  0-S ,  4-C ) :   1.1380 B(  1-C ,  2-C ) :   1.6127
B(  1-C , 32-H ) :   0.9666 B(  2-C ,  3-C ) :   1.2253 B(  2-C ,  6-C ) :   1.0323
B(  3-C ,  4-C ) :   1.5773 B(  3-C ,  5-H ) :   0.9925 B(  4-C , 20-C ) :   1.0593
B(  6-C ,  7-H ) :   0.9446 B(  6-C ,  8-H ) :   0.9338 B(  6-C ,  9-C ) :   1.0482
B(  9-C , 10-H ) :   0.9616 B(  9-C , 11-H ) :   0.9588 B(  9-C , 12-C ) :   1.0808
B( 12-C , 13-H ) :   0.9733 B( 12-C , 14-H ) :   0.9717 B( 12-C , 15-H ) :   0.9777
B( 16-S , 17-C ) :   1.1752 B( 16-S , 20-C ) :   1.1716 B( 17-C , 18-C ) :   1.5619
B( 17-C , 20-C ) :   0.1120 B( 17-C , 33-H ) :   0.9653 B( 18-C , 19-C ) :   1.2824
B( 18-C , 21-H ) :   0.9877 B( 19-C , 20-C ) :   1.5119 B( 19-C , 22-C ) :   1.0799
B( 22-C , 23-H ) :   0.9060 B( 22-C , 24-H ) :   0.9264 B( 22-C , 25-C ) :   1.0496
B( 25-C , 26-H ) :   0.9523 B( 25-C , 27-H ) :   0.9486 B( 25-C , 28-C ) :   1.0868
B( 28-C , 29-H ) :   0.9703 B( 28-C , 30-H ) :   0.9720 B( 28-C , 31-H ) :   0.9747

Dispersion correction           -0.014623570
FINAL SINGLE POINT ENERGY     -1339.869528372489

DIPOLE MOMENT
-------------
                                X             Y             Z
Electronic contribution:     23.20403      -4.96029      19.37619
Nuclear contribution   :    -23.70376       5.27359     -19.75398
                        -----------------------------------------
Total Dipole Moment    :     -0.49974       0.31330      -0.37779
                        -----------------------------------------
Magnitude (a.u.)       :      0.70044
Magnitude (Debye)      :      1.78038

Rotational constants in cm-1:     0.019688     0.008607     0.006906
Rotational constants in MHz :   590.221904   258.039740   207.023649

                             ****ORCA TERMINATED NORMALLY****
TOTAL RUN TIME: 0 days 0 hours 0 minutes 21 seconds 914 msec
