                         Program Version 4.2.1 -  RELEASE  -
|  1> ! wB97X-D3 SP def2-SVP
|  2> %pal
|  3> nprocs 24
|  4> end
|  5>
|  6> * xyz 0 1
|  7> S 	 -138.964 	 24.3701 	 -17.7805
|  8> C 	 -140.182 	 23.1431 	 -17.8888
|  9> C 	 -139.751 	 21.9847 	 -18.5603
| 10> C 	 -138.458 	 22.1994 	 -19.131
| 11> C 	 -137.97 	 23.4806 	 -18.9185
| 12> H 	 -137.946 	 21.527 	 -19.7819
| 13> C 	 -140.561 	 20.7315 	 -18.6249
| 14> H 	 -140.568 	 20.5437 	 -19.6697
| 15> H 	 -141.664 	 20.8955 	 -18.3214
| 16> C 	 -139.953 	 19.4514 	 -18.0248
| 17> H 	 -140.633 	 18.646 	 -18.141
| 18> H 	 -139.086 	 19.0755 	 -18.6216
| 19> C 	 -139.654 	 19.6502 	 -16.4808
| 20> H 	 -140.605 	 19.81 	 -15.9339
| 21> H 	 -139.197 	 18.8015 	 -15.9964
| 22> H 	 -138.848 	 20.402 	 -16.3929
| 23> S 	 -135.576 	 24.6711 	 -18.0132
| 24> C 	 -134.313 	 24.9752 	 -19.1827
| 25> C 	 -134.666 	 24.5974 	 -20.4858
| 26> C 	 -136.003 	 24.0117 	 -20.4879
| 27> C 	 -136.631 	 23.9897 	 -19.2368
| 28> H 	 -134.016 	 24.6316 	 -21.4225
| 29> C 	 -136.595 	 23.5779 	 -21.8142
| 30> H 	 -136.88 	 24.4094 	 -22.4041
| 31> H 	 -137.447 	 23.0175 	 -21.5641
| 32> C 	 -135.7 	 22.461 	 -22.4084
| 33> H 	 -135.353 	 21.7473 	 -21.6887
| 34> H 	 -134.769 	 22.8755 	 -22.7624
| 35> C 	 -136.349 	 21.8258 	 -23.6684
| 36> H 	 -135.993 	 20.8921 	 -23.8131
| 37> H 	 -136.014 	 22.5089 	 -24.4725
| 38> H 	 -137.377 	 21.7363 	 -23.6606
| 39> H 	 -141.083 	 23.1465 	 -17.3258
| 40> H 	 -133.233 	 25.2354 	 -18.8678
| 41> *
| 42>
| 43>                          ****END OF INPUT****

CARTESIAN COORDINATES (ANGSTROEM)
---------------------------------
  S    -138.964000   24.370100  -17.780500
  C    -140.182000   23.143100  -17.888800
  C    -139.751000   21.984700  -18.560300
  C    -138.458000   22.199400  -19.131000
  C    -137.970000   23.480600  -18.918500
  H    -137.946000   21.527000  -19.781900
  C    -140.561000   20.731500  -18.624900
  H    -140.568000   20.543700  -19.669700
  H    -141.664000   20.895500  -18.321400
  C    -139.953000   19.451400  -18.024800
  H    -140.633000   18.646000  -18.141000
  H    -139.086000   19.075500  -18.621600
  C    -139.654000   19.650200  -16.480800
  H    -140.605000   19.810000  -15.933900
  H    -139.197000   18.801500  -15.996400
  H    -138.848000   20.402000  -16.392900
  S    -135.576000   24.671100  -18.013200
  C    -134.313000   24.975200  -19.182700
  C    -134.666000   24.597400  -20.485800
  C    -136.003000   24.011700  -20.487900
  C    -136.631000   23.989700  -19.236800
  H    -134.016000   24.631600  -21.422500
  C    -136.595000   23.577900  -21.814200
  H    -136.880000   24.409400  -22.404100
  H    -137.447000   23.017500  -21.564100
  C    -135.700000   22.461000  -22.408400
  H    -135.353000   21.747300  -21.688700
  H    -134.769000   22.875500  -22.762400
  C    -136.349000   21.825800  -23.668400
  H    -135.993000   20.892100  -23.813100
  H    -136.014000   22.508900  -24.472500
  H    -137.377000   21.736300  -23.660600
  H    -141.083000   23.146500  -17.325800
  H    -133.233000   25.235400  -18.867800

 Total Charge           Charge          ....    0
 Multiplicity           Mult            ....    1
 Number of Electrons    NEL             ....  134
 Basis Dimension        Dim             ....  322

ORBITAL ENERGIES
----------------

  NO   OCC          E(Eh)            E(eV)
   0   2.0000     -88.967892     -2420.9394
   1   2.0000     -88.966742     -2420.9081
   2   2.0000     -10.330787      -281.1150
   3   2.0000     -10.327151      -281.0161
   4   2.0000     -10.326607      -281.0013
   5   2.0000     -10.309185      -280.5272
   6   2.0000     -10.303337      -280.3681
   7   2.0000     -10.302504      -280.3454
   8   2.0000     -10.301680      -280.3230
   9   2.0000     -10.295952      -280.1671
  10   2.0000     -10.295594      -280.1574
  11   2.0000     -10.292323      -280.0684
  12   2.0000     -10.284249      -279.8486
  13   2.0000     -10.282327      -279.7963
  14   2.0000     -10.279788      -279.7273
  15   2.0000     -10.265717      -279.3444
  16   2.0000      -8.082386      -219.9329
  17   2.0000      -8.081702      -219.9143
  18   2.0000      -6.041009      -164.3842
  19   2.0000      -6.040086      -164.3591
  20   2.0000      -6.036885      -164.2720
  21   2.0000      -6.036239      -164.2544
  22   2.0000      -6.033085      -164.1686
  23   2.0000      -6.032545      -164.1539
  24   2.0000      -1.004093       -27.3228
  25   2.0000      -0.980472       -26.6800
  26   2.0000      -0.911655       -24.8074
  27   2.0000      -0.909551       -24.7501
  28   2.0000      -0.862951       -23.4821
  29   2.0000      -0.851040       -23.1580
  30   2.0000      -0.844117       -22.9696
  31   2.0000      -0.811082       -22.0707
  32   2.0000      -0.783969       -21.3329
  33   2.0000      -0.770413       -20.9640
  34   2.0000      -0.711029       -19.3481
  35   2.0000      -0.703473       -19.1425
  36   2.0000      -0.691157       -18.8073
  37   2.0000      -0.654401       -17.8072
  38   2.0000      -0.638503       -17.3745
  39   2.0000      -0.618760       -16.8373
  40   2.0000      -0.592682       -16.1277
  41   2.0000      -0.571999       -15.5649
  42   2.0000      -0.558063       -15.1857
  43   2.0000      -0.551988       -15.0204
  44   2.0000      -0.544056       -14.8045
  45   2.0000      -0.532146       -14.4804
  46   2.0000      -0.516636       -14.0584
  47   2.0000      -0.507498       -13.8097
  48   2.0000      -0.499601       -13.5948
  49   2.0000      -0.492746       -13.4083
  50   2.0000      -0.490209       -13.3393
  51   2.0000      -0.475434       -12.9372
  52   2.0000      -0.471106       -12.8194
  53   2.0000      -0.466271       -12.6879
  54   2.0000      -0.460942       -12.5429
  55   2.0000      -0.450734       -12.2651
  56   2.0000      -0.446350       -12.1458
  57   2.0000      -0.437540       -11.9061
  58   2.0000      -0.432197       -11.7607
  59   2.0000      -0.427269       -11.6266
  60   2.0000      -0.420360       -11.4386
  61   2.0000      -0.416519       -11.3341
  62   2.0000      -0.411034       -11.1848
  63   2.0000      -0.348644        -9.4871
  64   2.0000      -0.329955        -8.9785
  65   2.0000      -0.327687        -8.9168
  66   2.0000      -0.286438        -7.7944
  67   0.0000       0.031417         0.8549
  68   0.0000       0.065730         1.7886
  69   0.0000       0.109404         2.9770
  70   0.0000       0.121657         3.3105
  71   0.0000       0.129491         3.5236

MULLIKEN ATOMIC CHARGES
-----------------------
   0 S :    0.111454
   1 C :   -0.100269
   2 C :   -0.096927
   3 C :    0.049303
   4 C :   -0.174851
   5 H :    0.003827
   6 C :    0.055876
   7 H :    0.021374
   8 H :    0.041173
   9 C :   -0.070865
  10 H :    0.020216
  11 H :    0.031409
  12 C :   -0.065619
  13 H :    0.040938
  14 H :    0.024378
  15 H :    0.053113
  16 S :    0.111918
  17 C :   -0.130567
  18 C :   -0.038304
  19 C :   -0.111103
  20 C :   -0.127983
  21 H :    0.052290
  22 C :    0.149366
  23 H :    0.040588
  24 H :   -0.010231
  25 C :   -0.129083
  26 H :    0.029453
  27 H :    0.014982
  28 C :    0.029332
  29 H :    0.005391
  30 H :    0.032716
  31 H :    0.012644
  32 H :    0.032692
  33 H :    0.091371
Sum of atomic charges:    0.0000000

LOEWDIN ATOMIC CHARGES
----------------------
   0 S :    0.412662
   1 C :   -0.201099
   2 C :   -0.059131
   3 C :   -0.058405
   4 C :   -0.185095
   5 H :    0.025792
   6 C :   -0.038991
   7 H :    0.029900
   8 H :    0.041449
   9 C :   -0.039731
  10 H :    0.018768
  11 H :    0.027467
  12 C :   -0.071536
  13 H :    0.030285
  14 H :    0.021148
  15 H :    0.032685
  16 S :    0.403685
  17 C :   -0.202771
  18 C :   -0.079793
  19 C :   -0.053421
  20 C :   -0.210658
  21 H :    0.045285
  22 C :   -0.021746
  23 H :    0.031093
  24 H :    0.020571
  25 C :   -0.032095
  26 H :    0.021593
  27 H :    0.015224
  28 C :   -0.049172
  29 H :    0.011682
  30 H :    0.034864
  31 H :    0.013149
  32 H :    0.018644
  33 H :    0.047695

  Mayer bond orders larger than 0.100000
B(  0-S ,  1-C ) :   1.1452 B(  0-S ,  4-C ) :   1.1589 B(  1-C ,  2-C ) :   1.5938
B(  1-C , 32-H ) :   0.9696 B(  2-C ,  3-C ) :   1.2460 B(  2-C ,  6-C ) :   1.0251
B(  3-C ,  4-C ) :   1.5590 B(  3-C ,  5-H ) :   0.9921 B(  4-C , 20-C ) :   1.0423
B(  6-C ,  7-H ) :   0.9275 B(  6-C ,  8-H ) :   0.9451 B(  6-C ,  9-C ) :   1.0797
B(  9-C , 10-H ) :   0.9555 B(  9-C , 11-H ) :   0.9534 B(  9-C , 12-C ) :   1.0647
B( 12-C , 13-H ) :   0.9762 B( 12-C , 14-H ) :   0.9765 B( 12-C , 15-H ) :   0.9756
B( 16-S , 17-C ) :   1.1610 B( 16-S , 20-C ) :   1.1273 B( 17-C , 18-C ) :   1.5970
B( 17-C , 33-H ) :   0.9535 B( 18-C , 19-C ) :   1.2436 B( 18-C , 21-H ) :   0.9765
B( 19-C , 20-C ) :   1.6030 B( 19-C , 22-C ) :   1.0451 B( 22-C , 23-H ) :   0.9392
B( 22-C , 24-H ) :   0.9232 B( 22-C , 25-C ) :   1.0443 B( 25-C , 26-H ) :   0.9622
B( 25-C , 27-H ) :   0.9601 B( 25-C , 28-C ) :   1.0730 B( 28-C , 29-H ) :   0.9723
B( 28-C , 30-H ) :   0.9790 B( 28-C , 31-H ) :   0.9776

Dispersion correction           -0.014344679
FINAL SINGLE POINT ENERGY     -1339.859273856036

DIPOLE MOMENT
-------------
                                X             Y             Z
Electronic contribution:      4.55387      22.18703      13.59962
Nuclear contribution   :     -4.53469     -22.83762     -14.02207
                        -----------------------------------------
Total Dipole Moment    :      0.01918      -0.65058      -0.42245
                        -----------------------------------------
Magnitude (a.u.)       :      0.77595
Magnitude (Debye)      :      1.97230

Rotational constants in cm-1:     0.017347     0.008996     0.006902
Rotational constants in MHz :   520.048893   269.688904   206.910913

                             ****ORCA TERMINATED NORMALLY****
TOTAL RUN TIME: 0 days 0 hours 0 minutes 21 seconds 473 msec
