                         Program Version 4.2.1 -  RELEASE  -
|  1> ! wB97X-D3 SP def2-SVP
|  2> %pal
|  3> nprocs 24
|  4> end
|  5>
|  6> * xyz 0 1
|  7> S 	 -83.6721 	 1.33968 	 4.39401
|  8> C 	 -83.2897 	 1.26327 	 2.7778
|  9> C 	 -84.2329 	 0.624319 	 1.96205
| 10> C 	 -85.3449 	 0.190705 	 2.72819
| 11> C 	 -85.2555 	 0.579132 	 4.12146
| 12> H 	 -86.1979 	 -0.315718 	 2.43111
| 13> C 	 -84.1387 	 0.280975 	 0.503321
| 14> H 	 -84.6592 	 -0.65193 	 0.419821
| 15> H 	 -83.1057 	 0.241125 	 0.223714
| 16> C 	 -84.5998 	 1.2702 	 -0.549648
| 17> H 	 -84.5325 	 0.723881 	 -1.50365
| 18> H 	 -85.6265 	 1.44738 	 -0.42467
| 19> C 	 -83.8805 	 2.66077 	 -0.509267
| 20> H 	 -82.9177 	 2.60202 	 -1.08605
| 21> H 	 -84.5794 	 3.21501 	 -1.09422
| 22> H 	 -83.7579 	 3.13463 	 0.429123
| 23> S 	 -86.1198 	 1.37501 	 6.67429
| 24> C 	 -87.2331 	 0.431658 	 7.56507
| 25> C 	 -87.8106 	 -0.513422 	 6.78261
| 26> C 	 -87.0873 	 -0.686829 	 5.51889
| 27> C 	 -86.1631 	 0.3303 	 5.24588
| 28> H 	 -88.7079 	 -1.04802 	 7.13962
| 29> C 	 -87.3712 	 -1.98038 	 4.70178
| 30> H 	 -86.5709 	 -2.08459 	 3.92686
| 31> H 	 -88.1687 	 -1.72121 	 4.11849
| 32> C 	 -87.5442 	 -3.28973 	 5.35794
| 33> H 	 -88.4033 	 -3.24166 	 5.92768
| 34> H 	 -86.6956 	 -3.4533 	 6.11797
| 35> C 	 -87.6103 	 -4.41195 	 4.35357
| 36> H 	 -88.5103 	 -4.4871 	 3.78225
| 37> H 	 -87.4778 	 -5.28674 	 4.85666
| 38> H 	 -86.7446 	 -4.27992 	 3.66367
| 39> H 	 -82.3701 	 1.64501 	 2.4486
| 40> H 	 -87.5481 	 0.686343 	 8.53655
| 41> *
| 42>
| 43>                          ****END OF INPUT****

CARTESIAN COORDINATES (ANGSTROEM)
---------------------------------
  S    -83.672100    1.339680    4.394010
  C    -83.289700    1.263270    2.777800
  C    -84.232900    0.624319    1.962050
  C    -85.344900    0.190705    2.728190
  C    -85.255500    0.579132    4.121460
  H    -86.197900   -0.315718    2.431110
  C    -84.138700    0.280975    0.503321
  H    -84.659200   -0.651930    0.419821
  H    -83.105700    0.241125    0.223714
  C    -84.599800    1.270200   -0.549648
  H    -84.532500    0.723881   -1.503650
  H    -85.626500    1.447380   -0.424670
  C    -83.880500    2.660770   -0.509267
  H    -82.917700    2.602020   -1.086050
  H    -84.579400    3.215010   -1.094220
  H    -83.757900    3.134630    0.429123
  S    -86.119800    1.375010    6.674290
  C    -87.233100    0.431658    7.565070
  C    -87.810600   -0.513422    6.782610
  C    -87.087300   -0.686829    5.518890
  C    -86.163100    0.330300    5.245880
  H    -88.707900   -1.048020    7.139620
  C    -87.371200   -1.980380    4.701780
  H    -86.570900   -2.084590    3.926860
  H    -88.168700   -1.721210    4.118490
  C    -87.544200   -3.289730    5.357940
  H    -88.403300   -3.241660    5.927680
  H    -86.695600   -3.453300    6.117970
  C    -87.610300   -4.411950    4.353570
  H    -88.510300   -4.487100    3.782250
  H    -87.477800   -5.286740    4.856660
  H    -86.744600   -4.279920    3.663670
  H    -82.370100    1.645010    2.448600
  H    -87.548100    0.686343    8.536550

 Total Charge           Charge          ....    0
 Multiplicity           Mult            ....    1
 Number of Electrons    NEL             ....  134
 Basis Dimension        Dim             ....  322

ORBITAL ENERGIES
----------------

  NO   OCC          E(Eh)            E(eV)
   0   2.0000     -88.968877     -2420.9662
   1   2.0000     -88.959812     -2420.7195
   2   2.0000     -10.336355      -281.2665
   3   2.0000     -10.331348      -281.1303
   4   2.0000     -10.310569      -280.5648
   5   2.0000     -10.308533      -280.5095
   6   2.0000     -10.306691      -280.4593
   7   2.0000     -10.300242      -280.2838
   8   2.0000     -10.295893      -280.1655
   9   2.0000     -10.294834      -280.1367
  10   2.0000     -10.283070      -279.8166
  11   2.0000     -10.282970      -279.8139
  12   2.0000     -10.282368      -279.7974
  13   2.0000     -10.280375      -279.7432
  14   2.0000     -10.277046      -279.6526
  15   2.0000     -10.270629      -279.4780
  16   2.0000      -8.084541      -219.9916
  17   2.0000      -8.075312      -219.7404
  18   2.0000      -6.042789      -164.4326
  19   2.0000      -6.038765      -164.3231
  20   2.0000      -6.035690      -164.2395
  21   2.0000      -6.033909      -164.1910
  22   2.0000      -6.029692      -164.0763
  23   2.0000      -6.025953      -163.9745
  24   2.0000      -1.004929       -27.3455
  25   2.0000      -0.986946       -26.8562
  26   2.0000      -0.919047       -25.0085
  27   2.0000      -0.914463       -24.8838
  28   2.0000      -0.869831       -23.6693
  29   2.0000      -0.855646       -23.2833
  30   2.0000      -0.846054       -23.0223
  31   2.0000      -0.812264       -22.1028
  32   2.0000      -0.786628       -21.4052
  33   2.0000      -0.777504       -21.1570
  34   2.0000      -0.710871       -19.3438
  35   2.0000      -0.701214       -19.0810
  36   2.0000      -0.696528       -18.9535
  37   2.0000      -0.659682       -17.9509
  38   2.0000      -0.643286       -17.5047
  39   2.0000      -0.622472       -16.9383
  40   2.0000      -0.600633       -16.3441
  41   2.0000      -0.573489       -15.6054
  42   2.0000      -0.569163       -15.4877
  43   2.0000      -0.555392       -15.1130
  44   2.0000      -0.543439       -14.7877
  45   2.0000      -0.532518       -14.4905
  46   2.0000      -0.521658       -14.1950
  47   2.0000      -0.511057       -13.9066
  48   2.0000      -0.503516       -13.7014
  49   2.0000      -0.499794       -13.6001
  50   2.0000      -0.496257       -13.5038
  51   2.0000      -0.485297       -13.2056
  52   2.0000      -0.470821       -12.8117
  53   2.0000      -0.467166       -12.7122
  54   2.0000      -0.460882       -12.5412
  55   2.0000      -0.451708       -12.2916
  56   2.0000      -0.450414       -12.2564
  57   2.0000      -0.435501       -11.8506
  58   2.0000      -0.430986       -11.7277
  59   2.0000      -0.424863       -11.5611
  60   2.0000      -0.417751       -11.3676
  61   2.0000      -0.416043       -11.3211
  62   2.0000      -0.408366       -11.1122
  63   2.0000      -0.358368        -9.7517
  64   2.0000      -0.331794        -9.0286
  65   2.0000      -0.323439        -8.8012
  66   2.0000      -0.279774        -7.6130
  67   0.0000       0.022503         0.6123
  68   0.0000       0.084836         2.3085
  69   0.0000       0.106754         2.9049
  70   0.0000       0.114955         3.1281
  71   0.0000       0.146794         3.9945

MULLIKEN ATOMIC CHARGES
-----------------------
   0 S :    0.129991
   1 C :   -0.098958
   2 C :   -0.085690
   3 C :    0.042117
   4 C :   -0.171222
   5 H :   -0.014732
   6 C :    0.104215
   7 H :    0.020860
   8 H :    0.006837
   9 C :   -0.066077
  10 H :    0.033270
  11 H :    0.006621
  12 C :   -0.051518
  13 H :    0.039689
  14 H :    0.027966
  15 H :    0.044379
  16 S :    0.083663
  17 C :   -0.067364
  18 C :   -0.045796
  19 C :   -0.080371
  20 C :   -0.109819
  21 H :    0.036556
  22 C :    0.065608
  23 H :    0.008830
  24 H :    0.008194
  25 C :   -0.055783
  26 H :    0.004751
  27 H :    0.042036
  28 C :    0.006874
  29 H :    0.028454
  30 H :    0.010420
  31 H :    0.026505
  32 H :    0.026383
  33 H :    0.043113
Sum of atomic charges:   -0.0000000

LOEWDIN ATOMIC CHARGES
----------------------
   0 S :    0.446520
   1 C :   -0.216661
   2 C :   -0.063984
   3 C :   -0.048882
   4 C :   -0.187576
   5 H :    0.016723
   6 C :   -0.032473
   7 H :    0.030289
   8 H :    0.028321
   9 C :   -0.033688
  10 H :    0.030043
  11 H :    0.010403
  12 C :   -0.062077
  13 H :    0.030793
  14 H :    0.027490
  15 H :    0.022244
  16 S :    0.398545
  17 C :   -0.182821
  18 C :   -0.078059
  19 C :   -0.050297
  20 C :   -0.200710
  21 H :    0.037143
  22 C :   -0.035302
  23 H :    0.029146
  24 H :    0.019267
  25 C :   -0.039478
  26 H :    0.010254
  27 H :    0.037076
  28 C :   -0.048781
  29 H :    0.023871
  30 H :    0.015483
  31 H :    0.030976
  32 H :    0.014556
  33 H :    0.021645

  Mayer bond orders larger than 0.100000
B(  0-S ,  1-C ) :   1.1879 B(  0-S ,  4-C ) :   1.1732 B(  1-C ,  2-C ) :   1.5369
B(  1-C ,  4-C ) :   0.1063 B(  1-C , 32-H ) :   0.9726 B(  2-C ,  3-C ) :   1.2888
B(  2-C ,  6-C ) :   1.0320 B(  3-C ,  4-C ) :   1.5039 B(  3-C ,  5-H ) :   1.0013
B(  4-C , 20-C ) :   1.0816 B(  6-C ,  7-H ) :   0.9357 B(  6-C ,  8-H ) :   0.9331
B(  6-C ,  9-C ) :   1.0757 B(  9-C , 10-H ) :   0.9542 B(  9-C , 11-H ) :   0.9583
B(  9-C , 12-C ) :   1.0662 B( 12-C , 13-H ) :   0.9756 B( 12-C , 14-H ) :   0.9769
B( 12-C , 15-H ) :   0.9760 B( 16-S , 17-C ) :   1.1596 B( 16-S , 20-C ) :   1.1174
B( 17-C , 18-C ) :   1.6248 B( 17-C , 33-H ) :   0.9709 B( 18-C , 19-C ) :   1.2166
B( 18-C , 21-H ) :   0.9850 B( 19-C , 20-C ) :   1.6070 B( 19-C , 22-C ) :   1.0207
B( 22-C , 23-H ) :   0.9346 B( 22-C , 24-H ) :   0.9225 B( 22-C , 25-C ) :   1.0775
B( 25-C , 26-H ) :   0.9378 B( 25-C , 27-H ) :   0.9543 B( 25-C , 28-C ) :   1.0911
B( 28-C , 29-H ) :   0.9732 B( 28-C , 30-H ) :   0.9690 B( 28-C , 31-H ) :   0.9734

Dispersion correction           -0.013549718
FINAL SINGLE POINT ENERGY     -1339.852195312789

DIPOLE MOMENT
-------------
                                X             Y             Z
Electronic contribution:      5.22885      14.04963      21.13757
Nuclear contribution   :     -5.54841     -14.51009     -21.53312
                        -----------------------------------------
Total Dipole Moment    :     -0.31956      -0.46046      -0.39555
                        -----------------------------------------
Magnitude (a.u.)       :      0.68600
Magnitude (Debye)      :      1.74368

Rotational constants in cm-1:     0.018898     0.007946     0.006099
Rotational constants in MHz :   566.545884   238.206837   182.840648

                             ****ORCA TERMINATED NORMALLY****
TOTAL RUN TIME: 0 days 0 hours 0 minutes 21 seconds 194 msec
