                         Program Version 4.2.1 -  RELEASE  -
|  1> ! wB97X-D3 SP def2-SVP
|  2> %pal
|  3> nprocs 24
|  4> end
|  5>
|  6> * xyz 0 1
|  7> S 	 -125.828 	 28.5643 	 -20.2666
|  8> C 	 -126.171 	 30.0001 	 -21.2997
|  9> C 	 -127.578 	 30.0097 	 -21.63
| 10> C 	 -128.291 	 28.9455 	 -21.0645
| 11> C 	 -127.511 	 28.1632 	 -20.2355
| 12> H 	 -129.371 	 28.8226 	 -20.9908
| 13> C 	 -128.222 	 31.0965 	 -22.4342
| 14> H 	 -128.028 	 30.8576 	 -23.4712
| 15> H 	 -127.798 	 32.0834 	 -22.2783
| 16> C 	 -129.73 	 31.2867 	 -22.3977
| 17> H 	 -130.007 	 32.1795 	 -22.9698
| 18> H 	 -130.271 	 30.3931 	 -22.7821
| 19> C 	 -130.387 	 31.6485 	 -20.9644
| 20> H 	 -130.063 	 31.0421 	 -20.088
| 21> H 	 -130.179 	 32.6438 	 -20.5211
| 22> H 	 -131.485 	 31.5598 	 -21.1537
| 23> S 	 -126.98 	 25.6127 	 -19.3582
| 24> C 	 -128.144 	 24.7071 	 -18.4564
| 25> C 	 -129.174 	 25.5567 	 -18.1133
| 26> C 	 -129.142 	 26.9291 	 -18.6641
| 27> C 	 -127.974 	 27.0709 	 -19.4203
| 28> H 	 -129.926 	 25.0857 	 -17.579
| 29> C 	 -130.265 	 27.874 	 -18.4277
| 30> H 	 -129.992 	 28.9223 	 -18.3395
| 31> H 	 -130.519 	 27.6529 	 -17.396
| 32> C 	 -131.564 	 27.7353 	 -19.155
| 33> H 	 -132.042 	 26.7502 	 -18.9949
| 34> H 	 -131.271 	 27.7097 	 -20.2675
| 35> C 	 -132.539 	 28.908 	 -18.789
| 36> H 	 -132.072 	 29.8714 	 -18.9868
| 37> H 	 -132.751 	 28.8314 	 -17.7343
| 38> H 	 -133.485 	 28.8469 	 -19.2471
| 39> H 	 -125.43 	 30.6996 	 -21.3956
| 40> H 	 -128.127 	 23.6343 	 -18.181
| 41> *
| 42>
| 43>                          ****END OF INPUT****

CARTESIAN COORDINATES (ANGSTROEM)
---------------------------------
  S    -125.828000   28.564300  -20.266600
  C    -126.171000   30.000100  -21.299700
  C    -127.578000   30.009700  -21.630000
  C    -128.291000   28.945500  -21.064500
  C    -127.511000   28.163200  -20.235500
  H    -129.371000   28.822600  -20.990800
  C    -128.222000   31.096500  -22.434200
  H    -128.028000   30.857600  -23.471200
  H    -127.798000   32.083400  -22.278300
  C    -129.730000   31.286700  -22.397700
  H    -130.007000   32.179500  -22.969800
  H    -130.271000   30.393100  -22.782100
  C    -130.387000   31.648500  -20.964400
  H    -130.063000   31.042100  -20.088000
  H    -130.179000   32.643800  -20.521100
  H    -131.485000   31.559800  -21.153700
  S    -126.980000   25.612700  -19.358200
  C    -128.144000   24.707100  -18.456400
  C    -129.174000   25.556700  -18.113300
  C    -129.142000   26.929100  -18.664100
  C    -127.974000   27.070900  -19.420300
  H    -129.926000   25.085700  -17.579000
  C    -130.265000   27.874000  -18.427700
  H    -129.992000   28.922300  -18.339500
  H    -130.519000   27.652900  -17.396000
  C    -131.564000   27.735300  -19.155000
  H    -132.042000   26.750200  -18.994900
  H    -131.271000   27.709700  -20.267500
  C    -132.539000   28.908000  -18.789000
  H    -132.072000   29.871400  -18.986800
  H    -132.751000   28.831400  -17.734300
  H    -133.485000   28.846900  -19.247100
  H    -125.430000   30.699600  -21.395600
  H    -128.127000   23.634300  -18.181000

 Total Charge           Charge          ....    0
 Multiplicity           Mult            ....    1
 Number of Electrons    NEL             ....  134
 Basis Dimension        Dim             ....  322

ORBITAL ENERGIES
----------------

  NO   OCC          E(Eh)            E(eV)
   0   2.0000     -88.967509     -2420.9290
   1   2.0000     -88.962437     -2420.7910
   2   2.0000     -10.328526      -281.0535
   3   2.0000     -10.327294      -281.0200
   4   2.0000     -10.317913      -280.7647
   5   2.0000     -10.316453      -280.7250
   6   2.0000     -10.310866      -280.5729
   7   2.0000     -10.310172      -280.5540
   8   2.0000     -10.299408      -280.2611
   9   2.0000     -10.296764      -280.1892
  10   2.0000     -10.292152      -280.0637
  11   2.0000     -10.290617      -280.0219
  12   2.0000     -10.290393      -280.0158
  13   2.0000     -10.289029      -279.9787
  14   2.0000     -10.288676      -279.9691
  15   2.0000     -10.279210      -279.7115
  16   2.0000      -8.081756      -219.9158
  17   2.0000      -8.077444      -219.7984
  18   2.0000      -6.040099      -164.3595
  19   2.0000      -6.036299      -164.2560
  20   2.0000      -6.036087      -164.2503
  21   2.0000      -6.032769      -164.1600
  22   2.0000      -6.031832      -164.1345
  23   2.0000      -6.028117      -164.0334
  24   2.0000      -1.005924       -27.3726
  25   2.0000      -0.979610       -26.6565
  26   2.0000      -0.916895       -24.9500
  27   2.0000      -0.911108       -24.7925
  28   2.0000      -0.867065       -23.5940
  29   2.0000      -0.851148       -23.1609
  30   2.0000      -0.841342       -22.8941
  31   2.0000      -0.815527       -22.1916
  32   2.0000      -0.786585       -21.4041
  33   2.0000      -0.775689       -21.1076
  34   2.0000      -0.711063       -19.3490
  35   2.0000      -0.701504       -19.0889
  36   2.0000      -0.694905       -18.9093
  37   2.0000      -0.659697       -17.9513
  38   2.0000      -0.642145       -17.4736
  39   2.0000      -0.627196       -17.0669
  40   2.0000      -0.602317       -16.3899
  41   2.0000      -0.567610       -15.4455
  42   2.0000      -0.561891       -15.2898
  43   2.0000      -0.551268       -15.0008
  44   2.0000      -0.535062       -14.5598
  45   2.0000      -0.526105       -14.3160
  46   2.0000      -0.522951       -14.2302
  47   2.0000      -0.516474       -14.0540
  48   2.0000      -0.505463       -13.7543
  49   2.0000      -0.501128       -13.6364
  50   2.0000      -0.491277       -13.3683
  51   2.0000      -0.489647       -13.3240
  52   2.0000      -0.467947       -12.7335
  53   2.0000      -0.466838       -12.7033
  54   2.0000      -0.457248       -12.4423
  55   2.0000      -0.450271       -12.2525
  56   2.0000      -0.445747       -12.1294
  57   2.0000      -0.439681       -11.9643
  58   2.0000      -0.431498       -11.7417
  59   2.0000      -0.429929       -11.6990
  60   2.0000      -0.417507       -11.3609
  61   2.0000      -0.413631       -11.2555
  62   2.0000      -0.405677       -11.0390
  63   2.0000      -0.350246        -9.5307
  64   2.0000      -0.334818        -9.1109
  65   2.0000      -0.325412        -8.8549
  66   2.0000      -0.283198        -7.7062
  67   0.0000       0.023549         0.6408
  68   0.0000       0.070831         1.9274
  69   0.0000       0.103437         2.8147
  70   0.0000       0.119187         3.2432
  71   0.0000       0.123982         3.3737

MULLIKEN ATOMIC CHARGES
-----------------------
   0 S :    0.102939
   1 C :   -0.106582
   2 C :   -0.069349
   3 C :    0.028128
   4 C :   -0.142886
   5 H :    0.004021
   6 C :    0.096225
   7 H :    0.041790
   8 H :    0.027306
   9 C :   -0.107550
  10 H :    0.043008
  11 H :    0.044796
  12 C :   -0.120262
  13 H :    0.040785
  14 H :    0.033617
  15 H :    0.051521
  16 S :    0.096378
  17 C :   -0.103638
  18 C :   -0.029276
  19 C :   -0.000479
  20 C :   -0.142836
  21 H :   -0.009724
  22 C :    0.039572
  23 H :    0.026392
  24 H :    0.012911
  25 C :   -0.092018
  26 H :    0.030849
  27 H :    0.035379
  28 C :   -0.009739
  29 H :    0.028959
  30 H :    0.022547
  31 H :    0.028781
  32 H :    0.023823
  33 H :    0.074614
Sum of atomic charges:   -0.0000000

LOEWDIN ATOMIC CHARGES
----------------------
   0 S :    0.401084
   1 C :   -0.177264
   2 C :   -0.044964
   3 C :   -0.071521
   4 C :   -0.188625
   5 H :    0.034418
   6 C :   -0.040013
   7 H :    0.040808
   8 H :    0.033240
   9 C :   -0.040864
  10 H :    0.033634
  11 H :    0.027451
  12 C :   -0.088003
  13 H :    0.022216
  14 H :    0.026335
  15 H :    0.031708
  16 S :    0.398118
  17 C :   -0.198966
  18 C :   -0.065899
  19 C :   -0.052021
  20 C :   -0.188540
  21 H :    0.015954
  22 C :   -0.050169
  23 H :    0.031539
  24 H :    0.035703
  25 C :   -0.041395
  26 H :    0.025335
  27 H :    0.023512
  28 C :   -0.056042
  29 H :    0.026258
  30 H :    0.025498
  31 H :    0.021921
  32 H :    0.005509
  33 H :    0.044045

  Mayer bond orders larger than 0.100000
B(  0-S ,  1-C ) :   1.1345 B(  0-S ,  4-C ) :   1.1774 B(  1-C ,  2-C ) :   1.5471
B(  1-C ,  4-C ) :   0.1168 B(  1-C , 32-H ) :   0.9923 B(  2-C ,  3-C ) :   1.2719
B(  2-C ,  6-C ) :   1.0152 B(  3-C ,  4-C ) :   1.5472 B(  3-C ,  5-H ) :   0.9798
B(  4-C , 20-C ) :   1.0565 B(  6-C ,  7-H ) :   0.9227 B(  6-C ,  8-H ) :   0.9432
B(  6-C ,  9-C ) :   1.0977 B(  9-C , 10-H ) :   0.9531 B(  9-C , 11-H ) :   0.9514
B(  9-C , 12-C ) :   1.0518 B( 12-C , 13-H ) :   0.9731 B( 12-C , 14-H ) :   0.9734
B( 12-C , 15-H ) :   0.9760 B( 16-S , 17-C ) :   1.1354 B( 16-S , 20-C ) :   1.1358
B( 17-C , 18-C ) :   1.6447 B( 17-C , 33-H ) :   0.9629 B( 18-C , 19-C ) :   1.1993
B( 18-C , 21-H ) :   0.9956 B( 19-C , 20-C ) :   1.5875 B( 19-C , 22-C ) :   1.0527
B( 22-C , 23-H ) :   0.9366 B( 22-C , 24-H ) :   0.9114 B( 22-C , 25-C ) :   1.0593
B( 25-C , 26-H ) :   0.9494 B( 25-C , 27-H ) :   0.9526 B( 25-C , 28-C ) :   1.0699
B( 28-C , 29-H ) :   0.9735 B( 28-C , 30-H ) :   0.9724 B( 28-C , 31-H ) :   0.9735

Dispersion correction           -0.015613171
FINAL SINGLE POINT ENERGY     -1339.863502183576

DIPOLE MOMENT
-------------
                                X             Y             Z
Electronic contribution:     28.16778     -17.74261       2.08081
Nuclear contribution   :    -28.89815      18.10878      -2.03901
                        -----------------------------------------
Total Dipole Moment    :     -0.73037       0.36617       0.04180
                        -----------------------------------------
Magnitude (a.u.)       :      0.81809
Magnitude (Debye)      :      2.07942

Rotational constants in cm-1:     0.016153     0.011514     0.007083
Rotational constants in MHz :   484.263819   345.192080   212.347240

                             ****ORCA TERMINATED NORMALLY****
TOTAL RUN TIME: 0 days 0 hours 0 minutes 21 seconds 685 msec
