                         Program Version 4.2.1 -  RELEASE  -
|  1> ! wB97X-D3 SP def2-SVP
|  2> %pal
|  3> nprocs 24
|  4> end
|  5>
|  6> * xyz 0 1
|  7> S 	 -50.558 	 9.28917 	 -16.9558
|  8> C 	 -50.7911 	 9.38283 	 -15.2311
|  9> C 	 -50.0291 	 10.426 	 -14.7052
| 10> C 	 -49.3465 	 11.1796 	 -15.7091
| 11> C 	 -49.5339 	 10.7052 	 -16.9773
| 12> H 	 -48.7615 	 12.0186 	 -15.3694
| 13> C 	 -50.1083 	 10.9354 	 -13.2927
| 14> H 	 -49.087 	 11.1528 	 -13.0149
| 15> H 	 -50.5024 	 10.1741 	 -12.6791
| 16> C 	 -51.1613 	 12.003 	 -13.098
| 17> H 	 -50.7583 	 12.8572 	 -13.585
| 18> H 	 -52.0057 	 11.7269 	 -13.7134
| 19> C 	 -51.5041 	 12.1747 	 -11.6519
| 20> H 	 -50.6966 	 12.0746 	 -10.9835
| 21> H 	 -51.8152 	 13.1987 	 -11.4309
| 22> H 	 -52.3261 	 11.4993 	 -11.4425
| 23> S 	 -48.9324 	 10.2476 	 -19.6357
| 24> C 	 -48.2416 	 11.4623 	 -20.6681
| 25> C 	 -48.2318 	 12.6771 	 -19.9991
| 26> C 	 -48.6803 	 12.5832 	 -18.6544
| 27> C 	 -49.0484 	 11.2629 	 -18.2562
| 28> H 	 -47.9507 	 13.6045 	 -20.3807
| 29> C 	 -48.5296 	 13.8002 	 -17.806
| 30> H 	 -49.18 	 13.6581 	 -16.9356
| 31> H 	 -49.0947 	 14.5746 	 -18.3055
| 32> C 	 -47.1589 	 14.2963 	 -17.4496
| 33> H 	 -46.5203 	 14.0973 	 -18.3104
| 34> H 	 -46.8214 	 13.8233 	 -16.5587
| 35> C 	 -47.1437 	 15.8324 	 -17.1457
| 36> H 	 -47.2695 	 16.1226 	 -16.1427
| 37> H 	 -47.7133 	 16.3508 	 -17.8447
| 38> H 	 -46.1396 	 16.1912 	 -17.3638
| 39> H 	 -51.5576 	 8.93331 	 -14.6704
| 40> H 	 -48.0153 	 11.2403 	 -21.7061
| 41> *
| 42>
| 43>                          ****END OF INPUT****

CARTESIAN COORDINATES (ANGSTROEM)
---------------------------------
  S    -50.558000    9.289170  -16.955800
  C    -50.791100    9.382830  -15.231100
  C    -50.029100   10.426000  -14.705200
  C    -49.346500   11.179600  -15.709100
  C    -49.533900   10.705200  -16.977300
  H    -48.761500   12.018600  -15.369400
  C    -50.108300   10.935400  -13.292700
  H    -49.087000   11.152800  -13.014900
  H    -50.502400   10.174100  -12.679100
  C    -51.161300   12.003000  -13.098000
  H    -50.758300   12.857200  -13.585000
  H    -52.005700   11.726900  -13.713400
  C    -51.504100   12.174700  -11.651900
  H    -50.696600   12.074600  -10.983500
  H    -51.815200   13.198700  -11.430900
  H    -52.326100   11.499300  -11.442500
  S    -48.932400   10.247600  -19.635700
  C    -48.241600   11.462300  -20.668100
  C    -48.231800   12.677100  -19.999100
  C    -48.680300   12.583200  -18.654400
  C    -49.048400   11.262900  -18.256200
  H    -47.950700   13.604500  -20.380700
  C    -48.529600   13.800200  -17.806000
  H    -49.180000   13.658100  -16.935600
  H    -49.094700   14.574600  -18.305500
  C    -47.158900   14.296300  -17.449600
  H    -46.520300   14.097300  -18.310400
  H    -46.821400   13.823300  -16.558700
  C    -47.143700   15.832400  -17.145700
  H    -47.269500   16.122600  -16.142700
  H    -47.713300   16.350800  -17.844700
  H    -46.139600   16.191200  -17.363800
  H    -51.557600    8.933310  -14.670400
  H    -48.015300   11.240300  -21.706100

 Total Charge           Charge          ....    0
 Multiplicity           Mult            ....    1
 Number of Electrons    NEL             ....  134
 Basis Dimension        Dim             ....  322

ORBITAL ENERGIES
----------------

  NO   OCC          E(Eh)            E(eV)
   0   2.0000     -88.966946     -2420.9137
   1   2.0000     -88.964996     -2420.8606
   2   2.0000     -10.334947      -281.2282
   3   2.0000     -10.331134      -281.1244
   4   2.0000     -10.319707      -280.8135
   5   2.0000     -10.309616      -280.5389
   6   2.0000     -10.300780      -280.2985
   7   2.0000     -10.296538      -280.1831
   8   2.0000     -10.291403      -280.0433
   9   2.0000     -10.290447      -280.0173
  10   2.0000     -10.285409      -279.8802
  11   2.0000     -10.282372      -279.7976
  12   2.0000     -10.281845      -279.7832
  13   2.0000     -10.278154      -279.6828
  14   2.0000     -10.274429      -279.5814
  15   2.0000     -10.271210      -279.4938
  16   2.0000      -8.081752      -219.9157
  17   2.0000      -8.080536      -219.8826
  18   2.0000      -6.040386      -164.3673
  19   2.0000      -6.039002      -164.3296
  20   2.0000      -6.036192      -164.2531
  21   2.0000      -6.034703      -164.2126
  22   2.0000      -6.032438      -164.1510
  23   2.0000      -6.031543      -164.1266
  24   2.0000      -1.009383       -27.4667
  25   2.0000      -0.987959       -26.8837
  26   2.0000      -0.924139       -25.1471
  27   2.0000      -0.915160       -24.9028
  28   2.0000      -0.870977       -23.7005
  29   2.0000      -0.855273       -23.2732
  30   2.0000      -0.849704       -23.1216
  31   2.0000      -0.818251       -22.2657
  32   2.0000      -0.784604       -21.3502
  33   2.0000      -0.773739       -21.0545
  34   2.0000      -0.712160       -19.3789
  35   2.0000      -0.706440       -19.2232
  36   2.0000      -0.699039       -19.0218
  37   2.0000      -0.668471       -18.1900
  38   2.0000      -0.638397       -17.3717
  39   2.0000      -0.631884       -17.1944
  40   2.0000      -0.602342       -16.3906
  41   2.0000      -0.578605       -15.7446
  42   2.0000      -0.572793       -15.5865
  43   2.0000      -0.566215       -15.4075
  44   2.0000      -0.528997       -14.3948
  45   2.0000      -0.525093       -14.2885
  46   2.0000      -0.521646       -14.1947
  47   2.0000      -0.519221       -14.1287
  48   2.0000      -0.508820       -13.8457
  49   2.0000      -0.504807       -13.7365
  50   2.0000      -0.499143       -13.5824
  51   2.0000      -0.483295       -13.1511
  52   2.0000      -0.474761       -12.9189
  53   2.0000      -0.465076       -12.6554
  54   2.0000      -0.464181       -12.6310
  55   2.0000      -0.453354       -12.3364
  56   2.0000      -0.447467       -12.1762
  57   2.0000      -0.440032       -11.9739
  58   2.0000      -0.436841       -11.8871
  59   2.0000      -0.424879       -11.5615
  60   2.0000      -0.419847       -11.4246
  61   2.0000      -0.413339       -11.2475
  62   2.0000      -0.407923       -11.1001
  63   2.0000      -0.359697        -9.7879
  64   2.0000      -0.334769        -9.1095
  65   2.0000      -0.325999        -8.8709
  66   2.0000      -0.282894        -7.6979
  67   0.0000       0.022618         0.6155
  68   0.0000       0.080866         2.2005
  69   0.0000       0.105344         2.8666
  70   0.0000       0.119074         3.2402
  71   0.0000       0.130240         3.5440

MULLIKEN ATOMIC CHARGES
-----------------------
   0 S :    0.104340
   1 C :   -0.093497
   2 C :   -0.132287
   3 C :   -0.008909
   4 C :   -0.080941
   5 H :    0.005177
   6 C :    0.069858
   7 H :    0.030735
   8 H :   -0.004624
   9 C :   -0.044392
  10 H :    0.005272
  11 H :    0.025896
  12 C :   -0.007607
  13 H :    0.021743
  14 H :    0.024435
  15 H :    0.038927
  16 S :    0.095857
  17 C :   -0.089482
  18 C :    0.007241
  19 C :   -0.079929
  20 C :   -0.116139
  21 H :   -0.008500
  22 C :    0.048620
  23 H :    0.007473
  24 H :    0.011975
  25 C :   -0.025408
  26 H :    0.028515
  27 H :    0.025218
  28 C :   -0.018098
  29 H :    0.030943
  30 H :    0.012711
  31 H :    0.015422
  32 H :    0.032969
  33 H :    0.066489
Sum of atomic charges:   -0.0000000

LOEWDIN ATOMIC CHARGES
----------------------
   0 S :    0.407900
   1 C :   -0.200147
   2 C :   -0.055640
   3 C :   -0.071038
   4 C :   -0.180969
   5 H :    0.029063
   6 C :   -0.030076
   7 H :    0.029226
   8 H :    0.021656
   9 C :   -0.036279
  10 H :    0.014514
  11 H :    0.027034
  12 C :   -0.060153
  13 H :    0.021115
  14 H :    0.030322
  15 H :    0.030556
  16 S :    0.427557
  17 C :   -0.187811
  18 C :   -0.061970
  19 C :   -0.059603
  20 C :   -0.208190
  21 H :    0.020400
  22 C :   -0.046332
  23 H :    0.027799
  24 H :    0.029738
  25 C :   -0.027874
  26 H :    0.026176
  27 H :    0.022461
  28 C :   -0.055501
  29 H :    0.020322
  30 H :    0.014674
  31 H :    0.029456
  32 H :    0.020706
  33 H :    0.030909

  Mayer bond orders larger than 0.100000
B(  0-S ,  1-C ) :   1.1318 B(  0-S ,  4-C ) :   1.1543 B(  1-C ,  2-C ) :   1.6040
B(  1-C , 32-H ) :   0.9709 B(  2-C ,  3-C ) :   1.2558 B(  2-C ,  6-C ) :   1.0465
B(  3-C ,  4-C ) :   1.5453 B(  3-C ,  5-H ) :   0.9996 B(  4-C , 20-C ) :   1.0542
B(  6-C ,  7-H ) :   0.9319 B(  6-C ,  8-H ) :   0.9361 B(  6-C ,  9-C ) :   1.0538
B(  9-C , 10-H ) :   0.9519 B(  9-C , 11-H ) :   0.9562 B(  9-C , 12-C ) :   1.0817
B( 12-C , 13-H ) :   0.9732 B( 12-C , 14-H ) :   0.9701 B( 12-C , 15-H ) :   0.9742
B( 16-S , 17-C ) :   1.1758 B( 16-S , 20-C ) :   1.1629 B( 17-C , 18-C ) :   1.5251
B( 17-C , 20-C ) :   0.1043 B( 17-C , 33-H ) :   0.9739 B( 18-C , 19-C ) :   1.3021
B( 18-C , 21-H ) :   1.0008 B( 19-C , 20-C ) :   1.5222 B( 19-C , 22-C ) :   1.0601
B( 22-C , 23-H ) :   0.9196 B( 22-C , 24-H ) :   0.9263 B( 22-C , 25-C ) :   1.0623
B( 25-C , 26-H ) :   0.9571 B( 25-C , 27-H ) :   0.9544 B( 25-C , 28-C ) :   1.0804
B( 28-C , 29-H ) :   0.9794 B( 28-C , 30-H ) :   0.9754 B( 28-C , 31-H ) :   0.9718

Dispersion correction           -0.013651039
FINAL SINGLE POINT ENERGY     -1339.867961208984

DIPOLE MOMENT
-------------
                                X             Y             Z
Electronic contribution:     -2.37590     -23.49279     -21.56460
Nuclear contribution   :      2.41741      24.22047      21.97186
                        -----------------------------------------
Total Dipole Moment    :      0.04151       0.72768       0.40726
                        -----------------------------------------
Magnitude (a.u.)       :      0.83493
Magnitude (Debye)      :      2.12222

Rotational constants in cm-1:     0.017191     0.009010     0.006119
Rotational constants in MHz :   515.362936   270.111666   183.451766

                             ****ORCA TERMINATED NORMALLY****
TOTAL RUN TIME: 0 days 0 hours 0 minutes 21 seconds 491 msec
