                         Program Version 4.2.1 -  RELEASE  -
|  1> ! wB97X-D3 SP def2-SVP
|  2> %pal
|  3> nprocs 24
|  4> end
|  5>
|  6> * xyz 0 1
|  7> S 	 48.2389 	 -33.957 	 -118.555
|  8> C 	 48.3922 	 -32.8761 	 -119.957
|  9> C 	 47.1661 	 -32.3557 	 -120.32
| 10> C 	 46.1465 	 -32.6339 	 -119.301
| 11> C 	 46.5105 	 -33.5723 	 -118.313
| 12> H 	 45.2033 	 -32.1596 	 -119.203
| 13> C 	 46.9206 	 -31.478 	 -121.503
| 14> H 	 47.8579 	 -31.2505 	 -122.114
| 15> H 	 46.4292 	 -30.5554 	 -121.213
| 16> C 	 45.9957 	 -32.0549 	 -122.626
| 17> H 	 46.0776 	 -33.158 	 -122.73
| 18> H 	 44.9146 	 -32.0175 	 -122.426
| 19> C 	 46.3293 	 -31.354 	 -123.987
| 20> H 	 47.2642 	 -31.4583 	 -124.387
| 21> H 	 45.6797 	 -31.7366 	 -124.811
| 22> H 	 46.0254 	 -30.3295 	 -123.792
| 23> S 	 46.1593 	 -34.906 	 -115.82
| 24> C 	 44.525 	 -35.3327 	 -115.35
| 25> C 	 43.6099 	 -34.8845 	 -116.269
| 26> C 	 44.1682 	 -34.3161 	 -117.42
| 27> C 	 45.5811 	 -34.225 	 -117.365
| 28> H 	 42.5655 	 -35.0901 	 -116.227
| 29> C 	 43.3476 	 -34.0627 	 -118.692
| 30> H 	 42.5266 	 -34.791 	 -118.737
| 31> H 	 43.9772 	 -34.2611 	 -119.557
| 32> C 	 42.5 	 -32.7386 	 -118.725
| 33> H 	 43.1491 	 -31.8355 	 -118.49
| 34> H 	 41.765 	 -32.6495 	 -117.874
| 35> C 	 41.7328 	 -32.4455 	 -120.003
| 36> H 	 40.8748 	 -33.1189 	 -120.189
| 37> H 	 42.4806 	 -32.5235 	 -120.785
| 38> H 	 41.4014 	 -31.3675 	 -119.759
| 39> H 	 49.2712 	 -32.8562 	 -120.551
| 40> H 	 44.189 	 -35.9598 	 -114.482
| 41> *
| 42>
| 43>                          ****END OF INPUT****

CARTESIAN COORDINATES (ANGSTROEM)
---------------------------------
  S     48.238900  -33.957000  -118.555000
  C     48.392200  -32.876100  -119.957000
  C     47.166100  -32.355700  -120.320000
  C     46.146500  -32.633900  -119.301000
  C     46.510500  -33.572300  -118.313000
  H     45.203300  -32.159600  -119.203000
  C     46.920600  -31.478000  -121.503000
  H     47.857900  -31.250500  -122.114000
  H     46.429200  -30.555400  -121.213000
  C     45.995700  -32.054900  -122.626000
  H     46.077600  -33.158000  -122.730000
  H     44.914600  -32.017500  -122.426000
  C     46.329300  -31.354000  -123.987000
  H     47.264200  -31.458300  -124.387000
  H     45.679700  -31.736600  -124.811000
  H     46.025400  -30.329500  -123.792000
  S     46.159300  -34.906000  -115.820000
  C     44.525000  -35.332700  -115.350000
  C     43.609900  -34.884500  -116.269000
  C     44.168200  -34.316100  -117.420000
  C     45.581100  -34.225000  -117.365000
  H     42.565500  -35.090100  -116.227000
  C     43.347600  -34.062700  -118.692000
  H     42.526600  -34.791000  -118.737000
  H     43.977200  -34.261100  -119.557000
  C     42.500000  -32.738600  -118.725000
  H     43.149100  -31.835500  -118.490000
  H     41.765000  -32.649500  -117.874000
  C     41.732800  -32.445500  -120.003000
  H     40.874800  -33.118900  -120.189000
  H     42.480600  -32.523500  -120.785000
  H     41.401400  -31.367500  -119.759000
  H     49.271200  -32.856200  -120.551000
  H     44.189000  -35.959800  -114.482000

 Total Charge           Charge          ....    0
 Multiplicity           Mult            ....    1
 Number of Electrons    NEL             ....  134
 Basis Dimension        Dim             ....  322

ORBITAL ENERGIES
----------------

  NO   OCC          E(Eh)            E(eV)
   0   2.0000     -88.970914     -2421.0216
   1   2.0000     -88.964992     -2420.8605
   2   2.0000     -10.340228      -281.3719
   3   2.0000     -10.337647      -281.3017
   4   2.0000     -10.324719      -280.9499
   5   2.0000     -10.316861      -280.7361
   6   2.0000     -10.308218      -280.5009
   7   2.0000     -10.307233      -280.4741
   8   2.0000     -10.300497      -280.2908
   9   2.0000     -10.298653      -280.2406
  10   2.0000     -10.298399      -280.2337
  11   2.0000     -10.297910      -280.2204
  12   2.0000     -10.293483      -280.0999
  13   2.0000     -10.291133      -280.0360
  14   2.0000     -10.290338      -280.0143
  15   2.0000     -10.278463      -279.6912
  16   2.0000      -8.084811      -219.9989
  17   2.0000      -8.078769      -219.8345
  18   2.0000      -6.043403      -164.4493
  19   2.0000      -6.039395      -164.3403
  20   2.0000      -6.037487      -164.2884
  21   2.0000      -6.035569      -164.2362
  22   2.0000      -6.033413      -164.1775
  23   2.0000      -6.029352      -164.0670
  24   2.0000      -1.000185       -27.2164
  25   2.0000      -0.978874       -26.6365
  26   2.0000      -0.907734       -24.7007
  27   2.0000      -0.906404       -24.6645
  28   2.0000      -0.868611       -23.6361
  29   2.0000      -0.856634       -23.3102
  30   2.0000      -0.842734       -22.9319
  31   2.0000      -0.813758       -22.1435
  32   2.0000      -0.781566       -21.2675
  33   2.0000      -0.771246       -20.9867
  34   2.0000      -0.706518       -19.2253
  35   2.0000      -0.699364       -19.0307
  36   2.0000      -0.689569       -18.7641
  37   2.0000      -0.663752       -18.0616
  38   2.0000      -0.643961       -17.5231
  39   2.0000      -0.618160       -16.8210
  40   2.0000      -0.596021       -16.2186
  41   2.0000      -0.574601       -15.6357
  42   2.0000      -0.564044       -15.3484
  43   2.0000      -0.557291       -15.1647
  44   2.0000      -0.534893       -14.5552
  45   2.0000      -0.525202       -14.2915
  46   2.0000      -0.516862       -14.0645
  47   2.0000      -0.511007       -13.9052
  48   2.0000      -0.507434       -13.8080
  49   2.0000      -0.500356       -13.6154
  50   2.0000      -0.489119       -13.3096
  51   2.0000      -0.479999       -13.0614
  52   2.0000      -0.474738       -12.9183
  53   2.0000      -0.465629       -12.6704
  54   2.0000      -0.457863       -12.4591
  55   2.0000      -0.452282       -12.3072
  56   2.0000      -0.439058       -11.9474
  57   2.0000      -0.437982       -11.9181
  58   2.0000      -0.435470       -11.8497
  59   2.0000      -0.424094       -11.5402
  60   2.0000      -0.420642       -11.4463
  61   2.0000      -0.412241       -11.2177
  62   2.0000      -0.408412       -11.1135
  63   2.0000      -0.358221        -9.7477
  64   2.0000      -0.335383        -9.1262
  65   2.0000      -0.325021        -8.8443
  66   2.0000      -0.284433        -7.7398
  67   0.0000       0.014633         0.3982
  68   0.0000       0.083172         2.2632
  69   0.0000       0.102158         2.7799
  70   0.0000       0.113398         3.0857
  71   0.0000       0.124395         3.3850

MULLIKEN ATOMIC CHARGES
-----------------------
   0 S :    0.083510
   1 C :   -0.103472
   2 C :   -0.050858
   3 C :    0.010203
   4 C :   -0.103388
   5 H :   -0.015393
   6 C :    0.042588
   7 H :    0.036146
   8 H :    0.038885
   9 C :   -0.113025
  10 H :    0.029915
  11 H :    0.032601
  12 C :   -0.050647
  13 H :    0.028212
  14 H :    0.032647
  15 H :    0.034390
  16 S :    0.109106
  17 C :   -0.099930
  18 C :   -0.004977
  19 C :   -0.041865
  20 C :   -0.142189
  21 H :    0.006017
  22 C :    0.040776
  23 H :    0.019703
  24 H :    0.046078
  25 C :   -0.145507
  26 H :    0.036666
  27 H :    0.029789
  28 C :   -0.045595
  29 H :    0.048137
  30 H :    0.034018
  31 H :    0.053908
  32 H :    0.045456
  33 H :    0.078093
Sum of atomic charges:    0.0000000

LOEWDIN ATOMIC CHARGES
----------------------
   0 S :    0.370686
   1 C :   -0.178539
   2 C :   -0.059962
   3 C :   -0.059810
   4 C :   -0.176483
   5 H :    0.022168
   6 C :   -0.036063
   7 H :    0.041019
   8 H :    0.033809
   9 C :   -0.047001
  10 H :    0.022205
  11 H :    0.021709
  12 C :   -0.062525
  13 H :    0.011288
  14 H :    0.032808
  15 H :    0.027393
  16 S :    0.395873
  17 C :   -0.188039
  18 C :   -0.071004
  19 C :   -0.052230
  20 C :   -0.188237
  21 H :    0.028509
  22 C :   -0.036924
  23 H :    0.031431
  24 H :    0.032792
  25 C :   -0.056063
  26 H :    0.021201
  27 H :    0.025728
  28 C :   -0.068917
  29 H :    0.027082
  30 H :    0.021838
  31 H :    0.044614
  32 H :    0.023724
  33 H :    0.045922

  Mayer bond orders larger than 0.100000
B(  0-S ,  1-C ) :   1.1211 B(  0-S ,  4-C ) :   1.1279 B(  1-C ,  2-C ) :   1.6258
B(  1-C , 32-H ) :   0.9705 B(  2-C ,  3-C ) :   1.2015 B(  2-C ,  6-C ) :   1.0511
B(  3-C ,  4-C ) :   1.5770 B(  3-C ,  5-H ) :   0.9922 B(  4-C , 20-C ) :   1.0854
B(  6-C ,  7-H ) :   0.9523 B(  6-C ,  8-H ) :   0.9350 B(  6-C ,  9-C ) :   1.0298
B(  9-C , 10-H ) :   0.9613 B(  9-C , 11-H ) :   0.9553 B(  9-C , 12-C ) :   1.0785
B( 12-C , 13-H ) :   0.9788 B( 12-C , 14-H ) :   0.9727 B( 12-C , 15-H ) :   0.9766
B( 16-S , 17-C ) :   1.1552 B( 16-S , 20-C ) :   1.1281 B( 17-C , 18-C ) :   1.5886
B( 17-C , 33-H ) :   0.9586 B( 18-C , 19-C ) :   1.2968 B( 18-C , 21-H ) :   0.9848
B( 19-C , 20-C ) :   1.5504 B( 19-C , 22-C ) :   1.0334 B( 22-C , 23-H ) :   0.9351
B( 22-C , 24-H ) :   0.9427 B( 22-C , 25-C ) :   1.0370 B( 25-C , 26-H ) :   0.9534
B( 25-C , 27-H ) :   0.9532 B( 25-C , 28-C ) :   1.0705 B( 28-C , 29-H ) :   0.9740
B( 28-C , 30-H ) :   0.9745 B( 28-C , 31-H ) :   0.9732

Dispersion correction           -0.014256739
FINAL SINGLE POINT ENERGY     -1339.863204786763

DIPOLE MOMENT
-------------
                                X             Y             Z
Electronic contribution:     18.54081     -13.98689      26.35594
Nuclear contribution   :    -19.23119      14.12211     -26.86842
                        -----------------------------------------
Total Dipole Moment    :     -0.69038       0.13523      -0.51248
                        -----------------------------------------
Magnitude (a.u.)       :      0.87037
Magnitude (Debye)      :      2.21231

Rotational constants in cm-1:     0.017748     0.009261     0.006277
Rotational constants in MHz :   532.081148   277.638203   188.183432

                             ****ORCA TERMINATED NORMALLY****
TOTAL RUN TIME: 0 days 0 hours 0 minutes 21 seconds 835 msec
