                         Program Version 4.2.1 -  RELEASE  -
|  1> ! wB97X-D3 SP def2-SVP
|  2> %pal
|  3> nprocs 24
|  4> end
|  5>
|  6> * xyz 0 1
|  7> S 	 -51.6118 	 14.48 	 24.0661
|  8> C 	 -52.2776 	 12.8951 	 24.293
|  9> C 	 -53.2114 	 12.8741 	 25.291
| 10> C 	 -53.1756 	 14.0583 	 26.0855
| 11> C 	 -52.3176 	 15.0116 	 25.5929
| 12> H 	 -53.8449 	 14.3007 	 26.9386
| 13> C 	 -54.1083 	 11.6388 	 25.5069
| 14> H 	 -53.7854 	 11.1015 	 26.4292
| 15> H 	 -54.0356 	 11.0201 	 24.5627
| 16> C 	 -55.5548 	 11.8928 	 25.2691
| 17> H 	 -55.9526 	 12.6176 	 25.9682
| 18> H 	 -55.7403 	 12.4006 	 24.3238
| 19> C 	 -56.4576 	 10.6549 	 25.218
| 20> H 	 -56.1382 	 9.8787 	 24.5453
| 21> H 	 -56.2617 	 10.1957 	 26.2049
| 22> H 	 -57.5142 	 10.9473 	 25.0562
| 23> S 	 -52.3588 	 17.7115 	 25.3572
| 24> C 	 -51.661 	 18.6452 	 26.6556
| 25> C 	 -51.3548 	 17.8732 	 27.738
| 26> C 	 -51.5055 	 16.4667 	 27.5326
| 27> C 	 -51.997 	 16.239 	 26.2471
| 28> H 	 -51.0104 	 18.287 	 28.6459
| 29> C 	 -51.1079 	 15.477 	 28.6401
| 30> H 	 -51.0686 	 14.4724 	 28.1831
| 31> H 	 -51.9444 	 15.3983 	 29.2945
| 32> C 	 -49.7817 	 15.6786 	 29.5052
| 33> H 	 -49.5016 	 14.8545 	 30.2715
| 34> H 	 -50.0259 	 16.6073 	 30.0685
| 35> C 	 -48.5637 	 15.9498 	 28.6378
| 36> H 	 -48.2944 	 15.1628 	 27.9729
| 37> H 	 -47.6693 	 16.1042 	 29.3022
| 38> H 	 -48.6775 	 16.8412 	 28.0385
| 39> H 	 -52.3225 	 12.0995 	 23.6557
| 40> H 	 -51.4849 	 19.6977 	 26.781
| 41> *
| 42>
| 43>                          ****END OF INPUT****

CARTESIAN COORDINATES (ANGSTROEM)
---------------------------------
  S    -51.611800   14.480000   24.066100
  C    -52.277600   12.895100   24.293000
  C    -53.211400   12.874100   25.291000
  C    -53.175600   14.058300   26.085500
  C    -52.317600   15.011600   25.592900
  H    -53.844900   14.300700   26.938600
  C    -54.108300   11.638800   25.506900
  H    -53.785400   11.101500   26.429200
  H    -54.035600   11.020100   24.562700
  C    -55.554800   11.892800   25.269100
  H    -55.952600   12.617600   25.968200
  H    -55.740300   12.400600   24.323800
  C    -56.457600   10.654900   25.218000
  H    -56.138200    9.878700   24.545300
  H    -56.261700   10.195700   26.204900
  H    -57.514200   10.947300   25.056200
  S    -52.358800   17.711500   25.357200
  C    -51.661000   18.645200   26.655600
  C    -51.354800   17.873200   27.738000
  C    -51.505500   16.466700   27.532600
  C    -51.997000   16.239000   26.247100
  H    -51.010400   18.287000   28.645900
  C    -51.107900   15.477000   28.640100
  H    -51.068600   14.472400   28.183100
  H    -51.944400   15.398300   29.294500
  C    -49.781700   15.678600   29.505200
  H    -49.501600   14.854500   30.271500
  H    -50.025900   16.607300   30.068500
  C    -48.563700   15.949800   28.637800
  H    -48.294400   15.162800   27.972900
  H    -47.669300   16.104200   29.302200
  H    -48.677500   16.841200   28.038500
  H    -52.322500   12.099500   23.655700
  H    -51.484900   19.697700   26.781000

 Total Charge           Charge          ....    0
 Multiplicity           Mult            ....    1
 Number of Electrons    NEL             ....  134
 Basis Dimension        Dim             ....  322

ORBITAL ENERGIES
----------------

  NO   OCC          E(Eh)            E(eV)
   0   2.0000     -88.968910     -2420.9671
   1   2.0000     -88.966493     -2420.9013
   2   2.0000     -10.325154      -280.9617
   3   2.0000     -10.324762      -280.9510
   4   2.0000     -10.313243      -280.6376
   5   2.0000     -10.307580      -280.4835
   6   2.0000     -10.302951      -280.3576
   7   2.0000     -10.301766      -280.3253
   8   2.0000     -10.299111      -280.2530
   9   2.0000     -10.298109      -280.2258
  10   2.0000     -10.295344      -280.1505
  11   2.0000     -10.295277      -280.1487
  12   2.0000     -10.286665      -279.9144
  13   2.0000     -10.282365      -279.7974
  14   2.0000     -10.281254      -279.7671
  15   2.0000     -10.272119      -279.5186
  16   2.0000      -8.083471      -219.9624
  17   2.0000      -8.081204      -219.9007
  18   2.0000      -6.042085      -164.4135
  19   2.0000      -6.039745      -164.3498
  20   2.0000      -6.038095      -164.3049
  21   2.0000      -6.035862      -164.2442
  22   2.0000      -6.034040      -164.1946
  23   2.0000      -6.031779      -164.1331
  24   2.0000      -1.009337       -27.4655
  25   2.0000      -0.986245       -26.8371
  26   2.0000      -0.918636       -24.9974
  27   2.0000      -0.900864       -24.5137
  28   2.0000      -0.876092       -23.8397
  29   2.0000      -0.850535       -23.1442
  30   2.0000      -0.845335       -23.0027
  31   2.0000      -0.817454       -22.2441
  32   2.0000      -0.784349       -21.3432
  33   2.0000      -0.772866       -21.0308
  34   2.0000      -0.713252       -19.4086
  35   2.0000      -0.692703       -18.8494
  36   2.0000      -0.692392       -18.8409
  37   2.0000      -0.659696       -17.9512
  38   2.0000      -0.641999       -17.4697
  39   2.0000      -0.618487       -16.8299
  40   2.0000      -0.591330       -16.0909
  41   2.0000      -0.573704       -15.6113
  42   2.0000      -0.567655       -15.4467
  43   2.0000      -0.545992       -14.8572
  44   2.0000      -0.544477       -14.8160
  45   2.0000      -0.530274       -14.4295
  46   2.0000      -0.513708       -13.9787
  47   2.0000      -0.507888       -13.8203
  48   2.0000      -0.503718       -13.7069
  49   2.0000      -0.498868       -13.5749
  50   2.0000      -0.494775       -13.4635
  51   2.0000      -0.479736       -13.0543
  52   2.0000      -0.473457       -12.8834
  53   2.0000      -0.460664       -12.5353
  54   2.0000      -0.458150       -12.4669
  55   2.0000      -0.455187       -12.3863
  56   2.0000      -0.448259       -12.1977
  57   2.0000      -0.436307       -11.8725
  58   2.0000      -0.432979       -11.7820
  59   2.0000      -0.428632       -11.6637
  60   2.0000      -0.418912       -11.3992
  61   2.0000      -0.405229       -11.0268
  62   2.0000      -0.399768       -10.8783
  63   2.0000      -0.343013        -9.3339
  64   2.0000      -0.333614        -9.0781
  65   2.0000      -0.331325        -9.0158
  66   2.0000      -0.295818        -8.0496
  67   0.0000       0.031728         0.8634
  68   0.0000       0.067928         1.8484
  69   0.0000       0.109801         2.9878
  70   0.0000       0.126963         3.4548
  71   0.0000       0.133513         3.6331

MULLIKEN ATOMIC CHARGES
-----------------------
   0 S :    0.119799
   1 C :   -0.049776
   2 C :   -0.117864
   3 C :    0.025047
   4 C :   -0.158603
   5 H :    0.029236
   6 C :    0.041442
   7 H :    0.059217
   8 H :    0.019334
   9 C :   -0.084907
  10 H :    0.016110
  11 H :    0.025384
  12 C :   -0.045385
  13 H :    0.027352
  14 H :    0.023259
  15 H :    0.052797
  16 S :    0.121565
  17 C :   -0.058946
  18 C :   -0.047124
  19 C :   -0.018308
  20 C :   -0.195890
  21 H :   -0.001856
  22 C :    0.077234
  23 H :    0.030593
  24 H :    0.032203
  25 C :   -0.115069
  26 H :    0.057062
  27 H :    0.033699
  28 C :   -0.044288
  29 H :    0.031024
  30 H :    0.033328
  31 H :    0.033916
  32 H :    0.004282
  33 H :    0.044134
Sum of atomic charges:    0.0000000

LOEWDIN ATOMIC CHARGES
----------------------
   0 S :    0.405153
   1 C :   -0.188338
   2 C :   -0.061643
   3 C :   -0.062288
   4 C :   -0.196785
   5 H :    0.039364
   6 C :   -0.037847
   7 H :    0.037033
   8 H :    0.040247
   9 C :   -0.050394
  10 H :    0.014837
  11 H :    0.025195
  12 C :   -0.065551
  13 H :    0.020013
  14 H :    0.027102
  15 H :    0.034570
  16 S :    0.407198
  17 C :   -0.187449
  18 C :   -0.067751
  19 C :   -0.046990
  20 C :   -0.197875
  21 H :    0.021931
  22 C :   -0.034753
  23 H :    0.032301
  24 H :    0.028959
  25 C :   -0.047048
  26 H :    0.040729
  27 H :    0.022716
  28 C :   -0.070093
  29 H :    0.021643
  30 H :    0.030933
  31 H :    0.024468
  32 H :    0.009271
  33 H :    0.031144

  Mayer bond orders larger than 0.100000
B(  0-S ,  1-C ) :   1.1345 B(  0-S ,  4-C ) :   1.1355 B(  1-C ,  2-C ) :   1.6440
B(  1-C , 32-H ) :   0.9643 B(  2-C ,  3-C ) :   1.2227 B(  2-C ,  6-C ) :   1.0229
B(  3-C ,  4-C ) :   1.5789 B(  3-C ,  5-H ) :   0.9945 B(  4-C , 20-C ) :   1.0470
B(  6-C ,  7-H ) :   0.9431 B(  6-C ,  8-H ) :   0.9457 B(  6-C ,  9-C ) :   1.0399
B(  9-C , 10-H ) :   0.9505 B(  9-C , 11-H ) :   0.9556 B(  9-C , 12-C ) :   1.0858
B( 12-C , 13-H ) :   0.9741 B( 12-C , 14-H ) :   0.9723 B( 12-C , 15-H ) :   0.9734
B( 16-S , 17-C ) :   1.1300 B( 16-S , 20-C ) :   1.1445 B( 17-C , 18-C ) :   1.6443
B( 17-C , 33-H ) :   0.9632 B( 18-C , 19-C ) :   1.2270 B( 18-C , 21-H ) :   0.9879
B( 19-C , 20-C ) :   1.6076 B( 19-C , 22-C ) :   1.0272 B( 22-C , 23-H ) :   0.9328
B( 22-C , 24-H ) :   0.9367 B( 22-C , 25-C ) :   1.0525 B( 25-C , 26-H ) :   0.9581
B( 25-C , 27-H ) :   0.9519 B( 25-C , 28-C ) :   1.0842 B( 28-C , 29-H ) :   0.9762
B( 28-C , 30-H ) :   0.9726 B( 28-C , 31-H ) :   0.9696

Dispersion correction           -0.014067926
FINAL SINGLE POINT ENERGY     -1339.857994063969

DIPOLE MOMENT
-------------
                                X             Y             Z
Electronic contribution:      3.83567      16.45664     -14.38050
Nuclear contribution   :     -4.03909     -16.71491      14.87604
                        -----------------------------------------
Total Dipole Moment    :     -0.20343      -0.25827       0.49554
                        -----------------------------------------
Magnitude (a.u.)       :      0.59468
Magnitude (Debye)      :      1.51155

Rotational constants in cm-1:     0.020970     0.007289     0.006568
Rotational constants in MHz :   628.656651   218.513602   196.915974

                             ****ORCA TERMINATED NORMALLY****
TOTAL RUN TIME: 0 days 0 hours 0 minutes 21 seconds 286 msec
