                         Program Version 4.2.1 -  RELEASE  -
|  1> ! wB97X-D3 SP def2-SVP
|  2> %pal
|  3> nprocs 24
|  4> end
|  5>
|  6> * xyz 0 1
|  7> S 	 11.1577 	 -16.621 	 -120.354
|  8> C 	 9.716 	 -15.5634 	 -120.391
|  9> C 	 9.20593 	 -15.3348 	 -119.113
| 10> C 	 9.91829 	 -16.0171 	 -118.119
| 11> C 	 11.0896 	 -16.589 	 -118.599
| 12> H 	 9.74125 	 -15.9901 	 -117.059
| 13> C 	 7.97518 	 -14.4544 	 -118.853
| 14> H 	 7.60455 	 -14.6804 	 -117.876
| 15> H 	 7.26874 	 -14.7696 	 -119.652
| 16> C 	 8.19516 	 -12.9377 	 -118.917
| 17> H 	 8.77813 	 -12.5725 	 -118.047
| 18> H 	 8.73148 	 -12.7129 	 -119.811
| 19> C 	 6.83617 	 -12.3253 	 -118.79
| 20> H 	 6.59134 	 -11.6937 	 -119.758
| 21> H 	 6.03752 	 -13.2015 	 -118.63
| 22> H 	 6.82183 	 -11.6072 	 -118.013
| 23> S 	 12.5432 	 -16.4765 	 -116.354
| 24> C 	 13.2606 	 -17.8337 	 -115.673
| 25> C 	 13.1801 	 -18.932 	 -116.511
| 26> C 	 12.5415 	 -18.6033 	 -117.786
| 27> C 	 12.0601 	 -17.3254 	 -117.809
| 28> H 	 13.4768 	 -19.8992 	 -116.211
| 29> C 	 12.2708 	 -19.614 	 -118.848
| 30> H 	 11.2145 	 -19.5581 	 -119.147
| 31> H 	 12.484 	 -20.6098 	 -118.546
| 32> C 	 13.1737 	 -19.5765 	 -120.135
| 33> H 	 13.1925 	 -18.6275 	 -120.622
| 34> H 	 12.8598 	 -20.2024 	 -120.951
| 35> C 	 14.6918 	 -19.7974 	 -119.761
| 36> H 	 14.8627 	 -19.2779 	 -118.809
| 37> H 	 15.3582 	 -19.4812 	 -120.544
| 38> H 	 14.7722 	 -20.8682 	 -119.615
| 39> H 	 9.37221 	 -15.0433 	 -121.255
| 40> H 	 13.759 	 -17.8427 	 -114.738
| 41> *
| 42>
| 43>                          ****END OF INPUT****

CARTESIAN COORDINATES (ANGSTROEM)
---------------------------------
  S     11.157700  -16.621000  -120.354000
  C      9.716000  -15.563400  -120.391000
  C      9.205930  -15.334800  -119.113000
  C      9.918290  -16.017100  -118.119000
  C     11.089600  -16.589000  -118.599000
  H      9.741250  -15.990100  -117.059000
  C      7.975180  -14.454400  -118.853000
  H      7.604550  -14.680400  -117.876000
  H      7.268740  -14.769600  -119.652000
  C      8.195160  -12.937700  -118.917000
  H      8.778130  -12.572500  -118.047000
  H      8.731480  -12.712900  -119.811000
  C      6.836170  -12.325300  -118.790000
  H      6.591340  -11.693700  -119.758000
  H      6.037520  -13.201500  -118.630000
  H      6.821830  -11.607200  -118.013000
  S     12.543200  -16.476500  -116.354000
  C     13.260600  -17.833700  -115.673000
  C     13.180100  -18.932000  -116.511000
  C     12.541500  -18.603300  -117.786000
  C     12.060100  -17.325400  -117.809000
  H     13.476800  -19.899200  -116.211000
  C     12.270800  -19.614000  -118.848000
  H     11.214500  -19.558100  -119.147000
  H     12.484000  -20.609800  -118.546000
  C     13.173700  -19.576500  -120.135000
  H     13.192500  -18.627500  -120.622000
  H     12.859800  -20.202400  -120.951000
  C     14.691800  -19.797400  -119.761000
  H     14.862700  -19.277900  -118.809000
  H     15.358200  -19.481200  -120.544000
  H     14.772200  -20.868200  -119.615000
  H      9.372210  -15.043300  -121.255000
  H     13.759000  -17.842700  -114.738000

 Total Charge           Charge          ....    0
 Multiplicity           Mult            ....    1
 Number of Electrons    NEL             ....  134
 Basis Dimension        Dim             ....  322

ORBITAL ENERGIES
----------------

  NO   OCC          E(Eh)            E(eV)
   0   2.0000     -88.970193     -2421.0020
   1   2.0000     -88.962600     -2420.7954
   2   2.0000     -10.331356      -281.1305
   3   2.0000     -10.322750      -280.8963
   4   2.0000     -10.312883      -280.6278
   5   2.0000     -10.311153      -280.5807
   6   2.0000     -10.304060      -280.3877
   7   2.0000     -10.299633      -280.2673
   8   2.0000     -10.294164      -280.1184
   9   2.0000     -10.293693      -280.1056
  10   2.0000     -10.292609      -280.0761
  11   2.0000     -10.290004      -280.0052
  12   2.0000     -10.288468      -279.9635
  13   2.0000     -10.283037      -279.8156
  14   2.0000     -10.279222      -279.7119
  15   2.0000     -10.271060      -279.4897
  16   2.0000      -8.083505      -219.9633
  17   2.0000      -8.078875      -219.8374
  18   2.0000      -6.041968      -164.4103
  19   2.0000      -6.038266      -164.3096
  20   2.0000      -6.037266      -164.2824
  21   2.0000      -6.034358      -164.2032
  22   2.0000      -6.033024      -164.1669
  23   2.0000      -6.029808      -164.0794
  24   2.0000      -1.011456       -27.5231
  25   2.0000      -0.985053       -26.8047
  26   2.0000      -0.917394       -24.9636
  27   2.0000      -0.906253       -24.6604
  28   2.0000      -0.871290       -23.7090
  29   2.0000      -0.851998       -23.1840
  30   2.0000      -0.845398       -23.0044
  31   2.0000      -0.811224       -22.0745
  32   2.0000      -0.780098       -21.2275
  33   2.0000      -0.767910       -20.8959
  34   2.0000      -0.706355       -19.2209
  35   2.0000      -0.696901       -18.9636
  36   2.0000      -0.691868       -18.8267
  37   2.0000      -0.672597       -18.3023
  38   2.0000      -0.639354       -17.3977
  39   2.0000      -0.616570       -16.7777
  40   2.0000      -0.597141       -16.2490
  41   2.0000      -0.578202       -15.7337
  42   2.0000      -0.565016       -15.3749
  43   2.0000      -0.555339       -15.1115
  44   2.0000      -0.544590       -14.8190
  45   2.0000      -0.524641       -14.2762
  46   2.0000      -0.516630       -14.0582
  47   2.0000      -0.512136       -13.9359
  48   2.0000      -0.505016       -13.7422
  49   2.0000      -0.495978       -13.4963
  50   2.0000      -0.487616       -13.2687
  51   2.0000      -0.474012       -12.8985
  52   2.0000      -0.472655       -12.8616
  53   2.0000      -0.466078       -12.6826
  54   2.0000      -0.460892       -12.5415
  55   2.0000      -0.450541       -12.2598
  56   2.0000      -0.439776       -11.9669
  57   2.0000      -0.434342       -11.8190
  58   2.0000      -0.432156       -11.7596
  59   2.0000      -0.425811       -11.5869
  60   2.0000      -0.421689       -11.4747
  61   2.0000      -0.411826       -11.2064
  62   2.0000      -0.403266       -10.9734
  63   2.0000      -0.348777        -9.4907
  64   2.0000      -0.335501        -9.1294
  65   2.0000      -0.328057        -8.9269
  66   2.0000      -0.289298        -7.8722
  67   0.0000       0.027756         0.7553
  68   0.0000       0.072051         1.9606
  69   0.0000       0.101445         2.7604
  70   0.0000       0.122688         3.3385
  71   0.0000       0.125763         3.4222

MULLIKEN ATOMIC CHARGES
-----------------------
   0 S :    0.107446
   1 C :   -0.112325
   2 C :   -0.074038
   3 C :    0.030417
   4 C :   -0.151846
   5 H :    0.011710
   6 C :    0.026930
   7 H :    0.018638
   8 H :    0.045684
   9 C :   -0.041458
  10 H :    0.035596
  11 H :    0.025093
  12 C :   -0.090272
  13 H :    0.046487
  14 H :    0.058028
  15 H :    0.029887
  16 S :    0.106644
  17 C :   -0.073502
  18 C :   -0.019911
  19 C :   -0.037965
  20 C :   -0.155380
  21 H :    0.001897
  22 C :    0.072622
  23 H :    0.044314
  24 H :    0.004288
  25 C :   -0.070352
  26 H :    0.011473
  27 H :    0.025279
  28 C :   -0.070670
  29 H :    0.046921
  30 H :    0.038955
  31 H :    0.023242
  32 H :    0.037289
  33 H :    0.048880
Sum of atomic charges:    0.0000000

LOEWDIN ATOMIC CHARGES
----------------------
   0 S :    0.405377
   1 C :   -0.189313
   2 C :   -0.059332
   3 C :   -0.064998
   4 C :   -0.186936
   5 H :    0.027747
   6 C :   -0.029633
   7 H :    0.024686
   8 H :    0.037168
   9 C :   -0.044332
  10 H :    0.030317
  11 H :    0.018475
  12 C :   -0.076496
  13 H :    0.039252
  14 H :    0.041961
  15 H :    0.016827
  16 S :    0.439521
  17 C :   -0.201360
  18 C :   -0.066314
  19 C :   -0.058275
  20 C :   -0.194857
  21 H :    0.022851
  22 C :   -0.033163
  23 H :    0.035100
  24 H :    0.025116
  25 C :   -0.039444
  26 H :    0.004822
  27 H :    0.021108
  28 C :   -0.063363
  29 H :    0.029163
  30 H :    0.023894
  31 H :    0.019536
  32 H :    0.019678
  33 H :    0.025214

  Mayer bond orders larger than 0.100000
B(  0-S ,  1-C ) :   1.1283 B(  0-S ,  4-C ) :   1.1561 B(  1-C ,  2-C ) :   1.6036
B(  1-C ,  4-C ) :   0.1052 B(  1-C , 32-H ) :   0.9708 B(  2-C ,  3-C ) :   1.2634
B(  2-C ,  6-C ) :   1.0069 B(  3-C ,  4-C ) :   1.5602 B(  3-C ,  5-H ) :   0.9863
B(  4-C , 20-C ) :   1.0239 B(  6-C ,  7-H ) :   0.9388 B(  6-C ,  8-H ) :   0.9445
B(  6-C ,  9-C ) :   1.0793 B(  9-C , 10-H ) :   0.9582 B(  9-C , 11-H ) :   0.9610
B(  9-C , 12-C ) :   1.0527 B( 12-C , 13-H ) :   0.9733 B( 12-C , 14-H ) :   0.9725
B( 12-C , 15-H ) :   0.9779 B( 16-S , 17-C ) :   1.1755 B( 16-S , 20-C ) :   1.1456
B( 17-C , 18-C ) :   1.5839 B( 17-C , 33-H ) :   0.9720 B( 18-C , 19-C ) :   1.2340
B( 18-C , 21-H ) :   1.0007 B( 19-C , 20-C ) :   1.5896 B( 19-C , 22-C ) :   1.0584
B( 22-C , 23-H ) :   0.9322 B( 22-C , 24-H ) :   0.9363 B( 22-C , 25-C ) :   1.0557
B( 25-C , 26-H ) :   0.9575 B( 25-C , 27-H ) :   0.9607 B( 25-C , 28-C ) :   1.0578
B( 28-C , 29-H ) :   0.9778 B( 28-C , 30-H ) :   0.9773 B( 28-C , 31-H ) :   0.9798

Dispersion correction           -0.014299843
FINAL SINGLE POINT ENERGY     -1339.864473895405

DIPOLE MOMENT
-------------
                                X             Y             Z
Electronic contribution:      7.94439      -1.91794       5.97993
Nuclear contribution   :     -8.22267       1.93824      -5.86120
                        -----------------------------------------
Total Dipole Moment    :     -0.27828       0.02030       0.11873
                        -----------------------------------------
Magnitude (a.u.)       :      0.30323
Magnitude (Debye)      :      0.77075

Rotational constants in cm-1:     0.025788     0.007453     0.006115
Rotational constants in MHz :   773.106862   223.445950   183.316175

                             ****ORCA TERMINATED NORMALLY****
TOTAL RUN TIME: 0 days 0 hours 0 minutes 20 seconds 341 msec
