                         Program Version 4.2.1 -  RELEASE  -
|  1> ! wB97X-D3 SP def2-SVP
|  2> %pal
|  3> nprocs 24
|  4> end
|  5>
|  6> * xyz 0 1
|  7> S 	 -139.467 	 24.7057 	 -18.28
|  8> C 	 -140.416 	 23.3247 	 -17.8937
|  9> C 	 -139.855 	 22.5122 	 -16.9867
| 10> C 	 -138.525 	 22.8589 	 -16.7297
| 11> C 	 -138.172 	 24.0299 	 -17.3834
| 12> H 	 -137.844 	 22.3495 	 -16.0671
| 13> C 	 -140.506 	 21.3552 	 -16.3671
| 14> H 	 -140.064 	 20.4341 	 -16.7221
| 15> H 	 -141.448 	 21.2455 	 -16.8796
| 16> C 	 -140.81 	 21.3687 	 -14.8499
| 17> H 	 -141.402 	 20.4677 	 -14.5683
| 18> H 	 -139.892 	 21.3987 	 -14.2298
| 19> C 	 -141.656 	 22.614 	 -14.3781
| 20> H 	 -142.061 	 22.6772 	 -13.4066
| 21> H 	 -140.999 	 23.4971 	 -14.4439
| 22> H 	 -142.45 	 22.827 	 -15.0808
| 23> S 	 -136.99 	 26.0104 	 -15.9719
| 24> C 	 -135.257 	 25.9365 	 -15.8574
| 25> C 	 -134.668 	 24.9474 	 -16.6687
| 26> C 	 -135.645 	 24.1419 	 -17.3375
| 27> C 	 -136.894 	 24.6888 	 -17.1284
| 28> H 	 -133.607 	 24.9871 	 -16.8618
| 29> C 	 -135.333 	 22.9391 	 -18.2616
| 30> H 	 -134.618 	 23.1774 	 -19.0777
| 31> H 	 -136.288 	 22.5366 	 -18.7118
| 32> C 	 -134.751 	 21.7983 	 -17.5421
| 33> H 	 -135.444 	 21.5368 	 -16.7894
| 34> H 	 -133.776 	 22.0799 	 -17.1191
| 35> C 	 -134.373 	 20.6725 	 -18.5573
| 36> H 	 -133.887 	 21.1186 	 -19.4544
| 37> H 	 -135.241 	 20.1801 	 -18.8776
| 38> H 	 -133.721 	 19.8936 	 -18.0782
| 39> H 	 -141.399 	 23.2474 	 -18.2964
| 40> H 	 -134.538 	 26.6505 	 -15.4373
| 41> *
| 42>
| 43>                          ****END OF INPUT****

CARTESIAN COORDINATES (ANGSTROEM)
---------------------------------
  S    -139.467000   24.705700  -18.280000
  C    -140.416000   23.324700  -17.893700
  C    -139.855000   22.512200  -16.986700
  C    -138.525000   22.858900  -16.729700
  C    -138.172000   24.029900  -17.383400
  H    -137.844000   22.349500  -16.067100
  C    -140.506000   21.355200  -16.367100
  H    -140.064000   20.434100  -16.722100
  H    -141.448000   21.245500  -16.879600
  C    -140.810000   21.368700  -14.849900
  H    -141.402000   20.467700  -14.568300
  H    -139.892000   21.398700  -14.229800
  C    -141.656000   22.614000  -14.378100
  H    -142.061000   22.677200  -13.406600
  H    -140.999000   23.497100  -14.443900
  H    -142.450000   22.827000  -15.080800
  S    -136.990000   26.010400  -15.971900
  C    -135.257000   25.936500  -15.857400
  C    -134.668000   24.947400  -16.668700
  C    -135.645000   24.141900  -17.337500
  C    -136.894000   24.688800  -17.128400
  H    -133.607000   24.987100  -16.861800
  C    -135.333000   22.939100  -18.261600
  H    -134.618000   23.177400  -19.077700
  H    -136.288000   22.536600  -18.711800
  C    -134.751000   21.798300  -17.542100
  H    -135.444000   21.536800  -16.789400
  H    -133.776000   22.079900  -17.119100
  C    -134.373000   20.672500  -18.557300
  H    -133.887000   21.118600  -19.454400
  H    -135.241000   20.180100  -18.877600
  H    -133.721000   19.893600  -18.078200
  H    -141.399000   23.247400  -18.296400
  H    -134.538000   26.650500  -15.437300

 Total Charge           Charge          ....    0
 Multiplicity           Mult            ....    1
 Number of Electrons    NEL             ....  134
 Basis Dimension        Dim             ....  322

ORBITAL ENERGIES
----------------

  NO   OCC          E(Eh)            E(eV)
   0   2.0000     -88.969835     -2420.9923
   1   2.0000     -88.966567     -2420.9034
   2   2.0000     -10.321123      -280.8520
   3   2.0000     -10.320276      -280.8290
   4   2.0000     -10.316760      -280.7333
   5   2.0000     -10.303609      -280.3754
   6   2.0000     -10.303504      -280.3726
   7   2.0000     -10.296999      -280.1956
   8   2.0000     -10.294523      -280.1282
   9   2.0000     -10.293282      -280.0944
  10   2.0000     -10.289350      -279.9875
  11   2.0000     -10.287078      -279.9256
  12   2.0000     -10.286933      -279.9217
  13   2.0000     -10.280140      -279.7368
  14   2.0000     -10.278827      -279.7011
  15   2.0000     -10.272088      -279.5177
  16   2.0000      -8.084428      -219.9885
  17   2.0000      -8.082678      -219.9409
  18   2.0000      -6.042896      -164.4356
  19   2.0000      -6.040867      -164.3804
  20   2.0000      -6.039095      -164.3321
  21   2.0000      -6.037146      -164.2791
  22   2.0000      -6.035100      -164.2234
  23   2.0000      -6.033567      -164.1817
  24   2.0000      -1.015232       -27.6259
  25   2.0000      -0.987877       -26.8815
  26   2.0000      -0.916979       -24.9523
  27   2.0000      -0.912333       -24.8258
  28   2.0000      -0.865924       -23.5630
  29   2.0000      -0.852391       -23.1947
  30   2.0000      -0.848656       -23.0931
  31   2.0000      -0.810110       -22.0442
  32   2.0000      -0.784929       -21.3590
  33   2.0000      -0.772570       -21.0227
  34   2.0000      -0.707628       -19.2555
  35   2.0000      -0.695864       -18.9354
  36   2.0000      -0.689987       -18.7755
  37   2.0000      -0.658522       -17.9193
  38   2.0000      -0.645423       -17.5628
  39   2.0000      -0.623499       -16.9663
  40   2.0000      -0.595511       -16.2047
  41   2.0000      -0.579190       -15.7606
  42   2.0000      -0.564206       -15.3528
  43   2.0000      -0.550282       -14.9739
  44   2.0000      -0.539421       -14.6784
  45   2.0000      -0.521049       -14.1785
  46   2.0000      -0.514256       -13.9936
  47   2.0000      -0.510189       -13.8829
  48   2.0000      -0.500922       -13.6308
  49   2.0000      -0.489932       -13.3317
  50   2.0000      -0.485128       -13.2010
  51   2.0000      -0.479847       -13.0573
  52   2.0000      -0.468879       -12.7588
  53   2.0000      -0.457833       -12.4583
  54   2.0000      -0.457658       -12.4535
  55   2.0000      -0.453132       -12.3304
  56   2.0000      -0.449991       -12.2449
  57   2.0000      -0.444792       -12.1034
  58   2.0000      -0.439496       -11.9593
  59   2.0000      -0.427562       -11.6346
  60   2.0000      -0.419400       -11.4125
  61   2.0000      -0.414178       -11.2704
  62   2.0000      -0.412488       -11.2244
  63   2.0000      -0.340451        -9.2641
  64   2.0000      -0.332599        -9.0505
  65   2.0000      -0.329407        -8.9636
  66   2.0000      -0.298467        -8.1217
  67   0.0000       0.041043         1.1168
  68   0.0000       0.063543         1.7291
  69   0.0000       0.113145         3.0788
  70   0.0000       0.120801         3.2872
  71   0.0000       0.127533         3.4704

MULLIKEN ATOMIC CHARGES
-----------------------
   0 S :    0.124557
   1 C :   -0.122265
   2 C :   -0.067821
   3 C :    0.031608
   4 C :   -0.187151
   5 H :    0.011325
   6 C :    0.101658
   7 H :    0.029096
   8 H :   -0.007071
   9 C :   -0.080823
  10 H :    0.041199
  11 H :    0.039641
  12 C :   -0.056530
  13 H :    0.031475
  14 H :    0.033846
  15 H :    0.018552
  16 S :    0.128532
  17 C :   -0.094106
  18 C :   -0.055136
  19 C :   -0.009195
  20 C :   -0.157494
  21 H :    0.023562
  22 C :    0.045472
  23 H :    0.030602
  24 H :    0.037678
  25 C :   -0.082223
  26 H :    0.018768
  27 H :    0.026690
  28 C :   -0.038402
  29 H :    0.032468
  30 H :    0.018432
  31 H :    0.044418
  32 H :    0.031622
  33 H :    0.057013
Sum of atomic charges:    0.0000000

LOEWDIN ATOMIC CHARGES
----------------------
   0 S :    0.432590
   1 C :   -0.196060
   2 C :   -0.072155
   3 C :   -0.054543
   4 C :   -0.212584
   5 H :    0.029996
   6 C :   -0.035979
   7 H :    0.034616
   8 H :    0.028796
   9 C :   -0.035686
  10 H :    0.029329
  11 H :    0.024593
  12 C :   -0.069501
  13 H :    0.020379
  14 H :    0.029444
  15 H :    0.020395
  16 S :    0.412939
  17 C :   -0.199511
  18 C :   -0.067852
  19 C :   -0.052186
  20 C :   -0.196287
  21 H :    0.030078
  22 C :   -0.032979
  23 H :    0.031675
  24 H :    0.036411
  25 C :   -0.040246
  26 H :    0.016441
  27 H :    0.022409
  28 C :   -0.061657
  29 H :    0.029085
  30 H :    0.014645
  31 H :    0.031760
  32 H :    0.018943
  33 H :    0.032702

  Mayer bond orders larger than 0.100000
B(  0-S ,  1-C ) :   1.1451 B(  0-S ,  4-C ) :   1.1745 B(  1-C ,  2-C ) :   1.6071
B(  1-C , 32-H ) :   0.9680 B(  2-C ,  3-C ) :   1.2445 B(  2-C ,  6-C ) :   1.0348
B(  3-C ,  4-C ) :   1.5508 B(  3-C ,  5-H ) :   1.0040 B(  4-C , 20-C ) :   0.9917
B(  6-C ,  7-H ) :   0.9319 B(  6-C ,  8-H ) :   0.9241 B(  6-C ,  9-C ) :   1.0628
B(  9-C , 10-H ) :   0.9590 B(  9-C , 11-H ) :   0.9619 B(  9-C , 12-C ) :   1.0608
B( 12-C , 13-H ) :   0.9791 B( 12-C , 14-H ) :   0.9733 B( 12-C , 15-H ) :   0.9780
B( 16-S , 17-C ) :   1.1485 B( 16-S , 20-C ) :   1.1462 B( 17-C , 18-C ) :   1.6436
B( 17-C , 33-H ) :   0.9577 B( 18-C , 19-C ) :   1.2123 B( 18-C , 21-H ) :   0.9832
B( 19-C , 20-C ) :   1.6352 B( 19-C , 22-C ) :   1.0336 B( 22-C , 23-H ) :   0.9389
B( 22-C , 24-H ) :   0.9359 B( 22-C , 25-C ) :   1.0653 B( 25-C , 26-H ) :   0.9549
B( 25-C , 27-H ) :   0.9552 B( 25-C , 28-C ) :   1.0771 B( 28-C , 29-H ) :   0.9708
B( 28-C , 30-H ) :   0.9748 B( 28-C , 31-H ) :   0.9759

Dispersion correction           -0.014794145
FINAL SINGLE POINT ENERGY     -1339.870987142405

DIPOLE MOMENT
-------------
                                X             Y             Z
Electronic contribution:     -1.38926      22.71421      -3.96632
Nuclear contribution   :      1.48127     -23.17756       4.02241
                        -----------------------------------------
Total Dipole Moment    :      0.09201      -0.46335       0.05609
                        -----------------------------------------
Magnitude (a.u.)       :      0.47572
Magnitude (Debye)      :      1.20918

Rotational constants in cm-1:     0.017003     0.009318     0.007642
Rotational constants in MHz :   509.749194   279.361283   229.108801

                             ****ORCA TERMINATED NORMALLY****
TOTAL RUN TIME: 0 days 0 hours 0 minutes 22 seconds 64 msec
