                         Program Version 4.2.1 -  RELEASE  -
|  1> ! wB97X-D3 SP def2-SVP
|  2> %pal
|  3> nprocs 24
|  4> end
|  5>
|  6> * xyz 0 1
|  7> S 	 -67.9477 	 -41.7721 	 -95.5177
|  8> C 	 -67.7929 	 -40.0277 	 -95.482
|  9> C 	 -68.8898 	 -39.4596 	 -96.1361
| 10> C 	 -69.8228 	 -40.4202 	 -96.663
| 11> C 	 -69.3345 	 -41.7392 	 -96.5322
| 12> H 	 -70.8206 	 -40.199 	 -97.1677
| 13> C 	 -69.0164 	 -37.9927 	 -96.4763
| 14> H 	 -69.4914 	 -37.3993 	 -95.6322
| 15> H 	 -69.5101 	 -37.8718 	 -97.4289
| 16> C 	 -67.6924 	 -37.1822 	 -96.6521
| 17> H 	 -68.1052 	 -36.1581 	 -96.7303
| 18> H 	 -67.0211 	 -37.1946 	 -95.7715
| 19> C 	 -66.8866 	 -37.6611 	 -97.8316
| 20> H 	 -67.4048 	 -37.4924 	 -98.8318
| 21> H 	 -65.8852 	 -37.2237 	 -97.7732
| 22> H 	 -66.7337 	 -38.7869 	 -97.8786
| 23> S 	 -69.085 	 -43.8738 	 -98.1071
| 24> C 	 -70.3353 	 -45.0402 	 -98.0741
| 25> C 	 -71.4693 	 -44.6196 	 -97.5054
| 26> C 	 -71.2837 	 -43.3993 	 -96.7733
| 27> C 	 -69.9998 	 -42.9272 	 -97.0101
| 28> H 	 -72.34 	 -45.325 	 -97.5739
| 29> C 	 -72.443 	 -42.6309 	 -96.1371
| 30> H 	 -72.6723 	 -41.756 	 -96.7226
| 31> H 	 -72.0858 	 -42.1855 	 -95.1639
| 32> C 	 -73.6918 	 -43.3683 	 -95.7039
| 33> H 	 -73.4539 	 -44.0671 	 -94.8626
| 34> H 	 -74.0492 	 -44.0752 	 -96.4571
| 35> C 	 -74.8687 	 -42.4986 	 -95.2066
| 36> H 	 -74.9768 	 -41.5512 	 -95.7984
| 37> H 	 -74.6069 	 -42.1195 	 -94.2241
| 38> H 	 -75.8171 	 -43.0831 	 -95.2187
| 39> H 	 -67.1001 	 -39.374 	 -95.0049
| 40> H 	 -70.3164 	 -46.0363 	 -98.58
| 41> *
| 42>
| 43>                          ****END OF INPUT****

CARTESIAN COORDINATES (ANGSTROEM)
---------------------------------
  S    -67.947700  -41.772100  -95.517700
  C    -67.792900  -40.027700  -95.482000
  C    -68.889800  -39.459600  -96.136100
  C    -69.822800  -40.420200  -96.663000
  C    -69.334500  -41.739200  -96.532200
  H    -70.820600  -40.199000  -97.167700
  C    -69.016400  -37.992700  -96.476300
  H    -69.491400  -37.399300  -95.632200
  H    -69.510100  -37.871800  -97.428900
  C    -67.692400  -37.182200  -96.652100
  H    -68.105200  -36.158100  -96.730300
  H    -67.021100  -37.194600  -95.771500
  C    -66.886600  -37.661100  -97.831600
  H    -67.404800  -37.492400  -98.831800
  H    -65.885200  -37.223700  -97.773200
  H    -66.733700  -38.786900  -97.878600
  S    -69.085000  -43.873800  -98.107100
  C    -70.335300  -45.040200  -98.074100
  C    -71.469300  -44.619600  -97.505400
  C    -71.283700  -43.399300  -96.773300
  C    -69.999800  -42.927200  -97.010100
  H    -72.340000  -45.325000  -97.573900
  C    -72.443000  -42.630900  -96.137100
  H    -72.672300  -41.756000  -96.722600
  H    -72.085800  -42.185500  -95.163900
  C    -73.691800  -43.368300  -95.703900
  H    -73.453900  -44.067100  -94.862600
  H    -74.049200  -44.075200  -96.457100
  C    -74.868700  -42.498600  -95.206600
  H    -74.976800  -41.551200  -95.798400
  H    -74.606900  -42.119500  -94.224100
  H    -75.817100  -43.083100  -95.218700
  H    -67.100100  -39.374000  -95.004900
  H    -70.316400  -46.036300  -98.580000

 Total Charge           Charge          ....    0
 Multiplicity           Mult            ....    1
 Number of Electrons    NEL             ....  134
 Basis Dimension        Dim             ....  322

ORBITAL ENERGIES
----------------

  NO   OCC          E(Eh)            E(eV)
   0   2.0000     -88.968797     -2420.9641
   1   2.0000     -88.965016     -2420.8612
   2   2.0000     -10.325994      -280.9846
   3   2.0000     -10.320131      -280.8251
   4   2.0000     -10.311947      -280.6023
   5   2.0000     -10.308452      -280.5072
   6   2.0000     -10.306522      -280.4547
   7   2.0000     -10.300435      -280.2891
   8   2.0000     -10.300092      -280.2797
   9   2.0000     -10.295597      -280.1574
  10   2.0000     -10.294260      -280.1211
  11   2.0000     -10.290806      -280.0271
  12   2.0000     -10.290587      -280.0211
  13   2.0000     -10.288812      -279.9728
  14   2.0000     -10.286121      -279.8996
  15   2.0000     -10.281393      -279.7709
  16   2.0000      -8.083420      -219.9610
  17   2.0000      -8.081433      -219.9070
  18   2.0000      -6.041922      -164.4090
  19   2.0000      -6.039696      -164.3485
  20   2.0000      -6.037791      -164.2967
  21   2.0000      -6.035855      -164.2440
  22   2.0000      -6.034329      -164.2024
  23   2.0000      -6.032202      -164.1446
  24   2.0000      -1.014827       -27.6148
  25   2.0000      -0.987376       -26.8679
  26   2.0000      -0.911755       -24.8101
  27   2.0000      -0.908938       -24.7335
  28   2.0000      -0.870019       -23.6744
  29   2.0000      -0.852723       -23.2038
  30   2.0000      -0.843997       -22.9663
  31   2.0000      -0.810443       -22.0533
  32   2.0000      -0.781511       -21.2660
  33   2.0000      -0.772166       -21.0117
  34   2.0000      -0.705766       -19.2049
  35   2.0000      -0.699994       -19.0478
  36   2.0000      -0.691780       -18.8243
  37   2.0000      -0.647647       -17.6234
  38   2.0000      -0.630521       -17.1573
  39   2.0000      -0.611815       -16.6483
  40   2.0000      -0.596268       -16.2253
  41   2.0000      -0.578384       -15.7386
  42   2.0000      -0.562248       -15.2995
  43   2.0000      -0.550750       -14.9867
  44   2.0000      -0.533869       -14.5273
  45   2.0000      -0.523974       -14.2581
  46   2.0000      -0.515499       -14.0275
  47   2.0000      -0.509951       -13.8765
  48   2.0000      -0.505669       -13.7600
  49   2.0000      -0.498288       -13.5591
  50   2.0000      -0.483004       -13.1432
  51   2.0000      -0.476153       -12.9568
  52   2.0000      -0.472750       -12.8642
  53   2.0000      -0.469274       -12.7696
  54   2.0000      -0.460488       -12.5305
  55   2.0000      -0.456450       -12.4206
  56   2.0000      -0.441111       -12.0032
  57   2.0000      -0.433982       -11.8093
  58   2.0000      -0.431663       -11.7462
  59   2.0000      -0.428655       -11.6643
  60   2.0000      -0.415018       -11.2932
  61   2.0000      -0.409110       -11.1324
  62   2.0000      -0.406952       -11.0737
  63   2.0000      -0.340855        -9.2751
  64   2.0000      -0.330238        -8.9862
  65   2.0000      -0.325834        -8.8664
  66   2.0000      -0.296125        -8.0580
  67   0.0000       0.033363         0.9079
  68   0.0000       0.071528         1.9464
  69   0.0000       0.114042         3.1032
  70   0.0000       0.119989         3.2651
  71   0.0000       0.127895         3.4802

MULLIKEN ATOMIC CHARGES
-----------------------
   0 S :    0.138296
   1 C :   -0.091103
   2 C :   -0.098798
   3 C :    0.000195
   4 C :   -0.162912
   5 H :    0.041934
   6 C :    0.041060
   7 H :    0.049743
   8 H :    0.029198
   9 C :   -0.100118
  10 H :    0.037119
  11 H :    0.027625
  12 C :   -0.085416
  13 H :    0.036615
  14 H :    0.040710
  15 H :    0.052053
  16 S :    0.135231
  17 C :   -0.099925
  18 C :   -0.071990
  19 C :    0.018652
  20 C :   -0.197252
  21 H :    0.039592
  22 C :    0.048036
  23 H :    0.033966
  24 H :    0.033794
  25 C :   -0.104572
  26 H :    0.034821
  27 H :    0.023529
  28 C :   -0.051175
  29 H :    0.030694
  30 H :    0.029105
  31 H :    0.051782
  32 H :    0.030268
  33 H :    0.059242
Sum of atomic charges:    0.0000000

LOEWDIN ATOMIC CHARGES
----------------------
   0 S :    0.432189
   1 C :   -0.206312
   2 C :   -0.067788
   3 C :   -0.069685
   4 C :   -0.215540
   5 H :    0.043034
   6 C :   -0.036937
   7 H :    0.041707
   8 H :    0.029080
   9 C :   -0.048978
  10 H :    0.030256
  11 H :    0.020903
  12 C :   -0.082585
  13 H :    0.030119
  14 H :    0.026616
  15 H :    0.035417
  16 S :    0.438444
  17 C :   -0.204022
  18 C :   -0.083232
  19 C :   -0.049088
  20 C :   -0.214424
  21 H :    0.042129
  22 C :   -0.037837
  23 H :    0.027430
  24 H :    0.042051
  25 C :   -0.051668
  26 H :    0.030471
  27 H :    0.016287
  28 C :   -0.066307
  29 H :    0.027016
  30 H :    0.023423
  31 H :    0.035296
  32 H :    0.025870
  33 H :    0.036665

  Mayer bond orders larger than 0.100000
B(  0-S ,  1-C ) :   1.1320 B(  0-S ,  4-C ) :   1.1803 B(  1-C ,  2-C ) :   1.5963
B(  1-C ,  4-C ) :   0.1019 B(  1-C , 32-H ) :   0.9680 B(  2-C ,  3-C ) :   1.2627
B(  2-C ,  6-C ) :   1.0226 B(  3-C ,  4-C ) :   1.5365 B(  3-C ,  5-H ) :   0.9840
B(  4-C , 20-C ) :   1.0351 B(  6-C ,  7-H ) :   0.9310 B(  6-C ,  8-H ) :   0.9539
B(  6-C ,  9-C ) :   1.0746 B(  9-C , 10-H ) :   0.9550 B(  9-C , 11-H ) :   0.9531
B(  9-C , 12-C ) :   1.0738 B( 12-C , 13-H ) :   0.9718 B( 12-C , 14-H ) :   0.9750
B( 12-C , 15-H ) :   0.9723 B( 16-S , 17-C ) :   1.1500 B( 16-S , 20-C ) :   1.1669
B( 17-C , 18-C ) :   1.6583 B( 17-C , 33-H ) :   0.9548 B( 18-C , 19-C ) :   1.2147
B( 18-C , 21-H ) :   0.9760 B( 19-C , 20-C ) :   1.5990 B( 19-C , 22-C ) :   1.0402
B( 22-C , 23-H ) :   0.9385 B( 22-C , 24-H ) :   0.9258 B( 22-C , 25-C ) :   1.0660
B( 25-C , 26-H ) :   0.9555 B( 25-C , 27-H ) :   0.9523 B( 25-C , 28-C ) :   1.0774
B( 28-C , 29-H ) :   0.9760 B( 28-C , 30-H ) :   0.9751 B( 28-C , 31-H ) :   0.9737

Dispersion correction           -0.013980677
FINAL SINGLE POINT ENERGY     -1339.868554462815

DIPOLE MOMENT
-------------
                                X             Y             Z
Electronic contribution:     13.94122     -16.97045      -2.49441
Nuclear contribution   :    -14.41742      17.28091       2.47616
                        -----------------------------------------
Total Dipole Moment    :     -0.47620       0.31046      -0.01825
                        -----------------------------------------
Magnitude (a.u.)       :      0.56875
Magnitude (Debye)      :      1.44565

Rotational constants in cm-1:     0.019797     0.007861     0.006350
Rotational constants in MHz :   593.492141   235.661567   190.378628

                             ****ORCA TERMINATED NORMALLY****
TOTAL RUN TIME: 0 days 0 hours 0 minutes 21 seconds 161 msec
