                         Program Version 4.2.1 -  RELEASE  -
|  1> ! wB97X-D3 SP def2-SVP
|  2> %pal
|  3> nprocs 24
|  4> end
|  5>
|  6> * xyz 0 1
|  7> S 	 -112.79 	 60.8069 	 -71.0269
|  8> C 	 -111.981 	 59.2428 	 -70.6497
|  9> C 	 -111.984 	 58.9836 	 -69.3219
| 10> C 	 -112.475 	 60.0723 	 -68.5185
| 11> C 	 -112.936 	 61.1523 	 -69.3229
| 12> H 	 -112.414 	 60.0428 	 -67.4325
| 13> C 	 -111.438 	 57.7348 	 -68.6397
| 14> H 	 -111.984 	 56.8097 	 -68.8413
| 15> H 	 -111.523 	 57.9106 	 -67.5505
| 16> C 	 -109.961 	 57.5422 	 -68.8201
| 17> H 	 -109.552 	 56.4628 	 -68.7485
| 18> H 	 -109.742 	 57.8781 	 -69.8319
| 19> C 	 -109.263 	 58.5062 	 -67.9266
| 20> H 	 -109.709 	 59.5297 	 -67.8917
| 21> H 	 -109.239 	 58.1829 	 -66.9154
| 22> H 	 -108.191 	 58.4759 	 -68.1995
| 23> S 	 -112.257 	 63.7392 	 -68.7693
| 24> C 	 -113.46 	 64.7736 	 -67.9716
| 25> C 	 -114.564 	 64.0644 	 -67.5727
| 26> C 	 -114.574 	 62.7147 	 -68.0565
| 27> C 	 -113.434 	 62.4392 	 -68.8285
| 28> H 	 -115.412 	 64.4928 	 -66.9939
| 29> C 	 -115.796 	 61.7698 	 -67.661
| 30> H 	 -116.072 	 61.8084 	 -66.5565
| 31> H 	 -115.613 	 60.7129 	 -68.045
| 32> C 	 -117.214 	 62.0982 	 -68.2079
| 33> H 	 -117.406 	 63.1079 	 -67.9926
| 34> H 	 -117.941 	 61.4422 	 -67.7868
| 35> C 	 -117.324 	 62.1209 	 -69.7757
| 36> H 	 -116.73 	 61.2079 	 -70.1431
| 37> H 	 -116.819 	 63.0568 	 -70.1204
| 38> H 	 -118.385 	 62.1099 	 -70.0609
| 39> H 	 -111.505 	 58.4871 	 -71.2838
| 40> H 	 -113.253 	 65.7794 	 -67.6908
| 41> *
| 42>
| 43>                          ****END OF INPUT****

CARTESIAN COORDINATES (ANGSTROEM)
---------------------------------
  S    -112.790000   60.806900  -71.026900
  C    -111.981000   59.242800  -70.649700
  C    -111.984000   58.983600  -69.321900
  C    -112.475000   60.072300  -68.518500
  C    -112.936000   61.152300  -69.322900
  H    -112.414000   60.042800  -67.432500
  C    -111.438000   57.734800  -68.639700
  H    -111.984000   56.809700  -68.841300
  H    -111.523000   57.910600  -67.550500
  C    -109.961000   57.542200  -68.820100
  H    -109.552000   56.462800  -68.748500
  H    -109.742000   57.878100  -69.831900
  C    -109.263000   58.506200  -67.926600
  H    -109.709000   59.529700  -67.891700
  H    -109.239000   58.182900  -66.915400
  H    -108.191000   58.475900  -68.199500
  S    -112.257000   63.739200  -68.769300
  C    -113.460000   64.773600  -67.971600
  C    -114.564000   64.064400  -67.572700
  C    -114.574000   62.714700  -68.056500
  C    -113.434000   62.439200  -68.828500
  H    -115.412000   64.492800  -66.993900
  C    -115.796000   61.769800  -67.661000
  H    -116.072000   61.808400  -66.556500
  H    -115.613000   60.712900  -68.045000
  C    -117.214000   62.098200  -68.207900
  H    -117.406000   63.107900  -67.992600
  H    -117.941000   61.442200  -67.786800
  C    -117.324000   62.120900  -69.775700
  H    -116.730000   61.207900  -70.143100
  H    -116.819000   63.056800  -70.120400
  H    -118.385000   62.109900  -70.060900
  H    -111.505000   58.487100  -71.283800
  H    -113.253000   65.779400  -67.690800

 Total Charge           Charge          ....    0
 Multiplicity           Mult            ....    1
 Number of Electrons    NEL             ....  134
 Basis Dimension        Dim             ....  322

ORBITAL ENERGIES
----------------

  NO   OCC          E(Eh)            E(eV)
   0   2.0000     -88.972435     -2421.0630
   1   2.0000     -88.968640     -2420.9598
   2   2.0000     -10.334498      -281.2160
   3   2.0000     -10.330906      -281.1183
   4   2.0000     -10.319942      -280.8199
   5   2.0000     -10.315235      -280.6918
   6   2.0000     -10.314462      -280.6708
   7   2.0000     -10.307798      -280.4895
   8   2.0000     -10.300150      -280.2813
   9   2.0000     -10.299386      -280.2605
  10   2.0000     -10.297999      -280.2228
  11   2.0000     -10.289922      -280.0030
  12   2.0000     -10.285668      -279.8873
  13   2.0000     -10.280844      -279.7560
  14   2.0000     -10.279766      -279.7267
  15   2.0000     -10.272151      -279.5194
  16   2.0000      -8.085984      -220.0308
  17   2.0000      -8.083003      -219.9497
  18   2.0000      -6.044632      -164.4828
  19   2.0000      -6.041525      -164.3982
  20   2.0000      -6.040660      -164.3747
  21   2.0000      -6.037685      -164.2937
  22   2.0000      -6.036653      -164.2657
  23   2.0000      -6.033644      -164.1838
  24   2.0000      -1.002227       -27.2720
  25   2.0000      -0.980656       -26.6850
  26   2.0000      -0.922355       -25.0986
  27   2.0000      -0.898617       -24.4526
  28   2.0000      -0.869030       -23.6475
  29   2.0000      -0.844617       -22.9832
  30   2.0000      -0.842537       -22.9266
  31   2.0000      -0.807135       -21.9633
  32   2.0000      -0.780126       -21.2283
  33   2.0000      -0.770066       -20.9546
  34   2.0000      -0.708874       -19.2894
  35   2.0000      -0.694157       -18.8890
  36   2.0000      -0.683779       -18.6066
  37   2.0000      -0.657775       -17.8990
  38   2.0000      -0.631152       -17.1745
  39   2.0000      -0.613443       -16.6926
  40   2.0000      -0.598014       -16.2728
  41   2.0000      -0.574278       -15.6269
  42   2.0000      -0.562579       -15.3086
  43   2.0000      -0.549444       -14.9511
  44   2.0000      -0.540197       -14.6995
  45   2.0000      -0.533962       -14.5299
  46   2.0000      -0.511417       -13.9164
  47   2.0000      -0.506834       -13.7917
  48   2.0000      -0.497782       -13.5453
  49   2.0000      -0.494178       -13.4473
  50   2.0000      -0.487455       -13.2643
  51   2.0000      -0.475366       -12.9354
  52   2.0000      -0.467047       -12.7090
  53   2.0000      -0.463276       -12.6064
  54   2.0000      -0.456041       -12.4095
  55   2.0000      -0.448931       -12.2160
  56   2.0000      -0.440997       -12.0002
  57   2.0000      -0.433593       -11.7987
  58   2.0000      -0.430286       -11.7087
  59   2.0000      -0.424289       -11.5455
  60   2.0000      -0.416244       -11.3266
  61   2.0000      -0.409734       -11.1494
  62   2.0000      -0.407538       -11.0897
  63   2.0000      -0.340094        -9.2544
  64   2.0000      -0.333241        -9.0679
  65   2.0000      -0.322153        -8.7662
  66   2.0000      -0.308278        -8.3887
  67   0.0000       0.033081         0.9002
  68   0.0000       0.055269         1.5040
  69   0.0000       0.103101         2.8055
  70   0.0000       0.107713         2.9310
  71   0.0000       0.127322         3.4646

MULLIKEN ATOMIC CHARGES
-----------------------
   0 S :    0.127636
   1 C :   -0.116916
   2 C :   -0.115207
   3 C :    0.058509
   4 C :   -0.186850
   5 H :    0.021920
   6 C :    0.065730
   7 H :    0.040847
   8 H :    0.011194
   9 C :   -0.072292
  10 H :    0.043912
  11 H :    0.015337
  12 C :   -0.068107
  13 H :    0.052276
  14 H :    0.015665
  15 H :    0.031296
  16 S :    0.113451
  17 C :   -0.080077
  18 C :   -0.045957
  19 C :    0.007019
  20 C :   -0.176189
  21 H :    0.039690
  22 C :    0.005204
  23 H :    0.052487
  24 H :    0.047283
  25 C :   -0.067307
  26 H :    0.009354
  27 H :    0.034502
  28 C :   -0.095902
  29 H :    0.040518
  30 H :    0.048863
  31 H :    0.044444
  32 H :    0.048253
  33 H :    0.049413
Sum of atomic charges:   -0.0000000

LOEWDIN ATOMIC CHARGES
----------------------
   0 S :    0.401980
   1 C :   -0.190045
   2 C :   -0.066363
   3 C :   -0.056003
   4 C :   -0.203752
   5 H :    0.033043
   6 C :   -0.033816
   7 H :    0.032122
   8 H :    0.028501
   9 C :   -0.050788
  10 H :    0.034279
  11 H :    0.018598
  12 C :   -0.069968
  13 H :    0.034896
  14 H :    0.016427
  15 H :    0.029380
  16 S :    0.402421
  17 C :   -0.169081
  18 C :   -0.074048
  19 C :   -0.050361
  20 C :   -0.207888
  21 H :    0.039267
  22 C :   -0.037940
  23 H :    0.043660
  24 H :    0.035411
  25 C :   -0.042142
  26 H :    0.011730
  27 H :    0.020874
  28 C :   -0.073712
  29 H :    0.029344
  30 H :    0.030149
  31 H :    0.025953
  32 H :    0.035083
  33 H :    0.022788

  Mayer bond orders larger than 0.100000
B(  0-S ,  1-C ) :   1.1152 B(  0-S ,  4-C ) :   1.1633 B(  1-C ,  2-C ) :   1.6565
B(  1-C , 32-H ) :   0.9565 B(  2-C ,  3-C ) :   1.2374 B(  2-C ,  6-C ) :   1.0144
B(  3-C ,  4-C ) :   1.5618 B(  3-C ,  5-H ) :   0.9892 B(  4-C , 20-C ) :   1.0073
B(  6-C ,  7-H ) :   0.9377 B(  6-C ,  8-H ) :   0.9479 B(  6-C ,  9-C ) :   1.0598
B(  9-C , 10-H ) :   0.9514 B(  9-C , 11-H ) :   0.9588 B(  9-C , 12-C ) :   1.0784
B( 12-C , 13-H ) :   0.9736 B( 12-C , 14-H ) :   0.9690 B( 12-C , 15-H ) :   0.9693
B( 16-S , 17-C ) :   1.1459 B( 16-S , 20-C ) :   1.1537 B( 17-C , 18-C ) :   1.6181
B( 17-C , 33-H ) :   0.9722 B( 18-C , 19-C ) :   1.2348 B( 18-C , 21-H ) :   0.9807
B( 19-C , 20-C ) :   1.6096 B( 19-C , 22-C ) :   1.0240 B( 22-C , 23-H ) :   0.9468
B( 22-C , 24-H ) :   0.9403 B( 22-C , 25-C ) :   1.0665 B( 25-C , 26-H ) :   0.9570
B( 25-C , 27-H ) :   0.9603 B( 25-C , 28-C ) :   1.0618 B( 28-C , 29-H ) :   0.9785
B( 28-C , 30-H ) :   0.9771 B( 28-C , 31-H ) :   0.9765

Dispersion correction           -0.014648141
FINAL SINGLE POINT ENERGY     -1339.857272911181

DIPOLE MOMENT
-------------
                                X             Y             Z
Electronic contribution:      4.90379      13.81874      -8.19626
Nuclear contribution   :     -5.04557     -14.06732       8.73695
                        -----------------------------------------
Total Dipole Moment    :     -0.14178      -0.24858       0.54070
                        -----------------------------------------
Magnitude (a.u.)       :      0.61176
Magnitude (Debye)      :      1.55496

Rotational constants in cm-1:     0.020743     0.008036     0.007148
Rotational constants in MHz :   621.856731   240.920598   214.291711

                             ****ORCA TERMINATED NORMALLY****
TOTAL RUN TIME: 0 days 0 hours 0 minutes 21 seconds 892 msec
