                         Program Version 4.2.1 -  RELEASE  -
|  1> ! wB97X-D3 SP def2-SVP
|  2> %pal
|  3> nprocs 24
|  4> end
|  5>
|  6> * xyz 0 1
|  7> S 	 -46.2626 	 14.0581 	 28.8792
|  8> C 	 -47.7975 	 13.3455 	 29.2725
|  9> C 	 -48.1531 	 13.6637 	 30.5845
| 10> C 	 -47.0527 	 14.2402 	 31.3302
| 11> C 	 -45.9304 	 14.5161 	 30.5881
| 12> H 	 -47.1384 	 14.4914 	 32.3267
| 13> C 	 -49.5065 	 13.2923 	 31.3135
| 14> H 	 -50.1492 	 13.9328 	 30.7992
| 15> H 	 -49.5485 	 13.5605 	 32.3655
| 16> C 	 -50.1528 	 11.8521 	 31.1561
| 17> H 	 -50.936 	 11.6294 	 31.8443
| 18> H 	 -50.5252 	 11.9248 	 30.1103
| 19> C 	 -49.0291 	 10.8091 	 31.3424
| 20> H 	 -48.062 	 11.0517 	 30.8403
| 21> H 	 -48.8044 	 10.7399 	 32.4391
| 22> H 	 -49.4133 	 9.89796 	 31.0261
| 23> S 	 -43.2461 	 14.2086 	 30.8936
| 24> C 	 -42.3748 	 15.4026 	 31.7642
| 25> C 	 -43.1046 	 16.5449 	 32.0882
| 26> C 	 -44.4866 	 16.3704 	 31.7237
| 27> C 	 -44.7113 	 15.1676 	 31.0425
| 28> H 	 -42.5502 	 17.3379 	 32.6142
| 29> C 	 -45.5412 	 17.4763 	 31.8567
| 30> H 	 -45.4075 	 17.8765 	 32.8886
| 31> H 	 -46.5309 	 17.0136 	 31.8191
| 32> C 	 -45.4143 	 18.5274 	 30.7883
| 33> H 	 -44.4163 	 18.9495 	 30.8625
| 34> H 	 -46.2458 	 19.1778 	 31.0458
| 35> C 	 -45.7027 	 17.9276 	 29.3879
| 36> H 	 -45.0841 	 17.0669 	 29.1637
| 37> H 	 -45.6095 	 18.6834 	 28.633
| 38> H 	 -46.7198 	 17.4323 	 29.2992
| 39> H 	 -48.3627 	 12.903 	 28.4914
| 40> H 	 -41.2942 	 15.3573 	 31.8344
| 41> *
| 42>
| 43>                          ****END OF INPUT****

CARTESIAN COORDINATES (ANGSTROEM)
---------------------------------
  S    -46.262600   14.058100   28.879200
  C    -47.797500   13.345500   29.272500
  C    -48.153100   13.663700   30.584500
  C    -47.052700   14.240200   31.330200
  C    -45.930400   14.516100   30.588100
  H    -47.138400   14.491400   32.326700
  C    -49.506500   13.292300   31.313500
  H    -50.149200   13.932800   30.799200
  H    -49.548500   13.560500   32.365500
  C    -50.152800   11.852100   31.156100
  H    -50.936000   11.629400   31.844300
  H    -50.525200   11.924800   30.110300
  C    -49.029100   10.809100   31.342400
  H    -48.062000   11.051700   30.840300
  H    -48.804400   10.739900   32.439100
  H    -49.413300    9.897960   31.026100
  S    -43.246100   14.208600   30.893600
  C    -42.374800   15.402600   31.764200
  C    -43.104600   16.544900   32.088200
  C    -44.486600   16.370400   31.723700
  C    -44.711300   15.167600   31.042500
  H    -42.550200   17.337900   32.614200
  C    -45.541200   17.476300   31.856700
  H    -45.407500   17.876500   32.888600
  H    -46.530900   17.013600   31.819100
  C    -45.414300   18.527400   30.788300
  H    -44.416300   18.949500   30.862500
  H    -46.245800   19.177800   31.045800
  C    -45.702700   17.927600   29.387900
  H    -45.084100   17.066900   29.163700
  H    -45.609500   18.683400   28.633000
  H    -46.719800   17.432300   29.299200
  H    -48.362700   12.903000   28.491400
  H    -41.294200   15.357300   31.834400

 Total Charge           Charge          ....    0
 Multiplicity           Mult            ....    1
 Number of Electrons    NEL             ....  134
 Basis Dimension        Dim             ....  322

ORBITAL ENERGIES
----------------

  NO   OCC          E(Eh)            E(eV)
   0   2.0000     -88.965672     -2420.8790
   1   2.0000     -88.964455     -2420.8459
   2   2.0000     -10.331703      -281.1399
   3   2.0000     -10.325685      -280.9762
   4   2.0000     -10.316680      -280.7311
   5   2.0000     -10.316592      -280.7287
   6   2.0000     -10.311101      -280.5793
   7   2.0000     -10.308810      -280.5170
   8   2.0000     -10.299866      -280.2736
   9   2.0000     -10.291065      -280.0341
  10   2.0000     -10.290593      -280.0213
  11   2.0000     -10.290447      -280.0173
  12   2.0000     -10.289923      -280.0031
  13   2.0000     -10.283915      -279.8396
  14   2.0000     -10.271239      -279.4946
  15   2.0000     -10.271133      -279.4917
  16   2.0000      -8.081100      -219.8979
  17   2.0000      -8.078666      -219.8317
  18   2.0000      -6.039364      -164.3394
  19   2.0000      -6.037231      -164.2814
  20   2.0000      -6.035519      -164.2348
  21   2.0000      -6.033196      -164.1716
  22   2.0000      -6.032067      -164.1409
  23   2.0000      -6.029447      -164.0696
  24   2.0000      -1.004037       -27.3212
  25   2.0000      -0.981485       -26.7076
  26   2.0000      -0.912301       -24.8250
  27   2.0000      -0.901304       -24.5257
  28   2.0000      -0.868574       -23.6351
  29   2.0000      -0.847162       -23.0524
  30   2.0000      -0.840948       -22.8834
  31   2.0000      -0.809963       -22.0402
  32   2.0000      -0.781977       -21.2787
  33   2.0000      -0.771033       -20.9809
  34   2.0000      -0.703745       -19.1499
  35   2.0000      -0.697304       -18.9746
  36   2.0000      -0.689965       -18.7749
  37   2.0000      -0.657754       -17.8984
  38   2.0000      -0.647540       -17.6205
  39   2.0000      -0.615392       -16.7457
  40   2.0000      -0.596199       -16.2234
  41   2.0000      -0.572677       -15.5833
  42   2.0000      -0.553775       -15.0690
  43   2.0000      -0.547638       -14.9020
  44   2.0000      -0.545885       -14.8543
  45   2.0000      -0.538768       -14.6606
  46   2.0000      -0.514725       -14.0064
  47   2.0000      -0.509089       -13.8530
  48   2.0000      -0.499991       -13.6054
  49   2.0000      -0.493967       -13.4415
  50   2.0000      -0.488005       -13.2793
  51   2.0000      -0.479227       -13.0404
  52   2.0000      -0.470892       -12.8136
  53   2.0000      -0.460643       -12.5347
  54   2.0000      -0.454044       -12.3552
  55   2.0000      -0.447537       -12.1781
  56   2.0000      -0.442995       -12.0545
  57   2.0000      -0.435508       -11.8508
  58   2.0000      -0.429215       -11.6795
  59   2.0000      -0.426411       -11.6032
  60   2.0000      -0.416529       -11.3343
  61   2.0000      -0.409188       -11.1346
  62   2.0000      -0.406137       -11.0516
  63   2.0000      -0.343384        -9.3439
  64   2.0000      -0.332450        -9.0464
  65   2.0000      -0.326188        -8.8760
  66   2.0000      -0.296991        -8.0815
  67   0.0000       0.030687         0.8350
  68   0.0000       0.063960         1.7404
  69   0.0000       0.109691         2.9849
  70   0.0000       0.121922         3.3177
  71   0.0000       0.125187         3.4065

MULLIKEN ATOMIC CHARGES
-----------------------
   0 S :    0.093757
   1 C :   -0.120202
   2 C :   -0.106598
   3 C :    0.073879
   4 C :   -0.145867
   5 H :   -0.014946
   6 C :    0.073333
   7 H :    0.020819
   8 H :    0.023652
   9 C :   -0.083306
  10 H :    0.036489
  11 H :    0.030795
  12 C :   -0.051787
  13 H :    0.057918
  14 H :    0.030303
  15 H :    0.018879
  16 S :    0.120401
  17 C :   -0.095048
  18 C :   -0.060996
  19 C :   -0.040128
  20 C :   -0.183127
  21 H :    0.035808
  22 C :    0.050663
  23 H :    0.029904
  24 H :    0.017087
  25 C :   -0.023241
  26 H :    0.034133
  27 H :    0.036419
  28 C :   -0.065179
  29 H :    0.034548
  30 H :    0.033543
  31 H :    0.032963
  32 H :    0.047469
  33 H :    0.057664
Sum of atomic charges:    0.0000000

LOEWDIN ATOMIC CHARGES
----------------------
   0 S :    0.387964
   1 C :   -0.194891
   2 C :   -0.054749
   3 C :   -0.050310
   4 C :   -0.183454
   5 H :    0.019049
   6 C :   -0.030196
   7 H :    0.023729
   8 H :    0.025777
   9 C :   -0.034657
  10 H :    0.024291
  11 H :    0.023445
  12 C :   -0.066527
  13 H :    0.032502
  14 H :    0.029636
  15 H :    0.011637
  16 S :    0.423545
  17 C :   -0.189899
  18 C :   -0.080130
  19 C :   -0.046021
  20 C :   -0.210335
  21 H :    0.040122
  22 C :   -0.034000
  23 H :    0.032009
  24 H :    0.027280
  25 C :   -0.033954
  26 H :    0.025264
  27 H :    0.029684
  28 C :   -0.068817
  29 H :    0.020855
  30 H :    0.021123
  31 H :    0.032511
  32 H :    0.021641
  33 H :    0.025878

  Mayer bond orders larger than 0.100000
B(  0-S ,  1-C ) :   1.1441 B(  0-S ,  4-C ) :   1.1376 B(  1-C ,  2-C ) :   1.5841
B(  1-C , 32-H ) :   0.9795 B(  2-C ,  3-C ) :   1.2400 B(  2-C ,  6-C ) :   1.0001
B(  3-C ,  4-C ) :   1.5820 B(  3-C ,  5-H ) :   1.0073 B(  4-C , 20-C ) :   1.0339
B(  6-C ,  7-H ) :   0.9388 B(  6-C ,  8-H ) :   0.9541 B(  6-C ,  9-C ) :   1.0614
B(  9-C , 10-H ) :   0.9595 B(  9-C , 11-H ) :   0.9588 B(  9-C , 12-C ) :   1.0792
B( 12-C , 13-H ) :   0.9723 B( 12-C , 14-H ) :   0.9760 B( 12-C , 15-H ) :   0.9764
B( 16-S , 17-C ) :   1.1815 B( 16-S , 20-C ) :   1.1454 B( 17-C , 18-C ) :   1.6089
B( 17-C , 20-C ) :   0.1015 B( 17-C , 33-H ) :   0.9628 B( 18-C , 19-C ) :   1.2223
B( 18-C , 21-H ) :   0.9891 B( 19-C , 20-C ) :   1.5916 B( 19-C , 22-C ) :   1.0405
B( 22-C , 23-H ) :   0.9311 B( 22-C , 24-H ) :   0.9311 B( 22-C , 25-C ) :   1.0775
B( 25-C , 26-H ) :   0.9539 B( 25-C , 27-H ) :   0.9522 B( 25-C , 28-C ) :   1.0734
B( 28-C , 29-H ) :   0.9732 B( 28-C , 30-H ) :   0.9742 B( 28-C , 31-H ) :   0.9707

Dispersion correction           -0.015840174
FINAL SINGLE POINT ENERGY     -1339.870206104162

DIPOLE MOMENT
-------------
                                X             Y             Z
Electronic contribution:     17.45268      -3.36736      -4.68823
Nuclear contribution   :    -17.80050       3.63507       5.02154
                        -----------------------------------------
Total Dipole Moment    :     -0.34781       0.26771       0.33331
                        -----------------------------------------
Magnitude (a.u.)       :      0.55112
Magnitude (Debye)      :      1.40084

Rotational constants in cm-1:     0.022734     0.008144     0.007350
Rotational constants in MHz :   681.562359   244.148461   220.362207

                             ****ORCA TERMINATED NORMALLY****
TOTAL RUN TIME: 0 days 0 hours 0 minutes 22 seconds 425 msec
