                         Program Version 4.2.1 -  RELEASE  -
|  1> ! wB97X-D3 SP def2-SVP
|  2> %pal
|  3> nprocs 24
|  4> end
|  5>
|  6> * xyz 0 1
|  7> S 	 -135.426 	 31.0866 	 -20.1386
|  8> C 	 -134.452 	 30.4902 	 -21.3944
|  9> C 	 -133.784 	 29.3068 	 -21.0485
| 10> C 	 -134.004 	 28.9758 	 -19.708
| 11> C 	 -134.781 	 29.8985 	 -19.018
| 12> H 	 -133.515 	 28.1225 	 -19.214
| 13> C 	 -132.929 	 28.4338 	 -21.9979
| 14> H 	 -132.281 	 29.1518 	 -22.5174
| 15> H 	 -133.61 	 28.0084 	 -22.729
| 16> C 	 -132.079 	 27.325 	 -21.3422
| 17> H 	 -131.393 	 27.7647 	 -20.5776
| 18> H 	 -132.8 	 26.6611 	 -20.7426
| 19> C 	 -131.24 	 26.4072 	 -22.306
| 20> H 	 -131.786 	 25.792 	 -22.9618
| 21> H 	 -130.528 	 26.9644 	 -22.9564
| 22> H 	 -130.487 	 25.711 	 -21.8258
| 23> S 	 -136.775 	 29.6014 	 -17.2034
| 24> C 	 -136.317 	 29.6166 	 -15.4674
| 25> C 	 -134.97 	 29.7661 	 -15.2751
| 26> C 	 -134.28 	 29.8212 	 -16.5157
| 27> C 	 -135.123 	 29.8407 	 -17.6154
| 28> H 	 -134.461 	 29.8224 	 -14.3189
| 29> C 	 -132.767 	 29.9287 	 -16.5144
| 30> H 	 -132.414 	 30.7584 	 -15.881
| 31> H 	 -132.426 	 30.1374 	 -17.5312
| 32> C 	 -132.049 	 28.6335 	 -16.1192
| 33> H 	 -132.132 	 27.899 	 -16.8885
| 34> H 	 -132.524 	 28.2267 	 -15.1493
| 35> C 	 -130.551 	 28.8138 	 -15.6798
| 36> H 	 -130.566 	 29.5064 	 -14.8332
| 37> H 	 -129.862 	 28.9955 	 -16.5679
| 38> H 	 -130.262 	 27.8721 	 -15.2199
| 39> H 	 -134.405 	 31.0984 	 -22.2975
| 40> H 	 -137.028 	 29.6545 	 -14.7265
| 41> *
| 42>
| 43>                          ****END OF INPUT****

CARTESIAN COORDINATES (ANGSTROEM)
---------------------------------
  S    -135.426000   31.086600  -20.138600
  C    -134.452000   30.490200  -21.394400
  C    -133.784000   29.306800  -21.048500
  C    -134.004000   28.975800  -19.708000
  C    -134.781000   29.898500  -19.018000
  H    -133.515000   28.122500  -19.214000
  C    -132.929000   28.433800  -21.997900
  H    -132.281000   29.151800  -22.517400
  H    -133.610000   28.008400  -22.729000
  C    -132.079000   27.325000  -21.342200
  H    -131.393000   27.764700  -20.577600
  H    -132.800000   26.661100  -20.742600
  C    -131.240000   26.407200  -22.306000
  H    -131.786000   25.792000  -22.961800
  H    -130.528000   26.964400  -22.956400
  H    -130.487000   25.711000  -21.825800
  S    -136.775000   29.601400  -17.203400
  C    -136.317000   29.616600  -15.467400
  C    -134.970000   29.766100  -15.275100
  C    -134.280000   29.821200  -16.515700
  C    -135.123000   29.840700  -17.615400
  H    -134.461000   29.822400  -14.318900
  C    -132.767000   29.928700  -16.514400
  H    -132.414000   30.758400  -15.881000
  H    -132.426000   30.137400  -17.531200
  C    -132.049000   28.633500  -16.119200
  H    -132.132000   27.899000  -16.888500
  H    -132.524000   28.226700  -15.149300
  C    -130.551000   28.813800  -15.679800
  H    -130.566000   29.506400  -14.833200
  H    -129.862000   28.995500  -16.567900
  H    -130.262000   27.872100  -15.219900
  H    -134.405000   31.098400  -22.297500
  H    -137.028000   29.654500  -14.726500

 Total Charge           Charge          ....    0
 Multiplicity           Mult            ....    1
 Number of Electrons    NEL             ....  134
 Basis Dimension        Dim             ....  322

ORBITAL ENERGIES
----------------

  NO   OCC          E(Eh)            E(eV)
   0   2.0000     -88.967793     -2420.9367
   1   2.0000     -88.963999     -2420.8335
   2   2.0000     -10.324473      -280.9432
   3   2.0000     -10.320543      -280.8362
   4   2.0000     -10.312876      -280.6276
   5   2.0000     -10.312172      -280.6085
   6   2.0000     -10.305640      -280.4307
   7   2.0000     -10.302882      -280.3557
   8   2.0000     -10.298219      -280.2288
   9   2.0000     -10.297339      -280.2048
  10   2.0000     -10.292469      -280.0723
  11   2.0000     -10.292268      -280.0668
  12   2.0000     -10.290455      -280.0175
  13   2.0000     -10.288129      -279.9542
  14   2.0000     -10.287823      -279.9459
  15   2.0000     -10.285946      -279.8948
  16   2.0000      -8.083324      -219.9584
  17   2.0000      -8.078856      -219.8368
  18   2.0000      -6.041582      -164.3998
  19   2.0000      -6.037639      -164.2925
  20   2.0000      -6.037368      -164.2851
  21   2.0000      -6.034410      -164.2046
  22   2.0000      -6.033477      -164.1793
  23   2.0000      -6.029482      -164.0706
  24   2.0000      -1.009547       -27.4712
  25   2.0000      -0.986334       -26.8395
  26   2.0000      -0.906043       -24.6547
  27   2.0000      -0.903276       -24.5794
  28   2.0000      -0.871079       -23.7033
  29   2.0000      -0.850545       -23.1445
  30   2.0000      -0.845461       -23.0062
  31   2.0000      -0.813556       -22.1380
  32   2.0000      -0.782282       -21.2870
  33   2.0000      -0.768815       -20.9205
  34   2.0000      -0.711790       -19.3688
  35   2.0000      -0.692098       -18.8329
  36   2.0000      -0.688601       -18.7378
  37   2.0000      -0.663563       -18.0565
  38   2.0000      -0.642321       -17.4784
  39   2.0000      -0.622434       -16.9373
  40   2.0000      -0.598522       -16.2866
  41   2.0000      -0.567703       -15.4480
  42   2.0000      -0.566794       -15.4232
  43   2.0000      -0.556412       -15.1408
  44   2.0000      -0.522515       -14.2183
  45   2.0000      -0.518506       -14.1093
  46   2.0000      -0.513333       -13.9685
  47   2.0000      -0.509869       -13.8742
  48   2.0000      -0.502641       -13.6775
  49   2.0000      -0.496311       -13.5053
  50   2.0000      -0.492426       -13.3996
  51   2.0000      -0.478865       -13.0306
  52   2.0000      -0.475428       -12.9370
  53   2.0000      -0.465294       -12.6613
  54   2.0000      -0.460942       -12.5429
  55   2.0000      -0.450664       -12.2632
  56   2.0000      -0.446753       -12.1568
  57   2.0000      -0.435550       -11.8519
  58   2.0000      -0.433936       -11.8080
  59   2.0000      -0.427754       -11.6398
  60   2.0000      -0.422210       -11.4889
  61   2.0000      -0.417649       -11.3648
  62   2.0000      -0.408506       -11.1160
  63   2.0000      -0.346217        -9.4210
  64   2.0000      -0.334453        -9.1009
  65   2.0000      -0.326144        -8.8748
  66   2.0000      -0.290523        -7.9055
  67   0.0000       0.035104         0.9552
  68   0.0000       0.064610         1.7581
  69   0.0000       0.112170         3.0523
  70   0.0000       0.122792         3.3413
  71   0.0000       0.130749         3.5579

MULLIKEN ATOMIC CHARGES
-----------------------
   0 S :    0.130959
   1 C :   -0.153190
   2 C :   -0.088651
   3 C :    0.020361
   4 C :   -0.177657
   5 H :    0.020203
   6 C :    0.096464
   7 H :    0.031626
   8 H :    0.043883
   9 C :   -0.135741
  10 H :    0.042471
  11 H :    0.050197
  12 C :   -0.041675
  13 H :    0.026089
  14 H :    0.025890
  15 H :    0.036900
  16 S :    0.103205
  17 C :   -0.059878
  18 C :   -0.014762
  19 C :   -0.031475
  20 C :   -0.157351
  21 H :    0.021920
  22 C :    0.086744
  23 H :    0.026699
  24 H :    0.022129
  25 C :   -0.125221
  26 H :    0.025820
  27 H :    0.030039
  28 C :   -0.050139
  29 H :    0.032399
  30 H :    0.053505
  31 H :    0.028786
  32 H :    0.055995
  33 H :    0.023455
Sum of atomic charges:    0.0000000

LOEWDIN ATOMIC CHARGES
----------------------
   0 S :    0.436490
   1 C :   -0.215577
   2 C :   -0.066223
   3 C :   -0.064587
   4 C :   -0.202765
   5 H :    0.034993
   6 C :   -0.031132
   7 H :    0.033457
   8 H :    0.034521
   9 C :   -0.050487
  10 H :    0.028564
  11 H :    0.031268
  12 C :   -0.073697
  13 H :    0.016597
  14 H :    0.027524
  15 H :    0.035779
  16 S :    0.398448
  17 C :   -0.154921
  18 C :   -0.059699
  19 C :   -0.057758
  20 C :   -0.209776
  21 H :    0.035031
  22 C :   -0.035451
  23 H :    0.031072
  24 H :    0.029471
  25 C :   -0.041080
  26 H :    0.014521
  27 H :    0.026908
  28 C :   -0.070140
  29 H :    0.025446
  30 H :    0.032931
  31 H :    0.025204
  32 H :    0.027255
  33 H :    0.007815

  Mayer bond orders larger than 0.100000
B(  0-S ,  1-C ) :   1.1822 B(  0-S ,  4-C ) :   1.1732 B(  1-C ,  2-C ) :   1.5505
B(  1-C ,  4-C ) :   0.1121 B(  1-C , 32-H ) :   0.9750 B(  2-C ,  3-C ) :   1.3137
B(  2-C ,  6-C ) :   0.9901 B(  3-C ,  4-C ) :   1.5173 B(  3-C ,  5-H ) :   0.9858
B(  4-C , 20-C ) :   1.0257 B(  6-C ,  7-H ) :   0.9386 B(  6-C ,  8-H ) :   0.9386
B(  6-C ,  9-C ) :   1.0797 B(  9-C , 10-H ) :   0.9569 B(  9-C , 11-H ) :   0.9455
B(  9-C , 12-C ) :   1.0693 B( 12-C , 13-H ) :   0.9785 B( 12-C , 14-H ) :   0.9745
B( 12-C , 15-H ) :   0.9757 B( 16-S , 17-C ) :   1.1372 B( 16-S , 20-C ) :   1.1489
B( 17-C , 18-C ) :   1.6152 B( 17-C , 33-H ) :   0.9781 B( 18-C , 19-C ) :   1.2301
B( 18-C , 21-H ) :   0.9883 B( 19-C , 20-C ) :   1.6150 B( 19-C , 22-C ) :   1.0530
B( 22-C , 23-H ) :   0.9406 B( 22-C , 24-H ) :   0.9247 B( 22-C , 25-C ) :   1.0539
B( 25-C , 26-H ) :   0.9555 B( 25-C , 27-H ) :   0.9620 B( 25-C , 28-C ) :   1.0761
B( 28-C , 29-H ) :   0.9746 B( 28-C , 30-H ) :   0.9742 B( 28-C , 31-H ) :   0.9749

Dispersion correction           -0.014056359
FINAL SINGLE POINT ENERGY     -1339.882913718635

DIPOLE MOMENT
-------------
                                X             Y             Z
Electronic contribution:    -28.87597      15.20959       1.84003
Nuclear contribution   :     29.48101     -15.46136      -1.87263
                        -----------------------------------------
Total Dipole Moment    :      0.60503      -0.25177      -0.03260
                        -----------------------------------------
Magnitude (a.u.)       :      0.65614
Magnitude (Debye)      :      1.66777

Rotational constants in cm-1:     0.015599     0.009522     0.006696
Rotational constants in MHz :   467.639553   285.452509   200.739377

                             ****ORCA TERMINATED NORMALLY****
TOTAL RUN TIME: 0 days 0 hours 0 minutes 22 seconds 697 msec
