                         Program Version 4.2.1 -  RELEASE  -
|  1> ! wB97X-D3 SP def2-SVP
|  2> %pal
|  3> nprocs 24
|  4> end
|  5>
|  6> * xyz 0 1
|  7> S 	 12.8211 	 -15.4706 	 -117.714
|  8> C 	 11.8089 	 -14.5124 	 -116.662
|  9> C 	 10.9177 	 -15.2786 	 -115.948
| 10> C 	 11.1241 	 -16.6846 	 -116.179
| 11> C 	 11.9436 	 -16.9341 	 -117.266
| 12> H 	 10.5642 	 -17.5442 	 -115.716
| 13> C 	 9.84545 	 -14.7341 	 -115.089
| 14> H 	 9.62112 	 -13.6963 	 -115.378
| 15> H 	 10.1587 	 -14.6666 	 -114.053
| 16> C 	 8.5334 	 -15.5848 	 -115.163
| 17> H 	 8.15991 	 -15.5747 	 -116.179
| 18> H 	 8.69142 	 -16.5957 	 -114.874
| 19> C 	 7.39844 	 -14.8926 	 -114.392
| 20> H 	 7.00622 	 -14.0885 	 -114.95
| 21> H 	 6.67585 	 -15.6163 	 -114.015
| 22> H 	 7.95507 	 -14.6278 	 -113.477
| 23> S 	 10.8135 	 -19.278 	 -118.022
| 24> C 	 11.7786 	 -20.5439 	 -118.811
| 25> C 	 13.0845 	 -20.2194 	 -118.881
| 26> C 	 13.3455 	 -18.9269 	 -118.278
| 27> C 	 12.1867 	 -18.2435 	 -117.813
| 28> H 	 13.8079 	 -20.9319 	 -119.236
| 29> C 	 14.7392 	 -18.497 	 -118.035
| 30> H 	 14.9131 	 -17.5179 	 -118.419
| 31> H 	 15.4418 	 -19.0182 	 -118.681
| 32> C 	 15.2104 	 -18.7761 	 -116.546
| 33> H 	 14.4921 	 -18.5986 	 -115.754
| 34> H 	 16.05 	 -18.0619 	 -116.479
| 35> C 	 15.5842 	 -20.2386 	 -116.339
| 36> H 	 15.707 	 -20.7351 	 -117.283
| 37> H 	 14.8153 	 -20.6859 	 -115.794
| 38> H 	 16.457 	 -20.3392 	 -115.763
| 39> H 	 11.8585 	 -13.4973 	 -116.531
| 40> H 	 11.3155 	 -21.4085 	 -119.205
| 41> *
| 42>
| 43>                          ****END OF INPUT****

CARTESIAN COORDINATES (ANGSTROEM)
---------------------------------
  S     12.821100  -15.470600  -117.714000
  C     11.808900  -14.512400  -116.662000
  C     10.917700  -15.278600  -115.948000
  C     11.124100  -16.684600  -116.179000
  C     11.943600  -16.934100  -117.266000
  H     10.564200  -17.544200  -115.716000
  C      9.845450  -14.734100  -115.089000
  H      9.621120  -13.696300  -115.378000
  H     10.158700  -14.666600  -114.053000
  C      8.533400  -15.584800  -115.163000
  H      8.159910  -15.574700  -116.179000
  H      8.691420  -16.595700  -114.874000
  C      7.398440  -14.892600  -114.392000
  H      7.006220  -14.088500  -114.950000
  H      6.675850  -15.616300  -114.015000
  H      7.955070  -14.627800  -113.477000
  S     10.813500  -19.278000  -118.022000
  C     11.778600  -20.543900  -118.811000
  C     13.084500  -20.219400  -118.881000
  C     13.345500  -18.926900  -118.278000
  C     12.186700  -18.243500  -117.813000
  H     13.807900  -20.931900  -119.236000
  C     14.739200  -18.497000  -118.035000
  H     14.913100  -17.517900  -118.419000
  H     15.441800  -19.018200  -118.681000
  C     15.210400  -18.776100  -116.546000
  H     14.492100  -18.598600  -115.754000
  H     16.050000  -18.061900  -116.479000
  C     15.584200  -20.238600  -116.339000
  H     15.707000  -20.735100  -117.283000
  H     14.815300  -20.685900  -115.794000
  H     16.457000  -20.339200  -115.763000
  H     11.858500  -13.497300  -116.531000
  H     11.315500  -21.408500  -119.205000

 Total Charge           Charge          ....    0
 Multiplicity           Mult            ....    1
 Number of Electrons    NEL             ....  134
 Basis Dimension        Dim             ....  322

ORBITAL ENERGIES
----------------

  NO   OCC          E(Eh)            E(eV)
   0   2.0000     -88.966287     -2420.8957
   1   2.0000     -88.962666     -2420.7972
   2   2.0000     -10.329943      -281.0920
   3   2.0000     -10.325885      -280.9816
   4   2.0000     -10.313301      -280.6392
   5   2.0000     -10.305501      -280.4270
   6   2.0000     -10.302932      -280.3570
   7   2.0000     -10.297733      -280.2156
   8   2.0000     -10.296532      -280.1829
   9   2.0000     -10.292691      -280.0784
  10   2.0000     -10.291600      -280.0487
  11   2.0000     -10.284272      -279.8493
  12   2.0000     -10.283296      -279.8227
  13   2.0000     -10.281614      -279.7769
  14   2.0000     -10.274493      -279.5832
  15   2.0000     -10.261673      -279.2343
  16   2.0000      -8.080530      -219.8824
  17   2.0000      -8.077415      -219.7976
  18   2.0000      -6.039148      -164.3336
  19   2.0000      -6.035960      -164.2468
  20   2.0000      -6.035188      -164.2258
  21   2.0000      -6.031860      -164.1352
  22   2.0000      -6.031134      -164.1155
  23   2.0000      -6.028210      -164.0359
  24   2.0000      -1.005515       -27.3615
  25   2.0000      -0.982921       -26.7466
  26   2.0000      -0.913715       -24.8635
  27   2.0000      -0.906177       -24.6583
  28   2.0000      -0.876664       -23.8552
  29   2.0000      -0.851768       -23.1778
  30   2.0000      -0.843373       -22.9493
  31   2.0000      -0.818578       -22.2746
  32   2.0000      -0.781291       -21.2600
  33   2.0000      -0.767739       -20.8912
  34   2.0000      -0.714888       -19.4531
  35   2.0000      -0.697350       -18.9759
  36   2.0000      -0.689000       -18.7486
  37   2.0000      -0.668439       -18.1892
  38   2.0000      -0.635306       -17.2875
  39   2.0000      -0.617830       -16.8120
  40   2.0000      -0.599266       -16.3069
  41   2.0000      -0.578189       -15.7333
  42   2.0000      -0.570893       -15.5348
  43   2.0000      -0.552856       -15.0440
  44   2.0000      -0.543431       -14.7875
  45   2.0000      -0.524882       -14.2828
  46   2.0000      -0.522670       -14.2226
  47   2.0000      -0.511820       -13.9273
  48   2.0000      -0.506638       -13.7863
  49   2.0000      -0.500529       -13.6201
  50   2.0000      -0.486267       -13.2320
  51   2.0000      -0.478764       -13.0278
  52   2.0000      -0.475197       -12.9308
  53   2.0000      -0.469434       -12.7739
  54   2.0000      -0.460702       -12.5363
  55   2.0000      -0.446305       -12.1446
  56   2.0000      -0.440885       -11.9971
  57   2.0000      -0.437505       -11.9051
  58   2.0000      -0.432332       -11.7644
  59   2.0000      -0.421108       -11.4589
  60   2.0000      -0.416262       -11.3271
  61   2.0000      -0.412222       -11.2171
  62   2.0000      -0.407945       -11.1007
  63   2.0000      -0.355601        -9.6764
  64   2.0000      -0.328945        -8.9510
  65   2.0000      -0.324206        -8.8221
  66   2.0000      -0.283150        -7.7049
  67   0.0000       0.023806         0.6478
  68   0.0000       0.078324         2.1313
  69   0.0000       0.109944         2.9917
  70   0.0000       0.120401         3.2763
  71   0.0000       0.131682         3.5833

MULLIKEN ATOMIC CHARGES
-----------------------
   0 S :    0.112924
   1 C :   -0.078814
   2 C :   -0.070528
   3 C :   -0.022160
   4 C :   -0.119346
   5 H :    0.040928
   6 C :    0.064552
   7 H :    0.019146
   8 H :    0.036978
   9 C :   -0.112744
  10 H :    0.033200
  11 H :    0.029680
  12 C :   -0.017836
  13 H :    0.041110
  14 H :    0.032157
  15 H :    0.016632
  16 S :    0.088199
  17 C :   -0.082838
  18 C :   -0.006813
  19 C :   -0.069058
  20 C :   -0.146685
  21 H :    0.020949
  22 C :    0.056714
  23 H :    0.015096
  24 H :    0.005669
  25 C :   -0.075970
  26 H :    0.039613
  27 H :    0.035489
  28 C :    0.003099
  29 H :    0.013748
  30 H :    0.022666
  31 H :    0.023264
  32 H :    0.007122
  33 H :    0.043856
Sum of atomic charges:   -0.0000000

LOEWDIN ATOMIC CHARGES
----------------------
   0 S :    0.402509
   1 C :   -0.184885
   2 C :   -0.060450
   3 C :   -0.070851
   4 C :   -0.187259
   5 H :    0.035790
   6 C :   -0.033309
   7 H :    0.032331
   8 H :    0.030935
   9 C :   -0.036176
  10 H :    0.024684
  11 H :    0.016159
  12 C :   -0.060020
  13 H :    0.021454
  14 H :    0.028620
  15 H :    0.026096
  16 S :    0.404464
  17 C :   -0.167383
  18 C :   -0.068070
  19 C :   -0.057919
  20 C :   -0.203409
  21 H :    0.033801
  22 C :   -0.039680
  23 H :    0.020608
  24 H :    0.028221
  25 C :   -0.029106
  26 H :    0.027275
  27 H :    0.025621
  28 C :   -0.054954
  29 H :    0.018849
  30 H :    0.021914
  31 H :    0.022955
  32 H :    0.010548
  33 H :    0.020637

  Mayer bond orders larger than 0.100000
B(  0-S ,  1-C ) :   1.1209 B(  0-S ,  4-C ) :   1.1352 B(  1-C ,  2-C ) :   1.6327
B(  1-C , 32-H ) :   0.9765 B(  2-C ,  3-C ) :   1.2188 B(  2-C ,  6-C ) :   1.0368
B(  3-C ,  4-C ) :   1.5765 B(  3-C ,  5-H ) :   0.9729 B(  4-C , 20-C ) :   1.0840
B(  6-C ,  7-H ) :   0.9433 B(  6-C ,  8-H ) :   0.9214 B(  6-C ,  9-C ) :   1.0661
B(  9-C , 10-H ) :   0.9626 B(  9-C , 11-H ) :   0.9531 B(  9-C , 12-C ) :   1.0792
B( 12-C , 13-H ) :   0.9793 B( 12-C , 14-H ) :   0.9724 B( 12-C , 15-H ) :   0.9737
B( 16-S , 17-C ) :   1.1492 B( 16-S , 20-C ) :   1.1417 B( 17-C , 18-C ) :   1.6085
B( 17-C , 33-H ) :   0.9721 B( 18-C , 19-C ) :   1.2436 B( 18-C , 21-H ) :   0.9917
B( 19-C , 20-C ) :   1.5477 B( 19-C , 22-C ) :   1.0680 B( 22-C , 23-H ) :   0.9306
B( 22-C , 24-H ) :   0.9310 B( 22-C , 25-C ) :   1.0472 B( 25-C , 26-H ) :   0.9700
B( 25-C , 27-H ) :   0.9629 B( 25-C , 28-C ) :   1.0622 B( 28-C , 29-H ) :   0.9773
B( 28-C , 30-H ) :   0.9777 B( 28-C , 31-H ) :   0.9721

Dispersion correction           -0.014506436
FINAL SINGLE POINT ENERGY     -1339.863002286113

DIPOLE MOMENT
-------------
                                X             Y             Z
Electronic contribution:      0.86020      -0.37974     -13.76714
Nuclear contribution   :     -0.80920       0.26040      14.06500
                        -----------------------------------------
Total Dipole Moment    :      0.05101      -0.11934       0.29786
                        -----------------------------------------
Magnitude (a.u.)       :      0.32490
Magnitude (Debye)      :      0.82584

Rotational constants in cm-1:     0.022188     0.007910     0.006799
Rotational constants in MHz :   665.168352   237.121962   203.842576

                             ****ORCA TERMINATED NORMALLY****
TOTAL RUN TIME: 0 days 0 hours 0 minutes 21 seconds 753 msec
