                         Program Version 4.2.1 -  RELEASE  -
|  1> ! wB97X-D3 SP def2-SVP
|  2> %pal
|  3> nprocs 24
|  4> end
|  5>
|  6> * xyz 0 1
|  7> S 	 -106.406 	 27.3864 	 -118.179
|  8> C 	 -106.376 	 28.5507 	 -116.906
|  9> C 	 -106.3 	 29.8272 	 -117.319
| 10> C 	 -106.132 	 29.8429 	 -118.749
| 11> C 	 -106.278 	 28.6141 	 -119.379
| 12> H 	 -105.92 	 30.7361 	 -119.29
| 13> C 	 -106.059 	 31.0997 	 -116.511
| 14> H 	 -106.023 	 31.8972 	 -117.272
| 15> H 	 -105.087 	 30.9794 	 -115.997
| 16> C 	 -107.074 	 31.4437 	 -115.582
| 17> H 	 -107.976 	 31.706 	 -116.124
| 18> H 	 -107.479 	 30.5688 	 -115.046
| 19> C 	 -106.596 	 32.546 	 -114.672
| 20> H 	 -105.843 	 32.319 	 -114.006
| 21> H 	 -106.4 	 33.4471 	 -115.237
| 22> H 	 -107.422 	 32.7026 	 -114.007
| 23> S 	 -105.209 	 27.1904 	 -121.568
| 24> C 	 -105.595 	 27.7149 	 -123.139
| 25> C 	 -106.633 	 28.6822 	 -123.135
| 26> C 	 -107.022 	 29.1181 	 -121.854
| 27> C 	 -106.303 	 28.4906 	 -120.83
| 28> H 	 -107.055 	 29.0062 	 -124.104
| 29> C 	 -108.138 	 30.1093 	 -121.634
| 30> H 	 -107.631 	 31.0826 	 -121.658
| 31> H 	 -108.545 	 29.9199 	 -120.662
| 32> C 	 -109.316 	 30.0635 	 -122.643
| 33> H 	 -108.956 	 30.1143 	 -123.624
| 34> H 	 -109.985 	 30.9307 	 -122.542
| 35> C 	 -110.148 	 28.7921 	 -122.514
| 36> H 	 -111.143 	 28.7732 	 -122.97
| 37> H 	 -110.423 	 28.5795 	 -121.444
| 38> H 	 -109.49 	 28.0415 	 -122.976
| 39> H 	 -106.534 	 28.3005 	 -115.832
| 40> H 	 -105.081 	 27.4379 	 -124.073
| 41> *
| 42>
| 43>                          ****END OF INPUT****

CARTESIAN COORDINATES (ANGSTROEM)
---------------------------------
  S    -106.406000   27.386400  -118.179000
  C    -106.376000   28.550700  -116.906000
  C    -106.300000   29.827200  -117.319000
  C    -106.132000   29.842900  -118.749000
  C    -106.278000   28.614100  -119.379000
  H    -105.920000   30.736100  -119.290000
  C    -106.059000   31.099700  -116.511000
  H    -106.023000   31.897200  -117.272000
  H    -105.087000   30.979400  -115.997000
  C    -107.074000   31.443700  -115.582000
  H    -107.976000   31.706000  -116.124000
  H    -107.479000   30.568800  -115.046000
  C    -106.596000   32.546000  -114.672000
  H    -105.843000   32.319000  -114.006000
  H    -106.400000   33.447100  -115.237000
  H    -107.422000   32.702600  -114.007000
  S    -105.209000   27.190400  -121.568000
  C    -105.595000   27.714900  -123.139000
  C    -106.633000   28.682200  -123.135000
  C    -107.022000   29.118100  -121.854000
  C    -106.303000   28.490600  -120.830000
  H    -107.055000   29.006200  -124.104000
  C    -108.138000   30.109300  -121.634000
  H    -107.631000   31.082600  -121.658000
  H    -108.545000   29.919900  -120.662000
  C    -109.316000   30.063500  -122.643000
  H    -108.956000   30.114300  -123.624000
  H    -109.985000   30.930700  -122.542000
  C    -110.148000   28.792100  -122.514000
  H    -111.143000   28.773200  -122.970000
  H    -110.423000   28.579500  -121.444000
  H    -109.490000   28.041500  -122.976000
  H    -106.534000   28.300500  -115.832000
  H    -105.081000   27.437900  -124.073000

 Total Charge           Charge          ....    0
 Multiplicity           Mult            ....    1
 Number of Electrons    NEL             ....  134
 Basis Dimension        Dim             ....  322

ORBITAL ENERGIES
----------------

  NO   OCC          E(Eh)            E(eV)
   0   2.0000     -88.966841     -2420.9108
   1   2.0000     -88.964553     -2420.8485
   2   2.0000     -10.332928      -281.1733
   3   2.0000     -10.325865      -280.9811
   4   2.0000     -10.321460      -280.8612
   5   2.0000     -10.309805      -280.5440
   6   2.0000     -10.307059      -280.4693
   7   2.0000     -10.295747      -280.1615
   8   2.0000     -10.292202      -280.0650
   9   2.0000     -10.291523      -280.0466
  10   2.0000     -10.287404      -279.9345
  11   2.0000     -10.286922      -279.9214
  12   2.0000     -10.283791      -279.8362
  13   2.0000     -10.277284      -279.6591
  14   2.0000     -10.276486      -279.6374
  15   2.0000     -10.268699      -279.4255
  16   2.0000      -8.082357      -219.9321
  17   2.0000      -8.078887      -219.8377
  18   2.0000      -6.040941      -164.3824
  19   2.0000      -6.037260      -164.2822
  20   2.0000      -6.036696      -164.2669
  21   2.0000      -6.033448      -164.1785
  22   2.0000      -6.033074      -164.1683
  23   2.0000      -6.029835      -164.0801
  24   2.0000      -1.007280       -27.4095
  25   2.0000      -0.983648       -26.7664
  26   2.0000      -0.931449       -25.3460
  27   2.0000      -0.911224       -24.7957
  28   2.0000      -0.870829       -23.6965
  29   2.0000      -0.855120       -23.2690
  30   2.0000      -0.845450       -23.0059
  31   2.0000      -0.806096       -21.9350
  32   2.0000      -0.788079       -21.4447
  33   2.0000      -0.775096       -21.0914
  34   2.0000      -0.707518       -19.2525
  35   2.0000      -0.704127       -19.1603
  36   2.0000      -0.693389       -18.8681
  37   2.0000      -0.654640       -17.8137
  38   2.0000      -0.637749       -17.3540
  39   2.0000      -0.618652       -16.8344
  40   2.0000      -0.597744       -16.2654
  41   2.0000      -0.582579       -15.8528
  42   2.0000      -0.563321       -15.3287
  43   2.0000      -0.558652       -15.2017
  44   2.0000      -0.540580       -14.7099
  45   2.0000      -0.527279       -14.3480
  46   2.0000      -0.524437       -14.2707
  47   2.0000      -0.515553       -14.0289
  48   2.0000      -0.505059       -13.7433
  49   2.0000      -0.498567       -13.5667
  50   2.0000      -0.484125       -13.1737
  51   2.0000      -0.476565       -12.9680
  52   2.0000      -0.470983       -12.8161
  53   2.0000      -0.465851       -12.6765
  54   2.0000      -0.463416       -12.6102
  55   2.0000      -0.453659       -12.3447
  56   2.0000      -0.449013       -12.2183
  57   2.0000      -0.441017       -12.0007
  58   2.0000      -0.428969       -11.6728
  59   2.0000      -0.420281       -11.4364
  60   2.0000      -0.417430       -11.3588
  61   2.0000      -0.412517       -11.2252
  62   2.0000      -0.410402       -11.1676
  63   2.0000      -0.346436        -9.4270
  64   2.0000      -0.331986        -9.0338
  65   2.0000      -0.330782        -9.0010
  66   2.0000      -0.285607        -7.7718
  67   0.0000       0.029087         0.7915
  68   0.0000       0.065165         1.7732
  69   0.0000       0.112378         3.0580
  70   0.0000       0.124608         3.3908
  71   0.0000       0.135695         3.6924

MULLIKEN ATOMIC CHARGES
-----------------------
   0 S :    0.126665
   1 C :   -0.142215
   2 C :   -0.082129
   3 C :    0.004369
   4 C :   -0.130402
   5 H :   -0.001141
   6 C :    0.092758
   7 H :    0.015320
   8 H :    0.043724
   9 C :   -0.101548
  10 H :    0.014515
  11 H :    0.017046
  12 C :    0.021289
  13 H :    0.016684
  14 H :    0.031269
  15 H :    0.015497
  16 S :    0.098114
  17 C :   -0.091744
  18 C :   -0.080245
  19 C :   -0.026055
  20 C :   -0.186791
  21 H :    0.027981
  22 C :    0.093522
  23 H :    0.045988
  24 H :    0.029027
  25 C :   -0.055925
  26 H :    0.011849
  27 H :    0.026927
  28 C :   -0.075556
  29 H :    0.036199
  30 H :    0.034761
  31 H :    0.044942
  32 H :    0.055688
  33 H :    0.069619
Sum of atomic charges:   -0.0000000

LOEWDIN ATOMIC CHARGES
----------------------
   0 S :    0.425748
   1 C :   -0.207144
   2 C :   -0.070162
   3 C :   -0.058191
   4 C :   -0.214087
   5 H :    0.022558
   6 C :   -0.029957
   7 H :    0.031752
   8 H :    0.037593
   9 C :   -0.052206
  10 H :    0.026131
  11 H :    0.022399
  12 C :   -0.051453
  13 H :    0.016370
  14 H :    0.027919
  15 H :    0.028014
  16 S :    0.386355
  17 C :   -0.198504
  18 C :   -0.088026
  19 C :   -0.050590
  20 C :   -0.168735
  21 H :    0.033340
  22 C :   -0.022933
  23 H :    0.038867
  24 H :    0.029177
  25 C :   -0.038491
  26 H :    0.011718
  27 H :    0.026099
  28 C :   -0.071432
  29 H :    0.026098
  30 H :    0.029668
  31 H :    0.030253
  32 H :    0.034449
  33 H :    0.037402

  Mayer bond orders larger than 0.100000
B(  0-S ,  1-C ) :   1.1409 B(  0-S ,  4-C ) :   1.1479 B(  1-C ,  2-C ) :   1.6303
B(  1-C , 32-H ) :   0.9546 B(  2-C ,  3-C ) :   1.2502 B(  2-C ,  6-C ) :   1.0015
B(  3-C ,  4-C ) :   1.5510 B(  3-C ,  5-H ) :   0.9986 B(  4-C , 20-C ) :   1.0661
B(  6-C ,  7-H ) :   0.9339 B(  6-C ,  8-H ) :   0.9439 B(  6-C ,  9-C ) :   1.0783
B(  9-C , 10-H ) :   0.9406 B(  9-C , 11-H ) :   0.9547 B(  9-C , 12-C ) :   1.0872
B( 12-C , 13-H ) :   0.9729 B( 12-C , 14-H ) :   0.9695 B( 12-C , 15-H ) :   0.9660
B( 16-S , 17-C ) :   1.1889 B( 16-S , 20-C ) :   1.1154 B( 17-C , 18-C ) :   1.5775
B( 17-C , 20-C ) :   0.1119 B( 17-C , 33-H ) :   0.9613 B( 18-C , 19-C ) :   1.2553
B( 18-C , 21-H ) :   0.9841 B( 19-C , 20-C ) :   1.5799 B( 19-C , 22-C ) :   1.0204
B( 22-C , 23-H ) :   0.9273 B( 22-C , 24-H ) :   0.9379 B( 22-C , 25-C ) :   1.0784
B( 25-C , 26-H ) :   0.9537 B( 25-C , 27-H ) :   0.9540 B( 25-C , 28-C ) :   1.0713
B( 28-C , 29-H ) :   0.9753 B( 28-C , 30-H ) :   0.9745 B( 28-C , 31-H ) :   0.9762

Dispersion correction           -0.013812551
FINAL SINGLE POINT ENERGY     -1339.864879618038

DIPOLE MOMENT
-------------
                                X             Y             Z
Electronic contribution:     14.51956     -20.99274      -6.70749
Nuclear contribution   :    -14.80062      21.65729       6.73825
                        -----------------------------------------
Total Dipole Moment    :     -0.28107       0.66455       0.03076
                        -----------------------------------------
Magnitude (a.u.)       :      0.72220
Magnitude (Debye)      :      1.83569

Rotational constants in cm-1:     0.020608     0.007479     0.006245
Rotational constants in MHz :   617.815956   224.221134   187.221755

                             ****ORCA TERMINATED NORMALLY****
TOTAL RUN TIME: 0 days 0 hours 0 minutes 21 seconds 265 msec
