                         Program Version 4.2.1 -  RELEASE  -
|  1> ! wB97X-D3 SP def2-SVP
|  2> %pal
|  3> nprocs 24
|  4> end
|  5>
|  6> * xyz 0 1
|  7> S 	 -75.1714 	 -0.399856 	 -69.5351
|  8> C 	 -73.6882 	 0.159157 	 -68.8388
|  9> C 	 -73.8411 	 1.06809 	 -67.8044
| 10> C 	 -75.2134 	 1.34837 	 -67.535
| 11> C 	 -76.0667 	 0.786844 	 -68.4881
| 12> H 	 -75.6293 	 1.93246 	 -66.7742
| 13> C 	 -72.8176 	 1.61727 	 -66.8529
| 14> H 	 -71.9172 	 1.17222 	 -67.1256
| 15> H 	 -73.1127 	 1.31773 	 -65.8448
| 16> C 	 -72.4802 	 3.12557 	 -67.0997
| 17> H 	 -72.1053 	 3.25794 	 -68.0759
| 18> H 	 -73.4373 	 3.72082 	 -66.9909
| 19> C 	 -71.3665 	 3.71217 	 -66.1417
| 20> H 	 -71.6525 	 3.59666 	 -65.111
| 21> H 	 -70.4328 	 3.11597 	 -66.2494
| 22> H 	 -71.0544 	 4.68548 	 -66.3368
| 23> S 	 -78.2987 	 -0.821642 	 -68.384
| 24> C 	 -79.8595 	 -0.167386 	 -68.3688
| 25> C 	 -79.7693 	 1.19311 	 -68.4819
| 26> C 	 -78.4887 	 1.73318 	 -68.4418
| 27> C 	 -77.5039 	 0.758162 	 -68.463
| 28> H 	 -80.7494 	 1.69347 	 -68.4863
| 29> C 	 -78.2501 	 3.27642 	 -68.5608
| 30> H 	 -79.0377 	 3.76654 	 -69.144
| 31> H 	 -77.3254 	 3.43148 	 -69.2317
| 32> C 	 -77.9743 	 4.06347 	 -67.2349
| 33> H 	 -77.03 	 3.91289 	 -66.7918
| 34> H 	 -78.6125 	 3.66794 	 -66.4953
| 35> C 	 -78.2354 	 5.58896 	 -67.4151
| 36> H 	 -79.2674 	 5.84675 	 -67.6606
| 37> H 	 -77.5229 	 5.99062 	 -68.1166
| 38> H 	 -77.914 	 6.09412 	 -66.5371
| 39> H 	 -72.7221 	 -0.1864 	 -69.1715
| 40> H 	 -80.8192 	 -0.636829 	 -68.2913
| 41> *
| 42>
| 43>                          ****END OF INPUT****

CARTESIAN COORDINATES (ANGSTROEM)
---------------------------------
  S    -75.171400   -0.399856  -69.535100
  C    -73.688200    0.159157  -68.838800
  C    -73.841100    1.068090  -67.804400
  C    -75.213400    1.348370  -67.535000
  C    -76.066700    0.786844  -68.488100
  H    -75.629300    1.932460  -66.774200
  C    -72.817600    1.617270  -66.852900
  H    -71.917200    1.172220  -67.125600
  H    -73.112700    1.317730  -65.844800
  C    -72.480200    3.125570  -67.099700
  H    -72.105300    3.257940  -68.075900
  H    -73.437300    3.720820  -66.990900
  C    -71.366500    3.712170  -66.141700
  H    -71.652500    3.596660  -65.111000
  H    -70.432800    3.115970  -66.249400
  H    -71.054400    4.685480  -66.336800
  S    -78.298700   -0.821642  -68.384000
  C    -79.859500   -0.167386  -68.368800
  C    -79.769300    1.193110  -68.481900
  C    -78.488700    1.733180  -68.441800
  C    -77.503900    0.758162  -68.463000
  H    -80.749400    1.693470  -68.486300
  C    -78.250100    3.276420  -68.560800
  H    -79.037700    3.766540  -69.144000
  H    -77.325400    3.431480  -69.231700
  C    -77.974300    4.063470  -67.234900
  H    -77.030000    3.912890  -66.791800
  H    -78.612500    3.667940  -66.495300
  C    -78.235400    5.588960  -67.415100
  H    -79.267400    5.846750  -67.660600
  H    -77.522900    5.990620  -68.116600
  H    -77.914000    6.094120  -66.537100
  H    -72.722100   -0.186400  -69.171500
  H    -80.819200   -0.636829  -68.291300

 Total Charge           Charge          ....    0
 Multiplicity           Mult            ....    1
 Number of Electrons    NEL             ....  134
 Basis Dimension        Dim             ....  322

ORBITAL ENERGIES
----------------

  NO   OCC          E(Eh)            E(eV)
   0   2.0000     -88.968924     -2420.9675
   1   2.0000     -88.962843     -2420.8020
   2   2.0000     -10.333092      -281.1777
   3   2.0000     -10.325071      -280.9595
   4   2.0000     -10.315371      -280.6955
   5   2.0000     -10.307656      -280.4856
   6   2.0000     -10.302572      -280.3472
   7   2.0000     -10.300409      -280.2884
   8   2.0000     -10.299896      -280.2744
   9   2.0000     -10.293924      -280.1119
  10   2.0000     -10.293842      -280.1097
  11   2.0000     -10.290094      -280.0077
  12   2.0000     -10.285199      -279.8745
  13   2.0000     -10.281508      -279.7741
  14   2.0000     -10.277850      -279.6745
  15   2.0000     -10.275316      -279.6056
  16   2.0000      -8.082905      -219.9470
  17   2.0000      -8.078305      -219.8218
  18   2.0000      -6.041409      -164.3951
  19   2.0000      -6.037687      -164.2938
  20   2.0000      -6.036747      -164.2682
  21   2.0000      -6.033541      -164.1810
  22   2.0000      -6.032583      -164.1549
  23   2.0000      -6.029180      -164.0623
  24   2.0000      -1.009003       -27.4564
  25   2.0000      -0.985400       -26.8141
  26   2.0000      -0.909001       -24.7352
  27   2.0000      -0.899677       -24.4815
  28   2.0000      -0.870880       -23.6978
  29   2.0000      -0.852852       -23.2073
  30   2.0000      -0.847781       -23.0693
  31   2.0000      -0.814600       -22.1664
  32   2.0000      -0.781370       -21.2621
  33   2.0000      -0.771486       -20.9932
  34   2.0000      -0.712445       -19.3866
  35   2.0000      -0.704393       -19.1675
  36   2.0000      -0.699843       -19.0437
  37   2.0000      -0.659301       -17.9405
  38   2.0000      -0.643884       -17.5210
  39   2.0000      -0.623523       -16.9669
  40   2.0000      -0.592956       -16.1352
  41   2.0000      -0.570204       -15.5160
  42   2.0000      -0.561415       -15.2769
  43   2.0000      -0.557960       -15.1829
  44   2.0000      -0.526731       -14.3331
  45   2.0000      -0.519298       -14.1308
  46   2.0000      -0.515970       -14.0403
  47   2.0000      -0.512790       -13.9537
  48   2.0000      -0.505751       -13.7622
  49   2.0000      -0.501921       -13.6580
  50   2.0000      -0.497732       -13.5440
  51   2.0000      -0.479024       -13.0349
  52   2.0000      -0.470325       -12.7982
  53   2.0000      -0.467617       -12.7245
  54   2.0000      -0.460465       -12.5299
  55   2.0000      -0.447709       -12.1828
  56   2.0000      -0.445274       -12.1165
  57   2.0000      -0.442385       -12.0379
  58   2.0000      -0.433544       -11.7973
  59   2.0000      -0.426209       -11.5977
  60   2.0000      -0.419024       -11.4022
  61   2.0000      -0.417443       -11.3592
  62   2.0000      -0.411730       -11.2037
  63   2.0000      -0.350528        -9.5383
  64   2.0000      -0.333519        -9.0755
  65   2.0000      -0.329504        -8.9663
  66   2.0000      -0.288127        -7.8403
  67   0.0000       0.027094         0.7373
  68   0.0000       0.065553         1.7838
  69   0.0000       0.110444         3.0053
  70   0.0000       0.127539         3.4705
  71   0.0000       0.129779         3.5315

MULLIKEN ATOMIC CHARGES
-----------------------
   0 S :    0.104801
   1 C :   -0.105602
   2 C :   -0.092854
   3 C :    0.050555
   4 C :   -0.151860
   5 H :   -0.004084
   6 C :    0.111494
   7 H :   -0.011857
   8 H :    0.043087
   9 C :   -0.090389
  10 H :    0.025070
  11 H :    0.035423
  12 C :   -0.028357
  13 H :    0.027089
  14 H :    0.022379
  15 H :    0.027524
  16 S :    0.110360
  17 C :   -0.080860
  18 C :   -0.071436
  19 C :    0.012515
  20 C :   -0.164174
  21 H :    0.020700
  22 C :    0.013346
  23 H :    0.028235
  24 H :    0.043234
  25 C :   -0.036761
  26 H :    0.013043
  27 H :    0.013671
  28 C :   -0.035671
  29 H :    0.043144
  30 H :    0.023340
  31 H :    0.016990
  32 H :    0.039770
  33 H :    0.048135
Sum of atomic charges:    0.0000000

LOEWDIN ATOMIC CHARGES
----------------------
   0 S :    0.387298
   1 C :   -0.195368
   2 C :   -0.063552
   3 C :   -0.039951
   4 C :   -0.170610
   5 H :    0.022599
   6 C :   -0.025339
   7 H :    0.019462
   8 H :    0.035979
   9 C :   -0.030344
  10 H :    0.019343
  11 H :    0.023959
  12 C :   -0.063099
  13 H :    0.022015
  14 H :    0.027659
  15 H :    0.017437
  16 S :    0.423103
  17 C :   -0.205420
  18 C :   -0.084005
  19 C :   -0.063004
  20 C :   -0.196428
  21 H :    0.034231
  22 C :   -0.032271
  23 H :    0.029842
  24 H :    0.039474
  25 C :   -0.034849
  26 H :    0.015109
  27 H :    0.016663
  28 C :   -0.060502
  29 H :    0.026617
  30 H :    0.024605
  31 H :    0.022577
  32 H :    0.024435
  33 H :    0.032335

  Mayer bond orders larger than 0.100000
B(  0-S ,  1-C ) :   1.1395 B(  0-S ,  4-C ) :   1.1272 B(  1-C ,  2-C ) :   1.6224
B(  1-C , 32-H ) :   0.9633 B(  2-C ,  3-C ) :   1.2184 B(  2-C ,  6-C ) :   1.0320
B(  3-C ,  4-C ) :   1.5813 B(  3-C ,  5-H ) :   0.9973 B(  4-C , 20-C ) :   1.0650
B(  6-C ,  7-H ) :   0.9266 B(  6-C ,  8-H ) :   0.9449 B(  6-C ,  9-C ) :   1.0527
B(  9-C , 10-H ) :   0.9575 B(  9-C , 11-H ) :   0.9625 B(  9-C , 12-C ) :   1.0756
B( 12-C , 13-H ) :   0.9780 B( 12-C , 14-H ) :   0.9735 B( 12-C , 15-H ) :   0.9775
B( 16-S , 17-C ) :   1.1660 B( 16-S , 20-C ) :   1.1496 B( 17-C , 18-C ) :   1.5971
B( 17-C , 20-C ) :   0.1041 B( 17-C , 33-H ) :   0.9684 B( 18-C , 19-C ) :   1.2650
B( 18-C , 21-H ) :   0.9888 B( 19-C , 20-C ) :   1.5700 B( 19-C , 22-C ) :   1.0271
B( 22-C , 23-H ) :   0.9537 B( 22-C , 24-H ) :   0.9382 B( 22-C , 25-C ) :   1.0457
B( 25-C , 26-H ) :   0.9502 B( 25-C , 27-H ) :   0.9578 B( 25-C , 28-C ) :   1.0905
B( 28-C , 29-H ) :   0.9778 B( 28-C , 30-H ) :   0.9735 B( 28-C , 31-H ) :   0.9710

Dispersion correction           -0.013795689
FINAL SINGLE POINT ENERGY     -1339.868154789254

DIPOLE MOMENT
-------------
                                X             Y             Z
Electronic contribution:    -10.97534     -28.41734     -12.05255
Nuclear contribution   :     11.13082      28.92803      12.42232
                        -----------------------------------------
Total Dipole Moment    :      0.15548       0.51070       0.36977
                        -----------------------------------------
Magnitude (a.u.)       :      0.64940
Magnitude (Debye)      :      1.65063

Rotational constants in cm-1:     0.016555     0.009166     0.006306
Rotational constants in MHz :   496.302763   274.786018   189.050351

                             ****ORCA TERMINATED NORMALLY****
TOTAL RUN TIME: 0 days 0 hours 0 minutes 20 seconds 239 msec
