                         Program Version 4.2.1 -  RELEASE  -
|  1> ! wB97X-D3 SP def2-SVP
|  2> %pal
|  3> nprocs 24
|  4> end
|  5>
|  6> * xyz 0 1
|  7> S 	 -53.7028 	 -58.3665 	 -79.4611
|  8> C 	 -54.058 	 -56.874 	 -78.6373
|  9> C 	 -55.4305 	 -56.571 	 -78.6396
| 10> C 	 -56.1357 	 -57.5329 	 -79.4896
| 11> C 	 -55.3295 	 -58.5393 	 -79.9811
| 12> H 	 -57.2009 	 -57.4833 	 -79.6167
| 13> C 	 -56.1188 	 -55.3023 	 -78.112
| 14> H 	 -55.3953 	 -54.6469 	 -77.5439
| 15> H 	 -56.8265 	 -55.7368 	 -77.2999
| 16> C 	 -56.9071 	 -54.5225 	 -79.0739
| 17> H 	 -56.2494 	 -54.2018 	 -79.9179
| 18> H 	 -57.558 	 -55.282 	 -79.587
| 19> C 	 -57.6407 	 -53.3419 	 -78.4071
| 20> H 	 -57.0575 	 -52.9061 	 -77.632
| 21> H 	 -57.8901 	 -52.5354 	 -79.1566
| 22> H 	 -58.4524 	 -53.7467 	 -77.9617
| 23> S 	 -55.136 	 -61.1796 	 -80.3595
| 24> C 	 -56.2064 	 -61.976 	 -81.5196
| 25> C 	 -56.8048 	 -61.0972 	 -82.338
| 26> C 	 -56.6374 	 -59.7302 	 -81.9496
| 27> C 	 -55.7476 	 -59.6411 	 -80.868
| 28> H 	 -57.5193 	 -61.4573 	 -83.0871
| 29> C 	 -57.5926 	 -58.6507 	 -82.4555
| 30> H 	 -56.9781 	 -57.6983 	 -82.4404
| 31> H 	 -58.3916 	 -58.5489 	 -81.7282
| 32> C 	 -58.1404 	 -58.9469 	 -83.8984
| 33> H 	 -58.8321 	 -58.1613 	 -84.1947
| 34> H 	 -58.6254 	 -59.8858 	 -83.9202
| 35> C 	 -57.0307 	 -59.0195 	 -84.9613
| 36> H 	 -57.4517 	 -59.0948 	 -85.9277
| 37> H 	 -56.2033 	 -59.7558 	 -84.8046
| 38> H 	 -56.5999 	 -57.9984 	 -85.0085
| 39> H 	 -53.2373 	 -56.294 	 -78.2684
| 40> H 	 -56.3953 	 -63.0569 	 -81.5761
| 41> *
| 42>
| 43>                          ****END OF INPUT****

CARTESIAN COORDINATES (ANGSTROEM)
---------------------------------
  S    -53.702800  -58.366500  -79.461100
  C    -54.058000  -56.874000  -78.637300
  C    -55.430500  -56.571000  -78.639600
  C    -56.135700  -57.532900  -79.489600
  C    -55.329500  -58.539300  -79.981100
  H    -57.200900  -57.483300  -79.616700
  C    -56.118800  -55.302300  -78.112000
  H    -55.395300  -54.646900  -77.543900
  H    -56.826500  -55.736800  -77.299900
  C    -56.907100  -54.522500  -79.073900
  H    -56.249400  -54.201800  -79.917900
  H    -57.558000  -55.282000  -79.587000
  C    -57.640700  -53.341900  -78.407100
  H    -57.057500  -52.906100  -77.632000
  H    -57.890100  -52.535400  -79.156600
  H    -58.452400  -53.746700  -77.961700
  S    -55.136000  -61.179600  -80.359500
  C    -56.206400  -61.976000  -81.519600
  C    -56.804800  -61.097200  -82.338000
  C    -56.637400  -59.730200  -81.949600
  C    -55.747600  -59.641100  -80.868000
  H    -57.519300  -61.457300  -83.087100
  C    -57.592600  -58.650700  -82.455500
  H    -56.978100  -57.698300  -82.440400
  H    -58.391600  -58.548900  -81.728200
  C    -58.140400  -58.946900  -83.898400
  H    -58.832100  -58.161300  -84.194700
  H    -58.625400  -59.885800  -83.920200
  C    -57.030700  -59.019500  -84.961300
  H    -57.451700  -59.094800  -85.927700
  H    -56.203300  -59.755800  -84.804600
  H    -56.599900  -57.998400  -85.008500
  H    -53.237300  -56.294000  -78.268400
  H    -56.395300  -63.056900  -81.576100

 Total Charge           Charge          ....    0
 Multiplicity           Mult            ....    1
 Number of Electrons    NEL             ....  134
 Basis Dimension        Dim             ....  322

ORBITAL ENERGIES
----------------

  NO   OCC          E(Eh)            E(eV)
   0   2.0000     -88.965155     -2420.8649
   1   2.0000     -88.963188     -2420.8114
   2   2.0000     -10.328216      -281.0451
   3   2.0000     -10.326447      -280.9969
   4   2.0000     -10.314167      -280.6628
   5   2.0000     -10.314154      -280.6624
   6   2.0000     -10.308597      -280.5112
   7   2.0000     -10.304628      -280.4032
   8   2.0000     -10.301786      -280.3258
   9   2.0000     -10.300006      -280.2774
  10   2.0000     -10.294243      -280.1206
  11   2.0000     -10.290051      -280.0065
  12   2.0000     -10.289580      -279.9937
  13   2.0000     -10.288683      -279.9693
  14   2.0000     -10.276514      -279.6382
  15   2.0000     -10.275830      -279.6195
  16   2.0000      -8.080812      -219.8901
  17   2.0000      -8.078320      -219.8223
  18   2.0000      -6.039253      -164.3364
  19   2.0000      -6.036846      -164.2709
  20   2.0000      -6.035200      -164.2262
  21   2.0000      -6.032854      -164.1623
  22   2.0000      -6.031600      -164.1282
  23   2.0000      -6.028952      -164.0561
  24   2.0000      -1.008265       -27.4363
  25   2.0000      -0.984166       -26.7805
  26   2.0000      -0.919029       -25.0081
  27   2.0000      -0.906642       -24.6710
  28   2.0000      -0.870178       -23.6787
  29   2.0000      -0.850196       -23.1350
  30   2.0000      -0.843453       -22.9515
  31   2.0000      -0.814769       -22.1710
  32   2.0000      -0.783176       -21.3113
  33   2.0000      -0.771725       -20.9997
  34   2.0000      -0.708556       -19.2808
  35   2.0000      -0.697615       -18.9831
  36   2.0000      -0.690361       -18.7857
  37   2.0000      -0.655563       -17.8388
  38   2.0000      -0.641061       -17.4442
  39   2.0000      -0.625456       -17.0195
  40   2.0000      -0.596551       -16.2330
  41   2.0000      -0.567601       -15.4452
  42   2.0000      -0.561773       -15.2866
  43   2.0000      -0.554205       -15.0807
  44   2.0000      -0.538657       -14.6576
  45   2.0000      -0.523354       -14.2412
  46   2.0000      -0.520611       -14.1665
  47   2.0000      -0.511038       -13.9061
  48   2.0000      -0.501606       -13.6494
  49   2.0000      -0.498350       -13.5608
  50   2.0000      -0.489978       -13.3330
  51   2.0000      -0.478286       -13.0148
  52   2.0000      -0.471982       -12.8433
  53   2.0000      -0.465029       -12.6541
  54   2.0000      -0.458712       -12.4822
  55   2.0000      -0.450359       -12.2549
  56   2.0000      -0.447875       -12.1873
  57   2.0000      -0.442540       -12.0421
  58   2.0000      -0.438608       -11.9351
  59   2.0000      -0.423858       -11.5338
  60   2.0000      -0.420765       -11.4496
  61   2.0000      -0.419161       -11.4059
  62   2.0000      -0.406358       -11.0576
  63   2.0000      -0.353779        -9.6268
  64   2.0000      -0.329608        -8.9691
  65   2.0000      -0.326394        -8.8816
  66   2.0000      -0.287453        -7.8220
  67   0.0000       0.034732         0.9451
  68   0.0000       0.072128         1.9627
  69   0.0000       0.105619         2.8740
  70   0.0000       0.119926         3.2634
  71   0.0000       0.132788         3.6133

MULLIKEN ATOMIC CHARGES
-----------------------
   0 S :    0.110798
   1 C :   -0.135810
   2 C :   -0.047692
   3 C :   -0.023400
   4 C :   -0.111949
   5 H :    0.013432
   6 C :    0.002325
   7 H :    0.028686
   8 H :    0.044365
   9 C :   -0.100260
  10 H :    0.035325
  11 H :    0.025430
  12 C :    0.014155
  13 H :    0.021792
  14 H :    0.048506
  15 H :    0.010614
  16 S :    0.095900
  17 C :   -0.093437
  18 C :   -0.043117
  19 C :   -0.052110
  20 C :   -0.147807
  21 H :    0.026146
  22 C :    0.040863
  23 H :    0.044459
  24 H :    0.051369
  25 C :   -0.061055
  26 H :    0.033549
  27 H :    0.022778
  28 C :   -0.066907
  29 H :    0.022696
  30 H :    0.061087
  31 H :    0.023625
  32 H :    0.046552
  33 H :    0.059089
Sum of atomic charges:   -0.0000000

LOEWDIN ATOMIC CHARGES
----------------------
   0 S :    0.418074
   1 C :   -0.199494
   2 C :   -0.055642
   3 C :   -0.071279
   4 C :   -0.203299
   5 H :    0.025501
   6 C :   -0.044085
   7 H :    0.030474
   8 H :    0.040769
   9 C :   -0.052762
  10 H :    0.027577
  11 H :    0.025979
  12 C :   -0.050300
  13 H :    0.023061
  14 H :    0.038305
  15 H :    0.012960
  16 S :    0.398330
  17 C :   -0.179731
  18 C :   -0.076648
  19 C :   -0.060583
  20 C :   -0.197020
  21 H :    0.035763
  22 C :   -0.031148
  23 H :    0.039406
  24 H :    0.031213
  25 C :   -0.036803
  26 H :    0.028945
  27 H :    0.013655
  28 C :   -0.069213
  29 H :    0.019922
  30 H :    0.033341
  31 H :    0.028426
  32 H :    0.022106
  33 H :    0.034201

  Mayer bond orders larger than 0.100000
B(  0-S ,  1-C ) :   1.1414 B(  0-S ,  4-C ) :   1.1620 B(  1-C ,  2-C ) :   1.6039
B(  1-C , 32-H ) :   0.9744 B(  2-C ,  3-C ) :   1.2263 B(  2-C ,  6-C ) :   1.0179
B(  3-C ,  4-C ) :   1.5769 B(  3-C ,  5-H ) :   0.9950 B(  4-C , 20-C ) :   1.0163
B(  6-C ,  7-H ) :   0.9450 B(  6-C ,  8-H ) :   0.9338 B(  6-C ,  9-C ) :   1.0688
B(  9-C , 10-H ) :   0.9543 B(  9-C , 11-H ) :   0.9489 B(  9-C , 12-C ) :   1.0618
B( 12-C , 13-H ) :   0.9740 B( 12-C , 14-H ) :   0.9749 B( 12-C , 15-H ) :   0.9746
B( 16-S , 17-C ) :   1.1334 B( 16-S , 20-C ) :   1.1477 B( 17-C , 18-C ) :   1.6582
B( 17-C , 33-H ) :   0.9606 B( 18-C , 19-C ) :   1.2145 B( 18-C , 21-H ) :   0.9808
B( 19-C , 20-C ) :   1.6163 B( 19-C , 22-C ) :   1.0260 B( 22-C , 23-H ) :   0.9346
B( 22-C , 24-H ) :   0.9382 B( 22-C , 25-C ) :   1.0714 B( 25-C , 26-H ) :   0.9542
B( 25-C , 27-H ) :   0.9517 B( 25-C , 28-C ) :   1.0800 B( 28-C , 29-H ) :   0.9729
B( 28-C , 30-H ) :   0.9738 B( 28-C , 31-H ) :   0.9730

Dispersion correction           -0.013884060
FINAL SINGLE POINT ENERGY     -1339.874739783473

DIPOLE MOMENT
-------------
                                X             Y             Z
Electronic contribution:     17.98937     -20.62016       9.00053
Nuclear contribution   :    -18.65678      21.03759      -9.17541
                        -----------------------------------------
Total Dipole Moment    :     -0.66742       0.41744      -0.17488
                        -----------------------------------------
Magnitude (a.u.)       :      0.80640
Magnitude (Debye)      :      2.04971

Rotational constants in cm-1:     0.018104     0.008517     0.006360
Rotational constants in MHz :   542.731257   255.323246   190.669157

                             ****ORCA TERMINATED NORMALLY****
TOTAL RUN TIME: 0 days 0 hours 0 minutes 21 seconds 394 msec
