                         Program Version 4.2.1 -  RELEASE  -
|  1> ! wB97X-D3 SP def2-SVP
|  2> %pal
|  3> nprocs 24
|  4> end
|  5>
|  6> * xyz 0 1
|  7> S 	 -35.2578 	 6.09956 	 4.44954
|  8> C 	 -34.858 	 4.92103 	 3.16054
|  9> C 	 -33.5384 	 5.189 	 2.67304
| 10> C 	 -32.8551 	 6.01104 	 3.60898
| 11> C 	 -33.5922 	 6.65591 	 4.57819
| 12> H 	 -31.7493 	 6.15389 	 3.54086
| 13> C 	 -32.8157 	 4.43721 	 1.52819
| 14> H 	 -32.4191 	 5.18713 	 0.907046
| 15> H 	 -33.5787 	 3.92625 	 0.972721
| 16> C 	 -31.7505 	 3.41453 	 1.96748
| 17> H 	 -31.0173 	 4.03016 	 2.46479
| 18> H 	 -32.2762 	 2.76911 	 2.75959
| 19> C 	 -31.1605 	 2.65323 	 0.701507
| 20> H 	 -30.9314 	 3.39365 	 -0.0809906
| 21> H 	 -30.2274 	 2.11502 	 0.909637
| 22> H 	 -31.8741 	 1.90175 	 0.330106
| 23> S 	 -31.6723 	 8.36695 	 5.08247
| 24> C 	 -31.7404 	 9.28781 	 6.61884
| 25> C 	 -32.833 	 8.98192 	 7.40181
| 26> C 	 -33.7077 	 8.05727 	 6.75579
| 27> C 	 -33.1733 	 7.64628 	 5.51963
| 28> H 	 -33.0016 	 9.5036 	 8.30825
| 29> C 	 -35.056 	 7.58935 	 7.27217
| 30> H 	 -35.1316 	 6.49028 	 7.33886
| 31> H 	 -35.8535 	 7.9176 	 6.59156
| 32> C 	 -35.4094 	 7.97174 	 8.69643
| 33> H 	 -36.3677 	 7.63188 	 8.85643
| 34> H 	 -35.5331 	 9.09331 	 8.83726
| 35> C 	 -34.4903 	 7.32508 	 9.78838
| 36> H 	 -34.6875 	 7.60681 	 10.9016
| 37> H 	 -33.3581 	 7.56219 	 9.83339
| 38> H 	 -34.4111 	 6.21054 	 9.63765
| 39> H 	 -35.6042 	 4.4045 	 2.59363
| 40> H 	 -30.962 	 9.94401 	 6.9468
| 41> *
| 42>
| 43>                          ****END OF INPUT****

CARTESIAN COORDINATES (ANGSTROEM)
---------------------------------
  S    -35.257800    6.099560    4.449540
  C    -34.858000    4.921030    3.160540
  C    -33.538400    5.189000    2.673040
  C    -32.855100    6.011040    3.608980
  C    -33.592200    6.655910    4.578190
  H    -31.749300    6.153890    3.540860
  C    -32.815700    4.437210    1.528190
  H    -32.419100    5.187130    0.907046
  H    -33.578700    3.926250    0.972721
  C    -31.750500    3.414530    1.967480
  H    -31.017300    4.030160    2.464790
  H    -32.276200    2.769110    2.759590
  C    -31.160500    2.653230    0.701507
  H    -30.931400    3.393650   -0.080991
  H    -30.227400    2.115020    0.909637
  H    -31.874100    1.901750    0.330106
  S    -31.672300    8.366950    5.082470
  C    -31.740400    9.287810    6.618840
  C    -32.833000    8.981920    7.401810
  C    -33.707700    8.057270    6.755790
  C    -33.173300    7.646280    5.519630
  H    -33.001600    9.503600    8.308250
  C    -35.056000    7.589350    7.272170
  H    -35.131600    6.490280    7.338860
  H    -35.853500    7.917600    6.591560
  C    -35.409400    7.971740    8.696430
  H    -36.367700    7.631880    8.856430
  H    -35.533100    9.093310    8.837260
  C    -34.490300    7.325080    9.788380
  H    -34.687500    7.606810   10.901600
  H    -33.358100    7.562190    9.833390
  H    -34.411100    6.210540    9.637650
  H    -35.604200    4.404500    2.593630
  H    -30.962000    9.944010    6.946800

 Total Charge           Charge          ....    0
 Multiplicity           Mult            ....    1
 Number of Electrons    NEL             ....  134
 Basis Dimension        Dim             ....  322

ORBITAL ENERGIES
----------------

  NO   OCC          E(Eh)            E(eV)
   0   2.0000     -88.969338     -2420.9788
   1   2.0000     -88.965768     -2420.8816
   2   2.0000     -10.329606      -281.0829
   3   2.0000     -10.325379      -280.9678
   4   2.0000     -10.317885      -280.7639
   5   2.0000     -10.317383      -280.7503
   6   2.0000     -10.307897      -280.4921
   7   2.0000     -10.307433      -280.4795
   8   2.0000     -10.297526      -280.2099
   9   2.0000     -10.296285      -280.1762
  10   2.0000     -10.295969      -280.1676
  11   2.0000     -10.295534      -280.1557
  12   2.0000     -10.292423      -280.0711
  13   2.0000     -10.292053      -280.0610
  14   2.0000     -10.288536      -279.9653
  15   2.0000     -10.288336      -279.9598
  16   2.0000      -8.083787      -219.9710
  17   2.0000      -8.078959      -219.8397
  18   2.0000      -6.042247      -164.4179
  19   2.0000      -6.038476      -164.3153
  20   2.0000      -6.037531      -164.2896
  21   2.0000      -6.034478      -164.2065
  22   2.0000      -6.033646      -164.1839
  23   2.0000      -6.029779      -164.0786
  24   2.0000      -1.007387       -27.4124
  25   2.0000      -0.977184       -26.5905
  26   2.0000      -0.912306       -24.8251
  27   2.0000      -0.906750       -24.6739
  28   2.0000      -0.871173       -23.7058
  29   2.0000      -0.848611       -23.0919
  30   2.0000      -0.834618       -22.7111
  31   2.0000      -0.811059       -22.0700
  32   2.0000      -0.781409       -21.2632
  33   2.0000      -0.770196       -20.9581
  34   2.0000      -0.711068       -19.3491
  35   2.0000      -0.702627       -19.1195
  36   2.0000      -0.690982       -18.8026
  37   2.0000      -0.670201       -18.2371
  38   2.0000      -0.628175       -17.0935
  39   2.0000      -0.620203       -16.8766
  40   2.0000      -0.601366       -16.3640
  41   2.0000      -0.567564       -15.4442
  42   2.0000      -0.561633       -15.2828
  43   2.0000      -0.556274       -15.1370
  44   2.0000      -0.533405       -14.5147
  45   2.0000      -0.516430       -14.0528
  46   2.0000      -0.513824       -13.9819
  47   2.0000      -0.507210       -13.8019
  48   2.0000      -0.498901       -13.5758
  49   2.0000      -0.494754       -13.4630
  50   2.0000      -0.489065       -13.3081
  51   2.0000      -0.481583       -13.1045
  52   2.0000      -0.469015       -12.7626
  53   2.0000      -0.463510       -12.6127
  54   2.0000      -0.457947       -12.4614
  55   2.0000      -0.453622       -12.3437
  56   2.0000      -0.441103       -12.0030
  57   2.0000      -0.436219       -11.8701
  58   2.0000      -0.434124       -11.8131
  59   2.0000      -0.428514       -11.6605
  60   2.0000      -0.423062       -11.5121
  61   2.0000      -0.412717       -11.2306
  62   2.0000      -0.409836       -11.1522
  63   2.0000      -0.359015        -9.7693
  64   2.0000      -0.334713        -9.1080
  65   2.0000      -0.328572        -8.9409
  66   2.0000      -0.277112        -7.5406
  67   0.0000       0.015955         0.4342
  68   0.0000       0.077300         2.1034
  69   0.0000       0.107202         2.9171
  70   0.0000       0.117053         3.1852
  71   0.0000       0.125808         3.4234

MULLIKEN ATOMIC CHARGES
-----------------------
   0 S :    0.073755
   1 C :   -0.100280
   2 C :   -0.110908
   3 C :   -0.048288
   4 C :   -0.109185
   5 H :    0.032327
   6 C :    0.075134
   7 H :    0.022700
   8 H :    0.008926
   9 C :   -0.091670
  10 H :    0.028163
  11 H :    0.052849
  12 C :   -0.058483
  13 H :    0.036885
  14 H :    0.042084
  15 H :    0.043895
  16 S :    0.096298
  17 C :   -0.077316
  18 C :   -0.016657
  19 C :   -0.048872
  20 C :   -0.109815
  21 H :    0.015014
  22 C :    0.023509
  23 H :    0.042724
  24 H :    0.054540
  25 C :   -0.013383
  26 H :    0.013354
  27 H :    0.033722
  28 C :   -0.144782
  29 H :    0.051678
  30 H :    0.040957
  31 H :    0.044498
  32 H :    0.051370
  33 H :    0.045259
Sum of atomic charges:    0.0000000

LOEWDIN ATOMIC CHARGES
----------------------
   0 S :    0.396127
   1 C :   -0.193927
   2 C :   -0.050529
   3 C :   -0.094073
   4 C :   -0.185201
   5 H :    0.027022
   6 C :   -0.027759
   7 H :    0.023565
   8 H :    0.023636
   9 C :   -0.039605
  10 H :    0.018677
  11 H :    0.036444
  12 C :   -0.068151
  13 H :    0.028787
  14 H :    0.028364
  15 H :    0.029388
  16 S :    0.415121
  17 C :   -0.168412
  18 C :   -0.057984
  19 C :   -0.054442
  20 C :   -0.196802
  21 H :    0.030273
  22 C :   -0.044347
  23 H :    0.034392
  24 H :    0.034393
  25 C :   -0.041007
  26 H :    0.019686
  27 H :    0.028244
  28 C :   -0.097299
  29 H :    0.037981
  30 H :    0.031924
  31 H :    0.031209
  32 H :    0.021664
  33 H :    0.022639

  Mayer bond orders larger than 0.100000
B(  0-S ,  1-C ) :   1.1343 B(  0-S ,  4-C ) :   1.1340 B(  1-C ,  2-C ) :   1.5814
B(  1-C ,  4-C ) :   0.1051 B(  1-C , 32-H ) :   0.9651 B(  2-C ,  3-C ) :   1.2653
B(  2-C ,  6-C ) :   1.0364 B(  3-C ,  4-C ) :   1.5624 B(  3-C ,  5-H ) :   0.9641
B(  4-C , 20-C ) :   1.1094 B(  6-C ,  7-H ) :   0.9324 B(  6-C ,  8-H ) :   0.9445
B(  6-C ,  9-C ) :   1.0526 B(  9-C , 10-H ) :   0.9573 B(  9-C , 11-H ) :   0.9599
B(  9-C , 12-C ) :   1.0625 B( 12-C , 13-H ) :   0.9752 B( 12-C , 14-H ) :   0.9772
B( 12-C , 15-H ) :   0.9780 B( 16-S , 17-C ) :   1.1373 B( 16-S , 20-C ) :   1.1476
B( 17-C , 18-C ) :   1.6199 B( 17-C , 33-H ) :   0.9667 B( 18-C , 19-C ) :   1.2494
B( 18-C , 21-H ) :   0.9886 B( 19-C , 20-C ) :   1.5489 B( 19-C , 22-C ) :   1.0290
B( 22-C , 23-H ) :   0.9267 B( 22-C , 24-H ) :   0.9291 B( 22-C , 25-C ) :   1.0976
B( 25-C , 26-H ) :   0.9462 B( 25-C , 27-H ) :   0.9475 B( 25-C , 28-C ) :   1.0493
B( 28-C , 29-H ) :   0.9753 B( 28-C , 30-H ) :   0.9746 B( 28-C , 31-H ) :   0.9717

Dispersion correction           -0.013713458
FINAL SINGLE POINT ENERGY     -1339.865151894071

DIPOLE MOMENT
-------------
                                X             Y             Z
Electronic contribution:     -1.62028      12.15390      -2.18870
Nuclear contribution   :      1.71299     -12.22170       2.23865
                        -----------------------------------------
Total Dipole Moment    :      0.09271      -0.06779       0.04995
                        -----------------------------------------
Magnitude (a.u.)       :      0.12524
Magnitude (Debye)      :      0.31834

Rotational constants in cm-1:     0.024617     0.007058     0.006036
Rotational constants in MHz :   738.003583   211.580538   180.941234

                             ****ORCA TERMINATED NORMALLY****
TOTAL RUN TIME: 0 days 0 hours 0 minutes 19 seconds 939 msec
