                         Program Version 4.2.1 -  RELEASE  -
|  1> ! wB97X-D3 SP def2-SVP
|  2> %pal
|  3> nprocs 24
|  4> end
|  5>
|  6> * xyz 0 1
|  7> S 	 -38.3623 	 14.9074 	 15.8948
|  8> C 	 -38.8003 	 13.4581 	 16.7307
|  9> C 	 -39.8064 	 13.6799 	 17.6429
| 10> C 	 -40.1114 	 15.0663 	 17.7624
| 11> C 	 -39.4147 	 15.8815 	 16.8968
| 12> H 	 -40.8089 	 15.5366 	 18.4297
| 13> C 	 -40.5083 	 12.5513 	 18.3895
| 14> H 	 -39.6512 	 11.9902 	 18.8663
| 15> H 	 -40.8497 	 11.9787 	 17.4828
| 16> C 	 -41.7405 	 12.9395 	 19.2326
| 17> H 	 -41.4391 	 13.3746 	 20.2006
| 18> H 	 -42.3618 	 13.6136 	 18.642
| 19> C 	 -42.6326 	 11.7304 	 19.5012
| 20> H 	 -42.7101 	 11.2021 	 18.5198
| 21> H 	 -42.1639 	 11.0203 	 20.1845
| 22> H 	 -43.5882 	 12.0064 	 20.0702
| 23> S 	 -40.3669 	 17.9822 	 15.5289
| 24> C 	 -39.9343 	 19.5683 	 15.9956
| 25> C 	 -38.8007 	 19.5492 	 16.7632
| 26> C 	 -38.3494 	 18.246 	 17.1478
| 27> C 	 -39.3508 	 17.3294 	 16.7615
| 28> H 	 -38.2186 	 20.4712 	 16.9442
| 29> C 	 -37.0169 	 17.8808 	 17.8494
| 30> H 	 -36.4665 	 17.4188 	 17.0692
| 31> H 	 -37.28 	 16.9602 	 18.5095
| 32> C 	 -36.25 	 18.9914 	 18.6547
| 33> H 	 -36.1424 	 19.9337 	 18.0849
| 34> H 	 -35.1416 	 18.6816 	 18.7846
| 35> C 	 -37.0336 	 19.4377 	 19.9599
| 36> H 	 -37.9614 	 20.0123 	 19.6695
| 37> H 	 -36.4143 	 20.1023 	 20.6042
| 38> H 	 -37.3958 	 18.5405 	 20.554
| 39> H 	 -38.5098 	 12.5146 	 16.2471
| 40> H 	 -40.3044 	 20.5192 	 15.6719
| 41> *
| 42>
| 43>                          ****END OF INPUT****

CARTESIAN COORDINATES (ANGSTROEM)
---------------------------------
  S    -38.362300   14.907400   15.894800
  C    -38.800300   13.458100   16.730700
  C    -39.806400   13.679900   17.642900
  C    -40.111400   15.066300   17.762400
  C    -39.414700   15.881500   16.896800
  H    -40.808900   15.536600   18.429700
  C    -40.508300   12.551300   18.389500
  H    -39.651200   11.990200   18.866300
  H    -40.849700   11.978700   17.482800
  C    -41.740500   12.939500   19.232600
  H    -41.439100   13.374600   20.200600
  H    -42.361800   13.613600   18.642000
  C    -42.632600   11.730400   19.501200
  H    -42.710100   11.202100   18.519800
  H    -42.163900   11.020300   20.184500
  H    -43.588200   12.006400   20.070200
  S    -40.366900   17.982200   15.528900
  C    -39.934300   19.568300   15.995600
  C    -38.800700   19.549200   16.763200
  C    -38.349400   18.246000   17.147800
  C    -39.350800   17.329400   16.761500
  H    -38.218600   20.471200   16.944200
  C    -37.016900   17.880800   17.849400
  H    -36.466500   17.418800   17.069200
  H    -37.280000   16.960200   18.509500
  C    -36.250000   18.991400   18.654700
  H    -36.142400   19.933700   18.084900
  H    -35.141600   18.681600   18.784600
  C    -37.033600   19.437700   19.959900
  H    -37.961400   20.012300   19.669500
  H    -36.414300   20.102300   20.604200
  H    -37.395800   18.540500   20.554000
  H    -38.509800   12.514600   16.247100
  H    -40.304400   20.519200   15.671900

 Total Charge           Charge          ....    0
 Multiplicity           Mult            ....    1
 Number of Electrons    NEL             ....  134
 Basis Dimension        Dim             ....  322

ORBITAL ENERGIES
----------------

  NO   OCC          E(Eh)            E(eV)
   0   2.0000     -88.963706     -2420.8255
   1   2.0000     -88.959093     -2420.7000
   2   2.0000     -10.322967      -280.9022
   3   2.0000     -10.319245      -280.8009
   4   2.0000     -10.308755      -280.5155
   5   2.0000     -10.308593      -280.5111
   6   2.0000     -10.307956      -280.4938
   7   2.0000     -10.305353      -280.4229
   8   2.0000     -10.302453      -280.3440
   9   2.0000     -10.301358      -280.3142
  10   2.0000     -10.300955      -280.3032
  11   2.0000     -10.292636      -280.0769
  12   2.0000     -10.291919      -280.0574
  13   2.0000     -10.291477      -280.0453
  14   2.0000     -10.290255      -280.0121
  15   2.0000     -10.286258      -279.9033
  16   2.0000      -8.079534      -219.8553
  17   2.0000      -8.074484      -219.7179
  18   2.0000      -6.037933      -164.3005
  19   2.0000      -6.034122      -164.1968
  20   2.0000      -6.032809      -164.1611
  21   2.0000      -6.030117      -164.0878
  22   2.0000      -6.028785      -164.0516
  23   2.0000      -6.025530      -163.9630
  24   2.0000      -1.010220       -27.4895
  25   2.0000      -0.987846       -26.8807
  26   2.0000      -0.911589       -24.8056
  27   2.0000      -0.896092       -24.3839
  28   2.0000      -0.870425       -23.6855
  29   2.0000      -0.845960       -23.0197
  30   2.0000      -0.840707       -22.8768
  31   2.0000      -0.816618       -22.2213
  32   2.0000      -0.778559       -21.1857
  33   2.0000      -0.764456       -20.8019
  34   2.0000      -0.709485       -19.3061
  35   2.0000      -0.697447       -18.9785
  36   2.0000      -0.682888       -18.5823
  37   2.0000      -0.649116       -17.6634
  38   2.0000      -0.642106       -17.4726
  39   2.0000      -0.615373       -16.7451
  40   2.0000      -0.591374       -16.0921
  41   2.0000      -0.577679       -15.7194
  42   2.0000      -0.559445       -15.2233
  43   2.0000      -0.549014       -14.9394
  44   2.0000      -0.524437       -14.2707
  45   2.0000      -0.521502       -14.1908
  46   2.0000      -0.516754       -14.0616
  47   2.0000      -0.507009       -13.7964
  48   2.0000      -0.498444       -13.5634
  49   2.0000      -0.497522       -13.5383
  50   2.0000      -0.485993       -13.2246
  51   2.0000      -0.478625       -13.0241
  52   2.0000      -0.469108       -12.7651
  53   2.0000      -0.457136       -12.4393
  54   2.0000      -0.452272       -12.3069
  55   2.0000      -0.448026       -12.1914
  56   2.0000      -0.444288       -12.0897
  57   2.0000      -0.439444       -11.9579
  58   2.0000      -0.430917       -11.7258
  59   2.0000      -0.426704       -11.6112
  60   2.0000      -0.424919       -11.5626
  61   2.0000      -0.415557       -11.3079
  62   2.0000      -0.413537       -11.2529
  63   2.0000      -0.333453        -9.0737
  64   2.0000      -0.326684        -8.8895
  65   2.0000      -0.311224        -8.4688
  66   2.0000      -0.308043        -8.3823
  67   0.0000       0.039627         1.0783
  68   0.0000       0.055012         1.4970
  69   0.0000       0.111917         3.0454
  70   0.0000       0.127120         3.4591
  71   0.0000       0.136818         3.7230

MULLIKEN ATOMIC CHARGES
-----------------------
   0 S :    0.104661
   1 C :   -0.149635
   2 C :   -0.090867
   3 C :    0.047123
   4 C :   -0.191188
   5 H :    0.006447
   6 C :    0.013997
   7 H :    0.060914
   8 H :    0.043036
   9 C :   -0.061741
  10 H :    0.041988
  11 H :    0.040775
  12 C :   -0.069484
  13 H :    0.035708
  14 H :    0.025711
  15 H :    0.051189
  16 S :    0.126537
  17 C :   -0.049184
  18 C :   -0.080517
  19 C :   -0.024383
  20 C :   -0.200554
  21 H :    0.023510
  22 C :    0.070405
  23 H :    0.032876
  24 H :    0.054204
  25 C :   -0.092436
  26 H :    0.035268
  27 H :    0.051164
  28 C :   -0.096129
  29 H :    0.048680
  30 H :    0.046996
  31 H :    0.047249
  32 H :    0.058582
  33 H :    0.039098
Sum of atomic charges:   -0.0000000

LOEWDIN ATOMIC CHARGES
----------------------
   0 S :    0.409059
   1 C :   -0.213787
   2 C :   -0.067823
   3 C :   -0.062839
   4 C :   -0.204037
   5 H :    0.031452
   6 C :   -0.042078
   7 H :    0.043951
   8 H :    0.041592
   9 C :   -0.045288
  10 H :    0.028225
  11 H :    0.029155
  12 C :   -0.073422
  13 H :    0.028926
  14 H :    0.020790
  15 H :    0.036476
  16 S :    0.438455
  17 C :   -0.198962
  18 C :   -0.083655
  19 C :   -0.044612
  20 C :   -0.223832
  21 H :    0.031942
  22 C :   -0.037789
  23 H :    0.029738
  24 H :    0.048458
  25 C :   -0.052793
  26 H :    0.024188
  27 H :    0.037530
  28 C :   -0.076696
  29 H :    0.032350
  30 H :    0.028558
  31 H :    0.030643
  32 H :    0.028669
  33 H :    0.027456

  Mayer bond orders larger than 0.100000
B(  0-S ,  1-C ) :   1.1535 B(  0-S ,  4-C ) :   1.1666 B(  1-C ,  2-C ) :   1.6034
B(  1-C ,  4-C ) :   0.1062 B(  1-C , 32-H ) :   0.9697 B(  2-C ,  3-C ) :   1.2485
B(  2-C ,  6-C ) :   0.9754 B(  3-C ,  4-C ) :   1.5839 B(  3-C ,  5-H ) :   1.0003
B(  4-C , 20-C ) :   0.9944 B(  6-C ,  7-H ) :   0.9423 B(  6-C ,  8-H ) :   0.9423
B(  6-C ,  9-C ) :   1.0816 B(  9-C , 10-H ) :   0.9484 B(  9-C , 11-H ) :   0.9499
B(  9-C , 12-C ) :   1.0840 B( 12-C , 13-H ) :   0.9743 B( 12-C , 14-H ) :   0.9741
B( 12-C , 15-H ) :   0.9723 B( 16-S , 17-C ) :   1.1578 B( 16-S , 20-C ) :   1.1759
B( 17-C , 18-C ) :   1.6031 B( 17-C , 20-C ) :   0.1058 B( 17-C , 33-H ) :   0.9677
B( 18-C , 19-C ) :   1.2620 B( 18-C , 21-H ) :   0.9792 B( 19-C , 20-C ) :   1.5552
B( 19-C , 22-C ) :   1.0149 B( 22-C , 23-H ) :   0.9276 B( 22-C , 24-H ) :   0.9359
B( 22-C , 25-C ) :   1.0590 B( 25-C , 26-H ) :   0.9551 B( 25-C , 27-H ) :   0.9572
B( 25-C , 28-C ) :   1.0528 B( 28-C , 29-H ) :   0.9746 B( 28-C , 30-H ) :   0.9767
B( 28-C , 31-H ) :   0.9783

Dispersion correction           -0.013966297
FINAL SINGLE POINT ENERGY     -1339.862657384166

DIPOLE MOMENT
-------------
                                X             Y             Z
Electronic contribution:      0.18672       5.59369     -21.02308
Nuclear contribution   :     -0.08791      -5.65495      21.35148
                        -----------------------------------------
Total Dipole Moment    :      0.09881      -0.06127       0.32840
                        -----------------------------------------
Magnitude (a.u.)       :      0.34837
Magnitude (Debye)      :      0.88549

Rotational constants in cm-1:     0.019835     0.007214     0.006696
Rotational constants in MHz :   594.625746   216.271867   200.730141

                             ****ORCA TERMINATED NORMALLY****
TOTAL RUN TIME: 0 days 0 hours 0 minutes 21 seconds 999 msec
