                         Program Version 4.2.1 -  RELEASE  -
|  1> ! wB97X-D3 SP def2-SVP
|  2> %pal
|  3> nprocs 24
|  4> end
|  5>
|  6> * xyz 0 1
|  7> S 	 -116.42 	 35.0228 	 -119.268
|  8> C 	 -115.6 	 33.9253 	 -120.4
|  9> C 	 -114.423 	 33.5132 	 -119.893
| 10> C 	 -114.235 	 34.0223 	 -118.604
| 11> C 	 -115.175 	 34.827 	 -118.055
| 12> H 	 -113.291 	 33.9975 	 -118.042
| 13> C 	 -113.312 	 32.6314 	 -120.584
| 14> H 	 -113.847 	 32.2593 	 -121.429
| 15> H 	 -112.99 	 31.7065 	 -120.03
| 16> C 	 -112.059 	 33.3594 	 -121.044
| 17> H 	 -112.311 	 34.2274 	 -121.659
| 18> H 	 -111.64 	 33.8759 	 -120.188
| 19> C 	 -111.092 	 32.4569 	 -121.717
| 20> H 	 -110.204 	 32.8367 	 -122.318
| 21> H 	 -110.717 	 31.7452 	 -121.03
| 22> H 	 -111.669 	 31.8007 	 -122.314
| 23> S 	 -113.313 	 36.4857 	 -116.854
| 24> C 	 -113.753 	 37.4348 	 -115.482
| 25> C 	 -115.087 	 37.3616 	 -115.086
| 26> C 	 -115.799 	 36.3977 	 -115.984
| 27> C 	 -114.938 	 35.7896 	 -116.966
| 28> H 	 -115.486 	 37.9271 	 -114.319
| 29> C 	 -117.246 	 36.0566 	 -115.757
| 30> H 	 -117.498 	 35.0533 	 -116.177
| 31> H 	 -117.931 	 36.8197 	 -116.167
| 32> C 	 -117.761 	 36.1959 	 -114.282
| 33> H 	 -117.556 	 37.117 	 -113.769
| 34> H 	 -117.133 	 35.523 	 -113.71
| 35> C 	 -119.15 	 35.6332 	 -114.006
| 36> H 	 -119.134 	 34.5921 	 -114.134
| 37> H 	 -119.798 	 36.1805 	 -114.638
| 38> H 	 -119.444 	 35.751 	 -113.02
| 39> H 	 -115.958 	 33.7196 	 -121.387
| 40> H 	 -112.995 	 37.9546 	 -114.965
| 41> *
| 42>
| 43>                          ****END OF INPUT****

CARTESIAN COORDINATES (ANGSTROEM)
---------------------------------
  S    -116.420000   35.022800  -119.268000
  C    -115.600000   33.925300  -120.400000
  C    -114.423000   33.513200  -119.893000
  C    -114.235000   34.022300  -118.604000
  C    -115.175000   34.827000  -118.055000
  H    -113.291000   33.997500  -118.042000
  C    -113.312000   32.631400  -120.584000
  H    -113.847000   32.259300  -121.429000
  H    -112.990000   31.706500  -120.030000
  C    -112.059000   33.359400  -121.044000
  H    -112.311000   34.227400  -121.659000
  H    -111.640000   33.875900  -120.188000
  C    -111.092000   32.456900  -121.717000
  H    -110.204000   32.836700  -122.318000
  H    -110.717000   31.745200  -121.030000
  H    -111.669000   31.800700  -122.314000
  S    -113.313000   36.485700  -116.854000
  C    -113.753000   37.434800  -115.482000
  C    -115.087000   37.361600  -115.086000
  C    -115.799000   36.397700  -115.984000
  C    -114.938000   35.789600  -116.966000
  H    -115.486000   37.927100  -114.319000
  C    -117.246000   36.056600  -115.757000
  H    -117.498000   35.053300  -116.177000
  H    -117.931000   36.819700  -116.167000
  C    -117.761000   36.195900  -114.282000
  H    -117.556000   37.117000  -113.769000
  H    -117.133000   35.523000  -113.710000
  C    -119.150000   35.633200  -114.006000
  H    -119.134000   34.592100  -114.134000
  H    -119.798000   36.180500  -114.638000
  H    -119.444000   35.751000  -113.020000
  H    -115.958000   33.719600  -121.387000
  H    -112.995000   37.954600  -114.965000

 Total Charge           Charge          ....    0
 Multiplicity           Mult            ....    1
 Number of Electrons    NEL             ....  134
 Basis Dimension        Dim             ....  322

ORBITAL ENERGIES
----------------

  NO   OCC          E(Eh)            E(eV)
   0   2.0000     -88.968220     -2420.9484
   1   2.0000     -88.963616     -2420.8231
   2   2.0000     -10.335280      -281.2373
   3   2.0000     -10.327158      -281.0163
   4   2.0000     -10.317607      -280.7564
   5   2.0000     -10.317445      -280.7519
   6   2.0000     -10.316875      -280.7364
   7   2.0000     -10.301555      -280.3196
   8   2.0000     -10.300185      -280.2823
   9   2.0000     -10.299183      -280.2550
  10   2.0000     -10.297121      -280.1989
  11   2.0000     -10.286464      -279.9089
  12   2.0000     -10.282624      -279.8044
  13   2.0000     -10.281102      -279.7630
  14   2.0000     -10.274478      -279.5828
  15   2.0000     -10.265124      -279.3282
  16   2.0000      -8.082855      -219.9457
  17   2.0000      -8.078135      -219.8172
  18   2.0000      -6.041337      -164.3931
  19   2.0000      -6.037373      -164.2853
  20   2.0000      -6.036799      -164.2697
  21   2.0000      -6.033668      -164.1844
  22   2.0000      -6.032629      -164.1562
  23   2.0000      -6.028750      -164.0506
  24   2.0000      -1.007991       -27.4288
  25   2.0000      -0.981072       -26.6963
  26   2.0000      -0.916274       -24.9331
  27   2.0000      -0.909013       -24.7355
  28   2.0000      -0.874972       -23.8092
  29   2.0000      -0.853988       -23.2382
  30   2.0000      -0.845224       -22.9997
  31   2.0000      -0.815763       -22.1980
  32   2.0000      -0.785855       -21.3842
  33   2.0000      -0.773408       -21.0455
  34   2.0000      -0.709631       -19.3100
  35   2.0000      -0.705790       -19.2055
  36   2.0000      -0.694495       -18.8982
  37   2.0000      -0.665350       -18.1051
  38   2.0000      -0.637469       -17.3464
  39   2.0000      -0.621118       -16.9015
  40   2.0000      -0.603069       -16.4103
  41   2.0000      -0.575560       -15.6618
  42   2.0000      -0.571313       -15.5462
  43   2.0000      -0.559397       -15.2220
  44   2.0000      -0.529379       -14.4051
  45   2.0000      -0.526229       -14.3194
  46   2.0000      -0.524236       -14.2652
  47   2.0000      -0.510889       -13.9020
  48   2.0000      -0.510378       -13.8881
  49   2.0000      -0.500209       -13.6114
  50   2.0000      -0.490262       -13.3407
  51   2.0000      -0.485379       -13.2078
  52   2.0000      -0.468310       -12.7434
  53   2.0000      -0.465176       -12.6581
  54   2.0000      -0.461705       -12.5636
  55   2.0000      -0.453918       -12.3517
  56   2.0000      -0.445855       -12.1323
  57   2.0000      -0.439802       -11.9676
  58   2.0000      -0.432748       -11.7757
  59   2.0000      -0.428574       -11.6621
  60   2.0000      -0.417036       -11.3481
  61   2.0000      -0.409539       -11.1441
  62   2.0000      -0.403233       -10.9725
  63   2.0000      -0.352637        -9.5957
  64   2.0000      -0.333219        -9.0673
  65   2.0000      -0.327652        -8.9159
  66   2.0000      -0.291985        -7.9453
  67   0.0000       0.025690         0.6991
  68   0.0000       0.073368         1.9965
  69   0.0000       0.106550         2.8994
  70   0.0000       0.111840         3.0433
  71   0.0000       0.125169         3.4060

MULLIKEN ATOMIC CHARGES
-----------------------
   0 S :    0.091037
   1 C :   -0.127358
   2 C :   -0.051593
   3 C :   -0.040416
   4 C :   -0.084605
   5 H :    0.018589
   6 C :    0.045842
   7 H :    0.005820
   8 H :    0.042769
   9 C :   -0.049000
  10 H :    0.023897
  11 H :    0.018619
  12 C :   -0.007179
  13 H :    0.055897
  14 H :    0.008167
  15 H :    0.001834
  16 S :    0.102293
  17 C :   -0.073248
  18 C :    0.009489
  19 C :   -0.045923
  20 C :   -0.149873
  21 H :   -0.001592
  22 C :    0.051606
  23 H :    0.041309
  24 H :    0.041705
  25 C :   -0.148058
  26 H :    0.027615
  27 H :    0.013055
  28 C :    0.039987
  29 H :    0.023087
  30 H :    0.018025
  31 H :    0.011678
  32 H :    0.040000
  33 H :    0.046525
Sum of atomic charges:   -0.0000000

LOEWDIN ATOMIC CHARGES
----------------------
   0 S :    0.393909
   1 C :   -0.171142
   2 C :   -0.067010
   3 C :   -0.074807
   4 C :   -0.198976
   5 H :    0.025541
   6 C :   -0.023527
   7 H :    0.021849
   8 H :    0.037109
   9 C :   -0.046498
  10 H :    0.026401
  11 H :    0.020607
  12 C :   -0.068734
  13 H :    0.039669
  14 H :    0.021109
  15 H :    0.020223
  16 S :    0.415491
  17 C :   -0.177237
  18 C :   -0.057609
  19 C :   -0.042774
  20 C :   -0.197074
  21 H :    0.020105
  22 C :   -0.041791
  23 H :    0.035625
  24 H :    0.037958
  25 C :   -0.046841
  26 H :    0.017600
  27 H :    0.018617
  28 C :   -0.044745
  29 H :    0.023407
  30 H :    0.018775
  31 H :    0.020742
  32 H :    0.025889
  33 H :    0.018136

  Mayer bond orders larger than 0.100000
B(  0-S ,  1-C ) :   1.1418 B(  0-S ,  4-C ) :   1.1287 B(  1-C ,  2-C ) :   1.6231
B(  1-C , 32-H ) :   0.9692 B(  2-C ,  3-C ) :   1.2416 B(  2-C ,  6-C ) :   1.0013
B(  3-C ,  4-C ) :   1.5824 B(  3-C ,  5-H ) :   0.9919 B(  4-C , 20-C ) :   1.0618
B(  6-C ,  7-H ) :   0.9336 B(  6-C ,  8-H ) :   0.9509 B(  6-C ,  9-C ) :   1.0607
B(  9-C , 10-H ) :   0.9490 B(  9-C , 11-H ) :   0.9546 B(  9-C , 12-C ) :   1.0794
B( 12-C , 13-H ) :   0.9730 B( 12-C , 14-H ) :   0.9659 B( 12-C , 15-H ) :   0.9661
B( 16-S , 17-C ) :   1.1731 B( 16-S , 20-C ) :   1.1254 B( 17-C , 18-C ) :   1.6005
B( 17-C , 33-H ) :   0.9679 B( 18-C , 19-C ) :   1.2224 B( 18-C , 21-H ) :   1.0018
B( 19-C , 20-C ) :   1.5726 B( 19-C , 22-C ) :   1.0649 B( 22-C , 23-H ) :   0.9429
B( 22-C , 24-H ) :   0.9241 B( 22-C , 25-C ) :   1.0463 B( 25-C , 26-H ) :   0.9526
B( 25-C , 27-H ) :   0.9570 B( 25-C , 28-C ) :   1.0904 B( 28-C , 29-H ) :   0.9741
B( 28-C , 30-H ) :   0.9749 B( 28-C , 31-H ) :   0.9672

Dispersion correction           -0.013199423
FINAL SINGLE POINT ENERGY     -1339.851027961671

DIPOLE MOMENT
-------------
                                X             Y             Z
Electronic contribution:      0.67863       8.93917      -0.91781
Nuclear contribution   :     -0.53523      -8.99216       1.01912
                        -----------------------------------------
Total Dipole Moment    :      0.14340      -0.05299       0.10131
                        -----------------------------------------
Magnitude (a.u.)       :      0.18340
Magnitude (Debye)      :      0.46616

Rotational constants in cm-1:     0.024479     0.006863     0.005699
Rotational constants in MHz :   733.865206   205.750361   170.858304

                             ****ORCA TERMINATED NORMALLY****
TOTAL RUN TIME: 0 days 0 hours 0 minutes 20 seconds 399 msec
