                         Program Version 4.2.1 -  RELEASE  -
|  1> ! wB97X-D3 SP def2-SVP
|  2> %pal
|  3> nprocs 24
|  4> end
|  5>
|  6> * xyz 0 1
|  7> S 	 -38.6059 	 -42.0462 	 -76.3294
|  8> C 	 -39.2724 	 -40.4265 	 -75.9331
|  9> C 	 -38.3707 	 -39.4631 	 -75.9402
| 10> C 	 -37.085 	 -39.9875 	 -76.268
| 11> C 	 -37.0254 	 -41.3491 	 -76.6048
| 12> H 	 -36.219 	 -39.3394 	 -76.2823
| 13> C 	 -38.4977 	 -38.006 	 -75.4652
| 14> H 	 -39.5119 	 -37.6664 	 -75.5861
| 15> H 	 -37.8709 	 -37.4143 	 -76.2201
| 16> C 	 -38.14 	 -37.5911 	 -74.0285
| 17> H 	 -38.7119 	 -38.166 	 -73.3933
| 18> H 	 -37.1047 	 -37.9679 	 -73.9569
| 19> C 	 -38.3158 	 -36.0832 	 -73.7975
| 20> H 	 -37.5988 	 -35.5322 	 -74.5063
| 21> H 	 -39.3576 	 -35.776 	 -73.8621
| 22> H 	 -38.057 	 -35.8339 	 -72.774
| 23> S 	 -36.0613 	 -43.8249 	 -77.2444
| 24> C 	 -34.4234 	 -44.0507 	 -77.775
| 25> C 	 -33.6994 	 -42.8728 	 -77.6345
| 26> C 	 -34.511 	 -41.8425 	 -77.1313
| 27> C 	 -35.8748 	 -42.1229 	 -77.0102
| 28> H 	 -32.6663 	 -42.8164 	 -77.7527
| 29> C 	 -33.8083 	 -40.5688 	 -76.7812
| 30> H 	 -32.7627 	 -40.7993 	 -76.7008
| 31> H 	 -34.1673 	 -40.2232 	 -75.7559
| 32> C 	 -33.8717 	 -39.4229 	 -77.8831
| 33> H 	 -34.9406 	 -39.2812 	 -78.1684
| 34> H 	 -33.381 	 -39.6949 	 -78.8048
| 35> C 	 -33.3601 	 -38.0743 	 -77.3988
| 36> H 	 -32.3056 	 -38.1739 	 -77.3439
| 37> H 	 -33.8445 	 -37.6683 	 -76.4554
| 38> H 	 -33.6313 	 -37.2371 	 -78.1073
| 39> H 	 -40.1388 	 -40.2036 	 -75.4162
| 40> H 	 -33.9901 	 -44.9464 	 -78.1974
| 41> *
| 42>
| 43>                          ****END OF INPUT****

CARTESIAN COORDINATES (ANGSTROEM)
---------------------------------
  S    -38.605900  -42.046200  -76.329400
  C    -39.272400  -40.426500  -75.933100
  C    -38.370700  -39.463100  -75.940200
  C    -37.085000  -39.987500  -76.268000
  C    -37.025400  -41.349100  -76.604800
  H    -36.219000  -39.339400  -76.282300
  C    -38.497700  -38.006000  -75.465200
  H    -39.511900  -37.666400  -75.586100
  H    -37.870900  -37.414300  -76.220100
  C    -38.140000  -37.591100  -74.028500
  H    -38.711900  -38.166000  -73.393300
  H    -37.104700  -37.967900  -73.956900
  C    -38.315800  -36.083200  -73.797500
  H    -37.598800  -35.532200  -74.506300
  H    -39.357600  -35.776000  -73.862100
  H    -38.057000  -35.833900  -72.774000
  S    -36.061300  -43.824900  -77.244400
  C    -34.423400  -44.050700  -77.775000
  C    -33.699400  -42.872800  -77.634500
  C    -34.511000  -41.842500  -77.131300
  C    -35.874800  -42.122900  -77.010200
  H    -32.666300  -42.816400  -77.752700
  C    -33.808300  -40.568800  -76.781200
  H    -32.762700  -40.799300  -76.700800
  H    -34.167300  -40.223200  -75.755900
  C    -33.871700  -39.422900  -77.883100
  H    -34.940600  -39.281200  -78.168400
  H    -33.381000  -39.694900  -78.804800
  C    -33.360100  -38.074300  -77.398800
  H    -32.305600  -38.173900  -77.343900
  H    -33.844500  -37.668300  -76.455400
  H    -33.631300  -37.237100  -78.107300
  H    -40.138800  -40.203600  -75.416200
  H    -33.990100  -44.946400  -78.197400

 Total Charge           Charge          ....    0
 Multiplicity           Mult            ....    1
 Number of Electrons    NEL             ....  134
 Basis Dimension        Dim             ....  322

ORBITAL ENERGIES
----------------

  NO   OCC          E(Eh)            E(eV)
   0   2.0000     -88.968535     -2420.9569
   1   2.0000     -88.968131     -2420.9459
   2   2.0000     -10.336634      -281.2741
   3   2.0000     -10.329107      -281.0693
   4   2.0000     -10.319526      -280.8086
   5   2.0000     -10.304974      -280.4126
   6   2.0000     -10.300405      -280.2883
   7   2.0000     -10.297740      -280.2158
   8   2.0000     -10.296173      -280.1731
   9   2.0000     -10.295608      -280.1577
  10   2.0000     -10.292212      -280.0653
  11   2.0000     -10.290391      -280.0158
  12   2.0000     -10.290363      -280.0150
  13   2.0000     -10.289803      -279.9998
  14   2.0000     -10.286259      -279.9033
  15   2.0000     -10.284599      -279.8582
  16   2.0000      -8.083422      -219.9611
  17   2.0000      -8.082490      -219.9357
  18   2.0000      -6.041917      -164.4089
  19   2.0000      -6.041332      -164.3930
  20   2.0000      -6.037794      -164.2967
  21   2.0000      -6.037278      -164.2827
  22   2.0000      -6.034233      -164.1998
  23   2.0000      -6.032772      -164.1601
  24   2.0000      -1.012645       -27.5555
  25   2.0000      -0.989103       -26.9149
  26   2.0000      -0.914770       -24.8921
  27   2.0000      -0.906191       -24.6587
  28   2.0000      -0.879064       -23.9205
  29   2.0000      -0.855465       -23.2784
  30   2.0000      -0.845373       -23.0038
  31   2.0000      -0.815389       -22.1879
  32   2.0000      -0.783663       -21.3246
  33   2.0000      -0.772916       -21.0321
  34   2.0000      -0.712664       -19.3926
  35   2.0000      -0.705316       -19.1926
  36   2.0000      -0.693739       -18.8776
  37   2.0000      -0.674549       -18.3554
  38   2.0000      -0.634612       -17.2687
  39   2.0000      -0.625363       -17.0170
  40   2.0000      -0.593698       -16.1553
  41   2.0000      -0.576281       -15.6814
  42   2.0000      -0.571779       -15.5589
  43   2.0000      -0.563987       -15.3469
  44   2.0000      -0.529474       -14.4077
  45   2.0000      -0.523484       -14.2447
  46   2.0000      -0.514267       -13.9939
  47   2.0000      -0.511521       -13.9192
  48   2.0000      -0.507296       -13.8042
  49   2.0000      -0.498953       -13.5772
  50   2.0000      -0.494457       -13.4549
  51   2.0000      -0.484720       -13.1899
  52   2.0000      -0.479666       -13.0524
  53   2.0000      -0.469362       -12.7720
  54   2.0000      -0.463284       -12.6066
  55   2.0000      -0.454135       -12.3576
  56   2.0000      -0.440374       -11.9832
  57   2.0000      -0.435325       -11.8458
  58   2.0000      -0.435299       -11.8451
  59   2.0000      -0.423315       -11.5190
  60   2.0000      -0.420772       -11.4498
  61   2.0000      -0.417716       -11.3666
  62   2.0000      -0.410422       -11.1682
  63   2.0000      -0.366804        -9.9813
  64   2.0000      -0.335836        -9.1386
  65   2.0000      -0.329660        -8.9705
  66   2.0000      -0.280697        -7.6382
  67   0.0000       0.013963         0.3800
  68   0.0000       0.086443         2.3522
  69   0.0000       0.092243         2.5101
  70   0.0000       0.113914         3.0997
  71   0.0000       0.133118         3.6223

MULLIKEN ATOMIC CHARGES
-----------------------
   0 S :    0.094304
   1 C :   -0.077342
   2 C :   -0.056839
   3 C :   -0.031487
   4 C :   -0.085111
   5 H :   -0.010097
   6 C :    0.008060
   7 H :    0.009474
   8 H :    0.034451
   9 C :   -0.017865
  10 H :    0.008024
  11 H :    0.022419
  12 C :   -0.050500
  13 H :    0.048014
  14 H :    0.037545
  15 H :    0.034506
  16 S :    0.100138
  17 C :   -0.078344
  18 C :   -0.005504
  19 C :   -0.074359
  20 C :   -0.089646
  21 H :   -0.001925
  22 C :    0.026960
  23 H :    0.010077
  24 H :    0.044497
  25 C :   -0.072452
  26 H :    0.029706
  27 H :    0.025320
  28 C :   -0.060185
  29 H :    0.032254
  30 H :    0.036863
  31 H :    0.040372
  32 H :    0.011846
  33 H :    0.056828
Sum of atomic charges:   -0.0000000

LOEWDIN ATOMIC CHARGES
----------------------
   0 S :    0.380127
   1 C :   -0.171070
   2 C :   -0.064634
   3 C :   -0.068588
   4 C :   -0.180690
   5 H :    0.022801
   6 C :   -0.033003
   7 H :    0.021502
   8 H :    0.036011
   9 C :   -0.035012
  10 H :    0.012284
  11 H :    0.025735
  12 C :   -0.064027
  13 H :    0.037768
  14 H :    0.027171
  15 H :    0.027268
  16 S :    0.425055
  17 C :   -0.183689
  18 C :   -0.063707
  19 C :   -0.059248
  20 C :   -0.203450
  21 H :    0.023791
  22 C :   -0.034532
  23 H :    0.024679
  24 H :    0.036301
  25 C :   -0.042789
  26 H :    0.023005
  27 H :    0.024075
  28 C :   -0.073284
  29 H :    0.019013
  30 H :    0.029034
  31 H :    0.033717
  32 H :    0.017241
  33 H :    0.031143

  Mayer bond orders larger than 0.100000
B(  0-S ,  1-C ) :   1.1023 B(  0-S ,  4-C ) :   1.1277 B(  1-C ,  2-C ) :   1.6827
B(  1-C , 32-H ) :   0.9576 B(  2-C ,  3-C ) :   1.2356 B(  2-C ,  6-C ) :   1.0183
B(  3-C ,  4-C ) :   1.5555 B(  3-C ,  5-H ) :   0.9899 B(  4-C , 20-C ) :   1.1209
B(  6-C ,  7-H ) :   0.9407 B(  6-C ,  8-H ) :   0.9389 B(  6-C ,  9-C ) :   1.0594
B(  9-C , 10-H ) :   0.9507 B(  9-C , 11-H ) :   0.9538 B(  9-C , 12-C ) :   1.0802
B( 12-C , 13-H ) :   0.9742 B( 12-C , 14-H ) :   0.9736 B( 12-C , 15-H ) :   0.9727
B( 16-S , 17-C ) :   1.1798 B( 16-S , 20-C ) :   1.1360 B( 17-C , 18-C ) :   1.5538
B( 17-C , 20-C ) :   0.1025 B( 17-C , 33-H ) :   0.9682 B( 18-C , 19-C ) :   1.3047
B( 18-C , 21-H ) :   0.9972 B( 19-C , 20-C ) :   1.5229 B( 19-C , 22-C ) :   1.0539
B( 22-C , 23-H ) :   0.9304 B( 22-C , 24-H ) :   0.9366 B( 22-C , 25-C ) :   1.0484
B( 25-C , 26-H ) :   0.9604 B( 25-C , 27-H ) :   0.9519 B( 25-C , 28-C ) :   1.0794
B( 28-C , 29-H ) :   0.9767 B( 28-C , 30-H ) :   0.9735 B( 28-C , 31-H ) :   0.9717

Dispersion correction           -0.014072334
FINAL SINGLE POINT ENERGY     -1339.863249962975

DIPOLE MOMENT
-------------
                                X             Y             Z
Electronic contribution:     -8.70012     -32.23306      -6.62567
Nuclear contribution   :      9.15927      32.82734       6.88068
                        -----------------------------------------
Total Dipole Moment    :      0.45915       0.59427       0.25501
                        -----------------------------------------
Magnitude (a.u.)       :      0.79310
Magnitude (Debye)      :      2.01590

Rotational constants in cm-1:     0.018254     0.009067     0.006342
Rotational constants in MHz :   547.235039   271.807421   190.123009

                             ****ORCA TERMINATED NORMALLY****
TOTAL RUN TIME: 0 days 0 hours 0 minutes 22 seconds 16 msec
