                         Program Version 4.2.1 -  RELEASE  -
|  1> ! wB97X-D3 SP def2-SVP
|  2> %pal
|  3> nprocs 24
|  4> end
|  5>
|  6> * xyz 0 1
|  7> S 	 -70.6056 	 10.5509 	 18.4669
|  8> C 	 -69.5953 	 11.4631 	 17.3026
|  9> C 	 -69.004 	 10.6255 	 16.3696
| 10> C 	 -69.4596 	 9.22966 	 16.5745
| 11> C 	 -70.3349 	 9.05746 	 17.5464
| 12> H 	 -69.1143 	 8.40448 	 15.995
| 13> C 	 -68.0854 	 11.0676 	 15.2312
| 14> H 	 -68.6466 	 11.9005 	 14.662
| 15> H 	 -68.0565 	 10.2499 	 14.4959
| 16> C 	 -66.6024 	 11.3072 	 15.5479
| 17> H 	 -66.6085 	 12.2111 	 16.1892
| 18> H 	 -66.2909 	 10.5164 	 16.2423
| 19> C 	 -65.7116 	 11.5432 	 14.3852
| 20> H 	 -66.0638 	 11.0519 	 13.4696
| 21> H 	 -65.6771 	 12.6219 	 14.1599
| 22> H 	 -64.6724 	 11.1693 	 14.5318
| 23> S 	 -72.7573 	 7.8001 	 18.0106
| 24> C 	 -72.7445 	 6.05629 	 18.1701
| 25> C 	 -71.4445 	 5.56956 	 18.3535
| 26> C 	 -70.4554 	 6.58316 	 18.1904
| 27> C 	 -71.0149 	 7.83355 	 17.9247
| 28> H 	 -71.1515 	 4.55153 	 18.3859
| 29> C 	 -69.0291 	 6.27849 	 17.963
| 30> H 	 -68.4017 	 7.19594 	 17.8505
| 31> H 	 -68.8738 	 5.84852 	 17.0115
| 32> C 	 -68.3929 	 5.42645 	 19.0973
| 33> H 	 -68.9373 	 4.41042 	 18.9224
| 34> H 	 -68.7025 	 5.67763 	 20.12
| 35> C 	 -66.8993 	 5.08639 	 19.0606
| 36> H 	 -66.7134 	 4.30638 	 19.7523
| 37> H 	 -66.2138 	 5.9272 	 19.2872
| 38> H 	 -66.5735 	 4.63648 	 18.1455
| 39> H 	 -69.3709 	 12.5265 	 17.2902
| 40> H 	 -73.5861 	 5.42731 	 18.1126
| 41> *
| 42>
| 43>                          ****END OF INPUT****

CARTESIAN COORDINATES (ANGSTROEM)
---------------------------------
  S    -70.605600   10.550900   18.466900
  C    -69.595300   11.463100   17.302600
  C    -69.004000   10.625500   16.369600
  C    -69.459600    9.229660   16.574500
  C    -70.334900    9.057460   17.546400
  H    -69.114300    8.404480   15.995000
  C    -68.085400   11.067600   15.231200
  H    -68.646600   11.900500   14.662000
  H    -68.056500   10.249900   14.495900
  C    -66.602400   11.307200   15.547900
  H    -66.608500   12.211100   16.189200
  H    -66.290900   10.516400   16.242300
  C    -65.711600   11.543200   14.385200
  H    -66.063800   11.051900   13.469600
  H    -65.677100   12.621900   14.159900
  H    -64.672400   11.169300   14.531800
  S    -72.757300    7.800100   18.010600
  C    -72.744500    6.056290   18.170100
  C    -71.444500    5.569560   18.353500
  C    -70.455400    6.583160   18.190400
  C    -71.014900    7.833550   17.924700
  H    -71.151500    4.551530   18.385900
  C    -69.029100    6.278490   17.963000
  H    -68.401700    7.195940   17.850500
  H    -68.873800    5.848520   17.011500
  C    -68.392900    5.426450   19.097300
  H    -68.937300    4.410420   18.922400
  H    -68.702500    5.677630   20.120000
  C    -66.899300    5.086390   19.060600
  H    -66.713400    4.306380   19.752300
  H    -66.213800    5.927200   19.287200
  H    -66.573500    4.636480   18.145500
  H    -69.370900   12.526500   17.290200
  H    -73.586100    5.427310   18.112600

 Total Charge           Charge          ....    0
 Multiplicity           Mult            ....    1
 Number of Electrons    NEL             ....  134
 Basis Dimension        Dim             ....  322

ORBITAL ENERGIES
----------------

  NO   OCC          E(Eh)            E(eV)
   0   2.0000     -88.969132     -2420.9732
   1   2.0000     -88.963258     -2420.8133
   2   2.0000     -10.324112      -280.9334
   3   2.0000     -10.323873      -280.9269
   4   2.0000     -10.319459      -280.8068
   5   2.0000     -10.316783      -280.7339
   6   2.0000     -10.306237      -280.4470
   7   2.0000     -10.300902      -280.3018
   8   2.0000     -10.300349      -280.2867
   9   2.0000     -10.295680      -280.1597
  10   2.0000     -10.294617      -280.1308
  11   2.0000     -10.290030      -280.0060
  12   2.0000     -10.288896      -279.9751
  13   2.0000     -10.287714      -279.9429
  14   2.0000     -10.282497      -279.8010
  15   2.0000     -10.276369      -279.6342
  16   2.0000      -8.083776      -219.9707
  17   2.0000      -8.077155      -219.7906
  18   2.0000      -6.042262      -164.4183
  19   2.0000      -6.038284      -164.3101
  20   2.0000      -6.035960      -164.2468
  21   2.0000      -6.034586      -164.2094
  22   2.0000      -6.031946      -164.1376
  23   2.0000      -6.027482      -164.0161
  24   2.0000      -1.006305       -27.3829
  25   2.0000      -0.979507       -26.6537
  26   2.0000      -0.912413       -24.8280
  27   2.0000      -0.908948       -24.7337
  28   2.0000      -0.871396       -23.7119
  29   2.0000      -0.854618       -23.2553
  30   2.0000      -0.843619       -22.9560
  31   2.0000      -0.818223       -22.2650
  32   2.0000      -0.785327       -21.3698
  33   2.0000      -0.771100       -20.9827
  34   2.0000      -0.703774       -19.1507
  35   2.0000      -0.700971       -19.0744
  36   2.0000      -0.698364       -19.0035
  37   2.0000      -0.661207       -17.9923
  38   2.0000      -0.639995       -17.4152
  39   2.0000      -0.619054       -16.8453
  40   2.0000      -0.603099       -16.4112
  41   2.0000      -0.568958       -15.4821
  42   2.0000      -0.559817       -15.2334
  43   2.0000      -0.557020       -15.1573
  44   2.0000      -0.529439       -14.4068
  45   2.0000      -0.523461       -14.2441
  46   2.0000      -0.522571       -14.2199
  47   2.0000      -0.511592       -13.9211
  48   2.0000      -0.504411       -13.7257
  49   2.0000      -0.502315       -13.6687
  50   2.0000      -0.496496       -13.5103
  51   2.0000      -0.477441       -12.9918
  52   2.0000      -0.471610       -12.8332
  53   2.0000      -0.462072       -12.5736
  54   2.0000      -0.460209       -12.5229
  55   2.0000      -0.456498       -12.4219
  56   2.0000      -0.453046       -12.3280
  57   2.0000      -0.438634       -11.9358
  58   2.0000      -0.433161       -11.7869
  59   2.0000      -0.427091       -11.6217
  60   2.0000      -0.422595       -11.4994
  61   2.0000      -0.405420       -11.0320
  62   2.0000      -0.397254       -10.8098
  63   2.0000      -0.347606        -9.4588
  64   2.0000      -0.331733        -9.0269
  65   2.0000      -0.326552        -8.8859
  66   2.0000      -0.295811        -8.0494
  67   0.0000       0.034453         0.9375
  68   0.0000       0.065073         1.7707
  69   0.0000       0.108561         2.9541
  70   0.0000       0.120646         3.2830
  71   0.0000       0.128106         3.4859

MULLIKEN ATOMIC CHARGES
-----------------------
   0 S :    0.095530
   1 C :   -0.110118
   2 C :   -0.099524
   3 C :    0.024915
   4 C :   -0.123332
   5 H :    0.001600
   6 C :    0.009334
   7 H :    0.051882
   8 H :    0.011957
   9 C :   -0.060900
  10 H :    0.024188
  11 H :    0.033047
  12 C :   -0.040910
  13 H :    0.026129
  14 H :    0.038421
  15 H :    0.044433
  16 S :    0.125652
  17 C :   -0.077565
  18 C :   -0.013712
  19 C :   -0.008392
  20 C :   -0.170537
  21 H :    0.011751
  22 C :    0.061147
  23 H :    0.030355
  24 H :    0.026457
  25 C :   -0.145340
  26 H :    0.024840
  27 H :    0.042520
  28 C :   -0.001626
  29 H :    0.021957
  30 H :    0.040703
  31 H :    0.013807
  32 H :    0.046483
  33 H :    0.044848
Sum of atomic charges:   -0.0000000

LOEWDIN ATOMIC CHARGES
----------------------
   0 S :    0.365789
   1 C :   -0.182920
   2 C :   -0.059750
   3 C :   -0.060746
   4 C :   -0.179351
   5 H :    0.026969
   6 C :   -0.043390
   7 H :    0.041479
   8 H :    0.025041
   9 C :   -0.051495
  10 H :    0.025637
  11 H :    0.028221
  12 C :   -0.071206
  13 H :    0.024647
  14 H :    0.032027
  15 H :    0.035028
  16 S :    0.416786
  17 C :   -0.173611
  18 C :   -0.060970
  19 C :   -0.052294
  20 C :   -0.202912
  21 H :    0.024992
  22 C :   -0.038496
  23 H :    0.033733
  24 H :    0.026679
  25 C :   -0.045299
  26 H :    0.027325
  27 H :    0.027747
  28 C :   -0.066293
  29 H :    0.025626
  30 H :    0.028258
  31 H :    0.021209
  32 H :    0.030484
  33 H :    0.021054

  Mayer bond orders larger than 0.100000
B(  0-S ,  1-C ) :   1.1067 B(  0-S ,  4-C ) :   1.1090 B(  1-C ,  2-C ) :   1.6745
B(  1-C , 32-H ) :   0.9658 B(  2-C ,  3-C ) :   1.1795 B(  2-C ,  6-C ) :   1.0210
B(  3-C ,  4-C ) :   1.6554 B(  3-C ,  5-H ) :   0.9979 B(  4-C , 20-C ) :   1.0291
B(  6-C ,  7-H ) :   0.9448 B(  6-C ,  8-H ) :   0.9385 B(  6-C ,  9-C ) :   1.0533
B(  9-C , 10-H ) :   0.9564 B(  9-C , 11-H ) :   0.9554 B(  9-C , 12-C ) :   1.0751
B( 12-C , 13-H ) :   0.9750 B( 12-C , 14-H ) :   0.9742 B( 12-C , 15-H ) :   0.9737
B( 16-S , 17-C ) :   1.1622 B( 16-S , 20-C ) :   1.1436 B( 17-C , 18-C ) :   1.5886
B( 17-C , 20-C ) :   0.1017 B( 17-C , 33-H ) :   0.9753 B( 18-C , 19-C ) :   1.2505
B( 18-C , 21-H ) :   0.9895 B( 19-C , 20-C ) :   1.5784 B( 19-C , 22-C ) :   1.0641
B( 22-C , 23-H ) :   0.9276 B( 22-C , 24-H ) :   0.9320 B( 22-C , 25-C ) :   1.0354
B( 25-C , 26-H ) :   0.9525 B( 25-C , 27-H ) :   0.9647 B( 25-C , 28-C ) :   1.0912
B( 28-C , 29-H ) :   0.9697 B( 28-C , 30-H ) :   0.9730 B( 28-C , 31-H ) :   0.9690

Dispersion correction           -0.013490806
FINAL SINGLE POINT ENERGY     -1339.872929461959

DIPOLE MOMENT
-------------
                                X             Y             Z
Electronic contribution:    -29.29925       4.86715       9.15146
Nuclear contribution   :     29.91753      -5.23941      -9.60794
                        -----------------------------------------
Total Dipole Moment    :      0.61828      -0.37226      -0.45648
                        -----------------------------------------
Magnitude (a.u.)       :      0.85395
Magnitude (Debye)      :      2.17057

Rotational constants in cm-1:     0.017141     0.008242     0.006196
Rotational constants in MHz :   513.860538   247.093235   185.746496

                             ****ORCA TERMINATED NORMALLY****
TOTAL RUN TIME: 0 days 0 hours 0 minutes 19 seconds 814 msec
