                         Program Version 4.2.1 -  RELEASE  -
|  1> ! wB97X-D3 SP def2-SVP
|  2> %pal
|  3> nprocs 24
|  4> end
|  5>
|  6> * xyz 0 1
|  7> S 	 -44.5449 	 -4.28597 	 21.4475
|  8> C 	 -46.2848 	 -4.36602 	 21.1132
|  9> C 	 -46.6843 	 -3.42033 	 20.1713
| 10> C 	 -45.5307 	 -2.75242 	 19.6439
| 11> C 	 -44.3283 	 -3.06068 	 20.2694
| 12> H 	 -45.5688 	 -2.11344 	 18.852
| 13> C 	 -47.9327 	 -3.46381 	 19.2846
| 14> H 	 -47.7031 	 -2.78069 	 18.4545
| 15> H 	 -48.8464 	 -2.98787 	 19.7671
| 16> C 	 -48.2085 	 -4.87764 	 18.72
| 17> H 	 -47.3727 	 -5.15362 	 18.0608
| 18> H 	 -48.1638 	 -5.5544 	 19.6382
| 19> C 	 -49.5738 	 -5.03372 	 18.0425
| 20> H 	 -49.8171 	 -6.06148 	 17.8982
| 21> H 	 -50.3321 	 -4.57528 	 18.6197
| 22> H 	 -49.5753 	 -4.56619 	 17.0725
| 23> S 	 -41.8958 	 -2.86473 	 19.0637
| 24> C 	 -40.9594 	 -1.47112 	 19.3325
| 25> C 	 -41.7105 	 -0.526547 	 19.9695
| 26> C 	 -42.9432 	 -0.922013 	 20.5116
| 27> C 	 -43.1676 	 -2.25079 	 20.1376
| 28> H 	 -41.2236 	 0.396892 	 20.2424
| 29> C 	 -43.8793 	 0.0832666 	 21.1858
| 30> H 	 -43.5013 	 0.114609 	 22.1448
| 31> H 	 -44.7835 	 -0.464886 	 21.1784
| 32> C 	 -44.0763 	 1.42571 	 20.4996
| 33> H 	 -43.0908 	 1.78404 	 20.1369
| 34> H 	 -44.4148 	 2.04648 	 21.2835
| 35> C 	 -45.1586 	 1.52446 	 19.3688
| 36> H 	 -45.4298 	 2.54393 	 19.138
| 37> H 	 -46.0447 	 1.02708 	 19.5861
| 38> H 	 -44.6752 	 1.01183 	 18.517
| 39> H 	 -46.9421 	 -4.94234 	 21.7746
| 40> H 	 -39.9543 	 -1.44189 	 19.0428
| 41> *
| 42>
| 43>                          ****END OF INPUT****

CARTESIAN COORDINATES (ANGSTROEM)
---------------------------------
  S    -44.544900   -4.285970   21.447500
  C    -46.284800   -4.366020   21.113200
  C    -46.684300   -3.420330   20.171300
  C    -45.530700   -2.752420   19.643900
  C    -44.328300   -3.060680   20.269400
  H    -45.568800   -2.113440   18.852000
  C    -47.932700   -3.463810   19.284600
  H    -47.703100   -2.780690   18.454500
  H    -48.846400   -2.987870   19.767100
  C    -48.208500   -4.877640   18.720000
  H    -47.372700   -5.153620   18.060800
  H    -48.163800   -5.554400   19.638200
  C    -49.573800   -5.033720   18.042500
  H    -49.817100   -6.061480   17.898200
  H    -50.332100   -4.575280   18.619700
  H    -49.575300   -4.566190   17.072500
  S    -41.895800   -2.864730   19.063700
  C    -40.959400   -1.471120   19.332500
  C    -41.710500   -0.526547   19.969500
  C    -42.943200   -0.922013   20.511600
  C    -43.167600   -2.250790   20.137600
  H    -41.223600    0.396892   20.242400
  C    -43.879300    0.083267   21.185800
  H    -43.501300    0.114609   22.144800
  H    -44.783500   -0.464886   21.178400
  C    -44.076300    1.425710   20.499600
  H    -43.090800    1.784040   20.136900
  H    -44.414800    2.046480   21.283500
  C    -45.158600    1.524460   19.368800
  H    -45.429800    2.543930   19.138000
  H    -46.044700    1.027080   19.586100
  H    -44.675200    1.011830   18.517000
  H    -46.942100   -4.942340   21.774600
  H    -39.954300   -1.441890   19.042800

 Total Charge           Charge          ....    0
 Multiplicity           Mult            ....    1
 Number of Electrons    NEL             ....  134
 Basis Dimension        Dim             ....  322

ORBITAL ENERGIES
----------------

  NO   OCC          E(Eh)            E(eV)
   0   2.0000     -88.967177     -2420.9200
   1   2.0000     -88.958805     -2420.6922
   2   2.0000     -10.319965      -280.8205
   3   2.0000     -10.319557      -280.8094
   4   2.0000     -10.318272      -280.7745
   5   2.0000     -10.306470      -280.4533
   6   2.0000     -10.301162      -280.3089
   7   2.0000     -10.299409      -280.2612
   8   2.0000     -10.299080      -280.2522
   9   2.0000     -10.292127      -280.0630
  10   2.0000     -10.287388      -279.9341
  11   2.0000     -10.284895      -279.8662
  12   2.0000     -10.282932      -279.8128
  13   2.0000     -10.281820      -279.7825
  14   2.0000     -10.275632      -279.6142
  15   2.0000     -10.271270      -279.4955
  16   2.0000      -8.082168      -219.9270
  17   2.0000      -8.074607      -219.7212
  18   2.0000      -6.040477      -164.3697
  19   2.0000      -6.036521      -164.2621
  20   2.0000      -6.033243      -164.1729
  21   2.0000      -6.032849      -164.1622
  22   2.0000      -6.029027      -164.0582
  23   2.0000      -6.025542      -163.9633
  24   2.0000      -1.009012       -27.4566
  25   2.0000      -0.985470       -26.8160
  26   2.0000      -0.911821       -24.8119
  27   2.0000      -0.909161       -24.7395
  28   2.0000      -0.869193       -23.6520
  29   2.0000      -0.852096       -23.1867
  30   2.0000      -0.848747       -23.0956
  31   2.0000      -0.807046       -21.9609
  32   2.0000      -0.789397       -21.4806
  33   2.0000      -0.775171       -21.0935
  34   2.0000      -0.710756       -19.3407
  35   2.0000      -0.703675       -19.1480
  36   2.0000      -0.693615       -18.8742
  37   2.0000      -0.654333       -17.8053
  38   2.0000      -0.647000       -17.6058
  39   2.0000      -0.615389       -16.7456
  40   2.0000      -0.602164       -16.3857
  41   2.0000      -0.566144       -15.4056
  42   2.0000      -0.563877       -15.3439
  43   2.0000      -0.554281       -15.0828
  44   2.0000      -0.540100       -14.6969
  45   2.0000      -0.526703       -14.3323
  46   2.0000      -0.520077       -14.1520
  47   2.0000      -0.517559       -14.0835
  48   2.0000      -0.504356       -13.7242
  49   2.0000      -0.497645       -13.5416
  50   2.0000      -0.491794       -13.3824
  51   2.0000      -0.480816       -13.0837
  52   2.0000      -0.471917       -12.8415
  53   2.0000      -0.464629       -12.6432
  54   2.0000      -0.459118       -12.4932
  55   2.0000      -0.450308       -12.2535
  56   2.0000      -0.443699       -12.0737
  57   2.0000      -0.438416       -11.9299
  58   2.0000      -0.433727       -11.8023
  59   2.0000      -0.425605       -11.5813
  60   2.0000      -0.421824       -11.4784
  61   2.0000      -0.412778       -11.2323
  62   2.0000      -0.410721       -11.1763
  63   2.0000      -0.335053        -9.1173
  64   2.0000      -0.329523        -8.9668
  65   2.0000      -0.317637        -8.6433
  66   2.0000      -0.305641        -8.3169
  67   0.0000       0.036990         1.0066
  68   0.0000       0.057821         1.5734
  69   0.0000       0.110548         3.0082
  70   0.0000       0.118024         3.2116
  71   0.0000       0.129048         3.5116

MULLIKEN ATOMIC CHARGES
-----------------------
   0 S :    0.125533
   1 C :   -0.154735
   2 C :   -0.036906
   3 C :    0.051101
   4 C :   -0.161502
   5 H :   -0.027199
   6 C :    0.008585
   7 H :    0.022398
   8 H :    0.039515
   9 C :   -0.106891
  10 H :    0.041422
  11 H :    0.035026
  12 C :    0.004919
  13 H :    0.030114
  14 H :    0.017930
  15 H :    0.025891
  16 S :    0.103242
  17 C :   -0.073596
  18 C :   -0.049652
  19 C :   -0.046834
  20 C :   -0.210173
  21 H :    0.014822
  22 C :    0.164555
  23 H :    0.020285
  24 H :    0.010144
  25 C :   -0.078921
  26 H :    0.034223
  27 H :    0.021372
  28 C :   -0.026332
  29 H :    0.036721
  30 H :    0.016315
  31 H :    0.040687
  32 H :    0.067650
  33 H :    0.040289
Sum of atomic charges:    0.0000000

LOEWDIN ATOMIC CHARGES
----------------------
   0 S :    0.424623
   1 C :   -0.188872
   2 C :   -0.068226
   3 C :   -0.044939
   4 C :   -0.224467
   5 H :    0.011944
   6 C :   -0.036972
   7 H :    0.027009
   8 H :    0.032834
   9 C :   -0.040619
  10 H :    0.029157
  11 H :    0.027641
  12 C :   -0.058978
  13 H :    0.025535
  14 H :    0.019743
  15 H :    0.024636
  16 S :    0.413138
  17 C :   -0.186238
  18 C :   -0.082298
  19 C :   -0.046819
  20 C :   -0.202044
  21 H :    0.025088
  22 C :   -0.017023
  23 H :    0.028337
  24 H :    0.028655
  25 C :   -0.032382
  26 H :    0.025832
  27 H :    0.020480
  28 C :   -0.055547
  29 H :    0.027355
  30 H :    0.014190
  31 H :    0.031739
  32 H :    0.028871
  33 H :    0.018617

  Mayer bond orders larger than 0.100000
B(  0-S ,  1-C ) :   1.1648 B(  0-S ,  4-C ) :   1.1614 B(  1-C ,  2-C ) :   1.5762
B(  1-C , 32-H ) :   0.9616 B(  2-C ,  3-C ) :   1.2585 B(  2-C ,  6-C ) :   1.0287
B(  3-C ,  4-C ) :   1.5553 B(  3-C ,  5-H ) :   1.0096 B(  4-C , 20-C ) :   1.0193
B(  6-C ,  7-H ) :   0.9518 B(  6-C ,  8-H ) :   0.9371 B(  6-C ,  9-C ) :   1.0549
B(  9-C , 10-H ) :   0.9567 B(  9-C , 11-H ) :   0.9566 B(  9-C , 12-C ) :   1.0795
B( 12-C , 13-H ) :   0.9729 B( 12-C , 14-H ) :   0.9742 B( 12-C , 15-H ) :   0.9731
B( 16-S , 17-C ) :   1.1698 B( 16-S , 20-C ) :   1.1601 B( 17-C , 18-C ) :   1.5870
B( 17-C , 20-C ) :   0.1048 B( 17-C , 33-H ) :   0.9791 B( 18-C , 19-C ) :   1.2573
B( 18-C , 21-H ) :   0.9809 B( 19-C , 20-C ) :   1.5811 B( 19-C , 22-C ) :   1.0130
B( 22-C , 23-H ) :   0.9170 B( 22-C , 24-H ) :   0.9269 B( 22-C , 25-C ) :   1.0750
B( 25-C , 26-H ) :   0.9574 B( 25-C , 27-H ) :   0.9509 B( 25-C , 28-C ) :   1.0736
B( 28-C , 29-H ) :   0.9755 B( 28-C , 30-H ) :   0.9745 B( 28-C , 31-H ) :   0.9793

Dispersion correction           -0.014582429
FINAL SINGLE POINT ENERGY     -1339.857056392857

DIPOLE MOMENT
-------------
                                X             Y             Z
Electronic contribution:     22.17581     -11.08347       7.12372
Nuclear contribution   :    -22.59815      11.50485      -7.18308
                        -----------------------------------------
Total Dipole Moment    :     -0.42233       0.42139      -0.05936
                        -----------------------------------------
Magnitude (a.u.)       :      0.59954
Magnitude (Debye)      :      1.52392

Rotational constants in cm-1:     0.019613     0.008082     0.006825
Rotational constants in MHz :   587.974040   242.298225   204.613174

                             ****ORCA TERMINATED NORMALLY****
TOTAL RUN TIME: 0 days 0 hours 0 minutes 21 seconds 691 msec
