                         Program Version 4.2.1 -  RELEASE  -
|  1> ! wB97X-D3 SP def2-SVP
|  2> %pal
|  3> nprocs 24
|  4> end
|  5>
|  6> * xyz 0 1
|  7> S 	 -119.566 	 29.5871 	 -21.5311
|  8> C 	 -119.765 	 28.7109 	 -23.0226
|  9> C 	 -121.06 	 28.8015 	 -23.4659
| 10> C 	 -121.934 	 29.4886 	 -22.5595
| 11> C 	 -121.316 	 29.8919 	 -21.3665
| 12> H 	 -122.939 	 29.7835 	 -22.737
| 13> C 	 -121.507 	 28.3653 	 -24.8637
| 14> H 	 -122.602 	 28.2513 	 -24.8879
| 15> H 	 -121.061 	 27.4393 	 -25.1373
| 16> C 	 -121.221 	 29.436 	 -25.9555
| 17> H 	 -121.732 	 29.0756 	 -26.8199
| 18> H 	 -121.841 	 30.2959 	 -25.8536
| 19> C 	 -119.81 	 29.7532 	 -26.2525
| 20> H 	 -119.792 	 30.6752 	 -26.8104
| 21> H 	 -119.158 	 29.9364 	 -25.397
| 22> H 	 -119.359 	 29.0075 	 -26.8538
| 23> S 	 -121.01 	 31.8643 	 -19.3796
| 24> C 	 -122.286 	 32.0373 	 -18.2163
| 25> C 	 -123.227 	 31.0726 	 -18.3576
| 26> C 	 -123.035 	 30.2439 	 -19.4639
| 27> C 	 -121.915 	 30.5392 	 -20.2435
| 28> H 	 -124.057 	 31.0648 	 -17.6395
| 29> C 	 -123.968 	 29.0969 	 -19.7661
| 30> H 	 -123.46 	 28.5045 	 -20.516
| 31> H 	 -124.889 	 29.5463 	 -20.1003
| 32> C 	 -124.274 	 28.1263 	 -18.5657
| 33> H 	 -125.1 	 27.6137 	 -18.8882
| 34> H 	 -124.769 	 28.6837 	 -17.7051
| 35> C 	 -123.192 	 27.1481 	 -18.1531
| 36> H 	 -122.25 	 27.6746 	 -17.8579
| 37> H 	 -122.941 	 26.6175 	 -19.1075
| 38> H 	 -123.508 	 26.6318 	 -17.2587
| 39> H 	 -118.973 	 28.3924 	 -23.6537
| 40> H 	 -122.218 	 32.7652 	 -17.41
| 41> *
| 42>
| 43>                          ****END OF INPUT****

CARTESIAN COORDINATES (ANGSTROEM)
---------------------------------
  S    -119.566000   29.587100  -21.531100
  C    -119.765000   28.710900  -23.022600
  C    -121.060000   28.801500  -23.465900
  C    -121.934000   29.488600  -22.559500
  C    -121.316000   29.891900  -21.366500
  H    -122.939000   29.783500  -22.737000
  C    -121.507000   28.365300  -24.863700
  H    -122.602000   28.251300  -24.887900
  H    -121.061000   27.439300  -25.137300
  C    -121.221000   29.436000  -25.955500
  H    -121.732000   29.075600  -26.819900
  H    -121.841000   30.295900  -25.853600
  C    -119.810000   29.753200  -26.252500
  H    -119.792000   30.675200  -26.810400
  H    -119.158000   29.936400  -25.397000
  H    -119.359000   29.007500  -26.853800
  S    -121.010000   31.864300  -19.379600
  C    -122.286000   32.037300  -18.216300
  C    -123.227000   31.072600  -18.357600
  C    -123.035000   30.243900  -19.463900
  C    -121.915000   30.539200  -20.243500
  H    -124.057000   31.064800  -17.639500
  C    -123.968000   29.096900  -19.766100
  H    -123.460000   28.504500  -20.516000
  H    -124.889000   29.546300  -20.100300
  C    -124.274000   28.126300  -18.565700
  H    -125.100000   27.613700  -18.888200
  H    -124.769000   28.683700  -17.705100
  C    -123.192000   27.148100  -18.153100
  H    -122.250000   27.674600  -17.857900
  H    -122.941000   26.617500  -19.107500
  H    -123.508000   26.631800  -17.258700
  H    -118.973000   28.392400  -23.653700
  H    -122.218000   32.765200  -17.410000

 Total Charge           Charge          ....    0
 Multiplicity           Mult            ....    1
 Number of Electrons    NEL             ....  134
 Basis Dimension        Dim             ....  322

ORBITAL ENERGIES
----------------

  NO   OCC          E(Eh)            E(eV)
   0   2.0000     -88.964394     -2420.8442
   1   2.0000     -88.961386     -2420.7624
   2   2.0000     -10.333233      -281.1816
   3   2.0000     -10.329482      -281.0795
   4   2.0000     -10.317534      -280.7544
   5   2.0000     -10.309744      -280.5424
   6   2.0000     -10.301871      -280.3282
   7   2.0000     -10.299911      -280.2748
   8   2.0000     -10.294297      -280.1221
   9   2.0000     -10.291878      -280.0562
  10   2.0000     -10.289742      -279.9981
  11   2.0000     -10.288780      -279.9719
  12   2.0000     -10.282378      -279.7977
  13   2.0000     -10.279946      -279.7316
  14   2.0000     -10.277339      -279.6606
  15   2.0000     -10.268378      -279.4168
  16   2.0000      -8.078749      -219.8339
  17   2.0000      -8.075772      -219.7529
  18   2.0000      -6.037342      -164.2844
  19   2.0000      -6.034265      -164.2007
  20   2.0000      -6.033366      -164.1762
  21   2.0000      -6.030375      -164.0948
  22   2.0000      -6.029370      -164.0675
  23   2.0000      -6.026528      -163.9902
  24   2.0000      -1.003769       -27.3139
  25   2.0000      -0.983461       -26.7613
  26   2.0000      -0.913330       -24.8530
  27   2.0000      -0.906652       -24.6713
  28   2.0000      -0.874441       -23.7948
  29   2.0000      -0.851956       -23.1829
  30   2.0000      -0.844781       -22.9877
  31   2.0000      -0.814819       -22.1723
  32   2.0000      -0.786142       -21.3920
  33   2.0000      -0.775098       -21.0915
  34   2.0000      -0.714396       -19.4397
  35   2.0000      -0.699869       -19.0444
  36   2.0000      -0.698493       -19.0070
  37   2.0000      -0.654703       -17.8154
  38   2.0000      -0.642770       -17.4907
  39   2.0000      -0.617591       -16.8055
  40   2.0000      -0.595543       -16.2055
  41   2.0000      -0.569647       -15.5009
  42   2.0000      -0.560469       -15.2511
  43   2.0000      -0.550177       -14.9711
  44   2.0000      -0.541815       -14.7435
  45   2.0000      -0.531098       -14.4519
  46   2.0000      -0.528440       -14.3796
  47   2.0000      -0.516426       -14.0527
  48   2.0000      -0.507873       -13.8199
  49   2.0000      -0.495891       -13.4939
  50   2.0000      -0.491284       -13.3685
  51   2.0000      -0.485019       -13.1980
  52   2.0000      -0.471919       -12.8416
  53   2.0000      -0.465198       -12.6587
  54   2.0000      -0.456818       -12.4306
  55   2.0000      -0.451194       -12.2776
  56   2.0000      -0.443855       -12.0779
  57   2.0000      -0.435481       -11.8500
  58   2.0000      -0.429313       -11.6822
  59   2.0000      -0.426927       -11.6173
  60   2.0000      -0.419762       -11.4223
  61   2.0000      -0.406836       -11.0706
  62   2.0000      -0.403289       -10.9741
  63   2.0000      -0.354350        -9.6424
  64   2.0000      -0.331483        -9.0201
  65   2.0000      -0.327053        -8.8996
  66   2.0000      -0.285341        -7.7645
  67   0.0000       0.021195         0.5768
  68   0.0000       0.070677         1.9232
  69   0.0000       0.110729         3.0131
  70   0.0000       0.125890         3.4257
  71   0.0000       0.137219         3.7339

MULLIKEN ATOMIC CHARGES
-----------------------
   0 S :    0.102800
   1 C :   -0.103477
   2 C :   -0.093984
   3 C :    0.028314
   4 C :   -0.154917
   5 H :    0.006915
   6 C :    0.080604
   7 H :    0.019280
   8 H :    0.019474
   9 C :   -0.043247
  10 H :    0.006884
  11 H :    0.007553
  12 C :   -0.022763
  13 H :    0.025469
  14 H :    0.035560
  15 H :    0.020586
  16 S :    0.078946
  17 C :   -0.085703
  18 C :   -0.036138
  19 C :   -0.027400
  20 C :   -0.154089
  21 H :    0.023777
  22 C :    0.068548
  23 H :    0.022029
  24 H :    0.034623
  25 C :   -0.076687
  26 H :    0.002936
  27 H :    0.017716
  28 C :   -0.035994
  29 H :    0.041208
  30 H :    0.045217
  31 H :    0.042927
  32 H :    0.041906
  33 H :    0.061124
Sum of atomic charges:    0.0000000

LOEWDIN ATOMIC CHARGES
----------------------
   0 S :    0.393802
   1 C :   -0.197127
   2 C :   -0.064138
   3 C :   -0.059370
   4 C :   -0.181938
   5 H :    0.026496
   6 C :   -0.022484
   7 H :    0.032518
   8 H :    0.024206
   9 C :   -0.042368
  10 H :    0.023356
  11 H :    0.020734
  12 C :   -0.063967
  13 H :    0.031073
  14 H :    0.026418
  15 H :    0.020385
  16 S :    0.372643
  17 C :   -0.172536
  18 C :   -0.081208
  19 C :   -0.051266
  20 C :   -0.184051
  21 H :    0.036502
  22 C :   -0.023903
  23 H :    0.028140
  24 H :    0.033045
  25 C :   -0.044292
  26 H :    0.011470
  27 H :    0.023318
  28 C :   -0.067179
  29 H :    0.031401
  30 H :    0.036231
  31 H :    0.029563
  32 H :    0.023102
  33 H :    0.031425

  Mayer bond orders larger than 0.100000
B(  0-S ,  1-C ) :   1.1309 B(  0-S ,  4-C ) :   1.1366 B(  1-C ,  2-C ) :   1.6091
B(  1-C , 32-H ) :   0.9678 B(  2-C ,  3-C ) :   1.2448 B(  2-C ,  6-C ) :   1.0319
B(  3-C ,  4-C ) :   1.5404 B(  3-C ,  5-H ) :   1.0013 B(  4-C , 20-C ) :   1.1147
B(  6-C ,  7-H ) :   0.9380 B(  6-C ,  8-H ) :   0.9433 B(  6-C ,  9-C ) :   1.0766
B(  9-C , 10-H ) :   0.9445 B(  9-C , 11-H ) :   0.9524 B(  9-C , 12-C ) :   1.0866
B( 12-C , 13-H ) :   0.9666 B( 12-C , 14-H ) :   0.9705 B( 12-C , 15-H ) :   0.9737
B( 16-S , 17-C ) :   1.1642 B( 16-S , 20-C ) :   1.1074 B( 17-C , 18-C ) :   1.6039
B( 17-C , 33-H ) :   0.9645 B( 18-C , 19-C ) :   1.2432 B( 18-C , 21-H ) :   0.9922
B( 19-C , 20-C ) :   1.5667 B( 19-C , 22-C ) :   1.0402 B( 22-C , 23-H ) :   0.9317
B( 22-C , 24-H ) :   0.9288 B( 22-C , 25-C ) :   1.0865 B( 25-C , 26-H ) :   0.9491
B( 25-C , 27-H ) :   0.9471 B( 25-C , 28-C ) :   1.0692 B( 28-C , 29-H ) :   0.9778
B( 28-C , 30-H ) :   0.9694 B( 28-C , 31-H ) :   0.9706

Dispersion correction           -0.014434630
FINAL SINGLE POINT ENERGY     -1339.873769101474

DIPOLE MOMENT
-------------
                                X             Y             Z
Electronic contribution:     10.51271      12.81986      11.55738
Nuclear contribution   :    -11.11140     -12.98942     -11.81024
                        -----------------------------------------
Total Dipole Moment    :     -0.59869      -0.16955      -0.25286
                        -----------------------------------------
Magnitude (a.u.)       :      0.67165
Magnitude (Debye)      :      1.70720

Rotational constants in cm-1:     0.022112     0.007834     0.006751
Rotational constants in MHz :   662.913824   234.849968   202.389380

                             ****ORCA TERMINATED NORMALLY****
TOTAL RUN TIME: 0 days 0 hours 0 minutes 21 seconds 679 msec
