                         Program Version 4.2.1 -  RELEASE  -
|  1> ! wB97X-D3 SP def2-SVP
|  2> %pal
|  3> nprocs 24
|  4> end
|  5>
|  6> * xyz 0 1
|  7> S 	 -49.3525 	 22.1511 	 30.2634
|  8> C 	 -50.5758 	 23.3259 	 29.6716
|  9> C 	 -50.1403 	 24.6152 	 29.7806
| 10> C 	 -48.8562 	 24.7111 	 30.3681
| 11> C 	 -48.2142 	 23.5 	 30.5918
| 12> H 	 -48.1966 	 25.5919 	 30.6493
| 13> C 	 -50.9114 	 25.8466 	 29.3864
| 14> H 	 -51.462 	 25.5174 	 28.4997
| 15> H 	 -50.111 	 26.4674 	 29.0326
| 16> C 	 -51.8331 	 26.4776 	 30.4244
| 17> H 	 -52.5195 	 25.8381 	 31.0578
| 18> H 	 -51.1147 	 26.8201 	 31.1821
| 19> C 	 -52.8792 	 27.4742 	 29.8446
| 20> H 	 -52.3827 	 27.9616 	 28.965
| 21> H 	 -53.7833 	 26.8958 	 29.5455
| 22> H 	 -53.0183 	 28.2118 	 30.581
| 23> S 	 -45.5669 	 24.4185 	 30.8973
| 24> C 	 -44.6138 	 23.7277 	 32.1753
| 25> C 	 -45.1733 	 22.5768 	 32.6223
| 26> C 	 -46.4549 	 22.3037 	 32.0894
| 27> C 	 -46.8998 	 23.3353 	 31.276
| 28> H 	 -44.689 	 21.9456 	 33.4117
| 29> C 	 -47.0081 	 20.9429 	 32.4532
| 30> H 	 -48.0845 	 20.9383 	 32.1302
| 31> H 	 -46.8532 	 20.7542 	 33.5683
| 32> C 	 -46.2285 	 19.8454 	 31.6754
| 33> H 	 -45.1496 	 19.9589 	 31.826
| 34> H 	 -46.4589 	 19.9567 	 30.6019
| 35> C 	 -46.5679 	 18.4197 	 32.1611
| 36> H 	 -46.2827 	 17.6561 	 31.4531
| 37> H 	 -47.6633 	 18.2912 	 32.437
| 38> H 	 -46.0867 	 18.2058 	 33.0456
| 39> H 	 -51.5717 	 23.0609 	 29.2431
| 40> H 	 -43.6469 	 24.0098 	 32.4106
| 41> *
| 42>
| 43>                          ****END OF INPUT****

CARTESIAN COORDINATES (ANGSTROEM)
---------------------------------
  S    -49.352500   22.151100   30.263400
  C    -50.575800   23.325900   29.671600
  C    -50.140300   24.615200   29.780600
  C    -48.856200   24.711100   30.368100
  C    -48.214200   23.500000   30.591800
  H    -48.196600   25.591900   30.649300
  C    -50.911400   25.846600   29.386400
  H    -51.462000   25.517400   28.499700
  H    -50.111000   26.467400   29.032600
  C    -51.833100   26.477600   30.424400
  H    -52.519500   25.838100   31.057800
  H    -51.114700   26.820100   31.182100
  C    -52.879200   27.474200   29.844600
  H    -52.382700   27.961600   28.965000
  H    -53.783300   26.895800   29.545500
  H    -53.018300   28.211800   30.581000
  S    -45.566900   24.418500   30.897300
  C    -44.613800   23.727700   32.175300
  C    -45.173300   22.576800   32.622300
  C    -46.454900   22.303700   32.089400
  C    -46.899800   23.335300   31.276000
  H    -44.689000   21.945600   33.411700
  C    -47.008100   20.942900   32.453200
  H    -48.084500   20.938300   32.130200
  H    -46.853200   20.754200   33.568300
  C    -46.228500   19.845400   31.675400
  H    -45.149600   19.958900   31.826000
  H    -46.458900   19.956700   30.601900
  C    -46.567900   18.419700   32.161100
  H    -46.282700   17.656100   31.453100
  H    -47.663300   18.291200   32.437000
  H    -46.086700   18.205800   33.045600
  H    -51.571700   23.060900   29.243100
  H    -43.646900   24.009800   32.410600

 Total Charge           Charge          ....    0
 Multiplicity           Mult            ....    1
 Number of Electrons    NEL             ....  134
 Basis Dimension        Dim             ....  322

ORBITAL ENERGIES
----------------

  NO   OCC          E(Eh)            E(eV)
   0   2.0000     -88.969113     -2420.9727
   1   2.0000     -88.967302     -2420.9234
   2   2.0000     -10.335421      -281.2411
   3   2.0000     -10.332236      -281.1544
   4   2.0000     -10.319020      -280.7948
   5   2.0000     -10.309404      -280.5331
   6   2.0000     -10.300767      -280.2981
   7   2.0000     -10.299375      -280.2602
   8   2.0000     -10.299246      -280.2567
   9   2.0000     -10.296786      -280.1898
  10   2.0000     -10.291232      -280.0387
  11   2.0000     -10.291100      -280.0351
  12   2.0000     -10.290039      -280.0062
  13   2.0000     -10.288998      -279.9779
  14   2.0000     -10.283427      -279.8263
  15   2.0000     -10.273312      -279.5510
  16   2.0000      -8.082036      -219.9234
  17   2.0000      -8.081813      -219.9173
  18   2.0000      -6.040691      -164.3756
  19   2.0000      -6.040553      -164.3718
  20   2.0000      -6.036713      -164.2673
  21   2.0000      -6.036700      -164.2670
  22   2.0000      -6.032491      -164.1524
  23   2.0000      -6.032353      -164.1487
  24   2.0000      -1.006278       -27.3822
  25   2.0000      -0.983833       -26.7714
  26   2.0000      -0.910471       -24.7752
  27   2.0000      -0.907601       -24.6971
  28   2.0000      -0.867606       -23.6088
  29   2.0000      -0.851969       -23.1833
  30   2.0000      -0.844888       -22.9906
  31   2.0000      -0.813587       -22.1388
  32   2.0000      -0.781875       -21.2759
  33   2.0000      -0.772439       -21.0191
  34   2.0000      -0.704150       -19.1609
  35   2.0000      -0.699387       -19.0313
  36   2.0000      -0.692328       -18.8392
  37   2.0000      -0.667892       -18.1743
  38   2.0000      -0.627719       -17.0811
  39   2.0000      -0.613131       -16.6842
  40   2.0000      -0.596606       -16.2345
  41   2.0000      -0.569607       -15.4998
  42   2.0000      -0.562020       -15.2933
  43   2.0000      -0.557937       -15.1822
  44   2.0000      -0.529546       -14.4097
  45   2.0000      -0.520497       -14.1634
  46   2.0000      -0.517043       -14.0695
  47   2.0000      -0.514667       -14.0048
  48   2.0000      -0.509179       -13.8555
  49   2.0000      -0.496446       -13.5090
  50   2.0000      -0.493921       -13.4403
  51   2.0000      -0.476767       -12.9735
  52   2.0000      -0.472111       -12.8468
  53   2.0000      -0.459374       -12.5002
  54   2.0000      -0.457839       -12.4584
  55   2.0000      -0.451185       -12.2774
  56   2.0000      -0.444154       -12.0860
  57   2.0000      -0.434974       -11.8363
  58   2.0000      -0.432326       -11.7642
  59   2.0000      -0.427284       -11.6270
  60   2.0000      -0.421054       -11.4575
  61   2.0000      -0.416174       -11.3247
  62   2.0000      -0.399913       -10.8822
  63   2.0000      -0.356037        -9.6883
  64   2.0000      -0.332861        -9.0576
  65   2.0000      -0.329639        -8.9699
  66   2.0000      -0.286464        -7.7951
  67   0.0000       0.022787         0.6201
  68   0.0000       0.081102         2.2069
  69   0.0000       0.101959         2.7744
  70   0.0000       0.107985         2.9384
  71   0.0000       0.127940         3.4814

MULLIKEN ATOMIC CHARGES
-----------------------
   0 S :    0.078284
   1 C :   -0.134051
   2 C :   -0.075590
   3 C :   -0.039313
   4 C :   -0.113743
   5 H :    0.038459
   6 C :    0.088809
   7 H :    0.015319
   8 H :    0.028092
   9 C :   -0.096911
  10 H :    0.035721
  11 H :    0.027703
  12 C :   -0.040590
  13 H :    0.034989
  14 H :    0.055347
  15 H :    0.035182
  16 S :    0.099538
  17 C :   -0.050904
  18 C :   -0.058614
  19 C :   -0.047247
  20 C :   -0.145471
  21 H :    0.035602
  22 C :    0.018710
  23 H :    0.038891
  24 H :    0.043777
  25 C :   -0.088416
  26 H :    0.034716
  27 H :    0.039074
  28 C :   -0.022023
  29 H :    0.036784
  30 H :    0.032656
  31 H :    0.009045
  32 H :    0.059444
  33 H :    0.026735
Sum of atomic charges:   -0.0000000

LOEWDIN ATOMIC CHARGES
----------------------
   0 S :    0.373340
   1 C :   -0.186186
   2 C :   -0.066604
   3 C :   -0.079248
   4 C :   -0.170962
   5 H :    0.039985
   6 C :   -0.033080
   7 H :    0.028849
   8 H :    0.033294
   9 C :   -0.051677
  10 H :    0.031692
  11 H :    0.024656
  12 C :   -0.061563
  13 H :    0.028232
  14 H :    0.034123
  15 H :    0.022892
  16 S :    0.404358
  17 C :   -0.176981
  18 C :   -0.070675
  19 C :   -0.064592
  20 C :   -0.191618
  21 H :    0.038892
  22 C :   -0.038491
  23 H :    0.019858
  24 H :    0.038168
  25 C :   -0.037808
  26 H :    0.024074
  27 H :    0.027805
  28 C :   -0.065514
  29 H :    0.027230
  30 H :    0.032110
  31 H :    0.011543
  32 H :    0.038408
  33 H :    0.015490

  Mayer bond orders larger than 0.100000
B(  0-S ,  1-C ) :   1.1155 B(  0-S ,  4-C ) :   1.1249 B(  1-C ,  2-C ) :   1.6414
B(  1-C , 32-H ) :   0.9603 B(  2-C ,  3-C ) :   1.2185 B(  2-C ,  6-C ) :   1.0061
B(  3-C ,  4-C ) :   1.5971 B(  3-C ,  5-H ) :   0.9767 B(  4-C , 20-C ) :   1.0524
B(  6-C ,  7-H ) :   0.9385 B(  6-C ,  8-H ) :   0.9343 B(  6-C ,  9-C ) :   1.0535
B(  9-C , 10-H ) :   0.9651 B(  9-C , 11-H ) :   0.9570 B(  9-C , 12-C ) :   1.0547
B( 12-C , 13-H ) :   0.9788 B( 12-C , 14-H ) :   0.9784 B( 12-C , 15-H ) :   0.9746
B( 16-S , 17-C ) :   1.1385 B( 16-S , 20-C ) :   1.1344 B( 17-C , 18-C ) :   1.6210
B( 17-C , 33-H ) :   0.9751 B( 18-C , 19-C ) :   1.2374 B( 18-C , 21-H ) :   0.9793
B( 19-C , 20-C ) :   1.5902 B( 19-C , 22-C ) :   1.0429 B( 22-C , 23-H ) :   0.9222
B( 22-C , 24-H ) :   0.9382 B( 22-C , 25-C ) :   1.0590 B( 25-C , 26-H ) :   0.9591
B( 25-C , 27-H ) :   0.9545 B( 25-C , 28-C ) :   1.0768 B( 28-C , 29-H ) :   0.9744
B( 28-C , 30-H ) :   0.9732 B( 28-C , 31-H ) :   0.9740

Dispersion correction           -0.013584847
FINAL SINGLE POINT ENERGY     -1339.862931336000

DIPOLE MOMENT
-------------
                                X             Y             Z
Electronic contribution:     11.90609       1.82202      -2.65734
Nuclear contribution   :    -11.96442      -1.80937       2.84068
                        -----------------------------------------
Total Dipole Moment    :     -0.05833       0.01265       0.18334
                        -----------------------------------------
Magnitude (a.u.)       :      0.19281
Magnitude (Debye)      :      0.49008

Rotational constants in cm-1:     0.023571     0.007033     0.005722
Rotational constants in MHz :   706.655474   210.836305   171.542681

                             ****ORCA TERMINATED NORMALLY****
TOTAL RUN TIME: 0 days 0 hours 0 minutes 20 seconds 854 msec
