                         Program Version 4.2.1 -  RELEASE  -
|  1> ! wB97X-D3 SP def2-SVP
|  2> %pal
|  3> nprocs 24
|  4> end
|  5>
|  6> * xyz 0 1
|  7> S 	 -75.6638 	 9.59597 	 -109.967
|  8> C 	 -76.3987 	 9.0812 	 -108.456
|  9> C 	 -75.4656 	 8.40955 	 -107.666
| 10> C 	 -74.1428 	 8.56911 	 -108.167
| 11> C 	 -74.0603 	 9.19945 	 -109.425
| 12> H 	 -73.2034 	 8.22941 	 -107.717
| 13> C 	 -75.6226 	 7.69924 	 -106.387
| 14> H 	 -74.9782 	 6.86052 	 -106.204
| 15> H 	 -76.4839 	 7.10907 	 -106.443
| 16> C 	 -75.7336 	 8.62509 	 -105.134
| 17> H 	 -75.7793 	 7.99061 	 -104.198
| 18> H 	 -74.8472 	 9.12014 	 -104.935
| 19> C 	 -76.9669 	 9.53183 	 -105.147
| 20> H 	 -77.8796 	 8.85326 	 -105.148
| 21> H 	 -77.1081 	 10.1074 	 -104.259
| 22> H 	 -76.9233 	 10.2407 	 -105.962
| 23> S 	 -72.5959 	 8.31972 	 -111.506
| 24> C 	 -70.9327 	 8.92617 	 -111.772
| 25> C 	 -70.619 	 9.84612 	 -110.791
| 26> C 	 -71.6364 	 10.1323 	 -109.828
| 27> C 	 -72.8589 	 9.49681 	 -110.205
| 28> H 	 -69.6595 	 10.3038 	 -110.851
| 29> C 	 -71.3324 	 10.7135 	 -108.507
| 30> H 	 -70.333 	 10.8911 	 -108.359
| 31> H 	 -71.6105 	 9.97079 	 -107.73
| 32> C 	 -72.1186 	 12.0594 	 -108.251
| 33> H 	 -72.127 	 12.2165 	 -107.214
| 34> H 	 -73.1119 	 12.0788 	 -108.57
| 35> C 	 -71.4555 	 13.2554 	 -108.91
| 36> H 	 -70.3999 	 13.251 	 -108.812
| 37> H 	 -71.8622 	 14.192 	 -108.492
| 38> H 	 -71.6037 	 13.3394 	 -109.967
| 39> H 	 -77.4855 	 9.29139 	 -108.225
| 40> H 	 -70.2073 	 8.73271 	 -112.541
| 41> *
| 42>
| 43>                          ****END OF INPUT****

CARTESIAN COORDINATES (ANGSTROEM)
---------------------------------
  S    -75.663800    9.595970  -109.967000
  C    -76.398700    9.081200  -108.456000
  C    -75.465600    8.409550  -107.666000
  C    -74.142800    8.569110  -108.167000
  C    -74.060300    9.199450  -109.425000
  H    -73.203400    8.229410  -107.717000
  C    -75.622600    7.699240  -106.387000
  H    -74.978200    6.860520  -106.204000
  H    -76.483900    7.109070  -106.443000
  C    -75.733600    8.625090  -105.134000
  H    -75.779300    7.990610  -104.198000
  H    -74.847200    9.120140  -104.935000
  C    -76.966900    9.531830  -105.147000
  H    -77.879600    8.853260  -105.148000
  H    -77.108100   10.107400  -104.259000
  H    -76.923300   10.240700  -105.962000
  S    -72.595900    8.319720  -111.506000
  C    -70.932700    8.926170  -111.772000
  C    -70.619000    9.846120  -110.791000
  C    -71.636400   10.132300  -109.828000
  C    -72.858900    9.496810  -110.205000
  H    -69.659500   10.303800  -110.851000
  C    -71.332400   10.713500  -108.507000
  H    -70.333000   10.891100  -108.359000
  H    -71.610500    9.970790  -107.730000
  C    -72.118600   12.059400  -108.251000
  H    -72.127000   12.216500  -107.214000
  H    -73.111900   12.078800  -108.570000
  C    -71.455500   13.255400  -108.910000
  H    -70.399900   13.251000  -108.812000
  H    -71.862200   14.192000  -108.492000
  H    -71.603700   13.339400  -109.967000
  H    -77.485500    9.291390  -108.225000
  H    -70.207300    8.732710  -112.541000

 Total Charge           Charge          ....    0
 Multiplicity           Mult            ....    1
 Number of Electrons    NEL             ....  134
 Basis Dimension        Dim             ....  322

ORBITAL ENERGIES
----------------

  NO   OCC          E(Eh)            E(eV)
   0   2.0000     -88.966255     -2420.8949
   1   2.0000     -88.966155     -2420.8921
   2   2.0000     -10.329580      -281.0822
   3   2.0000     -10.327939      -281.0375
   4   2.0000     -10.322660      -280.8939
   5   2.0000     -10.318159      -280.7714
   6   2.0000     -10.307355      -280.4774
   7   2.0000     -10.302576      -280.3473
   8   2.0000     -10.294711      -280.1333
   9   2.0000     -10.290408      -280.0162
  10   2.0000     -10.288392      -279.9614
  11   2.0000     -10.287076      -279.9256
  12   2.0000     -10.284328      -279.8508
  13   2.0000     -10.279342      -279.7151
  14   2.0000     -10.274650      -279.5874
  15   2.0000     -10.267306      -279.3876
  16   2.0000      -8.080840      -219.8908
  17   2.0000      -8.079663      -219.8588
  18   2.0000      -6.039297      -164.3376
  19   2.0000      -6.038363      -164.3122
  20   2.0000      -6.035184      -164.2257
  21   2.0000      -6.034344      -164.2029
  22   2.0000      -6.031838      -164.1347
  23   2.0000      -6.030286      -164.0924
  24   2.0000      -1.001713       -27.2580
  25   2.0000      -0.978702       -26.6318
  26   2.0000      -0.913906       -24.8686
  27   2.0000      -0.908880       -24.7319
  28   2.0000      -0.865772       -23.5589
  29   2.0000      -0.849204       -23.1080
  30   2.0000      -0.847309       -23.0565
  31   2.0000      -0.809517       -22.0281
  32   2.0000      -0.786918       -21.4131
  33   2.0000      -0.772377       -21.0174
  34   2.0000      -0.713918       -19.4267
  35   2.0000      -0.706155       -19.2155
  36   2.0000      -0.690803       -18.7977
  37   2.0000      -0.659190       -17.9375
  38   2.0000      -0.643534       -17.5115
  39   2.0000      -0.619181       -16.8488
  40   2.0000      -0.596952       -16.2439
  41   2.0000      -0.575291       -15.6545
  42   2.0000      -0.552201       -15.0261
  43   2.0000      -0.545527       -14.8446
  44   2.0000      -0.540956       -14.7202
  45   2.0000      -0.538632       -14.6569
  46   2.0000      -0.519768       -14.1436
  47   2.0000      -0.515028       -14.0146
  48   2.0000      -0.499674       -13.5968
  49   2.0000      -0.495050       -13.4710
  50   2.0000      -0.490286       -13.3414
  51   2.0000      -0.479663       -13.0523
  52   2.0000      -0.474508       -12.9120
  53   2.0000      -0.463135       -12.6025
  54   2.0000      -0.459696       -12.5090
  55   2.0000      -0.442434       -12.0392
  56   2.0000      -0.437920       -11.9164
  57   2.0000      -0.433995       -11.8096
  58   2.0000      -0.431478       -11.7411
  59   2.0000      -0.428128       -11.6500
  60   2.0000      -0.422623       -11.5001
  61   2.0000      -0.418308       -11.3827
  62   2.0000      -0.415002       -11.2928
  63   2.0000      -0.339095        -9.2272
  64   2.0000      -0.329852        -8.9757
  65   2.0000      -0.318056        -8.6547
  66   2.0000      -0.296342        -8.0639
  67   0.0000       0.029980         0.8158
  68   0.0000       0.053467         1.4549
  69   0.0000       0.107768         2.9325
  70   0.0000       0.113222         3.0809
  71   0.0000       0.129937         3.5358

MULLIKEN ATOMIC CHARGES
-----------------------
   0 S :    0.119519
   1 C :   -0.161247
   2 C :   -0.067283
   3 C :    0.026522
   4 C :   -0.178918
   5 H :    0.020825
   6 C :    0.099954
   7 H :    0.015972
   8 H :   -0.002040
   9 C :   -0.047030
  10 H :    0.022579
  11 H :    0.007018
  12 C :   -0.058273
  13 H :    0.033032
  14 H :    0.026211
  15 H :    0.042391
  16 S :    0.103141
  17 C :   -0.078604
  18 C :   -0.048035
  19 C :   -0.019867
  20 C :   -0.147162
  21 H :    0.010246
  22 C :    0.087562
  23 H :   -0.005237
  24 H :    0.032745
  25 C :   -0.025021
  26 H :    0.011052
  27 H :    0.027506
  28 C :   -0.045618
  29 H :    0.009645
  30 H :    0.031302
  31 H :    0.027026
  32 H :    0.080456
  33 H :    0.049632
Sum of atomic charges:   -0.0000000

LOEWDIN ATOMIC CHARGES
----------------------
   0 S :    0.416240
   1 C :   -0.205383
   2 C :   -0.063889
   3 C :   -0.058873
   4 C :   -0.215530
   5 H :    0.032318
   6 C :   -0.036177
   7 H :    0.034539
   8 H :    0.025395
   9 C :   -0.031979
  10 H :    0.028943
  11 H :    0.010082
  12 C :   -0.067358
  13 H :    0.032534
  14 H :    0.022838
  15 H :    0.023008
  16 S :    0.392760
  17 C :   -0.176754
  18 C :   -0.070392
  19 C :   -0.046889
  20 C :   -0.198868
  21 H :    0.026174
  22 C :   -0.021032
  23 H :    0.017417
  24 H :    0.038171
  25 C :   -0.022357
  26 H :    0.016702
  27 H :    0.020842
  28 C :   -0.062489
  29 H :    0.014465
  30 H :    0.029980
  31 H :    0.022486
  32 H :    0.042001
  33 H :    0.031076

  Mayer bond orders larger than 0.100000
B(  0-S ,  1-C ) :   1.1561 B(  0-S ,  4-C ) :   1.1620 B(  1-C ,  2-C ) :   1.5670
B(  1-C ,  4-C ) :   0.1063 B(  1-C , 32-H ) :   0.9622 B(  2-C ,  3-C ) :   1.2579
B(  2-C ,  6-C ) :   1.0352 B(  3-C ,  4-C ) :   1.5516 B(  3-C ,  5-H ) :   0.9909
B(  4-C , 20-C ) :   1.0019 B(  6-C ,  7-H ) :   0.9361 B(  6-C ,  8-H ) :   0.9253
B(  6-C ,  9-C ) :   1.0628 B(  9-C , 10-H ) :   0.9525 B(  9-C , 11-H ) :   0.9582
B(  9-C , 12-C ) :   1.0786 B( 12-C , 13-H ) :   0.9752 B( 12-C , 14-H ) :   0.9718
B( 12-C , 15-H ) :   0.9722 B( 16-S , 17-C ) :   1.1378 B( 16-S , 20-C ) :   1.1536
B( 17-C , 18-C ) :   1.6327 B( 17-C , 20-C ) :   0.1059 B( 17-C , 33-H ) :   0.9656
B( 18-C , 19-C ) :   1.2348 B( 18-C , 21-H ) :   0.9880 B( 19-C , 20-C ) :   1.5670
B( 19-C , 22-C ) :   1.0578 B( 22-C , 23-H ) :   0.9349 B( 22-C , 24-H ) :   0.9301
B( 22-C , 25-C ) :   1.0666 B( 25-C , 26-H ) :   0.9559 B( 25-C , 27-H ) :   0.9618
B( 25-C , 28-C ) :   1.0763 B( 28-C , 29-H ) :   0.9755 B( 28-C , 30-H ) :   0.9731
B( 28-C , 31-H ) :   0.9761

Dispersion correction           -0.014975066
FINAL SINGLE POINT ENERGY     -1339.852763944238

DIPOLE MOMENT
-------------
                                X             Y             Z
Electronic contribution:     -0.44876     -10.53624     -23.87097
Nuclear contribution   :      0.76210      10.56567      24.60325
                        -----------------------------------------
Total Dipole Moment    :      0.31333       0.02943       0.73227
                        -----------------------------------------
Magnitude (a.u.)       :      0.79704
Magnitude (Debye)      :      2.02591

Rotational constants in cm-1:     0.019818     0.008738     0.007228
Rotational constants in MHz :   594.138943   261.973365   216.688234

                             ****ORCA TERMINATED NORMALLY****
TOTAL RUN TIME: 0 days 0 hours 0 minutes 22 seconds 163 msec
