                         Program Version 4.2.1 -  RELEASE  -
|  1> ! wB97X-D3 SP def2-SVP
|  2> %pal
|  3> nprocs 24
|  4> end
|  5>
|  6> * xyz 0 1
|  7> S 	 -72.6418 	 7.04535 	 -110.734
|  8> C 	 -73.9403 	 7.46943 	 -109.564
|  9> C 	 -73.4476 	 7.32854 	 -108.268
| 10> C 	 -72.1381 	 6.76622 	 -108.19
| 11> C 	 -71.6138 	 6.47069 	 -109.402
| 12> H 	 -71.5203 	 6.5448 	 -107.301
| 13> C 	 -74.1771 	 7.72033 	 -107.012
| 14> H 	 -74.3782 	 6.74127 	 -106.523
| 15> H 	 -75.0937 	 8.18791 	 -107.304
| 16> C 	 -73.502 	 8.63634 	 -105.985
| 17> H 	 -72.4785 	 8.29487 	 -105.791
| 18> H 	 -73.2865 	 9.64475 	 -106.427
| 19> C 	 -74.1234 	 8.94714 	 -104.649
| 20> H 	 -74.7603 	 8.03634 	 -104.297
| 21> H 	 -73.3535 	 9.23632 	 -104.02
| 22> H 	 -74.8409 	 9.76717 	 -104.586
| 23> S 	 -70.6249 	 4.20252 	 -110.631
| 24> C 	 -68.9203 	 3.86164 	 -110.507
| 25> C 	 -68.2177 	 4.85341 	 -109.821
| 26> C 	 -69.1006 	 5.80531 	 -109.188
| 27> C 	 -70.4004 	 5.69848 	 -109.708
| 28> H 	 -67.1546 	 4.75919 	 -109.757
| 29> C 	 -68.6351 	 7.0024 	 -108.289
| 30> H 	 -69.2669 	 7.87177 	 -108.402
| 31> H 	 -67.6357 	 7.21922 	 -108.732
| 32> C 	 -68.4414 	 6.67696 	 -106.844
| 33> H 	 -67.7971 	 5.82154 	 -106.776
| 34> H 	 -69.4041 	 6.31195 	 -106.503
| 35> C 	 -67.8612 	 7.83693 	 -106.027
| 36> H 	 -68.5877 	 8.72593 	 -106.023
| 37> H 	 -66.9598 	 8.24136 	 -106.522
| 38> H 	 -67.5802 	 7.49941 	 -105.008
| 39> H 	 -74.8666 	 7.92027 	 -109.908
| 40> H 	 -68.3737 	 3.06435 	 -111.065
| 41> *
| 42>
| 43>                          ****END OF INPUT****

CARTESIAN COORDINATES (ANGSTROEM)
---------------------------------
  S    -72.641800    7.045350  -110.734000
  C    -73.940300    7.469430  -109.564000
  C    -73.447600    7.328540  -108.268000
  C    -72.138100    6.766220  -108.190000
  C    -71.613800    6.470690  -109.402000
  H    -71.520300    6.544800  -107.301000
  C    -74.177100    7.720330  -107.012000
  H    -74.378200    6.741270  -106.523000
  H    -75.093700    8.187910  -107.304000
  C    -73.502000    8.636340  -105.985000
  H    -72.478500    8.294870  -105.791000
  H    -73.286500    9.644750  -106.427000
  C    -74.123400    8.947140  -104.649000
  H    -74.760300    8.036340  -104.297000
  H    -73.353500    9.236320  -104.020000
  H    -74.840900    9.767170  -104.586000
  S    -70.624900    4.202520  -110.631000
  C    -68.920300    3.861640  -110.507000
  C    -68.217700    4.853410  -109.821000
  C    -69.100600    5.805310  -109.188000
  C    -70.400400    5.698480  -109.708000
  H    -67.154600    4.759190  -109.757000
  C    -68.635100    7.002400  -108.289000
  H    -69.266900    7.871770  -108.402000
  H    -67.635700    7.219220  -108.732000
  C    -68.441400    6.676960  -106.844000
  H    -67.797100    5.821540  -106.776000
  H    -69.404100    6.311950  -106.503000
  C    -67.861200    7.836930  -106.027000
  H    -68.587700    8.725930  -106.023000
  H    -66.959800    8.241360  -106.522000
  H    -67.580200    7.499410  -105.008000
  H    -74.866600    7.920270  -109.908000
  H    -68.373700    3.064350  -111.065000

 Total Charge           Charge          ....    0
 Multiplicity           Mult            ....    1
 Number of Electrons    NEL             ....  134
 Basis Dimension        Dim             ....  322

ORBITAL ENERGIES
----------------

  NO   OCC          E(Eh)            E(eV)
   0   2.0000     -88.968158     -2420.9467
   1   2.0000     -88.963442     -2420.8183
   2   2.0000     -10.329749      -281.0868
   3   2.0000     -10.329005      -281.0665
   4   2.0000     -10.320600      -280.8378
   5   2.0000     -10.320346      -280.8309
   6   2.0000     -10.311728      -280.5964
   7   2.0000     -10.306400      -280.4514
   8   2.0000     -10.298051      -280.2242
   9   2.0000     -10.294337      -280.1232
  10   2.0000     -10.294266      -280.1212
  11   2.0000     -10.292576      -280.0752
  12   2.0000     -10.291171      -280.0370
  13   2.0000     -10.289435      -279.9898
  14   2.0000     -10.283627      -279.8317
  15   2.0000     -10.281593      -279.7764
  16   2.0000      -8.082446      -219.9345
  17   2.0000      -8.077293      -219.7943
  18   2.0000      -6.040956      -164.3828
  19   2.0000      -6.037021      -164.2757
  20   2.0000      -6.035931      -164.2460
  21   2.0000      -6.033211      -164.1720
  22   2.0000      -6.032041      -164.1402
  23   2.0000      -6.027848      -164.0261
  24   2.0000      -1.001921       -27.2637
  25   2.0000      -0.979050       -26.6413
  26   2.0000      -0.913766       -24.8648
  27   2.0000      -0.911132       -24.7931
  28   2.0000      -0.868340       -23.6287
  29   2.0000      -0.850793       -23.1512
  30   2.0000      -0.845913       -23.0185
  31   2.0000      -0.816311       -22.2129
  32   2.0000      -0.783551       -21.3215
  33   2.0000      -0.770354       -20.9624
  34   2.0000      -0.705524       -19.1983
  35   2.0000      -0.696565       -18.9545
  36   2.0000      -0.690384       -18.7863
  37   2.0000      -0.658264       -17.9123
  38   2.0000      -0.643601       -17.5133
  39   2.0000      -0.621315       -16.9068
  40   2.0000      -0.594117       -16.1667
  41   2.0000      -0.569725       -15.5030
  42   2.0000      -0.566595       -15.4178
  43   2.0000      -0.556884       -15.1536
  44   2.0000      -0.531380       -14.4596
  45   2.0000      -0.522994       -14.2314
  46   2.0000      -0.518480       -14.1085
  47   2.0000      -0.513797       -13.9811
  48   2.0000      -0.507454       -13.8085
  49   2.0000      -0.494247       -13.4492
  50   2.0000      -0.493119       -13.4185
  51   2.0000      -0.480170       -13.0661
  52   2.0000      -0.474384       -12.9086
  53   2.0000      -0.467104       -12.7105
  54   2.0000      -0.456258       -12.4154
  55   2.0000      -0.450642       -12.2626
  56   2.0000      -0.449796       -12.2396
  57   2.0000      -0.440854       -11.9963
  58   2.0000      -0.429345       -11.6831
  59   2.0000      -0.423629       -11.5275
  60   2.0000      -0.421020       -11.4565
  61   2.0000      -0.416573       -11.3355
  62   2.0000      -0.403383       -10.9766
  63   2.0000      -0.345479        -9.4010
  64   2.0000      -0.332278        -9.0417
  65   2.0000      -0.326328        -8.8798
  66   2.0000      -0.295241        -8.0339
  67   0.0000       0.029336         0.7983
  68   0.0000       0.066803         1.8178
  69   0.0000       0.107528         2.9260
  70   0.0000       0.116805         3.1784
  71   0.0000       0.120818         3.2876

MULLIKEN ATOMIC CHARGES
-----------------------
   0 S :    0.089062
   1 C :   -0.136455
   2 C :   -0.076289
   3 C :    0.029986
   4 C :   -0.158391
   5 H :    0.015966
   6 C :    0.110176
   7 H :    0.039581
   8 H :    0.009572
   9 C :   -0.108361
  10 H :    0.018135
  11 H :    0.027363
  12 C :   -0.036285
  13 H :    0.036175
  14 H :    0.025274
  15 H :    0.030271
  16 S :    0.121113
  17 C :   -0.112536
  18 C :   -0.026591
  19 C :   -0.029495
  20 C :   -0.151345
  21 H :    0.015797
  22 C :    0.032416
  23 H :    0.033634
  24 H :    0.022297
  25 C :   -0.044924
  26 H :    0.017191
  27 H :    0.013979
  28 C :   -0.055964
  29 H :    0.041001
  30 H :    0.030462
  31 H :    0.048809
  32 H :    0.056101
  33 H :    0.072273
Sum of atomic charges:   -0.0000000

LOEWDIN ATOMIC CHARGES
----------------------
   0 S :    0.367298
   1 C :   -0.183588
   2 C :   -0.057425
   3 C :   -0.068436
   4 C :   -0.177881
   5 H :    0.037403
   6 C :   -0.031949
   7 H :    0.038981
   8 H :    0.025118
   9 C :   -0.053267
  10 H :    0.020721
  11 H :    0.030414
  12 C :   -0.065360
  13 H :    0.034932
  14 H :    0.021448
  15 H :    0.023433
  16 S :    0.407753
  17 C :   -0.196897
  18 C :   -0.070988
  19 C :   -0.048821
  20 C :   -0.197170
  21 H :    0.028797
  22 C :   -0.027970
  23 H :    0.027451
  24 H :    0.032121
  25 C :   -0.045296
  26 H :    0.021858
  27 H :    0.017179
  28 C :   -0.068825
  29 H :    0.032759
  30 H :    0.026857
  31 H :    0.031226
  32 H :    0.029338
  33 H :    0.038789

  Mayer bond orders larger than 0.100000
B(  0-S ,  1-C ) :   1.1121 B(  0-S ,  4-C ) :   1.1442 B(  1-C ,  2-C ) :   1.6214
B(  1-C , 32-H ) :   0.9727 B(  2-C ,  3-C ) :   1.1984 B(  2-C ,  6-C ) :   1.0334
B(  3-C ,  4-C ) :   1.6182 B(  3-C ,  5-H ) :   0.9857 B(  4-C , 20-C ) :   1.0156
B(  6-C ,  7-H ) :   0.9270 B(  6-C ,  8-H ) :   0.9395 B(  6-C ,  9-C ) :   1.0681
B(  9-C , 10-H ) :   0.9561 B(  9-C , 11-H ) :   0.9481 B(  9-C , 12-C ) :   1.0849
B( 12-C , 13-H ) :   0.9732 B( 12-C , 14-H ) :   0.9717 B( 12-C , 15-H ) :   0.9762
B( 16-S , 17-C ) :   1.1562 B( 16-S , 20-C ) :   1.1430 B( 17-C , 18-C ) :   1.6262
B( 17-C , 20-C ) :   0.1007 B( 17-C , 33-H ) :   0.9580 B( 18-C , 19-C ) :   1.2260
B( 18-C , 21-H ) :   0.9886 B( 19-C , 20-C ) :   1.5968 B( 19-C , 22-C ) :   1.0292
B( 22-C , 23-H ) :   0.9455 B( 22-C , 24-H ) :   0.9360 B( 22-C , 25-C ) :   1.0658
B( 25-C , 26-H ) :   0.9482 B( 25-C , 27-H ) :   0.9478 B( 25-C , 28-C ) :   1.0802
B( 28-C , 29-H ) :   0.9729 B( 28-C , 30-H ) :   0.9717 B( 28-C , 31-H ) :   0.9741

Dispersion correction           -0.014041439
FINAL SINGLE POINT ENERGY     -1339.875207065357

DIPOLE MOMENT
-------------
                                X             Y             Z
Electronic contribution:     -3.47934     -14.97740     -28.88844
Nuclear contribution   :      3.76078      15.23772      29.47444
                        -----------------------------------------
Total Dipole Moment    :      0.28144       0.26031       0.58600
                        -----------------------------------------
Magnitude (a.u.)       :      0.70026
Magnitude (Debye)      :      1.77992

Rotational constants in cm-1:     0.016393     0.009460     0.006529
Rotational constants in MHz :   491.462332   283.599088   195.727323

                             ****ORCA TERMINATED NORMALLY****
TOTAL RUN TIME: 0 days 0 hours 0 minutes 20 seconds 329 msec
