                         Program Version 4.2.1 -  RELEASE  -
|  1> ! wB97X-D3 SP def2-SVP
|  2> %pal
|  3> nprocs 24
|  4> end
|  5>
|  6> * xyz 0 1
|  7> S 	 -36.5851 	 -8.3621 	 20.1715
|  8> C 	 -35.8045 	 -9.93729 	 20.0489
|  9> C 	 -35.8341 	 -10.4683 	 18.8084
| 10> C 	 -36.3926 	 -9.54973 	 17.9038
| 11> C 	 -36.8104 	 -8.31315 	 18.438
| 12> H 	 -36.5027 	 -9.75477 	 16.8004
| 13> C 	 -35.2069 	 -11.8214 	 18.4022
| 14> H 	 -36.0035 	 -12.58 	 18.4568
| 15> H 	 -34.4482 	 -12.2506 	 19.0806
| 16> C 	 -34.6626 	 -11.9122 	 16.9943
| 17> H 	 -34.2681 	 -12.9687 	 16.9276
| 18> H 	 -35.5328 	 -11.8287 	 16.4044
| 19> C 	 -33.6448 	 -10.8126 	 16.6812
| 20> H 	 -33.1386 	 -10.9268 	 15.727
| 21> H 	 -34.1336 	 -9.87184 	 16.5386
| 22> H 	 -32.9253 	 -10.6741 	 17.4635
| 23> S 	 -38.9223 	 -6.55215 	 18.6267
| 24> C 	 -38.9068 	 -5.06797 	 17.7189
| 25> C 	 -37.9183 	 -5.16719 	 16.7169
| 26> C 	 -37.211 	 -6.48281 	 16.6897
| 27> C 	 -37.5336 	 -7.22628 	 17.8094
| 28> H 	 -37.9414 	 -4.3375 	 16.0267
| 29> C 	 -36.1264 	 -6.87322 	 15.5954
| 30> H 	 -36.0751 	 -7.96725 	 15.4195
| 31> H 	 -35.1299 	 -6.51978 	 15.8476
| 32> C 	 -36.5349 	 -6.30136 	 14.229
| 33> H 	 -35.6452 	 -6.37582 	 13.5292
| 34> H 	 -36.6875 	 -5.22402 	 14.1936
| 35> C 	 -37.7456 	 -6.79133 	 13.5751
| 36> H 	 -38.6426 	 -6.45561 	 14.1284
| 37> H 	 -37.837 	 -7.807 	 13.3681
| 38> H 	 -37.9083 	 -6.31295 	 12.632
| 39> H 	 -35.2782 	 -10.3736 	 20.9283
| 40> H 	 -39.5626 	 -4.18831 	 17.8189
| 41> *
| 42>
| 43>                          ****END OF INPUT****

CARTESIAN COORDINATES (ANGSTROEM)
---------------------------------
  S    -36.585100   -8.362100   20.171500
  C    -35.804500   -9.937290   20.048900
  C    -35.834100  -10.468300   18.808400
  C    -36.392600   -9.549730   17.903800
  C    -36.810400   -8.313150   18.438000
  H    -36.502700   -9.754770   16.800400
  C    -35.206900  -11.821400   18.402200
  H    -36.003500  -12.580000   18.456800
  H    -34.448200  -12.250600   19.080600
  C    -34.662600  -11.912200   16.994300
  H    -34.268100  -12.968700   16.927600
  H    -35.532800  -11.828700   16.404400
  C    -33.644800  -10.812600   16.681200
  H    -33.138600  -10.926800   15.727000
  H    -34.133600   -9.871840   16.538600
  H    -32.925300  -10.674100   17.463500
  S    -38.922300   -6.552150   18.626700
  C    -38.906800   -5.067970   17.718900
  C    -37.918300   -5.167190   16.716900
  C    -37.211000   -6.482810   16.689700
  C    -37.533600   -7.226280   17.809400
  H    -37.941400   -4.337500   16.026700
  C    -36.126400   -6.873220   15.595400
  H    -36.075100   -7.967250   15.419500
  H    -35.129900   -6.519780   15.847600
  C    -36.534900   -6.301360   14.229000
  H    -35.645200   -6.375820   13.529200
  H    -36.687500   -5.224020   14.193600
  C    -37.745600   -6.791330   13.575100
  H    -38.642600   -6.455610   14.128400
  H    -37.837000   -7.807000   13.368100
  H    -37.908300   -6.312950   12.632000
  H    -35.278200  -10.373600   20.928300
  H    -39.562600   -4.188310   17.818900

 Total Charge           Charge          ....    0
 Multiplicity           Mult            ....    1
 Number of Electrons    NEL             ....  134
 Basis Dimension        Dim             ....  322

ORBITAL ENERGIES
----------------

  NO   OCC          E(Eh)            E(eV)
   0   2.0000     -88.966651     -2420.9057
   1   2.0000     -88.964551     -2420.8485
   2   2.0000     -10.332675      -281.1664
   3   2.0000     -10.328088      -281.0416
   4   2.0000     -10.322793      -280.8975
   5   2.0000     -10.315506      -280.6992
   6   2.0000     -10.314033      -280.6591
   7   2.0000     -10.303273      -280.3663
   8   2.0000     -10.302943      -280.3573
   9   2.0000     -10.300376      -280.2875
  10   2.0000     -10.299858      -280.2734
  11   2.0000     -10.295922      -280.1663
  12   2.0000     -10.287451      -279.9358
  13   2.0000     -10.285155      -279.8733
  14   2.0000     -10.271710      -279.5074
  15   2.0000     -10.264391      -279.3083
  16   2.0000      -8.081244      -219.9018
  17   2.0000      -8.079519      -219.8549
  18   2.0000      -6.039691      -164.3484
  19   2.0000      -6.038137      -164.3061
  20   2.0000      -6.035812      -164.2428
  21   2.0000      -6.033896      -164.1907
  22   2.0000      -6.032015      -164.1395
  23   2.0000      -6.030214      -164.0905
  24   2.0000      -1.006809       -27.3967
  25   2.0000      -0.982716       -26.7410
  26   2.0000      -0.916628       -24.9427
  27   2.0000      -0.911443       -24.8016
  28   2.0000      -0.871648       -23.7187
  29   2.0000      -0.848333       -23.0843
  30   2.0000      -0.836972       -22.7752
  31   2.0000      -0.812964       -22.1219
  32   2.0000      -0.791327       -21.5331
  33   2.0000      -0.781478       -21.2651
  34   2.0000      -0.709692       -19.3117
  35   2.0000      -0.693189       -18.8626
  36   2.0000      -0.689825       -18.7711
  37   2.0000      -0.651921       -17.7397
  38   2.0000      -0.635904       -17.3038
  39   2.0000      -0.626326       -17.0432
  40   2.0000      -0.597318       -16.2538
  41   2.0000      -0.570448       -15.5227
  42   2.0000      -0.559495       -15.2246
  43   2.0000      -0.557303       -15.1650
  44   2.0000      -0.534974       -14.5574
  45   2.0000      -0.532057       -14.4780
  46   2.0000      -0.522854       -14.2276
  47   2.0000      -0.510991       -13.9048
  48   2.0000      -0.502104       -13.6629
  49   2.0000      -0.497002       -13.5241
  50   2.0000      -0.493490       -13.4285
  51   2.0000      -0.482083       -13.1181
  52   2.0000      -0.471210       -12.8223
  53   2.0000      -0.466214       -12.6863
  54   2.0000      -0.459296       -12.4981
  55   2.0000      -0.450560       -12.2604
  56   2.0000      -0.442539       -12.0421
  57   2.0000      -0.434612       -11.8264
  58   2.0000      -0.430362       -11.7108
  59   2.0000      -0.426425       -11.6036
  60   2.0000      -0.419937       -11.4271
  61   2.0000      -0.417128       -11.3506
  62   2.0000      -0.401333       -10.9208
  63   2.0000      -0.350580        -9.5398
  64   2.0000      -0.335057        -9.1174
  65   2.0000      -0.325832        -8.8664
  66   2.0000      -0.288628        -7.8540
  67   0.0000       0.025835         0.7030
  68   0.0000       0.070374         1.9150
  69   0.0000       0.107615         2.9284
  70   0.0000       0.120597         3.2816
  71   0.0000       0.132577         3.6076

MULLIKEN ATOMIC CHARGES
-----------------------
   0 S :    0.114046
   1 C :   -0.167298
   2 C :   -0.034114
   3 C :   -0.012561
   4 C :   -0.145054
   5 H :    0.029884
   6 C :    0.047721
   7 H :    0.037278
   8 H :    0.027350
   9 C :   -0.086099
  10 H :    0.039929
  11 H :    0.020362
  12 C :   -0.009422
  13 H :    0.028654
  14 H :    0.014998
  15 H :    0.028691
  16 S :    0.107592
  17 C :   -0.116865
  18 C :   -0.053509
  19 C :   -0.036812
  20 C :   -0.154903
  21 H :    0.023512
  22 C :    0.111205
  23 H :    0.033653
  24 H :    0.045351
  25 C :   -0.128643
  26 H :    0.026016
  27 H :    0.020738
  28 C :   -0.004322
  29 H :    0.029299
  30 H :    0.012896
  31 H :    0.015198
  32 H :    0.061658
  33 H :    0.073572
Sum of atomic charges:   -0.0000000

LOEWDIN ATOMIC CHARGES
----------------------
   0 S :    0.407272
   1 C :   -0.190580
   2 C :   -0.071557
   3 C :   -0.068024
   4 C :   -0.194150
   5 H :    0.034329
   6 C :   -0.031727
   7 H :    0.036301
   8 H :    0.029790
   9 C :   -0.042665
  10 H :    0.034387
  11 H :    0.015041
  12 C :   -0.063804
  13 H :    0.026782
  14 H :    0.023475
  15 H :    0.024697
  16 S :    0.406173
  17 C :   -0.198722
  18 C :   -0.073944
  19 C :   -0.051452
  20 C :   -0.202932
  21 H :    0.027819
  22 C :   -0.021991
  23 H :    0.031974
  24 H :    0.035420
  25 C :   -0.055574
  26 H :    0.028023
  27 H :    0.023350
  28 C :   -0.064144
  29 H :    0.031048
  30 H :    0.012458
  31 H :    0.027789
  32 H :    0.034922
  33 H :    0.040216

  Mayer bond orders larger than 0.100000
B(  0-S ,  1-C ) :   1.1452 B(  0-S ,  4-C ) :   1.1562 B(  1-C ,  2-C ) :   1.6129
B(  1-C ,  4-C ) :   0.1006 B(  1-C , 32-H ) :   0.9611 B(  2-C ,  3-C ) :   1.2762
B(  2-C ,  6-C ) :   0.9920 B(  3-C ,  4-C ) :   1.5478 B(  3-C ,  5-H ) :   0.9740
B(  4-C , 20-C ) :   1.0639 B(  6-C ,  7-H ) :   0.9350 B(  6-C ,  8-H ) :   0.9505
B(  6-C ,  9-C ) :   1.0854 B(  9-C , 10-H ) :   0.9530 B(  9-C , 11-H ) :   0.9490
B(  9-C , 12-C ) :   1.0822 B( 12-C , 13-H ) :   0.9719 B( 12-C , 14-H ) :   0.9649
B( 12-C , 15-H ) :   0.9753 B( 16-S , 17-C ) :   1.1414 B( 16-S , 20-C ) :   1.1420
B( 17-C , 18-C ) :   1.6302 B( 17-C , 33-H ) :   0.9654 B( 18-C , 19-C ) :   1.2092
B( 18-C , 21-H ) :   0.9865 B( 19-C , 20-C ) :   1.5998 B( 19-C , 22-C ) :   1.0162
B( 22-C , 23-H ) :   0.9447 B( 22-C , 24-H ) :   0.9355 B( 22-C , 25-C ) :   1.0689
B( 25-C , 26-H ) :   0.9518 B( 25-C , 27-H ) :   0.9484 B( 25-C , 28-C ) :   1.0998
B( 28-C , 29-H ) :   0.9644 B( 28-C , 30-H ) :   0.9723 B( 28-C , 31-H ) :   0.9633

Dispersion correction           -0.014784909
FINAL SINGLE POINT ENERGY     -1339.865176370904

DIPOLE MOMENT
-------------
                                X             Y             Z
Electronic contribution:    -12.77328       9.21789      24.02542
Nuclear contribution   :     13.06552      -9.36539     -24.58062
                        -----------------------------------------
Total Dipole Moment    :      0.29224      -0.14750      -0.55520
                        -----------------------------------------
Magnitude (a.u.)       :      0.64453
Magnitude (Debye)      :      1.63825

Rotational constants in cm-1:     0.018167     0.009857     0.006864
Rotational constants in MHz :   544.647787   295.508906   205.764020

                             ****ORCA TERMINATED NORMALLY****
TOTAL RUN TIME: 0 days 0 hours 0 minutes 22 seconds 230 msec
