                         Program Version 4.2.1 -  RELEASE  -
|  1> ! wB97X-D3 SP def2-SVP
|  2> %pal
|  3> nprocs 24
|  4> end
|  5>
|  6> * xyz 0 1
|  7> S 	 -105.938 	 43.946 	 -9.77634
|  8> C 	 -105.89 	 44.4369 	 -11.4518
|  9> C 	 -105.827 	 43.3616 	 -12.328
| 10> C 	 -105.761 	 42.1278 	 -11.6293
| 11> C 	 -105.943 	 42.2443 	 -10.2384
| 12> H 	 -105.68 	 41.1275 	 -12.0249
| 13> C 	 -105.742 	 43.5165 	 -13.8396
| 14> H 	 -104.902 	 42.9437 	 -14.1487
| 15> H 	 -105.365 	 44.5063 	 -13.9066
| 16> C 	 -106.993 	 43.1706 	 -14.5806
| 17> H 	 -107.352 	 42.2027 	 -14.2522
| 18> H 	 -107.846 	 43.7453 	 -14.2437
| 19> C 	 -106.889 	 43.3513 	 -16.0917
| 20> H 	 -107.741 	 42.9018 	 -16.6405
| 21> H 	 -106.687 	 44.3857 	 -16.3691
| 22> H 	 -106.013 	 42.8128 	 -16.4523
| 23> S 	 -104.719 	 41.2257 	 -7.94908
| 24> C 	 -105.26 	 39.7654 	 -7.25671
| 25> C 	 -106.125 	 39.1445 	 -8.09926
| 26> C 	 -106.561 	 39.9615 	 -9.25575
| 27> C 	 -105.925 	 41.2235 	 -9.2233
| 28> H 	 -106.392 	 38.1467 	 -7.984
| 29> C 	 -107.536 	 39.5272 	 -10.3631
| 30> H 	 -106.859 	 39.6281 	 -11.2379
| 31> H 	 -108.424 	 40.1999 	 -10.3974
| 32> C 	 -108.032 	 38.0844 	 -10.2755
| 33> H 	 -108.688 	 37.9097 	 -9.50184
| 34> H 	 -107.233 	 37.3695 	 -9.99304
| 35> C 	 -108.606 	 37.4971 	 -11.6126
| 36> H 	 -107.831 	 37.5076 	 -12.4132
| 37> H 	 -109.433 	 38.0747 	 -12.0096
| 38> H 	 -108.78 	 36.4109 	 -11.4482
| 39> H 	 -105.878 	 45.4906 	 -11.6975
| 40> H 	 -104.682 	 39.1273 	 -6.55199
| 41> *
| 42>
| 43>                          ****END OF INPUT****

CARTESIAN COORDINATES (ANGSTROEM)
---------------------------------
  S    -105.938000   43.946000   -9.776340
  C    -105.890000   44.436900  -11.451800
  C    -105.827000   43.361600  -12.328000
  C    -105.761000   42.127800  -11.629300
  C    -105.943000   42.244300  -10.238400
  H    -105.680000   41.127500  -12.024900
  C    -105.742000   43.516500  -13.839600
  H    -104.902000   42.943700  -14.148700
  H    -105.365000   44.506300  -13.906600
  C    -106.993000   43.170600  -14.580600
  H    -107.352000   42.202700  -14.252200
  H    -107.846000   43.745300  -14.243700
  C    -106.889000   43.351300  -16.091700
  H    -107.741000   42.901800  -16.640500
  H    -106.687000   44.385700  -16.369100
  H    -106.013000   42.812800  -16.452300
  S    -104.719000   41.225700   -7.949080
  C    -105.260000   39.765400   -7.256710
  C    -106.125000   39.144500   -8.099260
  C    -106.561000   39.961500   -9.255750
  C    -105.925000   41.223500   -9.223300
  H    -106.392000   38.146700   -7.984000
  C    -107.536000   39.527200  -10.363100
  H    -106.859000   39.628100  -11.237900
  H    -108.424000   40.199900  -10.397400
  C    -108.032000   38.084400  -10.275500
  H    -108.688000   37.909700   -9.501840
  H    -107.233000   37.369500   -9.993040
  C    -108.606000   37.497100  -11.612600
  H    -107.831000   37.507600  -12.413200
  H    -109.433000   38.074700  -12.009600
  H    -108.780000   36.410900  -11.448200
  H    -105.878000   45.490600  -11.697500
  H    -104.682000   39.127300   -6.551990

 Total Charge           Charge          ....    0
 Multiplicity           Mult            ....    1
 Number of Electrons    NEL             ....  134
 Basis Dimension        Dim             ....  322

ORBITAL ENERGIES
----------------

  NO   OCC          E(Eh)            E(eV)
   0   2.0000     -88.965159     -2420.8651
   1   2.0000     -88.962918     -2420.8041
   2   2.0000     -10.330148      -281.0976
   3   2.0000     -10.325540      -280.9722
   4   2.0000     -10.314514      -280.6722
   5   2.0000     -10.313633      -280.6482
   6   2.0000     -10.310037      -280.5504
   7   2.0000     -10.302253      -280.3386
   8   2.0000     -10.301319      -280.3131
   9   2.0000     -10.296974      -280.1949
  10   2.0000     -10.290589      -280.0212
  11   2.0000     -10.286711      -279.9156
  12   2.0000     -10.285959      -279.8952
  13   2.0000     -10.285527      -279.8834
  14   2.0000     -10.283615      -279.8314
  15   2.0000     -10.280791      -279.7545
  16   2.0000      -8.079853      -219.8640
  17   2.0000      -8.078397      -219.8244
  18   2.0000      -6.038229      -164.3086
  19   2.0000      -6.036963      -164.2741
  20   2.0000      -6.034341      -164.2028
  21   2.0000      -6.032739      -164.1592
  22   2.0000      -6.030788      -164.1061
  23   2.0000      -6.029095      -164.0600
  24   2.0000      -1.005651       -27.3651
  25   2.0000      -0.983765       -26.7696
  26   2.0000      -0.917804       -24.9747
  27   2.0000      -0.907911       -24.7055
  28   2.0000      -0.873449       -23.7678
  29   2.0000      -0.851603       -23.1733
  30   2.0000      -0.841580       -22.9006
  31   2.0000      -0.816290       -22.2124
  32   2.0000      -0.784894       -21.3581
  33   2.0000      -0.769947       -20.9513
  34   2.0000      -0.714789       -19.4504
  35   2.0000      -0.707536       -19.2530
  36   2.0000      -0.696718       -18.9587
  37   2.0000      -0.653803       -17.7909
  38   2.0000      -0.642457       -17.4821
  39   2.0000      -0.619018       -16.8443
  40   2.0000      -0.595536       -16.2054
  41   2.0000      -0.571653       -15.5555
  42   2.0000      -0.567981       -15.4556
  43   2.0000      -0.556921       -15.1546
  44   2.0000      -0.535173       -14.5628
  45   2.0000      -0.528306       -14.3759
  46   2.0000      -0.519422       -14.1342
  47   2.0000      -0.508881       -13.8474
  48   2.0000      -0.504093       -13.7171
  49   2.0000      -0.500449       -13.6179
  50   2.0000      -0.491856       -13.3841
  51   2.0000      -0.481930       -13.1140
  52   2.0000      -0.470518       -12.8034
  53   2.0000      -0.469120       -12.7654
  54   2.0000      -0.460893       -12.5415
  55   2.0000      -0.450777       -12.2663
  56   2.0000      -0.448591       -12.2068
  57   2.0000      -0.443527       -12.0690
  58   2.0000      -0.428932       -11.6718
  59   2.0000      -0.426860       -11.6154
  60   2.0000      -0.423560       -11.5257
  61   2.0000      -0.412650       -11.2288
  62   2.0000      -0.410781       -11.1779
  63   2.0000      -0.348912        -9.4944
  64   2.0000      -0.333018        -9.0619
  65   2.0000      -0.323989        -8.8162
  66   2.0000      -0.289841        -7.8870
  67   0.0000       0.025986         0.7071
  68   0.0000       0.070260         1.9119
  69   0.0000       0.112788         3.0691
  70   0.0000       0.122660         3.3377
  71   0.0000       0.131730         3.5845

MULLIKEN ATOMIC CHARGES
-----------------------
   0 S :    0.109590
   1 C :   -0.127801
   2 C :   -0.119163
   3 C :    0.040164
   4 C :   -0.196715
   5 H :    0.012348
   6 C :    0.129054
   7 H :    0.012510
   8 H :   -0.001768
   9 C :   -0.040453
  10 H :    0.012722
  11 H :    0.018039
  12 C :   -0.031255
  13 H :    0.043642
  14 H :    0.033405
  15 H :    0.016688
  16 S :    0.109304
  17 C :   -0.067310
  18 C :   -0.040090
  19 C :   -0.089589
  20 C :   -0.125438
  21 H :   -0.007866
  22 C :    0.093108
  23 H :    0.029507
  24 H :    0.062368
  25 C :   -0.092898
  26 H :    0.016651
  27 H :    0.023185
  28 C :   -0.055985
  29 H :    0.027601
  30 H :    0.039203
  31 H :    0.041915
  32 H :    0.050754
  33 H :    0.074573
Sum of atomic charges:   -0.0000000

LOEWDIN ATOMIC CHARGES
----------------------
   0 S :    0.406204
   1 C :   -0.196066
   2 C :   -0.060504
   3 C :   -0.058426
   4 C :   -0.191683
   5 H :    0.027720
   6 C :   -0.025608
   7 H :    0.028245
   8 H :    0.026127
   9 C :   -0.044074
  10 H :    0.023834
  11 H :    0.025813
  12 C :   -0.065133
  13 H :    0.032244
  14 H :    0.026819
  15 H :    0.021922
  16 S :    0.421733
  17 C :   -0.212226
  18 C :   -0.069769
  19 C :   -0.048064
  20 C :   -0.212247
  21 H :    0.015860
  22 C :   -0.033821
  23 H :    0.036378
  24 H :    0.044602
  25 C :   -0.044777
  26 H :    0.012561
  27 H :    0.026343
  28 C :   -0.064531
  29 H :    0.024781
  30 H :    0.022552
  31 H :    0.032826
  32 H :    0.025645
  33 H :    0.044718

  Mayer bond orders larger than 0.100000
B(  0-S ,  1-C ) :   1.1532 B(  0-S ,  4-C ) :   1.1585 B(  1-C ,  2-C ) :   1.5941
B(  1-C ,  4-C ) :   0.1039 B(  1-C , 32-H ) :   0.9688 B(  2-C ,  3-C ) :   1.2596
B(  2-C ,  6-C ) :   1.0112 B(  3-C ,  4-C ) :   1.5505 B(  3-C ,  5-H ) :   0.9876
B(  4-C , 20-C ) :   1.0649 B(  6-C ,  7-H ) :   0.9312 B(  6-C ,  8-H ) :   0.9331
B(  6-C ,  9-C ) :   1.0580 B(  9-C , 10-H ) :   0.9524 B(  9-C , 11-H ) :   0.9487
B(  9-C , 12-C ) :   1.0807 B( 12-C , 13-H ) :   0.9736 B( 12-C , 14-H ) :   0.9745
B( 12-C , 15-H ) :   0.9736 B( 16-S , 17-C ) :   1.1575 B( 16-S , 20-C ) :   1.1515
B( 17-C , 18-C ) :   1.6049 B( 17-C , 33-H ) :   0.9524 B( 18-C , 19-C ) :   1.2568
B( 18-C , 21-H ) :   0.9935 B( 19-C , 20-C ) :   1.5731 B( 19-C , 22-C ) :   1.0209
B( 22-C , 23-H ) :   0.9316 B( 22-C , 24-H ) :   0.9307 B( 22-C , 25-C ) :   1.0824
B( 25-C , 26-H ) :   0.9520 B( 25-C , 27-H ) :   0.9494 B( 25-C , 28-C ) :   1.0812
B( 28-C , 29-H ) :   0.9761 B( 28-C , 30-H ) :   0.9767 B( 28-C , 31-H ) :   0.9741

Dispersion correction           -0.013478943
FINAL SINGLE POINT ENERGY     -1339.873011037635

DIPOLE MOMENT
-------------
                                X             Y             Z
Electronic contribution:     12.60007      12.24834      27.12894
Nuclear contribution   :    -12.69100     -12.73468     -27.77836
                        -----------------------------------------
Total Dipole Moment    :     -0.09093      -0.48633      -0.64941
                        -----------------------------------------
Magnitude (a.u.)       :      0.81641
Magnitude (Debye)      :      2.07515

Rotational constants in cm-1:     0.016431     0.008812     0.006056
Rotational constants in MHz :   492.596251   264.175339   181.540203

                             ****ORCA TERMINATED NORMALLY****
TOTAL RUN TIME: 0 days 0 hours 0 minutes 21 seconds 183 msec
