                         Program Version 4.2.1 -  RELEASE  -
|  1> ! wB97X-D3 SP def2-SVP
|  2> %pal
|  3> nprocs 24
|  4> end
|  5>
|  6> * xyz 0 1
|  7> S 	 -101.551 	 39.6923 	 -89.4085
|  8> C 	 -101.756 	 39.4817 	 -87.6691
|  9> C 	 -101.844 	 40.6613 	 -86.9675
| 10> C 	 -101.726 	 41.7351 	 -87.9218
| 11> C 	 -101.736 	 41.4071 	 -89.2404
| 12> H 	 -101.746 	 42.7973 	 -87.5575
| 13> C 	 -101.882 	 40.9209 	 -85.4581
| 14> H 	 -101.155 	 41.7499 	 -85.2393
| 15> H 	 -101.442 	 40.1107 	 -84.9194
| 16> C 	 -103.325 	 41.2386 	 -85.0371
| 17> H 	 -103.664 	 42.2041 	 -85.4921
| 18> H 	 -103.962 	 40.3635 	 -85.4711
| 19> C 	 -103.428 	 41.3146 	 -83.4677
| 20> H 	 -102.557 	 41.9589 	 -83.0676
| 21> H 	 -104.293 	 41.9003 	 -83.1856
| 22> H 	 -103.334 	 40.2755 	 -82.977
| 23> S 	 -100.066 	 42.3105 	 -91.1541
| 24> C 	 -100.445 	 43.7837 	 -92.0607
| 25> C 	 -101.719 	 44.2441 	 -91.8436
| 26> C 	 -102.377 	 43.4677 	 -90.7865
| 27> C 	 -101.631 	 42.2992 	 -90.3646
| 28> H 	 -102.163 	 45.0633 	 -92.4024
| 29> C 	 -103.731 	 43.8488 	 -90.196
| 30> H 	 -103.549 	 44.2324 	 -89.1931
| 31> H 	 -104.288 	 42.8722 	 -90.1045
| 32> C 	 -104.64 	 44.6734 	 -91.1303
| 33> H 	 -104.658 	 44.2026 	 -92.1016
| 34> H 	 -104.211 	 45.7116 	 -91.2876
| 35> C 	 -106.069 	 44.6644 	 -90.6837
| 36> H 	 -106.423 	 43.685 	 -90.9267
| 37> H 	 -106.632 	 45.439 	 -91.2742
| 38> H 	 -106.161 	 44.978 	 -89.6023
| 39> H 	 -101.947 	 38.483 	 -87.3311
| 40> H 	 -99.7752 	 44.1231 	 -92.8959
| 41> *
| 42>
| 43>                          ****END OF INPUT****

CARTESIAN COORDINATES (ANGSTROEM)
---------------------------------
  S    -101.551000   39.692300  -89.408500
  C    -101.756000   39.481700  -87.669100
  C    -101.844000   40.661300  -86.967500
  C    -101.726000   41.735100  -87.921800
  C    -101.736000   41.407100  -89.240400
  H    -101.746000   42.797300  -87.557500
  C    -101.882000   40.920900  -85.458100
  H    -101.155000   41.749900  -85.239300
  H    -101.442000   40.110700  -84.919400
  C    -103.325000   41.238600  -85.037100
  H    -103.664000   42.204100  -85.492100
  H    -103.962000   40.363500  -85.471100
  C    -103.428000   41.314600  -83.467700
  H    -102.557000   41.958900  -83.067600
  H    -104.293000   41.900300  -83.185600
  H    -103.334000   40.275500  -82.977000
  S    -100.066000   42.310500  -91.154100
  C    -100.445000   43.783700  -92.060700
  C    -101.719000   44.244100  -91.843600
  C    -102.377000   43.467700  -90.786500
  C    -101.631000   42.299200  -90.364600
  H    -102.163000   45.063300  -92.402400
  C    -103.731000   43.848800  -90.196000
  H    -103.549000   44.232400  -89.193100
  H    -104.288000   42.872200  -90.104500
  C    -104.640000   44.673400  -91.130300
  H    -104.658000   44.202600  -92.101600
  H    -104.211000   45.711600  -91.287600
  C    -106.069000   44.664400  -90.683700
  H    -106.423000   43.685000  -90.926700
  H    -106.632000   45.439000  -91.274200
  H    -106.161000   44.978000  -89.602300
  H    -101.947000   38.483000  -87.331100
  H    -99.775200   44.123100  -92.895900

 Total Charge           Charge          ....    0
 Multiplicity           Mult            ....    1
 Number of Electrons    NEL             ....  134
 Basis Dimension        Dim             ....  322

ORBITAL ENERGIES
----------------

  NO   OCC          E(Eh)            E(eV)
   0   2.0000     -88.962529     -2420.7935
   1   2.0000     -88.961715     -2420.7713
   2   2.0000     -10.326805      -281.0067
   3   2.0000     -10.323699      -280.9221
   4   2.0000     -10.321165      -280.8532
   5   2.0000     -10.314215      -280.6640
   6   2.0000     -10.312988      -280.6307
   7   2.0000     -10.303574      -280.3745
   8   2.0000     -10.302931      -280.3570
   9   2.0000     -10.298730      -280.2427
  10   2.0000     -10.298576      -280.2385
  11   2.0000     -10.295060      -280.1428
  12   2.0000     -10.293981      -280.1135
  13   2.0000     -10.293841      -280.1097
  14   2.0000     -10.287814      -279.9456
  15   2.0000     -10.282415      -279.7987
  16   2.0000      -8.077912      -219.8112
  17   2.0000      -8.076251      -219.7660
  18   2.0000      -6.036381      -164.2583
  19   2.0000      -6.034801      -164.2153
  20   2.0000      -6.032462      -164.1516
  21   2.0000      -6.030724      -164.1043
  22   2.0000      -6.028540      -164.0449
  23   2.0000      -6.027032      -164.0039
  24   2.0000      -1.005331       -27.3564
  25   2.0000      -0.976950       -26.5842
  26   2.0000      -0.911731       -24.8095
  27   2.0000      -0.908723       -24.7276
  28   2.0000      -0.868871       -23.6432
  29   2.0000      -0.847318       -23.0567
  30   2.0000      -0.841676       -22.9032
  31   2.0000      -0.811825       -22.0909
  32   2.0000      -0.779520       -21.2118
  33   2.0000      -0.762850       -20.7582
  34   2.0000      -0.700342       -19.0573
  35   2.0000      -0.693688       -18.8762
  36   2.0000      -0.691957       -18.8291
  37   2.0000      -0.648655       -17.6508
  38   2.0000      -0.640741       -17.4355
  39   2.0000      -0.621344       -16.9076
  40   2.0000      -0.591584       -16.0978
  41   2.0000      -0.576521       -15.6879
  42   2.0000      -0.564206       -15.3528
  43   2.0000      -0.557058       -15.1583
  44   2.0000      -0.526046       -14.3144
  45   2.0000      -0.521382       -14.1875
  46   2.0000      -0.520339       -14.1591
  47   2.0000      -0.506765       -13.7898
  48   2.0000      -0.500279       -13.6133
  49   2.0000      -0.492975       -13.4145
  50   2.0000      -0.492046       -13.3892
  51   2.0000      -0.479120       -13.0375
  52   2.0000      -0.464799       -12.6478
  53   2.0000      -0.461339       -12.5537
  54   2.0000      -0.454420       -12.3654
  55   2.0000      -0.449002       -12.2180
  56   2.0000      -0.442518       -12.0415
  57   2.0000      -0.439337       -11.9550
  58   2.0000      -0.430097       -11.7035
  59   2.0000      -0.421199       -11.4614
  60   2.0000      -0.419384       -11.4120
  61   2.0000      -0.418377       -11.3846
  62   2.0000      -0.410393       -11.1674
  63   2.0000      -0.345378        -9.3982
  64   2.0000      -0.330202        -8.9853
  65   2.0000      -0.320929        -8.7329
  66   2.0000      -0.294333        -8.0092
  67   0.0000       0.033602         0.9144
  68   0.0000       0.063918         1.7393
  69   0.0000       0.110196         2.9986
  70   0.0000       0.124322         3.3830
  71   0.0000       0.128770         3.5040

MULLIKEN ATOMIC CHARGES
-----------------------
   0 S :    0.098385
   1 C :   -0.133213
   2 C :   -0.076115
   3 C :    0.016688
   4 C :   -0.157377
   5 H :    0.023731
   6 C :    0.064309
   7 H :    0.038098
   8 H :    0.018779
   9 C :   -0.117859
  10 H :    0.042302
  11 H :    0.055357
  12 C :   -0.070935
  13 H :    0.034054
  14 H :    0.040907
  15 H :    0.058296
  16 S :    0.094634
  17 C :   -0.105133
  18 C :   -0.024352
  19 C :   -0.087515
  20 C :   -0.126568
  21 H :    0.030106
  22 C :    0.050947
  23 H :    0.043034
  24 H :    0.039973
  25 C :   -0.118465
  26 H :    0.030034
  27 H :    0.037907
  28 C :   -0.038179
  29 H :    0.036370
  30 H :    0.038079
  31 H :    0.042112
  32 H :    0.044973
  33 H :    0.076636
Sum of atomic charges:    0.0000000

LOEWDIN ATOMIC CHARGES
----------------------
   0 S :    0.399899
   1 C :   -0.182004
   2 C :   -0.062365
   3 C :   -0.060753
   4 C :   -0.213906
   5 H :    0.034736
   6 C :   -0.033386
   7 H :    0.037232
   8 H :    0.025708
   9 C :   -0.047766
  10 H :    0.028326
  11 H :    0.037280
  12 C :   -0.081038
  13 H :    0.031685
  14 H :    0.023799
  15 H :    0.037214
  16 S :    0.398948
  17 C :   -0.184870
  18 C :   -0.077230
  19 C :   -0.046625
  20 C :   -0.210266
  21 H :    0.035718
  22 C :   -0.039800
  23 H :    0.031731
  24 H :    0.041572
  25 C :   -0.051941
  26 H :    0.025445
  27 H :    0.022602
  28 C :   -0.064326
  29 H :    0.023766
  30 H :    0.032482
  31 H :    0.030725
  32 H :    0.019446
  33 H :    0.037962

  Mayer bond orders larger than 0.100000
B(  0-S ,  1-C ) :   1.1440 B(  0-S ,  4-C ) :   1.1392 B(  1-C ,  2-C ) :   1.6161
B(  1-C , 32-H ) :   0.9711 B(  2-C ,  3-C ) :   1.2378 B(  2-C ,  6-C ) :   1.0133
B(  3-C ,  4-C ) :   1.5988 B(  3-C ,  5-H ) :   0.9823 B(  4-C , 20-C ) :   1.0214
B(  6-C ,  7-H ) :   0.9404 B(  6-C ,  8-H ) :   0.9485 B(  6-C ,  9-C ) :   1.0421
B(  9-C , 10-H ) :   0.9581 B(  9-C , 11-H ) :   0.9586 B(  9-C , 12-C ) :   1.0679
B( 12-C , 13-H ) :   0.9716 B( 12-C , 14-H ) :   0.9763 B( 12-C , 15-H ) :   0.9745
B( 16-S , 17-C ) :   1.1638 B( 16-S , 20-C ) :   1.1418 B( 17-C , 18-C ) :   1.6008
B( 17-C , 20-C ) :   0.1009 B( 17-C , 33-H ) :   0.9542 B( 18-C , 19-C ) :   1.2421
B( 18-C , 21-H ) :   0.9883 B( 19-C , 20-C ) :   1.5862 B( 19-C , 22-C ) :   1.0289
B( 22-C , 23-H ) :   0.9267 B( 22-C , 24-H ) :   0.9440 B( 22-C , 25-C ) :   1.0725
B( 25-C , 26-H ) :   0.9579 B( 25-C , 27-H ) :   0.9456 B( 25-C , 28-C ) :   1.0860
B( 28-C , 29-H ) :   0.9754 B( 28-C , 30-H ) :   0.9712 B( 28-C , 31-H ) :   0.9729

Dispersion correction           -0.013424168
FINAL SINGLE POINT ENERGY     -1339.872037894010

DIPOLE MOMENT
-------------
                                X             Y             Z
Electronic contribution:     20.68118     -11.63047     -17.40582
Nuclear contribution   :    -21.09301      12.04415      17.80651
                        -----------------------------------------
Total Dipole Moment    :     -0.41183       0.41369       0.40068
                        -----------------------------------------
Magnitude (a.u.)       :      0.70802
Magnitude (Debye)      :      1.79963

Rotational constants in cm-1:     0.016474     0.008292     0.006238
Rotational constants in MHz :   493.876433   248.586575   187.012130

                             ****ORCA TERMINATED NORMALLY****
TOTAL RUN TIME: 0 days 0 hours 0 minutes 20 seconds 725 msec
