                         Program Version 4.2.1 -  RELEASE  -
|  1> ! wB97X-D3 SP def2-SVP
|  2> %pal
|  3> nprocs 24
|  4> end
|  5>
|  6> * xyz 0 1
|  7> S 	 -106.752 	 52.9359 	 -14.4781
|  8> C 	 -105.833 	 54.2181 	 -15.2338
|  9> C 	 -104.486 	 54.2023 	 -14.8613
| 10> C 	 -104.173 	 53.0242 	 -14.0993
| 11> C 	 -105.283 	 52.2675 	 -13.7436
| 12> H 	 -103.184 	 52.8039 	 -13.7515
| 13> C 	 -103.452 	 55.3262 	 -15.2402
| 14> H 	 -103.188 	 56.0126 	 -14.4662
| 15> H 	 -104.063 	 56.0749 	 -15.8265
| 16> C 	 -102.293 	 54.7476 	 -15.9688
| 17> H 	 -101.714 	 54.1734 	 -15.2653
| 18> H 	 -102.732 	 53.97 	 -16.731
| 19> C 	 -101.464 	 55.8129 	 -16.7074
| 20> H 	 -101.375 	 56.6793 	 -16.0844
| 21> H 	 -100.421 	 55.4007 	 -16.7919
| 22> H 	 -101.88 	 56.0273 	 -17.6841
| 23> S 	 -106.221 	 49.7049 	 -13.3722
| 24> C 	 -105.995 	 48.7957 	 -11.9389
| 25> C 	 -105.35 	 49.5704 	 -10.993
| 26> C 	 -104.852 	 50.8498 	 -11.5221
| 27> C 	 -105.38 	 51.1496 	 -12.7984
| 28> H 	 -105.246 	 49.0897 	 -9.94903
| 29> C 	 -103.9 	 51.6923 	 -10.7276
| 30> H 	 -103.297 	 52.2949 	 -11.3324
| 31> H 	 -103.236 	 51.251 	 -10.0214
| 32> C 	 -104.694 	 52.6926 	 -9.83071
| 33> H 	 -104.047 	 52.9918 	 -9.0227
| 34> H 	 -105.445 	 52.0715 	 -9.25976
| 35> C 	 -105.455 	 53.9297 	 -10.4308
| 36> H 	 -105.911 	 54.5904 	 -9.59993
| 37> H 	 -106.223 	 53.7306 	 -11.1278
| 38> H 	 -104.794 	 54.6658 	 -10.7682
| 39> H 	 -106.218 	 54.999 	 -15.885
| 40> H 	 -106.149 	 47.7827 	 -11.7601
| 41> *
| 42>
| 43>                          ****END OF INPUT****

CARTESIAN COORDINATES (ANGSTROEM)
---------------------------------
  S    -106.752000   52.935900  -14.478100
  C    -105.833000   54.218100  -15.233800
  C    -104.486000   54.202300  -14.861300
  C    -104.173000   53.024200  -14.099300
  C    -105.283000   52.267500  -13.743600
  H    -103.184000   52.803900  -13.751500
  C    -103.452000   55.326200  -15.240200
  H    -103.188000   56.012600  -14.466200
  H    -104.063000   56.074900  -15.826500
  C    -102.293000   54.747600  -15.968800
  H    -101.714000   54.173400  -15.265300
  H    -102.732000   53.970000  -16.731000
  C    -101.464000   55.812900  -16.707400
  H    -101.375000   56.679300  -16.084400
  H    -100.421000   55.400700  -16.791900
  H    -101.880000   56.027300  -17.684100
  S    -106.221000   49.704900  -13.372200
  C    -105.995000   48.795700  -11.938900
  C    -105.350000   49.570400  -10.993000
  C    -104.852000   50.849800  -11.522100
  C    -105.380000   51.149600  -12.798400
  H    -105.246000   49.089700   -9.949030
  C    -103.900000   51.692300  -10.727600
  H    -103.297000   52.294900  -11.332400
  H    -103.236000   51.251000  -10.021400
  C    -104.694000   52.692600   -9.830710
  H    -104.047000   52.991800   -9.022700
  H    -105.445000   52.071500   -9.259760
  C    -105.455000   53.929700  -10.430800
  H    -105.911000   54.590400   -9.599930
  H    -106.223000   53.730600  -11.127800
  H    -104.794000   54.665800  -10.768200
  H    -106.218000   54.999000  -15.885000
  H    -106.149000   47.782700  -11.760100

 Total Charge           Charge          ....    0
 Multiplicity           Mult            ....    1
 Number of Electrons    NEL             ....  134
 Basis Dimension        Dim             ....  322

ORBITAL ENERGIES
----------------

  NO   OCC          E(Eh)            E(eV)
   0   2.0000     -88.969961     -2420.9957
   1   2.0000     -88.962606     -2420.7956
   2   2.0000     -10.336418      -281.2682
   3   2.0000     -10.333489      -281.1885
   4   2.0000     -10.316412      -280.7238
   5   2.0000     -10.315649      -280.7031
   6   2.0000     -10.312090      -280.6062
   7   2.0000     -10.306385      -280.4510
   8   2.0000     -10.303210      -280.3646
   9   2.0000     -10.296982      -280.1951
  10   2.0000     -10.296197      -280.1738
  11   2.0000     -10.290891      -280.0294
  12   2.0000     -10.287809      -279.9455
  13   2.0000     -10.286310      -279.9047
  14   2.0000     -10.281780      -279.7815
  15   2.0000     -10.271984      -279.5149
  16   2.0000      -8.083957      -219.9757
  17   2.0000      -8.077728      -219.8061
  18   2.0000      -6.042512      -164.4251
  19   2.0000      -6.038559      -164.3175
  20   2.0000      -6.036290      -164.2558
  21   2.0000      -6.034700      -164.2125
  22   2.0000      -6.031998      -164.1390
  23   2.0000      -6.028557      -164.0454
  24   2.0000      -1.002939       -27.2914
  25   2.0000      -0.981354       -26.7040
  26   2.0000      -0.914002       -24.8712
  27   2.0000      -0.905568       -24.6417
  28   2.0000      -0.868247       -23.6262
  29   2.0000      -0.846068       -23.0227
  30   2.0000      -0.836383       -22.7591
  31   2.0000      -0.814791       -22.1716
  32   2.0000      -0.785995       -21.3880
  33   2.0000      -0.775437       -21.1007
  34   2.0000      -0.711104       -19.3501
  35   2.0000      -0.695717       -18.9314
  36   2.0000      -0.689682       -18.7672
  37   2.0000      -0.654264       -17.8034
  38   2.0000      -0.641003       -17.4426
  39   2.0000      -0.624380       -16.9902
  40   2.0000      -0.600778       -16.3480
  41   2.0000      -0.573855       -15.6154
  42   2.0000      -0.560228       -15.2446
  43   2.0000      -0.549097       -14.9417
  44   2.0000      -0.534719       -14.5504
  45   2.0000      -0.524708       -14.2780
  46   2.0000      -0.511431       -13.9167
  47   2.0000      -0.508359       -13.8332
  48   2.0000      -0.504802       -13.7364
  49   2.0000      -0.500481       -13.6188
  50   2.0000      -0.490986       -13.3604
  51   2.0000      -0.482502       -13.1296
  52   2.0000      -0.472388       -12.8543
  53   2.0000      -0.465789       -12.6748
  54   2.0000      -0.460112       -12.5203
  55   2.0000      -0.445540       -12.1238
  56   2.0000      -0.440159       -11.9773
  57   2.0000      -0.438377       -11.9289
  58   2.0000      -0.430500       -11.7145
  59   2.0000      -0.419244       -11.4082
  60   2.0000      -0.415581       -11.3085
  61   2.0000      -0.412018       -11.2116
  62   2.0000      -0.408060       -11.1039
  63   2.0000      -0.348354        -9.4792
  64   2.0000      -0.332105        -9.0370
  65   2.0000      -0.322341        -8.7714
  66   2.0000      -0.291427        -7.9301
  67   0.0000       0.028912         0.7867
  68   0.0000       0.067515         1.8372
  69   0.0000       0.110159         2.9976
  70   0.0000       0.115936         3.1548
  71   0.0000       0.134016         3.6468

MULLIKEN ATOMIC CHARGES
-----------------------
   0 S :    0.118196
   1 C :   -0.114663
   2 C :   -0.112498
   3 C :    0.042456
   4 C :   -0.137163
   5 H :    0.009792
   6 C :    0.068540
   7 H :    0.030144
   8 H :    0.007100
   9 C :   -0.127609
  10 H :    0.031492
  11 H :    0.053852
  12 C :   -0.021725
  13 H :    0.023971
  14 H :    0.037025
  15 H :    0.046283
  16 S :    0.100447
  17 C :   -0.060157
  18 C :   -0.083005
  19 C :   -0.038180
  20 C :   -0.149875
  21 H :    0.053452
  22 C :    0.142996
  23 H :   -0.007179
  24 H :    0.017442
  25 C :   -0.116985
  26 H :    0.015811
  27 H :    0.022950
  28 C :   -0.022818
  29 H :    0.025911
  30 H :    0.042487
  31 H :    0.012480
  32 H :    0.049719
  33 H :    0.039310
Sum of atomic charges:   -0.0000000

LOEWDIN ATOMIC CHARGES
----------------------
   0 S :    0.403147
   1 C :   -0.201845
   2 C :   -0.056977
   3 C :   -0.059362
   4 C :   -0.186435
   5 H :    0.026392
   6 C :   -0.037045
   7 H :    0.025724
   8 H :    0.030585
   9 C :   -0.051492
  10 H :    0.019150
  11 H :    0.039333
  12 C :   -0.061523
  13 H :    0.020308
  14 H :    0.034335
  15 H :    0.028360
  16 S :    0.414478
  17 C :   -0.191936
  18 C :   -0.083779
  19 C :   -0.043764
  20 C :   -0.202587
  21 H :    0.046815
  22 C :   -0.027634
  23 H :    0.019298
  24 H :    0.033001
  25 C :   -0.038338
  26 H :    0.017692
  27 H :    0.024940
  28 C :   -0.067333
  29 H :    0.038516
  30 H :    0.019866
  31 H :    0.015109
  32 H :    0.029765
  33 H :    0.023234

  Mayer bond orders larger than 0.100000
B(  0-S ,  1-C ) :   1.1358 B(  0-S ,  4-C ) :   1.1463 B(  1-C ,  2-C ) :   1.6292
B(  1-C , 32-H ) :   0.9608 B(  2-C ,  3-C ) :   1.2374 B(  2-C ,  6-C ) :   1.0106
B(  3-C ,  4-C ) :   1.5785 B(  3-C ,  5-H ) :   0.9958 B(  4-C , 20-C ) :   1.0347
B(  6-C ,  7-H ) :   0.9370 B(  6-C ,  8-H ) :   0.9420 B(  6-C ,  9-C ) :   1.0494
B(  9-C , 10-H ) :   0.9548 B(  9-C , 11-H ) :   0.9600 B(  9-C , 12-C ) :   1.0766
B( 12-C , 13-H ) :   0.9733 B( 12-C , 14-H ) :   0.9745 B( 12-C , 15-H ) :   0.9769
B( 16-S , 17-C ) :   1.1631 B( 16-S , 20-C ) :   1.1375 B( 17-C , 18-C ) :   1.6206
B( 17-C , 33-H ) :   0.9733 B( 18-C , 19-C ) :   1.2267 B( 18-C , 21-H ) :   0.9748
B( 19-C , 20-C ) :   1.5770 B( 19-C , 22-C ) :   1.0600 B( 22-C , 23-H ) :   0.9314
B( 22-C , 24-H ) :   0.9340 B( 22-C , 25-C ) :   1.0636 B( 25-C , 26-H ) :   0.9580
B( 25-C , 27-H ) :   0.9578 B( 25-C , 28-C ) :   1.0759 B( 28-C , 29-H ) :   0.9688
B( 28-C , 30-H ) :   0.9758 B( 28-C , 31-H ) :   0.9735

Dispersion correction           -0.014846437
FINAL SINGLE POINT ENERGY     -1339.855265738393

DIPOLE MOMENT
-------------
                                X             Y             Z
Electronic contribution:    -18.05404     -19.23028      -4.27581
Nuclear contribution   :     18.69852      19.57345       4.57674
                        -----------------------------------------
Total Dipole Moment    :      0.64448       0.34317       0.30094
                        -----------------------------------------
Magnitude (a.u.)       :      0.78974
Magnitude (Debye)      :      2.00735

Rotational constants in cm-1:     0.020600     0.007995     0.007107
Rotational constants in MHz :   617.559797   239.682674   213.049260

                             ****ORCA TERMINATED NORMALLY****
TOTAL RUN TIME: 0 days 0 hours 0 minutes 21 seconds 834 msec
