                         Program Version 4.2.1 -  RELEASE  -
|  1> ! wB97X-D3 SP def2-SVP
|  2> %pal
|  3> nprocs 24
|  4> end
|  5>
|  6> * xyz 0 1
|  7> S 	 -140.217 	 10.6299 	 3.88466
|  8> C 	 -140.044 	 11.1946 	 2.28465
|  9> C 	 -140.384 	 10.2225 	 1.34274
| 10> C 	 -140.758 	 9.00597 	 1.99679
| 11> C 	 -140.939 	 9.13576 	 3.35663
| 12> H 	 -141.074 	 8.12837 	 1.423
| 13> C 	 -140.127 	 10.4201 	 -0.117502
| 14> H 	 -139.663 	 9.47728 	 -0.519016
| 15> H 	 -139.429 	 11.1903 	 -0.256375
| 16> C 	 -141.29 	 10.7698 	 -0.963567
| 17> H 	 -142.181 	 10.3419 	 -0.560303
| 18> H 	 -141.32 	 11.8248 	 -0.931394
| 19> C 	 -141.085 	 10.4722 	 -2.46696
| 20> H 	 -140.92 	 9.41017 	 -2.63469
| 21> H 	 -142.048 	 10.6944 	 -2.97034
| 22> H 	 -140.245 	 11.0441 	 -2.87982
| 23> S 	 -140.179 	 7.53394 	 5.43899
| 24> C 	 -141.248 	 6.2823 	 6.02013
| 25> C 	 -142.392 	 6.25725 	 5.25919
| 26> C 	 -142.487 	 7.26803 	 4.23904
| 27> C 	 -141.35 	 8.0881 	 4.28793
| 28> H 	 -143.129 	 5.46388 	 5.38365
| 29> C 	 -143.798 	 7.5058 	 3.36596
| 30> H 	 -143.783 	 6.82476 	 2.51317
| 31> H 	 -143.805 	 8.55283 	 3.06664
| 32> C 	 -145.073 	 7.40342 	 4.16814
| 33> H 	 -145.012 	 7.74172 	 5.18576
| 34> H 	 -145.272 	 6.38701 	 4.33758
| 35> C 	 -146.318 	 8.11667 	 3.54228
| 36> H 	 -147.236 	 7.99615 	 4.19112
| 37> H 	 -146.536 	 7.6703 	 2.60373
| 38> H 	 -146.166 	 9.20585 	 3.44464
| 39> H 	 -139.549 	 12.1773 	 2.07714
| 40> H 	 -140.938 	 5.62111 	 6.84232
| 41> *
| 42>
| 43>                          ****END OF INPUT****

CARTESIAN COORDINATES (ANGSTROEM)
---------------------------------
  S    -140.217000   10.629900    3.884660
  C    -140.044000   11.194600    2.284650
  C    -140.384000   10.222500    1.342740
  C    -140.758000    9.005970    1.996790
  C    -140.939000    9.135760    3.356630
  H    -141.074000    8.128370    1.423000
  C    -140.127000   10.420100   -0.117502
  H    -139.663000    9.477280   -0.519016
  H    -139.429000   11.190300   -0.256375
  C    -141.290000   10.769800   -0.963567
  H    -142.181000   10.341900   -0.560303
  H    -141.320000   11.824800   -0.931394
  C    -141.085000   10.472200   -2.466960
  H    -140.920000    9.410170   -2.634690
  H    -142.048000   10.694400   -2.970340
  H    -140.245000   11.044100   -2.879820
  S    -140.179000    7.533940    5.438990
  C    -141.248000    6.282300    6.020130
  C    -142.392000    6.257250    5.259190
  C    -142.487000    7.268030    4.239040
  C    -141.350000    8.088100    4.287930
  H    -143.129000    5.463880    5.383650
  C    -143.798000    7.505800    3.365960
  H    -143.783000    6.824760    2.513170
  H    -143.805000    8.552830    3.066640
  C    -145.073000    7.403420    4.168140
  H    -145.012000    7.741720    5.185760
  H    -145.272000    6.387010    4.337580
  C    -146.318000    8.116670    3.542280
  H    -147.236000    7.996150    4.191120
  H    -146.536000    7.670300    2.603730
  H    -146.166000    9.205850    3.444640
  H    -139.549000   12.177300    2.077140
  H    -140.938000    5.621110    6.842320

 Total Charge           Charge          ....    0
 Multiplicity           Mult            ....    1
 Number of Electrons    NEL             ....  134
 Basis Dimension        Dim             ....  322

ORBITAL ENERGIES
----------------

  NO   OCC          E(Eh)            E(eV)
   0   2.0000     -88.964077     -2420.8356
   1   2.0000     -88.963436     -2420.8182
   2   2.0000     -10.326097      -280.9874
   3   2.0000     -10.325637      -280.9749
   4   2.0000     -10.318305      -280.7754
   5   2.0000     -10.313945      -280.6567
   6   2.0000     -10.308806      -280.5169
   7   2.0000     -10.298622      -280.2397
   8   2.0000     -10.297439      -280.2076
   9   2.0000     -10.295297      -280.1493
  10   2.0000     -10.294877      -280.1378
  11   2.0000     -10.282784      -279.8088
  12   2.0000     -10.282547      -279.8023
  13   2.0000     -10.281038      -279.7613
  14   2.0000     -10.278306      -279.6869
  15   2.0000     -10.274118      -279.5730
  16   2.0000      -8.079894      -219.8651
  17   2.0000      -8.078834      -219.8362
  18   2.0000      -6.038222      -164.3084
  19   2.0000      -6.037270      -164.2825
  20   2.0000      -6.034211      -164.1992
  21   2.0000      -6.033216      -164.1721
  22   2.0000      -6.030829      -164.1072
  23   2.0000      -6.029655      -164.0752
  24   2.0000      -1.009240       -27.4628
  25   2.0000      -0.986344       -26.8398
  26   2.0000      -0.920601       -25.0508
  27   2.0000      -0.906535       -24.6681
  28   2.0000      -0.869104       -23.6495
  29   2.0000      -0.850865       -23.1532
  30   2.0000      -0.842963       -22.9382
  31   2.0000      -0.813018       -22.1234
  32   2.0000      -0.782122       -21.2826
  33   2.0000      -0.770413       -20.9640
  34   2.0000      -0.704764       -19.1776
  35   2.0000      -0.698946       -19.0193
  36   2.0000      -0.691733       -18.8230
  37   2.0000      -0.655081       -17.8257
  38   2.0000      -0.640321       -17.4240
  39   2.0000      -0.624474       -16.9928
  40   2.0000      -0.598900       -16.2969
  41   2.0000      -0.571202       -15.5432
  42   2.0000      -0.569938       -15.5088
  43   2.0000      -0.564085       -15.3495
  44   2.0000      -0.524366       -14.2687
  45   2.0000      -0.522939       -14.2299
  46   2.0000      -0.520075       -14.1520
  47   2.0000      -0.507572       -13.8117
  48   2.0000      -0.498894       -13.5756
  49   2.0000      -0.495829       -13.4922
  50   2.0000      -0.490527       -13.3479
  51   2.0000      -0.487095       -13.2545
  52   2.0000      -0.469611       -12.7788
  53   2.0000      -0.466165       -12.6850
  54   2.0000      -0.459801       -12.5118
  55   2.0000      -0.449726       -12.2377
  56   2.0000      -0.445706       -12.1283
  57   2.0000      -0.436613       -11.8808
  58   2.0000      -0.435804       -11.8588
  59   2.0000      -0.427035       -11.6202
  60   2.0000      -0.421906       -11.4806
  61   2.0000      -0.412990       -11.2380
  62   2.0000      -0.410201       -11.1621
  63   2.0000      -0.345526        -9.4022
  64   2.0000      -0.330149        -8.9838
  65   2.0000      -0.327901        -8.9226
  66   2.0000      -0.295077        -8.0294
  67   0.0000       0.033491         0.9113
  68   0.0000       0.072204         1.9648
  69   0.0000       0.112788         3.0691
  70   0.0000       0.127497         3.4694
  71   0.0000       0.133323         3.6279

MULLIKEN ATOMIC CHARGES
-----------------------
   0 S :    0.114415
   1 C :   -0.137175
   2 C :   -0.099511
   3 C :    0.043485
   4 C :   -0.171045
   5 H :    0.019767
   6 C :    0.068626
   7 H :    0.025233
   8 H :   -0.000380
   9 C :   -0.034975
  10 H :    0.023985
  11 H :    0.012113
  12 C :   -0.065265
  13 H :    0.027373
  14 H :    0.040240
  15 H :    0.038630
  16 S :    0.107220
  17 C :   -0.104458
  18 C :   -0.035360
  19 C :   -0.052766
  20 C :   -0.154633
  21 H :    0.021054
  22 C :    0.101877
  23 H :    0.041104
  24 H :    0.031468
  25 C :   -0.082586
  26 H :    0.028716
  27 H :    0.009036
  28 C :   -0.064676
  29 H :    0.040165
  30 H :    0.026442
  31 H :    0.043339
  32 H :    0.068033
  33 H :    0.070507
Sum of atomic charges:    0.0000000

LOEWDIN ATOMIC CHARGES
----------------------
   0 S :    0.426916
   1 C :   -0.215031
   2 C :   -0.066675
   3 C :   -0.056588
   4 C :   -0.205088
   5 H :    0.033881
   6 C :   -0.033063
   7 H :    0.033347
   8 H :    0.021821
   9 C :   -0.037257
  10 H :    0.019317
  11 H :    0.020670
  12 C :   -0.062938
  13 H :    0.019920
  14 H :    0.031552
  15 H :    0.026926
  16 S :    0.413977
  17 C :   -0.190920
  18 C :   -0.075300
  19 C :   -0.053754
  20 C :   -0.207067
  21 H :    0.030877
  22 C :   -0.021478
  23 H :    0.032302
  24 H :    0.033282
  25 C :   -0.046254
  26 H :    0.025753
  27 H :    0.013190
  28 C :   -0.062815
  29 H :    0.034092
  30 H :    0.017236
  31 H :    0.027692
  32 H :    0.036328
  33 H :    0.035150

  Mayer bond orders larger than 0.100000
B(  0-S ,  1-C ) :   1.1672 B(  0-S ,  4-C ) :   1.1622 B(  1-C ,  2-C ) :   1.5753
B(  1-C , 32-H ) :   0.9613 B(  2-C ,  3-C ) :   1.2756 B(  2-C ,  6-C ) :   1.0342
B(  3-C ,  4-C ) :   1.5507 B(  3-C ,  5-H ) :   0.9893 B(  4-C , 20-C ) :   1.0220
B(  6-C ,  7-H ) :   0.9460 B(  6-C ,  8-H ) :   0.9376 B(  6-C ,  9-C ) :   1.0574
B(  9-C , 10-H ) :   0.9616 B(  9-C , 11-H ) :   0.9501 B(  9-C , 12-C ) :   1.0855
B( 12-C , 13-H ) :   0.9771 B( 12-C , 14-H ) :   0.9745 B( 12-C , 15-H ) :   0.9745
B( 16-S , 17-C ) :   1.1505 B( 16-S , 20-C ) :   1.1689 B( 17-C , 18-C ) :   1.5940
B( 17-C , 33-H ) :   0.9695 B( 18-C , 19-C ) :   1.2496 B( 18-C , 21-H ) :   0.9886
B( 19-C , 20-C ) :   1.6012 B( 19-C , 22-C ) :   1.0193 B( 22-C , 23-H ) :   0.9321
B( 22-C , 24-H ) :   0.9485 B( 22-C , 25-C ) :   1.0638 B( 25-C , 26-H ) :   0.9585
B( 25-C , 27-H ) :   0.9450 B( 25-C , 28-C ) :   1.0882 B( 28-C , 29-H ) :   0.9749
B( 28-C , 30-H ) :   0.9767 B( 28-C , 31-H ) :   0.9758

Dispersion correction           -0.013321404
FINAL SINGLE POINT ENERGY     -1339.881971521645

DIPOLE MOMENT
-------------
                                X             Y             Z
Electronic contribution:     18.84174      -0.98058      22.82571
Nuclear contribution   :    -19.15170       0.79947     -23.28341
                        -----------------------------------------
Total Dipole Moment    :     -0.30996      -0.18110      -0.45770
                        -----------------------------------------
Magnitude (a.u.)       :      0.58169
Magnitude (Debye)      :      1.47854

Rotational constants in cm-1:     0.016764     0.008246     0.006299
Rotational constants in MHz :   502.573752   247.194640   188.837647

                             ****ORCA TERMINATED NORMALLY****
TOTAL RUN TIME: 0 days 0 hours 0 minutes 20 seconds 887 msec
