                         Program Version 4.2.1 -  RELEASE  -
|  1> ! wB97X-D3 SP def2-SVP
|  2> %pal
|  3> nprocs 24
|  4> end
|  5>
|  6> * xyz 0 1
|  7> S 	 -135.652 	 8.37973 	 -14.3119
|  8> C 	 -136.64 	 9.13177 	 -13.1182
|  9> C 	 -136.055 	 10.3652 	 -12.7652
| 10> C 	 -134.756 	 10.585 	 -13.3592
| 11> C 	 -134.284 	 9.52578 	 -14.1215
| 12> H 	 -134.101 	 11.42 	 -13.2968
| 13> C 	 -136.86 	 11.3607 	 -11.8919
| 14> H 	 -136.559 	 11.2759 	 -10.8532
| 15> H 	 -137.854 	 11.0467 	 -12.0941
| 16> C 	 -136.871 	 12.8088 	 -12.3695
| 17> H 	 -136.048 	 13.421 	 -12.0549
| 18> H 	 -136.783 	 12.7767 	 -13.4422
| 19> C 	 -138.106 	 13.4931 	 -11.7926
| 20> H 	 -138.251 	 14.496 	 -12.1274
| 21> H 	 -138.978 	 12.9789 	 -12.1854
| 22> H 	 -138.157 	 13.4011 	 -10.6967
| 23> S 	 -132.883 	 9.44535 	 -16.4121
| 24> C 	 -131.126 	 9.35702 	 -16.4641
| 25> C 	 -130.621 	 9.47766 	 -15.1695
| 26> C 	 -131.668 	 9.6393 	 -14.1999
| 27> C 	 -132.968 	 9.42288 	 -14.6954
| 28> H 	 -129.596 	 9.46507 	 -14.9532
| 29> C 	 -131.355 	 9.56366 	 -12.7449
| 30> H 	 -131.384 	 8.46642 	 -12.5613
| 31> H 	 -132.256 	 9.98958 	 -12.2296
| 32> C 	 -130.151 	 10.2904 	 -12.2192
| 33> H 	 -129.977 	 11.261 	 -12.7832
| 34> H 	 -129.345 	 9.68349 	 -12.3785
| 35> C 	 -130.183 	 10.5535 	 -10.6969
| 36> H 	 -130.493 	 9.65799 	 -10.2011
| 37> H 	 -130.85 	 11.343 	 -10.555
| 38> H 	 -129.197 	 11.0078 	 -10.3568
| 39> H 	 -137.599 	 8.82996 	 -12.8236
| 40> H 	 -130.537 	 9.30905 	 -17.3273
| 41> *
| 42>
| 43>                          ****END OF INPUT****

CARTESIAN COORDINATES (ANGSTROEM)
---------------------------------
  S    -135.652000    8.379730  -14.311900
  C    -136.640000    9.131770  -13.118200
  C    -136.055000   10.365200  -12.765200
  C    -134.756000   10.585000  -13.359200
  C    -134.284000    9.525780  -14.121500
  H    -134.101000   11.420000  -13.296800
  C    -136.860000   11.360700  -11.891900
  H    -136.559000   11.275900  -10.853200
  H    -137.854000   11.046700  -12.094100
  C    -136.871000   12.808800  -12.369500
  H    -136.048000   13.421000  -12.054900
  H    -136.783000   12.776700  -13.442200
  C    -138.106000   13.493100  -11.792600
  H    -138.251000   14.496000  -12.127400
  H    -138.978000   12.978900  -12.185400
  H    -138.157000   13.401100  -10.696700
  S    -132.883000    9.445350  -16.412100
  C    -131.126000    9.357020  -16.464100
  C    -130.621000    9.477660  -15.169500
  C    -131.668000    9.639300  -14.199900
  C    -132.968000    9.422880  -14.695400
  H    -129.596000    9.465070  -14.953200
  C    -131.355000    9.563660  -12.744900
  H    -131.384000    8.466420  -12.561300
  H    -132.256000    9.989580  -12.229600
  C    -130.151000   10.290400  -12.219200
  H    -129.977000   11.261000  -12.783200
  H    -129.345000    9.683490  -12.378500
  C    -130.183000   10.553500  -10.696900
  H    -130.493000    9.657990  -10.201100
  H    -130.850000   11.343000  -10.555000
  H    -129.197000   11.007800  -10.356800
  H    -137.599000    8.829960  -12.823600
  H    -130.537000    9.309050  -17.327300

 Total Charge           Charge          ....    0
 Multiplicity           Mult            ....    1
 Number of Electrons    NEL             ....  134
 Basis Dimension        Dim             ....  322

ORBITAL ENERGIES
----------------

  NO   OCC          E(Eh)            E(eV)
   0   2.0000     -88.965424     -2420.8723
   1   2.0000     -88.962830     -2420.8017
   2   2.0000     -10.332761      -281.1687
   3   2.0000     -10.325046      -280.9588
   4   2.0000     -10.317695      -280.7587
   5   2.0000     -10.314781      -280.6795
   6   2.0000     -10.306570      -280.4560
   7   2.0000     -10.304065      -280.3879
   8   2.0000     -10.296091      -280.1709
   9   2.0000     -10.293322      -280.0955
  10   2.0000     -10.289096      -279.9805
  11   2.0000     -10.286941      -279.9219
  12   2.0000     -10.281079      -279.7624
  13   2.0000     -10.280994      -279.7601
  14   2.0000     -10.277085      -279.6537
  15   2.0000     -10.276217      -279.6301
  16   2.0000      -8.079786      -219.8622
  17   2.0000      -8.078065      -219.8153
  18   2.0000      -6.038392      -164.3130
  19   2.0000      -6.036570      -164.2634
  20   2.0000      -6.034193      -164.1987
  21   2.0000      -6.032334      -164.1482
  22   2.0000      -6.030591      -164.1007
  23   2.0000      -6.028965      -164.0565
  24   2.0000      -1.006649       -27.3923
  25   2.0000      -0.982900       -26.7461
  26   2.0000      -0.914993       -24.8982
  27   2.0000      -0.913023       -24.8446
  28   2.0000      -0.876854       -23.8604
  29   2.0000      -0.852207       -23.1897
  30   2.0000      -0.843283       -22.9469
  31   2.0000      -0.820672       -22.3316
  32   2.0000      -0.777048       -21.1445
  33   2.0000      -0.767019       -20.8716
  34   2.0000      -0.714856       -19.4522
  35   2.0000      -0.704277       -19.1644
  36   2.0000      -0.695247       -18.9186
  37   2.0000      -0.657501       -17.8915
  38   2.0000      -0.649360       -17.6700
  39   2.0000      -0.615107       -16.7379
  40   2.0000      -0.594954       -16.1895
  41   2.0000      -0.580541       -15.7973
  42   2.0000      -0.575283       -15.6542
  43   2.0000      -0.568928       -15.4813
  44   2.0000      -0.533259       -14.5107
  45   2.0000      -0.531171       -14.4539
  46   2.0000      -0.518036       -14.0965
  47   2.0000      -0.515957       -14.0399
  48   2.0000      -0.512482       -13.9454
  49   2.0000      -0.501118       -13.6361
  50   2.0000      -0.491876       -13.3846
  51   2.0000      -0.475404       -12.9364
  52   2.0000      -0.470813       -12.8115
  53   2.0000      -0.468626       -12.7519
  54   2.0000      -0.461553       -12.5595
  55   2.0000      -0.450651       -12.2628
  56   2.0000      -0.443008       -12.0549
  57   2.0000      -0.435227       -11.8431
  58   2.0000      -0.433073       -11.7845
  59   2.0000      -0.422194       -11.4885
  60   2.0000      -0.415937       -11.3182
  61   2.0000      -0.413990       -11.2652
  62   2.0000      -0.410876       -11.1805
  63   2.0000      -0.347695        -9.4613
  64   2.0000      -0.328486        -8.9385
  65   2.0000      -0.322928        -8.7873
  66   2.0000      -0.292344        -7.9551
  67   0.0000       0.024944         0.6788
  68   0.0000       0.063112         1.7174
  69   0.0000       0.112703         3.0668
  70   0.0000       0.121836         3.3153
  71   0.0000       0.137923         3.7531

MULLIKEN ATOMIC CHARGES
-----------------------
   0 S :    0.113008
   1 C :   -0.089130
   2 C :   -0.133229
   3 C :    0.063770
   4 C :   -0.174436
   5 H :    0.007659
   6 C :    0.095372
   7 H :    0.048486
   8 H :    0.003127
   9 C :   -0.072682
  10 H :    0.023707
  11 H :    0.029283
  12 C :   -0.046119
  13 H :    0.028939
  14 H :    0.019036
  15 H :    0.038121
  16 S :    0.103081
  17 C :   -0.062106
  18 C :   -0.017575
  19 C :   -0.054101
  20 C :   -0.142599
  21 H :    0.007095
  22 C :    0.014623
  23 H :    0.057151
  24 H :    0.020086
  25 C :   -0.073416
  26 H :    0.037957
  27 H :    0.010313
  28 C :   -0.026606
  29 H :    0.038796
  30 H :    0.018360
  31 H :    0.038865
  32 H :    0.035061
  33 H :    0.040104
Sum of atomic charges:   -0.0000000

LOEWDIN ATOMIC CHARGES
----------------------
   0 S :    0.401849
   1 C :   -0.196680
   2 C :   -0.062387
   3 C :   -0.056847
   4 C :   -0.190886
   5 H :    0.027926
   6 C :   -0.024468
   7 H :    0.032175
   8 H :    0.025120
   9 C :   -0.041943
  10 H :    0.019389
  11 H :    0.024078
  12 C :   -0.060928
  13 H :    0.022350
  14 H :    0.021811
  15 H :    0.029728
  16 S :    0.422644
  17 C :   -0.169449
  18 C :   -0.064049
  19 C :   -0.056198
  20 C :   -0.215061
  21 H :    0.023956
  22 C :   -0.045045
  23 H :    0.044533
  24 H :    0.030910
  25 C :   -0.043599
  26 H :    0.032144
  27 H :    0.008313
  28 C :   -0.054590
  29 H :    0.024450
  30 H :    0.015179
  31 H :    0.035529
  32 H :    0.020684
  33 H :    0.019361

  Mayer bond orders larger than 0.100000
B(  0-S ,  1-C ) :   1.1534 B(  0-S ,  4-C ) :   1.1386 B(  1-C ,  2-C ) :   1.5886
B(  1-C ,  4-C ) :   0.1030 B(  1-C , 32-H ) :   0.9773 B(  2-C ,  3-C ) :   1.2363
B(  2-C ,  6-C ) :   1.0086 B(  3-C ,  4-C ) :   1.5593 B(  3-C ,  5-H ) :   0.9989
B(  4-C , 20-C ) :   1.0492 B(  6-C ,  7-H ) :   0.9342 B(  6-C ,  8-H ) :   0.9484
B(  6-C ,  9-C ) :   1.0689 B(  9-C , 10-H ) :   0.9476 B(  9-C , 11-H ) :   0.9593
B(  9-C , 12-C ) :   1.0875 B( 12-C , 13-H ) :   0.9724 B( 12-C , 14-H ) :   0.9753
B( 12-C , 15-H ) :   0.9735 B( 16-S , 17-C ) :   1.1710 B( 16-S , 20-C ) :   1.1572
B( 17-C , 18-C ) :   1.5674 B( 17-C , 20-C ) :   0.1081 B( 17-C , 33-H ) :   0.9778
B( 18-C , 19-C ) :   1.2534 B( 18-C , 21-H ) :   1.0006 B( 19-C , 20-C ) :   1.5488
B( 19-C , 22-C ) :   1.0588 B( 22-C , 23-H ) :   0.9309 B( 22-C , 24-H ) :   0.9370
B( 22-C , 25-C ) :   1.0539 B( 25-C , 26-H ) :   0.9614 B( 25-C , 27-H ) :   0.9442
B( 25-C , 28-C ) :   1.0888 B( 28-C , 29-H ) :   0.9734 B( 28-C , 30-H ) :   0.9762
B( 28-C , 31-H ) :   0.9733

Dispersion correction           -0.013419870
FINAL SINGLE POINT ENERGY     -1339.855071368852

DIPOLE MOMENT
-------------
                                X             Y             Z
Electronic contribution:     -0.98001     -17.08098     -22.42505
Nuclear contribution   :      1.16425      17.50949      22.87152
                        -----------------------------------------
Total Dipole Moment    :      0.18423       0.42851       0.44647
                        -----------------------------------------
Magnitude (a.u.)       :      0.64568
Magnitude (Debye)      :      1.64119

Rotational constants in cm-1:     0.016859     0.008143     0.006422
Rotational constants in MHz :   505.418419   244.113443   192.518369

                             ****ORCA TERMINATED NORMALLY****
TOTAL RUN TIME: 0 days 0 hours 0 minutes 21 seconds 223 msec
