                         Program Version 4.2.1 -  RELEASE  -
|  1> ! wB97X-D3 SP def2-SVP
|  2> %pal
|  3> nprocs 24
|  4> end
|  5>
|  6> * xyz 0 1
|  7> S 	 -53.3547 	 -56.5321 	 -81.4015
|  8> C 	 -55.0433 	 -55.9651 	 -81.138
|  9> C 	 -55.9415 	 -56.8984 	 -81.6847
| 10> C 	 -55.315 	 -57.9689 	 -82.3963
| 11> C 	 -53.9293 	 -57.9449 	 -82.2331
| 12> H 	 -55.7975 	 -58.7416 	 -82.9371
| 13> C 	 -57.4391 	 -56.7088 	 -81.656
| 14> H 	 -57.6543 	 -56.0899 	 -80.7041
| 15> H 	 -57.8908 	 -57.6511 	 -81.5807
| 16> C 	 -58.1378 	 -55.965 	 -82.8626
| 17> H 	 -57.7262 	 -54.963 	 -83.0297
| 18> H 	 -57.8892 	 -56.5306 	 -83.7981
| 19> C 	 -59.661 	 -56.0842 	 -82.6155
| 20> H 	 -59.834 	 -56.1298 	 -81.5603
| 21> H 	 -60.346 	 -55.2864 	 -83.1151
| 22> H 	 -59.9494 	 -57.1658 	 -82.9057
| 23> S 	 -51.9785 	 -59.6559 	 -81.2748
| 24> C 	 -50.8889 	 -60.4353 	 -82.4479
| 25> C 	 -51.2312 	 -60.1924 	 -83.7957
| 26> C 	 -52.3566 	 -59.2937 	 -83.8791
| 27> C 	 -52.8841 	 -58.8687 	 -82.6238
| 28> H 	 -50.5692 	 -60.499 	 -84.5557
| 29> C 	 -52.971 	 -58.8042 	 -85.1746
| 30> H 	 -53.7866 	 -58.1998 	 -84.7585
| 31> H 	 -53.4409 	 -59.7066 	 -85.5591
| 32> C 	 -52.0454 	 -58.0964 	 -86.2046
| 33> H 	 -52.7168 	 -57.5963 	 -86.9621
| 34> H 	 -51.3944 	 -58.7445 	 -86.6793
| 35> C 	 -51.2966 	 -57.0668 	 -85.3989
| 36> H 	 -50.7958 	 -57.4077 	 -84.5333
| 37> H 	 -51.9567 	 -56.3036 	 -84.9089
| 38> H 	 -50.555 	 -56.3947 	 -85.875
| 39> H 	 -55.3388 	 -55.1341 	 -80.6208
| 40> H 	 -50.0038 	 -60.9924 	 -82.2547
| 41> *
| 42>
| 43>                          ****END OF INPUT****

CARTESIAN COORDINATES (ANGSTROEM)
---------------------------------
  S    -53.354700  -56.532100  -81.401500
  C    -55.043300  -55.965100  -81.138000
  C    -55.941500  -56.898400  -81.684700
  C    -55.315000  -57.968900  -82.396300
  C    -53.929300  -57.944900  -82.233100
  H    -55.797500  -58.741600  -82.937100
  C    -57.439100  -56.708800  -81.656000
  H    -57.654300  -56.089900  -80.704100
  H    -57.890800  -57.651100  -81.580700
  C    -58.137800  -55.965000  -82.862600
  H    -57.726200  -54.963000  -83.029700
  H    -57.889200  -56.530600  -83.798100
  C    -59.661000  -56.084200  -82.615500
  H    -59.834000  -56.129800  -81.560300
  H    -60.346000  -55.286400  -83.115100
  H    -59.949400  -57.165800  -82.905700
  S    -51.978500  -59.655900  -81.274800
  C    -50.888900  -60.435300  -82.447900
  C    -51.231200  -60.192400  -83.795700
  C    -52.356600  -59.293700  -83.879100
  C    -52.884100  -58.868700  -82.623800
  H    -50.569200  -60.499000  -84.555700
  C    -52.971000  -58.804200  -85.174600
  H    -53.786600  -58.199800  -84.758500
  H    -53.440900  -59.706600  -85.559100
  C    -52.045400  -58.096400  -86.204600
  H    -52.716800  -57.596300  -86.962100
  H    -51.394400  -58.744500  -86.679300
  C    -51.296600  -57.066800  -85.398900
  H    -50.795800  -57.407700  -84.533300
  H    -51.956700  -56.303600  -84.908900
  H    -50.555000  -56.394700  -85.875000
  H    -55.338800  -55.134100  -80.620800
  H    -50.003800  -60.992400  -82.254700

 Total Charge           Charge          ....    0
 Multiplicity           Mult            ....    1
 Number of Electrons    NEL             ....  134
 Basis Dimension        Dim             ....  322

ORBITAL ENERGIES
----------------

  NO   OCC          E(Eh)            E(eV)
   0   2.0000     -88.969146     -2420.9735
   1   2.0000     -88.968207     -2420.9480
   2   2.0000     -10.332688      -281.1667
   3   2.0000     -10.330155      -281.0978
   4   2.0000     -10.322184      -280.8809
   5   2.0000     -10.314696      -280.6771
   6   2.0000     -10.310176      -280.5542
   7   2.0000     -10.305596      -280.4295
   8   2.0000     -10.298191      -280.2280
   9   2.0000     -10.297826      -280.2181
  10   2.0000     -10.296263      -280.1756
  11   2.0000     -10.296095      -280.1710
  12   2.0000     -10.293172      -280.0914
  13   2.0000     -10.289418      -279.9893
  14   2.0000     -10.288269      -279.9580
  15   2.0000     -10.268147      -279.4105
  16   2.0000      -8.083097      -219.9522
  17   2.0000      -8.081327      -219.9041
  18   2.0000      -6.041618      -164.4008
  19   2.0000      -6.039902      -164.3541
  20   2.0000      -6.037598      -164.2914
  21   2.0000      -6.036063      -164.2496
  22   2.0000      -6.033974      -164.1928
  23   2.0000      -6.032096      -164.1417
  24   2.0000      -1.000154       -27.2156
  25   2.0000      -0.972287       -26.4573
  26   2.0000      -0.910206       -24.7680
  27   2.0000      -0.907873       -24.7045
  28   2.0000      -0.867074       -23.5943
  29   2.0000      -0.847465       -23.0607
  30   2.0000      -0.841992       -22.9118
  31   2.0000      -0.814379       -22.1604
  32   2.0000      -0.777513       -21.1572
  33   2.0000      -0.763235       -20.7687
  34   2.0000      -0.713356       -19.4114
  35   2.0000      -0.701824       -19.0976
  36   2.0000      -0.700275       -19.0555
  37   2.0000      -0.657175       -17.8826
  38   2.0000      -0.648728       -17.6528
  39   2.0000      -0.619000       -16.8438
  40   2.0000      -0.584669       -15.9097
  41   2.0000      -0.572315       -15.5735
  42   2.0000      -0.559795       -15.2328
  43   2.0000      -0.556211       -15.1353
  44   2.0000      -0.539415       -14.6782
  45   2.0000      -0.521087       -14.1795
  46   2.0000      -0.520560       -14.1651
  47   2.0000      -0.512985       -13.9590
  48   2.0000      -0.498313       -13.5598
  49   2.0000      -0.497435       -13.5359
  50   2.0000      -0.492527       -13.4023
  51   2.0000      -0.471418       -12.8279
  52   2.0000      -0.464706       -12.6453
  53   2.0000      -0.456912       -12.4332
  54   2.0000      -0.453815       -12.3489
  55   2.0000      -0.447148       -12.1675
  56   2.0000      -0.442819       -12.0497
  57   2.0000      -0.440106       -11.9759
  58   2.0000      -0.427779       -11.6405
  59   2.0000      -0.424315       -11.5462
  60   2.0000      -0.423000       -11.5104
  61   2.0000      -0.417328       -11.3561
  62   2.0000      -0.414439       -11.2774
  63   2.0000      -0.339208        -9.2303
  64   2.0000      -0.329560        -8.9678
  65   2.0000      -0.326922        -8.8960
  66   2.0000      -0.295479        -8.0404
  67   0.0000       0.028148         0.7659
  68   0.0000       0.056220         1.5298
  69   0.0000       0.112360         3.0575
  70   0.0000       0.113985         3.1017
  71   0.0000       0.118795         3.2326

MULLIKEN ATOMIC CHARGES
-----------------------
   0 S :    0.118197
   1 C :   -0.078558
   2 C :   -0.087957
   3 C :    0.078928
   4 C :   -0.183417
   5 H :    0.003294
   6 C :    0.014618
   7 H :    0.041028
   8 H :    0.013833
   9 C :   -0.065805
  10 H :    0.035926
  11 H :    0.033702
  12 C :   -0.074747
  13 H :    0.024968
  14 H :    0.064242
  15 H :    0.037652
  16 S :    0.109650
  17 C :   -0.082805
  18 C :   -0.019269
  19 C :   -0.073053
  20 C :   -0.177215
  21 H :    0.012548
  22 C :    0.067297
  23 H :    0.023379
  24 H :    0.033540
  25 C :    0.005167
  26 H :    0.046941
  27 H :    0.020423
  28 C :   -0.079494
  29 H :    0.030884
  30 H :    0.020892
  31 H :    0.027214
  32 H :    0.010495
  33 H :    0.047502
Sum of atomic charges:   -0.0000000

LOEWDIN ATOMIC CHARGES
----------------------
   0 S :    0.407046
   1 C :   -0.173015
   2 C :   -0.057479
   3 C :   -0.055959
   4 C :   -0.197427
   5 H :    0.028508
   6 C :   -0.034133
   7 H :    0.039556
   8 H :    0.020585
   9 C :   -0.041962
  10 H :    0.023022
  11 H :    0.026273
  12 C :   -0.079339
  13 H :    0.017253
  14 H :    0.039745
  15 H :    0.035814
  16 S :    0.378478
  17 C :   -0.166276
  18 C :   -0.069859
  19 C :   -0.044253
  20 C :   -0.206320
  21 H :    0.026793
  22 C :   -0.034860
  23 H :    0.033335
  24 H :    0.031756
  25 C :   -0.029633
  26 H :    0.038953
  27 H :    0.013752
  28 C :   -0.078659
  29 H :    0.020715
  30 H :    0.031549
  31 H :    0.023858
  32 H :    0.008405
  33 H :    0.023780

  Mayer bond orders larger than 0.100000
B(  0-S ,  1-C ) :   1.1237 B(  0-S ,  4-C ) :   1.1734 B(  1-C ,  2-C ) :   1.6018
B(  1-C ,  4-C ) :   0.1045 B(  1-C , 32-H ) :   0.9828 B(  2-C ,  3-C ) :   1.2298
B(  2-C ,  6-C ) :   1.0353 B(  3-C ,  4-C ) :   1.5552 B(  3-C ,  5-H ) :   1.0014
B(  4-C , 20-C ) :   1.0288 B(  6-C ,  7-H ) :   0.9389 B(  6-C ,  8-H ) :   0.9404
B(  6-C ,  9-C ) :   1.0545 B(  9-C , 10-H ) :   0.9608 B(  9-C , 11-H ) :   0.9612
B(  9-C , 12-C ) :   1.0502 B( 12-C , 13-H ) :   0.9742 B( 12-C , 14-H ) :   0.9730
B( 12-C , 15-H ) :   0.9737 B( 16-S , 17-C ) :   1.1551 B( 16-S , 20-C ) :   1.1194
B( 17-C , 18-C ) :   1.6219 B( 17-C , 20-C ) :   0.1047 B( 17-C , 33-H ) :   0.9660
B( 18-C , 19-C ) :   1.2222 B( 18-C , 21-H ) :   0.9930 B( 19-C , 20-C ) :   1.5880
B( 19-C , 22-C ) :   1.0282 B( 22-C , 23-H ) :   0.9336 B( 22-C , 24-H ) :   0.9305
B( 22-C , 25-C ) :   1.0588 B( 25-C , 26-H ) :   0.9563 B( 25-C , 27-H ) :   0.9553
B( 25-C , 28-C ) :   1.0687 B( 28-C , 29-H ) :   0.9688 B( 28-C , 30-H ) :   0.9714
B( 28-C , 31-H ) :   0.9750

Dispersion correction           -0.014746963
FINAL SINGLE POINT ENERGY     -1339.855324532393

DIPOLE MOMENT
-------------
                                X             Y             Z
Electronic contribution:     16.61669      -8.12307      15.88289
Nuclear contribution   :    -16.90609       8.13990     -16.29317
                        -----------------------------------------
Total Dipole Moment    :     -0.28941       0.01683      -0.41028
                        -----------------------------------------
Magnitude (a.u.)       :      0.50236
Magnitude (Debye)      :      1.27690

Rotational constants in cm-1:     0.021742     0.007603     0.006666
Rotational constants in MHz :   651.801011   227.922364   199.835226

                             ****ORCA TERMINATED NORMALLY****
TOTAL RUN TIME: 0 days 0 hours 0 minutes 21 seconds 535 msec
