                         Program Version 4.2.1 -  RELEASE  -
|  1> ! wB97X-D3 SP def2-SVP
|  2> %pal
|  3> nprocs 24
|  4> end
|  5>
|  6> * xyz 0 1
|  7> S 	 -124.339 	 27.8827 	 -112.006
|  8> C 	 -124.488 	 26.6146 	 -113.206
|  9> C 	 -124.585 	 25.3354 	 -112.638
| 10> C 	 -124.453 	 25.4201 	 -111.254
| 11> C 	 -124.116 	 26.6732 	 -110.758
| 12> H 	 -124.353 	 24.5323 	 -110.667
| 13> C 	 -124.792 	 24.0581 	 -113.38
| 14> H 	 -123.877 	 23.4781 	 -113.039
| 15> H 	 -124.592 	 24.2131 	 -114.434
| 16> C 	 -126.107 	 23.3388 	 -113.187
| 17> H 	 -126.632 	 23.6501 	 -112.287
| 18> H 	 -126.787 	 23.7541 	 -113.952
| 19> C 	 -126.02 	 21.8226 	 -113.2
| 20> H 	 -127.005 	 21.3452 	 -113.043
| 21> H 	 -125.476 	 21.4832 	 -114.113
| 22> H 	 -125.52 	 21.4037 	 -112.311
| 23> S 	 -122.527 	 28.3119 	 -109.122
| 24> C 	 -122.673 	 28.1768 	 -107.351
| 25> C 	 -123.711 	 27.3625 	 -107.071
| 26> C 	 -124.373 	 26.7692 	 -108.186
| 27> C 	 -123.792 	 27.0582 	 -109.404
| 28> H 	 -123.986 	 27.2902 	 -106.006
| 29> C 	 -125.57 	 25.9024 	 -107.949
| 30> H 	 -126.067 	 25.6018 	 -108.91
| 31> H 	 -126.112 	 26.644 	 -107.299
| 32> C 	 -125.219 	 24.5888 	 -107.222
| 33> H 	 -124.817 	 24.8559 	 -106.27
| 34> H 	 -124.453 	 24.0129 	 -107.825
| 35> C 	 -126.469 	 23.6986 	 -106.869
| 36> H 	 -127.236 	 24.1747 	 -106.252
| 37> H 	 -126.093 	 22.7886 	 -106.296
| 38> H 	 -126.942 	 23.3079 	 -107.783
| 39> H 	 -124.571 	 26.7486 	 -114.253
| 40> H 	 -122.183 	 28.8527 	 -106.675
| 41> *
| 42>
| 43>                          ****END OF INPUT****

CARTESIAN COORDINATES (ANGSTROEM)
---------------------------------
  S    -124.339000   27.882700  -112.006000
  C    -124.488000   26.614600  -113.206000
  C    -124.585000   25.335400  -112.638000
  C    -124.453000   25.420100  -111.254000
  C    -124.116000   26.673200  -110.758000
  H    -124.353000   24.532300  -110.667000
  C    -124.792000   24.058100  -113.380000
  H    -123.877000   23.478100  -113.039000
  H    -124.592000   24.213100  -114.434000
  C    -126.107000   23.338800  -113.187000
  H    -126.632000   23.650100  -112.287000
  H    -126.787000   23.754100  -113.952000
  C    -126.020000   21.822600  -113.200000
  H    -127.005000   21.345200  -113.043000
  H    -125.476000   21.483200  -114.113000
  H    -125.520000   21.403700  -112.311000
  S    -122.527000   28.311900  -109.122000
  C    -122.673000   28.176800  -107.351000
  C    -123.711000   27.362500  -107.071000
  C    -124.373000   26.769200  -108.186000
  C    -123.792000   27.058200  -109.404000
  H    -123.986000   27.290200  -106.006000
  C    -125.570000   25.902400  -107.949000
  H    -126.067000   25.601800  -108.910000
  H    -126.112000   26.644000  -107.299000
  C    -125.219000   24.588800  -107.222000
  H    -124.817000   24.855900  -106.270000
  H    -124.453000   24.012900  -107.825000
  C    -126.469000   23.698600  -106.869000
  H    -127.236000   24.174700  -106.252000
  H    -126.093000   22.788600  -106.296000
  H    -126.942000   23.307900  -107.783000
  H    -124.571000   26.748600  -114.253000
  H    -122.183000   28.852700  -106.675000

 Total Charge           Charge          ....    0
 Multiplicity           Mult            ....    1
 Number of Electrons    NEL             ....  134
 Basis Dimension        Dim             ....  322

ORBITAL ENERGIES
----------------

  NO   OCC          E(Eh)            E(eV)
   0   2.0000     -88.968482     -2420.9555
   1   2.0000     -88.958247     -2420.6770
   2   2.0000     -10.330896      -281.1180
   3   2.0000     -10.328602      -281.0556
   4   2.0000     -10.318483      -280.7802
   5   2.0000     -10.311136      -280.5803
   6   2.0000     -10.302441      -280.3437
   7   2.0000     -10.297911      -280.2204
   8   2.0000     -10.296510      -280.1823
   9   2.0000     -10.294931      -280.1393
  10   2.0000     -10.294034      -280.1149
  11   2.0000     -10.293733      -280.1067
  12   2.0000     -10.290131      -280.0087
  13   2.0000     -10.289089      -279.9803
  14   2.0000     -10.287672      -279.9418
  15   2.0000     -10.286354      -279.9059
  16   2.0000      -8.082954      -219.9484
  17   2.0000      -8.072218      -219.6562
  18   2.0000      -6.041430      -164.3957
  19   2.0000      -6.037552      -164.2901
  20   2.0000      -6.033718      -164.1858
  21   2.0000      -6.030917      -164.1096
  22   2.0000      -6.026915      -164.0007
  23   2.0000      -6.022715      -163.8864
  24   2.0000      -1.006132       -27.3782
  25   2.0000      -0.984359       -26.7858
  26   2.0000      -0.917661       -24.9708
  27   2.0000      -0.906084       -24.6558
  28   2.0000      -0.872330       -23.7373
  29   2.0000      -0.853491       -23.2247
  30   2.0000      -0.842172       -22.9167
  31   2.0000      -0.817089       -22.2341
  32   2.0000      -0.782026       -21.2800
  33   2.0000      -0.769104       -20.9284
  34   2.0000      -0.711599       -19.3636
  35   2.0000      -0.702775       -19.1235
  36   2.0000      -0.694849       -18.9078
  37   2.0000      -0.660164       -17.9640
  38   2.0000      -0.641293       -17.4505
  39   2.0000      -0.626888       -17.0585
  40   2.0000      -0.596789       -16.2395
  41   2.0000      -0.569838       -15.5061
  42   2.0000      -0.563436       -15.3319
  43   2.0000      -0.551998       -15.0206
  44   2.0000      -0.535297       -14.5662
  45   2.0000      -0.526347       -14.3226
  46   2.0000      -0.519396       -14.1335
  47   2.0000      -0.514669       -14.0049
  48   2.0000      -0.505908       -13.7665
  49   2.0000      -0.493757       -13.4358
  50   2.0000      -0.492449       -13.4002
  51   2.0000      -0.481336       -13.0978
  52   2.0000      -0.472193       -12.8490
  53   2.0000      -0.464732       -12.6460
  54   2.0000      -0.461887       -12.5686
  55   2.0000      -0.448681       -12.2092
  56   2.0000      -0.442955       -12.0534
  57   2.0000      -0.438387       -11.9291
  58   2.0000      -0.436020       -11.8647
  59   2.0000      -0.423411       -11.5216
  60   2.0000      -0.422446       -11.4953
  61   2.0000      -0.414673       -11.2838
  62   2.0000      -0.406004       -11.0479
  63   2.0000      -0.349842        -9.5197
  64   2.0000      -0.332941        -9.0598
  65   2.0000      -0.325466        -8.8564
  66   2.0000      -0.289007        -7.8643
  67   0.0000       0.023035         0.6268
  68   0.0000       0.072501         1.9728
  69   0.0000       0.110255         3.0002
  70   0.0000       0.120459         3.2778
  71   0.0000       0.124647         3.3918

MULLIKEN ATOMIC CHARGES
-----------------------
   0 S :    0.122252
   1 C :   -0.103363
   2 C :   -0.105763
   3 C :    0.026369
   4 C :   -0.146232
   5 H :   -0.001058
   6 C :    0.057136
   7 H :    0.041944
   8 H :    0.016658
   9 C :   -0.050399
  10 H :    0.025552
  11 H :    0.031622
  12 C :   -0.065007
  13 H :    0.035213
  14 H :    0.046792
  15 H :    0.030109
  16 S :    0.066374
  17 C :   -0.080756
  18 C :   -0.051462
  19 C :   -0.016337
  20 C :   -0.145875
  21 H :    0.030544
  22 C :    0.041980
  23 H :    0.035461
  24 H :    0.044728
  25 C :   -0.086111
  26 H :    0.020155
  27 H :    0.046785
  28 C :   -0.067625
  29 H :    0.039918
  30 H :    0.043251
  31 H :    0.031516
  32 H :    0.025683
  33 H :    0.059946
Sum of atomic charges:    0.0000000

LOEWDIN ATOMIC CHARGES
----------------------
   0 S :    0.411089
   1 C :   -0.193974
   2 C :   -0.062997
   3 C :   -0.062801
   4 C :   -0.186688
   5 H :    0.025834
   6 C :   -0.037143
   7 H :    0.041447
   8 H :    0.029563
   9 C :   -0.048325
  10 H :    0.024157
  11 H :    0.031090
  12 C :   -0.071004
  13 H :    0.030981
  14 H :    0.030159
  15 H :    0.026981
  16 S :    0.354870
  17 C :   -0.162586
  18 C :   -0.079760
  19 C :   -0.057417
  20 C :   -0.185568
  21 H :    0.036594
  22 C :   -0.038085
  23 H :    0.033689
  24 H :    0.043363
  25 C :   -0.039432
  26 H :    0.016637
  27 H :    0.032269
  28 C :   -0.073178
  29 H :    0.025426
  30 H :    0.033970
  31 H :    0.022207
  32 H :    0.017807
  33 H :    0.030826

  Mayer bond orders larger than 0.100000
B(  0-S ,  1-C ) :   1.1410 B(  0-S ,  4-C ) :   1.1570 B(  1-C ,  2-C ) :   1.5878
B(  1-C ,  4-C ) :   0.1060 B(  1-C , 32-H ) :   0.9690 B(  2-C ,  3-C ) :   1.2794
B(  2-C ,  6-C ) :   1.0294 B(  3-C ,  4-C ) :   1.5450 B(  3-C ,  5-H ) :   0.9949
B(  4-C , 20-C ) :   1.0778 B(  6-C ,  7-H ) :   0.9448 B(  6-C ,  8-H ) :   0.9331
B(  6-C ,  9-C ) :   1.0338 B(  9-C , 10-H ) :   0.9640 B(  9-C , 11-H ) :   0.9497
B(  9-C , 12-C ) :   1.0804 B( 12-C , 13-H ) :   0.9708 B( 12-C , 14-H ) :   0.9761
B( 12-C , 15-H ) :   0.9735 B( 16-S , 17-C ) :   1.1341 B( 16-S , 20-C ) :   1.1063
B( 17-C , 18-C ) :   1.6449 B( 17-C , 33-H ) :   0.9679 B( 18-C , 19-C ) :   1.2071
B( 18-C , 21-H ) :   0.9824 B( 19-C , 20-C ) :   1.5997 B( 19-C , 22-C ) :   1.0358
B( 22-C , 23-H ) :   0.9327 B( 22-C , 24-H ) :   0.9307 B( 22-C , 25-C ) :   1.0686
B( 25-C , 26-H ) :   0.9535 B( 25-C , 27-H ) :   0.9545 B( 25-C , 28-C ) :   1.0783
B( 28-C , 29-H ) :   0.9760 B( 28-C , 30-H ) :   0.9754 B( 28-C , 31-H ) :   0.9758

Dispersion correction           -0.013846471
FINAL SINGLE POINT ENERGY     -1339.878286808759

DIPOLE MOMENT
-------------
                                X             Y             Z
Electronic contribution:     15.20438      28.79014      -2.34591
Nuclear contribution   :    -15.60858     -29.35650       2.58341
                        -----------------------------------------
Total Dipole Moment    :     -0.40420      -0.56636       0.23750
                        -----------------------------------------
Magnitude (a.u.)       :      0.73522
Magnitude (Debye)      :      1.86879

Rotational constants in cm-1:     0.016573     0.009332     0.006336
Rotational constants in MHz :   496.846722   279.756568   189.940789

                             ****ORCA TERMINATED NORMALLY****
TOTAL RUN TIME: 0 days 0 hours 0 minutes 21 seconds 464 msec
