                         Program Version 4.2.1 -  RELEASE  -
|  1> ! wB97X-D3 SP def2-SVP
|  2> %pal
|  3> nprocs 24
|  4> end
|  5>
|  6> * xyz 0 1
|  7> S 	 -96.4279 	 -22.1433 	 -65.8397
|  8> C 	 -98.1216 	 -21.8493 	 -66.3028
|  9> C 	 -98.7312 	 -21.1448 	 -65.2969
| 10> C 	 -97.8644 	 -20.8504 	 -64.2266
| 11> C 	 -96.5996 	 -21.2686 	 -64.419
| 12> H 	 -98.2879 	 -20.4136 	 -63.3224
| 13> C 	 -100.226 	 -20.9256 	 -65.3529
| 14> H 	 -100.709 	 -21.7482 	 -64.8104
| 15> H 	 -100.402 	 -20.9285 	 -66.4145
| 16> C 	 -100.75 	 -19.6436 	 -64.8478
| 17> H 	 -100.586 	 -19.6928 	 -63.7769
| 18> H 	 -100.382 	 -18.6996 	 -65.292
| 19> C 	 -102.259 	 -19.5887 	 -65.0719
| 20> H 	 -102.754 	 -18.7286 	 -64.59
| 21> H 	 -102.553 	 -19.513 	 -66.0972
| 22> H 	 -102.655 	 -20.4323 	 -64.4848
| 23> S 	 -94.7862 	 -22.5393 	 -62.9014
| 24> C 	 -93.9206 	 -21.7142 	 -61.5315
| 25> C 	 -94.2602 	 -20.3645 	 -61.5707
| 26> C 	 -95.2638 	 -20.0243 	 -62.5342
| 27> C 	 -95.5778 	 -21.0668 	 -63.3901
| 28> H 	 -94.083 	 -19.698 	 -60.6438
| 29> C 	 -95.9196 	 -18.6412 	 -62.5815
| 30> H 	 -95.7984 	 -18.2567 	 -61.5712
| 31> H 	 -96.928 	 -18.762 	 -62.8453
| 32> C 	 -95.295 	 -17.8023 	 -63.7045
| 33> H 	 -95.577 	 -18.2298 	 -64.6668
| 34> H 	 -94.2298 	 -17.6916 	 -63.4862
| 35> C 	 -95.7464 	 -16.3889 	 -63.6798
| 36> H 	 -96.7892 	 -16.2382 	 -63.9514
| 37> H 	 -95.1789 	 -15.7962 	 -64.4769
| 38> H 	 -95.5311 	 -15.8636 	 -62.7902
| 39> H 	 -98.5854 	 -22.057 	 -67.2359
| 40> H 	 -93.2039 	 -22.1766 	 -60.8435
| 41> *
| 42>
| 43>                          ****END OF INPUT****

CARTESIAN COORDINATES (ANGSTROEM)
---------------------------------
  S    -96.427900  -22.143300  -65.839700
  C    -98.121600  -21.849300  -66.302800
  C    -98.731200  -21.144800  -65.296900
  C    -97.864400  -20.850400  -64.226600
  C    -96.599600  -21.268600  -64.419000
  H    -98.287900  -20.413600  -63.322400
  C    -100.226000  -20.925600  -65.352900
  H    -100.709000  -21.748200  -64.810400
  H    -100.402000  -20.928500  -66.414500
  C    -100.750000  -19.643600  -64.847800
  H    -100.586000  -19.692800  -63.776900
  H    -100.382000  -18.699600  -65.292000
  C    -102.259000  -19.588700  -65.071900
  H    -102.754000  -18.728600  -64.590000
  H    -102.553000  -19.513000  -66.097200
  H    -102.655000  -20.432300  -64.484800
  S    -94.786200  -22.539300  -62.901400
  C    -93.920600  -21.714200  -61.531500
  C    -94.260200  -20.364500  -61.570700
  C    -95.263800  -20.024300  -62.534200
  C    -95.577800  -21.066800  -63.390100
  H    -94.083000  -19.698000  -60.643800
  C    -95.919600  -18.641200  -62.581500
  H    -95.798400  -18.256700  -61.571200
  H    -96.928000  -18.762000  -62.845300
  C    -95.295000  -17.802300  -63.704500
  H    -95.577000  -18.229800  -64.666800
  H    -94.229800  -17.691600  -63.486200
  C    -95.746400  -16.388900  -63.679800
  H    -96.789200  -16.238200  -63.951400
  H    -95.178900  -15.796200  -64.476900
  H    -95.531100  -15.863600  -62.790200
  H    -98.585400  -22.057000  -67.235900
  H    -93.203900  -22.176600  -60.843500

 Total Charge           Charge          ....    0
 Multiplicity           Mult            ....    1
 Number of Electrons    NEL             ....  134
 Basis Dimension        Dim             ....  322

ORBITAL ENERGIES
----------------

  NO   OCC          E(Eh)            E(eV)
   0   2.0000     -88.969033     -2420.9705
   1   2.0000     -88.963247     -2420.8130
   2   2.0000     -10.325969      -280.9839
   3   2.0000     -10.325903      -280.9821
   4   2.0000     -10.325164      -280.9620
   5   2.0000     -10.310428      -280.5610
   6   2.0000     -10.302768      -280.3526
   7   2.0000     -10.301743      -280.3247
   8   2.0000     -10.294280      -280.1216
   9   2.0000     -10.288786      -279.9721
  10   2.0000     -10.286244      -279.9029
  11   2.0000     -10.285266      -279.8763
  12   2.0000     -10.284649      -279.8595
  13   2.0000     -10.279986      -279.7326
  14   2.0000     -10.278233      -279.6849
  15   2.0000     -10.270872      -279.4846
  16   2.0000      -8.084516      -219.9909
  17   2.0000      -8.077206      -219.7920
  18   2.0000      -6.043000      -164.4384
  19   2.0000      -6.038870      -164.3260
  20   2.0000      -6.035856      -164.2440
  21   2.0000      -6.035286      -164.2285
  22   2.0000      -6.031699      -164.1309
  23   2.0000      -6.027978      -164.0296
  24   2.0000      -1.016683       -27.6653
  25   2.0000      -0.983339       -26.7580
  26   2.0000      -0.927096       -25.2276
  27   2.0000      -0.912055       -24.8183
  28   2.0000      -0.874517       -23.7968
  29   2.0000      -0.853729       -23.2311
  30   2.0000      -0.846587       -23.0368
  31   2.0000      -0.818082       -22.2611
  32   2.0000      -0.782087       -21.2817
  33   2.0000      -0.771039       -20.9810
  34   2.0000      -0.711150       -19.3514
  35   2.0000      -0.693308       -18.8659
  36   2.0000      -0.688933       -18.7468
  37   2.0000      -0.660691       -17.9783
  38   2.0000      -0.637996       -17.3607
  39   2.0000      -0.627602       -17.0779
  40   2.0000      -0.593511       -16.1502
  41   2.0000      -0.593165       -16.1408
  42   2.0000      -0.573740       -15.6123
  43   2.0000      -0.562984       -15.3196
  44   2.0000      -0.530394       -14.4328
  45   2.0000      -0.520865       -14.1735
  46   2.0000      -0.517163       -14.0727
  47   2.0000      -0.512096       -13.9348
  48   2.0000      -0.510272       -13.8852
  49   2.0000      -0.503558       -13.7025
  50   2.0000      -0.494079       -13.4446
  51   2.0000      -0.488410       -13.2903
  52   2.0000      -0.473962       -12.8972
  53   2.0000      -0.466254       -12.6874
  54   2.0000      -0.458184       -12.4678
  55   2.0000      -0.451769       -12.2933
  56   2.0000      -0.442675       -12.0458
  57   2.0000      -0.434305       -11.8180
  58   2.0000      -0.430918       -11.7259
  59   2.0000      -0.419986       -11.4284
  60   2.0000      -0.415140       -11.2965
  61   2.0000      -0.413719       -11.2579
  62   2.0000      -0.410657       -11.1745
  63   2.0000      -0.350015        -9.5244
  64   2.0000      -0.335048        -9.1171
  65   2.0000      -0.327327        -8.9070
  66   2.0000      -0.293023        -7.9736
  67   0.0000       0.030445         0.8285
  68   0.0000       0.071047         1.9333
  69   0.0000       0.102428         2.7872
  70   0.0000       0.123639         3.3644
  71   0.0000       0.130541         3.5522

MULLIKEN ATOMIC CHARGES
-----------------------
   0 S :    0.118550
   1 C :   -0.129096
   2 C :   -0.078425
   3 C :   -0.007392
   4 C :   -0.104578
   5 H :    0.023117
   6 C :    0.079966
   7 H :    0.049358
   8 H :    0.007672
   9 C :   -0.092283
  10 H :    0.023172
  11 H :    0.037758
  12 C :   -0.046329
  13 H :    0.027296
  14 H :    0.035179
  15 H :    0.023607
  16 S :    0.080302
  17 C :   -0.112890
  18 C :   -0.047804
  19 C :   -0.090208
  20 C :   -0.127412
  21 H :    0.053717
  22 C :    0.118325
  23 H :    0.014068
  24 H :   -0.004542
  25 C :   -0.060163
  26 H :    0.044327
  27 H :    0.030081
  28 C :   -0.044773
  29 H :    0.022761
  30 H :    0.030834
  31 H :    0.017721
  32 H :    0.036577
  33 H :    0.071508
Sum of atomic charges:    0.0000000

LOEWDIN ATOMIC CHARGES
----------------------
   0 S :    0.428349
   1 C :   -0.190241
   2 C :   -0.059890
   3 C :   -0.075327
   4 C :   -0.216496
   5 H :    0.032635
   6 C :   -0.029854
   7 H :    0.040225
   8 H :    0.028457
   9 C :   -0.047107
  10 H :    0.021516
  11 H :    0.028416
  12 C :   -0.064147
  13 H :    0.026784
  14 H :    0.021114
  15 H :    0.026259
  16 S :    0.382176
  17 C :   -0.171850
  18 C :   -0.085803
  19 C :   -0.059351
  20 C :   -0.191373
  21 H :    0.046621
  22 C :   -0.021655
  23 H :    0.027837
  24 H :    0.018893
  25 C :   -0.036004
  26 H :    0.031766
  27 H :    0.029269
  28 C :   -0.068805
  29 H :    0.019551
  30 H :    0.033008
  31 H :    0.015337
  32 H :    0.023715
  33 H :    0.035978

  Mayer bond orders larger than 0.100000
B(  0-S ,  1-C ) :   1.1193 B(  0-S ,  4-C ) :   1.1761 B(  1-C ,  2-C ) :   1.6108
B(  1-C , 32-H ) :   0.9752 B(  2-C ,  3-C ) :   1.2681 B(  2-C ,  6-C ) :   1.0124
B(  3-C ,  4-C ) :   1.5416 B(  3-C ,  5-H ) :   0.9896 B(  4-C , 20-C ) :   1.0018
B(  6-C ,  7-H ) :   0.9326 B(  6-C ,  8-H ) :   0.9386 B(  6-C ,  9-C ) :   1.0811
B(  9-C , 10-H ) :   0.9456 B(  9-C , 11-H ) :   0.9582 B(  9-C , 12-C ) :   1.0930
B( 12-C , 13-H ) :   0.9724 B( 12-C , 14-H ) :   0.9771 B( 12-C , 15-H ) :   0.9710
B( 16-S , 17-C ) :   1.1429 B( 16-S , 20-C ) :   1.1431 B( 17-C , 18-C ) :   1.6179
B( 17-C , 20-C ) :   0.1081 B( 17-C , 33-H ) :   0.9666 B( 18-C , 19-C ) :   1.2558
B( 18-C , 21-H ) :   0.9615 B( 19-C , 20-C ) :   1.6117 B( 19-C , 22-C ) :   1.0461
B( 22-C , 23-H ) :   0.9316 B( 22-C , 24-H ) :   0.9223 B( 22-C , 25-C ) :   1.0794
B( 25-C , 26-H ) :   0.9524 B( 25-C , 27-H ) :   0.9538 B( 25-C , 28-C ) :   1.1013
B( 28-C , 29-H ) :   0.9697 B( 28-C , 30-H ) :   0.9713 B( 28-C , 31-H ) :   0.9727

Dispersion correction           -0.013801246
FINAL SINGLE POINT ENERGY     -1339.863292516889

DIPOLE MOMENT
-------------
                                X             Y             Z
Electronic contribution:     19.33069     -23.88788      -0.77527
Nuclear contribution   :    -19.90785      24.37300       1.02548
                        -----------------------------------------
Total Dipole Moment    :     -0.57715       0.48511       0.25021
                        -----------------------------------------
Magnitude (a.u.)       :      0.79439
Magnitude (Debye)      :      2.01917

Rotational constants in cm-1:     0.017285     0.009008     0.006949
Rotational constants in MHz :   518.178146   270.066257   208.332151

                             ****ORCA TERMINATED NORMALLY****
TOTAL RUN TIME: 0 days 0 hours 0 minutes 20 seconds 736 msec
