                         Program Version 4.2.1 -  RELEASE  -
|  1> ! wB97X-D3 SP def2-SVP
|  2> %pal
|  3> nprocs 24
|  4> end
|  5>
|  6> * xyz 0 1
|  7> S 	 -127.402 	 64.6902 	 -48.8688
|  8> C 	 -127.144 	 66.4195 	 -48.6643
|  9> C 	 -127.627 	 67.1736 	 -49.733
| 10> C 	 -128.234 	 66.29 	 -50.6817
| 11> C 	 -128.266 	 64.9656 	 -50.3559
| 12> H 	 -128.685 	 66.7624 	 -51.5557
| 13> C 	 -127.652 	 68.704 	 -49.7657
| 14> H 	 -128.385 	 69.0606 	 -49.0344
| 15> H 	 -128.127 	 68.9484 	 -50.6996
| 16> C 	 -126.312 	 69.3116 	 -49.5587
| 17> H 	 -125.706 	 68.6535 	 -48.9019
| 18> H 	 -125.828 	 69.347 	 -50.5401
| 19> C 	 -126.43 	 70.7139 	 -48.9594
| 20> H 	 -125.463 	 71.1944 	 -49.0412
| 21> H 	 -127.149 	 71.3361 	 -49.5462
| 22> H 	 -126.827 	 70.8013 	 -47.9212
| 23> S 	 -127.648 	 62.6831 	 -51.6748
| 24> C 	 -128.911 	 61.8844 	 -52.6449
| 25> C 	 -130.117 	 62.5356 	 -52.4792
| 26> C 	 -130.096 	 63.7261 	 -51.6387
| 27> C 	 -128.805 	 63.9349 	 -51.1558
| 28> H 	 -130.993 	 62.1722 	 -52.9867
| 29> C 	 -131.254 	 64.6633 	 -51.4956
| 30> H 	 -130.924 	 65.6318 	 -51.8589
| 31> H 	 -131.362 	 64.7583 	 -50.4851
| 32> C 	 -132.58 	 64.2954 	 -52.0995
| 33> H 	 -132.949 	 63.5078 	 -51.4235
| 34> H 	 -132.534 	 63.7541 	 -53.024
| 35> C 	 -133.66 	 65.4048 	 -52.1151
| 36> H 	 -133.874 	 65.8963 	 -53.0647
| 37> H 	 -133.537 	 66.2752 	 -51.3526
| 38> H 	 -134.615 	 64.9082 	 -51.9235
| 39> H 	 -126.521 	 66.7651 	 -47.8228
| 40> H 	 -128.822 	 61.2163 	 -53.4961
| 41> *
| 42>
| 43>                          ****END OF INPUT****

CARTESIAN COORDINATES (ANGSTROEM)
---------------------------------
  S    -127.402000   64.690200  -48.868800
  C    -127.144000   66.419500  -48.664300
  C    -127.627000   67.173600  -49.733000
  C    -128.234000   66.290000  -50.681700
  C    -128.266000   64.965600  -50.355900
  H    -128.685000   66.762400  -51.555700
  C    -127.652000   68.704000  -49.765700
  H    -128.385000   69.060600  -49.034400
  H    -128.127000   68.948400  -50.699600
  C    -126.312000   69.311600  -49.558700
  H    -125.706000   68.653500  -48.901900
  H    -125.828000   69.347000  -50.540100
  C    -126.430000   70.713900  -48.959400
  H    -125.463000   71.194400  -49.041200
  H    -127.149000   71.336100  -49.546200
  H    -126.827000   70.801300  -47.921200
  S    -127.648000   62.683100  -51.674800
  C    -128.911000   61.884400  -52.644900
  C    -130.117000   62.535600  -52.479200
  C    -130.096000   63.726100  -51.638700
  C    -128.805000   63.934900  -51.155800
  H    -130.993000   62.172200  -52.986700
  C    -131.254000   64.663300  -51.495600
  H    -130.924000   65.631800  -51.858900
  H    -131.362000   64.758300  -50.485100
  C    -132.580000   64.295400  -52.099500
  H    -132.949000   63.507800  -51.423500
  H    -132.534000   63.754100  -53.024000
  C    -133.660000   65.404800  -52.115100
  H    -133.874000   65.896300  -53.064700
  H    -133.537000   66.275200  -51.352600
  H    -134.615000   64.908200  -51.923500
  H    -126.521000   66.765100  -47.822800
  H    -128.822000   61.216300  -53.496100

 Total Charge           Charge          ....    0
 Multiplicity           Mult            ....    1
 Number of Electrons    NEL             ....  134
 Basis Dimension        Dim             ....  322

ORBITAL ENERGIES
----------------

  NO   OCC          E(Eh)            E(eV)
   0   2.0000     -88.965485     -2420.8739
   1   2.0000     -88.963891     -2420.8305
   2   2.0000     -10.323247      -280.9098
   3   2.0000     -10.321955      -280.8747
   4   2.0000     -10.316961      -280.7388
   5   2.0000     -10.315280      -280.6930
   6   2.0000     -10.305636      -280.4306
   7   2.0000     -10.300266      -280.2845
   8   2.0000     -10.293375      -280.0970
   9   2.0000     -10.291464      -280.0450
  10   2.0000     -10.290027      -280.0059
  11   2.0000     -10.289410      -279.9891
  12   2.0000     -10.289057      -279.9795
  13   2.0000     -10.287613      -279.9402
  14   2.0000     -10.283378      -279.8249
  15   2.0000     -10.282663      -279.8055
  16   2.0000      -8.080314      -219.8765
  17   2.0000      -8.077634      -219.8036
  18   2.0000      -6.038747      -164.3227
  19   2.0000      -6.036347      -164.2574
  20   2.0000      -6.034851      -164.2166
  21   2.0000      -6.032288      -164.1469
  22   2.0000      -6.031111      -164.1149
  23   2.0000      -6.028210      -164.0359
  24   2.0000      -1.005430       -27.3591
  25   2.0000      -0.977228       -26.5917
  26   2.0000      -0.919393       -25.0180
  27   2.0000      -0.914152       -24.8753
  28   2.0000      -0.870941       -23.6995
  29   2.0000      -0.851175       -23.1617
  30   2.0000      -0.843818       -22.9615
  31   2.0000      -0.811961       -22.0946
  32   2.0000      -0.785017       -21.3614
  33   2.0000      -0.771939       -21.0055
  34   2.0000      -0.711577       -19.3630
  35   2.0000      -0.706981       -19.2379
  36   2.0000      -0.697867       -18.9899
  37   2.0000      -0.651646       -17.7322
  38   2.0000      -0.638208       -17.3665
  39   2.0000      -0.621694       -16.9172
  40   2.0000      -0.597201       -16.2507
  41   2.0000      -0.572867       -15.5885
  42   2.0000      -0.570455       -15.5229
  43   2.0000      -0.556047       -15.1308
  44   2.0000      -0.529641       -14.4123
  45   2.0000      -0.524990       -14.2857
  46   2.0000      -0.521249       -14.1839
  47   2.0000      -0.513097       -13.9621
  48   2.0000      -0.505628       -13.7588
  49   2.0000      -0.498632       -13.5685
  50   2.0000      -0.492501       -13.4016
  51   2.0000      -0.473936       -12.8965
  52   2.0000      -0.467418       -12.7191
  53   2.0000      -0.463817       -12.6211
  54   2.0000      -0.455707       -12.4004
  55   2.0000      -0.452973       -12.3260
  56   2.0000      -0.444027       -12.0826
  57   2.0000      -0.442173       -12.0321
  58   2.0000      -0.434511       -11.8237
  59   2.0000      -0.426237       -11.5985
  60   2.0000      -0.423465       -11.5231
  61   2.0000      -0.416641       -11.3374
  62   2.0000      -0.410605       -11.1731
  63   2.0000      -0.343091        -9.3360
  64   2.0000      -0.330102        -8.9825
  65   2.0000      -0.326851        -8.8941
  66   2.0000      -0.289729        -7.8839
  67   0.0000       0.032600         0.8871
  68   0.0000       0.060774         1.6538
  69   0.0000       0.110078         2.9954
  70   0.0000       0.122582         3.3356
  71   0.0000       0.133334         3.6282

MULLIKEN ATOMIC CHARGES
-----------------------
   0 S :    0.118176
   1 C :   -0.162018
   2 C :   -0.106675
   3 C :    0.022404
   4 C :   -0.155692
   5 H :    0.009575
   6 C :    0.104721
   7 H :    0.039665
   8 H :    0.004276
   9 C :   -0.074953
  10 H :    0.037399
  11 H :    0.037232
  12 C :   -0.069559
  13 H :    0.034988
  14 H :    0.027779
  15 H :    0.043915
  16 S :    0.101188
  17 C :   -0.069980
  18 C :   -0.068450
  19 C :   -0.048247
  20 C :   -0.175054
  21 H :    0.014328
  22 C :    0.163765
  23 H :    0.025368
  24 H :    0.012237
  25 C :   -0.094672
  26 H :    0.027418
  27 H :    0.028040
  28 C :   -0.063312
  29 H :    0.034698
  30 H :    0.047248
  31 H :    0.029699
  32 H :    0.063939
  33 H :    0.060553
Sum of atomic charges:   -0.0000000

LOEWDIN ATOMIC CHARGES
----------------------
   0 S :    0.407295
   1 C :   -0.196803
   2 C :   -0.062580
   3 C :   -0.062945
   4 C :   -0.209002
   5 H :    0.029714
   6 C :   -0.030872
   7 H :    0.035395
   8 H :    0.025031
   9 C :   -0.042656
  10 H :    0.026807
  11 H :    0.032186
  12 C :   -0.071292
  13 H :    0.025212
  14 H :    0.026626
  15 H :    0.029566
  16 S :    0.380574
  17 C :   -0.185688
  18 C :   -0.069994
  19 C :   -0.043637
  20 C :   -0.188504
  21 H :    0.025560
  22 C :   -0.027733
  23 H :    0.032074
  24 H :    0.027970
  25 C :   -0.044811
  26 H :    0.030091
  27 H :    0.021066
  28 C :   -0.074424
  29 H :    0.024821
  30 H :    0.037572
  31 H :    0.029538
  32 H :    0.027738
  33 H :    0.036105

  Mayer bond orders larger than 0.100000
B(  0-S ,  1-C ) :   1.1493 B(  0-S ,  4-C ) :   1.1427 B(  1-C ,  2-C ) :   1.5904
B(  1-C , 32-H ) :   0.9619 B(  2-C ,  3-C ) :   1.2812 B(  2-C ,  6-C ) :   1.0035
B(  3-C ,  4-C ) :   1.5561 B(  3-C ,  5-H ) :   0.9882 B(  4-C , 20-C ) :   1.0673
B(  6-C ,  7-H ) :   0.9462 B(  6-C ,  8-H ) :   0.9288 B(  6-C ,  9-C ) :   1.0491
B(  9-C , 10-H ) :   0.9666 B(  9-C , 11-H ) :   0.9493 B(  9-C , 12-C ) :   1.0796
B( 12-C , 13-H ) :   0.9735 B( 12-C , 14-H ) :   0.9719 B( 12-C , 15-H ) :   0.9757
B( 16-S , 17-C ) :   1.1273 B( 16-S , 20-C ) :   1.1304 B( 17-C , 18-C ) :   1.6467
B( 17-C , 33-H ) :   0.9578 B( 18-C , 19-C ) :   1.2226 B( 18-C , 21-H ) :   0.9788
B( 19-C , 20-C ) :   1.6116 B( 19-C , 22-C ) :   1.0301 B( 22-C , 23-H ) :   0.9271
B( 22-C , 24-H ) :   0.8999 B( 22-C , 25-C ) :   1.0829 B( 25-C , 26-H ) :   0.9575
B( 25-C , 27-H ) :   0.9517 B( 25-C , 28-C ) :   1.0650 B( 28-C , 29-H ) :   0.9768
B( 28-C , 30-H ) :   0.9769 B( 28-C , 31-H ) :   0.9750

Dispersion correction           -0.013250394
FINAL SINGLE POINT ENERGY     -1339.869766825215

DIPOLE MOMENT
-------------
                                X             Y             Z
Electronic contribution:     14.02865     -23.99262       2.15548
Nuclear contribution   :    -14.52953      24.61908      -2.42978
                        -----------------------------------------
Total Dipole Moment    :     -0.50088       0.62646      -0.27430
                        -----------------------------------------
Magnitude (a.u.)       :      0.84769
Magnitude (Debye)      :      2.15465

Rotational constants in cm-1:     0.018686     0.007518     0.005854
Rotational constants in MHz :   560.184820   225.380606   175.488959

                             ****ORCA TERMINATED NORMALLY****
TOTAL RUN TIME: 0 days 0 hours 0 minutes 20 seconds 869 msec
