                         Program Version 4.2.1 -  RELEASE  -
|  1> ! wB97X-D3 SP def2-SVP
|  2> %pal
|  3> nprocs 24
|  4> end
|  5>
|  6> * xyz 0 1
|  7> S 	 -80.1602 	 5.29947 	 -109.027
|  8> C 	 -80.6376 	 5.35533 	 -110.696
|  9> C 	 -80.6298 	 6.66055 	 -111.132
| 10> C 	 -79.9415 	 7.53203 	 -110.211
| 11> C 	 -79.4274 	 6.90717 	 -109.166
| 12> H 	 -79.5937 	 8.50785 	 -110.454
| 13> C 	 -81.2296 	 7.1102 	 -112.523
| 14> H 	 -82.1897 	 7.52364 	 -112.26
| 15> H 	 -81.3449 	 6.20785 	 -113.084
| 16> C 	 -80.2766 	 7.95277 	 -113.372
| 17> H 	 -80.7831 	 8.15929 	 -114.378
| 18> H 	 -80.0255 	 8.89831 	 -112.878
| 19> C 	 -78.8259 	 7.3725 	 -113.597
| 20> H 	 -78.4618 	 6.83015 	 -112.74
| 21> H 	 -78.7002 	 6.68761 	 -114.439
| 22> H 	 -78.0241 	 8.04427 	 -113.838
| 23> S 	 -77.066 	 6.52037 	 -107.946
| 24> C 	 -76.5665 	 7.7003 	 -106.678
| 25> C 	 -77.4458 	 8.73848 	 -106.554
| 26> C 	 -78.554 	 8.70811 	 -107.478
| 27> C 	 -78.5458 	 7.43903 	 -108.148
| 28> H 	 -77.3107 	 9.49088 	 -105.769
| 29> C 	 -79.6415 	 9.77867 	 -107.519
| 30> H 	 -80.0484 	 10.0105 	 -106.643
| 31> H 	 -80.424 	 9.41345 	 -108.145
| 32> C 	 -79.1115 	 11.0896 	 -108.099
| 33> H 	 -78.6306 	 10.8358 	 -109.016
| 34> H 	 -78.3226 	 11.6312 	 -107.444
| 35> C 	 -80.2355 	 12.0617 	 -108.376
| 36> H 	 -79.7882 	 12.7945 	 -108.973
| 37> H 	 -80.6091 	 12.5867 	 -107.466
| 38> H 	 -81.1048 	 11.7175 	 -108.842
| 39> H 	 -81.0367 	 4.5167 	 -111.313
| 40> H 	 -75.7778 	 7.53481 	 -106.009
| 41> *
| 42>
| 43>                          ****END OF INPUT****

CARTESIAN COORDINATES (ANGSTROEM)
---------------------------------
  S    -80.160200    5.299470  -109.027000
  C    -80.637600    5.355330  -110.696000
  C    -80.629800    6.660550  -111.132000
  C    -79.941500    7.532030  -110.211000
  C    -79.427400    6.907170  -109.166000
  H    -79.593700    8.507850  -110.454000
  C    -81.229600    7.110200  -112.523000
  H    -82.189700    7.523640  -112.260000
  H    -81.344900    6.207850  -113.084000
  C    -80.276600    7.952770  -113.372000
  H    -80.783100    8.159290  -114.378000
  H    -80.025500    8.898310  -112.878000
  C    -78.825900    7.372500  -113.597000
  H    -78.461800    6.830150  -112.740000
  H    -78.700200    6.687610  -114.439000
  H    -78.024100    8.044270  -113.838000
  S    -77.066000    6.520370  -107.946000
  C    -76.566500    7.700300  -106.678000
  C    -77.445800    8.738480  -106.554000
  C    -78.554000    8.708110  -107.478000
  C    -78.545800    7.439030  -108.148000
  H    -77.310700    9.490880  -105.769000
  C    -79.641500    9.778670  -107.519000
  H    -80.048400   10.010500  -106.643000
  H    -80.424000    9.413450  -108.145000
  C    -79.111500   11.089600  -108.099000
  H    -78.630600   10.835800  -109.016000
  H    -78.322600   11.631200  -107.444000
  C    -80.235500   12.061700  -108.376000
  H    -79.788200   12.794500  -108.973000
  H    -80.609100   12.586700  -107.466000
  H    -81.104800   11.717500  -108.842000
  H    -81.036700    4.516700  -111.313000
  H    -75.777800    7.534810  -106.009000

 Total Charge           Charge          ....    0
 Multiplicity           Mult            ....    1
 Number of Electrons    NEL             ....  134
 Basis Dimension        Dim             ....  322

ORBITAL ENERGIES
----------------

  NO   OCC          E(Eh)            E(eV)
   0   2.0000     -88.967048     -2420.9165
   1   2.0000     -88.958562     -2420.6855
   2   2.0000     -10.329957      -281.0924
   3   2.0000     -10.321393      -280.8594
   4   2.0000     -10.315252      -280.6923
   5   2.0000     -10.312707      -280.6230
   6   2.0000     -10.311847      -280.5996
   7   2.0000     -10.301518      -280.3185
   8   2.0000     -10.298390      -280.2334
   9   2.0000     -10.296954      -280.1944
  10   2.0000     -10.295402      -280.1521
  11   2.0000     -10.290159      -280.0095
  12   2.0000     -10.286212      -279.9021
  13   2.0000     -10.281348      -279.7697
  14   2.0000     -10.273529      -279.5569
  15   2.0000     -10.270529      -279.4753
  16   2.0000      -8.080939      -219.8935
  17   2.0000      -8.073738      -219.6976
  18   2.0000      -6.039505      -164.3433
  19   2.0000      -6.035662      -164.2387
  20   2.0000      -6.032335      -164.1482
  21   2.0000      -6.031581      -164.1277
  22   2.0000      -6.028521      -164.0444
  23   2.0000      -6.024022      -163.9220
  24   2.0000      -1.006965       -27.4009
  25   2.0000      -0.979418       -26.6513
  26   2.0000      -0.916765       -24.9464
  27   2.0000      -0.903859       -24.5952
  28   2.0000      -0.870329       -23.6829
  29   2.0000      -0.852217       -23.1900
  30   2.0000      -0.837460       -22.7884
  31   2.0000      -0.818714       -22.2783
  32   2.0000      -0.787796       -21.4370
  33   2.0000      -0.773733       -21.0543
  34   2.0000      -0.708140       -19.2695
  35   2.0000      -0.700519       -19.0621
  36   2.0000      -0.690068       -18.7777
  37   2.0000      -0.658824       -17.9275
  38   2.0000      -0.639494       -17.4015
  39   2.0000      -0.623279       -16.9603
  40   2.0000      -0.601387       -16.3646
  41   2.0000      -0.574671       -15.6376
  42   2.0000      -0.558505       -15.1977
  43   2.0000      -0.556968       -15.1559
  44   2.0000      -0.534367       -14.5409
  45   2.0000      -0.532473       -14.4893
  46   2.0000      -0.519067       -14.1245
  47   2.0000      -0.512552       -13.9472
  48   2.0000      -0.502763       -13.6809
  49   2.0000      -0.493731       -13.4351
  50   2.0000      -0.484792       -13.1919
  51   2.0000      -0.481469       -13.1014
  52   2.0000      -0.467722       -12.7274
  53   2.0000      -0.463630       -12.6160
  54   2.0000      -0.457953       -12.4615
  55   2.0000      -0.452292       -12.3075
  56   2.0000      -0.448407       -12.2018
  57   2.0000      -0.441232       -12.0065
  58   2.0000      -0.438378       -11.9289
  59   2.0000      -0.427407       -11.6303
  60   2.0000      -0.418811       -11.3964
  61   2.0000      -0.411641       -11.2013
  62   2.0000      -0.407198       -11.0804
  63   2.0000      -0.348542        -9.4843
  64   2.0000      -0.329863        -8.9760
  65   2.0000      -0.323890        -8.8135
  66   2.0000      -0.294145        -8.0041
  67   0.0000       0.025037         0.6813
  68   0.0000       0.075389         2.0514
  69   0.0000       0.110337         3.0024
  70   0.0000       0.111348         3.0299
  71   0.0000       0.123478         3.3600

MULLIKEN ATOMIC CHARGES
-----------------------
   0 S :    0.098329
   1 C :   -0.129226
   2 C :   -0.151962
   3 C :    0.048362
   4 C :   -0.147410
   5 H :   -0.000152
   6 C :    0.132375
   7 H :    0.048768
   8 H :    0.011106
   9 C :   -0.104680
  10 H :    0.049598
  11 H :    0.035924
  12 C :   -0.068710
  13 H :    0.040945
  14 H :    0.020157
  15 H :    0.024953
  16 S :    0.106662
  17 C :   -0.066613
  18 C :   -0.031749
  19 C :   -0.032784
  20 C :   -0.171857
  21 H :    0.026195
  22 C :    0.164253
  23 H :   -0.009894
  24 H :    0.008312
  25 C :   -0.132148
  26 H :    0.021851
  27 H :    0.045479
  28 C :   -0.001537
  29 H :    0.020173
  30 H :    0.027795
  31 H :    0.016959
  32 H :    0.062147
  33 H :    0.038376
Sum of atomic charges:    0.0000000

LOEWDIN ATOMIC CHARGES
----------------------
   0 S :    0.381712
   1 C :   -0.206190
   2 C :   -0.062776
   3 C :   -0.067618
   4 C :   -0.184334
   5 H :    0.025682
   6 C :   -0.022812
   7 H :    0.035159
   8 H :    0.026766
   9 C :   -0.046453
  10 H :    0.035243
  11 H :    0.022309
  12 C :   -0.076186
  13 H :    0.027272
  14 H :    0.023057
  15 H :    0.025717
  16 S :    0.390399
  17 C :   -0.162801
  18 C :   -0.065284
  19 C :   -0.041234
  20 C :   -0.196400
  21 H :    0.035099
  22 C :   -0.016572
  23 H :    0.011680
  24 H :    0.029318
  25 C :   -0.036196
  26 H :    0.016841
  27 H :    0.034650
  28 C :   -0.060870
  29 H :    0.022694
  30 H :    0.029823
  31 H :    0.016308
  32 H :    0.038263
  33 H :    0.017734

  Mayer bond orders larger than 0.100000
B(  0-S ,  1-C ) :   1.1171 B(  0-S ,  4-C ) :   1.1260 B(  1-C ,  2-C ) :   1.6591
B(  1-C , 32-H ) :   0.9625 B(  2-C ,  3-C ) :   1.1906 B(  2-C ,  6-C ) :   0.9988
B(  3-C ,  4-C ) :   1.6407 B(  3-C ,  5-H ) :   0.9988 B(  4-C , 20-C ) :   1.0335
B(  6-C ,  7-H ) :   0.9418 B(  6-C ,  8-H ) :   0.9427 B(  6-C ,  9-C ) :   1.0654
B(  9-C , 10-H ) :   0.9590 B(  9-C , 11-H ) :   0.9608 B(  9-C , 12-C ) :   1.0545
B( 12-C , 13-H ) :   0.9739 B( 12-C , 14-H ) :   0.9758 B( 12-C , 15-H ) :   0.9785
B( 16-S , 17-C ) :   1.1222 B( 16-S , 20-C ) :   1.1549 B( 17-C , 18-C ) :   1.6494
B( 17-C , 20-C ) :   0.1023 B( 17-C , 33-H ) :   0.9720 B( 18-C , 19-C ) :   1.2110
B( 18-C , 21-H ) :   0.9820 B( 19-C , 20-C ) :   1.5772 B( 19-C , 22-C ) :   1.0528
B( 22-C , 23-H ) :   0.9296 B( 22-C , 24-H ) :   0.9287 B( 22-C , 25-C ) :   1.0563
B( 25-C , 26-H ) :   0.9572 B( 25-C , 27-H ) :   0.9514 B( 25-C , 28-C ) :   1.0923
B( 28-C , 29-H ) :   0.9715 B( 28-C , 30-H ) :   0.9694 B( 28-C , 31-H ) :   0.9733

Dispersion correction           -0.014587777
FINAL SINGLE POINT ENERGY     -1339.847636555078

DIPOLE MOMENT
-------------
                                X             Y             Z
Electronic contribution:      6.30389     -21.67875      14.83104
Nuclear contribution   :     -6.45539      22.32278     -15.02955
                        -----------------------------------------
Total Dipole Moment    :     -0.15150       0.64402      -0.19850
                        -----------------------------------------
Magnitude (a.u.)       :      0.69074
Magnitude (Debye)      :      1.75572

Rotational constants in cm-1:     0.015997     0.009807     0.007447
Rotational constants in MHz :   479.578342   294.005084   223.246633

                             ****ORCA TERMINATED NORMALLY****
TOTAL RUN TIME: 0 days 0 hours 0 minutes 22 seconds 17 msec
