                         Program Version 4.2.1 -  RELEASE  -
|  1> ! wB97X-D3 SP def2-SVP
|  2> %pal
|  3> nprocs 24
|  4> end
|  5>
|  6> * xyz 0 1
|  7> S 	 -109.907 	 -0.627123 	 -108.844
|  8> C 	 -109.652 	 1.06199 	 -108.443
|  9> C 	 -108.459 	 1.52977 	 -108.95
| 10> C 	 -107.728 	 0.557378 	 -109.732
| 11> C 	 -108.29 	 -0.721789 	 -109.596
| 12> H 	 -106.904 	 0.78738 	 -110.316
| 13> C 	 -107.994 	 2.96784 	 -108.83
| 14> H 	 -106.928 	 3.01072 	 -108.466
| 15> H 	 -108.549 	 3.28514 	 -107.92
| 16> C 	 -108.144 	 3.9397 	 -110.023
| 17> H 	 -108.03 	 5.00698 	 -109.653
| 18> H 	 -107.292 	 3.68377 	 -110.628
| 19> C 	 -109.513 	 3.86195 	 -110.789
| 20> H 	 -109.396 	 4.32002 	 -111.746
| 21> H 	 -109.927 	 2.87381 	 -111.186
| 22> H 	 -110.316 	 4.35263 	 -110.197
| 23> S 	 -106.183 	 -2.4595 	 -109.507
| 24> C 	 -105.959 	 -3.60029 	 -110.816
| 25> C 	 -107.099 	 -3.68628 	 -111.575
| 26> C 	 -108.159 	 -2.76669 	 -111.19
| 27> C 	 -107.756 	 -1.92694 	 -110.11
| 28> H 	 -107.172 	 -4.34714 	 -112.422
| 29> C 	 -109.402 	 -2.6888 	 -112.047
| 30> H 	 -110.342 	 -2.39727 	 -111.505
| 31> H 	 -109.652 	 -3.58136 	 -112.527
| 32> C 	 -109.242 	 -1.64756 	 -113.151
| 33> H 	 -109.915 	 -1.97242 	 -113.969
| 34> H 	 -108.231 	 -1.53716 	 -113.552
| 35> C 	 -109.817 	 -0.188437 	 -112.821
| 36> H 	 -109.658 	 0.555239 	 -113.619
| 37> H 	 -109.176 	 0.261764 	 -112.098
| 38> H 	 -110.858 	 -0.201441 	 -112.495
| 39> H 	 -110.295 	 1.63594 	 -107.857
| 40> H 	 -105.18 	 -4.1817 	 -111.081
| 41> *
| 42>
| 43>                          ****END OF INPUT****

CARTESIAN COORDINATES (ANGSTROEM)
---------------------------------
  S    -109.907000   -0.627123  -108.844000
  C    -109.652000    1.061990  -108.443000
  C    -108.459000    1.529770  -108.950000
  C    -107.728000    0.557378  -109.732000
  C    -108.290000   -0.721789  -109.596000
  H    -106.904000    0.787380  -110.316000
  C    -107.994000    2.967840  -108.830000
  H    -106.928000    3.010720  -108.466000
  H    -108.549000    3.285140  -107.920000
  C    -108.144000    3.939700  -110.023000
  H    -108.030000    5.006980  -109.653000
  H    -107.292000    3.683770  -110.628000
  C    -109.513000    3.861950  -110.789000
  H    -109.396000    4.320020  -111.746000
  H    -109.927000    2.873810  -111.186000
  H    -110.316000    4.352630  -110.197000
  S    -106.183000   -2.459500  -109.507000
  C    -105.959000   -3.600290  -110.816000
  C    -107.099000   -3.686280  -111.575000
  C    -108.159000   -2.766690  -111.190000
  C    -107.756000   -1.926940  -110.110000
  H    -107.172000   -4.347140  -112.422000
  C    -109.402000   -2.688800  -112.047000
  H    -110.342000   -2.397270  -111.505000
  H    -109.652000   -3.581360  -112.527000
  C    -109.242000   -1.647560  -113.151000
  H    -109.915000   -1.972420  -113.969000
  H    -108.231000   -1.537160  -113.552000
  C    -109.817000   -0.188437  -112.821000
  H    -109.658000    0.555239  -113.619000
  H    -109.176000    0.261764  -112.098000
  H    -110.858000   -0.201441  -112.495000
  H    -110.295000    1.635940  -107.857000
  H    -105.180000   -4.181700  -111.081000

 Total Charge           Charge          ....    0
 Multiplicity           Mult            ....    1
 Number of Electrons    NEL             ....  134
 Basis Dimension        Dim             ....  322

ORBITAL ENERGIES
----------------

  NO   OCC          E(Eh)            E(eV)
   0   2.0000     -88.966961     -2420.9141
   1   2.0000     -88.966721     -2420.9076
   2   2.0000     -10.331883      -281.1448
   3   2.0000     -10.327456      -281.0244
   4   2.0000     -10.311544      -280.5914
   5   2.0000     -10.310196      -280.5547
   6   2.0000     -10.309611      -280.5388
   7   2.0000     -10.300392      -280.2879
   8   2.0000     -10.298478      -280.2358
   9   2.0000     -10.295042      -280.1423
  10   2.0000     -10.294664      -280.1321
  11   2.0000     -10.292659      -280.0775
  12   2.0000     -10.289982      -280.0046
  13   2.0000     -10.287509      -279.9373
  14   2.0000     -10.283695      -279.8336
  15   2.0000     -10.271710      -279.5074
  16   2.0000      -8.081059      -219.8968
  17   2.0000      -8.080681      -219.8865
  18   2.0000      -6.039674      -164.3479
  19   2.0000      -6.039255      -164.3365
  20   2.0000      -6.035547      -164.2356
  21   2.0000      -6.035353      -164.2303
  22   2.0000      -6.031829      -164.1344
  23   2.0000      -6.031362      -164.1217
  24   2.0000      -1.001426       -27.2502
  25   2.0000      -0.978247       -26.6195
  26   2.0000      -0.905456       -24.6387
  27   2.0000      -0.904116       -24.6022
  28   2.0000      -0.872144       -23.7322
  29   2.0000      -0.843628       -22.9563
  30   2.0000      -0.836779       -22.7699
  31   2.0000      -0.814390       -22.1607
  32   2.0000      -0.783103       -21.3093
  33   2.0000      -0.772469       -21.0200
  34   2.0000      -0.716983       -19.5101
  35   2.0000      -0.697244       -18.9730
  36   2.0000      -0.688852       -18.7446
  37   2.0000      -0.662154       -18.0181
  38   2.0000      -0.644168       -17.5287
  39   2.0000      -0.616666       -16.7803
  40   2.0000      -0.600841       -16.3497
  41   2.0000      -0.565633       -15.3916
  42   2.0000      -0.556461       -15.1421
  43   2.0000      -0.546795       -14.8791
  44   2.0000      -0.537488       -14.6258
  45   2.0000      -0.533121       -14.5070
  46   2.0000      -0.516496       -14.0546
  47   2.0000      -0.510663       -13.8958
  48   2.0000      -0.508612       -13.8400
  49   2.0000      -0.495046       -13.4709
  50   2.0000      -0.489326       -13.3152
  51   2.0000      -0.473578       -12.8867
  52   2.0000      -0.470405       -12.8004
  53   2.0000      -0.462431       -12.5834
  54   2.0000      -0.457798       -12.4573
  55   2.0000      -0.447552       -12.1785
  56   2.0000      -0.443286       -12.0624
  57   2.0000      -0.432059       -11.7569
  58   2.0000      -0.424977       -11.5642
  59   2.0000      -0.422151       -11.4873
  60   2.0000      -0.420816       -11.4510
  61   2.0000      -0.413413       -11.2495
  62   2.0000      -0.403011       -10.9665
  63   2.0000      -0.338186        -9.2025
  64   2.0000      -0.332558        -9.0494
  65   2.0000      -0.325406        -8.8548
  66   2.0000      -0.292674        -7.9641
  67   0.0000       0.025942         0.7059
  68   0.0000       0.063420         1.7258
  69   0.0000       0.107636         2.9289
  70   0.0000       0.113281         3.0825
  71   0.0000       0.124189         3.3793

MULLIKEN ATOMIC CHARGES
-----------------------
   0 S :    0.110646
   1 C :   -0.087898
   2 C :   -0.098936
   3 C :    0.078529
   4 C :   -0.174164
   5 H :   -0.005360
   6 C :    0.028784
   7 H :    0.038533
   8 H :    0.014061
   9 C :   -0.054880
  10 H :    0.049454
  11 H :    0.029296
  12 C :   -0.081182
  13 H :    0.025807
  14 H :    0.049033
  15 H :    0.043199
  16 S :    0.121898
  17 C :   -0.031262
  18 C :   -0.047086
  19 C :   -0.015318
  20 C :   -0.177864
  21 H :    0.014976
  22 C :    0.112604
  23 H :    0.027286
  24 H :    0.007162
  25 C :   -0.099281
  26 H :    0.027750
  27 H :    0.034641
  28 C :   -0.057751
  29 H :    0.024424
  30 H :    0.021751
  31 H :    0.040122
  32 H :    0.021958
  33 H :    0.009066
Sum of atomic charges:   -0.0000000

LOEWDIN ATOMIC CHARGES
----------------------
   0 S :    0.392763
   1 C :   -0.181952
   2 C :   -0.061565
   3 C :   -0.041419
   4 C :   -0.184568
   5 H :    0.020343
   6 C :   -0.045686
   7 H :    0.035937
   8 H :    0.028210
   9 C :   -0.039317
  10 H :    0.038714
  11 H :    0.020923
  12 C :   -0.081396
  13 H :    0.022890
  14 H :    0.036321
  15 H :    0.029479
  16 S :    0.410543
  17 C :   -0.172677
  18 C :   -0.066405
  19 C :   -0.043524
  20 C :   -0.206117
  21 H :    0.028188
  22 C :   -0.034321
  23 H :    0.036318
  24 H :    0.024163
  25 C :   -0.035534
  26 H :    0.023739
  27 H :    0.024107
  28 C :   -0.073423
  29 H :    0.026663
  30 H :    0.018159
  31 H :    0.023924
  32 H :    0.015728
  33 H :    0.010791

  Mayer bond orders larger than 0.100000
B(  0-S ,  1-C ) :   1.1286 B(  0-S ,  4-C ) :   1.1363 B(  1-C ,  2-C ) :   1.6200
B(  1-C , 32-H ) :   0.9735 B(  2-C ,  3-C ) :   1.2199 B(  2-C ,  6-C ) :   1.0294
B(  3-C ,  4-C ) :   1.5603 B(  3-C ,  5-H ) :   1.0046 B(  4-C , 20-C ) :   1.0819
B(  6-C ,  7-H ) :   0.9437 B(  6-C ,  8-H ) :   0.9382 B(  6-C ,  9-C ) :   1.0527
B(  9-C , 10-H ) :   0.9548 B(  9-C , 11-H ) :   0.9582 B(  9-C , 12-C ) :   1.0707
B( 12-C , 13-H ) :   0.9728 B( 12-C , 14-H ) :   0.9701 B( 12-C , 15-H ) :   0.9772
B( 16-S , 17-C ) :   1.1430 B( 16-S , 20-C ) :   1.1410 B( 17-C , 18-C ) :   1.6174
B( 17-C , 33-H ) :   0.9772 B( 18-C , 19-C ) :   1.2490 B( 18-C , 21-H ) :   0.9857
B( 19-C , 20-C ) :   1.5466 B( 19-C , 22-C ) :   1.0637 B( 22-C , 23-H ) :   0.9325
B( 22-C , 24-H ) :   0.9308 B( 22-C , 25-C ) :   1.0513 B( 25-C , 26-H ) :   0.9600
B( 25-C , 27-H ) :   0.9584 B( 25-C , 28-C ) :   1.0808 B( 28-C , 29-H ) :   0.9705
B( 28-C , 30-H ) :   0.9737 B( 28-C , 31-H ) :   0.9754

Dispersion correction           -0.016676648
FINAL SINGLE POINT ENERGY     -1339.858588211065

DIPOLE MOMENT
-------------
                                X             Y             Z
Electronic contribution:      7.64526     -19.12331      15.06425
Nuclear contribution   :     -7.62503      19.46786     -15.56956
                        -----------------------------------------
Total Dipole Moment    :      0.02023       0.34455      -0.50531
                        -----------------------------------------
Magnitude (a.u.)       :      0.61193
Magnitude (Debye)      :      1.55541

Rotational constants in cm-1:     0.020828     0.009163     0.008016
Rotational constants in MHz :   624.404323   274.692382   240.308144

                             ****ORCA TERMINATED NORMALLY****
TOTAL RUN TIME: 0 days 0 hours 0 minutes 23 seconds 963 msec
