                         Program Version 4.2.1 -  RELEASE  -
|  1> ! wB97X-D3 SP def2-SVP
|  2> %pal
|  3> nprocs 24
|  4> end
|  5>
|  6> * xyz 0 1
|  7> S 	 -23.1776 	 -32.1488 	 -95.4741
|  8> C 	 -22.5079 	 -33.131 	 -96.729
|  9> C 	 -21.498 	 -32.5255 	 -97.4991
| 10> C 	 -21.5 	 -31.0983 	 -97.1858
| 11> C 	 -22.4065 	 -30.7471 	 -96.2017
| 12> H 	 -20.9102 	 -30.4121 	 -97.6881
| 13> C 	 -20.6278 	 -33.145 	 -98.5542
| 14> H 	 -21.001 	 -32.9911 	 -99.4974
| 15> H 	 -20.7709 	 -34.186 	 -98.3818
| 16> C 	 -19.229 	 -32.713 	 -98.5904
| 17> H 	 -19.1752 	 -31.6085 	 -98.798
| 18> H 	 -18.6877 	 -32.8086 	 -97.6521
| 19> C 	 -18.3424 	 -33.4472 	 -99.5785
| 20> H 	 -18.7636 	 -33.3481 	 -100.597
| 21> H 	 -17.384 	 -33.0105 	 -99.55
| 22> H 	 -18.3349 	 -34.5272 	 -99.4902
| 23> S 	 -24.3576 	 -28.936 	 -95.8553
| 24> C 	 -23.9862 	 -27.3617 	 -95.3321
| 25> C 	 -22.6736 	 -27.1562 	 -95.1849
| 26> C 	 -21.8619 	 -28.2974 	 -95.5836
| 27> C 	 -22.6955 	 -29.3797 	 -95.8355
| 28> H 	 -22.3036 	 -26.1575 	 -95.0053
| 29> C 	 -20.3511 	 -28.2443 	 -95.7197
| 30> H 	 -20.1183 	 -29.3294 	 -95.5961
| 31> H 	 -20.0068 	 -27.6387 	 -94.8586
| 32> C 	 -19.7393 	 -27.594 	 -96.9345
| 33> H 	 -20.014 	 -26.5527 	 -96.9874
| 34> H 	 -20.2433 	 -28.0799 	 -97.8234
| 35> C 	 -18.2291 	 -27.66 	 -96.9738
| 36> H 	 -17.7914 	 -27.1867 	 -97.7715
| 37> H 	 -17.865 	 -28.7021 	 -96.9599
| 38> H 	 -17.7893 	 -27.2666 	 -96.0383
| 39> H 	 -22.5924 	 -34.2072 	 -96.6166
| 40> H 	 -24.6709 	 -26.5739 	 -95.13
| 41> *
| 42>
| 43>                          ****END OF INPUT****

CARTESIAN COORDINATES (ANGSTROEM)
---------------------------------
  S    -23.177600  -32.148800  -95.474100
  C    -22.507900  -33.131000  -96.729000
  C    -21.498000  -32.525500  -97.499100
  C    -21.500000  -31.098300  -97.185800
  C    -22.406500  -30.747100  -96.201700
  H    -20.910200  -30.412100  -97.688100
  C    -20.627800  -33.145000  -98.554200
  H    -21.001000  -32.991100  -99.497400
  H    -20.770900  -34.186000  -98.381800
  C    -19.229000  -32.713000  -98.590400
  H    -19.175200  -31.608500  -98.798000
  H    -18.687700  -32.808600  -97.652100
  C    -18.342400  -33.447200  -99.578500
  H    -18.763600  -33.348100  -100.597000
  H    -17.384000  -33.010500  -99.550000
  H    -18.334900  -34.527200  -99.490200
  S    -24.357600  -28.936000  -95.855300
  C    -23.986200  -27.361700  -95.332100
  C    -22.673600  -27.156200  -95.184900
  C    -21.861900  -28.297400  -95.583600
  C    -22.695500  -29.379700  -95.835500
  H    -22.303600  -26.157500  -95.005300
  C    -20.351100  -28.244300  -95.719700
  H    -20.118300  -29.329400  -95.596100
  H    -20.006800  -27.638700  -94.858600
  C    -19.739300  -27.594000  -96.934500
  H    -20.014000  -26.552700  -96.987400
  H    -20.243300  -28.079900  -97.823400
  C    -18.229100  -27.660000  -96.973800
  H    -17.791400  -27.186700  -97.771500
  H    -17.865000  -28.702100  -96.959900
  H    -17.789300  -27.266600  -96.038300
  H    -22.592400  -34.207200  -96.616600
  H    -24.670900  -26.573900  -95.130000

 Total Charge           Charge          ....    0
 Multiplicity           Mult            ....    1
 Number of Electrons    NEL             ....  134
 Basis Dimension        Dim             ....  322

ORBITAL ENERGIES
----------------

  NO   OCC          E(Eh)            E(eV)
   0   2.0000     -88.968415     -2420.9537
   1   2.0000     -88.961201     -2420.7574
   2   2.0000     -10.326648      -281.0024
   3   2.0000     -10.319230      -280.8005
   4   2.0000     -10.312964      -280.6300
   5   2.0000     -10.305566      -280.4287
   6   2.0000     -10.303718      -280.3784
   7   2.0000     -10.301216      -280.3103
   8   2.0000     -10.292808      -280.0815
   9   2.0000     -10.290175      -280.0099
  10   2.0000     -10.289414      -279.9892
  11   2.0000     -10.286686      -279.9150
  12   2.0000     -10.285359      -279.8789
  13   2.0000     -10.281924      -279.7854
  14   2.0000     -10.276841      -279.6471
  15   2.0000     -10.275955      -279.6230
  16   2.0000      -8.083392      -219.9603
  17   2.0000      -8.077641      -219.8038
  18   2.0000      -6.041837      -164.4067
  19   2.0000      -6.038066      -164.3041
  20   2.0000      -6.036094      -164.2505
  21   2.0000      -6.034008      -164.1937
  22   2.0000      -6.031934      -164.1373
  23   2.0000      -6.028334      -164.0393
  24   2.0000      -1.011798       -27.5324
  25   2.0000      -0.986127       -26.8339
  26   2.0000      -0.926210       -25.2035
  27   2.0000      -0.914491       -24.8846
  28   2.0000      -0.873894       -23.7799
  29   2.0000      -0.856575       -23.3086
  30   2.0000      -0.850254       -23.1366
  31   2.0000      -0.818347       -22.2683
  32   2.0000      -0.788385       -21.4531
  33   2.0000      -0.774669       -21.0798
  34   2.0000      -0.712977       -19.4011
  35   2.0000      -0.700502       -19.0616
  36   2.0000      -0.689981       -18.7754
  37   2.0000      -0.662608       -18.0305
  38   2.0000      -0.641835       -17.4652
  39   2.0000      -0.626819       -17.0566
  40   2.0000      -0.594874       -16.1873
  41   2.0000      -0.582380       -15.8474
  42   2.0000      -0.569493       -15.4967
  43   2.0000      -0.560052       -15.2398
  44   2.0000      -0.539202       -14.6724
  45   2.0000      -0.531561       -14.4645
  46   2.0000      -0.520870       -14.1736
  47   2.0000      -0.517198       -14.0737
  48   2.0000      -0.504397       -13.7253
  49   2.0000      -0.495090       -13.4721
  50   2.0000      -0.488305       -13.2874
  51   2.0000      -0.483438       -13.1550
  52   2.0000      -0.472500       -12.8574
  53   2.0000      -0.468742       -12.7551
  54   2.0000      -0.464000       -12.6261
  55   2.0000      -0.453225       -12.3329
  56   2.0000      -0.447618       -12.1803
  57   2.0000      -0.445156       -12.1133
  58   2.0000      -0.437508       -11.9052
  59   2.0000      -0.427759       -11.6399
  60   2.0000      -0.421248       -11.4627
  61   2.0000      -0.414122       -11.2688
  62   2.0000      -0.412812       -11.2332
  63   2.0000      -0.350600        -9.5403
  64   2.0000      -0.329187        -8.9576
  65   2.0000      -0.325770        -8.8647
  66   2.0000      -0.290595        -7.9075
  67   0.0000       0.033710         0.9173
  68   0.0000       0.076814         2.0902
  69   0.0000       0.108352         2.9484
  70   0.0000       0.121072         3.2945
  71   0.0000       0.125882         3.4254

MULLIKEN ATOMIC CHARGES
-----------------------
   0 S :    0.127350
   1 C :   -0.128367
   2 C :   -0.102002
   3 C :    0.048474
   4 C :   -0.147336
   5 H :   -0.034207
   6 C :    0.172503
   7 H :    0.012648
   8 H :   -0.001152
   9 C :   -0.130876
  10 H :    0.035528
  11 H :    0.026937
  12 C :   -0.014795
  13 H :    0.015044
  14 H :    0.032361
  15 H :    0.027669
  16 S :    0.119633
  17 C :   -0.063646
  18 C :   -0.032828
  19 C :   -0.047112
  20 C :   -0.168669
  21 H :    0.010309
  22 C :    0.033467
  23 H :    0.038971
  24 H :    0.022551
  25 C :   -0.057440
  26 H :    0.020611
  27 H :    0.030684
  28 C :   -0.001501
  29 H :    0.022745
  30 H :    0.021136
  31 H :    0.022441
  32 H :    0.049317
  33 H :    0.039553
Sum of atomic charges:    0.0000000

LOEWDIN ATOMIC CHARGES
----------------------
   0 S :    0.412810
   1 C :   -0.208747
   2 C :   -0.047265
   3 C :   -0.049124
   4 C :   -0.193729
   5 H :    0.013110
   6 C :   -0.029158
   7 H :    0.026322
   8 H :    0.029733
   9 C :   -0.045096
  10 H :    0.029165
  11 H :    0.024230
  12 C :   -0.058188
  13 H :    0.024158
  14 H :    0.023611
  15 H :    0.024719
  16 S :    0.433701
  17 C :   -0.196367
  18 C :   -0.074267
  19 C :   -0.054523
  20 C :   -0.210340
  21 H :    0.028826
  22 C :   -0.039682
  23 H :    0.036778
  24 H :    0.032971
  25 C :   -0.043350
  26 H :    0.022989
  27 H :    0.025760
  28 C :   -0.058456
  29 H :    0.015136
  30 H :    0.027295
  31 H :    0.029303
  32 H :    0.021567
  33 H :    0.026108

  Mayer bond orders larger than 0.100000
B(  0-S ,  1-C ) :   1.1434 B(  0-S ,  4-C ) :   1.1500 B(  1-C ,  2-C ) :   1.6165
B(  1-C , 32-H ) :   0.9574 B(  2-C ,  3-C ) :   1.2261 B(  2-C ,  6-C ) :   1.0274
B(  3-C ,  4-C ) :   1.5699 B(  3-C ,  5-H ) :   1.0035 B(  4-C , 20-C ) :   1.0411
B(  6-C ,  7-H ) :   0.9211 B(  6-C ,  8-H ) :   0.9254 B(  6-C ,  9-C ) :   1.0724
B(  9-C , 10-H ) :   0.9432 B(  9-C , 11-H ) :   0.9567 B(  9-C , 12-C ) :   1.0972
B( 12-C , 13-H ) :   0.9694 B( 12-C , 14-H ) :   0.9725 B( 12-C , 15-H ) :   0.9732
B( 16-S , 17-C ) :   1.1452 B( 16-S , 20-C ) :   1.1543 B( 17-C , 18-C ) :   1.6465
B( 17-C , 33-H ) :   0.9650 B( 18-C , 19-C ) :   1.2228 B( 18-C , 21-H ) :   0.9869
B( 19-C , 20-C ) :   1.5990 B( 19-C , 22-C ) :   1.0476 B( 22-C , 23-H ) :   0.9289
B( 22-C , 24-H ) :   0.9242 B( 22-C , 25-C ) :   1.0747 B( 25-C , 26-H ) :   0.9469
B( 25-C , 27-H ) :   0.9478 B( 25-C , 28-C ) :   1.0871 B( 28-C , 29-H ) :   0.9738
B( 28-C , 30-H ) :   0.9721 B( 28-C , 31-H ) :   0.9686

Dispersion correction           -0.014153996
FINAL SINGLE POINT ENERGY     -1339.874054235092

DIPOLE MOMENT
-------------
                                X             Y             Z
Electronic contribution:    -29.80488      -0.24956      14.51447
Nuclear contribution   :     30.45772       0.39450     -14.87214
                        -----------------------------------------
Total Dipole Moment    :      0.65283       0.14494      -0.35767
                        -----------------------------------------
Magnitude (a.u.)       :      0.75837
Magnitude (Debye)      :      1.92763

Rotational constants in cm-1:     0.016789     0.009730     0.006553
Rotational constants in MHz :   503.336394   291.707970   196.465568

                             ****ORCA TERMINATED NORMALLY****
TOTAL RUN TIME: 0 days 0 hours 0 minutes 22 seconds 58 msec
