                         Program Version 4.2.1 -  RELEASE  -
|  1> ! wB97X-D3 SP def2-SVP
|  2> %pal
|  3> nprocs 24
|  4> end
|  5>
|  6> * xyz 0 1
|  7> S 	 -42.5124 	 18.7573 	 -101.125
|  8> C 	 -43.2556 	 19.58 	 -99.8006
|  9> C 	 -44.6402 	 19.5516 	 -99.855
| 10> C 	 -45.0704 	 18.7516 	 -100.951
| 11> C 	 -44.0036 	 18.1801 	 -101.675
| 12> H 	 -46.0701 	 18.4857 	 -101.196
| 13> C 	 -45.5601 	 20.2479 	 -98.9246
| 14> H 	 -46.4716 	 20.6004 	 -99.5179
| 15> H 	 -45.0854 	 21.1686 	 -98.6407
| 16> C 	 -46.0176 	 19.443 	 -97.6648
| 17> H 	 -45.4027 	 18.5658 	 -97.4695
| 18> H 	 -46.0267 	 19.988 	 -96.7375
| 19> C 	 -47.4378 	 18.8646 	 -97.888
| 20> H 	 -48.2095 	 19.5241 	 -97.5673
| 21> H 	 -47.506 	 18.4497 	 -98.9237
| 22> H 	 -47.4461 	 18.0109 	 -97.2325
| 23> S 	 -43.6248 	 17.8438 	 -104.371
| 24> C 	 -43.8203 	 16.3181 	 -105.155
| 25> C 	 -44.3587 	 15.4338 	 -104.242
| 26> C 	 -44.6026 	 16.0184 	 -102.92
| 27> C 	 -44.1793 	 17.305 	 -102.808
| 28> H 	 -44.3638 	 14.3674 	 -104.48
| 29> C 	 -44.9818 	 15.0866 	 -101.738
| 30> H 	 -45.9372 	 14.6609 	 -102.004
| 31> H 	 -45.3168 	 15.6166 	 -100.832
| 32> C 	 -44.1525 	 13.8697 	 -101.497
| 33> H 	 -44.0936 	 13.2648 	 -102.396
| 34> H 	 -44.7591 	 13.2036 	 -100.777
| 35> C 	 -42.7063 	 14.2355 	 -101.09
| 36> H 	 -42.6259 	 14.2275 	 -100.044
| 37> H 	 -42.3459 	 15.2245 	 -101.451
| 38> H 	 -41.9637 	 13.6222 	 -101.53
| 39> H 	 -42.7504 	 20.2176 	 -99.1062
| 40> H 	 -43.5193 	 16.0815 	 -106.168
| 41> *
| 42>
| 43>                          ****END OF INPUT****

CARTESIAN COORDINATES (ANGSTROEM)
---------------------------------
  S    -42.512400   18.757300  -101.125000
  C    -43.255600   19.580000  -99.800600
  C    -44.640200   19.551600  -99.855000
  C    -45.070400   18.751600  -100.951000
  C    -44.003600   18.180100  -101.675000
  H    -46.070100   18.485700  -101.196000
  C    -45.560100   20.247900  -98.924600
  H    -46.471600   20.600400  -99.517900
  H    -45.085400   21.168600  -98.640700
  C    -46.017600   19.443000  -97.664800
  H    -45.402700   18.565800  -97.469500
  H    -46.026700   19.988000  -96.737500
  C    -47.437800   18.864600  -97.888000
  H    -48.209500   19.524100  -97.567300
  H    -47.506000   18.449700  -98.923700
  H    -47.446100   18.010900  -97.232500
  S    -43.624800   17.843800  -104.371000
  C    -43.820300   16.318100  -105.155000
  C    -44.358700   15.433800  -104.242000
  C    -44.602600   16.018400  -102.920000
  C    -44.179300   17.305000  -102.808000
  H    -44.363800   14.367400  -104.480000
  C    -44.981800   15.086600  -101.738000
  H    -45.937200   14.660900  -102.004000
  H    -45.316800   15.616600  -100.832000
  C    -44.152500   13.869700  -101.497000
  H    -44.093600   13.264800  -102.396000
  H    -44.759100   13.203600  -100.777000
  C    -42.706300   14.235500  -101.090000
  H    -42.625900   14.227500  -100.044000
  H    -42.345900   15.224500  -101.451000
  H    -41.963700   13.622200  -101.530000
  H    -42.750400   20.217600  -99.106200
  H    -43.519300   16.081500  -106.168000

 Total Charge           Charge          ....    0
 Multiplicity           Mult            ....    1
 Number of Electrons    NEL             ....  134
 Basis Dimension        Dim             ....  322

ORBITAL ENERGIES
----------------

  NO   OCC          E(Eh)            E(eV)
   0   2.0000     -88.971804     -2421.0459
   1   2.0000     -88.958286     -2420.6780
   2   2.0000     -10.325403      -280.9685
   3   2.0000     -10.322625      -280.8929
   4   2.0000     -10.317561      -280.7551
   5   2.0000     -10.310195      -280.5547
   6   2.0000     -10.305207      -280.4189
   7   2.0000     -10.299207      -280.2557
   8   2.0000     -10.296203      -280.1739
   9   2.0000     -10.294512      -280.1279
  10   2.0000     -10.292003      -280.0597
  11   2.0000     -10.289637      -279.9953
  12   2.0000     -10.286666      -279.9144
  13   2.0000     -10.286252      -279.9032
  14   2.0000     -10.276098      -279.6268
  15   2.0000     -10.264536      -279.3122
  16   2.0000      -8.087415      -220.0697
  17   2.0000      -8.074029      -219.7055
  18   2.0000      -6.045683      -164.5114
  19   2.0000      -6.041679      -164.4024
  20   2.0000      -6.038499      -164.3159
  21   2.0000      -6.032612      -164.1557
  22   2.0000      -6.028223      -164.0363
  23   2.0000      -6.024804      -163.9432
  24   2.0000      -1.013670       -27.5834
  25   2.0000      -0.989409       -26.9232
  26   2.0000      -0.912948       -24.8426
  27   2.0000      -0.908232       -24.7143
  28   2.0000      -0.872692       -23.7472
  29   2.0000      -0.853854       -23.2346
  30   2.0000      -0.837511       -22.7898
  31   2.0000      -0.814362       -22.1599
  32   2.0000      -0.785036       -21.3619
  33   2.0000      -0.776365       -21.1260
  34   2.0000      -0.705178       -19.1889
  35   2.0000      -0.702175       -19.1071
  36   2.0000      -0.693297       -18.8656
  37   2.0000      -0.656700       -17.8697
  38   2.0000      -0.645184       -17.5564
  39   2.0000      -0.617405       -16.8004
  40   2.0000      -0.599311       -16.3081
  41   2.0000      -0.574032       -15.6202
  42   2.0000      -0.558130       -15.1875
  43   2.0000      -0.547347       -14.8941
  44   2.0000      -0.540363       -14.7040
  45   2.0000      -0.532247       -14.4832
  46   2.0000      -0.523102       -14.2343
  47   2.0000      -0.512325       -13.9411
  48   2.0000      -0.506430       -13.7807
  49   2.0000      -0.497302       -13.5323
  50   2.0000      -0.495162       -13.4740
  51   2.0000      -0.477259       -12.9869
  52   2.0000      -0.468949       -12.7608
  53   2.0000      -0.467050       -12.7091
  54   2.0000      -0.462978       -12.5983
  55   2.0000      -0.445316       -12.1177
  56   2.0000      -0.441556       -12.0154
  57   2.0000      -0.438063       -11.9203
  58   2.0000      -0.428506       -11.6602
  59   2.0000      -0.426176       -11.5968
  60   2.0000      -0.415824       -11.3151
  61   2.0000      -0.409799       -11.1512
  62   2.0000      -0.405382       -11.0310
  63   2.0000      -0.339159        -9.2290
  64   2.0000      -0.334550        -9.1036
  65   2.0000      -0.323808        -8.8113
  66   2.0000      -0.302134        -8.2215
  67   0.0000       0.036985         1.0064
  68   0.0000       0.068550         1.8653
  69   0.0000       0.117269         3.1911
  70   0.0000       0.124137         3.3780
  71   0.0000       0.131899         3.5892

MULLIKEN ATOMIC CHARGES
-----------------------
   0 S :    0.147721
   1 C :   -0.108016
   2 C :   -0.084740
   3 C :    0.047562
   4 C :   -0.168031
   5 H :   -0.000642
   6 C :    0.050366
   7 H :    0.043867
   8 H :    0.015112
   9 C :   -0.058877
  10 H :    0.034961
  11 H :    0.026845
  12 C :   -0.059425
  13 H :    0.040943
  14 H :    0.037854
  15 H :    0.018584
  16 S :    0.092354
  17 C :   -0.092615
  18 C :   -0.054004
  19 C :   -0.028205
  20 C :   -0.169696
  21 H :    0.029672
  22 C :    0.083786
  23 H :    0.006904
  24 H :    0.023169
  25 C :   -0.091257
  26 H :    0.019295
  27 H :    0.041249
  28 C :   -0.009560
  29 H :    0.025037
  30 H :    0.027995
  31 H :    0.015186
  32 H :    0.033356
  33 H :    0.063249
Sum of atomic charges:    0.0000000

LOEWDIN ATOMIC CHARGES
----------------------
   0 S :    0.457045
   1 C :   -0.204214
   2 C :   -0.063341
   3 C :   -0.053013
   4 C :   -0.220199
   5 H :    0.023812
   6 C :   -0.037130
   7 H :    0.041637
   8 H :    0.027138
   9 C :   -0.036546
  10 H :    0.026216
  11 H :    0.022241
  12 C :   -0.062933
  13 H :    0.020680
  14 H :    0.028262
  15 H :    0.022806
  16 S :    0.406000
  17 C :   -0.189025
  18 C :   -0.077442
  19 C :   -0.055000
  20 C :   -0.204947
  21 H :    0.031597
  22 C :   -0.039445
  23 H :    0.030268
  24 H :    0.031007
  25 C :   -0.043841
  26 H :    0.018870
  27 H :    0.036516
  28 C :   -0.064686
  29 H :    0.019824
  30 H :    0.031220
  31 H :    0.020091
  32 H :    0.022862
  33 H :    0.033670

  Mayer bond orders larger than 0.100000
B(  0-S ,  1-C ) :   1.1600 B(  0-S ,  4-C ) :   1.1857 B(  1-C ,  2-C ) :   1.5780
B(  1-C , 32-H ) :   0.9683 B(  2-C ,  3-C ) :   1.2692 B(  2-C ,  6-C ) :   1.0393
B(  3-C ,  4-C ) :   1.5265 B(  3-C ,  5-H ) :   1.0012 B(  4-C , 20-C ) :   1.0285
B(  6-C ,  7-H ) :   0.9509 B(  6-C ,  8-H ) :   0.9341 B(  6-C ,  9-C ) :   1.0309
B(  9-C , 10-H ) :   0.9697 B(  9-C , 11-H ) :   0.9588 B(  9-C , 12-C ) :   1.0767
B( 12-C , 13-H ) :   0.9786 B( 12-C , 14-H ) :   0.9762 B( 12-C , 15-H ) :   0.9767
B( 16-S , 17-C ) :   1.1547 B( 16-S , 20-C ) :   1.1353 B( 17-C , 18-C ) :   1.6193
B( 17-C , 33-H ) :   0.9704 B( 18-C , 19-C ) :   1.2128 B( 18-C , 21-H ) :   0.9873
B( 19-C , 20-C ) :   1.6298 B( 19-C , 22-C ) :   1.0433 B( 22-C , 23-H ) :   0.9165
B( 22-C , 24-H ) :   0.9380 B( 22-C , 25-C ) :   1.0910 B( 25-C , 26-H ) :   0.9540
B( 25-C , 27-H ) :   0.9539 B( 25-C , 28-C ) :   1.0541 B( 28-C , 29-H ) :   0.9778
B( 28-C , 30-H ) :   0.9758 B( 28-C , 31-H ) :   0.9763

Dispersion correction           -0.014985653
FINAL SINGLE POINT ENERGY     -1339.870943995226

DIPOLE MOMENT
-------------
                                X             Y             Z
Electronic contribution:     12.30626      10.01896     -19.36818
Nuclear contribution   :    -12.55019     -10.25035      19.79813
                        -----------------------------------------
Total Dipole Moment    :     -0.24393      -0.23139       0.42996
                        -----------------------------------------
Magnitude (a.u.)       :      0.54581
Magnitude (Debye)      :      1.38733

Rotational constants in cm-1:     0.019893     0.008603     0.007481
Rotational constants in MHz :   596.390738   257.914552   224.283222

                             ****ORCA TERMINATED NORMALLY****
TOTAL RUN TIME: 0 days 0 hours 0 minutes 22 seconds 139 msec
