                         Program Version 4.2.1 -  RELEASE  -
|  1> ! wB97X-D3 SP def2-SVP
|  2> %pal
|  3> nprocs 24
|  4> end
|  5>
|  6> * xyz 0 1
|  7> S 	 -93.2517 	 -30.2194 	 -64.7001
|  8> C 	 -94.4842 	 -31.2492 	 -65.2278
|  9> C 	 -95.2338 	 -31.8054 	 -64.2079
| 10> C 	 -94.7552 	 -31.4408 	 -62.9501
| 11> C 	 -93.7407 	 -30.4533 	 -62.9918
| 12> H 	 -95.1695 	 -31.7737 	 -61.9927
| 13> C 	 -96.4296 	 -32.6655 	 -64.4218
| 14> H 	 -96.5171 	 -33.2376 	 -63.4997
| 15> H 	 -96.1987 	 -33.46 	 -65.1394
| 16> C 	 -97.8038 	 -32.0805 	 -64.7518
| 17> H 	 -97.6772 	 -31.489 	 -65.6066
| 18> H 	 -98.5245 	 -32.8454 	 -65.0896
| 19> C 	 -98.3281 	 -31.3085 	 -63.5679
| 20> H 	 -98.2492 	 -31.9499 	 -62.7048
| 21> H 	 -97.7121 	 -30.4271 	 -63.3011
| 22> H 	 -99.3386 	 -30.9378 	 -63.7891
| 23> S 	 -91.292 	 -30.2196 	 -61.6869
| 24> C 	 -91.24 	 -29.311 	 -60.1391
| 25> C 	 -92.5233 	 -28.9087 	 -59.7394
| 26> C 	 -93.537 	 -29.3068 	 -60.6496
| 27> C 	 -93.0385 	 -29.901 	 -61.8364
| 28> H 	 -92.6802 	 -28.305 	 -58.8482
| 29> C 	 -94.9149 	 -28.8264 	 -60.499
| 30> H 	 -95.3732 	 -28.7769 	 -61.5546
| 31> H 	 -94.9692 	 -27.7883 	 -60.1807
| 32> C 	 -95.8587 	 -29.5764 	 -59.5634
| 33> H 	 -95.6946 	 -29.0744 	 -58.6218
| 34> H 	 -95.6038 	 -30.6739 	 -59.5674
| 35> C 	 -97.3694 	 -29.5757 	 -59.9882
| 36> H 	 -97.6479 	 -30.1962 	 -60.8353
| 37> H 	 -97.6605 	 -28.554 	 -60.2108
| 38> H 	 -98.1111 	 -29.7537 	 -59.2174
| 39> H 	 -94.7898 	 -31.3333 	 -66.1968
| 40> H 	 -90.4457 	 -29.3159 	 -59.3884
| 41> *
| 42>
| 43>                          ****END OF INPUT****

CARTESIAN COORDINATES (ANGSTROEM)
---------------------------------
  S    -93.251700  -30.219400  -64.700100
  C    -94.484200  -31.249200  -65.227800
  C    -95.233800  -31.805400  -64.207900
  C    -94.755200  -31.440800  -62.950100
  C    -93.740700  -30.453300  -62.991800
  H    -95.169500  -31.773700  -61.992700
  C    -96.429600  -32.665500  -64.421800
  H    -96.517100  -33.237600  -63.499700
  H    -96.198700  -33.460000  -65.139400
  C    -97.803800  -32.080500  -64.751800
  H    -97.677200  -31.489000  -65.606600
  H    -98.524500  -32.845400  -65.089600
  C    -98.328100  -31.308500  -63.567900
  H    -98.249200  -31.949900  -62.704800
  H    -97.712100  -30.427100  -63.301100
  H    -99.338600  -30.937800  -63.789100
  S    -91.292000  -30.219600  -61.686900
  C    -91.240000  -29.311000  -60.139100
  C    -92.523300  -28.908700  -59.739400
  C    -93.537000  -29.306800  -60.649600
  C    -93.038500  -29.901000  -61.836400
  H    -92.680200  -28.305000  -58.848200
  C    -94.914900  -28.826400  -60.499000
  H    -95.373200  -28.776900  -61.554600
  H    -94.969200  -27.788300  -60.180700
  C    -95.858700  -29.576400  -59.563400
  H    -95.694600  -29.074400  -58.621800
  H    -95.603800  -30.673900  -59.567400
  C    -97.369400  -29.575700  -59.988200
  H    -97.647900  -30.196200  -60.835300
  H    -97.660500  -28.554000  -60.210800
  H    -98.111100  -29.753700  -59.217400
  H    -94.789800  -31.333300  -66.196800
  H    -90.445700  -29.315900  -59.388400

 Total Charge           Charge          ....    0
 Multiplicity           Mult            ....    1
 Number of Electrons    NEL             ....  134
 Basis Dimension        Dim             ....  322

ORBITAL ENERGIES
----------------

  NO   OCC          E(Eh)            E(eV)
   0   2.0000     -88.972774     -2421.0723
   1   2.0000     -88.968835     -2420.9651
   2   2.0000     -10.335407      -281.2407
   3   2.0000     -10.333600      -281.1915
   4   2.0000     -10.322783      -280.8972
   5   2.0000     -10.305099      -280.4160
   6   2.0000     -10.303177      -280.3637
   7   2.0000     -10.298782      -280.2441
   8   2.0000     -10.296812      -280.1905
   9   2.0000     -10.296058      -280.1700
  10   2.0000     -10.291470      -280.0451
  11   2.0000     -10.287792      -279.9451
  12   2.0000     -10.287760      -279.9442
  13   2.0000     -10.283728      -279.8345
  14   2.0000     -10.278162      -279.6830
  15   2.0000     -10.277786      -279.6728
  16   2.0000      -8.087510      -220.0723
  17   2.0000      -8.082142      -219.9263
  18   2.0000      -6.045884      -164.5169
  19   2.0000      -6.041899      -164.4084
  20   2.0000      -6.040714      -164.3762
  21   2.0000      -6.038538      -164.3170
  22   2.0000      -6.036862      -164.2714
  23   2.0000      -6.032882      -164.1631
  24   2.0000      -1.005371       -27.3575
  25   2.0000      -0.981456       -26.7068
  26   2.0000      -0.917918       -24.9778
  27   2.0000      -0.906826       -24.6760
  28   2.0000      -0.869450       -23.6589
  29   2.0000      -0.857048       -23.3215
  30   2.0000      -0.847183       -23.0530
  31   2.0000      -0.814177       -22.1549
  32   2.0000      -0.781638       -21.2695
  33   2.0000      -0.770649       -20.9704
  34   2.0000      -0.712087       -19.3769
  35   2.0000      -0.706632       -19.2284
  36   2.0000      -0.692219       -18.8362
  37   2.0000      -0.662397       -18.0247
  38   2.0000      -0.645272       -17.5587
  39   2.0000      -0.614260       -16.7149
  40   2.0000      -0.593938       -16.1619
  41   2.0000      -0.576823       -15.6962
  42   2.0000      -0.566239       -15.4081
  43   2.0000      -0.557575       -15.1724
  44   2.0000      -0.544213       -14.8088
  45   2.0000      -0.522241       -14.2109
  46   2.0000      -0.510987       -13.9047
  47   2.0000      -0.509212       -13.8564
  48   2.0000      -0.503475       -13.7003
  49   2.0000      -0.496944       -13.5225
  50   2.0000      -0.492554       -13.4031
  51   2.0000      -0.484607       -13.1868
  52   2.0000      -0.473543       -12.8858
  53   2.0000      -0.471042       -12.8177
  54   2.0000      -0.456763       -12.4292
  55   2.0000      -0.447346       -12.1729
  56   2.0000      -0.445687       -12.1278
  57   2.0000      -0.435216       -11.8428
  58   2.0000      -0.430307       -11.7092
  59   2.0000      -0.426861       -11.6155
  60   2.0000      -0.418402       -11.3853
  61   2.0000      -0.415306       -11.3011
  62   2.0000      -0.411708       -11.2031
  63   2.0000      -0.348707        -9.4888
  64   2.0000      -0.333215        -9.0672
  65   2.0000      -0.330199        -8.9852
  66   2.0000      -0.287697        -7.8286
  67   0.0000       0.022238         0.6051
  68   0.0000       0.057846         1.5741
  69   0.0000       0.109697         2.9850
  70   0.0000       0.115643         3.1468
  71   0.0000       0.125860         3.4248

MULLIKEN ATOMIC CHARGES
-----------------------
   0 S :    0.132467
   1 C :   -0.065869
   2 C :   -0.096496
   3 C :    0.043086
   4 C :   -0.185555
   5 H :    0.013263
   6 C :    0.033554
   7 H :    0.009231
   8 H :    0.027305
   9 C :   -0.001455
  10 H :    0.004981
  11 H :    0.031235
  12 C :   -0.071577
  13 H :    0.026067
  14 H :    0.049084
  15 H :    0.038425
  16 S :    0.102693
  17 C :   -0.094648
  18 C :   -0.043445
  19 C :    0.008065
  20 C :   -0.146975
  21 H :    0.027011
  22 C :   -0.016032
  23 H :    0.041625
  24 H :    0.027473
  25 C :   -0.056632
  26 H :    0.029230
  27 H :    0.041834
  28 C :   -0.055196
  29 H :    0.031478
  30 H :    0.012716
  31 H :    0.026803
  32 H :    0.010349
  33 H :    0.065904
Sum of atomic charges:   -0.0000000

LOEWDIN ATOMIC CHARGES
----------------------
   0 S :    0.429472
   1 C :   -0.193919
   2 C :   -0.071586
   3 C :   -0.049523
   4 C :   -0.195386
   5 H :    0.033289
   6 C :   -0.037291
   7 H :    0.027235
   8 H :    0.033205
   9 C :   -0.035554
  10 H :    0.014157
  11 H :    0.030285
  12 C :   -0.065976
  13 H :    0.019776
  14 H :    0.029426
  15 H :    0.028678
  16 S :    0.383585
  17 C :   -0.181338
  18 C :   -0.065225
  19 C :   -0.059710
  20 C :   -0.186731
  21 H :    0.034392
  22 C :   -0.047400
  23 H :    0.038549
  24 H :    0.030201
  25 C :   -0.038577
  26 H :    0.023752
  27 H :    0.027287
  28 C :   -0.072717
  29 H :    0.025254
  30 H :    0.021812
  31 H :    0.027097
  32 H :    0.009515
  33 H :    0.033964

  Mayer bond orders larger than 0.100000
B(  0-S ,  1-C ) :   1.1718 B(  0-S ,  4-C ) :   1.1573 B(  1-C ,  2-C ) :   1.5679
B(  1-C ,  4-C ) :   0.1040 B(  1-C , 32-H ) :   0.9732 B(  2-C ,  3-C ) :   1.2944
B(  2-C ,  6-C ) :   1.0231 B(  3-C ,  4-C ) :   1.5182 B(  3-C ,  5-H ) :   0.9877
B(  4-C , 20-C ) :   1.0570 B(  6-C ,  7-H ) :   0.9397 B(  6-C ,  8-H ) :   0.9337
B(  6-C ,  9-C ) :   1.0734 B(  9-C , 10-H ) :   0.9479 B(  9-C , 11-H ) :   0.9486
B(  9-C , 12-C ) :   1.0809 B( 12-C , 13-H ) :   0.9736 B( 12-C , 14-H ) :   0.9717
B( 12-C , 15-H ) :   0.9686 B( 16-S , 17-C ) :   1.1435 B( 16-S , 20-C ) :   1.1393
B( 17-C , 18-C ) :   1.6066 B( 17-C , 20-C ) :   0.1058 B( 17-C , 33-H ) :   0.9612
B( 18-C , 19-C ) :   1.2551 B( 18-C , 21-H ) :   0.9855 B( 19-C , 20-C ) :   1.5622
B( 19-C , 22-C ) :   1.0594 B( 22-C , 23-H ) :   0.9424 B( 22-C , 24-H ) :   0.9413
B( 22-C , 25-C ) :   1.0305 B( 25-C , 26-H ) :   0.9562 B( 25-C , 27-H ) :   0.9641
B( 25-C , 28-C ) :   1.0783 B( 28-C , 29-H ) :   0.9757 B( 28-C , 30-H ) :   0.9706
B( 28-C , 31-H ) :   0.9720

Dispersion correction           -0.015688513
FINAL SINGLE POINT ENERGY     -1339.868480246987

DIPOLE MOMENT
-------------
                                X             Y             Z
Electronic contribution:     31.30103       2.42590      -7.28739
Nuclear contribution   :    -31.97903      -2.47837       7.48017
                        -----------------------------------------
Total Dipole Moment    :     -0.67800      -0.05247       0.19278
                        -----------------------------------------
Magnitude (a.u.)       :      0.70683
Magnitude (Debye)      :      1.79661

Rotational constants in cm-1:     0.017983     0.010277     0.007006
Rotational constants in MHz :   539.130387   308.095531   210.030965

                             ****ORCA TERMINATED NORMALLY****
TOTAL RUN TIME: 0 days 0 hours 0 minutes 22 seconds 723 msec
