                         Program Version 4.2.1 -  RELEASE  -
|  1> ! wB97X-D3 SP def2-SVP
|  2> %pal
|  3> nprocs 24
|  4> end
|  5>
|  6> * xyz 0 1
|  7> S 	 -110.347 	 24.3751 	 -118.588
|  8> C 	 -110.815 	 22.72 	 -118.013
|  9> C 	 -109.9 	 22.3151 	 -117.013
| 10> C 	 -108.804 	 23.2624 	 -116.82
| 11> C 	 -108.899 	 24.4076 	 -117.581
| 12> H 	 -108.042 	 23.2162 	 -116.091
| 13> C 	 -110.055 	 21.0251 	 -116.279
| 14> H 	 -109.663 	 20.2812 	 -116.919
| 15> H 	 -111.154 	 20.9089 	 -116.15
| 16> C 	 -109.4 	 20.8229 	 -114.955
| 17> H 	 -109.534 	 19.7555 	 -114.633
| 18> H 	 -108.336 	 20.8731 	 -115.194
| 19> C 	 -109.725 	 21.9067 	 -113.924
| 20> H 	 -109.434 	 22.9244 	 -114.21
| 21> H 	 -110.804 	 21.8445 	 -113.704
| 22> H 	 -109.209 	 21.6845 	 -112.956
| 23> S 	 -108.744 	 26.9495 	 -118.342
| 24> C 	 -107.234 	 27.7427 	 -118.166
| 25> C 	 -106.296 	 27.0551 	 -117.459
| 26> C 	 -106.736 	 25.7982 	 -117.026
| 27> C 	 -108.041 	 25.5441 	 -117.487
| 28> H 	 -105.38 	 27.4848 	 -117.342
| 29> C 	 -105.74 	 24.7825 	 -116.411
| 30> H 	 -105.757 	 23.964 	 -117.059
| 31> H 	 -106.147 	 24.3394 	 -115.505
| 32> C 	 -104.303 	 25.2737 	 -116.129
| 33> H 	 -104.299 	 25.9789 	 -115.296
| 34> H 	 -104.059 	 25.8661 	 -116.995
| 35> C 	 -103.188 	 24.2779 	 -116.028
| 36> H 	 -103.027 	 23.5804 	 -116.892
| 37> H 	 -103.252 	 23.6142 	 -115.195
| 38> H 	 -102.219 	 24.818 	 -116.057
| 39> H 	 -111.759 	 22.1891 	 -118.367
| 40> H 	 -106.936 	 28.5865 	 -118.717
| 41> *
| 42>
| 43>                          ****END OF INPUT****

CARTESIAN COORDINATES (ANGSTROEM)
---------------------------------
  S    -110.347000   24.375100  -118.588000
  C    -110.815000   22.720000  -118.013000
  C    -109.900000   22.315100  -117.013000
  C    -108.804000   23.262400  -116.820000
  C    -108.899000   24.407600  -117.581000
  H    -108.042000   23.216200  -116.091000
  C    -110.055000   21.025100  -116.279000
  H    -109.663000   20.281200  -116.919000
  H    -111.154000   20.908900  -116.150000
  C    -109.400000   20.822900  -114.955000
  H    -109.534000   19.755500  -114.633000
  H    -108.336000   20.873100  -115.194000
  C    -109.725000   21.906700  -113.924000
  H    -109.434000   22.924400  -114.210000
  H    -110.804000   21.844500  -113.704000
  H    -109.209000   21.684500  -112.956000
  S    -108.744000   26.949500  -118.342000
  C    -107.234000   27.742700  -118.166000
  C    -106.296000   27.055100  -117.459000
  C    -106.736000   25.798200  -117.026000
  C    -108.041000   25.544100  -117.487000
  H    -105.380000   27.484800  -117.342000
  C    -105.740000   24.782500  -116.411000
  H    -105.757000   23.964000  -117.059000
  H    -106.147000   24.339400  -115.505000
  C    -104.303000   25.273700  -116.129000
  H    -104.299000   25.978900  -115.296000
  H    -104.059000   25.866100  -116.995000
  C    -103.188000   24.277900  -116.028000
  H    -103.027000   23.580400  -116.892000
  H    -103.252000   23.614200  -115.195000
  H    -102.219000   24.818000  -116.057000
  H    -111.759000   22.189100  -118.367000
  H    -106.936000   28.586500  -118.717000

 Total Charge           Charge          ....    0
 Multiplicity           Mult            ....    1
 Number of Electrons    NEL             ....  134
 Basis Dimension        Dim             ....  322

ORBITAL ENERGIES
----------------

  NO   OCC          E(Eh)            E(eV)
   0   2.0000     -88.966756     -2420.9085
   1   2.0000     -88.964166     -2420.8380
   2   2.0000     -10.329483      -281.0795
   3   2.0000     -10.329222      -281.0724
   4   2.0000     -10.324157      -280.9346
   5   2.0000     -10.310905      -280.5740
   6   2.0000     -10.308343      -280.5043
   7   2.0000     -10.307056      -280.4693
   8   2.0000     -10.294765      -280.1348
   9   2.0000     -10.291167      -280.0369
  10   2.0000     -10.290295      -280.0132
  11   2.0000     -10.288027      -279.9514
  12   2.0000     -10.284199      -279.8473
  13   2.0000     -10.284070      -279.8438
  14   2.0000     -10.282521      -279.8016
  15   2.0000     -10.281346      -279.7696
  16   2.0000      -8.081871      -219.9189
  17   2.0000      -8.077619      -219.8032
  18   2.0000      -6.040216      -164.3626
  19   2.0000      -6.036523      -164.2621
  20   2.0000      -6.036420      -164.2593
  21   2.0000      -6.032585      -164.1550
  22   2.0000      -6.032358      -164.1488
  23   2.0000      -6.028087      -164.0326
  24   2.0000      -1.007768       -27.4228
  25   2.0000      -0.977134       -26.5892
  26   2.0000      -0.919714       -25.0267
  27   2.0000      -0.913725       -24.8637
  28   2.0000      -0.871406       -23.7122
  29   2.0000      -0.860574       -23.4174
  30   2.0000      -0.836098       -22.7514
  31   2.0000      -0.818228       -22.2651
  32   2.0000      -0.790690       -21.5158
  33   2.0000      -0.774479       -21.0746
  34   2.0000      -0.716600       -19.4997
  35   2.0000      -0.705898       -19.2085
  36   2.0000      -0.691591       -18.8191
  37   2.0000      -0.657871       -17.9016
  38   2.0000      -0.634632       -17.2692
  39   2.0000      -0.623495       -16.9661
  40   2.0000      -0.602973       -16.4077
  41   2.0000      -0.570463       -15.5231
  42   2.0000      -0.566132       -15.4052
  43   2.0000      -0.559139       -15.2150
  44   2.0000      -0.536833       -14.6080
  45   2.0000      -0.531611       -14.4659
  46   2.0000      -0.520175       -14.1547
  47   2.0000      -0.514961       -14.0128
  48   2.0000      -0.502593       -13.6762
  49   2.0000      -0.501690       -13.6517
  50   2.0000      -0.492384       -13.3985
  51   2.0000      -0.484129       -13.1738
  52   2.0000      -0.475560       -12.9407
  53   2.0000      -0.467441       -12.7197
  54   2.0000      -0.460880       -12.5412
  55   2.0000      -0.457951       -12.4615
  56   2.0000      -0.445574       -12.1247
  57   2.0000      -0.435890       -11.8612
  58   2.0000      -0.432820       -11.7776
  59   2.0000      -0.424260       -11.5447
  60   2.0000      -0.420520       -11.4429
  61   2.0000      -0.411263       -11.1910
  62   2.0000      -0.409494       -11.1429
  63   2.0000      -0.358829        -9.7642
  64   2.0000      -0.340105        -9.2547
  65   2.0000      -0.324577        -8.8322
  66   2.0000      -0.274485        -7.4691
  67   0.0000       0.013278         0.3613
  68   0.0000       0.075715         2.0603
  69   0.0000       0.096352         2.6219
  70   0.0000       0.124646         3.3918
  71   0.0000       0.132539         3.6066

MULLIKEN ATOMIC CHARGES
-----------------------
   0 S :    0.080417
   1 C :   -0.158801
   2 C :   -0.085355
   3 C :   -0.011317
   4 C :   -0.078912
   5 H :   -0.020412
   6 C :    0.077365
   7 H :    0.037629
   8 H :    0.028335
   9 C :   -0.088831
  10 H :    0.038892
  11 H :    0.018683
  12 C :   -0.061390
  13 H :    0.048247
  14 H :    0.034561
  15 H :    0.036315
  16 S :    0.095442
  17 C :   -0.039282
  18 C :   -0.043924
  19 C :   -0.024866
  20 C :   -0.151017
  21 H :   -0.019096
  22 C :    0.070175
  23 H :    0.018150
  24 H :    0.036956
  25 C :   -0.071045
  26 H :    0.037351
  27 H :    0.027060
  28 C :   -0.041633
  29 H :    0.030018
  30 H :    0.028299
  31 H :    0.036731
  32 H :    0.081224
  33 H :    0.034032
Sum of atomic charges:   -0.0000000

LOEWDIN ATOMIC CHARGES
----------------------
   0 S :    0.361852
   1 C :   -0.198988
   2 C :   -0.050629
   3 C :   -0.074732
   4 C :   -0.182264
   5 H :    0.018544
   6 C :   -0.039807
   7 H :    0.034061
   8 H :    0.033363
   9 C :   -0.050945
  10 H :    0.034685
  11 H :    0.020361
  12 C :   -0.069376
  13 H :    0.028627
  14 H :    0.027683
  15 H :    0.030512
  16 S :    0.405351
  17 C :   -0.180460
  18 C :   -0.066760
  19 C :   -0.043526
  20 C :   -0.175184
  21 H :    0.016547
  22 C :   -0.027462
  23 H :    0.026384
  24 H :    0.028686
  25 C :   -0.043636
  26 H :    0.028515
  27 H :    0.025116
  28 C :   -0.067403
  29 H :    0.031269
  30 H :    0.018258
  31 H :    0.035352
  32 H :    0.046212
  33 H :    0.019797

  Mayer bond orders larger than 0.100000
B(  0-S ,  1-C ) :   1.1031 B(  0-S ,  4-C ) :   1.1262 B(  1-C ,  2-C ) :   1.6154
B(  1-C , 32-H ) :   0.9644 B(  2-C ,  3-C ) :   1.2147 B(  2-C ,  6-C ) :   1.0101
B(  3-C ,  4-C ) :   1.5720 B(  3-C ,  5-H ) :   0.9939 B(  4-C , 20-C ) :   1.1335
B(  6-C ,  7-H ) :   0.9290 B(  6-C ,  8-H ) :   0.9396 B(  6-C ,  9-C ) :   1.0983
B(  9-C , 10-H ) :   0.9512 B(  9-C , 11-H ) :   0.9413 B(  9-C , 12-C ) :   1.0783
B( 12-C , 13-H ) :   0.9695 B( 12-C , 14-H ) :   0.9755 B( 12-C , 15-H ) :   0.9734
B( 16-S , 17-C ) :   1.1596 B( 16-S , 20-C ) :   1.1287 B( 17-C , 18-C ) :   1.6180
B( 17-C , 33-H ) :   0.9595 B( 18-C , 19-C ) :   1.2567 B( 18-C , 21-H ) :   1.0007
B( 19-C , 20-C ) :   1.5641 B( 19-C , 22-C ) :   1.0237 B( 22-C , 23-H ) :   0.9307
B( 22-C , 24-H ) :   0.9201 B( 22-C , 25-C ) :   1.0747 B( 25-C , 26-H ) :   0.9524
B( 25-C , 27-H ) :   0.9431 B( 25-C , 28-C ) :   1.0935 B( 28-C , 29-H ) :   0.9706
B( 28-C , 30-H ) :   0.9755 B( 28-C , 31-H ) :   0.9701

Dispersion correction           -0.013795679
FINAL SINGLE POINT ENERGY     -1339.861664554576

DIPOLE MOMENT
-------------
                                X             Y             Z
Electronic contribution:    -16.87890      16.41044     -18.57185
Nuclear contribution   :     17.48443     -16.79624      18.88945
                        -----------------------------------------
Total Dipole Moment    :      0.60553      -0.38580       0.31760
                        -----------------------------------------
Magnitude (a.u.)       :      0.78510
Magnitude (Debye)      :      1.99556

Rotational constants in cm-1:     0.015856     0.009795     0.006553
Rotational constants in MHz :   475.338300   293.640360   196.466230

                             ****ORCA TERMINATED NORMALLY****
TOTAL RUN TIME: 0 days 0 hours 0 minutes 20 seconds 439 msec
