                         Program Version 4.2.1 -  RELEASE  -
|  1> ! wB97X-D3 SP def2-SVP
|  2> %pal
|  3> nprocs 24
|  4> end
|  5>
|  6> * xyz 0 1
|  7> S 	 -124.511 	 55.3348 	 -60.3213
|  8> C 	 -124.835 	 54.9375 	 -61.9637
|  9> C 	 -125.591 	 55.9603 	 -62.5475
| 10> C 	 -126.304 	 56.7481 	 -61.5731
| 11> C 	 -125.939 	 56.4151 	 -60.2867
| 12> H 	 -126.997 	 57.536 	 -61.7912
| 13> C 	 -125.932 	 56.1128 	 -64.0374
| 14> H 	 -126.95 	 56.3583 	 -64.0518
| 15> H 	 -125.821 	 55.0787 	 -64.479
| 16> C 	 -125.062 	 57.0614 	 -64.8945
| 17> H 	 -124.081 	 56.6757 	 -64.8674
| 18> H 	 -125.352 	 57.1585 	 -65.8944
| 19> C 	 -125.119 	 58.4455 	 -64.369
| 20> H 	 -124.614 	 59.0755 	 -65.0691
| 21> H 	 -126.155 	 58.7378 	 -64.2256
| 22> H 	 -124.619 	 58.54 	 -63.4079
| 23> S 	 -126.183 	 58.3653 	 -58.4409
| 24> C 	 -127.453 	 58.3179 	 -57.2482
| 25> C 	 -127.973 	 57.0997 	 -57.101
| 26> C 	 -127.546 	 56.2136 	 -58.1187
| 27> C 	 -126.596 	 56.7831 	 -58.9748
| 28> H 	 -128.759 	 56.9793 	 -56.3826
| 29> C 	 -127.951 	 54.7135 	 -58.2625
| 30> H 	 -127.333 	 54.2329 	 -59.0974
| 31> H 	 -128.978 	 54.571 	 -58.5696
| 32> C 	 -127.706 	 53.792 	 -57.0633
| 33> H 	 -128.382 	 53.9368 	 -56.1997
| 34> H 	 -126.709 	 54.0394 	 -56.7008
| 35> C 	 -127.698 	 52.3293 	 -57.4894
| 36> H 	 -127.572 	 51.6608 	 -56.6865
| 37> H 	 -126.927 	 52.0981 	 -58.2422
| 38> H 	 -128.65 	 52.0119 	 -57.8443
| 39> H 	 -124.32 	 54.3828 	 -62.6815
| 40> H 	 -127.648 	 59.1152 	 -56.5373
| 41> *
| 42>
| 43>                          ****END OF INPUT****

CARTESIAN COORDINATES (ANGSTROEM)
---------------------------------
  S    -124.511000   55.334800  -60.321300
  C    -124.835000   54.937500  -61.963700
  C    -125.591000   55.960300  -62.547500
  C    -126.304000   56.748100  -61.573100
  C    -125.939000   56.415100  -60.286700
  H    -126.997000   57.536000  -61.791200
  C    -125.932000   56.112800  -64.037400
  H    -126.950000   56.358300  -64.051800
  H    -125.821000   55.078700  -64.479000
  C    -125.062000   57.061400  -64.894500
  H    -124.081000   56.675700  -64.867400
  H    -125.352000   57.158500  -65.894400
  C    -125.119000   58.445500  -64.369000
  H    -124.614000   59.075500  -65.069100
  H    -126.155000   58.737800  -64.225600
  H    -124.619000   58.540000  -63.407900
  S    -126.183000   58.365300  -58.440900
  C    -127.453000   58.317900  -57.248200
  C    -127.973000   57.099700  -57.101000
  C    -127.546000   56.213600  -58.118700
  C    -126.596000   56.783100  -58.974800
  H    -128.759000   56.979300  -56.382600
  C    -127.951000   54.713500  -58.262500
  H    -127.333000   54.232900  -59.097400
  H    -128.978000   54.571000  -58.569600
  C    -127.706000   53.792000  -57.063300
  H    -128.382000   53.936800  -56.199700
  H    -126.709000   54.039400  -56.700800
  C    -127.698000   52.329300  -57.489400
  H    -127.572000   51.660800  -56.686500
  H    -126.927000   52.098100  -58.242200
  H    -128.650000   52.011900  -57.844300
  H    -124.320000   54.382800  -62.681500
  H    -127.648000   59.115200  -56.537300

 Total Charge           Charge          ....    0
 Multiplicity           Mult            ....    1
 Number of Electrons    NEL             ....  134
 Basis Dimension        Dim             ....  322

ORBITAL ENERGIES
----------------

  NO   OCC          E(Eh)            E(eV)
   0   2.0000     -88.966787     -2420.9094
   1   2.0000     -88.961416     -2420.7632
   2   2.0000     -10.335972      -281.2561
   3   2.0000     -10.327791      -281.0335
   4   2.0000     -10.310427      -280.5610
   5   2.0000     -10.309847      -280.5452
   6   2.0000     -10.308021      -280.4955
   7   2.0000     -10.302637      -280.3490
   8   2.0000     -10.296723      -280.1881
   9   2.0000     -10.291817      -280.0546
  10   2.0000     -10.291250      -280.0391
  11   2.0000     -10.288298      -279.9588
  12   2.0000     -10.282619      -279.8043
  13   2.0000     -10.274984      -279.5965
  14   2.0000     -10.268174      -279.4112
  15   2.0000     -10.267430      -279.3910
  16   2.0000      -8.081120      -219.8984
  17   2.0000      -8.077192      -219.7916
  18   2.0000      -6.039703      -164.3487
  19   2.0000      -6.035900      -164.2452
  20   2.0000      -6.035518      -164.2348
  21   2.0000      -6.031590      -164.1279
  22   2.0000      -6.031502      -164.1255
  23   2.0000      -6.028140      -164.0340
  24   2.0000      -1.008143       -27.4330
  25   2.0000      -0.988674       -26.9032
  26   2.0000      -0.915578       -24.9141
  27   2.0000      -0.903236       -24.5783
  28   2.0000      -0.872079       -23.7305
  29   2.0000      -0.850555       -23.1448
  30   2.0000      -0.846106       -23.0237
  31   2.0000      -0.821800       -22.3623
  32   2.0000      -0.779226       -21.2038
  33   2.0000      -0.768967       -20.9247
  34   2.0000      -0.705660       -19.2020
  35   2.0000      -0.701031       -19.0760
  36   2.0000      -0.692433       -18.8421
  37   2.0000      -0.655638       -17.8408
  38   2.0000      -0.638721       -17.3805
  39   2.0000      -0.615703       -16.7541
  40   2.0000      -0.596725       -16.2377
  41   2.0000      -0.581246       -15.8165
  42   2.0000      -0.564325       -15.3561
  43   2.0000      -0.557495       -15.1702
  44   2.0000      -0.548467       -14.9245
  45   2.0000      -0.516078       -14.0432
  46   2.0000      -0.513837       -13.9822
  47   2.0000      -0.511683       -13.9236
  48   2.0000      -0.507678       -13.8146
  49   2.0000      -0.499641       -13.5959
  50   2.0000      -0.484449       -13.1825
  51   2.0000      -0.474306       -12.9065
  52   2.0000      -0.468646       -12.7525
  53   2.0000      -0.467168       -12.7123
  54   2.0000      -0.460333       -12.5263
  55   2.0000      -0.450516       -12.2592
  56   2.0000      -0.443239       -12.0611
  57   2.0000      -0.435759       -11.8576
  58   2.0000      -0.425279       -11.5724
  59   2.0000      -0.423122       -11.5137
  60   2.0000      -0.422723       -11.5029
  61   2.0000      -0.415596       -11.3089
  62   2.0000      -0.414919       -11.2905
  63   2.0000      -0.338869        -9.2211
  64   2.0000      -0.334444        -9.1007
  65   2.0000      -0.314315        -8.5529
  66   2.0000      -0.309235        -8.4147
  67   0.0000       0.032870         0.8944
  68   0.0000       0.058250         1.5851
  69   0.0000       0.104392         2.8407
  70   0.0000       0.120512         3.2793
  71   0.0000       0.132617         3.6087

MULLIKEN ATOMIC CHARGES
-----------------------
   0 S :    0.117592
   1 C :   -0.053077
   2 C :   -0.155766
   3 C :    0.075177
   4 C :   -0.166918
   5 H :    0.013775
   6 C :    0.032304
   7 H :    0.015698
   8 H :    0.028765
   9 C :    0.000849
  10 H :    0.011911
  11 H :    0.018151
  12 C :   -0.051324
  13 H :    0.026198
  14 H :    0.021737
  15 H :    0.039530
  16 S :    0.106461
  17 C :   -0.091359
  18 C :   -0.024461
  19 C :    0.006421
  20 C :   -0.186848
  21 H :    0.017372
  22 C :    0.041385
  23 H :    0.035926
  24 H :    0.024677
  25 C :   -0.077219
  26 H :    0.030823
  27 H :    0.026902
  28 C :   -0.028786
  29 H :    0.014412
  30 H :    0.040531
  31 H :    0.011866
  32 H :    0.024010
  33 H :    0.053281
Sum of atomic charges:   -0.0000000

LOEWDIN ATOMIC CHARGES
----------------------
   0 S :    0.398208
   1 C :   -0.200881
   2 C :   -0.060064
   3 C :   -0.050578
   4 C :   -0.184747
   5 H :    0.032018
   6 C :   -0.029041
   7 H :    0.019538
   8 H :    0.035381
   9 C :   -0.031891
  10 H :    0.018776
  11 H :    0.019915
  12 C :   -0.059665
  13 H :    0.022793
  14 H :    0.021857
  15 H :    0.026009
  16 S :    0.418513
  17 C :   -0.181013
  18 C :   -0.074260
  19 C :   -0.050663
  20 C :   -0.212022
  21 H :    0.034224
  22 C :   -0.034106
  23 H :    0.038294
  24 H :    0.024540
  25 C :   -0.043312
  26 H :    0.022744
  27 H :    0.023622
  28 C :   -0.061638
  29 H :    0.020437
  30 H :    0.030315
  31 H :    0.019166
  32 H :    0.018395
  33 H :    0.029136

  Mayer bond orders larger than 0.100000
B(  0-S ,  1-C ) :   1.1376 B(  0-S ,  4-C ) :   1.1366 B(  1-C ,  2-C ) :   1.6289
B(  1-C , 32-H ) :   0.9603 B(  2-C ,  3-C ) :   1.2112 B(  2-C ,  6-C ) :   1.0176
B(  3-C ,  4-C ) :   1.6082 B(  3-C ,  5-H ) :   0.9987 B(  4-C , 20-C ) :   0.9685
B(  6-C ,  7-H ) :   0.9488 B(  6-C ,  8-H ) :   0.9459 B(  6-C ,  9-C ) :   1.0707
B(  9-C , 10-H ) :   0.9498 B(  9-C , 11-H ) :   0.9551 B(  9-C , 12-C ) :   1.0920
B( 12-C , 13-H ) :   0.9720 B( 12-C , 14-H ) :   0.9743 B( 12-C , 15-H ) :   0.9708
B( 16-S , 17-C ) :   1.1569 B( 16-S , 20-C ) :   1.1679 B( 17-C , 18-C ) :   1.6322
B( 17-C , 33-H ) :   0.9621 B( 18-C , 19-C ) :   1.2301 B( 18-C , 21-H ) :   0.9952
B( 19-C , 20-C ) :   1.6119 B( 19-C , 22-C ) :   1.0277 B( 22-C , 23-H ) :   0.9458
B( 22-C , 24-H ) :   0.9345 B( 22-C , 25-C ) :   1.0552 B( 25-C , 26-H ) :   0.9512
B( 25-C , 27-H ) :   0.9557 B( 25-C , 28-C ) :   1.0966 B( 28-C , 29-H ) :   0.9697
B( 28-C , 30-H ) :   0.9729 B( 28-C , 31-H ) :   0.9717

Dispersion correction           -0.014282015
FINAL SINGLE POINT ENERGY     -1339.853695145428

DIPOLE MOMENT
-------------
                                X             Y             Z
Electronic contribution:      6.63415       9.47481      10.35819
Nuclear contribution   :     -6.96169      -9.52111     -10.60980
                        -----------------------------------------
Total Dipole Moment    :     -0.32754      -0.04630      -0.25161
                        -----------------------------------------
Magnitude (a.u.)       :      0.41561
Magnitude (Debye)      :      1.05640

Rotational constants in cm-1:     0.020171     0.008189     0.006563
Rotational constants in MHz :   604.717515   245.507881   196.750849

                             ****ORCA TERMINATED NORMALLY****
TOTAL RUN TIME: 0 days 0 hours 0 minutes 21 seconds 389 msec
