                         Program Version 4.2.1 -  RELEASE  -
|  1> ! wB97X-D3 SP def2-SVP
|  2> %pal
|  3> nprocs 24
|  4> end
|  5>
|  6> * xyz 0 1
|  7> S 	 -105.854 	 22.6105 	 -115.119
|  8> C 	 -105.951 	 23.2692 	 -113.515
|  9> C 	 -106.712 	 22.4654 	 -112.657
| 10> C 	 -107.069 	 21.1722 	 -113.241
| 11> C 	 -106.818 	 21.1607 	 -114.585
| 12> H 	 -107.521 	 20.223 	 -112.853
| 13> C 	 -107.008 	 22.7363 	 -111.215
| 14> H 	 -107.851 	 22.1306 	 -110.889
| 15> H 	 -107.338 	 23.7574 	 -111.28
| 16> C 	 -105.827 	 22.5881 	 -110.237
| 17> H 	 -104.919 	 23.1605 	 -110.554
| 18> H 	 -106.102 	 23.0689 	 -109.345
| 19> C 	 -105.338 	 21.1545 	 -109.879
| 20> H 	 -106.17 	 20.4883 	 -109.758
| 21> H 	 -104.827 	 20.8471 	 -110.766
| 22> H 	 -104.725 	 21.1406 	 -108.961
| 23> S 	 -107.684 	 20.3794 	 -117.055
| 24> C 	 -107.527 	 18.7195 	 -117.67
| 25> C 	 -106.928 	 17.9241 	 -116.747
| 26> C 	 -106.603 	 18.593 	 -115.487
| 27> C 	 -106.985 	 19.9542 	 -115.479
| 28> H 	 -106.699 	 16.9488 	 -117.006
| 29> C 	 -106.097 	 17.8374 	 -114.312
| 30> H 	 -106.894 	 17.0806 	 -113.971
| 31> H 	 -105.877 	 18.5552 	 -113.468
| 32> C 	 -104.663 	 17.2548 	 -114.651
| 33> H 	 -104.646 	 16.6336 	 -115.581
| 34> H 	 -104.321 	 16.606 	 -113.819
| 35> C 	 -103.613 	 18.3685 	 -114.917
| 36> H 	 -103.487 	 19.0838 	 -114.059
| 37> H 	 -103.897 	 18.9675 	 -115.801
| 38> H 	 -102.67 	 17.9435 	 -115.141
| 39> H 	 -105.475 	 24.1793 	 -113.223
| 40> H 	 -107.976 	 18.3968 	 -118.57
| 41> *
| 42>
| 43>                          ****END OF INPUT****

CARTESIAN COORDINATES (ANGSTROEM)
---------------------------------
  S    -105.854000   22.610500  -115.119000
  C    -105.951000   23.269200  -113.515000
  C    -106.712000   22.465400  -112.657000
  C    -107.069000   21.172200  -113.241000
  C    -106.818000   21.160700  -114.585000
  H    -107.521000   20.223000  -112.853000
  C    -107.008000   22.736300  -111.215000
  H    -107.851000   22.130600  -110.889000
  H    -107.338000   23.757400  -111.280000
  C    -105.827000   22.588100  -110.237000
  H    -104.919000   23.160500  -110.554000
  H    -106.102000   23.068900  -109.345000
  C    -105.338000   21.154500  -109.879000
  H    -106.170000   20.488300  -109.758000
  H    -104.827000   20.847100  -110.766000
  H    -104.725000   21.140600  -108.961000
  S    -107.684000   20.379400  -117.055000
  C    -107.527000   18.719500  -117.670000
  C    -106.928000   17.924100  -116.747000
  C    -106.603000   18.593000  -115.487000
  C    -106.985000   19.954200  -115.479000
  H    -106.699000   16.948800  -117.006000
  C    -106.097000   17.837400  -114.312000
  H    -106.894000   17.080600  -113.971000
  H    -105.877000   18.555200  -113.468000
  C    -104.663000   17.254800  -114.651000
  H    -104.646000   16.633600  -115.581000
  H    -104.321000   16.606000  -113.819000
  C    -103.613000   18.368500  -114.917000
  H    -103.487000   19.083800  -114.059000
  H    -103.897000   18.967500  -115.801000
  H    -102.670000   17.943500  -115.141000
  H    -105.475000   24.179300  -113.223000
  H    -107.976000   18.396800  -118.570000

 Total Charge           Charge          ....    0
 Multiplicity           Mult            ....    1
 Number of Electrons    NEL             ....  134
 Basis Dimension        Dim             ....  322

ORBITAL ENERGIES
----------------

  NO   OCC          E(Eh)            E(eV)
   0   2.0000     -88.968942     -2420.9680
   1   2.0000     -88.958108     -2420.6732
   2   2.0000     -10.336324      -281.2657
   3   2.0000     -10.334284      -281.2102
   4   2.0000     -10.317074      -280.7418
   5   2.0000     -10.315414      -280.6967
   6   2.0000     -10.310049      -280.5507
   7   2.0000     -10.307116      -280.4709
   8   2.0000     -10.303653      -280.3767
   9   2.0000     -10.301608      -280.3210
  10   2.0000     -10.295234      -280.1476
  11   2.0000     -10.291598      -280.0486
  12   2.0000     -10.290092      -280.0076
  13   2.0000     -10.286259      -279.9033
  14   2.0000     -10.276858      -279.6475
  15   2.0000     -10.275177      -279.6018
  16   2.0000      -8.082636      -219.9397
  17   2.0000      -8.072510      -219.6642
  18   2.0000      -6.041298      -164.3921
  19   2.0000      -6.037396      -164.2859
  20   2.0000      -6.033167      -164.1708
  21   2.0000      -6.031163      -164.1163
  22   2.0000      -6.026970      -164.0022
  23   2.0000      -6.023240      -163.9007
  24   2.0000      -0.996600       -27.1189
  25   2.0000      -0.977426       -26.5971
  26   2.0000      -0.909169       -24.7397
  27   2.0000      -0.902035       -24.5456
  28   2.0000      -0.867383       -23.6027
  29   2.0000      -0.848502       -23.0889
  30   2.0000      -0.837869       -22.7996
  31   2.0000      -0.820559       -22.3286
  32   2.0000      -0.778625       -21.1875
  33   2.0000      -0.766008       -20.8441
  34   2.0000      -0.705839       -19.2069
  35   2.0000      -0.699924       -19.0459
  36   2.0000      -0.689756       -18.7692
  37   2.0000      -0.657918       -17.9029
  38   2.0000      -0.644229       -17.5304
  39   2.0000      -0.609525       -16.5860
  40   2.0000      -0.594234       -16.1699
  41   2.0000      -0.573730       -15.6120
  42   2.0000      -0.553882       -15.0719
  43   2.0000      -0.552386       -15.0312
  44   2.0000      -0.544247       -14.8097
  45   2.0000      -0.527454       -14.3528
  46   2.0000      -0.520636       -14.1672
  47   2.0000      -0.511458       -13.9175
  48   2.0000      -0.499801       -13.6003
  49   2.0000      -0.491568       -13.3763
  50   2.0000      -0.484550       -13.1853
  51   2.0000      -0.478073       -13.0090
  52   2.0000      -0.470179       -12.7942
  53   2.0000      -0.463388       -12.6094
  54   2.0000      -0.458215       -12.4687
  55   2.0000      -0.443267       -12.0619
  56   2.0000      -0.440586       -11.9890
  57   2.0000      -0.437205       -11.8970
  58   2.0000      -0.436669       -11.8824
  59   2.0000      -0.424894       -11.5619
  60   2.0000      -0.419064       -11.4033
  61   2.0000      -0.412074       -11.2131
  62   2.0000      -0.407873       -11.0988
  63   2.0000      -0.351252        -9.5580
  64   2.0000      -0.329931        -8.9779
  65   2.0000      -0.323982        -8.8160
  66   2.0000      -0.292668        -7.9639
  67   0.0000       0.033402         0.9089
  68   0.0000       0.059668         1.6237
  69   0.0000       0.112144         3.0516
  70   0.0000       0.113211         3.0806
  71   0.0000       0.119665         3.2563

MULLIKEN ATOMIC CHARGES
-----------------------
   0 S :    0.113506
   1 C :   -0.110571
   2 C :   -0.103778
   3 C :   -0.010771
   4 C :   -0.101680
   5 H :    0.047343
   6 C :    0.088463
   7 H :    0.024500
   8 H :    0.026751
   9 C :   -0.073210
  10 H :    0.026543
  11 H :    0.014346
  12 C :   -0.039760
  13 H :    0.017873
  14 H :    0.035086
  15 H :    0.047636
  16 S :    0.067006
  17 C :   -0.066876
  18 C :   -0.005695
  19 C :   -0.036471
  20 C :   -0.184319
  21 H :   -0.003226
  22 C :    0.017114
  23 H :    0.065615
  24 H :    0.033794
  25 C :   -0.106248
  26 H :    0.036472
  27 H :    0.037282
  28 C :   -0.063308
  29 H :    0.039567
  30 H :    0.049070
  31 H :    0.026478
  32 H :    0.043817
  33 H :    0.047651
Sum of atomic charges:    0.0000000

LOEWDIN ATOMIC CHARGES
----------------------
   0 S :    0.384672
   1 C :   -0.196217
   2 C :   -0.059979
   3 C :   -0.068539
   4 C :   -0.177300
   5 H :    0.047074
   6 C :   -0.033637
   7 H :    0.031547
   8 H :    0.035460
   9 C :   -0.037928
  10 H :    0.026924
  11 H :    0.013487
  12 C :   -0.061602
  13 H :    0.018079
  14 H :    0.024079
  15 H :    0.032994
  16 S :    0.372274
  17 C :   -0.162094
  18 C :   -0.062025
  19 C :   -0.059553
  20 C :   -0.187357
  21 H :    0.020183
  22 C :   -0.044745
  23 H :    0.044141
  24 H :    0.034974
  25 C :   -0.043457
  26 H :    0.024249
  27 H :    0.024026
  28 C :   -0.067267
  29 H :    0.028512
  30 H :    0.031186
  31 H :    0.019728
  32 H :    0.024852
  33 H :    0.023258

  Mayer bond orders larger than 0.100000
B(  0-S ,  1-C ) :   1.1314 B(  0-S ,  4-C ) :   1.1230 B(  1-C ,  2-C ) :   1.6268
B(  1-C , 32-H ) :   0.9713 B(  2-C ,  3-C ) :   1.1818 B(  2-C ,  6-C ) :   1.0253
B(  3-C ,  4-C ) :   1.6347 B(  3-C ,  5-H ) :   0.9842 B(  4-C , 20-C ) :   1.0109
B(  6-C ,  7-H ) :   0.9424 B(  6-C ,  8-H ) :   0.9288 B(  6-C ,  9-C ) :   1.0776
B(  9-C , 10-H ) :   0.9581 B(  9-C , 11-H ) :   0.9562 B(  9-C , 12-C ) :   1.0661
B( 12-C , 13-H ) :   0.9761 B( 12-C , 14-H ) :   0.9794 B( 12-C , 15-H ) :   0.9752
B( 16-S , 17-C ) :   1.1357 B( 16-S , 20-C ) :   1.1340 B( 17-C , 18-C ) :   1.6388
B( 17-C , 33-H ) :   0.9726 B( 18-C , 19-C ) :   1.1958 B( 18-C , 21-H ) :   1.0015
B( 19-C , 20-C ) :   1.5984 B( 19-C , 22-C ) :   1.0474 B( 22-C , 23-H ) :   0.9416
B( 22-C , 24-H ) :   0.9391 B( 22-C , 25-C ) :   1.0434 B( 25-C , 26-H ) :   0.9610
B( 25-C , 27-H ) :   0.9602 B( 25-C , 28-C ) :   1.0699 B( 28-C , 29-H ) :   0.9754
B( 28-C , 30-H ) :   0.9718 B( 28-C , 31-H ) :   0.9738

Dispersion correction           -0.015215564
FINAL SINGLE POINT ENERGY     -1339.871721876893

DIPOLE MOMENT
-------------
                                X             Y             Z
Electronic contribution:    -11.47987       9.43280     -22.17050
Nuclear contribution   :     11.64128      -9.79622      22.73574
                        -----------------------------------------
Total Dipole Moment    :      0.16141      -0.36342       0.56524
                        -----------------------------------------
Magnitude (a.u.)       :      0.69110
Magnitude (Debye)      :      1.75665

Rotational constants in cm-1:     0.019849     0.009021     0.007228
Rotational constants in MHz :   595.050346   270.432531   216.683929

                             ****ORCA TERMINATED NORMALLY****
TOTAL RUN TIME: 0 days 0 hours 0 minutes 22 seconds 164 msec
