                         Program Version 4.2.1 -  RELEASE  -
|  1> ! wB97X-D3 SP def2-SVP
|  2> %pal
|  3> nprocs 24
|  4> end
|  5>
|  6> * xyz 0 1
|  7> S 	 -121.388 	 62.871 	 -31.7384
|  8> C 	 -121.339 	 64.1515 	 -32.9167
|  9> C 	 -121.239 	 63.6269 	 -34.2049
| 10> C 	 -121.344 	 62.1758 	 -34.2567
| 11> C 	 -121.267 	 61.5942 	 -33.0075
| 12> H 	 -121.359 	 61.502 	 -35.0893
| 13> C 	 -121.205 	 64.4853 	 -35.4664
| 14> H 	 -121.732 	 65.3741 	 -35.245
| 15> H 	 -121.778 	 63.9076 	 -36.2041
| 16> C 	 -119.832 	 64.8682 	 -35.8483
| 17> H 	 -119.955 	 65.5103 	 -36.7434
| 18> H 	 -119.435 	 65.5755 	 -35.1178
| 19> C 	 -118.825 	 63.7027 	 -36.099
| 20> H 	 -117.849 	 64.1403 	 -36.4417
| 21> H 	 -118.665 	 63.195 	 -35.1519
| 22> H 	 -119.212 	 63.0567 	 -36.8739
| 23> S 	 -122.537 	 59.1976 	 -33.2592
| 24> C 	 -121.714 	 57.7205 	 -33.0944
| 25> C 	 -120.499 	 57.9308 	 -32.4711
| 26> C 	 -120.162 	 59.32 	 -32.3497
| 27> C 	 -121.19 	 60.16 	 -32.7008
| 28> H 	 -119.968 	 57.0215 	 -32.1559
| 29> C 	 -118.781 	 59.7446 	 -31.9123
| 30> H 	 -118.222 	 58.8311 	 -31.5726
| 31> H 	 -118.827 	 60.4311 	 -31.0606
| 32> C 	 -117.922 	 60.3842 	 -32.9652
| 33> H 	 -117.156 	 60.9847 	 -32.4247
| 34> H 	 -118.469 	 61.1325 	 -33.5719
| 35> C 	 -117.188 	 59.4822 	 -33.8945
| 36> H 	 -116.482 	 60.0867 	 -34.4235
| 37> H 	 -117.8 	 58.9992 	 -34.6355
| 38> H 	 -116.783 	 58.6691 	 -33.2577
| 39> H 	 -121.579 	 65.1807 	 -32.7382
| 40> H 	 -122.153 	 56.7744 	 -33.3263
| 41> *
| 42>
| 43>                          ****END OF INPUT****

CARTESIAN COORDINATES (ANGSTROEM)
---------------------------------
  S    -121.388000   62.871000  -31.738400
  C    -121.339000   64.151500  -32.916700
  C    -121.239000   63.626900  -34.204900
  C    -121.344000   62.175800  -34.256700
  C    -121.267000   61.594200  -33.007500
  H    -121.359000   61.502000  -35.089300
  C    -121.205000   64.485300  -35.466400
  H    -121.732000   65.374100  -35.245000
  H    -121.778000   63.907600  -36.204100
  C    -119.832000   64.868200  -35.848300
  H    -119.955000   65.510300  -36.743400
  H    -119.435000   65.575500  -35.117800
  C    -118.825000   63.702700  -36.099000
  H    -117.849000   64.140300  -36.441700
  H    -118.665000   63.195000  -35.151900
  H    -119.212000   63.056700  -36.873900
  S    -122.537000   59.197600  -33.259200
  C    -121.714000   57.720500  -33.094400
  C    -120.499000   57.930800  -32.471100
  C    -120.162000   59.320000  -32.349700
  C    -121.190000   60.160000  -32.700800
  H    -119.968000   57.021500  -32.155900
  C    -118.781000   59.744600  -31.912300
  H    -118.222000   58.831100  -31.572600
  H    -118.827000   60.431100  -31.060600
  C    -117.922000   60.384200  -32.965200
  H    -117.156000   60.984700  -32.424700
  H    -118.469000   61.132500  -33.571900
  C    -117.188000   59.482200  -33.894500
  H    -116.482000   60.086700  -34.423500
  H    -117.800000   58.999200  -34.635500
  H    -116.783000   58.669100  -33.257700
  H    -121.579000   65.180700  -32.738200
  H    -122.153000   56.774400  -33.326300

 Total Charge           Charge          ....    0
 Multiplicity           Mult            ....    1
 Number of Electrons    NEL             ....  134
 Basis Dimension        Dim             ....  322

ORBITAL ENERGIES
----------------

  NO   OCC          E(Eh)            E(eV)
   0   2.0000     -88.964972     -2420.8600
   1   2.0000     -88.962572     -2420.7947
   2   2.0000     -10.334634      -281.2197
   3   2.0000     -10.324309      -280.9387
   4   2.0000     -10.314651      -280.6759
   5   2.0000     -10.313508      -280.6448
   6   2.0000     -10.304149      -280.3902
   7   2.0000     -10.304080      -280.3883
   8   2.0000     -10.298406      -280.2339
   9   2.0000     -10.295067      -280.1430
  10   2.0000     -10.289068      -279.9798
  11   2.0000     -10.285448      -279.8813
  12   2.0000     -10.284474      -279.8548
  13   2.0000     -10.280355      -279.7427
  14   2.0000     -10.277696      -279.6703
  15   2.0000     -10.268285      -279.4142
  16   2.0000      -8.078861      -219.8370
  17   2.0000      -8.078455      -219.8259
  18   2.0000      -6.037477      -164.2881
  19   2.0000      -6.036852      -164.2711
  20   2.0000      -6.033376      -164.1765
  21   2.0000      -6.032622      -164.1560
  22   2.0000      -6.029682      -164.0760
  23   2.0000      -6.029429      -164.0691
  24   2.0000      -1.008664       -27.4471
  25   2.0000      -0.983360       -26.7586
  26   2.0000      -0.915869       -24.9221
  27   2.0000      -0.914316       -24.8798
  28   2.0000      -0.870766       -23.6947
  29   2.0000      -0.852266       -23.1913
  30   2.0000      -0.839600       -22.8467
  31   2.0000      -0.815979       -22.2039
  32   2.0000      -0.785142       -21.3648
  33   2.0000      -0.775076       -21.0909
  34   2.0000      -0.705120       -19.1873
  35   2.0000      -0.698492       -19.0069
  36   2.0000      -0.682602       -18.5746
  37   2.0000      -0.664263       -18.0755
  38   2.0000      -0.643843       -17.5199
  39   2.0000      -0.610662       -16.6170
  40   2.0000      -0.592878       -16.1330
  41   2.0000      -0.573933       -15.6175
  42   2.0000      -0.559156       -15.2154
  43   2.0000      -0.551899       -15.0179
  44   2.0000      -0.548864       -14.9353
  45   2.0000      -0.542763       -14.7693
  46   2.0000      -0.518834       -14.1182
  47   2.0000      -0.516939       -14.0666
  48   2.0000      -0.507400       -13.8070
  49   2.0000      -0.493122       -13.4185
  50   2.0000      -0.485073       -13.1995
  51   2.0000      -0.479723       -13.0539
  52   2.0000      -0.476878       -12.9765
  53   2.0000      -0.469158       -12.7665
  54   2.0000      -0.459067       -12.4919
  55   2.0000      -0.444939       -12.1074
  56   2.0000      -0.441769       -12.0211
  57   2.0000      -0.437723       -11.9111
  58   2.0000      -0.427202       -11.6247
  59   2.0000      -0.424717       -11.5571
  60   2.0000      -0.418730       -11.3942
  61   2.0000      -0.406931       -11.0732
  62   2.0000      -0.402960       -10.9651
  63   2.0000      -0.340795        -9.2735
  64   2.0000      -0.329130        -8.9561
  65   2.0000      -0.326225        -8.8770
  66   2.0000      -0.302759        -8.2385
  67   0.0000       0.036290         0.9875
  68   0.0000       0.059622         1.6224
  69   0.0000       0.110505         3.0070
  70   0.0000       0.120341         3.2746
  71   0.0000       0.127169         3.4604

MULLIKEN ATOMIC CHARGES
-----------------------
   0 S :    0.102628
   1 C :   -0.101478
   2 C :   -0.145384
   3 C :    0.061438
   4 C :   -0.172764
   5 H :    0.012259
   6 C :    0.106675
   7 H :    0.007904
   8 H :    0.027787
   9 C :   -0.078417
  10 H :    0.025764
  11 H :    0.021273
  12 C :   -0.062008
  13 H :    0.039755
  14 H :    0.060284
  15 H :    0.033943
  16 S :    0.108014
  17 C :   -0.095821
  18 C :   -0.050258
  19 C :   -0.015909
  20 C :   -0.167815
  21 H :    0.029064
  22 C :    0.081625
  23 H :    0.014306
  24 H :    0.035123
  25 C :   -0.108547
  26 H :    0.024429
  27 H :    0.040879
  28 C :   -0.011921
  29 H :    0.030856
  30 H :    0.025716
  31 H :    0.019002
  32 H :    0.048506
  33 H :    0.053091
Sum of atomic charges:   -0.0000000

LOEWDIN ATOMIC CHARGES
----------------------
   0 S :    0.384968
   1 C :   -0.201139
   2 C :   -0.059744
   3 C :   -0.055502
   4 C :   -0.181537
   5 H :    0.029624
   6 C :   -0.031461
   7 H :    0.026643
   8 H :    0.031422
   9 C :   -0.044610
  10 H :    0.024589
  11 H :    0.023530
  12 C :   -0.064071
  13 H :    0.032856
  14 H :    0.026849
  15 H :    0.022945
  16 S :    0.433339
  17 C :   -0.194325
  18 C :   -0.081325
  19 C :   -0.053744
  20 C :   -0.209475
  21 H :    0.036387
  22 C :   -0.033950
  23 H :    0.032023
  24 H :    0.034657
  25 C :   -0.049290
  26 H :    0.027950
  27 H :    0.025790
  28 C :   -0.060077
  29 H :    0.026029
  30 H :    0.021148
  31 H :    0.024680
  32 H :    0.028326
  33 H :    0.026495

  Mayer bond orders larger than 0.100000
B(  0-S ,  1-C ) :   1.1375 B(  0-S ,  4-C ) :   1.1354 B(  1-C ,  2-C ) :   1.6209
B(  1-C , 32-H ) :   0.9675 B(  2-C ,  3-C ) :   1.2137 B(  2-C ,  6-C ) :   1.0135
B(  3-C ,  4-C ) :   1.6025 B(  3-C ,  5-H ) :   0.9939 B(  4-C , 20-C ) :   1.0064
B(  6-C ,  7-H ) :   0.9322 B(  6-C ,  8-H ) :   0.9427 B(  6-C ,  9-C ) :   1.0849
B(  9-C , 10-H ) :   0.9527 B(  9-C , 11-H ) :   0.9513 B(  9-C , 12-C ) :   1.0743
B( 12-C , 13-H ) :   0.9714 B( 12-C , 14-H ) :   0.9706 B( 12-C , 15-H ) :   0.9764
B( 16-S , 17-C ) :   1.1883 B( 16-S , 20-C ) :   1.1456 B( 17-C , 18-C ) :   1.5818
B( 17-C , 33-H ) :   0.9699 B( 18-C , 19-C ) :   1.2480 B( 18-C , 21-H ) :   0.9915
B( 19-C , 20-C ) :   1.5916 B( 19-C , 22-C ) :   1.0421 B( 22-C , 23-H ) :   0.9331
B( 22-C , 24-H ) :   0.9327 B( 22-C , 25-C ) :   1.0780 B( 25-C , 26-H ) :   0.9510
B( 25-C , 27-H ) :   0.9477 B( 25-C , 28-C ) :   1.0855 B( 28-C , 29-H ) :   0.9715
B( 28-C , 30-H ) :   0.9741 B( 28-C , 31-H ) :   0.9703

Dispersion correction           -0.015859826
FINAL SINGLE POINT ENERGY     -1339.885648125120

DIPOLE MOMENT
-------------
                                X             Y             Z
Electronic contribution:    -21.26136      -6.25319      13.55003
Nuclear contribution   :     21.54059       6.30366     -13.95180
                        -----------------------------------------
Total Dipole Moment    :      0.27923       0.05047      -0.40177
                        -----------------------------------------
Magnitude (a.u.)       :      0.49187
Magnitude (Debye)      :      1.25022

Rotational constants in cm-1:     0.018690     0.009680     0.008134
Rotational constants in MHz :   560.324107   290.195171   243.863162

                             ****ORCA TERMINATED NORMALLY****
TOTAL RUN TIME: 0 days 0 hours 0 minutes 21 seconds 698 msec
