                         Program Version 4.2.1 -  RELEASE  -
|  1> ! wB97X-D3 SP def2-SVP
|  2> %pal
|  3> nprocs 24
|  4> end
|  5>
|  6> * xyz 0 1
|  7> S 	 -57.2404 	 -0.02892 	 -32.921
|  8> C 	 -58.2011 	 0.45458 	 -31.5605
|  9> C 	 -58.3692 	 1.82997 	 -31.4221
| 10> C 	 -57.8972 	 2.49798 	 -32.6348
| 11> C 	 -57.1746 	 1.69069 	 -33.5223
| 12> H 	 -57.9917 	 3.56292 	 -32.761
| 13> C 	 -59.1673 	 2.52008 	 -30.3014
| 14> H 	 -59.0471 	 3.60197 	 -30.4286
| 15> H 	 -58.667 	 2.26447 	 -29.4062
| 16> C 	 -60.7207 	 2.09604 	 -30.1987
| 17> H 	 -60.9042 	 1.03878 	 -30.0772
| 18> H 	 -61.0788 	 2.54715 	 -29.2821
| 19> C 	 -61.6344 	 2.59731 	 -31.3646
| 20> H 	 -61.2031 	 2.33608 	 -32.3224
| 21> H 	 -62.7091 	 2.26854 	 -31.3255
| 22> H 	 -61.7108 	 3.67595 	 -31.3844
| 23> S 	 -56.3972 	 0.911654 	 -36.1014
| 24> C 	 -55.69 	 2.01954 	 -37.2047
| 25> C 	 -55.3391 	 3.1972 	 -36.5786
| 26> C 	 -55.6876 	 3.21345 	 -35.1723
| 27> C 	 -56.3771 	 2.05929 	 -34.7512
| 28> H 	 -54.837 	 3.99726 	 -37.0887
| 29> C 	 -55.439 	 4.39863 	 -34.2862
| 30> H 	 -54.4081 	 4.68823 	 -34.5155
| 31> H 	 -55.3801 	 3.9461 	 -33.2978
| 32> C 	 -56.3087 	 5.60173 	 -34.4069
| 33> H 	 -56.4391 	 5.98824 	 -33.3792
| 34> H 	 -57.3651 	 5.28694 	 -34.6538
| 35> C 	 -55.8776 	 6.60991 	 -35.5234
| 36> H 	 -55.776 	 6.02189 	 -36.4584
| 37> H 	 -54.9264 	 7.05883 	 -35.2756
| 38> H 	 -56.624 	 7.38673 	 -35.5489
| 39> H 	 -58.4557 	 -0.353505 	 -30.8455
| 40> H 	 -55.3912 	 1.76568 	 -38.1705
| 41> *
| 42>
| 43>                          ****END OF INPUT****

CARTESIAN COORDINATES (ANGSTROEM)
---------------------------------
  S    -57.240400   -0.028920  -32.921000
  C    -58.201100    0.454580  -31.560500
  C    -58.369200    1.829970  -31.422100
  C    -57.897200    2.497980  -32.634800
  C    -57.174600    1.690690  -33.522300
  H    -57.991700    3.562920  -32.761000
  C    -59.167300    2.520080  -30.301400
  H    -59.047100    3.601970  -30.428600
  H    -58.667000    2.264470  -29.406200
  C    -60.720700    2.096040  -30.198700
  H    -60.904200    1.038780  -30.077200
  H    -61.078800    2.547150  -29.282100
  C    -61.634400    2.597310  -31.364600
  H    -61.203100    2.336080  -32.322400
  H    -62.709100    2.268540  -31.325500
  H    -61.710800    3.675950  -31.384400
  S    -56.397200    0.911654  -36.101400
  C    -55.690000    2.019540  -37.204700
  C    -55.339100    3.197200  -36.578600
  C    -55.687600    3.213450  -35.172300
  C    -56.377100    2.059290  -34.751200
  H    -54.837000    3.997260  -37.088700
  C    -55.439000    4.398630  -34.286200
  H    -54.408100    4.688230  -34.515500
  H    -55.380100    3.946100  -33.297800
  C    -56.308700    5.601730  -34.406900
  H    -56.439100    5.988240  -33.379200
  H    -57.365100    5.286940  -34.653800
  C    -55.877600    6.609910  -35.523400
  H    -55.776000    6.021890  -36.458400
  H    -54.926400    7.058830  -35.275600
  H    -56.624000    7.386730  -35.548900
  H    -58.455700   -0.353505  -30.845500
  H    -55.391200    1.765680  -38.170500

 Total Charge           Charge          ....    0
 Multiplicity           Mult            ....    1
 Number of Electrons    NEL             ....  134
 Basis Dimension        Dim             ....  322

ORBITAL ENERGIES
----------------

  NO   OCC          E(Eh)            E(eV)
   0   2.0000     -88.966780     -2420.9092
   1   2.0000     -88.963146     -2420.8103
   2   2.0000     -10.343651      -281.4651
   3   2.0000     -10.334841      -281.2253
   4   2.0000     -10.319041      -280.7954
   5   2.0000     -10.314231      -280.6645
   6   2.0000     -10.308384      -280.5054
   7   2.0000     -10.306117      -280.4437
   8   2.0000     -10.303018      -280.3594
   9   2.0000     -10.301768      -280.3254
  10   2.0000     -10.294946      -280.1397
  11   2.0000     -10.294807      -280.1359
  12   2.0000     -10.291339      -280.0416
  13   2.0000     -10.284819      -279.8641
  14   2.0000     -10.284435      -279.8537
  15   2.0000     -10.278723      -279.6983
  16   2.0000      -8.080816      -219.8902
  17   2.0000      -8.078294      -219.8216
  18   2.0000      -6.039372      -164.3397
  19   2.0000      -6.036830      -164.2705
  20   2.0000      -6.035479      -164.2337
  21   2.0000      -6.032584      -164.1549
  22   2.0000      -6.031521      -164.1260
  23   2.0000      -6.029175      -164.0622
  24   2.0000      -0.998829       -27.1795
  25   2.0000      -0.978758       -26.6334
  26   2.0000      -0.913938       -24.8695
  27   2.0000      -0.898097       -24.4385
  28   2.0000      -0.862394       -23.4669
  29   2.0000      -0.847864       -23.0716
  30   2.0000      -0.842089       -22.9144
  31   2.0000      -0.815064       -22.1790
  32   2.0000      -0.784602       -21.3501
  33   2.0000      -0.771588       -20.9960
  34   2.0000      -0.706464       -19.2239
  35   2.0000      -0.704793       -19.1784
  36   2.0000      -0.690647       -18.7935
  37   2.0000      -0.665358       -18.1053
  38   2.0000      -0.639236       -17.3945
  39   2.0000      -0.616185       -16.7672
  40   2.0000      -0.595123       -16.1941
  41   2.0000      -0.567605       -15.4453
  42   2.0000      -0.558654       -15.2018
  43   2.0000      -0.544511       -14.8169
  44   2.0000      -0.538456       -14.6521
  45   2.0000      -0.535184       -14.5631
  46   2.0000      -0.516351       -14.0506
  47   2.0000      -0.511594       -13.9212
  48   2.0000      -0.501258       -13.6399
  49   2.0000      -0.495290       -13.4775
  50   2.0000      -0.485615       -13.2143
  51   2.0000      -0.478562       -13.0223
  52   2.0000      -0.471233       -12.8229
  53   2.0000      -0.468990       -12.7619
  54   2.0000      -0.458377       -12.4731
  55   2.0000      -0.450970       -12.2715
  56   2.0000      -0.440958       -11.9991
  57   2.0000      -0.440034       -11.9739
  58   2.0000      -0.433410       -11.7937
  59   2.0000      -0.429653       -11.6915
  60   2.0000      -0.421217       -11.4619
  61   2.0000      -0.417694       -11.3660
  62   2.0000      -0.405757       -11.0412
  63   2.0000      -0.354109        -9.6358
  64   2.0000      -0.331730        -9.0268
  65   2.0000      -0.327537        -8.9127
  66   2.0000      -0.287732        -7.8296
  67   0.0000       0.022734         0.6186
  68   0.0000       0.073627         2.0035
  69   0.0000       0.099590         2.7100
  70   0.0000       0.120032         3.2662
  71   0.0000       0.131050         3.5661

MULLIKEN ATOMIC CHARGES
-----------------------
   0 S :    0.095750
   1 C :   -0.139212
   2 C :   -0.108634
   3 C :    0.020343
   4 C :   -0.115165
   5 H :    0.003248
   6 C :    0.080706
   7 H :    0.025057
   8 H :    0.029928
   9 C :   -0.056231
  10 H :    0.033226
  11 H :    0.025263
  12 C :   -0.072122
  13 H :    0.040249
  14 H :    0.043793
  15 H :    0.019473
  16 S :    0.093676
  17 C :   -0.055335
  18 C :   -0.036154
  19 C :   -0.080594
  20 C :   -0.135341
  21 H :    0.017717
  22 C :    0.055725
  23 H :    0.017970
  24 H :    0.029890
  25 C :   -0.089946
  26 H :    0.032306
  27 H :    0.036281
  28 C :   -0.027219
  29 H :    0.039886
  30 H :    0.030910
  31 H :    0.037743
  32 H :    0.068355
  33 H :    0.038456
Sum of atomic charges:    0.0000000

LOEWDIN ATOMIC CHARGES
----------------------
   0 S :    0.380610
   1 C :   -0.197728
   2 C :   -0.067864
   3 C :   -0.061515
   4 C :   -0.170979
   5 H :    0.027051
   6 C :   -0.023397
   7 H :    0.031601
   8 H :    0.029503
   9 C :   -0.031527
  10 H :    0.022676
  11 H :    0.021725
  12 C :   -0.072404
  13 H :    0.025110
  14 H :    0.033699
  15 H :    0.019707
  16 S :    0.409202
  17 C :   -0.178596
  18 C :   -0.075868
  19 C :   -0.051820
  20 C :   -0.196262
  21 H :    0.027072
  22 C :   -0.044572
  23 H :    0.032295
  24 H :    0.034314
  25 C :   -0.049527
  26 H :    0.026744
  27 H :    0.027224
  28 C :   -0.056557
  29 H :    0.030463
  30 H :    0.021975
  31 H :    0.026783
  32 H :    0.031921
  33 H :    0.018937

  Mayer bond orders larger than 0.100000
B(  0-S ,  1-C ) :   1.1554 B(  0-S ,  4-C ) :   1.1337 B(  1-C ,  2-C ) :   1.6024
B(  1-C , 32-H ) :   0.9634 B(  2-C ,  3-C ) :   1.2329 B(  2-C ,  6-C ) :   1.0216
B(  3-C ,  4-C ) :   1.5850 B(  3-C ,  5-H ) :   0.9900 B(  4-C , 20-C ) :   1.0335
B(  6-C ,  7-H ) :   0.9469 B(  6-C ,  8-H ) :   0.9362 B(  6-C ,  9-C ) :   1.0601
B(  9-C , 10-H ) :   0.9626 B(  9-C , 11-H ) :   0.9580 B(  9-C , 12-C ) :   1.0655
B( 12-C , 13-H ) :   0.9794 B( 12-C , 14-H ) :   0.9757 B( 12-C , 15-H ) :   0.9768
B( 16-S , 17-C ) :   1.1773 B( 16-S , 20-C ) :   1.1331 B( 17-C , 18-C ) :   1.5818
B( 17-C , 33-H ) :   0.9733 B( 18-C , 19-C ) :   1.2516 B( 18-C , 21-H ) :   0.9894
B( 19-C , 20-C ) :   1.5806 B( 19-C , 22-C ) :   1.0524 B( 22-C , 23-H ) :   0.9284
B( 22-C , 24-H ) :   0.9322 B( 22-C , 25-C ) :   1.0516 B( 25-C , 26-H ) :   0.9554
B( 25-C , 27-H ) :   0.9556 B( 25-C , 28-C ) :   1.0651 B( 28-C , 29-H ) :   0.9727
B( 28-C , 30-H ) :   0.9765 B( 28-C , 31-H ) :   0.9732

Dispersion correction           -0.014442984
FINAL SINGLE POINT ENERGY     -1339.881508715367

DIPOLE MOMENT
-------------
                                X             Y             Z
Electronic contribution:     10.69102     -22.91437      -9.94675
Nuclear contribution   :    -10.76505      23.54057      10.25803
                        -----------------------------------------
Total Dipole Moment    :     -0.07403       0.62620       0.31128
                        -----------------------------------------
Magnitude (a.u.)       :      0.70321
Magnitude (Debye)      :      1.78742

Rotational constants in cm-1:     0.018717     0.008350     0.006438
Rotational constants in MHz :   561.118665   250.311750   193.011394

                             ****ORCA TERMINATED NORMALLY****
TOTAL RUN TIME: 0 days 0 hours 0 minutes 21 seconds 295 msec
