                         Program Version 4.2.1 -  RELEASE  -
|  1> ! wB97X-D3 SP def2-SVP
|  2> %pal
|  3> nprocs 24
|  4> end
|  5>
|  6> * xyz 0 1
|  7> S 	 -114.308 	 20.7578 	 -114.445
|  8> C 	 -115.924 	 21.38 	 -114.999
|  9> C 	 -116.905 	 20.4338 	 -114.667
| 10> C 	 -116.38 	 19.3815 	 -113.93
| 11> C 	 -115.057 	 19.3904 	 -113.673
| 12> H 	 -116.935 	 18.5266 	 -113.527
| 13> C 	 -118.324 	 20.5917 	 -114.928
| 14> H 	 -118.307 	 20.1593 	 -115.92
| 15> H 	 -118.419 	 21.6656 	 -115.11
| 16> C 	 -119.367 	 20.1143 	 -113.912
| 17> H 	 -119.06 	 19.0589 	 -113.788
| 18> H 	 -119.115 	 20.4928 	 -112.879
| 19> C 	 -120.822 	 20.2118 	 -114.3
| 20> H 	 -120.94 	 21.1134 	 -114.793
| 21> H 	 -121.261 	 19.4713 	 -115.001
| 22> H 	 -121.397 	 20.1812 	 -113.399
| 23> S 	 -113.22 	 19.1186 	 -111.731
| 24> C 	 -112.699 	 17.594 	 -111.133
| 25> C 	 -113.34 	 16.577 	 -111.845
| 26> C 	 -114.296 	 17.038 	 -112.762
| 27> C 	 -114.267 	 18.4154 	 -112.941
| 28> H 	 -113.271 	 15.5672 	 -111.571
| 29> C 	 -115.001 	 16.1668 	 -113.711
| 30> H 	 -115.868 	 16.6188 	 -114.021
| 31> H 	 -115.189 	 15.2478 	 -113.165
| 32> C 	 -114.278 	 15.5984 	 -114.94
| 33> H 	 -114.944 	 14.8831 	 -115.452
| 34> H 	 -113.435 	 14.976 	 -114.568
| 35> C 	 -113.601 	 16.6591 	 -115.857
| 36> H 	 -113.042 	 16.1874 	 -116.623
| 37> H 	 -112.883 	 17.2743 	 -115.295
| 38> H 	 -114.412 	 17.126 	 -116.397
| 39> H 	 -116.101 	 22.3081 	 -115.487
| 40> H 	 -111.99 	 17.3178 	 -110.446
| 41> *
| 42>
| 43>                          ****END OF INPUT****

CARTESIAN COORDINATES (ANGSTROEM)
---------------------------------
  S    -114.308000   20.757800  -114.445000
  C    -115.924000   21.380000  -114.999000
  C    -116.905000   20.433800  -114.667000
  C    -116.380000   19.381500  -113.930000
  C    -115.057000   19.390400  -113.673000
  H    -116.935000   18.526600  -113.527000
  C    -118.324000   20.591700  -114.928000
  H    -118.307000   20.159300  -115.920000
  H    -118.419000   21.665600  -115.110000
  C    -119.367000   20.114300  -113.912000
  H    -119.060000   19.058900  -113.788000
  H    -119.115000   20.492800  -112.879000
  C    -120.822000   20.211800  -114.300000
  H    -120.940000   21.113400  -114.793000
  H    -121.261000   19.471300  -115.001000
  H    -121.397000   20.181200  -113.399000
  S    -113.220000   19.118600  -111.731000
  C    -112.699000   17.594000  -111.133000
  C    -113.340000   16.577000  -111.845000
  C    -114.296000   17.038000  -112.762000
  C    -114.267000   18.415400  -112.941000
  H    -113.271000   15.567200  -111.571000
  C    -115.001000   16.166800  -113.711000
  H    -115.868000   16.618800  -114.021000
  H    -115.189000   15.247800  -113.165000
  C    -114.278000   15.598400  -114.940000
  H    -114.944000   14.883100  -115.452000
  H    -113.435000   14.976000  -114.568000
  C    -113.601000   16.659100  -115.857000
  H    -113.042000   16.187400  -116.623000
  H    -112.883000   17.274300  -115.295000
  H    -114.412000   17.126000  -116.397000
  H    -116.101000   22.308100  -115.487000
  H    -111.990000   17.317800  -110.446000

 Total Charge           Charge          ....    0
 Multiplicity           Mult            ....    1
 Number of Electrons    NEL             ....  134
 Basis Dimension        Dim             ....  322

ORBITAL ENERGIES
----------------

  NO   OCC          E(Eh)            E(eV)
   0   2.0000     -88.966172     -2420.8926
   1   2.0000     -88.964439     -2420.8455
   2   2.0000     -10.325709      -280.9768
   3   2.0000     -10.324724      -280.9500
   4   2.0000     -10.314578      -280.6739
   5   2.0000     -10.312017      -280.6043
   6   2.0000     -10.297927      -280.2208
   7   2.0000     -10.296498      -280.1820
   8   2.0000     -10.294895      -280.1383
   9   2.0000     -10.287615      -279.9402
  10   2.0000     -10.286950      -279.9221
  11   2.0000     -10.286782      -279.9176
  12   2.0000     -10.284174      -279.8466
  13   2.0000     -10.277383      -279.6618
  14   2.0000     -10.275934      -279.6224
  15   2.0000     -10.267636      -279.3966
  16   2.0000      -8.081258      -219.9022
  17   2.0000      -8.078185      -219.8186
  18   2.0000      -6.039691      -164.3484
  19   2.0000      -6.036741      -164.2681
  20   2.0000      -6.035423      -164.2322
  21   2.0000      -6.032847      -164.1621
  22   2.0000      -6.032355      -164.1487
  23   2.0000      -6.028928      -164.0555
  24   2.0000      -1.012252       -27.5448
  25   2.0000      -0.988334       -26.8939
  26   2.0000      -0.920981       -25.0612
  27   2.0000      -0.912324       -24.8256
  28   2.0000      -0.874370       -23.7928
  29   2.0000      -0.850588       -23.1457
  30   2.0000      -0.847206       -23.0537
  31   2.0000      -0.820799       -22.3351
  32   2.0000      -0.787793       -21.4369
  33   2.0000      -0.776851       -21.1392
  34   2.0000      -0.720059       -19.5938
  35   2.0000      -0.700013       -19.0483
  36   2.0000      -0.696992       -18.9661
  37   2.0000      -0.664566       -18.0838
  38   2.0000      -0.645061       -17.5530
  39   2.0000      -0.622372       -16.9356
  40   2.0000      -0.596922       -16.2431
  41   2.0000      -0.569638       -15.5006
  42   2.0000      -0.563273       -15.3274
  43   2.0000      -0.552877       -15.0445
  44   2.0000      -0.546933       -14.8828
  45   2.0000      -0.535721       -14.5777
  46   2.0000      -0.519356       -14.1324
  47   2.0000      -0.518368       -14.1055
  48   2.0000      -0.505472       -13.7546
  49   2.0000      -0.500497       -13.6192
  50   2.0000      -0.495589       -13.4857
  51   2.0000      -0.484035       -13.1713
  52   2.0000      -0.476514       -12.9666
  53   2.0000      -0.472449       -12.8560
  54   2.0000      -0.461611       -12.5611
  55   2.0000      -0.448873       -12.2145
  56   2.0000      -0.443144       -12.0586
  57   2.0000      -0.438443       -11.9306
  58   2.0000      -0.431970       -11.7545
  59   2.0000      -0.421173       -11.4607
  60   2.0000      -0.415324       -11.3015
  61   2.0000      -0.406849       -11.0709
  62   2.0000      -0.404936       -11.0189
  63   2.0000      -0.346057        -9.4167
  64   2.0000      -0.331033        -9.0079
  65   2.0000      -0.329874        -8.9763
  66   2.0000      -0.288079        -7.8390
  67   0.0000       0.025514         0.6943
  68   0.0000       0.072596         1.9754
  69   0.0000       0.113379         3.0852
  70   0.0000       0.117139         3.1875
  71   0.0000       0.139127         3.7858

MULLIKEN ATOMIC CHARGES
-----------------------
   0 S :    0.099453
   1 C :   -0.131453
   2 C :   -0.082849
   3 C :   -0.023230
   4 C :   -0.115268
   5 H :    0.018310
   6 C :    0.081877
   7 H :    0.042793
   8 H :    0.010629
   9 C :   -0.105405
  10 H :    0.027504
  11 H :    0.044274
  12 C :    0.014617
  13 H :    0.011326
  14 H :    0.037998
  15 H :    0.033142
  16 S :    0.115159
  17 C :   -0.032810
  18 C :   -0.043436
  19 C :   -0.056728
  20 C :   -0.149964
  21 H :   -0.000170
  22 C :    0.121106
  23 H :   -0.014476
  24 H :    0.012145
  25 C :   -0.097927
  26 H :    0.033325
  27 H :    0.016380
  28 C :   -0.025721
  29 H :    0.016274
  30 H :    0.054494
  31 H :    0.029998
  32 H :    0.035717
  33 H :    0.022916
Sum of atomic charges:   -0.0000000

LOEWDIN ATOMIC CHARGES
----------------------
   0 S :    0.384198
   1 C :   -0.184733
   2 C :   -0.056561
   3 C :   -0.080871
   4 C :   -0.191488
   5 H :    0.032010
   6 C :   -0.042192
   7 H :    0.043661
   8 H :    0.029257
   9 C :   -0.046888
  10 H :    0.024242
  11 H :    0.036787
  12 C :   -0.058381
  13 H :    0.016676
  14 H :    0.033838
  15 H :    0.030171
  16 S :    0.434324
  17 C :   -0.182759
  18 C :   -0.064238
  19 C :   -0.061014
  20 C :   -0.197150
  21 H :    0.022278
  22 C :   -0.029667
  23 H :    0.012722
  24 H :    0.034491
  25 C :   -0.036173
  26 H :    0.025929
  27 H :    0.020295
  28 C :   -0.064750
  29 H :    0.019523
  30 H :    0.033191
  31 H :    0.025195
  32 H :    0.021267
  33 H :    0.016807

  Mayer bond orders larger than 0.100000
B(  0-S ,  1-C ) :   1.1174 B(  0-S ,  4-C ) :   1.1525 B(  1-C ,  2-C ) :   1.5854
B(  1-C ,  4-C ) :   0.1092 B(  1-C , 32-H ) :   0.9760 B(  2-C ,  3-C ) :   1.2503
B(  2-C ,  6-C ) :   1.0067 B(  3-C ,  4-C ) :   1.5933 B(  3-C ,  5-H ) :   0.9849
B(  4-C , 20-C ) :   1.0163 B(  6-C ,  7-H ) :   0.9195 B(  6-C ,  8-H ) :   0.9286
B(  6-C ,  9-C ) :   1.0635 B(  9-C , 10-H ) :   0.9450 B(  9-C , 11-H ) :   0.9572
B(  9-C , 12-C ) :   1.0792 B( 12-C , 13-H ) :   0.9740 B( 12-C , 14-H ) :   0.9726
B( 12-C , 15-H ) :   0.9707 B( 16-S , 17-C ) :   1.1740 B( 16-S , 20-C ) :   1.1553
B( 17-C , 18-C ) :   1.5645 B( 17-C , 20-C ) :   0.1105 B( 17-C , 33-H ) :   0.9759
B( 18-C , 19-C ) :   1.2791 B( 18-C , 21-H ) :   0.9905 B( 19-C , 20-C ) :   1.5430
B( 19-C , 22-C ) :   1.0788 B( 22-C , 23-H ) :   0.9273 B( 22-C , 24-H ) :   0.9161
B( 22-C , 25-C ) :   1.0722 B( 25-C , 26-H ) :   0.9555 B( 25-C , 27-H ) :   0.9538
B( 25-C , 28-C ) :   1.0800 B( 28-C , 29-H ) :   0.9722 B( 28-C , 30-H ) :   0.9708
B( 28-C , 31-H ) :   0.9765

Dispersion correction           -0.014817522
FINAL SINGLE POINT ENERGY     -1339.852999096959

DIPOLE MOMENT
-------------
                                X             Y             Z
Electronic contribution:     19.67180      10.47809      10.54467
Nuclear contribution   :    -20.24162     -10.92577     -10.65855
                        -----------------------------------------
Total Dipole Moment    :     -0.56981      -0.44768      -0.11388
                        -----------------------------------------
Magnitude (a.u.)       :      0.73354
Magnitude (Debye)      :      1.86450

Rotational constants in cm-1:     0.019523     0.008321     0.007584
Rotational constants in MHz :   585.269833   249.464909   227.360662

                             ****ORCA TERMINATED NORMALLY****
TOTAL RUN TIME: 0 days 0 hours 0 minutes 21 seconds 152 msec
