                         Program Version 4.2.1 -  RELEASE  -
|  1> ! wB97X-D3 SP def2-SVP
|  2> %pal
|  3> nprocs 24
|  4> end
|  5>
|  6> * xyz 0 1
|  7> S 	 -107.529 	 61.7474 	 -7.499
|  8> C 	 -106.924 	 62.0977 	 -5.82614
|  9> C 	 -107.905 	 62.7451 	 -5.07797
| 10> C 	 -109.108 	 63.0135 	 -5.71472
| 11> C 	 -109.082 	 62.5211 	 -7.02793
| 12> H 	 -109.987 	 63.4902 	 -5.33861
| 13> C 	 -107.485 	 63.3634 	 -3.81151
| 14> H 	 -108.126 	 64.2066 	 -3.73223
| 15> H 	 -106.598 	 63.9157 	 -4.02592
| 16> C 	 -107.447 	 62.5901 	 -2.50447
| 17> H 	 -108.45 	 62.2388 	 -2.436
| 18> H 	 -106.907 	 61.6764 	 -2.67979
| 19> C 	 -106.828 	 63.2744 	 -1.32197
| 20> H 	 -105.876 	 63.5934 	 -1.67628
| 21> H 	 -107.35 	 64.1267 	 -0.990523
| 22> H 	 -106.672 	 62.55 	 -0.537435
| 23> S 	 -109.832 	 62.8207 	 -9.64218
| 24> C 	 -111.513 	 63.0311 	 -10.0128
| 25> C 	 -112.302 	 62.7137 	 -8.9465
| 26> C 	 -111.518 	 62.4821 	 -7.77255
| 27> C 	 -110.197 	 62.4972 	 -7.98
| 28> H 	 -113.398 	 62.7103 	 -9.14348
| 29> C 	 -112.165 	 62.0201 	 -6.47461
| 30> H 	 -111.402 	 61.7915 	 -5.71135
| 31> H 	 -112.632 	 61.0628 	 -6.75493
| 32> C 	 -113.207 	 62.9154 	 -5.78894
| 33> H 	 -114.117 	 62.9772 	 -6.36165
| 34> H 	 -112.631 	 63.8431 	 -5.68949
| 35> C 	 -113.554 	 62.4659 	 -4.39708
| 36> H 	 -113.503 	 61.3807 	 -4.28753
| 37> H 	 -114.53 	 62.8948 	 -4.12302
| 38> H 	 -112.781 	 62.7949 	 -3.67864
| 39> H 	 -105.898 	 61.8881 	 -5.47573
| 40> H 	 -111.961 	 63.4154 	 -10.9102
| 41> *
| 42>
| 43>                          ****END OF INPUT****

CARTESIAN COORDINATES (ANGSTROEM)
---------------------------------
  S    -107.529000   61.747400   -7.499000
  C    -106.924000   62.097700   -5.826140
  C    -107.905000   62.745100   -5.077970
  C    -109.108000   63.013500   -5.714720
  C    -109.082000   62.521100   -7.027930
  H    -109.987000   63.490200   -5.338610
  C    -107.485000   63.363400   -3.811510
  H    -108.126000   64.206600   -3.732230
  H    -106.598000   63.915700   -4.025920
  C    -107.447000   62.590100   -2.504470
  H    -108.450000   62.238800   -2.436000
  H    -106.907000   61.676400   -2.679790
  C    -106.828000   63.274400   -1.321970
  H    -105.876000   63.593400   -1.676280
  H    -107.350000   64.126700   -0.990523
  H    -106.672000   62.550000   -0.537435
  S    -109.832000   62.820700   -9.642180
  C    -111.513000   63.031100  -10.012800
  C    -112.302000   62.713700   -8.946500
  C    -111.518000   62.482100   -7.772550
  C    -110.197000   62.497200   -7.980000
  H    -113.398000   62.710300   -9.143480
  C    -112.165000   62.020100   -6.474610
  H    -111.402000   61.791500   -5.711350
  H    -112.632000   61.062800   -6.754930
  C    -113.207000   62.915400   -5.788940
  H    -114.117000   62.977200   -6.361650
  H    -112.631000   63.843100   -5.689490
  C    -113.554000   62.465900   -4.397080
  H    -113.503000   61.380700   -4.287530
  H    -114.530000   62.894800   -4.123020
  H    -112.781000   62.794900   -3.678640
  H    -105.898000   61.888100   -5.475730
  H    -111.961000   63.415400  -10.910200

 Total Charge           Charge          ....    0
 Multiplicity           Mult            ....    1
 Number of Electrons    NEL             ....  134
 Basis Dimension        Dim             ....  322

ORBITAL ENERGIES
----------------

  NO   OCC          E(Eh)            E(eV)
   0   2.0000     -88.970085     -2420.9991
   1   2.0000     -88.962531     -2420.7935
   2   2.0000     -10.337584      -281.3000
   3   2.0000     -10.319718      -280.8138
   4   2.0000     -10.318211      -280.7728
   5   2.0000     -10.313905      -280.6556
   6   2.0000     -10.299341      -280.2593
   7   2.0000     -10.297133      -280.1992
   8   2.0000     -10.295223      -280.1473
   9   2.0000     -10.294834      -280.1367
  10   2.0000     -10.289527      -279.9923
  11   2.0000     -10.283389      -279.8252
  12   2.0000     -10.279630      -279.7230
  13   2.0000     -10.277626      -279.6684
  14   2.0000     -10.275836      -279.6197
  15   2.0000     -10.272024      -279.5160
  16   2.0000      -8.082921      -219.9475
  17   2.0000      -8.078349      -219.8231
  18   2.0000      -6.041483      -164.3971
  19   2.0000      -6.037786      -164.2965
  20   2.0000      -6.036879      -164.2718
  21   2.0000      -6.033672      -164.1846
  22   2.0000      -6.032805      -164.1610
  23   2.0000      -6.028911      -164.0550
  24   2.0000      -1.012389       -27.5485
  25   2.0000      -0.983603       -26.7652
  26   2.0000      -0.918213       -24.9858
  27   2.0000      -0.913230       -24.8502
  28   2.0000      -0.873552       -23.7706
  29   2.0000      -0.859413       -23.3858
  30   2.0000      -0.849145       -23.1064
  31   2.0000      -0.821382       -22.3509
  32   2.0000      -0.782697       -21.2983
  33   2.0000      -0.771519       -20.9941
  34   2.0000      -0.711589       -19.3633
  35   2.0000      -0.705312       -19.1925
  36   2.0000      -0.694530       -18.8991
  37   2.0000      -0.661709       -18.0060
  38   2.0000      -0.638978       -17.3875
  39   2.0000      -0.623107       -16.9556
  40   2.0000      -0.595646       -16.2083
  41   2.0000      -0.577567       -15.7164
  42   2.0000      -0.571470       -15.5505
  43   2.0000      -0.562268       -15.3001
  44   2.0000      -0.534970       -14.5573
  45   2.0000      -0.530257       -14.4290
  46   2.0000      -0.523485       -14.2448
  47   2.0000      -0.513273       -13.9669
  48   2.0000      -0.504750       -13.7349
  49   2.0000      -0.499590       -13.5945
  50   2.0000      -0.489529       -13.3208
  51   2.0000      -0.483581       -13.1589
  52   2.0000      -0.479277       -13.0418
  53   2.0000      -0.465259       -12.6603
  54   2.0000      -0.458633       -12.4800
  55   2.0000      -0.452824       -12.3220
  56   2.0000      -0.446584       -12.1522
  57   2.0000      -0.435948       -11.8627
  58   2.0000      -0.430942       -11.7265
  59   2.0000      -0.426394       -11.6028
  60   2.0000      -0.421648       -11.4736
  61   2.0000      -0.414503       -11.2792
  62   2.0000      -0.406745       -11.0681
  63   2.0000      -0.353307        -9.6140
  64   2.0000      -0.338760        -9.2181
  65   2.0000      -0.329553        -8.9676
  66   2.0000      -0.284180        -7.7329
  67   0.0000       0.022908         0.6234
  68   0.0000       0.071434         1.9438
  69   0.0000       0.098039         2.6678
  70   0.0000       0.116819         3.1788
  71   0.0000       0.126376         3.4389

MULLIKEN ATOMIC CHARGES
-----------------------
   0 S :    0.092463
   1 C :   -0.125875
   2 C :   -0.069326
   3 C :    0.023603
   4 C :   -0.126968
   5 H :    0.006383
   6 C :    0.045983
   7 H :   -0.009722
   8 H :    0.008591
   9 C :   -0.027844
  10 H :    0.007043
  11 H :    0.009184
  12 C :    0.020815
  13 H :    0.013176
  14 H :    0.024464
  15 H :    0.035438
  16 S :    0.097670
  17 C :   -0.085793
  18 C :   -0.044882
  19 C :   -0.047870
  20 C :   -0.102974
  21 H :    0.035376
  22 C :    0.000487
  23 H :    0.025308
  24 H :    0.035790
  25 C :   -0.066317
  26 H :    0.031782
  27 H :    0.030793
  28 C :   -0.042749
  29 H :    0.028190
  30 H :    0.042500
  31 H :    0.025546
  32 H :    0.060437
  33 H :    0.049299
Sum of atomic charges:    0.0000000

LOEWDIN ATOMIC CHARGES
----------------------
   0 S :    0.362269
   1 C :   -0.182346
   2 C :   -0.062501
   3 C :   -0.063607
   4 C :   -0.155104
   5 H :    0.032099
   6 C :   -0.039056
   7 H :    0.023921
   8 H :    0.026588
   9 C :   -0.037938
  10 H :    0.018730
  11 H :    0.021151
  12 C :   -0.049462
  13 H :    0.024376
  14 H :    0.019617
  15 H :    0.030503
  16 S :    0.407666
  17 C :   -0.180837
  18 C :   -0.075534
  19 C :   -0.062892
  20 C :   -0.206156
  21 H :    0.041655
  22 C :   -0.035540
  23 H :    0.028074
  24 H :    0.033179
  25 C :   -0.044528
  26 H :    0.020957
  27 H :    0.026632
  28 C :   -0.066981
  29 H :    0.024297
  30 H :    0.030872
  31 H :    0.026345
  32 H :    0.033722
  33 H :    0.029830

  Mayer bond orders larger than 0.100000
B(  0-S ,  1-C ) :   1.1114 B(  0-S ,  4-C ) :   1.1551 B(  1-C ,  2-C ) :   1.6010
B(  1-C ,  4-C ) :   0.1125 B(  1-C , 32-H ) :   0.9673 B(  2-C ,  3-C ) :   1.2508
B(  2-C ,  6-C ) :   1.0129 B(  3-C ,  4-C ) :   1.5545 B(  3-C ,  5-H ) :   0.9933
B(  4-C , 20-C ) :   1.0225 B(  6-C ,  7-H ) :   0.9336 B(  6-C ,  8-H ) :   0.9380
B(  6-C ,  9-C ) :   1.0496 B(  9-C , 10-H ) :   0.9471 B(  9-C , 11-H ) :   0.9548
B(  9-C , 12-C ) :   1.0816 B( 12-C , 13-H ) :   0.9691 B( 12-C , 14-H ) :   0.9762
B( 12-C , 15-H ) :   0.9721 B( 16-S , 17-C ) :   1.1552 B( 16-S , 20-C ) :   1.1094
B( 17-C , 18-C ) :   1.6426 B( 17-C , 33-H ) :   0.9664 B( 18-C , 19-C ) :   1.1990
B( 18-C , 21-H ) :   0.9889 B( 19-C , 20-C ) :   1.6536 B( 19-C , 22-C ) :   1.0322
B( 22-C , 23-H ) :   0.9458 B( 22-C , 24-H ) :   0.9270 B( 22-C , 25-C ) :   1.0616
B( 25-C , 26-H ) :   0.9547 B( 25-C , 27-H ) :   0.9574 B( 25-C , 28-C ) :   1.0906
B( 28-C , 29-H ) :   0.9722 B( 28-C , 30-H ) :   0.9748 B( 28-C , 31-H ) :   0.9719

Dispersion correction           -0.013756497
FINAL SINGLE POINT ENERGY     -1339.862751087996

DIPOLE MOMENT
-------------
                                X             Y             Z
Electronic contribution:      8.43779      -3.37207     -30.91079
Nuclear contribution   :     -8.83360       3.57543      31.42169
                        -----------------------------------------
Total Dipole Moment    :     -0.39581       0.20336       0.51091
                        -----------------------------------------
Magnitude (a.u.)       :      0.67753
Magnitude (Debye)      :      1.72214

Rotational constants in cm-1:     0.018025     0.008693     0.006134
Rotational constants in MHz :   540.381841   260.595708   183.885737

                             ****ORCA TERMINATED NORMALLY****
TOTAL RUN TIME: 0 days 0 hours 0 minutes 20 seconds 398 msec
