                         Program Version 4.2.1 -  RELEASE  -
|  1> ! wB97X-D3 SP def2-SVP
|  2> %pal
|  3> nprocs 24
|  4> end
|  5>
|  6> * xyz 0 1
|  7> S 	 -114.653 	 60.433 	 -79.0377
|  8> C 	 -113.997 	 61.778 	 -79.9025
|  9> C 	 -113.007 	 61.337 	 -80.7313
| 10> C 	 -112.847 	 59.9255 	 -80.8328
| 11> C 	 -113.776 	 59.2328 	 -80.0083
| 12> H 	 -112.166 	 59.3661 	 -81.4924
| 13> C 	 -112.117 	 62.2886 	 -81.5089
| 14> H 	 -112.709 	 63.0036 	 -82.1243
| 15> H 	 -111.482 	 61.8068 	 -82.1964
| 16> C 	 -111.014 	 63.1192 	 -80.6633
| 17> H 	 -110.548 	 63.9368 	 -81.1581
| 18> H 	 -111.516 	 63.6603 	 -79.841
| 19> C 	 -109.953 	 62.2498 	 -79.8769
| 20> H 	 -109.189 	 61.6608 	 -80.4668
| 21> H 	 -109.341 	 62.9432 	 -79.2743
| 22> H 	 -110.376 	 61.4779 	 -79.1596
| 23> S 	 -114.575 	 56.7479 	 -81.2013
| 24> C 	 -114.871 	 55.4227 	 -80.1494
| 25> C 	 -114.734 	 55.7666 	 -78.8106
| 26> C 	 -114.018 	 57.0505 	 -78.6565
| 27> C 	 -113.965 	 57.7966 	 -79.8487
| 28> H 	 -115.008 	 55.007 	 -78.0695
| 29> C 	 -113.666 	 57.618 	 -77.2711
| 30> H 	 -113.724 	 56.7715 	 -76.5888
| 31> H 	 -114.292 	 58.397 	 -77.0539
| 32> C 	 -112.224 	 58.0703 	 -77.0074
| 33> H 	 -111.884 	 58.845 	 -77.7035
| 34> H 	 -111.461 	 57.3768 	 -77.1969
| 35> C 	 -111.975 	 58.4855 	 -75.5414
| 36> H 	 -112.599 	 59.3342 	 -75.2708
| 37> H 	 -110.995 	 58.7861 	 -75.3965
| 38> H 	 -112.186 	 57.6862 	 -74.7814
| 39> H 	 -114.077 	 62.7398 	 -79.5071
| 40> H 	 -115.48 	 54.5441 	 -80.4753
| 41> *
| 42>
| 43>                          ****END OF INPUT****

CARTESIAN COORDINATES (ANGSTROEM)
---------------------------------
  S    -114.653000   60.433000  -79.037700
  C    -113.997000   61.778000  -79.902500
  C    -113.007000   61.337000  -80.731300
  C    -112.847000   59.925500  -80.832800
  C    -113.776000   59.232800  -80.008300
  H    -112.166000   59.366100  -81.492400
  C    -112.117000   62.288600  -81.508900
  H    -112.709000   63.003600  -82.124300
  H    -111.482000   61.806800  -82.196400
  C    -111.014000   63.119200  -80.663300
  H    -110.548000   63.936800  -81.158100
  H    -111.516000   63.660300  -79.841000
  C    -109.953000   62.249800  -79.876900
  H    -109.189000   61.660800  -80.466800
  H    -109.341000   62.943200  -79.274300
  H    -110.376000   61.477900  -79.159600
  S    -114.575000   56.747900  -81.201300
  C    -114.871000   55.422700  -80.149400
  C    -114.734000   55.766600  -78.810600
  C    -114.018000   57.050500  -78.656500
  C    -113.965000   57.796600  -79.848700
  H    -115.008000   55.007000  -78.069500
  C    -113.666000   57.618000  -77.271100
  H    -113.724000   56.771500  -76.588800
  H    -114.292000   58.397000  -77.053900
  C    -112.224000   58.070300  -77.007400
  H    -111.884000   58.845000  -77.703500
  H    -111.461000   57.376800  -77.196900
  C    -111.975000   58.485500  -75.541400
  H    -112.599000   59.334200  -75.270800
  H    -110.995000   58.786100  -75.396500
  H    -112.186000   57.686200  -74.781400
  H    -114.077000   62.739800  -79.507100
  H    -115.480000   54.544100  -80.475300

 Total Charge           Charge          ....    0
 Multiplicity           Mult            ....    1
 Number of Electrons    NEL             ....  134
 Basis Dimension        Dim             ....  322

ORBITAL ENERGIES
----------------

  NO   OCC          E(Eh)            E(eV)
   0   2.0000     -88.968218     -2420.9483
   1   2.0000     -88.965771     -2420.8817
   2   2.0000     -10.338560      -281.3265
   3   2.0000     -10.332928      -281.1733
   4   2.0000     -10.321552      -280.8637
   5   2.0000     -10.314178      -280.6631
   6   2.0000     -10.310510      -280.5632
   7   2.0000     -10.303981      -280.3856
   8   2.0000     -10.303398      -280.3697
   9   2.0000     -10.302397      -280.3425
  10   2.0000     -10.295547      -280.1561
  11   2.0000     -10.295438      -280.1531
  12   2.0000     -10.289047      -279.9792
  13   2.0000     -10.286345      -279.9057
  14   2.0000     -10.277348      -279.6609
  15   2.0000     -10.272520      -279.5295
  16   2.0000      -8.082633      -219.9396
  17   2.0000      -8.080160      -219.8723
  18   2.0000      -6.041162      -164.3884
  19   2.0000      -6.038748      -164.3227
  20   2.0000      -6.037037      -164.2761
  21   2.0000      -6.034665      -164.2116
  22   2.0000      -6.033543      -164.1810
  23   2.0000      -6.030885      -164.1087
  24   2.0000      -1.002709       -27.2851
  25   2.0000      -0.981320       -26.7031
  26   2.0000      -0.907871       -24.7044
  27   2.0000      -0.897903       -24.4332
  28   2.0000      -0.867053       -23.5937
  29   2.0000      -0.847783       -23.0693
  30   2.0000      -0.842776       -22.9331
  31   2.0000      -0.812368       -22.1057
  32   2.0000      -0.783105       -21.3094
  33   2.0000      -0.770613       -20.9695
  34   2.0000      -0.710500       -19.3337
  35   2.0000      -0.703206       -19.1352
  36   2.0000      -0.692848       -18.8533
  37   2.0000      -0.658209       -17.9108
  38   2.0000      -0.644240       -17.5307
  39   2.0000      -0.611394       -16.6369
  40   2.0000      -0.592277       -16.1167
  41   2.0000      -0.573120       -15.5954
  42   2.0000      -0.567622       -15.4458
  43   2.0000      -0.544096       -14.8056
  44   2.0000      -0.534553       -14.5459
  45   2.0000      -0.521871       -14.2008
  46   2.0000      -0.513789       -13.9809
  47   2.0000      -0.509030       -13.8514
  48   2.0000      -0.507570       -13.8117
  49   2.0000      -0.491779       -13.3820
  50   2.0000      -0.484971       -13.1967
  51   2.0000      -0.483066       -13.1449
  52   2.0000      -0.474580       -12.9140
  53   2.0000      -0.467486       -12.7209
  54   2.0000      -0.458731       -12.4827
  55   2.0000      -0.445841       -12.1320
  56   2.0000      -0.439689       -11.9645
  57   2.0000      -0.435703       -11.8561
  58   2.0000      -0.433675       -11.8009
  59   2.0000      -0.427015       -11.6197
  60   2.0000      -0.415401       -11.3036
  61   2.0000      -0.411101       -11.1866
  62   2.0000      -0.407587       -11.0910
  63   2.0000      -0.343023        -9.3341
  64   2.0000      -0.331390        -9.0176
  65   2.0000      -0.328865        -8.9489
  66   2.0000      -0.297305        -8.0901
  67   0.0000       0.020583         0.5601
  68   0.0000       0.057350         1.5606
  69   0.0000       0.108358         2.9486
  70   0.0000       0.110036         2.9942
  71   0.0000       0.126973         3.4551

MULLIKEN ATOMIC CHARGES
-----------------------
   0 S :    0.101789
   1 C :   -0.083550
   2 C :   -0.087981
   3 C :    0.038061
   4 C :   -0.178719
   5 H :    0.028944
   6 C :    0.077122
   7 H :    0.042956
   8 H :    0.009517
   9 C :   -0.068530
  10 H :    0.027278
  11 H :    0.019266
  12 C :   -0.114759
  13 H :    0.035839
  14 H :    0.034278
  15 H :    0.054303
  16 S :    0.102899
  17 C :   -0.110738
  18 C :   -0.045551
  19 C :   -0.068316
  20 C :   -0.123146
  21 H :    0.038115
  22 C :    0.107294
  23 H :    0.017684
  24 H :    0.020940
  25 C :   -0.066971
  26 H :    0.026064
  27 H :    0.007941
  28 C :   -0.039244
  29 H :    0.023798
  30 H :    0.016184
  31 H :    0.031708
  32 H :    0.042973
  33 H :    0.082552
Sum of atomic charges:    0.0000000

LOEWDIN ATOMIC CHARGES
----------------------
   0 S :    0.418138
   1 C :   -0.190237
   2 C :   -0.067267
   3 C :   -0.056885
   4 C :   -0.185013
   5 H :    0.039055
   6 C :   -0.028732
   7 H :    0.037442
   8 H :    0.020515
   9 C :   -0.039787
  10 H :    0.020508
  11 H :    0.022241
  12 C :   -0.083532
  13 H :    0.024265
  14 H :    0.027239
  15 H :    0.032733
  16 S :    0.393566
  17 C :   -0.201592
  18 C :   -0.076453
  19 C :   -0.042477
  20 C :   -0.194642
  21 H :    0.036641
  22 C :   -0.024589
  23 H :    0.034046
  24 H :    0.013674
  25 C :   -0.039541
  26 H :    0.023638
  27 H :    0.017209
  28 C :   -0.059624
  29 H :    0.022497
  30 H :    0.016508
  31 H :    0.028412
  32 H :    0.020060
  33 H :    0.041987

  Mayer bond orders larger than 0.100000
B(  0-S ,  1-C ) :   1.1487 B(  0-S ,  4-C ) :   1.1642 B(  1-C ,  2-C ) :   1.5876
B(  1-C ,  4-C ) :   0.1020 B(  1-C , 32-H ) :   0.9736 B(  2-C ,  3-C ) :   1.2632
B(  2-C ,  6-C ) :   1.0235 B(  3-C ,  4-C ) :   1.5279 B(  3-C ,  5-H ) :   0.9929
B(  4-C , 20-C ) :   1.0740 B(  6-C ,  7-H ) :   0.9477 B(  6-C ,  8-H ) :   0.9493
B(  6-C ,  9-C ) :   1.0474 B(  9-C , 10-H ) :   0.9622 B(  9-C , 11-H ) :   0.9599
B(  9-C , 12-C ) :   1.0596 B( 12-C , 13-H ) :   0.9777 B( 12-C , 14-H ) :   0.9751
B( 12-C , 15-H ) :   0.9768 B( 16-S , 17-C ) :   1.1694 B( 16-S , 20-C ) :   1.1136
B( 17-C , 18-C ) :   1.6246 B( 17-C , 33-H ) :   0.9543 B( 18-C , 19-C ) :   1.2320
B( 18-C , 21-H ) :   0.9822 B( 19-C , 20-C ) :   1.5758 B( 19-C , 22-C ) :   1.0416
B( 22-C , 23-H ) :   0.9365 B( 22-C , 24-H ) :   0.9366 B( 22-C , 25-C ) :   1.0575
B( 25-C , 26-H ) :   0.9501 B( 25-C , 27-H ) :   0.9527 B( 25-C , 28-C ) :   1.0912
B( 28-C , 29-H ) :   0.9752 B( 28-C , 30-H ) :   0.9723 B( 28-C , 31-H ) :   0.9741

Dispersion correction           -0.014889317
FINAL SINGLE POINT ENERGY     -1339.855756866528

DIPOLE MOMENT
-------------
                                X             Y             Z
Electronic contribution:    -19.91936     -11.64387     -12.20201
Nuclear contribution   :     20.20861      11.80110      12.46442
                        -----------------------------------------
Total Dipole Moment    :      0.28925       0.15723       0.26240
                        -----------------------------------------
Magnitude (a.u.)       :      0.42100
Magnitude (Debye)      :      1.07010

Rotational constants in cm-1:     0.018693     0.008915     0.007191
Rotational constants in MHz :   560.409749   267.257511   215.582199

                             ****ORCA TERMINATED NORMALLY****
TOTAL RUN TIME: 0 days 0 hours 0 minutes 21 seconds 625 msec
