                         Program Version 4.2.1 -  RELEASE  -
|  1> ! wB97X-D3 SP def2-SVP
|  2> %pal
|  3> nprocs 24
|  4> end
|  5>
|  6> * xyz 0 1
|  7> S 	 -92.9004 	 2.99957 	 -2.45117
|  8> C 	 -91.3279 	 2.76925 	 -3.19295
|  9> C 	 -90.4227 	 3.72089 	 -2.81953
| 10> C 	 -91.0293 	 4.75775 	 -2.0819
| 11> C 	 -92.4124 	 4.58013 	 -1.89273
| 12> H 	 -90.5102 	 5.6324 	 -1.65443
| 13> C 	 -88.9017 	 3.76271 	 -3.04933
| 14> H 	 -88.4782 	 4.83677 	 -2.93524
| 15> H 	 -88.6718 	 3.37438 	 -4.04774
| 16> C 	 -88.1715 	 2.85158 	 -2.09828
| 17> H 	 -88.4313 	 3.12065 	 -1.11249
| 18> H 	 -88.564 	 1.81665 	 -2.25298
| 19> C 	 -86.6884 	 2.93506 	 -2.25684
| 20> H 	 -86.2393 	 3.94663 	 -2.26322
| 21> H 	 -86.2686 	 2.33075 	 -1.49454
| 22> H 	 -86.2246 	 2.47416 	 -3.10281
| 23> S 	 -94.9505 	 5.83921 	 -2.13339
| 24> C 	 -95.5837 	 6.76166 	 -0.771361
| 25> C 	 -94.6901 	 6.80058 	 0.232954
| 26> C 	 -93.5358 	 6.00932 	 0.0719914
| 27> C 	 -93.4894 	 5.39391 	 -1.19917
| 28> H 	 -94.8751 	 7.4707 	 1.02187
| 29> C 	 -92.345 	 5.91422 	 0.992724
| 30> H 	 -92.1133 	 6.88785 	 1.21531
| 31> H 	 -91.479 	 5.48474 	 0.469841
| 32> C 	 -92.7089 	 5.16697 	 2.20062
| 33> H 	 -93.5062 	 5.62681 	 2.7185
| 34> H 	 -91.854 	 5.1816 	 2.88867
| 35> C 	 -93.1373 	 3.73076 	 1.99038
| 36> H 	 -92.3716 	 3.2569 	 1.30901
| 37> H 	 -94.1647 	 3.65764 	 1.65722
| 38> H 	 -93.0187 	 3.12286 	 2.89815
| 39> H 	 -91.028 	 1.94106 	 -3.88262
| 40> H 	 -96.5448 	 7.26595 	 -0.761655
| 41> *
| 42>
| 43>                          ****END OF INPUT****

CARTESIAN COORDINATES (ANGSTROEM)
---------------------------------
  S    -92.900400    2.999570   -2.451170
  C    -91.327900    2.769250   -3.192950
  C    -90.422700    3.720890   -2.819530
  C    -91.029300    4.757750   -2.081900
  C    -92.412400    4.580130   -1.892730
  H    -90.510200    5.632400   -1.654430
  C    -88.901700    3.762710   -3.049330
  H    -88.478200    4.836770   -2.935240
  H    -88.671800    3.374380   -4.047740
  C    -88.171500    2.851580   -2.098280
  H    -88.431300    3.120650   -1.112490
  H    -88.564000    1.816650   -2.252980
  C    -86.688400    2.935060   -2.256840
  H    -86.239300    3.946630   -2.263220
  H    -86.268600    2.330750   -1.494540
  H    -86.224600    2.474160   -3.102810
  S    -94.950500    5.839210   -2.133390
  C    -95.583700    6.761660   -0.771361
  C    -94.690100    6.800580    0.232954
  C    -93.535800    6.009320    0.071991
  C    -93.489400    5.393910   -1.199170
  H    -94.875100    7.470700    1.021870
  C    -92.345000    5.914220    0.992724
  H    -92.113300    6.887850    1.215310
  H    -91.479000    5.484740    0.469841
  C    -92.708900    5.166970    2.200620
  H    -93.506200    5.626810    2.718500
  H    -91.854000    5.181600    2.888670
  C    -93.137300    3.730760    1.990380
  H    -92.371600    3.256900    1.309010
  H    -94.164700    3.657640    1.657220
  H    -93.018700    3.122860    2.898150
  H    -91.028000    1.941060   -3.882620
  H    -96.544800    7.265950   -0.761655

 Total Charge           Charge          ....    0
 Multiplicity           Mult            ....    1
 Number of Electrons    NEL             ....  134
 Basis Dimension        Dim             ....  322

ORBITAL ENERGIES
----------------

  NO   OCC          E(Eh)            E(eV)
   0   2.0000     -88.967769     -2420.9361
   1   2.0000     -88.962917     -2420.8040
   2   2.0000     -10.335499      -281.2432
   3   2.0000     -10.332392      -281.1587
   4   2.0000     -10.316310      -280.7211
   5   2.0000     -10.314786      -280.6796
   6   2.0000     -10.302193      -280.3369
   7   2.0000     -10.298761      -280.2435
   8   2.0000     -10.298680      -280.2413
   9   2.0000     -10.297745      -280.2159
  10   2.0000     -10.287341      -279.9328
  11   2.0000     -10.282581      -279.8032
  12   2.0000     -10.279065      -279.7076
  13   2.0000     -10.272965      -279.5416
  14   2.0000     -10.272585      -279.5312
  15   2.0000     -10.271370      -279.4982
  16   2.0000      -8.082259      -219.9294
  17   2.0000      -8.076932      -219.7845
  18   2.0000      -6.040709      -164.3760
  19   2.0000      -6.036808      -164.2699
  20   2.0000      -6.035434      -164.2325
  21   2.0000      -6.033070      -164.1682
  22   2.0000      -6.031531      -164.1263
  23   2.0000      -6.027742      -164.0232
  24   2.0000      -1.002751       -27.2862
  25   2.0000      -0.985202       -26.8087
  26   2.0000      -0.920750       -25.0549
  27   2.0000      -0.918302       -24.9883
  28   2.0000      -0.867730       -23.6121
  29   2.0000      -0.847861       -23.0715
  30   2.0000      -0.843475       -22.9521
  31   2.0000      -0.813765       -22.1437
  32   2.0000      -0.786820       -21.4105
  33   2.0000      -0.775088       -21.0912
  34   2.0000      -0.700897       -19.0724
  35   2.0000      -0.698431       -19.0053
  36   2.0000      -0.692676       -18.8487
  37   2.0000      -0.654249       -17.8030
  38   2.0000      -0.637412       -17.3449
  39   2.0000      -0.622075       -16.9275
  40   2.0000      -0.602540       -16.3959
  41   2.0000      -0.574809       -15.6413
  42   2.0000      -0.564683       -15.3658
  43   2.0000      -0.559757       -15.2318
  44   2.0000      -0.548694       -14.9307
  45   2.0000      -0.525687       -14.3047
  46   2.0000      -0.522317       -14.2130
  47   2.0000      -0.508886       -13.8475
  48   2.0000      -0.496620       -13.5137
  49   2.0000      -0.492735       -13.4080
  50   2.0000      -0.489215       -13.3122
  51   2.0000      -0.477912       -13.0046
  52   2.0000      -0.473426       -12.8826
  53   2.0000      -0.465004       -12.6534
  54   2.0000      -0.459157       -12.4943
  55   2.0000      -0.450053       -12.2466
  56   2.0000      -0.441585       -12.0161
  57   2.0000      -0.437320       -11.9001
  58   2.0000      -0.433451       -11.7948
  59   2.0000      -0.425644       -11.5823
  60   2.0000      -0.419631       -11.4187
  61   2.0000      -0.417705       -11.3663
  62   2.0000      -0.404892       -11.0177
  63   2.0000      -0.339513        -9.2386
  64   2.0000      -0.333259        -9.0684
  65   2.0000      -0.328067        -8.9272
  66   2.0000      -0.296741        -8.0747
  67   0.0000       0.029269         0.7964
  68   0.0000       0.068415         1.8617
  69   0.0000       0.111016         3.0209
  70   0.0000       0.118277         3.2185
  71   0.0000       0.131205         3.5703

MULLIKEN ATOMIC CHARGES
-----------------------
   0 S :    0.122610
   1 C :   -0.139930
   2 C :   -0.071401
   3 C :    0.028563
   4 C :   -0.168397
   5 H :    0.025293
   6 C :    0.029639
   7 H :    0.038281
   8 H :    0.022822
   9 C :   -0.049166
  10 H :    0.011271
  11 H :    0.029701
  12 C :   -0.013678
  13 H :    0.030887
  14 H :    0.019875
  15 H :    0.015036
  16 S :    0.097340
  17 C :   -0.089701
  18 C :   -0.024607
  19 C :   -0.050558
  20 C :   -0.175251
  21 H :    0.001123
  22 C :    0.172930
  23 H :   -0.000779
  24 H :    0.013715
  25 C :   -0.075932
  26 H :    0.012917
  27 H :    0.020212
  28 C :   -0.057016
  29 H :    0.030623
  30 H :    0.048675
  31 H :    0.027946
  32 H :    0.056955
  33 H :    0.060001
Sum of atomic charges:    0.0000000

LOEWDIN ATOMIC CHARGES
----------------------
   0 S :    0.417846
   1 C :   -0.206633
   2 C :   -0.068792
   3 C :   -0.068883
   4 C :   -0.192073
   5 H :    0.034248
   6 C :   -0.031292
   7 H :    0.036751
   8 H :    0.028356
   9 C :   -0.039800
  10 H :    0.017181
  11 H :    0.030757
  12 C :   -0.068775
  13 H :    0.029450
  14 H :    0.025869
  15 H :    0.022267
  16 S :    0.382746
  17 C :   -0.173415
  18 C :   -0.075553
  19 C :   -0.046199
  20 C :   -0.196849
  21 H :    0.025810
  22 C :   -0.021624
  23 H :    0.021825
  24 H :    0.032375
  25 C :   -0.044074
  26 H :    0.016939
  27 H :    0.023618
  28 C :   -0.066315
  29 H :    0.030269
  30 H :    0.026336
  31 H :    0.026827
  32 H :    0.036969
  33 H :    0.033839

  Mayer bond orders larger than 0.100000
B(  0-S ,  1-C ) :   1.1379 B(  0-S ,  4-C ) :   1.1795 B(  1-C ,  2-C ) :   1.6152
B(  1-C ,  4-C ) :   0.1022 B(  1-C , 32-H ) :   0.9597 B(  2-C ,  3-C ) :   1.2624
B(  2-C ,  6-C ) :   1.0144 B(  3-C ,  4-C ) :   1.5557 B(  3-C ,  5-H ) :   0.9890
B(  4-C , 20-C ) :   1.0007 B(  6-C ,  7-H ) :   0.9466 B(  6-C ,  8-H ) :   0.9386
B(  6-C ,  9-C ) :   1.0705 B(  9-C , 10-H ) :   0.9519 B(  9-C , 11-H ) :   0.9492
B(  9-C , 12-C ) :   1.0901 B( 12-C , 13-H ) :   0.9705 B( 12-C , 14-H ) :   0.9679
B( 12-C , 15-H ) :   0.9695 B( 16-S , 17-C ) :   1.1493 B( 16-S , 20-C ) :   1.1451
B( 17-C , 18-C ) :   1.6150 B( 17-C , 20-C ) :   0.1003 B( 17-C , 33-H ) :   0.9657
B( 18-C , 19-C ) :   1.2407 B( 18-C , 21-H ) :   0.9961 B( 19-C , 20-C ) :   1.5729
B( 19-C , 22-C ) :   1.0275 B( 22-C , 23-H ) :   0.9164 B( 22-C , 24-H ) :   0.9290
B( 22-C , 25-C ) :   1.0886 B( 25-C , 26-H ) :   0.9547 B( 25-C , 27-H ) :   0.9508
B( 25-C , 28-C ) :   1.0797 B( 28-C , 29-H ) :   0.9738 B( 28-C , 30-H ) :   0.9721
B( 28-C , 31-H ) :   0.9723

Dispersion correction           -0.014707423
FINAL SINGLE POINT ENERGY     -1339.873571445096

DIPOLE MOMENT
-------------
                                X             Y             Z
Electronic contribution:    -23.82363       4.66318     -12.67470
Nuclear contribution   :     24.38890      -4.49606      13.08870
                        -----------------------------------------
Total Dipole Moment    :      0.56527       0.16712       0.41400
                        -----------------------------------------
Magnitude (a.u.)       :      0.72031
Magnitude (Debye)      :      1.83089

Rotational constants in cm-1:     0.021888     0.008008     0.006799
Rotational constants in MHz :   656.196994   240.064260   203.819082

                             ****ORCA TERMINATED NORMALLY****
TOTAL RUN TIME: 0 days 0 hours 0 minutes 21 seconds 811 msec
