                         Program Version 4.2.1 -  RELEASE  -
|  1> ! wB97X-D3 SP def2-SVP
|  2> %pal
|  3> nprocs 24
|  4> end
|  5>
|  6> * xyz 0 1
|  7> S 	 -57.5924 	 -49.2905 	 -81.4015
|  8> C 	 -57.7328 	 -47.6088 	 -81.1817
|  9> C 	 -56.913 	 -46.8275 	 -81.9739
| 10> C 	 -56.2105 	 -47.6799 	 -82.9076
| 11> C 	 -56.3897 	 -48.9966 	 -82.6163
| 12> H 	 -55.5798 	 -47.467 	 -83.7687
| 13> C 	 -56.7333 	 -45.3365 	 -81.8883
| 14> H 	 -55.7143 	 -45.1354 	 -82.2045
| 15> H 	 -56.7005 	 -44.9846 	 -80.8453
| 16> C 	 -57.7472 	 -44.3974 	 -82.6888
| 17> H 	 -58.7586 	 -44.511 	 -82.3045
| 18> H 	 -57.4042 	 -43.3883 	 -82.5382
| 19> C 	 -57.9519 	 -44.6255 	 -84.1429
| 20> H 	 -58.6998 	 -43.9332 	 -84.5717
| 21> H 	 -57.0048 	 -44.4669 	 -84.7519
| 22> H 	 -58.1661 	 -45.6751 	 -84.3272
| 23> S 	 -56.7674 	 -51.2904 	 -84.3001
| 24> C 	 -55.4154 	 -52.3519 	 -84.463
| 25> C 	 -54.3207 	 -51.8802 	 -83.8448
| 26> C 	 -54.5158 	 -50.5612 	 -83.2287
| 27> C 	 -55.8215 	 -50.1174 	 -83.355
| 28> H 	 -53.3383 	 -52.3771 	 -83.8062
| 29> C 	 -53.4114 	 -49.862 	 -82.4648
| 30> H 	 -52.622 	 -50.5799 	 -82.1918
| 31> H 	 -53.7722 	 -49.5614 	 -81.5165
| 32> C 	 -52.6446 	 -48.6707 	 -83.063
| 33> H 	 -51.8021 	 -48.4944 	 -82.3868
| 34> H 	 -53.4279 	 -47.8731 	 -83.0079
| 35> C 	 -52.221 	 -48.9039 	 -84.4721
| 36> H 	 -51.4922 	 -49.6772 	 -84.5972
| 37> H 	 -51.5483 	 -48.143 	 -84.9333
| 38> H 	 -52.9551 	 -49.1201 	 -85.2167
| 39> H 	 -58.4075 	 -47.068 	 -80.5168
| 40> H 	 -55.183 	 -53.3858 	 -84.878
| 41> *
| 42>
| 43>                          ****END OF INPUT****

CARTESIAN COORDINATES (ANGSTROEM)
---------------------------------
  S    -57.592400  -49.290500  -81.401500
  C    -57.732800  -47.608800  -81.181700
  C    -56.913000  -46.827500  -81.973900
  C    -56.210500  -47.679900  -82.907600
  C    -56.389700  -48.996600  -82.616300
  H    -55.579800  -47.467000  -83.768700
  C    -56.733300  -45.336500  -81.888300
  H    -55.714300  -45.135400  -82.204500
  H    -56.700500  -44.984600  -80.845300
  C    -57.747200  -44.397400  -82.688800
  H    -58.758600  -44.511000  -82.304500
  H    -57.404200  -43.388300  -82.538200
  C    -57.951900  -44.625500  -84.142900
  H    -58.699800  -43.933200  -84.571700
  H    -57.004800  -44.466900  -84.751900
  H    -58.166100  -45.675100  -84.327200
  S    -56.767400  -51.290400  -84.300100
  C    -55.415400  -52.351900  -84.463000
  C    -54.320700  -51.880200  -83.844800
  C    -54.515800  -50.561200  -83.228700
  C    -55.821500  -50.117400  -83.355000
  H    -53.338300  -52.377100  -83.806200
  C    -53.411400  -49.862000  -82.464800
  H    -52.622000  -50.579900  -82.191800
  H    -53.772200  -49.561400  -81.516500
  C    -52.644600  -48.670700  -83.063000
  H    -51.802100  -48.494400  -82.386800
  H    -53.427900  -47.873100  -83.007900
  C    -52.221000  -48.903900  -84.472100
  H    -51.492200  -49.677200  -84.597200
  H    -51.548300  -48.143000  -84.933300
  H    -52.955100  -49.120100  -85.216700
  H    -58.407500  -47.068000  -80.516800
  H    -55.183000  -53.385800  -84.878000

 Total Charge           Charge          ....    0
 Multiplicity           Mult            ....    1
 Number of Electrons    NEL             ....  134
 Basis Dimension        Dim             ....  322

ORBITAL ENERGIES
----------------

  NO   OCC          E(Eh)            E(eV)
   0   2.0000     -88.969918     -2420.9945
   1   2.0000     -88.967878     -2420.9390
   2   2.0000     -10.323897      -280.9275
   3   2.0000     -10.323197      -280.9085
   4   2.0000     -10.316608      -280.7292
   5   2.0000     -10.310995      -280.5764
   6   2.0000     -10.302384      -280.3421
   7   2.0000     -10.302165      -280.3362
   8   2.0000     -10.297101      -280.1984
   9   2.0000     -10.295153      -280.1454
  10   2.0000     -10.290042      -280.0063
  11   2.0000     -10.288180      -279.9556
  12   2.0000     -10.286300      -279.9045
  13   2.0000     -10.283511      -279.8286
  14   2.0000     -10.277441      -279.6634
  15   2.0000     -10.269765      -279.4545
  16   2.0000      -8.085703      -220.0232
  17   2.0000      -8.082165      -219.9269
  18   2.0000      -6.043995      -164.4655
  19   2.0000      -6.040994      -164.3838
  20   2.0000      -6.040214      -164.3626
  21   2.0000      -6.036681      -164.2664
  22   2.0000      -6.036457      -164.2603
  23   2.0000      -6.032646      -164.1566
  24   2.0000      -1.011650       -27.5284
  25   2.0000      -0.987095       -26.8602
  26   2.0000      -0.911193       -24.7948
  27   2.0000      -0.908505       -24.7217
  28   2.0000      -0.872254       -23.7352
  29   2.0000      -0.856041       -23.2941
  30   2.0000      -0.844646       -22.9840
  31   2.0000      -0.819392       -22.2968
  32   2.0000      -0.787994       -21.4424
  33   2.0000      -0.774771       -21.0826
  34   2.0000      -0.708333       -19.2747
  35   2.0000      -0.698292       -19.0015
  36   2.0000      -0.685640       -18.6572
  37   2.0000      -0.653552       -17.7841
  38   2.0000      -0.643655       -17.5147
  39   2.0000      -0.611707       -16.6454
  40   2.0000      -0.590632       -16.0719
  41   2.0000      -0.575133       -15.6502
  42   2.0000      -0.557047       -15.1580
  43   2.0000      -0.549097       -14.9417
  44   2.0000      -0.544220       -14.8090
  45   2.0000      -0.541271       -14.7287
  46   2.0000      -0.515391       -14.0245
  47   2.0000      -0.504410       -13.7257
  48   2.0000      -0.495894       -13.4940
  49   2.0000      -0.494326       -13.4513
  50   2.0000      -0.485357       -13.2072
  51   2.0000      -0.481157       -13.0930
  52   2.0000      -0.475249       -12.9322
  53   2.0000      -0.467271       -12.7151
  54   2.0000      -0.460365       -12.5272
  55   2.0000      -0.449631       -12.2351
  56   2.0000      -0.444940       -12.1074
  57   2.0000      -0.436731       -11.8840
  58   2.0000      -0.432467       -11.7680
  59   2.0000      -0.426059       -11.5937
  60   2.0000      -0.421268       -11.4633
  61   2.0000      -0.413595       -11.2545
  62   2.0000      -0.400158       -10.8889
  63   2.0000      -0.342711        -9.3256
  64   2.0000      -0.328976        -8.9519
  65   2.0000      -0.327561        -8.9134
  66   2.0000      -0.304148        -8.2763
  67   0.0000       0.039688         1.0800
  68   0.0000       0.065630         1.7859
  69   0.0000       0.114544         3.1169
  70   0.0000       0.123566         3.3624
  71   0.0000       0.129524         3.5245

MULLIKEN ATOMIC CHARGES
-----------------------
   0 S :    0.146219
   1 C :   -0.097062
   2 C :   -0.105581
   3 C :    0.032370
   4 C :   -0.192603
   5 H :    0.029273
   6 C :    0.063038
   7 H :    0.019506
   8 H :    0.031560
   9 C :   -0.049395
  10 H :    0.026638
  11 H :    0.027275
  12 C :   -0.076358
  13 H :    0.045410
  14 H :    0.021737
  15 H :    0.039358
  16 S :    0.120199
  17 C :   -0.079954
  18 C :   -0.056886
  19 C :   -0.054562
  20 C :   -0.178449
  21 H :    0.025705
  22 C :    0.078687
  23 H :    0.008462
  24 H :    0.020806
  25 C :   -0.036555
  26 H :    0.035993
  27 H :    0.024986
  28 C :   -0.045356
  29 H :    0.001209
  30 H :    0.021611
  31 H :    0.037663
  32 H :    0.039270
  33 H :    0.075785
Sum of atomic charges:    0.0000000

LOEWDIN ATOMIC CHARGES
----------------------
   0 S :    0.436715
   1 C :   -0.208094
   2 C :   -0.069096
   3 C :   -0.055874
   4 C :   -0.200298
   5 H :    0.036597
   6 C :   -0.034421
   7 H :    0.030387
   8 H :    0.036429
   9 C :   -0.038715
  10 H :    0.024662
  11 H :    0.022295
  12 C :   -0.074005
  13 H :    0.032048
  14 H :    0.024078
  15 H :    0.025326
  16 S :    0.399329
  17 C :   -0.212624
  18 C :   -0.080630
  19 C :   -0.047832
  20 C :   -0.205154
  21 H :    0.033120
  22 C :   -0.034839
  23 H :    0.027460
  24 H :    0.027115
  25 C :   -0.035925
  26 H :    0.031053
  27 H :    0.024328
  28 C :   -0.079996
  29 H :    0.020905
  30 H :    0.031795
  31 H :    0.025327
  32 H :    0.029618
  33 H :    0.058917

  Mayer bond orders larger than 0.100000
B(  0-S ,  1-C ) :   1.1486 B(  0-S ,  4-C ) :   1.1440 B(  1-C ,  2-C ) :   1.6364
B(  1-C , 32-H ) :   0.9591 B(  2-C ,  3-C ) :   1.2060 B(  2-C ,  6-C ) :   1.0214
B(  3-C ,  4-C ) :   1.6209 B(  3-C ,  5-H ) :   0.9794 B(  4-C , 20-C ) :   1.0384
B(  6-C ,  7-H ) :   0.9402 B(  6-C ,  8-H ) :   0.9425 B(  6-C ,  9-C ) :   1.0626
B(  9-C , 10-H ) :   0.9572 B(  9-C , 11-H ) :   0.9553 B(  9-C , 12-C ) :   1.0888
B( 12-C , 13-H ) :   0.9714 B( 12-C , 14-H ) :   0.9726 B( 12-C , 15-H ) :   0.9708
B( 16-S , 17-C ) :   1.1299 B( 16-S , 20-C ) :   1.1133 B( 17-C , 18-C ) :   1.6587
B( 17-C , 33-H ) :   0.9468 B( 18-C , 19-C ) :   1.2345 B( 18-C , 21-H ) :   0.9788
B( 19-C , 20-C ) :   1.6174 B( 19-C , 22-C ) :   1.0457 B( 22-C , 23-H ) :   0.9342
B( 22-C , 24-H ) :   0.9213 B( 22-C , 25-C ) :   1.0749 B( 25-C , 26-H ) :   0.9512
B( 25-C , 27-H ) :   0.9499 B( 25-C , 28-C ) :   1.0864 B( 28-C , 29-H ) :   0.9662
B( 28-C , 30-H ) :   0.9676 B( 28-C , 31-H ) :   0.9706

Dispersion correction           -0.015382694
FINAL SINGLE POINT ENERGY     -1339.869556723779

DIPOLE MOMENT
-------------
                                X             Y             Z
Electronic contribution:    -13.29769     -21.46277       4.32574
Nuclear contribution   :     13.75774      21.80146      -4.21463
                        -----------------------------------------
Total Dipole Moment    :      0.46005       0.33869       0.11111
                        -----------------------------------------
Magnitude (a.u.)       :      0.58198
Magnitude (Debye)      :      1.47927

Rotational constants in cm-1:     0.019547     0.008817     0.007395
Rotational constants in MHz :   586.019263   264.332968   221.693308

                             ****ORCA TERMINATED NORMALLY****
TOTAL RUN TIME: 0 days 0 hours 0 minutes 22 seconds 303 msec
