                         Program Version 4.2.1 -  RELEASE  -
|  1> ! wB97X-D3 SP def2-SVP
|  2> %pal
|  3> nprocs 24
|  4> end
|  5>
|  6> * xyz 0 1
|  7> S 	 -113.066 	 48.9941 	 -72.2858
|  8> C 	 -113.709 	 48.7376 	 -73.9757
|  9> C 	 -112.942 	 49.4485 	 -74.8961
| 10> C 	 -111.764 	 50.0338 	 -74.3385
| 11> C 	 -111.595 	 49.8158 	 -72.9574
| 12> H 	 -111.012 	 50.5952 	 -74.8396
| 13> C 	 -113.126 	 49.467 	 -76.4029
| 14> H 	 -113.352 	 48.5336 	 -76.8271
| 15> H 	 -112.073 	 49.5857 	 -76.8296
| 16> C 	 -114.096 	 50.525 	 -76.8943
| 17> H 	 -114.411 	 50.2961 	 -77.9059
| 18> H 	 -114.979 	 50.2768 	 -76.3309
| 19> C 	 -113.7 	 51.984 	 -76.6541
| 20> H 	 -114.031 	 52.3295 	 -75.6937
| 21> H 	 -112.655 	 52.1112 	 -76.8174
| 22> H 	 -114.363 	 52.6165 	 -77.2613
| 23> S 	 -109.49 	 49.1751 	 -71.4065
| 24> C 	 -108.419 	 50.4682 	 -70.9333
| 25> C 	 -108.966 	 51.6803 	 -71.1834
| 26> C 	 -110.106 	 51.6262 	 -71.9936
| 27> C 	 -110.571 	 50.3151 	 -72.1446
| 28> H 	 -108.527 	 52.659 	 -70.7585
| 29> C 	 -110.715 	 52.826 	 -72.57
| 30> H 	 -110.737 	 53.5944 	 -71.7799
| 31> H 	 -111.797 	 52.6846 	 -72.6109
| 32> C 	 -110.067 	 53.3285 	 -73.8853
| 33> H 	 -109.853 	 52.3881 	 -74.4852
| 34> H 	 -109.109 	 53.7312 	 -73.6579
| 35> C 	 -110.942 	 54.2606 	 -74.7178
| 36> H 	 -111.28 	 55.0553 	 -74.0353
| 37> H 	 -111.828 	 53.7793 	 -75.0977
| 38> H 	 -110.308 	 54.7717 	 -75.5071
| 39> H 	 -114.71 	 48.3682 	 -74.2397
| 40> H 	 -107.519 	 50.355 	 -70.3807
| 41> *
| 42>
| 43>                          ****END OF INPUT****

CARTESIAN COORDINATES (ANGSTROEM)
---------------------------------
  S    -113.066000   48.994100  -72.285800
  C    -113.709000   48.737600  -73.975700
  C    -112.942000   49.448500  -74.896100
  C    -111.764000   50.033800  -74.338500
  C    -111.595000   49.815800  -72.957400
  H    -111.012000   50.595200  -74.839600
  C    -113.126000   49.467000  -76.402900
  H    -113.352000   48.533600  -76.827100
  H    -112.073000   49.585700  -76.829600
  C    -114.096000   50.525000  -76.894300
  H    -114.411000   50.296100  -77.905900
  H    -114.979000   50.276800  -76.330900
  C    -113.700000   51.984000  -76.654100
  H    -114.031000   52.329500  -75.693700
  H    -112.655000   52.111200  -76.817400
  H    -114.363000   52.616500  -77.261300
  S    -109.490000   49.175100  -71.406500
  C    -108.419000   50.468200  -70.933300
  C    -108.966000   51.680300  -71.183400
  C    -110.106000   51.626200  -71.993600
  C    -110.571000   50.315100  -72.144600
  H    -108.527000   52.659000  -70.758500
  C    -110.715000   52.826000  -72.570000
  H    -110.737000   53.594400  -71.779900
  H    -111.797000   52.684600  -72.610900
  C    -110.067000   53.328500  -73.885300
  H    -109.853000   52.388100  -74.485200
  H    -109.109000   53.731200  -73.657900
  C    -110.942000   54.260600  -74.717800
  H    -111.280000   55.055300  -74.035300
  H    -111.828000   53.779300  -75.097700
  H    -110.308000   54.771700  -75.507100
  H    -114.710000   48.368200  -74.239700
  H    -107.519000   50.355000  -70.380700

 Total Charge           Charge          ....    0
 Multiplicity           Mult            ....    1
 Number of Electrons    NEL             ....  134
 Basis Dimension        Dim             ....  322

ORBITAL ENERGIES
----------------

  NO   OCC          E(Eh)            E(eV)
   0   2.0000     -88.965999     -2420.8879
   1   2.0000     -88.965771     -2420.8817
   2   2.0000     -10.330103      -281.0964
   3   2.0000     -10.321786      -280.8701
   4   2.0000     -10.318904      -280.7917
   5   2.0000     -10.312944      -280.6295
   6   2.0000     -10.302843      -280.3546
   7   2.0000     -10.298377      -280.2331
   8   2.0000     -10.294320      -280.1227
   9   2.0000     -10.294225      -280.1201
  10   2.0000     -10.291047      -280.0336
  11   2.0000     -10.290490      -280.0185
  12   2.0000     -10.287602      -279.9399
  13   2.0000     -10.283633      -279.8319
  14   2.0000     -10.282859      -279.8108
  15   2.0000     -10.276456      -279.6366
  16   2.0000      -8.081029      -219.8960
  17   2.0000      -8.078515      -219.8276
  18   2.0000      -6.039447      -164.3417
  19   2.0000      -6.037204      -164.2807
  20   2.0000      -6.035469      -164.2335
  21   2.0000      -6.033452      -164.1786
  22   2.0000      -6.031826      -164.1343
  23   2.0000      -6.029082      -164.0597
  24   2.0000      -1.009807       -27.4783
  25   2.0000      -0.974484       -26.5171
  26   2.0000      -0.913476       -24.8569
  27   2.0000      -0.912222       -24.8228
  28   2.0000      -0.873301       -23.7637
  29   2.0000      -0.855085       -23.2681
  30   2.0000      -0.841255       -22.8917
  31   2.0000      -0.813179       -22.1277
  32   2.0000      -0.786148       -21.3922
  33   2.0000      -0.771447       -20.9922
  34   2.0000      -0.710762       -19.3408
  35   2.0000      -0.703566       -19.1450
  36   2.0000      -0.700756       -19.0685
  37   2.0000      -0.660475       -17.9724
  38   2.0000      -0.637562       -17.3489
  39   2.0000      -0.613109       -16.6836
  40   2.0000      -0.599193       -16.3049
  41   2.0000      -0.571249       -15.5445
  42   2.0000      -0.562027       -15.2935
  43   2.0000      -0.557330       -15.1657
  44   2.0000      -0.536189       -14.5904
  45   2.0000      -0.530811       -14.4441
  46   2.0000      -0.517340       -14.0775
  47   2.0000      -0.511813       -13.9271
  48   2.0000      -0.509214       -13.8564
  49   2.0000      -0.495317       -13.4783
  50   2.0000      -0.493173       -13.4199
  51   2.0000      -0.478253       -13.0139
  52   2.0000      -0.473760       -12.8917
  53   2.0000      -0.465306       -12.6616
  54   2.0000      -0.456095       -12.4110
  55   2.0000      -0.446692       -12.1551
  56   2.0000      -0.441396       -12.0110
  57   2.0000      -0.435593       -11.8531
  58   2.0000      -0.432160       -11.7597
  59   2.0000      -0.430564       -11.7162
  60   2.0000      -0.423139       -11.5142
  61   2.0000      -0.410507       -11.1705
  62   2.0000      -0.406234       -11.0542
  63   2.0000      -0.343698        -9.3525
  64   2.0000      -0.331412        -9.0182
  65   2.0000      -0.326320        -8.8796
  66   2.0000      -0.293474        -7.9858
  67   0.0000       0.027444         0.7468
  68   0.0000       0.057927         1.5763
  69   0.0000       0.106861         2.9078
  70   0.0000       0.113409         3.0860
  71   0.0000       0.125849         3.4245

MULLIKEN ATOMIC CHARGES
-----------------------
   0 S :    0.088696
   1 C :   -0.117432
   2 C :   -0.074805
   3 C :    0.051912
   4 C :   -0.151880
   5 H :   -0.009790
   6 C :    0.032321
   7 H :    0.015055
   8 H :    0.026645
   9 C :   -0.042880
  10 H :    0.022071
  11 H :    0.006974
  12 C :   -0.026490
  13 H :    0.032558
  14 H :    0.041033
  15 H :    0.027397
  16 S :    0.123668
  17 C :   -0.079883
  18 C :   -0.052193
  19 C :   -0.036944
  20 C :   -0.176102
  21 H :    0.045995
  22 C :    0.052238
  23 H :    0.015279
  24 H :    0.021998
  25 C :   -0.062786
  26 H :    0.032360
  27 H :    0.019487
  28 C :   -0.036233
  29 H :    0.026095
  30 H :    0.034826
  31 H :    0.046919
  32 H :    0.059515
  33 H :    0.044377
Sum of atomic charges:   -0.0000000

LOEWDIN ATOMIC CHARGES
----------------------
   0 S :    0.349605
   1 C :   -0.181375
   2 C :   -0.060686
   3 C :   -0.052567
   4 C :   -0.174272
   5 H :    0.023106
   6 C :   -0.033555
   7 H :    0.024695
   8 H :    0.033207
   9 C :   -0.040677
  10 H :    0.021635
  11 H :    0.022133
  12 C :   -0.062201
  13 H :    0.026680
  14 H :    0.021033
  15 H :    0.033451
  16 S :    0.423906
  17 C :   -0.179998
  18 C :   -0.079291
  19 C :   -0.052528
  20 C :   -0.217227
  21 H :    0.046712
  22 C :   -0.043431
  23 H :    0.032031
  24 H :    0.032899
  25 C :   -0.036289
  26 H :    0.025429
  27 H :    0.019323
  28 C :   -0.066232
  29 H :    0.026348
  30 H :    0.024360
  31 H :    0.036106
  32 H :    0.033390
  33 H :    0.024279

  Mayer bond orders larger than 0.100000
B(  0-S ,  1-C ) :   1.1146 B(  0-S ,  4-C ) :   1.1237 B(  1-C ,  2-C ) :   1.6325
B(  1-C ,  4-C ) :   0.1045 B(  1-C , 32-H ) :   0.9601 B(  2-C ,  3-C ) :   1.2265
B(  2-C ,  6-C ) :   1.0055 B(  3-C ,  4-C ) :   1.5824 B(  3-C ,  5-H ) :   0.9947
B(  4-C , 20-C ) :   1.0691 B(  6-C ,  7-H ) :   0.9454 B(  6-C ,  8-H ) :   0.9482
B(  6-C ,  9-C ) :   1.0733 B(  9-C , 10-H ) :   0.9557 B(  9-C , 11-H ) :   0.9509
B(  9-C , 12-C ) :   1.0735 B( 12-C , 13-H ) :   0.9687 B( 12-C , 14-H ) :   0.9771
B( 12-C , 15-H ) :   0.9673 B( 16-S , 17-C ) :   1.1624 B( 16-S , 20-C ) :   1.1429
B( 17-C , 18-C ) :   1.6043 B( 17-C , 20-C ) :   0.1028 B( 17-C , 33-H ) :   0.9683
B( 18-C , 19-C ) :   1.2599 B( 18-C , 21-H ) :   0.9728 B( 19-C , 20-C ) :   1.5633
B( 19-C , 22-C ) :   1.0691 B( 22-C , 23-H ) :   0.9220 B( 22-C , 24-H ) :   0.9280
B( 22-C , 25-C ) :   1.0328 B( 25-C , 26-H ) :   0.9573 B( 25-C , 27-H ) :   0.9496
B( 25-C , 28-C ) :   1.0819 B( 28-C , 29-H ) :   0.9694 B( 28-C , 30-H ) :   0.9730
B( 28-C , 31-H ) :   0.9725

Dispersion correction           -0.016098120
FINAL SINGLE POINT ENERGY     -1339.867120192876

DIPOLE MOMENT
-------------
                                X             Y             Z
Electronic contribution:      6.03409     -21.01213      22.31434
Nuclear contribution   :     -6.02280      21.64083     -22.75253
                        -----------------------------------------
Total Dipole Moment    :      0.01128       0.62870      -0.43820
                        -----------------------------------------
Magnitude (a.u.)       :      0.76643
Magnitude (Debye)      :      1.94810

Rotational constants in cm-1:     0.018260     0.010431     0.007340
Rotational constants in MHz :   547.410628   312.717777   220.058384

                             ****ORCA TERMINATED NORMALLY****
TOTAL RUN TIME: 0 days 0 hours 0 minutes 23 seconds 28 msec
