                         Program Version 4.2.1 -  RELEASE  -
|  1> ! wB97X-D3 SP def2-SVP
|  2> %pal
|  3> nprocs 24
|  4> end
|  5>
|  6> * xyz 0 1
|  7> S 	 -50.533 	 13.7013 	 19.083
|  8> C 	 -51.9674 	 14.0626 	 20.0376
|  9> C 	 -51.6903 	 14.8019 	 21.1564
| 10> C 	 -50.2778 	 15.0723 	 21.258
| 11> C 	 -49.4735 	 14.6683 	 20.2071
| 12> H 	 -49.9454 	 15.7579 	 22.0325
| 13> C 	 -52.7153 	 15.4114 	 22.0615
| 14> H 	 -52.2613 	 15.8442 	 22.9549
| 15> H 	 -53.399 	 14.6101 	 22.2859
| 16> C 	 -53.4386 	 16.6001 	 21.3005
| 17> H 	 -53.9033 	 16.3046 	 20.348
| 18> H 	 -54.3246 	 16.8011 	 21.8535
| 19> C 	 -52.6621 	 17.8957 	 21.1591
| 20> H 	 -53.2414 	 18.6534 	 20.6345
| 21> H 	 -52.3521 	 18.4435 	 22.0879
| 22> H 	 -51.6936 	 17.7203 	 20.6239
| 23> S 	 -47.0389 	 13.8267 	 19.1726
| 24> C 	 -45.7396 	 14.9526 	 19.0735
| 25> C 	 -46.1997 	 16.2498 	 19.3422
| 26> C 	 -47.5301 	 16.3328 	 19.8141
| 27> C 	 -48.1068 	 15.0599 	 19.8677
| 28> H 	 -45.5896 	 17.0705 	 19.1768
| 29> C 	 -48.1742 	 17.6075 	 20.1633
| 30> H 	 -49.2425 	 17.433 	 20.0165
| 31> H 	 -47.9215 	 18.2521 	 19.2856
| 32> C 	 -47.9137 	 18.4338 	 21.4388
| 33> H 	 -48.1009 	 17.7978 	 22.2529
| 34> H 	 -48.6646 	 19.295 	 21.6065
| 35> C 	 -46.5258 	 19.1337 	 21.4677
| 36> H 	 -46.2879 	 19.6534 	 22.3743
| 37> H 	 -46.6686 	 19.9047 	 20.6994
| 38> H 	 -45.655 	 18.4223 	 21.4225
| 39> H 	 -52.9723 	 13.7791 	 19.738
| 40> H 	 -44.7812 	 14.8415 	 18.5161
| 41> *
| 42>
| 43>                          ****END OF INPUT****

CARTESIAN COORDINATES (ANGSTROEM)
---------------------------------
  S    -50.533000   13.701300   19.083000
  C    -51.967400   14.062600   20.037600
  C    -51.690300   14.801900   21.156400
  C    -50.277800   15.072300   21.258000
  C    -49.473500   14.668300   20.207100
  H    -49.945400   15.757900   22.032500
  C    -52.715300   15.411400   22.061500
  H    -52.261300   15.844200   22.954900
  H    -53.399000   14.610100   22.285900
  C    -53.438600   16.600100   21.300500
  H    -53.903300   16.304600   20.348000
  H    -54.324600   16.801100   21.853500
  C    -52.662100   17.895700   21.159100
  H    -53.241400   18.653400   20.634500
  H    -52.352100   18.443500   22.087900
  H    -51.693600   17.720300   20.623900
  S    -47.038900   13.826700   19.172600
  C    -45.739600   14.952600   19.073500
  C    -46.199700   16.249800   19.342200
  C    -47.530100   16.332800   19.814100
  C    -48.106800   15.059900   19.867700
  H    -45.589600   17.070500   19.176800
  C    -48.174200   17.607500   20.163300
  H    -49.242500   17.433000   20.016500
  H    -47.921500   18.252100   19.285600
  C    -47.913700   18.433800   21.438800
  H    -48.100900   17.797800   22.252900
  H    -48.664600   19.295000   21.606500
  C    -46.525800   19.133700   21.467700
  H    -46.287900   19.653400   22.374300
  H    -46.668600   19.904700   20.699400
  H    -45.655000   18.422300   21.422500
  H    -52.972300   13.779100   19.738000
  H    -44.781200   14.841500   18.516100

 Total Charge           Charge          ....    0
 Multiplicity           Mult            ....    1
 Number of Electrons    NEL             ....  134
 Basis Dimension        Dim             ....  322

ORBITAL ENERGIES
----------------

  NO   OCC          E(Eh)            E(eV)
   0   2.0000     -88.968839     -2420.9652
   1   2.0000     -88.963848     -2420.8294
   2   2.0000     -10.335571      -281.2452
   3   2.0000     -10.330800      -281.1154
   4   2.0000     -10.319876      -280.8181
   5   2.0000     -10.313604      -280.6474
   6   2.0000     -10.303848      -280.3820
   7   2.0000     -10.297599      -280.2119
   8   2.0000     -10.297032      -280.1965
   9   2.0000     -10.295843      -280.1641
  10   2.0000     -10.295543      -280.1560
  11   2.0000     -10.292378      -280.0699
  12   2.0000     -10.289948      -280.0037
  13   2.0000     -10.288261      -279.9578
  14   2.0000     -10.285145      -279.8730
  15   2.0000     -10.284284      -279.8496
  16   2.0000      -8.083450      -219.9619
  17   2.0000      -8.077451      -219.7986
  18   2.0000      -6.041953      -164.4099
  19   2.0000      -6.037935      -164.3006
  20   2.0000      -6.036220      -164.2539
  21   2.0000      -6.034280      -164.2011
  22   2.0000      -6.032130      -164.1426
  23   2.0000      -6.027978      -164.0296
  24   2.0000      -1.003169       -27.2976
  25   2.0000      -0.980817       -26.6894
  26   2.0000      -0.911183       -24.7945
  27   2.0000      -0.909321       -24.7439
  28   2.0000      -0.866786       -23.5864
  29   2.0000      -0.855044       -23.2669
  30   2.0000      -0.842614       -22.9287
  31   2.0000      -0.814572       -22.1656
  32   2.0000      -0.786459       -21.4006
  33   2.0000      -0.770881       -20.9767
  34   2.0000      -0.711389       -19.3579
  35   2.0000      -0.706441       -19.2232
  36   2.0000      -0.693614       -18.8742
  37   2.0000      -0.665273       -18.1030
  38   2.0000      -0.635529       -17.2936
  39   2.0000      -0.617813       -16.8116
  40   2.0000      -0.591224       -16.0880
  41   2.0000      -0.571367       -15.5477
  42   2.0000      -0.559533       -15.2257
  43   2.0000      -0.556440       -15.1415
  44   2.0000      -0.548462       -14.9244
  45   2.0000      -0.532390       -14.4871
  46   2.0000      -0.510272       -13.8852
  47   2.0000      -0.508372       -13.8335
  48   2.0000      -0.501892       -13.6572
  49   2.0000      -0.497727       -13.5438
  50   2.0000      -0.486055       -13.2262
  51   2.0000      -0.479621       -13.0512
  52   2.0000      -0.478564       -13.0224
  53   2.0000      -0.469594       -12.7783
  54   2.0000      -0.456681       -12.4269
  55   2.0000      -0.448815       -12.2129
  56   2.0000      -0.444000       -12.0818
  57   2.0000      -0.437867       -11.9150
  58   2.0000      -0.429881       -11.6977
  59   2.0000      -0.426929       -11.6173
  60   2.0000      -0.420407       -11.4398
  61   2.0000      -0.417083       -11.3494
  62   2.0000      -0.410616       -11.1734
  63   2.0000      -0.347492        -9.4557
  64   2.0000      -0.332026        -9.0349
  65   2.0000      -0.328239        -8.9318
  66   2.0000      -0.288550        -7.8519
  67   0.0000       0.023570         0.6414
  68   0.0000       0.064566         1.7569
  69   0.0000       0.106933         2.9098
  70   0.0000       0.113541         3.0896
  71   0.0000       0.132895         3.6163

MULLIKEN ATOMIC CHARGES
-----------------------
   0 S :    0.091255
   1 C :   -0.122528
   2 C :   -0.109904
   3 C :    0.026295
   4 C :   -0.128753
   5 H :    0.006460
   6 C :    0.086144
   7 H :    0.025506
   8 H :    0.034503
   9 C :   -0.053196
  10 H :    0.025746
  11 H :    0.014474
  12 C :   -0.079142
  13 H :    0.036856
  14 H :    0.030830
  15 H :    0.046583
  16 S :    0.114909
  17 C :   -0.088024
  18 C :   -0.037141
  19 C :   -0.011269
  20 C :   -0.173687
  21 H :   -0.009331
  22 C :    0.042338
  23 H :    0.029806
  24 H :    0.022467
  25 C :   -0.037475
  26 H :    0.014448
  27 H :    0.038230
  28 C :   -0.070013
  29 H :    0.025739
  30 H :    0.037674
  31 H :    0.050290
  32 H :    0.044587
  33 H :    0.075323
Sum of atomic charges:   -0.0000000

LOEWDIN ATOMIC CHARGES
----------------------
   0 S :    0.365484
   1 C :   -0.187060
   2 C :   -0.070655
   3 C :   -0.063436
   4 C :   -0.173524
   5 H :    0.027831
   6 C :   -0.022539
   7 H :    0.031646
   8 H :    0.034174
   9 C :   -0.038466
  10 H :    0.026623
  11 H :    0.018104
  12 C :   -0.075714
  13 H :    0.029145
  14 H :    0.027628
  15 H :    0.028808
  16 S :    0.415652
  17 C :   -0.204776
  18 C :   -0.062368
  19 C :   -0.051965
  20 C :   -0.192534
  21 H :    0.016995
  22 C :   -0.043533
  23 H :    0.034580
  24 H :    0.038461
  25 C :   -0.036904
  26 H :    0.010461
  27 H :    0.036994
  28 C :   -0.074109
  29 H :    0.022794
  30 H :    0.029983
  31 H :    0.033089
  32 H :    0.026988
  33 H :    0.042143

  Mayer bond orders larger than 0.100000
B(  0-S ,  1-C ) :   1.1328 B(  0-S ,  4-C ) :   1.1199 B(  1-C ,  2-C ) :   1.6249
B(  1-C , 32-H ) :   0.9646 B(  2-C ,  3-C ) :   1.2375 B(  2-C ,  6-C ) :   1.0298
B(  3-C ,  4-C ) :   1.5804 B(  3-C ,  5-H ) :   0.9929 B(  4-C , 20-C ) :   1.0655
B(  6-C ,  7-H ) :   0.9438 B(  6-C ,  8-H ) :   0.9335 B(  6-C ,  9-C ) :   1.0682
B(  9-C , 10-H ) :   0.9556 B(  9-C , 11-H ) :   0.9529 B(  9-C , 12-C ) :   1.0772
B( 12-C , 13-H ) :   0.9687 B( 12-C , 14-H ) :   0.9716 B( 12-C , 15-H ) :   0.9747
B( 16-S , 17-C ) :   1.1628 B( 16-S , 20-C ) :   1.1474 B( 17-C , 18-C ) :   1.5846
B( 17-C , 33-H ) :   0.9578 B( 18-C , 19-C ) :   1.2683 B( 18-C , 21-H ) :   0.9964
B( 19-C , 20-C ) :   1.5410 B( 19-C , 22-C ) :   1.0500 B( 22-C , 23-H ) :   0.9203
B( 22-C , 24-H ) :   0.9239 B( 22-C , 25-C ) :   1.0587 B( 25-C , 26-H ) :   0.9545
B( 25-C , 27-H ) :   0.9552 B( 25-C , 28-C ) :   1.0710 B( 28-C , 29-H ) :   0.9726
B( 28-C , 30-H ) :   0.9776 B( 28-C , 31-H ) :   0.9723

Dispersion correction           -0.015482056
FINAL SINGLE POINT ENERGY     -1339.871892448223

DIPOLE MOMENT
-------------
                                X             Y             Z
Electronic contribution:      8.52517     -26.75285     -12.43266
Nuclear contribution   :     -8.81738      27.58073      12.66010
                        -----------------------------------------
Total Dipole Moment    :     -0.29220       0.82788       0.22744
                        -----------------------------------------
Magnitude (a.u.)       :      0.90692
Magnitude (Debye)      :      2.30520

Rotational constants in cm-1:     0.017561     0.010243     0.006875
Rotational constants in MHz :   526.451541   307.080848   206.120572

                             ****ORCA TERMINATED NORMALLY****
TOTAL RUN TIME: 0 days 0 hours 0 minutes 22 seconds 357 msec
