                         Program Version 4.2.1 -  RELEASE  -
|  1> ! wB97X-D3 SP def2-SVP
|  2> %pal
|  3> nprocs 24
|  4> end
|  5>
|  6> * xyz 0 1
|  7> S 	 -43.7847 	 -2.21906 	 -22.1414
|  8> C 	 -42.9998 	 -1.48472 	 -20.765
|  9> C 	 -42.0604 	 -2.34291 	 -20.2262
| 10> C 	 -42.0089 	 -3.62691 	 -20.8862
| 11> C 	 -42.8985 	 -3.70736 	 -21.9455
| 12> H 	 -41.4777 	 -4.49967 	 -20.5344
| 13> C 	 -41.3313 	 -2.07479 	 -18.8987
| 14> H 	 -41.8312 	 -2.77425 	 -18.1911
| 15> H 	 -41.6312 	 -1.10243 	 -18.4786
| 16> C 	 -39.8149 	 -2.21923 	 -18.946
| 17> H 	 -39.4865 	 -1.96655 	 -17.9294
| 18> H 	 -39.5344 	 -3.21095 	 -19.2175
| 19> C 	 -39.0827 	 -1.22113 	 -19.8558
| 20> H 	 -39.2526 	 -1.53348 	 -20.8837
| 21> H 	 -39.4387 	 -0.170593 	 -19.6938
| 22> H 	 -38.0438 	 -1.24645 	 -19.6673
| 23> S 	 -44.7328 	 -5.24216 	 -23.4036
| 24> C 	 -44.0259 	 -6.53177 	 -24.4419
| 25> C 	 -42.6574 	 -6.53842 	 -24.5063
| 26> C 	 -42.1227 	 -5.54381 	 -23.6255
| 27> C 	 -43.0651 	 -4.72338 	 -22.984
| 28> H 	 -42.1534 	 -7.26228 	 -25.1043
| 29> C 	 -40.605 	 -5.47326 	 -23.3067
| 30> H 	 -40.4037 	 -6.03983 	 -22.3809
| 31> H 	 -40.348 	 -4.50878 	 -22.9906
| 32> C 	 -39.5821 	 -5.7764 	 -24.3716
| 33> H 	 -39.443 	 -6.85546 	 -24.523
| 34> H 	 -38.6225 	 -5.38403 	 -24.0377
| 35> C 	 -39.6862 	 -4.84724 	 -25.7322
| 36> H 	 -40.366 	 -5.1873 	 -26.5412
| 37> H 	 -38.6439 	 -4.79522 	 -26.1792
| 38> H 	 -39.9879 	 -3.7761 	 -25.5423
| 39> H 	 -43.0812 	 -0.493231 	 -20.248
| 40> H 	 -44.6004 	 -7.09767 	 -25.0504
| 41> *
| 42>
| 43>                          ****END OF INPUT****

CARTESIAN COORDINATES (ANGSTROEM)
---------------------------------
  S    -43.784700   -2.219060  -22.141400
  C    -42.999800   -1.484720  -20.765000
  C    -42.060400   -2.342910  -20.226200
  C    -42.008900   -3.626910  -20.886200
  C    -42.898500   -3.707360  -21.945500
  H    -41.477700   -4.499670  -20.534400
  C    -41.331300   -2.074790  -18.898700
  H    -41.831200   -2.774250  -18.191100
  H    -41.631200   -1.102430  -18.478600
  C    -39.814900   -2.219230  -18.946000
  H    -39.486500   -1.966550  -17.929400
  H    -39.534400   -3.210950  -19.217500
  C    -39.082700   -1.221130  -19.855800
  H    -39.252600   -1.533480  -20.883700
  H    -39.438700   -0.170593  -19.693800
  H    -38.043800   -1.246450  -19.667300
  S    -44.732800   -5.242160  -23.403600
  C    -44.025900   -6.531770  -24.441900
  C    -42.657400   -6.538420  -24.506300
  C    -42.122700   -5.543810  -23.625500
  C    -43.065100   -4.723380  -22.984000
  H    -42.153400   -7.262280  -25.104300
  C    -40.605000   -5.473260  -23.306700
  H    -40.403700   -6.039830  -22.380900
  H    -40.348000   -4.508780  -22.990600
  C    -39.582100   -5.776400  -24.371600
  H    -39.443000   -6.855460  -24.523000
  H    -38.622500   -5.384030  -24.037700
  C    -39.686200   -4.847240  -25.732200
  H    -40.366000   -5.187300  -26.541200
  H    -38.643900   -4.795220  -26.179200
  H    -39.987900   -3.776100  -25.542300
  H    -43.081200   -0.493231  -20.248000
  H    -44.600400   -7.097670  -25.050400

 Total Charge           Charge          ....    0
 Multiplicity           Mult            ....    1
 Number of Electrons    NEL             ....  134
 Basis Dimension        Dim             ....  322

ORBITAL ENERGIES
----------------

  NO   OCC          E(Eh)            E(eV)
   0   2.0000     -88.966878     -2420.9118
   1   2.0000     -88.966628     -2420.9050
   2   2.0000     -10.331929      -281.1461
   3   2.0000     -10.331559      -281.1360
   4   2.0000     -10.315397      -280.6962
   5   2.0000     -10.314760      -280.6789
   6   2.0000     -10.310852      -280.5726
   7   2.0000     -10.300534      -280.2918
   8   2.0000     -10.296635      -280.1857
   9   2.0000     -10.296532      -280.1829
  10   2.0000     -10.296474      -280.1813
  11   2.0000     -10.296431      -280.1801
  12   2.0000     -10.293590      -280.1028
  13   2.0000     -10.288347      -279.9602
  14   2.0000     -10.285924      -279.8942
  15   2.0000     -10.275928      -279.6222
  16   2.0000      -8.081375      -219.9054
  17   2.0000      -8.080253      -219.8749
  18   2.0000      -6.040003      -164.3568
  19   2.0000      -6.038848      -164.3254
  20   2.0000      -6.035799      -164.2424
  21   2.0000      -6.035107      -164.2236
  22   2.0000      -6.032067      -164.1409
  23   2.0000      -6.030852      -164.1078
  24   2.0000      -1.002715       -27.2853
  25   2.0000      -0.978123       -26.6161
  26   2.0000      -0.911590       -24.8056
  27   2.0000      -0.900724       -24.5099
  28   2.0000      -0.870314       -23.6824
  29   2.0000      -0.845575       -23.0093
  30   2.0000      -0.837111       -22.7790
  31   2.0000      -0.815277       -22.1848
  32   2.0000      -0.783677       -21.3249
  33   2.0000      -0.773108       -21.0373
  34   2.0000      -0.711753       -19.3678
  35   2.0000      -0.698033       -18.9945
  36   2.0000      -0.690615       -18.7926
  37   2.0000      -0.658250       -17.9119
  38   2.0000      -0.636360       -17.3162
  39   2.0000      -0.622030       -16.9263
  40   2.0000      -0.598678       -16.2909
  41   2.0000      -0.570708       -15.5298
  42   2.0000      -0.553111       -15.0509
  43   2.0000      -0.551086       -14.9958
  44   2.0000      -0.547243       -14.8912
  45   2.0000      -0.531558       -14.4644
  46   2.0000      -0.512377       -13.9425
  47   2.0000      -0.504750       -13.7350
  48   2.0000      -0.500334       -13.6148
  49   2.0000      -0.489972       -13.3328
  50   2.0000      -0.486805       -13.2466
  51   2.0000      -0.476197       -12.9580
  52   2.0000      -0.468852       -12.7581
  53   2.0000      -0.462852       -12.5948
  54   2.0000      -0.460115       -12.5204
  55   2.0000      -0.449920       -12.2430
  56   2.0000      -0.445226       -12.1152
  57   2.0000      -0.440630       -11.9901
  58   2.0000      -0.430220       -11.7069
  59   2.0000      -0.429199       -11.6791
  60   2.0000      -0.426439       -11.6040
  61   2.0000      -0.407966       -11.1013
  62   2.0000      -0.406776       -11.0689
  63   2.0000      -0.350965        -9.5503
  64   2.0000      -0.331490        -9.0203
  65   2.0000      -0.330222        -8.9858
  66   2.0000      -0.290723        -7.9110
  67   0.0000       0.025690         0.6991
  68   0.0000       0.071239         1.9385
  69   0.0000       0.105129         2.8607
  70   0.0000       0.122058         3.3214
  71   0.0000       0.123176         3.3518

MULLIKEN ATOMIC CHARGES
-----------------------
   0 S :    0.110831
   1 C :   -0.111740
   2 C :   -0.120577
   3 C :    0.010617
   4 C :   -0.133091
   5 H :    0.018559
   6 C :    0.043565
   7 H :    0.047147
   8 H :    0.008263
   9 C :   -0.059693
  10 H :    0.027326
  11 H :    0.024081
  12 C :   -0.047443
  13 H :    0.039664
  14 H :    0.032444
  15 H :    0.028672
  16 S :    0.087604
  17 C :   -0.040992
  18 C :   -0.016597
  19 C :   -0.033306
  20 C :   -0.139901
  21 H :    0.018543
  22 C :    0.071906
  23 H :    0.039497
  24 H :    0.007058
  25 C :   -0.069672
  26 H :    0.038250
  27 H :    0.029669
  28 C :   -0.123186
  29 H :    0.046271
  30 H :    0.043965
  31 H :    0.049543
  32 H :    0.058127
  33 H :    0.014595
Sum of atomic charges:   -0.0000000

LOEWDIN ATOMIC CHARGES
----------------------
   0 S :    0.412216
   1 C :   -0.217146
   2 C :   -0.067162
   3 C :   -0.068905
   4 C :   -0.188303
   5 H :    0.031311
   6 C :   -0.034210
   7 H :    0.039538
   8 H :    0.025547
   9 C :   -0.039064
  10 H :    0.026458
  11 H :    0.017945
  12 C :   -0.060694
  13 H :    0.025772
  14 H :    0.029126
  15 H :    0.020398
  16 S :    0.363211
  17 C :   -0.138731
  18 C :   -0.061406
  19 C :   -0.043961
  20 C :   -0.192528
  21 H :    0.033927
  22 C :   -0.039163
  23 H :    0.036122
  24 H :    0.022807
  25 C :   -0.041390
  26 H :    0.022638
  27 H :    0.030364
  28 C :   -0.081471
  29 H :    0.024023
  30 H :    0.031042
  31 H :    0.033974
  32 H :    0.044321
  33 H :    0.003394

  Mayer bond orders larger than 0.100000
B(  0-S ,  1-C ) :   1.1234 B(  0-S ,  4-C ) :   1.1582 B(  1-C ,  2-C ) :   1.6403
B(  1-C , 32-H ) :   0.9555 B(  2-C ,  3-C ) :   1.2185 B(  2-C ,  6-C ) :   1.0152
B(  3-C ,  4-C ) :   1.5784 B(  3-C ,  5-H ) :   0.9976 B(  4-C , 20-C ) :   1.0290
B(  6-C ,  7-H ) :   0.9449 B(  6-C ,  8-H ) :   0.9420 B(  6-C ,  9-C ) :   1.0703
B(  9-C , 10-H ) :   0.9556 B(  9-C , 11-H ) :   0.9581 B(  9-C , 12-C ) :   1.0773
B( 12-C , 13-H ) :   0.9744 B( 12-C , 14-H ) :   0.9754 B( 12-C , 15-H ) :   0.9748
B( 16-S , 17-C ) :   1.1427 B( 16-S , 20-C ) :   1.1125 B( 17-C , 18-C ) :   1.6372
B( 17-C , 33-H ) :   0.9723 B( 18-C , 19-C ) :   1.2116 B( 18-C , 21-H ) :   0.9964
B( 19-C , 20-C ) :   1.6232 B( 19-C , 22-C ) :   1.0283 B( 22-C , 23-H ) :   0.9316
B( 22-C , 24-H ) :   0.9278 B( 22-C , 25-C ) :   1.0868 B( 25-C , 26-H ) :   0.9548
B( 25-C , 27-H ) :   0.9590 B( 25-C , 28-C ) :   1.0406 B( 28-C , 29-H ) :   0.9793
B( 28-C , 30-H ) :   0.9829 B( 28-C , 31-H ) :   0.9763

Dispersion correction           -0.014494608
FINAL SINGLE POINT ENERGY     -1339.868718753204

DIPOLE MOMENT
-------------
                                X             Y             Z
Electronic contribution:    -28.33170      -2.68231      -4.09281
Nuclear contribution   :     29.04413       2.47848       4.34599
                        -----------------------------------------
Total Dipole Moment    :      0.71242      -0.20383       0.25318
                        -----------------------------------------
Magnitude (a.u.)       :      0.78306
Magnitude (Debye)      :      1.99039

Rotational constants in cm-1:     0.018161     0.009142     0.006837
Rotational constants in MHz :   544.453964   274.069157   204.961697

                             ****ORCA TERMINATED NORMALLY****
TOTAL RUN TIME: 0 days 0 hours 0 minutes 21 seconds 524 msec
