                         Program Version 4.2.1 -  RELEASE  -
|  1> ! wB97X-D3 SP def2-SVP
|  2> %pal
|  3> nprocs 24
|  4> end
|  5>
|  6> * xyz 0 1
|  7> S 	 -45.9147 	 9.76323 	 -25.2177
|  8> C 	 -46.984 	 8.3553 	 -25.0217
|  9> C 	 -48.306 	 8.68787 	 -25.1389
| 10> C 	 -48.4469 	 10.023 	 -25.604
| 11> C 	 -47.2699 	 10.7671 	 -25.6871
| 12> H 	 -49.3876 	 10.5003 	 -25.8066
| 13> C 	 -49.4885 	 7.85712 	 -24.6641
| 14> H 	 -49.4867 	 7.72942 	 -23.5659
| 15> H 	 -49.3311 	 6.77036 	 -24.9297
| 16> C 	 -50.8953 	 8.26902 	 -25.1658
| 17> H 	 -50.9418 	 9.31586 	 -25.0019
| 18> H 	 -50.9854 	 8.19524 	 -26.2611
| 19> C 	 -52.1414 	 7.50468 	 -24.5994
| 20> H 	 -53.0009 	 7.9463 	 -25.1537
| 21> H 	 -51.9997 	 6.44443 	 -24.8291
| 22> H 	 -52.2174 	 7.6929 	 -23.5471
| 23> S 	 -48.1245 	 12.847 	 -27.1575
| 24> C 	 -47.7163 	 14.4432 	 -26.6425
| 25> C 	 -46.9524 	 14.4594 	 -25.5246
| 26> C 	 -46.5898 	 13.1684 	 -25.0872
| 27> C 	 -47.0973 	 12.1925 	 -25.9523
| 28> H 	 -46.874 	 15.3135 	 -24.914
| 29> C 	 -45.8447 	 13.1017 	 -23.7728
| 30> H 	 -45.5212 	 14.0351 	 -23.3929
| 31> H 	 -44.9727 	 12.4088 	 -23.9924
| 32> C 	 -46.6149 	 12.513 	 -22.6068
| 33> H 	 -47.0567 	 11.5815 	 -22.9764
| 34> H 	 -47.3966 	 13.1688 	 -22.1871
| 35> C 	 -45.5661 	 12.265 	 -21.4309
| 36> H 	 -44.529 	 11.8848 	 -21.5938
| 37> H 	 -46.0377 	 11.6399 	 -20.6841
| 38> H 	 -45.4094 	 13.2654 	 -21.0133
| 39> H 	 -46.6965 	 7.49288 	 -24.4415
| 40> H 	 -48.2592 	 15.3121 	 -26.9275
| 41> *
| 42>
| 43>                          ****END OF INPUT****

CARTESIAN COORDINATES (ANGSTROEM)
---------------------------------
  S    -45.914700    9.763230  -25.217700
  C    -46.984000    8.355300  -25.021700
  C    -48.306000    8.687870  -25.138900
  C    -48.446900   10.023000  -25.604000
  C    -47.269900   10.767100  -25.687100
  H    -49.387600   10.500300  -25.806600
  C    -49.488500    7.857120  -24.664100
  H    -49.486700    7.729420  -23.565900
  H    -49.331100    6.770360  -24.929700
  C    -50.895300    8.269020  -25.165800
  H    -50.941800    9.315860  -25.001900
  H    -50.985400    8.195240  -26.261100
  C    -52.141400    7.504680  -24.599400
  H    -53.000900    7.946300  -25.153700
  H    -51.999700    6.444430  -24.829100
  H    -52.217400    7.692900  -23.547100
  S    -48.124500   12.847000  -27.157500
  C    -47.716300   14.443200  -26.642500
  C    -46.952400   14.459400  -25.524600
  C    -46.589800   13.168400  -25.087200
  C    -47.097300   12.192500  -25.952300
  H    -46.874000   15.313500  -24.914000
  C    -45.844700   13.101700  -23.772800
  H    -45.521200   14.035100  -23.392900
  H    -44.972700   12.408800  -23.992400
  C    -46.614900   12.513000  -22.606800
  H    -47.056700   11.581500  -22.976400
  H    -47.396600   13.168800  -22.187100
  C    -45.566100   12.265000  -21.430900
  H    -44.529000   11.884800  -21.593800
  H    -46.037700   11.639900  -20.684100
  H    -45.409400   13.265400  -21.013300
  H    -46.696500    7.492880  -24.441500
  H    -48.259200   15.312100  -26.927500

 Total Charge           Charge          ....    0
 Multiplicity           Mult            ....    1
 Number of Electrons    NEL             ....  134
 Basis Dimension        Dim             ....  322

ORBITAL ENERGIES
----------------

  NO   OCC          E(Eh)            E(eV)
   0   2.0000     -88.969550     -2420.9845
   1   2.0000     -88.966281     -2420.8956
   2   2.0000     -10.331919      -281.1458
   3   2.0000     -10.325342      -280.9668
   4   2.0000     -10.309794      -280.5438
   5   2.0000     -10.309292      -280.5301
   6   2.0000     -10.302917      -280.3566
   7   2.0000     -10.301839      -280.3273
   8   2.0000     -10.300940      -280.3028
   9   2.0000     -10.291937      -280.0578
  10   2.0000     -10.290652      -280.0229
  11   2.0000     -10.288290      -279.9586
  12   2.0000     -10.287792      -279.9451
  13   2.0000     -10.286015      -279.8967
  14   2.0000     -10.284093      -279.8444
  15   2.0000     -10.280472      -279.7459
  16   2.0000      -8.085118      -220.0073
  17   2.0000      -8.080186      -219.8731
  18   2.0000      -6.043495      -164.4519
  19   2.0000      -6.039583      -164.3454
  20   2.0000      -6.038787      -164.3237
  21   2.0000      -6.035906      -164.2453
  22   2.0000      -6.034827      -164.2160
  23   2.0000      -6.030905      -164.1093
  24   2.0000      -1.013684       -27.5837
  25   2.0000      -0.987113       -26.8607
  26   2.0000      -0.911414       -24.8008
  27   2.0000      -0.907463       -24.6933
  28   2.0000      -0.873452       -23.7678
  29   2.0000      -0.852922       -23.2092
  30   2.0000      -0.842407       -22.9231
  31   2.0000      -0.813494       -22.1363
  32   2.0000      -0.783565       -21.3219
  33   2.0000      -0.771564       -20.9953
  34   2.0000      -0.714135       -19.4326
  35   2.0000      -0.696939       -18.9647
  36   2.0000      -0.684892       -18.6369
  37   2.0000      -0.672118       -18.2893
  38   2.0000      -0.635189       -17.2844
  39   2.0000      -0.621758       -16.9189
  40   2.0000      -0.602970       -16.4077
  41   2.0000      -0.571784       -15.5590
  42   2.0000      -0.565852       -15.3976
  43   2.0000      -0.562527       -15.3071
  44   2.0000      -0.526383       -14.3236
  45   2.0000      -0.520531       -14.1644
  46   2.0000      -0.513414       -13.9707
  47   2.0000      -0.506779       -13.7901
  48   2.0000      -0.500797       -13.6274
  49   2.0000      -0.495633       -13.4869
  50   2.0000      -0.490742       -13.3538
  51   2.0000      -0.484080       -13.1725
  52   2.0000      -0.478398       -13.0179
  53   2.0000      -0.467120       -12.7110
  54   2.0000      -0.464100       -12.6288
  55   2.0000      -0.452020       -12.3001
  56   2.0000      -0.444264       -12.0890
  57   2.0000      -0.443394       -12.0654
  58   2.0000      -0.433492       -11.7959
  59   2.0000      -0.423702       -11.5295
  60   2.0000      -0.420884       -11.4528
  61   2.0000      -0.415279       -11.3003
  62   2.0000      -0.404662       -11.0114
  63   2.0000      -0.348306        -9.4779
  64   2.0000      -0.334730        -9.1085
  65   2.0000      -0.331396        -9.0177
  66   2.0000      -0.288991        -7.8639
  67   0.0000       0.023031         0.6267
  68   0.0000       0.075169         2.0454
  69   0.0000       0.101912         2.7732
  70   0.0000       0.123199         3.3524
  71   0.0000       0.131429         3.5764

MULLIKEN ATOMIC CHARGES
-----------------------
   0 S :    0.093734
   1 C :   -0.112468
   2 C :   -0.057945
   3 C :    0.005577
   4 C :   -0.170286
   5 H :    0.004299
   6 C :    0.036947
   7 H :    0.038885
   8 H :    0.026265
   9 C :   -0.125616
  10 H :    0.026232
  11 H :    0.034065
  12 C :   -0.028667
  13 H :    0.045844
  14 H :    0.042177
  15 H :    0.036086
  16 S :    0.114512
  17 C :   -0.068518
  18 C :   -0.020993
  19 C :   -0.030656
  20 C :   -0.124377
  21 H :    0.005634
  22 C :    0.055925
  23 H :    0.005690
  24 H :    0.044430
  25 C :   -0.081378
  26 H :    0.044334
  27 H :    0.037581
  28 C :   -0.070603
  29 H :    0.043009
  30 H :    0.036309
  31 H :    0.022681
  32 H :    0.045995
  33 H :    0.045299
Sum of atomic charges:   -0.0000000

LOEWDIN ATOMIC CHARGES
----------------------
   0 S :    0.397257
   1 C :   -0.194929
   2 C :   -0.058383
   3 C :   -0.075580
   4 C :   -0.187417
   5 H :    0.021595
   6 C :   -0.040812
   7 H :    0.035459
   8 H :    0.035236
   9 C :   -0.047123
  10 H :    0.014077
  11 H :    0.026665
  12 C :   -0.056473
  13 H :    0.036239
  14 H :    0.027871
  15 H :    0.021151
  16 S :    0.444444
  17 C :   -0.188029
  18 C :   -0.065586
  19 C :   -0.048270
  20 C :   -0.218972
  21 H :    0.026058
  22 C :   -0.033411
  23 H :    0.022132
  24 H :    0.038944
  25 C :   -0.033372
  26 H :    0.020829
  27 H :    0.027069
  28 C :   -0.072187
  29 H :    0.029704
  30 H :    0.023744
  31 H :    0.023245
  32 H :    0.025176
  33 H :    0.023649

  Mayer bond orders larger than 0.100000
B(  0-S ,  1-C ) :   1.1244 B(  0-S ,  4-C ) :   1.1570 B(  1-C ,  2-C ) :   1.6405
B(  1-C , 32-H ) :   0.9624 B(  2-C ,  3-C ) :   1.2571 B(  2-C ,  6-C ) :   1.0123
B(  3-C ,  4-C ) :   1.5710 B(  3-C ,  5-H ) :   0.9847 B(  4-C , 20-C ) :   1.0229
B(  6-C ,  7-H ) :   0.9380 B(  6-C ,  8-H ) :   0.9358 B(  6-C ,  9-C ) :   1.0623
B(  9-C , 10-H ) :   0.9480 B(  9-C , 11-H ) :   0.9612 B(  9-C , 12-C ) :   1.0784
B( 12-C , 13-H ) :   0.9735 B( 12-C , 14-H ) :   0.9767 B( 12-C , 15-H ) :   0.9774
B( 16-S , 17-C ) :   1.1694 B( 16-S , 20-C ) :   1.1545 B( 17-C , 18-C ) :   1.5979
B( 17-C , 33-H ) :   0.9639 B( 18-C , 19-C ) :   1.2921 B( 18-C , 21-H ) :   0.9920
B( 19-C , 20-C ) :   1.5450 B( 19-C , 22-C ) :   1.0309 B( 22-C , 23-H ) :   0.9409
B( 22-C , 24-H ) :   0.9367 B( 22-C , 25-C ) :   1.0603 B( 25-C , 26-H ) :   0.9595
B( 25-C , 27-H ) :   0.9548 B( 25-C , 28-C ) :   1.0609 B( 28-C , 29-H ) :   0.9791
B( 28-C , 30-H ) :   0.9766 B( 28-C , 31-H ) :   0.9760

Dispersion correction           -0.014368325
FINAL SINGLE POINT ENERGY     -1339.866597799421

DIPOLE MOMENT
-------------
                                X             Y             Z
Electronic contribution:     10.73136       7.52115     -18.34101
Nuclear contribution   :    -11.27847      -7.37173      19.03089
                        -----------------------------------------
Total Dipole Moment    :     -0.54711       0.14942       0.68988
                        -----------------------------------------
Magnitude (a.u.)       :      0.89308
Magnitude (Debye)      :      2.27002

Rotational constants in cm-1:     0.017243     0.008796     0.007303
Rotational constants in MHz :   516.927937   263.687759   218.925650

                             ****ORCA TERMINATED NORMALLY****
TOTAL RUN TIME: 0 days 0 hours 0 minutes 21 seconds 736 msec
