                         Program Version 4.2.1 -  RELEASE  -
|  1> ! wB97X-D3 SP def2-SVP
|  2> %pal
|  3> nprocs 24
|  4> end
|  5>
|  6> * xyz 0 1
|  7> S 	 -131.087 	 59.3369 	 -59.6119
|  8> C 	 -132.154 	 58.7303 	 -58.3495
|  9> C 	 -131.419 	 58.3339 	 -57.2238
| 10> C 	 -130.066 	 58.4799 	 -57.4593
| 11> C 	 -129.681 	 58.9292 	 -58.6852
| 12> H 	 -129.333 	 58.3324 	 -56.669
| 13> C 	 -131.98 	 57.8319 	 -55.9146
| 14> H 	 -131.207 	 58.3214 	 -55.2509
| 15> H 	 -131.768 	 56.78 	 -55.7057
| 16> C 	 -133.364 	 58.2814 	 -55.5781
| 17> H 	 -133.471 	 59.3304 	 -55.9265
| 18> H 	 -134.208 	 57.6953 	 -55.876
| 19> C 	 -133.563 	 58.2723 	 -54.0319
| 20> H 	 -134.438 	 58.809 	 -53.758
| 21> H 	 -133.666 	 57.3432 	 -53.557
| 22> H 	 -132.784 	 58.8399 	 -53.5351
| 23> S 	 -127.94 	 58.0235 	 -60.591
| 24> C 	 -126.265 	 58.6044 	 -60.6155
| 25> C 	 -126.11 	 59.7189 	 -59.8021
| 26> C 	 -127.256 	 59.9608 	 -59.0111
| 27> C 	 -128.3 	 59.0757 	 -59.2064
| 28> H 	 -125.138 	 60.2783 	 -59.7938
| 29> C 	 -127.301 	 61.0724 	 -58.0234
| 30> H 	 -126.312 	 61.3313 	 -57.7377
| 31> H 	 -127.826 	 60.6 	 -57.1564
| 32> C 	 -127.961 	 62.3896 	 -58.4764
| 33> H 	 -129.01 	 62.1175 	 -58.7331
| 34> H 	 -127.42 	 62.8418 	 -59.3584
| 35> C 	 -128.15 	 63.3367 	 -57.2348
| 36> H 	 -128.704 	 64.2474 	 -57.5424
| 37> H 	 -127.177 	 63.6056 	 -56.7451
| 38> H 	 -128.518 	 62.8617 	 -56.3677
| 39> H 	 -133.232 	 58.4501 	 -58.5303
| 40> H 	 -125.55 	 58.2077 	 -61.2536
| 41> *
| 42>
| 43>                          ****END OF INPUT****

CARTESIAN COORDINATES (ANGSTROEM)
---------------------------------
  S    -131.087000   59.336900  -59.611900
  C    -132.154000   58.730300  -58.349500
  C    -131.419000   58.333900  -57.223800
  C    -130.066000   58.479900  -57.459300
  C    -129.681000   58.929200  -58.685200
  H    -129.333000   58.332400  -56.669000
  C    -131.980000   57.831900  -55.914600
  H    -131.207000   58.321400  -55.250900
  H    -131.768000   56.780000  -55.705700
  C    -133.364000   58.281400  -55.578100
  H    -133.471000   59.330400  -55.926500
  H    -134.208000   57.695300  -55.876000
  C    -133.563000   58.272300  -54.031900
  H    -134.438000   58.809000  -53.758000
  H    -133.666000   57.343200  -53.557000
  H    -132.784000   58.839900  -53.535100
  S    -127.940000   58.023500  -60.591000
  C    -126.265000   58.604400  -60.615500
  C    -126.110000   59.718900  -59.802100
  C    -127.256000   59.960800  -59.011100
  C    -128.300000   59.075700  -59.206400
  H    -125.138000   60.278300  -59.793800
  C    -127.301000   61.072400  -58.023400
  H    -126.312000   61.331300  -57.737700
  H    -127.826000   60.600000  -57.156400
  C    -127.961000   62.389600  -58.476400
  H    -129.010000   62.117500  -58.733100
  H    -127.420000   62.841800  -59.358400
  C    -128.150000   63.336700  -57.234800
  H    -128.704000   64.247400  -57.542400
  H    -127.177000   63.605600  -56.745100
  H    -128.518000   62.861700  -56.367700
  H    -133.232000   58.450100  -58.530300
  H    -125.550000   58.207700  -61.253600

 Total Charge           Charge          ....    0
 Multiplicity           Mult            ....    1
 Number of Electrons    NEL             ....  134
 Basis Dimension        Dim             ....  322

ORBITAL ENERGIES
----------------

  NO   OCC          E(Eh)            E(eV)
   0   2.0000     -88.966714     -2420.9074
   1   2.0000     -88.962985     -2420.8059
   2   2.0000     -10.327929      -281.0372
   3   2.0000     -10.327329      -281.0209
   4   2.0000     -10.316777      -280.7338
   5   2.0000     -10.316374      -280.7228
   6   2.0000     -10.301043      -280.3056
   7   2.0000     -10.298079      -280.2250
   8   2.0000     -10.297575      -280.2113
   9   2.0000     -10.296642      -280.1859
  10   2.0000     -10.293865      -280.1103
  11   2.0000     -10.288839      -279.9736
  12   2.0000     -10.286132      -279.8999
  13   2.0000     -10.286061      -279.8980
  14   2.0000     -10.279658      -279.7237
  15   2.0000     -10.270032      -279.4618
  16   2.0000      -8.081287      -219.9030
  17   2.0000      -8.077204      -219.7919
  18   2.0000      -6.039782      -164.3508
  19   2.0000      -6.035728      -164.2405
  20   2.0000      -6.035696      -164.2396
  21   2.0000      -6.032156      -164.1433
  22   2.0000      -6.031840      -164.1347
  23   2.0000      -6.027955      -164.0290
  24   2.0000      -1.007682       -27.4204
  25   2.0000      -0.985430       -26.8149
  26   2.0000      -0.917539       -24.9675
  27   2.0000      -0.905482       -24.6394
  28   2.0000      -0.866503       -23.5787
  29   2.0000      -0.852259       -23.1912
  30   2.0000      -0.846032       -23.0217
  31   2.0000      -0.813580       -22.1386
  32   2.0000      -0.782099       -21.2820
  33   2.0000      -0.768737       -20.9184
  34   2.0000      -0.714833       -19.4516
  35   2.0000      -0.700975       -19.0745
  36   2.0000      -0.690286       -18.7836
  37   2.0000      -0.665234       -18.1019
  38   2.0000      -0.638273       -17.3683
  39   2.0000      -0.617570       -16.8049
  40   2.0000      -0.592801       -16.1309
  41   2.0000      -0.578746       -15.7485
  42   2.0000      -0.566911       -15.4264
  43   2.0000      -0.561097       -15.2682
  44   2.0000      -0.528535       -14.3822
  45   2.0000      -0.523510       -14.2454
  46   2.0000      -0.518046       -14.0968
  47   2.0000      -0.512526       -13.9466
  48   2.0000      -0.502639       -13.6775
  49   2.0000      -0.497081       -13.5263
  50   2.0000      -0.490544       -13.3484
  51   2.0000      -0.481807       -13.1106
  52   2.0000      -0.467524       -12.7220
  53   2.0000      -0.461421       -12.5559
  54   2.0000      -0.453941       -12.3524
  55   2.0000      -0.446420       -12.1477
  56   2.0000      -0.440593       -11.9891
  57   2.0000      -0.439937       -11.9713
  58   2.0000      -0.435682       -11.8555
  59   2.0000      -0.431831       -11.7507
  60   2.0000      -0.418430       -11.3861
  61   2.0000      -0.413289       -11.2462
  62   2.0000      -0.409588       -11.1455
  63   2.0000      -0.337912        -9.1951
  64   2.0000      -0.328993        -8.9524
  65   2.0000      -0.326084        -8.8732
  66   2.0000      -0.300115        -8.1665
  67   0.0000       0.035836         0.9751
  68   0.0000       0.054979         1.4961
  69   0.0000       0.114240         3.1086
  70   0.0000       0.118464         3.2236
  71   0.0000       0.131936         3.5902

MULLIKEN ATOMIC CHARGES
-----------------------
   0 S :    0.124472
   1 C :   -0.168330
   2 C :   -0.082998
   3 C :    0.033568
   4 C :   -0.155307
   5 H :    0.007138
   6 C :    0.061928
   7 H :    0.026232
   8 H :    0.043940
   9 C :   -0.062559
  10 H :    0.040877
  11 H :    0.035764
  12 C :   -0.041601
  13 H :    0.015679
  14 H :    0.024970
  15 H :    0.019232
  16 S :    0.093128
  17 C :   -0.068364
  18 C :   -0.050617
  19 C :   -0.014625
  20 C :   -0.176366
  21 H :    0.039653
  22 C :    0.064362
  23 H :    0.001484
  24 H :    0.026401
  25 C :   -0.076091
  26 H :    0.036208
  27 H :    0.048166
  28 C :   -0.037324
  29 H :    0.052794
  30 H :    0.012807
  31 H :    0.014631
  32 H :    0.076673
  33 H :    0.034074
Sum of atomic charges:   -0.0000000

LOEWDIN ATOMIC CHARGES
----------------------
   0 S :    0.414129
   1 C :   -0.214076
   2 C :   -0.067898
   3 C :   -0.069893
   4 C :   -0.205469
   5 H :    0.030361
   6 C :   -0.037176
   7 H :    0.042186
   8 H :    0.036302
   9 C :   -0.040127
  10 H :    0.033972
  11 H :    0.025460
  12 C :   -0.058971
  13 H :    0.021934
  14 H :    0.017247
  15 H :    0.021409
  16 S :    0.389748
  17 C :   -0.158422
  18 C :   -0.076672
  19 C :   -0.056965
  20 C :   -0.192939
  21 H :    0.043062
  22 C :   -0.035034
  23 H :    0.019674
  24 H :    0.037245
  25 C :   -0.037707
  26 H :    0.027489
  27 H :    0.032351
  28 C :   -0.073130
  29 H :    0.032157
  30 H :    0.025328
  31 H :    0.019881
  32 H :    0.041002
  33 H :    0.013541

  Mayer bond orders larger than 0.100000
B(  0-S ,  1-C ) :   1.1456 B(  0-S ,  4-C ) :   1.1617 B(  1-C ,  2-C ) :   1.5783
B(  1-C ,  4-C ) :   0.1035 B(  1-C , 32-H ) :   0.9552 B(  2-C ,  3-C ) :   1.2949
B(  2-C ,  6-C ) :   0.9952 B(  3-C ,  4-C ) :   1.5728 B(  3-C ,  5-H ) :   0.9892
B(  4-C , 20-C ) :   1.0011 B(  6-C ,  7-H ) :   0.9434 B(  6-C ,  8-H ) :   0.9294
B(  6-C ,  9-C ) :   1.0763 B(  9-C , 10-H ) :   0.9548 B(  9-C , 11-H ) :   0.9499
B(  9-C , 12-C ) :   1.0845 B( 12-C , 13-H ) :   0.9726 B( 12-C , 14-H ) :   0.9768
B( 12-C , 15-H ) :   0.9763 B( 16-S , 17-C ) :   1.1652 B( 16-S , 20-C ) :   1.1323
B( 17-C , 18-C ) :   1.5930 B( 17-C , 20-C ) :   0.1086 B( 17-C , 33-H ) :   0.9775
B( 18-C , 19-C ) :   1.2433 B( 18-C , 21-H ) :   0.9847 B( 19-C , 20-C ) :   1.6038
B( 19-C , 22-C ) :   1.0434 B( 22-C , 23-H ) :   0.9277 B( 22-C , 24-H ) :   0.9324
B( 22-C , 25-C ) :   1.0660 B( 25-C , 26-H ) :   0.9557 B( 25-C , 27-H ) :   0.9548
B( 25-C , 28-C ) :   1.0718 B( 28-C , 29-H ) :   0.9757 B( 28-C , 30-H ) :   0.9698
B( 28-C , 31-H ) :   0.9706

Dispersion correction           -0.013829227
FINAL SINGLE POINT ENERGY     -1339.863603407228

DIPOLE MOMENT
-------------
                                X             Y             Z
Electronic contribution:      7.18452     -11.29761     -24.52868
Nuclear contribution   :     -7.10769      11.39389      25.09644
                        -----------------------------------------
Total Dipole Moment    :      0.07683       0.09628       0.56776
                        -----------------------------------------
Magnitude (a.u.)       :      0.58097
Magnitude (Debye)      :      1.47671

Rotational constants in cm-1:     0.019751     0.007775     0.006442
Rotational constants in MHz :   592.119963   233.102248   193.136681

                             ****ORCA TERMINATED NORMALLY****
TOTAL RUN TIME: 0 days 0 hours 0 minutes 22 seconds 390 msec
