                         Program Version 4.2.1 -  RELEASE  -
|  1> ! wB97X-D3 SP def2-SVP
|  2> %pal
|  3> nprocs 24
|  4> end
|  5>
|  6> * xyz 0 1
|  7> S 	 -59.6833 	 16.9405 	 -86.4646
|  8> C 	 -60.6942 	 17.6945 	 -87.6686
|  9> C 	 -60.0909 	 18.8979 	 -88.0818
| 10> C 	 -58.8602 	 19.1927 	 -87.4359
| 11> C 	 -58.436 	 18.2121 	 -86.5519
| 12> H 	 -58.2736 	 20.0534 	 -87.663
| 13> C 	 -60.5149 	 19.7119 	 -89.2924
| 14> H 	 -60.1272 	 20.7159 	 -89.211
| 15> H 	 -61.6274 	 19.8096 	 -89.2672
| 16> C 	 -60.1625 	 19.1555 	 -90.6481
| 17> H 	 -60.5059 	 18.1296 	 -90.5473
| 18> H 	 -60.8185 	 19.622 	 -91.3583
| 19> C 	 -58.6264 	 19.2313 	 -91.0445
| 20> H 	 -58.0432 	 18.501 	 -90.4511
| 21> H 	 -58.4974 	 18.9851 	 -92.0987
| 22> H 	 -58.1301 	 20.1404 	 -90.9956
| 23> S 	 -57.5563 	 17.7911 	 -84.0533
| 24> C 	 -55.8883 	 18.1391 	 -83.6032
| 25> C 	 -55.1114 	 18.3585 	 -84.7416
| 26> C 	 -55.8656 	 18.3633 	 -85.9755
| 27> C 	 -57.2174 	 18.1521 	 -85.7025
| 28> H 	 -54.0636 	 18.5627 	 -84.594
| 29> C 	 -55.271 	 18.6225 	 -87.3359
| 30> H 	 -54.7913 	 19.6195 	 -87.2835
| 31> H 	 -56.1492 	 18.7689 	 -87.9389
| 32> C 	 -54.3812 	 17.5214 	 -87.9818
| 33> H 	 -54.8812 	 16.5424 	 -87.9408
| 34> H 	 -53.4361 	 17.388 	 -87.5036
| 35> C 	 -54.0048 	 17.7216 	 -89.4558
| 36> H 	 -53.3433 	 17.0402 	 -89.9306
| 37> H 	 -53.583 	 18.6717 	 -89.6584
| 38> H 	 -54.8894 	 17.6338 	 -90.1107
| 39> H 	 -61.607 	 17.2891 	 -88.0048
| 40> H 	 -55.4861 	 17.9848 	 -82.58
| 41> *
| 42>
| 43>                          ****END OF INPUT****

CARTESIAN COORDINATES (ANGSTROEM)
---------------------------------
  S    -59.683300   16.940500  -86.464600
  C    -60.694200   17.694500  -87.668600
  C    -60.090900   18.897900  -88.081800
  C    -58.860200   19.192700  -87.435900
  C    -58.436000   18.212100  -86.551900
  H    -58.273600   20.053400  -87.663000
  C    -60.514900   19.711900  -89.292400
  H    -60.127200   20.715900  -89.211000
  H    -61.627400   19.809600  -89.267200
  C    -60.162500   19.155500  -90.648100
  H    -60.505900   18.129600  -90.547300
  H    -60.818500   19.622000  -91.358300
  C    -58.626400   19.231300  -91.044500
  H    -58.043200   18.501000  -90.451100
  H    -58.497400   18.985100  -92.098700
  H    -58.130100   20.140400  -90.995600
  S    -57.556300   17.791100  -84.053300
  C    -55.888300   18.139100  -83.603200
  C    -55.111400   18.358500  -84.741600
  C    -55.865600   18.363300  -85.975500
  C    -57.217400   18.152100  -85.702500
  H    -54.063600   18.562700  -84.594000
  C    -55.271000   18.622500  -87.335900
  H    -54.791300   19.619500  -87.283500
  H    -56.149200   18.768900  -87.938900
  C    -54.381200   17.521400  -87.981800
  H    -54.881200   16.542400  -87.940800
  H    -53.436100   17.388000  -87.503600
  C    -54.004800   17.721600  -89.455800
  H    -53.343300   17.040200  -89.930600
  H    -53.583000   18.671700  -89.658400
  H    -54.889400   17.633800  -90.110700
  H    -61.607000   17.289100  -88.004800
  H    -55.486100   17.984800  -82.580000

 Total Charge           Charge          ....    0
 Multiplicity           Mult            ....    1
 Number of Electrons    NEL             ....  134
 Basis Dimension        Dim             ....  322

ORBITAL ENERGIES
----------------

  NO   OCC          E(Eh)            E(eV)
   0   2.0000     -88.967222     -2420.9212
   1   2.0000     -88.965352     -2420.8703
   2   2.0000     -10.335865      -281.2532
   3   2.0000     -10.329687      -281.0851
   4   2.0000     -10.321336      -280.8578
   5   2.0000     -10.316075      -280.7147
   6   2.0000     -10.308390      -280.5056
   7   2.0000     -10.301981      -280.3312
   8   2.0000     -10.297417      -280.2070
   9   2.0000     -10.295638      -280.1585
  10   2.0000     -10.293606      -280.1033
  11   2.0000     -10.288752      -279.9712
  12   2.0000     -10.288685      -279.9693
  13   2.0000     -10.287012      -279.9238
  14   2.0000     -10.277313      -279.6599
  15   2.0000     -10.271972      -279.5146
  16   2.0000      -8.081384      -219.9056
  17   2.0000      -8.080573      -219.8836
  18   2.0000      -6.039952      -164.3554
  19   2.0000      -6.039062      -164.3312
  20   2.0000      -6.035755      -164.2412
  21   2.0000      -6.034988      -164.2204
  22   2.0000      -6.032341      -164.1483
  23   2.0000      -6.031334      -164.1209
  24   2.0000      -1.005170       -27.3521
  25   2.0000      -0.982061       -26.7232
  26   2.0000      -0.909836       -24.7579
  27   2.0000      -0.905883       -24.6503
  28   2.0000      -0.864834       -23.5333
  29   2.0000      -0.854905       -23.2631
  30   2.0000      -0.843236       -22.9456
  31   2.0000      -0.815187       -22.1824
  32   2.0000      -0.785101       -21.3637
  33   2.0000      -0.773506       -21.0482
  34   2.0000      -0.709072       -19.2948
  35   2.0000      -0.706024       -19.2119
  36   2.0000      -0.694839       -18.9075
  37   2.0000      -0.661848       -18.0098
  38   2.0000      -0.644563       -17.5395
  39   2.0000      -0.617227       -16.7956
  40   2.0000      -0.591372       -16.0921
  41   2.0000      -0.572422       -15.5764
  42   2.0000      -0.564438       -15.3591
  43   2.0000      -0.545570       -14.8457
  44   2.0000      -0.539779       -14.6881
  45   2.0000      -0.524474       -14.2717
  46   2.0000      -0.514357       -13.9964
  47   2.0000      -0.510771       -13.8988
  48   2.0000      -0.508699       -13.8424
  49   2.0000      -0.502263       -13.6673
  50   2.0000      -0.486207       -13.2304
  51   2.0000      -0.484518       -13.1844
  52   2.0000      -0.476550       -12.9676
  53   2.0000      -0.461462       -12.5570
  54   2.0000      -0.458198       -12.4682
  55   2.0000      -0.452416       -12.3109
  56   2.0000      -0.443988       -12.0815
  57   2.0000      -0.435344       -11.8463
  58   2.0000      -0.430054       -11.7024
  59   2.0000      -0.427934       -11.6447
  60   2.0000      -0.421809       -11.4780
  61   2.0000      -0.418229       -11.3806
  62   2.0000      -0.412697       -11.2301
  63   2.0000      -0.349126        -9.5002
  64   2.0000      -0.331678        -9.0254
  65   2.0000      -0.328006        -8.9255
  66   2.0000      -0.291851        -7.9417
  67   0.0000       0.028745         0.7822
  68   0.0000       0.066259         1.8030
  69   0.0000       0.108311         2.9473
  70   0.0000       0.117590         3.1998
  71   0.0000       0.131427         3.5763

MULLIKEN ATOMIC CHARGES
-----------------------
   0 S :    0.103889
   1 C :   -0.107396
   2 C :   -0.095342
   3 C :    0.056572
   4 C :   -0.155171
   5 H :    0.007158
   6 C :    0.031035
   7 H :    0.013960
   8 H :    0.028377
   9 C :   -0.026210
  10 H :    0.016468
  11 H :    0.026903
  12 C :   -0.050027
  13 H :    0.049492
  14 H :    0.028401
  15 H :    0.014955
  16 S :    0.107348
  17 C :   -0.111546
  18 C :   -0.037619
  19 C :   -0.048937
  20 C :   -0.153446
  21 H :    0.019721
  22 C :    0.102151
  23 H :    0.036293
  24 H :    0.000440
  25 C :   -0.045278
  26 H :    0.037041
  27 H :    0.024107
  28 C :   -0.044376
  29 H :    0.023903
  30 H :    0.014709
  31 H :    0.021930
  32 H :    0.038056
  33 H :    0.072441
Sum of atomic charges:    0.0000000

LOEWDIN ATOMIC CHARGES
----------------------
   0 S :    0.398332
   1 C :   -0.193810
   2 C :   -0.063244
   3 C :   -0.063044
   4 C :   -0.183852
   5 H :    0.028389
   6 C :   -0.036707
   7 H :    0.022699
   8 H :    0.034529
   9 C :   -0.032925
  10 H :    0.024561
  11 H :    0.022036
  12 C :   -0.067313
  13 H :    0.031994
  14 H :    0.029359
  15 H :    0.013767
  16 S :    0.414752
  17 C :   -0.190640
  18 C :   -0.066731
  19 C :   -0.056696
  20 C :   -0.204039
  21 H :    0.030740
  22 C :   -0.031888
  23 H :    0.036878
  24 H :    0.028319
  25 C :   -0.035070
  26 H :    0.032193
  27 H :    0.020098
  28 C :   -0.067041
  29 H :    0.023990
  30 H :    0.017268
  31 H :    0.025669
  32 H :    0.020759
  33 H :    0.036669

  Mayer bond orders larger than 0.100000
B(  0-S ,  1-C ) :   1.1457 B(  0-S ,  4-C ) :   1.1590 B(  1-C ,  2-C ) :   1.5657
B(  1-C ,  4-C ) :   0.1082 B(  1-C , 32-H ) :   0.9807 B(  2-C ,  3-C ) :   1.2680
B(  2-C ,  6-C ) :   1.0384 B(  3-C ,  4-C ) :   1.5525 B(  3-C ,  5-H ) :   0.9950
B(  4-C , 20-C ) :   1.0067 B(  6-C ,  7-H ) :   0.9410 B(  6-C ,  8-H ) :   0.9367
B(  6-C ,  9-C ) :   1.0756 B(  9-C , 10-H ) :   0.9524 B(  9-C , 11-H ) :   0.9566
B(  9-C , 12-C ) :   1.0656 B( 12-C , 13-H ) :   0.9759 B( 12-C , 14-H ) :   0.9734
B( 12-C , 15-H ) :   0.9786 B( 16-S , 17-C ) :   1.1471 B( 16-S , 20-C ) :   1.1616
B( 17-C , 18-C ) :   1.6158 B( 17-C , 33-H ) :   0.9642 B( 18-C , 19-C ) :   1.2192
B( 18-C , 21-H ) :   0.9932 B( 19-C , 20-C ) :   1.5911 B( 19-C , 22-C ) :   1.0482
B( 22-C , 23-H ) :   0.9270 B( 22-C , 24-H ) :   0.9238 B( 22-C , 25-C ) :   1.0580
B( 25-C , 26-H ) :   0.9554 B( 25-C , 27-H ) :   0.9572 B( 25-C , 28-C ) :   1.0862
B( 28-C , 29-H ) :   0.9741 B( 28-C , 30-H ) :   0.9743 B( 28-C , 31-H ) :   0.9740

Dispersion correction           -0.014566212
FINAL SINGLE POINT ENERGY     -1339.882250232055

DIPOLE MOMENT
-------------
                                X             Y             Z
Electronic contribution:    -10.53288      -6.85949      28.10683
Nuclear contribution   :     10.86336       7.11341     -28.63671
                        -----------------------------------------
Total Dipole Moment    :      0.33048       0.25392      -0.52988
                        -----------------------------------------
Magnitude (a.u.)       :      0.67414
Magnitude (Debye)      :      1.71353

Rotational constants in cm-1:     0.016525     0.010136     0.006944
Rotational constants in MHz :   495.410936   303.882475   208.161149

                             ****ORCA TERMINATED NORMALLY****
TOTAL RUN TIME: 0 days 0 hours 0 minutes 21 seconds 945 msec
