                         Program Version 4.2.1 -  RELEASE  -
|  1> ! wB97X-D3 SP def2-SVP
|  2> %pal
|  3> nprocs 24
|  4> end
|  5>
|  6> * xyz 0 1
|  7> S 	 -64.4468 	 21.8507 	 -72.7606
|  8> C 	 -65.0051 	 20.3841 	 -73.6215
|  9> C 	 -66.1165 	 19.8284 	 -72.9786
| 10> C 	 -66.6306 	 20.6236 	 -71.9284
| 11> C 	 -65.8503 	 21.7982 	 -71.6989
| 12> H 	 -67.5067 	 20.5108 	 -71.2426
| 13> C 	 -66.9347 	 18.6167 	 -73.4692
| 14> H 	 -67.2732 	 18.0706 	 -72.6111
| 15> H 	 -66.2155 	 17.857 	 -73.8084
| 16> C 	 -67.8113 	 18.9083 	 -74.6042
| 17> H 	 -68.2518 	 19.8934 	 -74.508
| 18> H 	 -67.1047 	 19.12 	 -75.408
| 19> C 	 -68.8077 	 17.768 	 -74.984
| 20> H 	 -69.4658 	 17.6924 	 -74.1067
| 21> H 	 -69.305 	 17.9898 	 -75.8552
| 22> H 	 -68.2376 	 16.8813 	 -75.1779
| 23> S 	 -64.7064 	 23.453 	 -69.8568
| 24> C 	 -65.6088 	 24.7951 	 -69.3139
| 25> C 	 -66.9149 	 24.6628 	 -69.5652
| 26> C 	 -67.2256 	 23.6241 	 -70.4551
| 27> C 	 -66.0825 	 22.8898 	 -70.7755
| 28> H 	 -67.7295 	 25.3868 	 -69.2111
| 29> C 	 -68.5963 	 23.4124 	 -71.0039
| 30> H 	 -68.6531 	 22.3406 	 -71.2981
| 31> H 	 -68.7268 	 24.0113 	 -71.8705
| 32> C 	 -69.8095 	 23.4886 	 -70.0334
| 33> H 	 -70.7346 	 23.5094 	 -70.6076
| 34> H 	 -69.7373 	 24.3506 	 -69.3467
| 35> C 	 -69.9155 	 22.2423 	 -69.1492
| 36> H 	 -70.6799 	 22.5408 	 -68.409
| 37> H 	 -68.975 	 22.0521 	 -68.6721
| 38> H 	 -70.2532 	 21.3304 	 -69.6462
| 39> H 	 -64.7115 	 20.0685 	 -74.5994
| 40> H 	 -65.22 	 25.6495 	 -68.7803
| 41> *
| 42>
| 43>                          ****END OF INPUT****

CARTESIAN COORDINATES (ANGSTROEM)
---------------------------------
  S    -64.446800   21.850700  -72.760600
  C    -65.005100   20.384100  -73.621500
  C    -66.116500   19.828400  -72.978600
  C    -66.630600   20.623600  -71.928400
  C    -65.850300   21.798200  -71.698900
  H    -67.506700   20.510800  -71.242600
  C    -66.934700   18.616700  -73.469200
  H    -67.273200   18.070600  -72.611100
  H    -66.215500   17.857000  -73.808400
  C    -67.811300   18.908300  -74.604200
  H    -68.251800   19.893400  -74.508000
  H    -67.104700   19.120000  -75.408000
  C    -68.807700   17.768000  -74.984000
  H    -69.465800   17.692400  -74.106700
  H    -69.305000   17.989800  -75.855200
  H    -68.237600   16.881300  -75.177900
  S    -64.706400   23.453000  -69.856800
  C    -65.608800   24.795100  -69.313900
  C    -66.914900   24.662800  -69.565200
  C    -67.225600   23.624100  -70.455100
  C    -66.082500   22.889800  -70.775500
  H    -67.729500   25.386800  -69.211100
  C    -68.596300   23.412400  -71.003900
  H    -68.653100   22.340600  -71.298100
  H    -68.726800   24.011300  -71.870500
  C    -69.809500   23.488600  -70.033400
  H    -70.734600   23.509400  -70.607600
  H    -69.737300   24.350600  -69.346700
  C    -69.915500   22.242300  -69.149200
  H    -70.679900   22.540800  -68.409000
  H    -68.975000   22.052100  -68.672100
  H    -70.253200   21.330400  -69.646200
  H    -64.711500   20.068500  -74.599400
  H    -65.220000   25.649500  -68.780300

 Total Charge           Charge          ....    0
 Multiplicity           Mult            ....    1
 Number of Electrons    NEL             ....  134
 Basis Dimension        Dim             ....  322

ORBITAL ENERGIES
----------------

  NO   OCC          E(Eh)            E(eV)
   0   2.0000     -88.969440     -2420.9816
   1   2.0000     -88.965003     -2420.8608
   2   2.0000     -10.332953      -281.1739
   3   2.0000     -10.324014      -280.9307
   4   2.0000     -10.316919      -280.7376
   5   2.0000     -10.308320      -280.5036
   6   2.0000     -10.305345      -280.4227
   7   2.0000     -10.300751      -280.2977
   8   2.0000     -10.298722      -280.2425
   9   2.0000     -10.290997      -280.0323
  10   2.0000     -10.289996      -280.0050
  11   2.0000     -10.287907      -279.9482
  12   2.0000     -10.286003      -279.8964
  13   2.0000     -10.281919      -279.7852
  14   2.0000     -10.276403      -279.6351
  15   2.0000     -10.276372      -279.6343
  16   2.0000      -8.083035      -219.9506
  17   2.0000      -8.080821      -219.8903
  18   2.0000      -6.041536      -164.3986
  19   2.0000      -6.039201      -164.3350
  20   2.0000      -6.037601      -164.2915
  21   2.0000      -6.035319      -164.2294
  22   2.0000      -6.033950      -164.1921
  23   2.0000      -6.031507      -164.1257
  24   2.0000      -1.011815       -27.5329
  25   2.0000      -0.982204       -26.7271
  26   2.0000      -0.918210       -24.9858
  27   2.0000      -0.912909       -24.8415
  28   2.0000      -0.870012       -23.6742
  29   2.0000      -0.855208       -23.2714
  30   2.0000      -0.844143       -22.9703
  31   2.0000      -0.811756       -22.0890
  32   2.0000      -0.787182       -21.4203
  33   2.0000      -0.774077       -21.0637
  34   2.0000      -0.707883       -19.2625
  35   2.0000      -0.705557       -19.1992
  36   2.0000      -0.696482       -18.9522
  37   2.0000      -0.653695       -17.7879
  38   2.0000      -0.640997       -17.4424
  39   2.0000      -0.614741       -16.7279
  40   2.0000      -0.602405       -16.3923
  41   2.0000      -0.567764       -15.4496
  42   2.0000      -0.562973       -15.3193
  43   2.0000      -0.558027       -15.1847
  44   2.0000      -0.543979       -14.8024
  45   2.0000      -0.530829       -14.4446
  46   2.0000      -0.519819       -14.1450
  47   2.0000      -0.509667       -13.8687
  48   2.0000      -0.504457       -13.7270
  49   2.0000      -0.499236       -13.5849
  50   2.0000      -0.494934       -13.4678
  51   2.0000      -0.479424       -13.0458
  52   2.0000      -0.471989       -12.8435
  53   2.0000      -0.466153       -12.6847
  54   2.0000      -0.463452       -12.6112
  55   2.0000      -0.453757       -12.3473
  56   2.0000      -0.447739       -12.1836
  57   2.0000      -0.441368       -12.0102
  58   2.0000      -0.431382       -11.7385
  59   2.0000      -0.423345       -11.5198
  60   2.0000      -0.421094       -11.4586
  61   2.0000      -0.413955       -11.2643
  62   2.0000      -0.402638       -10.9563
  63   2.0000      -0.346218        -9.4211
  64   2.0000      -0.335750        -9.1362
  65   2.0000      -0.332843        -9.0571
  66   2.0000      -0.283774        -7.7219
  67   0.0000       0.021621         0.5883
  68   0.0000       0.069863         1.9011
  69   0.0000       0.105984         2.8840
  70   0.0000       0.122225         3.3259
  71   0.0000       0.132587         3.6079

MULLIKEN ATOMIC CHARGES
-----------------------
   0 S :    0.116152
   1 C :   -0.110811
   2 C :   -0.100677
   3 C :    0.027707
   4 C :   -0.178364
   5 H :    0.035037
   6 C :    0.062424
   7 H :    0.012638
   8 H :    0.011499
   9 C :   -0.065923
  10 H :    0.021947
  11 H :    0.007886
  12 C :    0.018726
  13 H :    0.040499
  14 H :    0.020854
  15 H :    0.024117
  16 S :    0.118263
  17 C :   -0.078849
  18 C :   -0.059061
  19 C :   -0.045630
  20 C :   -0.169475
  21 H :    0.039327
  22 C :    0.093349
  23 H :    0.003181
  24 H :    0.039127
  25 C :   -0.083977
  26 H :    0.032909
  27 H :    0.030698
  28 C :   -0.070461
  29 H :    0.038061
  30 H :    0.039636
  31 H :    0.034601
  32 H :    0.044253
  33 H :    0.050334
Sum of atomic charges:    0.0000000

LOEWDIN ATOMIC CHARGES
----------------------
   0 S :    0.396768
   1 C :   -0.190613
   2 C :   -0.054999
   3 C :   -0.069852
   4 C :   -0.188724
   5 H :    0.039354
   6 C :   -0.039017
   7 H :    0.024475
   8 H :    0.030660
   9 C :   -0.044800
  10 H :    0.021285
  11 H :    0.022914
  12 C :   -0.046930
  13 H :    0.031593
  14 H :    0.016216
  15 H :    0.024766
  16 S :    0.421709
  17 C :   -0.195677
  18 C :   -0.083257
  19 C :   -0.061677
  20 C :   -0.204615
  21 H :    0.042969
  22 C :   -0.032926
  23 H :    0.032997
  24 H :    0.030721
  25 C :   -0.036538
  26 H :    0.027691
  27 H :    0.020238
  28 C :   -0.066609
  29 H :    0.032007
  30 H :    0.022053
  31 H :    0.022481
  32 H :    0.024740
  33 H :    0.030596

  Mayer bond orders larger than 0.100000
B(  0-S ,  1-C ) :   1.1307 B(  0-S ,  4-C ) :   1.1626 B(  1-C ,  2-C ) :   1.5968
B(  1-C ,  4-C ) :   0.1134 B(  1-C , 32-H ) :   0.9707 B(  2-C ,  3-C ) :   1.2499
B(  2-C ,  6-C ) :   1.0265 B(  3-C ,  4-C ) :   1.5471 B(  3-C ,  5-H ) :   0.9783
B(  4-C , 20-C ) :   1.0594 B(  6-C ,  7-H ) :   0.9434 B(  6-C ,  8-H ) :   0.9310
B(  6-C ,  9-C ) :   1.0521 B(  9-C , 10-H ) :   0.9590 B(  9-C , 11-H ) :   0.9452
B(  9-C , 12-C ) :   1.0700 B( 12-C , 13-H ) :   0.9787 B( 12-C , 14-H ) :   0.9735
B( 12-C , 15-H ) :   0.9735 B( 16-S , 17-C ) :   1.1524 B( 16-S , 20-C ) :   1.1514
B( 17-C , 18-C ) :   1.6103 B( 17-C , 33-H ) :   0.9652 B( 18-C , 19-C ) :   1.2639
B( 18-C , 21-H ) :   0.9739 B( 19-C , 20-C ) :   1.5730 B( 19-C , 22-C ) :   1.0388
B( 22-C , 23-H ) :   0.9320 B( 22-C , 24-H ) :   0.9263 B( 22-C , 25-C ) :   1.0668
B( 25-C , 26-H ) :   0.9533 B( 25-C , 27-H ) :   0.9596 B( 25-C , 28-C ) :   1.0775
B( 28-C , 29-H ) :   0.9749 B( 28-C , 30-H ) :   0.9789 B( 28-C , 31-H ) :   0.9722

Dispersion correction           -0.014154825
FINAL SINGLE POINT ENERGY     -1339.863006716817

DIPOLE MOMENT
-------------
                                X             Y             Z
Electronic contribution:     27.03212      13.34555       5.68345
Nuclear contribution   :    -27.74143     -13.42007      -5.85383
                        -----------------------------------------
Total Dipole Moment    :     -0.70931      -0.07453      -0.17038
                        -----------------------------------------
Magnitude (a.u.)       :      0.73328
Magnitude (Debye)      :      1.86385

Rotational constants in cm-1:     0.018586     0.008828     0.006356
Rotational constants in MHz :   557.195802   264.666497   190.562455

                             ****ORCA TERMINATED NORMALLY****
TOTAL RUN TIME: 0 days 0 hours 0 minutes 21 seconds 443 msec
