                         Program Version 4.2.1 -  RELEASE  -
|  1> ! wB97X-D3 SP def2-SVP
|  2> %pal
|  3> nprocs 24
|  4> end
|  5>
|  6> * xyz 0 1
|  7> S 	 -64.77 	 16.33 	 -104.331
|  8> C 	 -65.1421 	 14.693 	 -103.893
|  9> C 	 -64.4808 	 13.8422 	 -104.724
| 10> C 	 -63.7813 	 14.5029 	 -105.802
| 11> C 	 -63.8239 	 15.8841 	 -105.744
| 12> H 	 -63.1671 	 14.0432 	 -106.574
| 13> C 	 -64.5797 	 12.324 	 -104.649
| 14> H 	 -65.5442 	 12.1205 	 -104.09
| 15> H 	 -63.8622 	 11.8806 	 -103.931
| 16> C 	 -64.4563 	 11.5675 	 -106.014
| 17> H 	 -65.0481 	 12.1511 	 -106.702
| 18> H 	 -63.4388 	 11.7004 	 -106.339
| 19> C 	 -64.6433 	 10.0898 	 -105.785
| 20> H 	 -65.5728 	 9.98853 	 -105.352
| 21> H 	 -64.6262 	 9.49485 	 -106.711
| 22> H 	 -64.0579 	 9.61853 	 -105.011
| 23> S 	 -62.1914 	 18.0964 	 -105.734
| 24> C 	 -61.6627 	 18.7306 	 -107.296
| 25> C 	 -62.2824 	 18.1081 	 -108.334
| 26> C 	 -63.0723 	 16.9885 	 -107.92
| 27> C 	 -63.0415 	 16.8348 	 -106.554
| 28> H 	 -62.1982 	 18.5223 	 -109.323
| 29> C 	 -63.8846 	 16.127 	 -108.893
| 30> H 	 -64.3618 	 16.8501 	 -109.474
| 31> H 	 -64.7396 	 15.6572 	 -108.376
| 32> C 	 -63.1468 	 15.0715 	 -109.677
| 33> H 	 -63.1231 	 14.0993 	 -109.151
| 34> H 	 -62.0539 	 15.2534 	 -109.734
| 35> C 	 -63.733 	 14.9002 	 -111.028
| 36> H 	 -63.5246 	 15.8461 	 -111.66
| 37> H 	 -64.8153 	 14.6595 	 -111.039
| 38> H 	 -63.1937 	 14.0395 	 -111.461
| 39> H 	 -65.8294 	 14.3758 	 -103.122
| 40> H 	 -61.1097 	 19.6502 	 -107.496
| 41> *
| 42>
| 43>                          ****END OF INPUT****

CARTESIAN COORDINATES (ANGSTROEM)
---------------------------------
  S    -64.770000   16.330000  -104.331000
  C    -65.142100   14.693000  -103.893000
  C    -64.480800   13.842200  -104.724000
  C    -63.781300   14.502900  -105.802000
  C    -63.823900   15.884100  -105.744000
  H    -63.167100   14.043200  -106.574000
  C    -64.579700   12.324000  -104.649000
  H    -65.544200   12.120500  -104.090000
  H    -63.862200   11.880600  -103.931000
  C    -64.456300   11.567500  -106.014000
  H    -65.048100   12.151100  -106.702000
  H    -63.438800   11.700400  -106.339000
  C    -64.643300   10.089800  -105.785000
  H    -65.572800    9.988530  -105.352000
  H    -64.626200    9.494850  -106.711000
  H    -64.057900    9.618530  -105.011000
  S    -62.191400   18.096400  -105.734000
  C    -61.662700   18.730600  -107.296000
  C    -62.282400   18.108100  -108.334000
  C    -63.072300   16.988500  -107.920000
  C    -63.041500   16.834800  -106.554000
  H    -62.198200   18.522300  -109.323000
  C    -63.884600   16.127000  -108.893000
  H    -64.361800   16.850100  -109.474000
  H    -64.739600   15.657200  -108.376000
  C    -63.146800   15.071500  -109.677000
  H    -63.123100   14.099300  -109.151000
  H    -62.053900   15.253400  -109.734000
  C    -63.733000   14.900200  -111.028000
  H    -63.524600   15.846100  -111.660000
  H    -64.815300   14.659500  -111.039000
  H    -63.193700   14.039500  -111.461000
  H    -65.829400   14.375800  -103.122000
  H    -61.109700   19.650200  -107.496000

 Total Charge           Charge          ....    0
 Multiplicity           Mult            ....    1
 Number of Electrons    NEL             ....  134
 Basis Dimension        Dim             ....  322

ORBITAL ENERGIES
----------------

  NO   OCC          E(Eh)            E(eV)
   0   2.0000     -88.967360     -2420.9249
   1   2.0000     -88.963190     -2420.8115
   2   2.0000     -10.329897      -281.0908
   3   2.0000     -10.324742      -280.9505
   4   2.0000     -10.315747      -280.7057
   5   2.0000     -10.311344      -280.5859
   6   2.0000     -10.301394      -280.3152
   7   2.0000     -10.299865      -280.2736
   8   2.0000     -10.296702      -280.1875
   9   2.0000     -10.293271      -280.0941
  10   2.0000     -10.291863      -280.0558
  11   2.0000     -10.286913      -279.9211
  12   2.0000     -10.285627      -279.8861
  13   2.0000     -10.285088      -279.8715
  14   2.0000     -10.284994      -279.8689
  15   2.0000     -10.273203      -279.5481
  16   2.0000      -8.082147      -219.9264
  17   2.0000      -8.078069      -219.8154
  18   2.0000      -6.040696      -164.3757
  19   2.0000      -6.036785      -164.2693
  20   2.0000      -6.036638      -164.2653
  21   2.0000      -6.032720      -164.1587
  22   2.0000      -6.032450      -164.1513
  23   2.0000      -6.028851      -164.0534
  24   2.0000      -1.008822       -27.4514
  25   2.0000      -0.987043       -26.8588
  26   2.0000      -0.915766       -24.9193
  27   2.0000      -0.911307       -24.7979
  28   2.0000      -0.874157       -23.7870
  29   2.0000      -0.854710       -23.2578
  30   2.0000      -0.844895       -22.9908
  31   2.0000      -0.819844       -22.3091
  32   2.0000      -0.779550       -21.2126
  33   2.0000      -0.770662       -20.9708
  34   2.0000      -0.715872       -19.4799
  35   2.0000      -0.699086       -19.0231
  36   2.0000      -0.691735       -18.8231
  37   2.0000      -0.660888       -17.9837
  38   2.0000      -0.641876       -17.4663
  39   2.0000      -0.617414       -16.8007
  40   2.0000      -0.597091       -16.2477
  41   2.0000      -0.572425       -15.5765
  42   2.0000      -0.563440       -15.3320
  43   2.0000      -0.558382       -15.1943
  44   2.0000      -0.533415       -14.5150
  45   2.0000      -0.525497       -14.2995
  46   2.0000      -0.517299       -14.0764
  47   2.0000      -0.513858       -13.9828
  48   2.0000      -0.506096       -13.7716
  49   2.0000      -0.502807       -13.6821
  50   2.0000      -0.492234       -13.3944
  51   2.0000      -0.482978       -13.1425
  52   2.0000      -0.478001       -13.0071
  53   2.0000      -0.460789       -12.5387
  54   2.0000      -0.456678       -12.4268
  55   2.0000      -0.455278       -12.3887
  56   2.0000      -0.448638       -12.2081
  57   2.0000      -0.442884       -12.0515
  58   2.0000      -0.432345       -11.7647
  59   2.0000      -0.422150       -11.4873
  60   2.0000      -0.416425       -11.3315
  61   2.0000      -0.411464       -11.1965
  62   2.0000      -0.407087       -11.0774
  63   2.0000      -0.352077        -9.5805
  64   2.0000      -0.332848        -9.0573
  65   2.0000      -0.326434        -8.8827
  66   2.0000      -0.294039        -8.0012
  67   0.0000       0.034589         0.9412
  68   0.0000       0.071149         1.9361
  69   0.0000       0.112900         3.0722
  70   0.0000       0.127394         3.4666
  71   0.0000       0.129516         3.5243

MULLIKEN ATOMIC CHARGES
-----------------------
   0 S :    0.100185
   1 C :   -0.120930
   2 C :   -0.056928
   3 C :    0.001528
   4 C :   -0.138036
   5 H :    0.012952
   6 C :   -0.006986
   7 H :    0.020142
   8 H :    0.038047
   9 C :   -0.067568
  10 H :    0.034629
  11 H :    0.030398
  12 C :    0.018167
  13 H :   -0.003604
  14 H :    0.040764
  15 H :    0.022582
  16 S :    0.112843
  17 C :   -0.088575
  18 C :   -0.033883
  19 C :   -0.060644
  20 C :   -0.155028
  21 H :    0.015352
  22 C :    0.105195
  23 H :    0.006973
  24 H :    0.031396
  25 C :   -0.069019
  26 H :    0.025218
  27 H :    0.033260
  28 C :   -0.077496
  29 H :    0.046574
  30 H :    0.042847
  31 H :    0.034250
  32 H :    0.048114
  33 H :    0.057277
Sum of atomic charges:    0.0000000

LOEWDIN ATOMIC CHARGES
----------------------
   0 S :    0.402129
   1 C :   -0.200626
   2 C :   -0.068079
   3 C :   -0.070804
   4 C :   -0.186744
   5 H :    0.030334
   6 C :   -0.038784
   7 H :    0.030178
   8 H :    0.032078
   9 C :   -0.037813
  10 H :    0.025021
  11 H :    0.021461
  12 C :   -0.061399
  13 H :    0.015694
  14 H :    0.031385
  15 H :    0.029759
  16 S :    0.406608
  17 C :   -0.183240
  18 C :   -0.067571
  19 C :   -0.053904
  20 C :   -0.203645
  21 H :    0.031748
  22 C :   -0.029834
  23 H :    0.023604
  24 H :    0.037063
  25 C :   -0.053604
  26 H :    0.024370
  27 H :    0.028344
  28 C :   -0.069693
  29 H :    0.033538
  30 H :    0.027599
  31 H :    0.028433
  32 H :    0.032473
  33 H :    0.033920

  Mayer bond orders larger than 0.100000
B(  0-S ,  1-C ) :   1.1300 B(  0-S ,  4-C ) :   1.1527 B(  1-C ,  2-C ) :   1.6191
B(  1-C , 32-H ) :   0.9713 B(  2-C ,  3-C ) :   1.2386 B(  2-C ,  6-C ) :   1.0119
B(  3-C ,  4-C ) :   1.5658 B(  3-C ,  5-H ) :   0.9940 B(  4-C , 20-C ) :   1.0323
B(  6-C ,  7-H ) :   0.9482 B(  6-C ,  8-H ) :   0.9337 B(  6-C ,  9-C ) :   1.0656
B(  9-C , 10-H ) :   0.9631 B(  9-C , 11-H ) :   0.9428 B(  9-C , 12-C ) :   1.0749
B( 12-C , 13-H ) :   0.9687 B( 12-C , 14-H ) :   0.9710 B( 12-C , 15-H ) :   0.9676
B( 16-S , 17-C ) :   1.1342 B( 16-S , 20-C ) :   1.1373 B( 17-C , 18-C ) :   1.6468
B( 17-C , 33-H ) :   0.9621 B( 18-C , 19-C ) :   1.2274 B( 18-C , 21-H ) :   0.9913
B( 19-C , 20-C ) :   1.6150 B( 19-C , 22-C ) :   1.0352 B( 22-C , 23-H ) :   0.9411
B( 22-C , 24-H ) :   0.9189 B( 22-C , 25-C ) :   1.0449 B( 25-C , 26-H ) :   0.9453
B( 25-C , 27-H ) :   0.9601 B( 25-C , 28-C ) :   1.0877 B( 28-C , 29-H ) :   0.9741
B( 28-C , 30-H ) :   0.9725 B( 28-C , 31-H ) :   0.9709

Dispersion correction           -0.014038877
FINAL SINGLE POINT ENERGY     -1339.876717481067

DIPOLE MOMENT
-------------
                                X             Y             Z
Electronic contribution:      4.11168      26.37732      17.80139
Nuclear contribution   :     -4.20517     -26.84537     -18.26311
                        -----------------------------------------
Total Dipole Moment    :     -0.09349      -0.46805      -0.46172
                        -----------------------------------------
Magnitude (a.u.)       :      0.66407
Magnitude (Debye)      :      1.68794

Rotational constants in cm-1:     0.016517     0.009486     0.006516
Rotational constants in MHz :   495.165312   284.377341   195.358265

                             ****ORCA TERMINATED NORMALLY****
TOTAL RUN TIME: 0 days 0 hours 0 minutes 21 seconds 725 msec
