                         Program Version 4.2.1 -  RELEASE  -
|  1> ! wB97X-D3 SP def2-SVP
|  2> %pal
|  3> nprocs 24
|  4> end
|  5>
|  6> * xyz 0 1
|  7> S 	 -137.895 	 6.89758 	 -1.82601
|  8> C 	 -138.2 	 6.57423 	 -0.106648
|  9> C 	 -137.459 	 7.44242 	 0.677018
| 10> C 	 -136.87 	 8.49408 	 -0.111966
| 11> C 	 -137.032 	 8.33663 	 -1.51349
| 12> H 	 -136.217 	 9.22563 	 0.29985
| 13> C 	 -137.075 	 7.30522 	 2.19157
| 14> H 	 -136.026 	 7.60201 	 2.41478
| 15> H 	 -137.16 	 6.2311 	 2.3778
| 16> C 	 -138.036 	 8.0349 	 3.13534
| 17> H 	 -137.71 	 8.01769 	 4.12571
| 18> H 	 -138.134 	 9.11264 	 2.8733
| 19> C 	 -139.524 	 7.57877 	 3.20483
| 20> H 	 -139.537 	 6.51974 	 3.43663
| 21> H 	 -140.332 	 8.02812 	 3.84125
| 22> H 	 -139.801 	 7.80928 	 2.16047
| 23> S 	 -135.669 	 8.46503 	 -3.79684
| 24> C 	 -135.351 	 10.0049 	 -4.44657
| 25> C 	 -135.963 	 11.0397 	 -3.75531
| 26> C 	 -136.586 	 10.6234 	 -2.53188
| 27> C 	 -136.514 	 9.25416 	 -2.51741
| 28> H 	 -135.967 	 12.0618 	 -4.08388
| 29> C 	 -137.289 	 11.5809 	 -1.63959
| 30> H 	 -136.686 	 12.4604 	 -1.38799
| 31> H 	 -137.385 	 11.1232 	 -0.634578
| 32> C 	 -138.71 	 11.9388 	 -2.01872
| 33> H 	 -139.274 	 11.0235 	 -2.26473
| 34> H 	 -138.74 	 12.6027 	 -2.94166
| 35> C 	 -139.447 	 12.7012 	 -0.92666
| 36> H 	 -139.875 	 11.9185 	 -0.222881
| 37> H 	 -140.276 	 13.3342 	 -1.30172
| 38> H 	 -138.714 	 13.3072 	 -0.365032
| 39> H 	 -138.773 	 5.7311 	 0.288513
| 40> H 	 -134.859 	 10.0954 	 -5.39486
| 41> *
| 42>
| 43>                          ****END OF INPUT****

CARTESIAN COORDINATES (ANGSTROEM)
---------------------------------
  S    -137.895000    6.897580   -1.826010
  C    -138.200000    6.574230   -0.106648
  C    -137.459000    7.442420    0.677018
  C    -136.870000    8.494080   -0.111966
  C    -137.032000    8.336630   -1.513490
  H    -136.217000    9.225630    0.299850
  C    -137.075000    7.305220    2.191570
  H    -136.026000    7.602010    2.414780
  H    -137.160000    6.231100    2.377800
  C    -138.036000    8.034900    3.135340
  H    -137.710000    8.017690    4.125710
  H    -138.134000    9.112640    2.873300
  C    -139.524000    7.578770    3.204830
  H    -139.537000    6.519740    3.436630
  H    -140.332000    8.028120    3.841250
  H    -139.801000    7.809280    2.160470
  S    -135.669000    8.465030   -3.796840
  C    -135.351000   10.004900   -4.446570
  C    -135.963000   11.039700   -3.755310
  C    -136.586000   10.623400   -2.531880
  C    -136.514000    9.254160   -2.517410
  H    -135.967000   12.061800   -4.083880
  C    -137.289000   11.580900   -1.639590
  H    -136.686000   12.460400   -1.387990
  H    -137.385000   11.123200   -0.634578
  C    -138.710000   11.938800   -2.018720
  H    -139.274000   11.023500   -2.264730
  H    -138.740000   12.602700   -2.941660
  C    -139.447000   12.701200   -0.926660
  H    -139.875000   11.918500   -0.222881
  H    -140.276000   13.334200   -1.301720
  H    -138.714000   13.307200   -0.365032
  H    -138.773000    5.731100    0.288513
  H    -134.859000   10.095400   -5.394860

 Total Charge           Charge          ....    0
 Multiplicity           Mult            ....    1
 Number of Electrons    NEL             ....  134
 Basis Dimension        Dim             ....  322

ORBITAL ENERGIES
----------------

  NO   OCC          E(Eh)            E(eV)
   0   2.0000     -88.969023     -2420.9702
   1   2.0000     -88.968790     -2420.9639
   2   2.0000     -10.327089      -281.0144
   3   2.0000     -10.323615      -280.9198
   4   2.0000     -10.317076      -280.7419
   5   2.0000     -10.311637      -280.5939
   6   2.0000     -10.305499      -280.4269
   7   2.0000     -10.304282      -280.3938
   8   2.0000     -10.301863      -280.3279
   9   2.0000     -10.293326      -280.0956
  10   2.0000     -10.292750      -280.0800
  11   2.0000     -10.290119      -280.0084
  12   2.0000     -10.288424      -279.9623
  13   2.0000     -10.284490      -279.8552
  14   2.0000     -10.284270      -279.8492
  15   2.0000     -10.278940      -279.7042
  16   2.0000      -8.085359      -220.0138
  17   2.0000      -8.083557      -219.9648
  18   2.0000      -6.043562      -164.4537
  19   2.0000      -6.042071      -164.4131
  20   2.0000      -6.039834      -164.3522
  21   2.0000      -6.038022      -164.3029
  22   2.0000      -6.036166      -164.2524
  23   2.0000      -6.034353      -164.2031
  24   2.0000      -1.014852       -27.6155
  25   2.0000      -0.985779       -26.8244
  26   2.0000      -0.917012       -24.9532
  27   2.0000      -0.907885       -24.7048
  28   2.0000      -0.866372       -23.5752
  29   2.0000      -0.860026       -23.4025
  30   2.0000      -0.841417       -22.8961
  31   2.0000      -0.805178       -21.9100
  32   2.0000      -0.784698       -21.3527
  33   2.0000      -0.776455       -21.1284
  34   2.0000      -0.701011       -19.0755
  35   2.0000      -0.693751       -18.8779
  36   2.0000      -0.690131       -18.7794
  37   2.0000      -0.667763       -18.1708
  38   2.0000      -0.636193       -17.3117
  39   2.0000      -0.620212       -16.8768
  40   2.0000      -0.605601       -16.4793
  41   2.0000      -0.569163       -15.4877
  42   2.0000      -0.563390       -15.3306
  43   2.0000      -0.544935       -14.8284
  44   2.0000      -0.541092       -14.7239
  45   2.0000      -0.529912       -14.4196
  46   2.0000      -0.518155       -14.0997
  47   2.0000      -0.508779       -13.8446
  48   2.0000      -0.507294       -13.8042
  49   2.0000      -0.493956       -13.4412
  50   2.0000      -0.489394       -13.3171
  51   2.0000      -0.481499       -13.1023
  52   2.0000      -0.469106       -12.7650
  53   2.0000      -0.466058       -12.6821
  54   2.0000      -0.458352       -12.4724
  55   2.0000      -0.451809       -12.2944
  56   2.0000      -0.445755       -12.1296
  57   2.0000      -0.442780       -12.0487
  58   2.0000      -0.434417       -11.8211
  59   2.0000      -0.431216       -11.7340
  60   2.0000      -0.414831       -11.2881
  61   2.0000      -0.405094       -11.0232
  62   2.0000      -0.401853       -10.9350
  63   2.0000      -0.348131        -9.4731
  64   2.0000      -0.336802        -9.1648
  65   2.0000      -0.329742        -8.9727
  66   2.0000      -0.286878        -7.8064
  67   0.0000       0.031032         0.8444
  68   0.0000       0.070693         1.9236
  69   0.0000       0.104431         2.8417
  70   0.0000       0.121619         3.3094
  71   0.0000       0.124117         3.3774

MULLIKEN ATOMIC CHARGES
-----------------------
   0 S :    0.115347
   1 C :   -0.137091
   2 C :   -0.095579
   3 C :    0.019768
   4 C :   -0.143192
   5 H :    0.007813
   6 C :    0.071219
   7 H :    0.050081
   8 H :    0.025337
   9 C :   -0.059713
  10 H :    0.017682
  11 H :    0.028802
  12 C :   -0.103624
  13 H :    0.025708
  14 H :    0.051880
  15 H :    0.038123
  16 S :    0.127825
  17 C :   -0.080894
  18 C :   -0.023946
  19 C :   -0.029248
  20 C :   -0.166257
  21 H :    0.008595
  22 C :    0.069161
  23 H :    0.028213
  24 H :    0.006033
  25 C :   -0.085931
  26 H :    0.043025
  27 H :    0.030359
  28 C :   -0.070066
  29 H :    0.046498
  30 H :    0.047123
  31 H :    0.031684
  32 H :    0.055778
  33 H :    0.049487
Sum of atomic charges:   -0.0000000

LOEWDIN ATOMIC CHARGES
----------------------
   0 S :    0.416847
   1 C :   -0.202893
   2 C :   -0.060402
   3 C :   -0.072296
   4 C :   -0.211099
   5 H :    0.022414
   6 C :   -0.022131
   7 H :    0.041974
   8 H :    0.030609
   9 C :   -0.042958
  10 H :    0.011120
  11 H :    0.026562
  12 C :   -0.080367
  13 H :    0.017281
  14 H :    0.035110
  15 H :    0.027897
  16 S :    0.437874
  17 C :   -0.199925
  18 C :   -0.058023
  19 C :   -0.053161
  20 C :   -0.198062
  21 H :    0.027689
  22 C :   -0.041060
  23 H :    0.033557
  24 H :    0.033847
  25 C :   -0.045523
  26 H :    0.030291
  27 H :    0.024358
  28 C :   -0.072392
  29 H :    0.033945
  30 H :    0.030712
  31 H :    0.024016
  32 H :    0.031951
  33 H :    0.022236

  Mayer bond orders larger than 0.100000
B(  0-S ,  1-C ) :   1.1327 B(  0-S ,  4-C ) :   1.1726 B(  1-C ,  2-C ) :   1.5972
B(  1-C ,  4-C ) :   0.1026 B(  1-C , 32-H ) :   0.9675 B(  2-C ,  3-C ) :   1.2702
B(  2-C ,  6-C ) :   0.9994 B(  3-C ,  4-C ) :   1.5370 B(  3-C ,  5-H ) :   0.9909
B(  4-C , 20-C ) :   1.0258 B(  6-C ,  7-H ) :   0.9504 B(  6-C ,  8-H ) :   0.9441
B(  6-C ,  9-C ) :   1.0648 B(  9-C , 10-H ) :   0.9605 B(  9-C , 11-H ) :   0.9619
B(  9-C , 12-C ) :   1.0517 B( 12-C , 13-H ) :   0.9777 B( 12-C , 14-H ) :   0.9777
B( 12-C , 15-H ) :   0.9790 B( 16-S , 17-C ) :   1.1558 B( 16-S , 20-C ) :   1.1644
B( 17-C , 18-C ) :   1.6010 B( 17-C , 33-H ) :   0.9715 B( 18-C , 19-C ) :   1.2290
B( 18-C , 21-H ) :   0.9935 B( 19-C , 20-C ) :   1.6018 B( 19-C , 22-C ) :   1.0640
B( 22-C , 23-H ) :   0.9173 B( 22-C , 24-H ) :   0.9195 B( 22-C , 25-C ) :   1.0675
B( 25-C , 26-H ) :   0.9571 B( 25-C , 27-H ) :   0.9546 B( 25-C , 28-C ) :   1.0741
B( 28-C , 29-H ) :   0.9747 B( 28-C , 30-H ) :   0.9747 B( 28-C , 31-H ) :   0.9733

Dispersion correction           -0.014286363
FINAL SINGLE POINT ENERGY     -1339.871636885494

DIPOLE MOMENT
-------------
                                X             Y             Z
Electronic contribution:     13.02642     -13.80462     -23.09018
Nuclear contribution   :    -13.00751      14.15988      23.44346
                        -----------------------------------------
Total Dipole Moment    :      0.01891       0.35526       0.35328
                        -----------------------------------------
Magnitude (a.u.)       :      0.50137
Magnitude (Debye)      :      1.27438

Rotational constants in cm-1:     0.018317     0.009106     0.006887
Rotational constants in MHz :   549.135466   272.986895   206.462521

                             ****ORCA TERMINATED NORMALLY****
TOTAL RUN TIME: 0 days 0 hours 0 minutes 21 seconds 912 msec
