                         Program Version 4.2.1 -  RELEASE  -
|  1> ! wB97X-D3 SP def2-SVP
|  2> %pal
|  3> nprocs 24
|  4> end
|  5>
|  6> * xyz 0 1
|  7> S 	 -125.055 	 62.4147 	 -55.7764
|  8> C 	 -124.943 	 62.8612 	 -57.4463
|  9> C 	 -125.994 	 63.6659 	 -57.8524
| 10> C 	 -126.976 	 63.8542 	 -56.8094
| 11> C 	 -126.607 	 63.1981 	 -55.64
| 12> H 	 -127.883 	 64.3319 	 -56.9046
| 13> C 	 -126.139 	 64.3073 	 -59.2062
| 14> H 	 -127.197 	 64.7109 	 -59.4111
| 15> H 	 -126.066 	 63.5157 	 -59.935
| 16> C 	 -125.251 	 65.5077 	 -59.549
| 17> H 	 -125.391 	 65.873 	 -60.6114
| 18> H 	 -125.522 	 66.3441 	 -58.9222
| 19> C 	 -123.731 	 65.2071 	 -59.4058
| 20> H 	 -123.471 	 64.3857 	 -60.0584
| 21> H 	 -123.237 	 66.1023 	 -59.7303
| 22> H 	 -123.283 	 65.0102 	 -58.3907
| 23> S 	 -126.654 	 64.4881 	 -53.1846
| 24> C 	 -128.144 	 64.3016 	 -52.2107
| 25> C 	 -129.005 	 63.4148 	 -52.7216
| 26> C 	 -128.559 	 62.8879 	 -53.9866
| 27> C 	 -127.29 	 63.3414 	 -54.3557
| 28> H 	 -129.9 	 63.1451 	 -52.283
| 29> C 	 -129.49 	 62.0093 	 -54.7894
| 30> H 	 -130.245 	 61.7597 	 -54.137
| 31> H 	 -128.982 	 61.1041 	 -55.1021
| 32> C 	 -130.32 	 62.6112 	 -55.9589
| 33> H 	 -129.702 	 63.0353 	 -56.7197
| 34> H 	 -130.926 	 63.4221 	 -55.4381
| 35> C 	 -131.229 	 61.7208 	 -56.691
| 36> H 	 -130.578 	 60.8813 	 -57.0954
| 37> H 	 -131.811 	 62.2765 	 -57.4858
| 38> H 	 -131.976 	 61.2427 	 -56.0553
| 39> H 	 -124.12 	 62.598 	 -58.0253
| 40> H 	 -128.388 	 64.8351 	 -51.2816
| 41> *
| 42>
| 43>                          ****END OF INPUT****

CARTESIAN COORDINATES (ANGSTROEM)
---------------------------------
  S    -125.055000   62.414700  -55.776400
  C    -124.943000   62.861200  -57.446300
  C    -125.994000   63.665900  -57.852400
  C    -126.976000   63.854200  -56.809400
  C    -126.607000   63.198100  -55.640000
  H    -127.883000   64.331900  -56.904600
  C    -126.139000   64.307300  -59.206200
  H    -127.197000   64.710900  -59.411100
  H    -126.066000   63.515700  -59.935000
  C    -125.251000   65.507700  -59.549000
  H    -125.391000   65.873000  -60.611400
  H    -125.522000   66.344100  -58.922200
  C    -123.731000   65.207100  -59.405800
  H    -123.471000   64.385700  -60.058400
  H    -123.237000   66.102300  -59.730300
  H    -123.283000   65.010200  -58.390700
  S    -126.654000   64.488100  -53.184600
  C    -128.144000   64.301600  -52.210700
  C    -129.005000   63.414800  -52.721600
  C    -128.559000   62.887900  -53.986600
  C    -127.290000   63.341400  -54.355700
  H    -129.900000   63.145100  -52.283000
  C    -129.490000   62.009300  -54.789400
  H    -130.245000   61.759700  -54.137000
  H    -128.982000   61.104100  -55.102100
  C    -130.320000   62.611200  -55.958900
  H    -129.702000   63.035300  -56.719700
  H    -130.926000   63.422100  -55.438100
  C    -131.229000   61.720800  -56.691000
  H    -130.578000   60.881300  -57.095400
  H    -131.811000   62.276500  -57.485800
  H    -131.976000   61.242700  -56.055300
  H    -124.120000   62.598000  -58.025300
  H    -128.388000   64.835100  -51.281600

 Total Charge           Charge          ....    0
 Multiplicity           Mult            ....    1
 Number of Electrons    NEL             ....  134
 Basis Dimension        Dim             ....  322

ORBITAL ENERGIES
----------------

  NO   OCC          E(Eh)            E(eV)
   0   2.0000     -88.967327     -2420.9240
   1   2.0000     -88.965304     -2420.8690
   2   2.0000     -10.327034      -281.0129
   3   2.0000     -10.324367      -280.9403
   4   2.0000     -10.316746      -280.7329
   5   2.0000     -10.309530      -280.5366
   6   2.0000     -10.302382      -280.3421
   7   2.0000     -10.301748      -280.3248
   8   2.0000     -10.294624      -280.1310
   9   2.0000     -10.292250      -280.0664
  10   2.0000     -10.291286      -280.0401
  11   2.0000     -10.285346      -279.8785
  12   2.0000     -10.283366      -279.8246
  13   2.0000     -10.282979      -279.8141
  14   2.0000     -10.282625      -279.8044
  15   2.0000     -10.276492      -279.6376
  16   2.0000      -8.082473      -219.9353
  17   2.0000      -8.079362      -219.8506
  18   2.0000      -6.040843      -164.3797
  19   2.0000      -6.038014      -164.3027
  20   2.0000      -6.036912      -164.2727
  21   2.0000      -6.034072      -164.1954
  22   2.0000      -6.033378      -164.1766
  23   2.0000      -6.029906      -164.0821
  24   2.0000      -1.004494       -27.3337
  25   2.0000      -0.982448       -26.7338
  26   2.0000      -0.911794       -24.8112
  27   2.0000      -0.908499       -24.7215
  28   2.0000      -0.869870       -23.6704
  29   2.0000      -0.853285       -23.2191
  30   2.0000      -0.848790       -23.0967
  31   2.0000      -0.816395       -22.2152
  32   2.0000      -0.783813       -21.3286
  33   2.0000      -0.770917       -20.9777
  34   2.0000      -0.704622       -19.1737
  35   2.0000      -0.696255       -18.9461
  36   2.0000      -0.685190       -18.6450
  37   2.0000      -0.664924       -18.0935
  38   2.0000      -0.651498       -17.7282
  39   2.0000      -0.615957       -16.7610
  40   2.0000      -0.594487       -16.1768
  41   2.0000      -0.576476       -15.6867
  42   2.0000      -0.567234       -15.4352
  43   2.0000      -0.548958       -14.9379
  44   2.0000      -0.539915       -14.6918
  45   2.0000      -0.524202       -14.2643
  46   2.0000      -0.518259       -14.1026
  47   2.0000      -0.514601       -14.0030
  48   2.0000      -0.506751       -13.7894
  49   2.0000      -0.499148       -13.5825
  50   2.0000      -0.490648       -13.3512
  51   2.0000      -0.478969       -13.0334
  52   2.0000      -0.470561       -12.8046
  53   2.0000      -0.461530       -12.5589
  54   2.0000      -0.458004       -12.4629
  55   2.0000      -0.454272       -12.3614
  56   2.0000      -0.448192       -12.1959
  57   2.0000      -0.436975       -11.8907
  58   2.0000      -0.429056       -11.6752
  59   2.0000      -0.421595       -11.4722
  60   2.0000      -0.415841       -11.3156
  61   2.0000      -0.413691       -11.2571
  62   2.0000      -0.408943       -11.1279
  63   2.0000      -0.344699        -9.3797
  64   2.0000      -0.330215        -8.9856
  65   2.0000      -0.321959        -8.7610
  66   2.0000      -0.301890        -8.2148
  67   0.0000       0.040950         1.1143
  68   0.0000       0.058298         1.5864
  69   0.0000       0.114697         3.1211
  70   0.0000       0.117197         3.1891
  71   0.0000       0.125070         3.4033

MULLIKEN ATOMIC CHARGES
-----------------------
   0 S :    0.121071
   1 C :   -0.097566
   2 C :   -0.073211
   3 C :    0.083904
   4 C :   -0.186689
   5 H :   -0.010237
   6 C :    0.038760
   7 H :    0.027944
   8 H :    0.028254
   9 C :   -0.064981
  10 H :    0.039534
  11 H :    0.028871
  12 C :   -0.077850
  13 H :    0.026840
  14 H :    0.027134
  15 H :    0.052141
  16 S :    0.106863
  17 C :   -0.087214
  18 C :    0.011652
  19 C :   -0.067564
  20 C :   -0.151403
  21 H :   -0.010852
  22 C :    0.129323
  23 H :   -0.018146
  24 H :    0.027646
  25 C :   -0.082417
  26 H :    0.021955
  27 H :    0.024332
  28 C :   -0.060581
  29 H :    0.037849
  30 H :    0.050137
  31 H :    0.022271
  32 H :    0.023966
  33 H :    0.058263
Sum of atomic charges:   -0.0000000

LOEWDIN ATOMIC CHARGES
----------------------
   0 S :    0.421375
   1 C :   -0.188512
   2 C :   -0.059698
   3 C :   -0.039572
   4 C :   -0.200909
   5 H :    0.017865
   6 C :   -0.042960
   7 H :    0.037876
   8 H :    0.027891
   9 C :   -0.038184
  10 H :    0.033616
  11 H :    0.022179
  12 C :   -0.075162
  13 H :    0.019731
  14 H :    0.023512
  15 H :    0.031380
  16 S :    0.385557
  17 C :   -0.169322
  18 C :   -0.063289
  19 C :   -0.048715
  20 C :   -0.201645
  21 H :    0.020803
  22 C :   -0.026659
  23 H :    0.018060
  24 H :    0.030338
  25 C :   -0.045367
  26 H :    0.016521
  27 H :    0.026826
  28 C :   -0.070696
  29 H :    0.033190
  30 H :    0.037136
  31 H :    0.018601
  32 H :    0.013095
  33 H :    0.035137

  Mayer bond orders larger than 0.100000
B(  0-S ,  1-C ) :   1.1462 B(  0-S ,  4-C ) :   1.1644 B(  1-C ,  2-C ) :   1.5988
B(  1-C , 32-H ) :   0.9764 B(  2-C ,  3-C ) :   1.2448 B(  2-C ,  6-C ) :   1.0151
B(  3-C ,  4-C ) :   1.5688 B(  3-C ,  5-H ) :   1.0021 B(  4-C , 20-C ) :   1.0144
B(  6-C ,  7-H ) :   0.9449 B(  6-C ,  8-H ) :   0.9415 B(  6-C ,  9-C ) :   1.0727
B(  9-C , 10-H ) :   0.9539 B(  9-C , 11-H ) :   0.9550 B(  9-C , 12-C ) :   1.0799
B( 12-C , 13-H ) :   0.9761 B( 12-C , 14-H ) :   0.9726 B( 12-C , 15-H ) :   0.9704
B( 16-S , 17-C ) :   1.1342 B( 16-S , 20-C ) :   1.1293 B( 17-C , 18-C ) :   1.6489
B( 17-C , 33-H ) :   0.9578 B( 18-C , 19-C ) :   1.2278 B( 18-C , 21-H ) :   0.9968
B( 19-C , 20-C ) :   1.6291 B( 19-C , 22-C ) :   1.0569 B( 22-C , 23-H ) :   0.9214
B( 22-C , 24-H ) :   0.9256 B( 22-C , 25-C ) :   1.0592 B( 25-C , 26-H ) :   0.9491
B( 25-C , 27-H ) :   0.9517 B( 25-C , 28-C ) :   1.0964 B( 28-C , 29-H ) :   0.9689
B( 28-C , 30-H ) :   0.9697 B( 28-C , 31-H ) :   0.9726

Dispersion correction           -0.014619411
FINAL SINGLE POINT ENERGY     -1339.873926892260

DIPOLE MOMENT
-------------
                                X             Y             Z
Electronic contribution:     10.99633      -1.52963      21.17481
Nuclear contribution   :    -11.45458       1.67204     -21.56767
                        -----------------------------------------
Total Dipole Moment    :     -0.45825       0.14241      -0.39287
                        -----------------------------------------
Magnitude (a.u.)       :      0.62018
Magnitude (Debye)      :      1.57637

Rotational constants in cm-1:     0.018660     0.008671     0.006945
Rotational constants in MHz :   559.406025   259.964767   208.212691

                             ****ORCA TERMINATED NORMALLY****
TOTAL RUN TIME: 0 days 0 hours 0 minutes 21 seconds 602 msec
