                         Program Version 4.2.1 -  RELEASE  -
|  1> ! wB97X-D3 SP def2-SVP
|  2> %pal
|  3> nprocs 24
|  4> end
|  5>
|  6> * xyz 0 1
|  7> S 	 -34.413 	 -9.58346 	 17.5127
|  8> C 	 -33.9536 	 -11.1112 	 18.1551
|  9> C 	 -35.0729 	 -11.8906 	 18.4628
| 10> C 	 -36.2764 	 -11.1846 	 18.2491
| 11> C 	 -36.0715 	 -9.93085 	 17.6275
| 12> H 	 -37.3059 	 -11.6284 	 18.3826
| 13> C 	 -35.0299 	 -13.3591 	 18.9253
| 14> H 	 -35.6365 	 -13.2825 	 19.7747
| 15> H 	 -33.9819 	 -13.6555 	 19.2691
| 16> C 	 -35.5011 	 -14.4022 	 17.9158
| 17> H 	 -35.6143 	 -15.3627 	 18.3552
| 18> H 	 -36.5065 	 -14.138 	 17.4318
| 19> C 	 -34.451 	 -14.6439 	 16.7785
| 20> H 	 -34.8032 	 -15.5071 	 16.1532
| 21> H 	 -34.3884 	 -13.7012 	 16.2057
| 22> H 	 -33.4722 	 -14.9702 	 17.0777
| 23> S 	 -37.3761 	 -7.59815 	 18.3417
| 24> C 	 -38.5785 	 -6.90674 	 17.3331
| 25> C 	 -38.9325 	 -7.78718 	 16.3403
| 26> C 	 -38.0516 	 -8.92649 	 16.2387
| 27> C 	 -37.1086 	 -8.95262 	 17.2683
| 28> H 	 -39.7334 	 -7.47451 	 15.6981
| 29> C 	 -38.0743 	 -9.91931 	 15.0763
| 30> H 	 -39.098 	 -9.78425 	 14.7032
| 31> H 	 -37.7892 	 -10.913 	 15.328
| 32> C 	 -37.0565 	 -9.52847 	 13.9892
| 33> H 	 -37.269 	 -8.49646 	 13.7067
| 34> H 	 -37.2494 	 -10.1794 	 13.1132
| 35> C 	 -35.5184 	 -9.69015 	 14.1489
| 36> H 	 -35.0216 	 -9.19211 	 13.3479
| 37> H 	 -35.1758 	 -10.7363 	 14.2638
| 38> H 	 -35.1211 	 -9.0739 	 15.0272
| 39> H 	 -32.9309 	 -11.4366 	 18.1961
| 40> H 	 -39.0593 	 -5.98762 	 17.4982
| 41> *
| 42>
| 43>                          ****END OF INPUT****

CARTESIAN COORDINATES (ANGSTROEM)
---------------------------------
  S    -34.413000   -9.583460   17.512700
  C    -33.953600  -11.111200   18.155100
  C    -35.072900  -11.890600   18.462800
  C    -36.276400  -11.184600   18.249100
  C    -36.071500   -9.930850   17.627500
  H    -37.305900  -11.628400   18.382600
  C    -35.029900  -13.359100   18.925300
  H    -35.636500  -13.282500   19.774700
  H    -33.981900  -13.655500   19.269100
  C    -35.501100  -14.402200   17.915800
  H    -35.614300  -15.362700   18.355200
  H    -36.506500  -14.138000   17.431800
  C    -34.451000  -14.643900   16.778500
  H    -34.803200  -15.507100   16.153200
  H    -34.388400  -13.701200   16.205700
  H    -33.472200  -14.970200   17.077700
  S    -37.376100   -7.598150   18.341700
  C    -38.578500   -6.906740   17.333100
  C    -38.932500   -7.787180   16.340300
  C    -38.051600   -8.926490   16.238700
  C    -37.108600   -8.952620   17.268300
  H    -39.733400   -7.474510   15.698100
  C    -38.074300   -9.919310   15.076300
  H    -39.098000   -9.784250   14.703200
  H    -37.789200  -10.913000   15.328000
  C    -37.056500   -9.528470   13.989200
  H    -37.269000   -8.496460   13.706700
  H    -37.249400  -10.179400   13.113200
  C    -35.518400   -9.690150   14.148900
  H    -35.021600   -9.192110   13.347900
  H    -35.175800  -10.736300   14.263800
  H    -35.121100   -9.073900   15.027200
  H    -32.930900  -11.436600   18.196100
  H    -39.059300   -5.987620   17.498200

 Total Charge           Charge          ....    0
 Multiplicity           Mult            ....    1
 Number of Electrons    NEL             ....  134
 Basis Dimension        Dim             ....  322

ORBITAL ENERGIES
----------------

  NO   OCC          E(Eh)            E(eV)
   0   2.0000     -88.969056     -2420.9711
   1   2.0000     -88.960917     -2420.7496
   2   2.0000     -10.328169      -281.0438
   3   2.0000     -10.323591      -280.9192
   4   2.0000     -10.312243      -280.6104
   5   2.0000     -10.310411      -280.5605
   6   2.0000     -10.305306      -280.4216
   7   2.0000     -10.302333      -280.3407
   8   2.0000     -10.299888      -280.2742
   9   2.0000     -10.295547      -280.1561
  10   2.0000     -10.292979      -280.0862
  11   2.0000     -10.292084      -280.0618
  12   2.0000     -10.290340      -280.0144
  13   2.0000     -10.284081      -279.8441
  14   2.0000     -10.280753      -279.7535
  15   2.0000     -10.275901      -279.6215
  16   2.0000      -8.084509      -219.9907
  17   2.0000      -8.076439      -219.7711
  18   2.0000      -6.042711      -164.4305
  19   2.0000      -6.038693      -164.3212
  20   2.0000      -6.035760      -164.2414
  21   2.0000      -6.034819      -164.2158
  22   2.0000      -6.030718      -164.1042
  23   2.0000      -6.027402      -164.0139
  24   2.0000      -1.009994       -27.4833
  25   2.0000      -0.988605       -26.9013
  26   2.0000      -0.910072       -24.7643
  27   2.0000      -0.903671       -24.5901
  28   2.0000      -0.866361       -23.5749
  29   2.0000      -0.849015       -23.1029
  30   2.0000      -0.841040       -22.8859
  31   2.0000      -0.810842       -22.0641
  32   2.0000      -0.785191       -21.3661
  33   2.0000      -0.773796       -21.0560
  34   2.0000      -0.705177       -19.1888
  35   2.0000      -0.694821       -18.9070
  36   2.0000      -0.685354       -18.6494
  37   2.0000      -0.657137       -17.8816
  38   2.0000      -0.639926       -17.4133
  39   2.0000      -0.618991       -16.8436
  40   2.0000      -0.598297       -16.2805
  41   2.0000      -0.571742       -15.5579
  42   2.0000      -0.556957       -15.1556
  43   2.0000      -0.545372       -14.8403
  44   2.0000      -0.543355       -14.7854
  45   2.0000      -0.535945       -14.5838
  46   2.0000      -0.514896       -14.0110
  47   2.0000      -0.508230       -13.8296
  48   2.0000      -0.501217       -13.6388
  49   2.0000      -0.495729       -13.4895
  50   2.0000      -0.482550       -13.1309
  51   2.0000      -0.478885       -13.0311
  52   2.0000      -0.470005       -12.7895
  53   2.0000      -0.469132       -12.7657
  54   2.0000      -0.463880       -12.6228
  55   2.0000      -0.445884       -12.1331
  56   2.0000      -0.444140       -12.0857
  57   2.0000      -0.438268       -11.9259
  58   2.0000      -0.428090       -11.6489
  59   2.0000      -0.427978       -11.6459
  60   2.0000      -0.422292       -11.4912
  61   2.0000      -0.410271       -11.1640
  62   2.0000      -0.397551       -10.8179
  63   2.0000      -0.336495        -9.1565
  64   2.0000      -0.325640        -8.8611
  65   2.0000      -0.324357        -8.8262
  66   2.0000      -0.305806        -8.3214
  67   0.0000       0.040296         1.0965
  68   0.0000       0.060652         1.6504
  69   0.0000       0.119133         3.2418
  70   0.0000       0.124124         3.3776
  71   0.0000       0.129476         3.5232

MULLIKEN ATOMIC CHARGES
-----------------------
   0 S :    0.137998
   1 C :   -0.121199
   2 C :   -0.114715
   3 C :    0.035097
   4 C :   -0.195196
   5 H :    0.037124
   6 C :    0.089964
   7 H :    0.023684
   8 H :    0.027140
   9 C :   -0.069207
  10 H :    0.025360
  11 H :    0.040204
  12 C :   -0.082550
  13 H :    0.038197
  14 H :    0.048802
  15 H :    0.023689
  16 S :    0.116414
  17 C :   -0.076080
  18 C :   -0.049161
  19 C :   -0.036855
  20 C :   -0.179659
  21 H :    0.014241
  22 C :    0.144979
  23 H :    0.024441
  24 H :    0.014416
  25 C :   -0.096370
  26 H :    0.018459
  27 H :    0.030376
  28 C :   -0.053395
  29 H :    0.027326
  30 H :    0.042862
  31 H :    0.029026
  32 H :    0.044344
  33 H :    0.040242
Sum of atomic charges:   -0.0000000

LOEWDIN ATOMIC CHARGES
----------------------
   0 S :    0.471367
   1 C :   -0.210507
   2 C :   -0.067376
   3 C :   -0.065030
   4 C :   -0.221877
   5 H :    0.042370
   6 C :   -0.029230
   7 H :    0.025403
   8 H :    0.036570
   9 C :   -0.040998
  10 H :    0.018991
  11 H :    0.031729
  12 C :   -0.070034
  13 H :    0.031216
  14 H :    0.028002
  15 H :    0.017553
  16 S :    0.420981
  17 C :   -0.185154
  18 C :   -0.078580
  19 C :   -0.051097
  20 C :   -0.213047
  21 H :    0.029178
  22 C :   -0.024756
  23 H :    0.036207
  24 H :    0.025158
  25 C :   -0.041640
  26 H :    0.020888
  27 H :    0.025417
  28 C :   -0.075129
  29 H :    0.024350
  30 H :    0.026070
  31 H :    0.016643
  32 H :    0.024601
  33 H :    0.021761

  Mayer bond orders larger than 0.100000
B(  0-S ,  1-C ) :   1.1730 B(  0-S ,  4-C ) :   1.2053 B(  1-C ,  2-C ) :   1.5553
B(  1-C ,  4-C ) :   0.1059 B(  1-C , 32-H ) :   0.9737 B(  2-C ,  3-C ) :   1.2940
B(  2-C ,  6-C ) :   1.0039 B(  3-C ,  4-C ) :   1.5295 B(  3-C ,  5-H ) :   0.9830
B(  4-C , 20-C ) :   1.0071 B(  6-C ,  7-H ) :   0.9351 B(  6-C ,  8-H ) :   0.9457
B(  6-C ,  9-C ) :   1.0727 B(  9-C , 10-H ) :   0.9565 B(  9-C , 11-H ) :   0.9566
B(  9-C , 12-C ) :   1.0676 B( 12-C , 13-H ) :   0.9752 B( 12-C , 14-H ) :   0.9797
B( 12-C , 15-H ) :   0.9757 B( 16-S , 17-C ) :   1.1708 B( 16-S , 20-C ) :   1.1584
B( 17-C , 18-C ) :   1.6065 B( 17-C , 33-H ) :   0.9723 B( 18-C , 19-C ) :   1.2395
B( 18-C , 21-H ) :   0.9924 B( 19-C , 20-C ) :   1.5862 B( 19-C , 22-C ) :   1.0455
B( 22-C , 23-H ) :   0.9263 B( 22-C , 24-H ) :   0.9296 B( 22-C , 25-C ) :   1.0753
B( 25-C , 26-H ) :   0.9525 B( 25-C , 27-H ) :   0.9560 B( 25-C , 28-C ) :   1.0859
B( 28-C , 29-H ) :   0.9668 B( 28-C , 30-H ) :   0.9749 B( 28-C , 31-H ) :   0.9635

Dispersion correction           -0.015852527
FINAL SINGLE POINT ENERGY     -1339.881851848348

DIPOLE MOMENT
-------------
                                X             Y             Z
Electronic contribution:     -2.39064      21.27771      13.45639
Nuclear contribution   :      2.24461     -21.72133     -13.69776
                        -----------------------------------------
Total Dipole Moment    :     -0.14603      -0.44362      -0.24137
                        -----------------------------------------
Magnitude (a.u.)       :      0.52572
Magnitude (Debye)      :      1.33628

Rotational constants in cm-1:     0.021633     0.008890     0.007867
Rotational constants in MHz :   648.538007   266.507638   235.856926

                             ****ORCA TERMINATED NORMALLY****
TOTAL RUN TIME: 0 days 0 hours 0 minutes 22 seconds 695 msec
