                         Program Version 4.2.1 -  RELEASE  -
|  1> ! wB97X-D3 SP def2-SVP
|  2> %pal
|  3> nprocs 24
|  4> end
|  5>
|  6> * xyz 0 1
|  7> S 	 -39.2446 	 16.6739 	 13.2016
|  8> C 	 -39.9453 	 17.7772 	 14.3126
|  9> C 	 -39.4148 	 19.025 	 14.2959
| 10> C 	 -38.2059 	 19.0062 	 13.5513
| 11> C 	 -37.9804 	 17.7894 	 12.8758
| 12> H 	 -37.3936 	 19.728 	 13.5521
| 13> C 	 -39.8728 	 20.1588 	 15.1068
| 14> H 	 -40.4417 	 20.8796 	 14.5189
| 15> H 	 -39.0317 	 20.8715 	 15.2848
| 16> C 	 -40.6119 	 19.8679 	 16.4533
| 17> H 	 -41.6513 	 19.6098 	 16.2484
| 18> H 	 -40.1316 	 18.9614 	 16.9568
| 19> C 	 -40.749 	 20.9886 	 17.4962
| 20> H 	 -41.4228 	 20.8162 	 18.2599
| 21> H 	 -39.7538 	 21.1075 	 17.9296
| 22> H 	 -41.0996 	 21.9713 	 17.0792
| 23> S 	 -36.1398 	 15.8225 	 12.2949
| 24> C 	 -34.991 	 16.0364 	 11.0369
| 25> C 	 -35.0442 	 17.299 	 10.4903
| 26> C 	 -36.1655 	 18.126 	 11.0355
| 27> C 	 -36.8492 	 17.4065 	 12.0052
| 28> H 	 -34.232 	 17.6208 	 9.78263
| 29> C 	 -36.504 	 19.5526 	 10.6453
| 30> H 	 -35.666 	 20.137 	 11.1343
| 31> H 	 -37.4691 	 19.6654 	 11.0589
| 32> C 	 -36.636 	 19.8048 	 9.13533
| 33> H 	 -35.6755 	 19.7627 	 8.66151
| 34> H 	 -36.8501 	 20.8243 	 8.91698
| 35> C 	 -37.6033 	 18.85 	 8.45165
| 36> H 	 -38.6557 	 19.1399 	 8.68415
| 37> H 	 -37.3571 	 17.8855 	 8.70959
| 38> H 	 -37.6968 	 18.8199 	 7.39212
| 39> H 	 -40.8393 	 17.628 	 14.7744
| 40> H 	 -34.2712 	 15.2783 	 10.8023
| 41> *
| 42>
| 43>                          ****END OF INPUT****

CARTESIAN COORDINATES (ANGSTROEM)
---------------------------------
  S    -39.244600   16.673900   13.201600
  C    -39.945300   17.777200   14.312600
  C    -39.414800   19.025000   14.295900
  C    -38.205900   19.006200   13.551300
  C    -37.980400   17.789400   12.875800
  H    -37.393600   19.728000   13.552100
  C    -39.872800   20.158800   15.106800
  H    -40.441700   20.879600   14.518900
  H    -39.031700   20.871500   15.284800
  C    -40.611900   19.867900   16.453300
  H    -41.651300   19.609800   16.248400
  H    -40.131600   18.961400   16.956800
  C    -40.749000   20.988600   17.496200
  H    -41.422800   20.816200   18.259900
  H    -39.753800   21.107500   17.929600
  H    -41.099600   21.971300   17.079200
  S    -36.139800   15.822500   12.294900
  C    -34.991000   16.036400   11.036900
  C    -35.044200   17.299000   10.490300
  C    -36.165500   18.126000   11.035500
  C    -36.849200   17.406500   12.005200
  H    -34.232000   17.620800    9.782630
  C    -36.504000   19.552600   10.645300
  H    -35.666000   20.137000   11.134300
  H    -37.469100   19.665400   11.058900
  C    -36.636000   19.804800    9.135330
  H    -35.675500   19.762700    8.661510
  H    -36.850100   20.824300    8.916980
  C    -37.603300   18.850000    8.451650
  H    -38.655700   19.139900    8.684150
  H    -37.357100   17.885500    8.709590
  H    -37.696800   18.819900    7.392120
  H    -40.839300   17.628000   14.774400
  H    -34.271200   15.278300   10.802300

 Total Charge           Charge          ....    0
 Multiplicity           Mult            ....    1
 Number of Electrons    NEL             ....  134
 Basis Dimension        Dim             ....  322

ORBITAL ENERGIES
----------------

  NO   OCC          E(Eh)            E(eV)
   0   2.0000     -88.966415     -2420.8992
   1   2.0000     -88.961231     -2420.7582
   2   2.0000     -10.327844      -281.0349
   3   2.0000     -10.326121      -280.9880
   4   2.0000     -10.314918      -280.6832
   5   2.0000     -10.308669      -280.5131
   6   2.0000     -10.302301      -280.3399
   7   2.0000     -10.298311      -280.2313
   8   2.0000     -10.296384      -280.1789
   9   2.0000     -10.296129      -280.1719
  10   2.0000     -10.296108      -280.1713
  11   2.0000     -10.294364      -280.1239
  12   2.0000     -10.292972      -280.0860
  13   2.0000     -10.279708      -279.7251
  14   2.0000     -10.279095      -279.7084
  15   2.0000     -10.264907      -279.3223
  16   2.0000      -8.082250      -219.9292
  17   2.0000      -8.076767      -219.7800
  18   2.0000      -6.040533      -164.3713
  19   2.0000      -6.036627      -164.2650
  20   2.0000      -6.035258      -164.2277
  21   2.0000      -6.033171      -164.1709
  22   2.0000      -6.031186      -164.1169
  23   2.0000      -6.027481      -164.0161
  24   2.0000      -1.010468       -27.4962
  25   2.0000      -0.986277       -26.8380
  26   2.0000      -0.912228       -24.8230
  27   2.0000      -0.911665       -24.8077
  28   2.0000      -0.868588       -23.6355
  29   2.0000      -0.855735       -23.2857
  30   2.0000      -0.841189       -22.8899
  31   2.0000      -0.814495       -22.1635
  32   2.0000      -0.787073       -21.4174
  33   2.0000      -0.776580       -21.1318
  34   2.0000      -0.712780       -19.3957
  35   2.0000      -0.709438       -19.3048
  36   2.0000      -0.691418       -18.8145
  37   2.0000      -0.656326       -17.8595
  38   2.0000      -0.641127       -17.4459
  39   2.0000      -0.612359       -16.6631
  40   2.0000      -0.592539       -16.1238
  41   2.0000      -0.571718       -15.5572
  42   2.0000      -0.564311       -15.3557
  43   2.0000      -0.562459       -15.3053
  44   2.0000      -0.546302       -14.8656
  45   2.0000      -0.520709       -14.1692
  46   2.0000      -0.518449       -14.1077
  47   2.0000      -0.514419       -13.9980
  48   2.0000      -0.499709       -13.5978
  49   2.0000      -0.495487       -13.4829
  50   2.0000      -0.486211       -13.2305
  51   2.0000      -0.483173       -13.1478
  52   2.0000      -0.472293       -12.8518
  53   2.0000      -0.464580       -12.6419
  54   2.0000      -0.454910       -12.3787
  55   2.0000      -0.451068       -12.2742
  56   2.0000      -0.447016       -12.1639
  57   2.0000      -0.445731       -12.1290
  58   2.0000      -0.437193       -11.8966
  59   2.0000      -0.426384       -11.6025
  60   2.0000      -0.419160       -11.4059
  61   2.0000      -0.411070       -11.1858
  62   2.0000      -0.408064       -11.1040
  63   2.0000      -0.349210        -9.5025
  64   2.0000      -0.331189        -9.0121
  65   2.0000      -0.324305        -8.8248
  66   2.0000      -0.291505        -7.9323
  67   0.0000       0.032970         0.8972
  68   0.0000       0.080584         2.1928
  69   0.0000       0.114092         3.1046
  70   0.0000       0.116680         3.1750
  71   0.0000       0.136963         3.7270

MULLIKEN ATOMIC CHARGES
-----------------------
   0 S :    0.129262
   1 C :   -0.070834
   2 C :   -0.070109
   3 C :    0.014046
   4 C :   -0.172457
   5 H :    0.018309
   6 C :    0.078234
   7 H :    0.028489
   8 H :    0.013493
   9 C :   -0.124979
  10 H :    0.032239
  11 H :    0.049698
  12 C :   -0.028742
  13 H :    0.021535
  14 H :    0.033779
  15 H :    0.029707
  16 S :    0.099830
  17 C :   -0.086120
  18 C :   -0.052723
  19 C :   -0.099247
  20 C :   -0.150541
  21 H :    0.041318
  22 C :    0.091079
  23 H :    0.059167
  24 H :    0.022124
  25 C :   -0.032522
  26 H :    0.008261
  27 H :    0.013207
  28 C :   -0.028901
  29 H :    0.028023
  30 H :    0.029098
  31 H :    0.017227
  32 H :    0.003391
  33 H :    0.055660
Sum of atomic charges:    0.0000000

LOEWDIN ATOMIC CHARGES
----------------------
   0 S :    0.437516
   1 C :   -0.191723
   2 C :   -0.063906
   3 C :   -0.062242
   4 C :   -0.205220
   5 H :    0.031070
   6 C :   -0.041426
   7 H :    0.036889
   8 H :    0.034869
   9 C :   -0.046565
  10 H :    0.020999
  11 H :    0.033880
  12 C :   -0.062367
  13 H :    0.017470
  14 H :    0.026359
  15 H :    0.029627
  16 S :    0.403500
  17 C :   -0.189829
  18 C :   -0.082350
  19 C :   -0.052729
  20 C :   -0.202579
  21 H :    0.039853
  22 C :   -0.027958
  23 H :    0.046515
  24 H :    0.026904
  25 C :   -0.040071
  26 H :    0.017898
  27 H :    0.020978
  28 C :   -0.060549
  29 H :    0.031947
  30 H :    0.016755
  31 H :    0.023839
  32 H :    0.005776
  33 H :    0.026870

  Mayer bond orders larger than 0.100000
B(  0-S ,  1-C ) :   1.1424 B(  0-S ,  4-C ) :   1.1770 B(  1-C ,  2-C ) :   1.6277
B(  1-C , 32-H ) :   0.9643 B(  2-C ,  3-C ) :   1.2376 B(  2-C ,  6-C ) :   1.0407
B(  3-C ,  4-C ) :   1.5612 B(  3-C ,  5-H ) :   0.9910 B(  4-C , 20-C ) :   1.0266
B(  6-C ,  7-H ) :   0.9086 B(  6-C ,  8-H ) :   0.9408 B(  6-C ,  9-C ) :   1.0544
B(  9-C , 10-H ) :   0.9502 B(  9-C , 11-H ) :   0.9615 B(  9-C , 12-C ) :   1.0865
B( 12-C , 13-H ) :   0.9742 B( 12-C , 14-H ) :   0.9759 B( 12-C , 15-H ) :   0.9732
B( 16-S , 17-C ) :   1.1509 B( 16-S , 20-C ) :   1.1366 B( 17-C , 18-C ) :   1.6340
B( 17-C , 33-H ) :   0.9703 B( 18-C , 19-C ) :   1.1838 B( 18-C , 21-H ) :   0.9831
B( 19-C , 20-C ) :   1.6268 B( 19-C , 22-C ) :   1.0289 B( 22-C , 23-H ) :   0.9320
B( 22-C , 24-H ) :   0.9267 B( 22-C , 25-C ) :   1.0754 B( 25-C , 26-H ) :   0.9494
B( 25-C , 27-H ) :   0.9549 B( 25-C , 28-C ) :   1.0715 B( 28-C , 29-H ) :   0.9735
B( 28-C , 30-H ) :   0.9735 B( 28-C , 31-H ) :   0.9718

Dispersion correction           -0.014058869
FINAL SINGLE POINT ENERGY     -1339.867445432892

DIPOLE MOMENT
-------------
                                X             Y             Z
Electronic contribution:      7.42490     -22.44742      -1.52483
Nuclear contribution   :     -7.40410      23.07656       1.52018
                        -----------------------------------------
Total Dipole Moment    :      0.02080       0.62914      -0.00465
                        -----------------------------------------
Magnitude (a.u.)       :      0.62950
Magnitude (Debye)      :      1.60006

Rotational constants in cm-1:     0.022908     0.007189     0.006199
Rotational constants in MHz :   686.758325   215.506381   185.840123

                             ****ORCA TERMINATED NORMALLY****
TOTAL RUN TIME: 0 days 0 hours 0 minutes 21 seconds 248 msec
