                         Program Version 4.2.1 -  RELEASE  -
|  1> ! wB97X-D3 SP def2-SVP
|  2> %pal
|  3> nprocs 24
|  4> end
|  5>
|  6> * xyz 0 1
|  7> S 	 -31.9516 	 -36.2573 	 -91.8483
|  8> C 	 -31.5029 	 -34.5877 	 -91.9807
|  9> C 	 -32.0889 	 -33.7714 	 -91.0022
| 10> C 	 -32.8646 	 -34.5756 	 -90.1412
| 11> C 	 -32.9432 	 -35.943 	 -90.4111
| 12> H 	 -33.3202 	 -34.3171 	 -89.227
| 13> C 	 -31.6539 	 -32.343 	 -90.7589
| 14> H 	 -32.4867 	 -31.7994 	 -90.428
| 15> H 	 -31.2235 	 -32.0354 	 -91.7037
| 16> C 	 -30.5395 	 -32.0607 	 -89.6719
| 17> H 	 -30.4565 	 -30.9061 	 -89.7883
| 18> H 	 -30.9885 	 -32.1219 	 -88.635
| 19> C 	 -29.1459 	 -32.7635 	 -89.8895
| 20> H 	 -29.2784 	 -33.7926 	 -89.9242
| 21> H 	 -28.5004 	 -32.5678 	 -90.7843
| 22> H 	 -28.4496 	 -32.5524 	 -89.0447
| 23> S 	 -32.7114 	 -38.6304 	 -89.6929
| 24> C 	 -33.8839 	 -39.2964 	 -88.643
| 25> C 	 -34.8777 	 -38.4213 	 -88.2694
| 26> C 	 -34.6406 	 -37.0841 	 -88.8196
| 27> C 	 -33.5113 	 -37.0414 	 -89.5996
| 28> H 	 -35.6665 	 -38.8084 	 -87.7015
| 29> C 	 -35.6262 	 -35.9487 	 -88.5326
| 30> H 	 -35.0776 	 -35.1243 	 -88.0331
| 31> H 	 -36.3379 	 -36.3139 	 -87.7383
| 32> C 	 -36.4742 	 -35.3611 	 -89.6894
| 33> H 	 -35.9349 	 -35.1212 	 -90.5116
| 34> H 	 -37.0735 	 -34.5271 	 -89.2458
| 35> C 	 -37.4902 	 -36.3295 	 -90.1415
| 36> H 	 -36.9892 	 -37.0158 	 -90.806
| 37> H 	 -38.2409 	 -35.9006 	 -90.7433
| 38> H 	 -38.0705 	 -36.8581 	 -89.2755
| 39> H 	 -30.9542 	 -34.2463 	 -92.7697
| 40> H 	 -33.7996 	 -40.3049 	 -88.1781
| 41> *
| 42>
| 43>                          ****END OF INPUT****

CARTESIAN COORDINATES (ANGSTROEM)
---------------------------------
  S    -31.951600  -36.257300  -91.848300
  C    -31.502900  -34.587700  -91.980700
  C    -32.088900  -33.771400  -91.002200
  C    -32.864600  -34.575600  -90.141200
  C    -32.943200  -35.943000  -90.411100
  H    -33.320200  -34.317100  -89.227000
  C    -31.653900  -32.343000  -90.758900
  H    -32.486700  -31.799400  -90.428000
  H    -31.223500  -32.035400  -91.703700
  C    -30.539500  -32.060700  -89.671900
  H    -30.456500  -30.906100  -89.788300
  H    -30.988500  -32.121900  -88.635000
  C    -29.145900  -32.763500  -89.889500
  H    -29.278400  -33.792600  -89.924200
  H    -28.500400  -32.567800  -90.784300
  H    -28.449600  -32.552400  -89.044700
  S    -32.711400  -38.630400  -89.692900
  C    -33.883900  -39.296400  -88.643000
  C    -34.877700  -38.421300  -88.269400
  C    -34.640600  -37.084100  -88.819600
  C    -33.511300  -37.041400  -89.599600
  H    -35.666500  -38.808400  -87.701500
  C    -35.626200  -35.948700  -88.532600
  H    -35.077600  -35.124300  -88.033100
  H    -36.337900  -36.313900  -87.738300
  C    -36.474200  -35.361100  -89.689400
  H    -35.934900  -35.121200  -90.511600
  H    -37.073500  -34.527100  -89.245800
  C    -37.490200  -36.329500  -90.141500
  H    -36.989200  -37.015800  -90.806000
  H    -38.240900  -35.900600  -90.743300
  H    -38.070500  -36.858100  -89.275500
  H    -30.954200  -34.246300  -92.769700
  H    -33.799600  -40.304900  -88.178100

 Total Charge           Charge          ....    0
 Multiplicity           Mult            ....    1
 Number of Electrons    NEL             ....  134
 Basis Dimension        Dim             ....  322

ORBITAL ENERGIES
----------------

  NO   OCC          E(Eh)            E(eV)
   0   2.0000     -88.967411     -2420.9263
   1   2.0000     -88.966840     -2420.9108
   2   2.0000     -10.333707      -281.1945
   3   2.0000     -10.331932      -281.1462
   4   2.0000     -10.316732      -280.7325
   5   2.0000     -10.309149      -280.5262
   6   2.0000     -10.309126      -280.5256
   7   2.0000     -10.307208      -280.4734
   8   2.0000     -10.301494      -280.3179
   9   2.0000     -10.299228      -280.2562
  10   2.0000     -10.293051      -280.0881
  11   2.0000     -10.292904      -280.0841
  12   2.0000     -10.290438      -280.0171
  13   2.0000     -10.281398      -279.7711
  14   2.0000     -10.276819      -279.6465
  15   2.0000     -10.269770      -279.4546
  16   2.0000      -8.082517      -219.9365
  17   2.0000      -8.081335      -219.9043
  18   2.0000      -6.041067      -164.3858
  19   2.0000      -6.039723      -164.3492
  20   2.0000      -6.037052      -164.2765
  21   2.0000      -6.035831      -164.2433
  22   2.0000      -6.033130      -164.1698
  23   2.0000      -6.032310      -164.1475
  24   2.0000      -1.005202       -27.3529
  25   2.0000      -0.984318       -26.7847
  26   2.0000      -0.913405       -24.8550
  27   2.0000      -0.903955       -24.5979
  28   2.0000      -0.865971       -23.5643
  29   2.0000      -0.854834       -23.2612
  30   2.0000      -0.842995       -22.9391
  31   2.0000      -0.815618       -22.1941
  32   2.0000      -0.786295       -21.3962
  33   2.0000      -0.775358       -21.0986
  34   2.0000      -0.709029       -19.2937
  35   2.0000      -0.699155       -19.0250
  36   2.0000      -0.685960       -18.6659
  37   2.0000      -0.664105       -18.0712
  38   2.0000      -0.644913       -17.5490
  39   2.0000      -0.618608       -16.8332
  40   2.0000      -0.596842       -16.2409
  41   2.0000      -0.564317       -15.3559
  42   2.0000      -0.559562       -15.2265
  43   2.0000      -0.554988       -15.1020
  44   2.0000      -0.547061       -14.8863
  45   2.0000      -0.532530       -14.4909
  46   2.0000      -0.520418       -14.1613
  47   2.0000      -0.507486       -13.8094
  48   2.0000      -0.500759       -13.6263
  49   2.0000      -0.489168       -13.3109
  50   2.0000      -0.485473       -13.2104
  51   2.0000      -0.477753       -13.0003
  52   2.0000      -0.470674       -12.8077
  53   2.0000      -0.468936       -12.7604
  54   2.0000      -0.457797       -12.4573
  55   2.0000      -0.448845       -12.2137
  56   2.0000      -0.446562       -12.1516
  57   2.0000      -0.437225       -11.8975
  58   2.0000      -0.432670       -11.7735
  59   2.0000      -0.430117       -11.7041
  60   2.0000      -0.418717       -11.3939
  61   2.0000      -0.409944       -11.1551
  62   2.0000      -0.408193       -11.1075
  63   2.0000      -0.359297        -9.7770
  64   2.0000      -0.333432        -9.0732
  65   2.0000      -0.330423        -8.9913
  66   2.0000      -0.283575        -7.7165
  67   0.0000       0.023786         0.6472
  68   0.0000       0.073682         2.0050
  69   0.0000       0.105797         2.8789
  70   0.0000       0.117309         3.1921
  71   0.0000       0.136030         3.7016

MULLIKEN ATOMIC CHARGES
-----------------------
   0 S :    0.098676
   1 C :   -0.097054
   2 C :   -0.072221
   3 C :    0.033238
   4 C :   -0.151876
   5 H :   -0.024785
   6 C :    0.107238
   7 H :    0.017461
   8 H :    0.018583
   9 C :   -0.114338
  10 H :    0.041678
  11 H :    0.043604
  12 C :   -0.056993
  13 H :    0.034933
  14 H :    0.036725
  15 H :    0.040124
  16 S :    0.108623
  17 C :   -0.105196
  18 C :   -0.016421
  19 C :   -0.040169
  20 C :   -0.130858
  21 H :    0.001796
  22 C :    0.010667
  23 H :    0.043042
  24 H :    0.022880
  25 C :   -0.004230
  26 H :    0.019506
  27 H :    0.031069
  28 C :   -0.066144
  29 H :    0.033463
  30 H :    0.018828
  31 H :    0.030957
  32 H :    0.015545
  33 H :    0.071649
Sum of atomic charges:    0.0000000

LOEWDIN ATOMIC CHARGES
----------------------
   0 S :    0.400106
   1 C :   -0.184517
   2 C :   -0.065194
   3 C :   -0.062943
   4 C :   -0.183272
   5 H :    0.019869
   6 C :   -0.023999
   7 H :    0.025422
   8 H :    0.030509
   9 C :   -0.043611
  10 H :    0.033224
  11 H :    0.030043
  12 C :   -0.077157
  13 H :    0.018095
  14 H :    0.033260
  15 H :    0.034188
  16 S :    0.404313
  17 C :   -0.198520
  18 C :   -0.067601
  19 C :   -0.054566
  20 C :   -0.187913
  21 H :    0.024520
  22 C :   -0.034942
  23 H :    0.030667
  24 H :    0.034806
  25 C :   -0.031113
  26 H :    0.013446
  27 H :    0.031707
  28 C :   -0.066499
  29 H :    0.025129
  30 H :    0.017089
  31 H :    0.030341
  32 H :    0.005989
  33 H :    0.039122

  Mayer bond orders larger than 0.100000
B(  0-S ,  1-C ) :   1.1614 B(  0-S ,  4-C ) :   1.1430 B(  1-C ,  2-C ) :   1.5599
B(  1-C ,  4-C ) :   0.1036 B(  1-C , 32-H ) :   0.9775 B(  2-C ,  3-C ) :   1.2493
B(  2-C ,  6-C ) :   1.0467 B(  3-C ,  4-C ) :   1.5640 B(  3-C ,  5-H ) :   0.9976
B(  4-C , 20-C ) :   1.0639 B(  6-C ,  7-H ) :   0.9318 B(  6-C ,  8-H ) :   0.9389
B(  6-C ,  9-C ) :   1.0666 B(  9-C , 10-H ) :   0.9575 B(  9-C , 11-H ) :   0.9587
B(  9-C , 12-C ) :   1.0494 B( 12-C , 13-H ) :   0.9778 B( 12-C , 14-H ) :   0.9768
B( 12-C , 15-H ) :   0.9749 B( 16-S , 17-C ) :   1.1561 B( 16-S , 20-C ) :   1.1210
B( 17-C , 18-C ) :   1.6391 B( 17-C , 33-H ) :   0.9564 B( 18-C , 19-C ) :   1.2094
B( 18-C , 21-H ) :   0.9998 B( 19-C , 20-C ) :   1.6219 B( 19-C , 22-C ) :   1.0279
B( 22-C , 23-H ) :   0.9365 B( 22-C , 24-H ) :   0.9374 B( 22-C , 25-C ) :   1.0736
B( 25-C , 26-H ) :   0.9547 B( 25-C , 27-H ) :   0.9529 B( 25-C , 28-C ) :   1.0853
B( 28-C , 29-H ) :   0.9751 B( 28-C , 30-H ) :   0.9711 B( 28-C , 31-H ) :   0.9719

Dispersion correction           -0.014730748
FINAL SINGLE POINT ENERGY     -1339.859278674473

DIPOLE MOMENT
-------------
                                X             Y             Z
Electronic contribution:      6.19502     -19.68702      -5.81081
Nuclear contribution   :     -6.38938      20.08405       6.14234
                        -----------------------------------------
Total Dipole Moment    :     -0.19436       0.39703       0.33153
                        -----------------------------------------
Magnitude (a.u.)       :      0.55256
Magnitude (Debye)      :      1.40450

Rotational constants in cm-1:     0.020160     0.008465     0.007159
Rotational constants in MHz :   604.385258   253.760594   214.621978

                             ****ORCA TERMINATED NORMALLY****
TOTAL RUN TIME: 0 days 0 hours 0 minutes 21 seconds 803 msec
