                         Program Version 4.2.1 -  RELEASE  -
|  1> ! wB97X-D3 SP def2-SVP
|  2> %pal
|  3> nprocs 24
|  4> end
|  5>
|  6> * xyz 0 1
|  7> S 	 -121.959 	 21.729 	 -15.8356
|  8> C 	 -120.454 	 21.2939 	 -16.5997
|  9> C 	 -119.366 	 21.9579 	 -16.057
| 10> C 	 -119.786 	 22.7413 	 -14.9344
| 11> C 	 -121.127 	 22.7035 	 -14.6795
| 12> H 	 -119.12 	 23.2761 	 -14.3485
| 13> C 	 -117.937 	 21.7533 	 -16.4389
| 14> H 	 -117.687 	 22.7983 	 -16.4971
| 15> H 	 -117.83 	 21.2498 	 -17.3911
| 16> C 	 -117.098 	 21.0911 	 -15.4275
| 17> H 	 -116.116 	 21.3244 	 -15.6942
| 18> H 	 -117.256 	 21.5507 	 -14.5015
| 19> C 	 -117.26 	 19.5475 	 -15.3449
| 20> H 	 -118.256 	 19.2821 	 -15.0378
| 21> H 	 -117.139 	 19.1126 	 -16.3355
| 22> H 	 -116.451 	 19.1095 	 -14.689
| 23> S 	 -122.511 	 21.8739 	 -12.4913
| 24> C 	 -123.095 	 23.0066 	 -11.3286
| 25> C 	 -122.683 	 24.2633 	 -11.6827
| 26> C 	 -122.092 	 24.341 	 -12.9942
| 27> C 	 -121.855 	 23.0862 	 -13.5255
| 28> H 	 -122.865 	 25.0632 	 -10.9587
| 29> C 	 -121.454 	 25.5775 	 -13.4627
| 30> H 	 -120.761 	 25.343 	 -14.2955
| 31> H 	 -120.809 	 26.0377 	 -12.6908
| 32> C 	 -122.456 	 26.6036 	 -13.9203
| 33> H 	 -121.966 	 27.5615 	 -13.8866
| 34> H 	 -123.223 	 26.6044 	 -13.1962
| 35> C 	 -122.977 	 26.5659 	 -15.333
| 36> H 	 -123.483 	 25.6679 	 -15.6003
| 37> H 	 -122.071 	 26.5078 	 -15.9654
| 38> H 	 -123.54 	 27.4419 	 -15.6743
| 39> H 	 -120.388 	 20.6418 	 -17.4405
| 40> H 	 -123.64 	 22.7881 	 -10.4114
| 41> *
| 42>
| 43>                          ****END OF INPUT****

CARTESIAN COORDINATES (ANGSTROEM)
---------------------------------
  S    -121.959000   21.729000  -15.835600
  C    -120.454000   21.293900  -16.599700
  C    -119.366000   21.957900  -16.057000
  C    -119.786000   22.741300  -14.934400
  C    -121.127000   22.703500  -14.679500
  H    -119.120000   23.276100  -14.348500
  C    -117.937000   21.753300  -16.438900
  H    -117.687000   22.798300  -16.497100
  H    -117.830000   21.249800  -17.391100
  C    -117.098000   21.091100  -15.427500
  H    -116.116000   21.324400  -15.694200
  H    -117.256000   21.550700  -14.501500
  C    -117.260000   19.547500  -15.344900
  H    -118.256000   19.282100  -15.037800
  H    -117.139000   19.112600  -16.335500
  H    -116.451000   19.109500  -14.689000
  S    -122.511000   21.873900  -12.491300
  C    -123.095000   23.006600  -11.328600
  C    -122.683000   24.263300  -11.682700
  C    -122.092000   24.341000  -12.994200
  C    -121.855000   23.086200  -13.525500
  H    -122.865000   25.063200  -10.958700
  C    -121.454000   25.577500  -13.462700
  H    -120.761000   25.343000  -14.295500
  H    -120.809000   26.037700  -12.690800
  C    -122.456000   26.603600  -13.920300
  H    -121.966000   27.561500  -13.886600
  H    -123.223000   26.604400  -13.196200
  C    -122.977000   26.565900  -15.333000
  H    -123.483000   25.667900  -15.600300
  H    -122.071000   26.507800  -15.965400
  H    -123.540000   27.441900  -15.674300
  H    -120.388000   20.641800  -17.440500
  H    -123.640000   22.788100  -10.411400

 Total Charge           Charge          ....    0
 Multiplicity           Mult            ....    1
 Number of Electrons    NEL             ....  134
 Basis Dimension        Dim             ....  322

ORBITAL ENERGIES
----------------

  NO   OCC          E(Eh)            E(eV)
   0   2.0000     -88.962938     -2420.8046
   1   2.0000     -88.962191     -2420.7843
   2   2.0000     -10.322293      -280.8839
   3   2.0000     -10.319015      -280.7947
   4   2.0000     -10.313771      -280.6520
   5   2.0000     -10.309225      -280.5283
   6   2.0000     -10.297990      -280.2226
   7   2.0000     -10.296459      -280.1809
   8   2.0000     -10.291528      -280.0467
   9   2.0000     -10.290027      -280.0059
  10   2.0000     -10.285423      -279.8806
  11   2.0000     -10.284667      -279.8600
  12   2.0000     -10.279993      -279.7328
  13   2.0000     -10.274745      -279.5900
  14   2.0000     -10.271072      -279.4901
  15   2.0000     -10.268641      -279.4239
  16   2.0000      -8.078525      -219.8278
  17   2.0000      -8.077908      -219.8111
  18   2.0000      -6.036934      -164.2733
  19   2.0000      -6.036384      -164.2584
  20   2.0000      -6.032831      -164.1617
  21   2.0000      -6.032151      -164.1432
  22   2.0000      -6.029424      -164.0690
  23   2.0000      -6.028734      -164.0502
  24   2.0000      -1.015969       -27.6459
  25   2.0000      -0.989713       -26.9315
  26   2.0000      -0.926444       -25.2098
  27   2.0000      -0.916418       -24.9370
  28   2.0000      -0.874907       -23.8074
  29   2.0000      -0.852158       -23.1884
  30   2.0000      -0.846008       -23.0210
  31   2.0000      -0.817230       -22.2380
  32   2.0000      -0.786785       -21.4095
  33   2.0000      -0.774899       -21.0861
  34   2.0000      -0.716128       -19.4868
  35   2.0000      -0.698406       -19.0046
  36   2.0000      -0.695749       -18.9323
  37   2.0000      -0.655123       -17.8268
  38   2.0000      -0.645947       -17.5771
  39   2.0000      -0.632214       -17.2034
  40   2.0000      -0.604438       -16.4476
  41   2.0000      -0.571475       -15.5506
  42   2.0000      -0.559999       -15.2384
  43   2.0000      -0.554566       -15.0905
  44   2.0000      -0.547583       -14.9005
  45   2.0000      -0.539779       -14.6881
  46   2.0000      -0.520766       -14.1708
  47   2.0000      -0.514102       -13.9894
  48   2.0000      -0.506897       -13.7934
  49   2.0000      -0.496193       -13.5021
  50   2.0000      -0.491335       -13.3699
  51   2.0000      -0.480060       -13.0631
  52   2.0000      -0.472400       -12.8547
  53   2.0000      -0.466431       -12.6922
  54   2.0000      -0.461866       -12.5680
  55   2.0000      -0.450290       -12.2530
  56   2.0000      -0.441552       -12.0152
  57   2.0000      -0.439505       -11.9595
  58   2.0000      -0.434576       -11.8254
  59   2.0000      -0.431850       -11.7512
  60   2.0000      -0.417238       -11.3536
  61   2.0000      -0.411217       -11.1898
  62   2.0000      -0.407406       -11.0861
  63   2.0000      -0.343337        -9.3427
  64   2.0000      -0.328141        -8.9292
  65   2.0000      -0.324107        -8.8194
  66   2.0000      -0.300302        -8.1716
  67   0.0000       0.037681         1.0253
  68   0.0000       0.069840         1.9005
  69   0.0000       0.113869         3.0985
  70   0.0000       0.119184         3.2432
  71   0.0000       0.132275         3.5994

MULLIKEN ATOMIC CHARGES
-----------------------
   0 S :    0.115664
   1 C :   -0.119416
   2 C :   -0.106282
   3 C :    0.070186
   4 C :   -0.181315
   5 H :   -0.018600
   6 C :    0.086492
   7 H :    0.024351
   8 H :    0.013879
   9 C :   -0.010356
  10 H :    0.009198
  11 H :    0.007140
  12 C :   -0.051314
  13 H :    0.038994
  14 H :    0.017085
  15 H :    0.047654
  16 S :    0.123338
  17 C :   -0.098129
  18 C :   -0.049268
  19 C :   -0.001158
  20 C :   -0.155003
  21 H :    0.025711
  22 C :    0.036457
  23 H :    0.014842
  24 H :    0.037828
  25 C :   -0.037891
  26 H :    0.011718
  27 H :    0.008723
  28 C :   -0.032836
  29 H :    0.022706
  30 H :    0.014144
  31 H :    0.042246
  32 H :    0.032342
  33 H :    0.060868
Sum of atomic charges:   -0.0000000

LOEWDIN ATOMIC CHARGES
----------------------
   0 S :    0.419557
   1 C :   -0.196320
   2 C :   -0.060328
   3 C :   -0.048305
   4 C :   -0.201827
   5 H :    0.017333
   6 C :   -0.028187
   7 H :    0.036863
   8 H :    0.028559
   9 C :   -0.032308
  10 H :    0.018682
  11 H :    0.016559
  12 C :   -0.060593
  13 H :    0.024132
  14 H :    0.021248
  15 H :    0.035116
  16 S :    0.428190
  17 C :   -0.196469
  18 C :   -0.073383
  19 C :   -0.060538
  20 C :   -0.215815
  21 H :    0.032771
  22 C :   -0.035168
  23 H :    0.029005
  24 H :    0.038273
  25 C :   -0.039693
  26 H :    0.023101
  27 H :    0.013497
  28 C :   -0.064211
  29 H :    0.018643
  30 H :    0.027299
  31 H :    0.029781
  32 H :    0.019313
  33 H :    0.035220

  Mayer bond orders larger than 0.100000
B(  0-S ,  1-C ) :   1.1427 B(  0-S ,  4-C ) :   1.1591 B(  1-C ,  2-C ) :   1.6033
B(  1-C , 32-H ) :   0.9717 B(  2-C ,  3-C ) :   1.2382 B(  2-C ,  6-C ) :   1.0174
B(  3-C ,  4-C ) :   1.5767 B(  3-C ,  5-H ) :   1.0026 B(  4-C , 20-C ) :   1.0319
B(  6-C ,  7-H ) :   0.9217 B(  6-C ,  8-H ) :   0.9407 B(  6-C ,  9-C ) :   1.0969
B(  9-C , 10-H ) :   0.9464 B(  9-C , 11-H ) :   0.9486 B(  9-C , 12-C ) :   1.0706
B( 12-C , 13-H ) :   0.9783 B( 12-C , 14-H ) :   0.9735 B( 12-C , 15-H ) :   0.9749
B( 16-S , 17-C ) :   1.1553 B( 16-S , 20-C ) :   1.1537 B( 17-C , 18-C ) :   1.6165
B( 17-C , 33-H ) :   0.9674 B( 18-C , 19-C ) :   1.2266 B( 18-C , 21-H ) :   0.9858
B( 19-C , 20-C ) :   1.5750 B( 19-C , 22-C ) :   1.0602 B( 22-C , 23-H ) :   0.9302
B( 22-C , 24-H ) :   0.9403 B( 22-C , 25-C ) :   1.0705 B( 25-C , 26-H ) :   0.9490
B( 25-C , 27-H ) :   0.9558 B( 25-C , 28-C ) :   1.0834 B( 28-C , 29-H ) :   0.9743
B( 28-C , 30-H ) :   0.9673 B( 28-C , 31-H ) :   0.9753

Dispersion correction           -0.014525443
FINAL SINGLE POINT ENERGY     -1339.878260556034

DIPOLE MOMENT
-------------
                                X             Y             Z
Electronic contribution:    -14.68615      -9.32473       5.73932
Nuclear contribution   :     15.27777       9.59693      -5.64186
                        -----------------------------------------
Total Dipole Moment    :      0.59162       0.27220       0.09746
                        -----------------------------------------
Magnitude (a.u.)       :      0.65849
Magnitude (Debye)      :      1.67374

Rotational constants in cm-1:     0.020721     0.008412     0.007449
Rotational constants in MHz :   621.209411   252.181867   223.311911

                             ****ORCA TERMINATED NORMALLY****
TOTAL RUN TIME: 0 days 0 hours 0 minutes 22 seconds 203 msec
