                         Program Version 4.2.1 -  RELEASE  -
|  1> ! wB97X-D3 SP def2-SVP
|  2> %pal
|  3> nprocs 24
|  4> end
|  5>
|  6> * xyz 0 1
|  7> S 	 -115.683 	 14.1163 	 -116.136
|  8> C 	 -114.267 	 15.0705 	 -116.649
|  9> C 	 -114.753 	 16.3768 	 -116.758
| 10> C 	 -116.098 	 16.5319 	 -116.394
| 11> C 	 -116.75 	 15.4251 	 -115.955
| 12> H 	 -116.627 	 17.4162 	 -116.445
| 13> C 	 -113.881 	 17.5233 	 -117.388
| 14> H 	 -112.845 	 17.5181 	 -116.99
| 15> H 	 -114.398 	 18.3636 	 -116.994
| 16> C 	 -113.72 	 17.5379 	 -118.881
| 17> H 	 -113.153 	 16.6545 	 -119.012
| 18> H 	 -114.706 	 17.4532 	 -119.356
| 19> C 	 -113.081 	 18.7702 	 -119.586
| 20> H 	 -113.787 	 19.5141 	 -119.425
| 21> H 	 -112.055 	 18.9338 	 -119.195
| 22> H 	 -112.922 	 18.7083 	 -120.669
| 23> S 	 -118.831 	 13.6075 	 -115.627
| 24> C 	 -120.249 	 14.1654 	 -114.89
| 25> C 	 -120.127 	 15.4503 	 -114.372
| 26> C 	 -118.939 	 16.131 	 -114.812
| 27> C 	 -118.099 	 15.2278 	 -115.475
| 28> H 	 -120.825 	 15.8784 	 -113.71
| 29> C 	 -118.593 	 17.4535 	 -114.283
| 30> H 	 -117.532 	 17.5298 	 -114.1
| 31> H 	 -118.992 	 17.4922 	 -113.248
| 32> C 	 -119.234 	 18.6063 	 -115.161
| 33> H 	 -119.064 	 19.5962 	 -114.709
| 34> H 	 -120.31 	 18.5797 	 -115.152
| 35> C 	 -118.754 	 18.7922 	 -116.591
| 36> H 	 -119.351 	 19.5028 	 -117.196
| 37> H 	 -118.689 	 17.805 	 -117.101
| 38> H 	 -117.841 	 19.2883 	 -116.666
| 39> H 	 -113.342 	 14.8058 	 -116.986
| 40> H 	 -121.238 	 13.7074 	 -114.743
| 41> *
| 42>
| 43>                          ****END OF INPUT****

CARTESIAN COORDINATES (ANGSTROEM)
---------------------------------
  S    -115.683000   14.116300  -116.136000
  C    -114.267000   15.070500  -116.649000
  C    -114.753000   16.376800  -116.758000
  C    -116.098000   16.531900  -116.394000
  C    -116.750000   15.425100  -115.955000
  H    -116.627000   17.416200  -116.445000
  C    -113.881000   17.523300  -117.388000
  H    -112.845000   17.518100  -116.990000
  H    -114.398000   18.363600  -116.994000
  C    -113.720000   17.537900  -118.881000
  H    -113.153000   16.654500  -119.012000
  H    -114.706000   17.453200  -119.356000
  C    -113.081000   18.770200  -119.586000
  H    -113.787000   19.514100  -119.425000
  H    -112.055000   18.933800  -119.195000
  H    -112.922000   18.708300  -120.669000
  S    -118.831000   13.607500  -115.627000
  C    -120.249000   14.165400  -114.890000
  C    -120.127000   15.450300  -114.372000
  C    -118.939000   16.131000  -114.812000
  C    -118.099000   15.227800  -115.475000
  H    -120.825000   15.878400  -113.710000
  C    -118.593000   17.453500  -114.283000
  H    -117.532000   17.529800  -114.100000
  H    -118.992000   17.492200  -113.248000
  C    -119.234000   18.606300  -115.161000
  H    -119.064000   19.596200  -114.709000
  H    -120.310000   18.579700  -115.152000
  C    -118.754000   18.792200  -116.591000
  H    -119.351000   19.502800  -117.196000
  H    -118.689000   17.805000  -117.101000
  H    -117.841000   19.288300  -116.666000
  H    -113.342000   14.805800  -116.986000
  H    -121.238000   13.707400  -114.743000

 Total Charge           Charge          ....    0
 Multiplicity           Mult            ....    1
 Number of Electrons    NEL             ....  134
 Basis Dimension        Dim             ....  322

ORBITAL ENERGIES
----------------

  NO   OCC          E(Eh)            E(eV)
   0   2.0000     -88.973617     -2421.0952
   1   2.0000     -88.962112     -2420.7821
   2   2.0000     -10.333051      -281.1766
   3   2.0000     -10.325603      -280.9739
   4   2.0000     -10.318321      -280.7758
   5   2.0000     -10.309738      -280.5422
   6   2.0000     -10.305132      -280.4169
   7   2.0000     -10.301012      -280.3048
   8   2.0000     -10.298213      -280.2286
   9   2.0000     -10.292394      -280.0703
  10   2.0000     -10.291431      -280.0441
  11   2.0000     -10.289844      -280.0009
  12   2.0000     -10.280542      -279.7478
  13   2.0000     -10.279652      -279.7235
  14   2.0000     -10.278526      -279.6929
  15   2.0000     -10.277413      -279.6626
  16   2.0000      -8.088453      -220.0980
  17   2.0000      -8.077240      -219.7929
  18   2.0000      -6.047008      -164.5475
  19   2.0000      -6.043018      -164.4389
  20   2.0000      -6.039086      -164.3319
  21   2.0000      -6.035807      -164.2427
  22   2.0000      -6.031572      -164.1274
  23   2.0000      -6.028011      -164.0305
  24   2.0000      -1.014605       -27.6088
  25   2.0000      -0.989651       -26.9298
  26   2.0000      -0.914528       -24.8856
  27   2.0000      -0.911521       -24.8038
  28   2.0000      -0.871784       -23.7225
  29   2.0000      -0.859457       -23.3870
  30   2.0000      -0.843233       -22.9455
  31   2.0000      -0.818895       -22.2833
  32   2.0000      -0.789978       -21.4964
  33   2.0000      -0.778303       -21.1787
  34   2.0000      -0.714110       -19.4319
  35   2.0000      -0.703807       -19.1516
  36   2.0000      -0.696218       -18.9451
  37   2.0000      -0.664206       -18.0740
  38   2.0000      -0.644813       -17.5462
  39   2.0000      -0.624653       -16.9977
  40   2.0000      -0.598609       -16.2890
  41   2.0000      -0.576240       -15.6803
  42   2.0000      -0.567383       -15.4393
  43   2.0000      -0.556932       -15.1549
  44   2.0000      -0.541381       -14.7317
  45   2.0000      -0.524130       -14.2623
  46   2.0000      -0.522152       -14.2085
  47   2.0000      -0.515886       -14.0380
  48   2.0000      -0.511290       -13.9129
  49   2.0000      -0.503322       -13.6961
  50   2.0000      -0.490108       -13.3365
  51   2.0000      -0.481761       -13.1094
  52   2.0000      -0.480822       -13.0838
  53   2.0000      -0.476380       -12.9630
  54   2.0000      -0.466153       -12.6847
  55   2.0000      -0.453450       -12.3390
  56   2.0000      -0.447328       -12.1724
  57   2.0000      -0.437241       -11.8979
  58   2.0000      -0.430214       -11.7067
  59   2.0000      -0.421025       -11.4567
  60   2.0000      -0.419160       -11.4059
  61   2.0000      -0.410719       -11.1762
  62   2.0000      -0.397865       -10.8265
  63   2.0000      -0.360525        -9.8104
  64   2.0000      -0.335521        -9.1300
  65   2.0000      -0.328133        -8.9289
  66   2.0000      -0.283167        -7.7054
  67   0.0000       0.020361         0.5541
  68   0.0000       0.075535         2.0554
  69   0.0000       0.104805         2.8519
  70   0.0000       0.119401         3.2491
  71   0.0000       0.134929         3.6716

MULLIKEN ATOMIC CHARGES
-----------------------
   0 S :    0.078599
   1 C :   -0.063512
   2 C :   -0.105079
   3 C :    0.052574
   4 C :   -0.092963
   5 H :   -0.099237
   6 C :    0.071628
   7 H :    0.026563
   8 H :    0.002560
   9 C :   -0.058608
  10 H :    0.010245
  11 H :    0.028155
  12 C :   -0.031828
  13 H :    0.023739
  14 H :    0.031473
  15 H :    0.038303
  16 S :    0.135051
  17 C :   -0.074538
  18 C :   -0.032443
  19 C :   -0.056677
  20 C :   -0.126313
  21 H :    0.000970
  22 C :    0.052399
  23 H :    0.035064
  24 H :    0.033169
  25 C :   -0.066286
  26 H :    0.021936
  27 H :    0.025856
  28 C :   -0.047474
  29 H :    0.030806
  30 H :    0.053934
  31 H :    0.029748
  32 H :    0.008080
  33 H :    0.064107
Sum of atomic charges:   -0.0000000

LOEWDIN ATOMIC CHARGES
----------------------
   0 S :    0.411654
   1 C :   -0.179085
   2 C :   -0.052481
   3 C :   -0.079862
   4 C :   -0.194992
   5 H :    0.013514
   6 C :   -0.028110
   7 H :    0.032209
   8 H :    0.017238
   9 C :   -0.041919
  10 H :    0.014661
  11 H :    0.025720
  12 C :   -0.060064
  13 H :    0.017308
  14 H :    0.026854
  15 H :    0.031112
  16 S :    0.423079
  17 C :   -0.207369
  18 C :   -0.064244
  19 C :   -0.052390
  20 C :   -0.187022
  21 H :    0.021818
  22 C :   -0.031945
  23 H :    0.032054
  24 H :    0.041715
  25 C :   -0.038730
  26 H :    0.025881
  27 H :    0.023057
  28 C :   -0.072416
  29 H :    0.034497
  30 H :    0.031335
  31 H :    0.014363
  32 H :    0.011396
  33 H :    0.041161

  Mayer bond orders larger than 0.100000
B(  0-S ,  1-C ) :   1.1306 B(  0-S ,  4-C ) :   1.1597 B(  1-C ,  2-C ) :   1.5704
B(  1-C ,  4-C ) :   0.1045 B(  1-C , 32-H ) :   0.9866 B(  2-C ,  3-C ) :   1.2828
B(  2-C ,  6-C ) :   1.0139 B(  3-C ,  4-C ) :   1.5304 B(  3-C ,  5-H ) :   1.0019
B(  4-C , 20-C ) :   1.0757 B(  6-C ,  7-H ) :   0.9417 B(  6-C ,  8-H ) :   0.9390
B(  6-C ,  9-C ) :   1.0637 B(  9-C , 10-H ) :   0.9552 B(  9-C , 11-H ) :   0.9573
B(  9-C , 12-C ) :   1.0755 B( 12-C , 13-H ) :   0.9788 B( 12-C , 14-H ) :   0.9748
B( 12-C , 15-H ) :   0.9753 B( 16-S , 17-C ) :   1.1606 B( 16-S , 20-C ) :   1.1298
B( 17-C , 18-C ) :   1.6047 B( 17-C , 33-H ) :   0.9608 B( 18-C , 19-C ) :   1.2547
B( 18-C , 21-H ) :   0.9888 B( 19-C , 20-C ) :   1.5552 B( 19-C , 22-C ) :   1.0486
B( 22-C , 23-H ) :   0.9375 B( 22-C , 24-H ) :   0.9373 B( 22-C , 25-C ) :   1.0489
B( 25-C , 26-H ) :   0.9533 B( 25-C , 27-H ) :   0.9619 B( 25-C , 28-C ) :   1.0924
B( 28-C , 29-H ) :   0.9621 B( 28-C , 30-H ) :   0.9643 B( 28-C , 31-H ) :   0.9594

Dispersion correction           -0.014644859
FINAL SINGLE POINT ENERGY     -1339.849818620284

DIPOLE MOMENT
-------------
                                X             Y             Z
Electronic contribution:     -7.39642     -28.07750       9.90406
Nuclear contribution   :      7.19249      28.78584      -9.86084
                        -----------------------------------------
Total Dipole Moment    :     -0.20393       0.70834       0.04322
                        -----------------------------------------
Magnitude (a.u.)       :      0.73838
Magnitude (Debye)      :      1.87680

Rotational constants in cm-1:     0.020830     0.008608     0.006566
Rotational constants in MHz :   624.459800   258.075989   196.848589

                             ****ORCA TERMINATED NORMALLY****
TOTAL RUN TIME: 0 days 0 hours 0 minutes 21 seconds 11 msec
