                         Program Version 4.2.1 -  RELEASE  -
|  1> ! wB97X-D3 SP def2-SVP
|  2> %pal
|  3> nprocs 24
|  4> end
|  5>
|  6> * xyz 0 1
|  7> S 	 -88.4483 	 -31.3988 	 -55.526
|  8> C 	 -87.3498 	 -32.59 	 -56.1895
|  9> C 	 -86.0902 	 -32.0676 	 -56.5147
| 10> C 	 -86.1327 	 -30.684 	 -56.2753
| 11> C 	 -87.3007 	 -30.1549 	 -55.8361
| 12> H 	 -85.385 	 -29.9327 	 -56.4936
| 13> C 	 -84.9429 	 -32.9251 	 -57.0045
| 14> H 	 -84.3873 	 -33.224 	 -56.136
| 15> H 	 -84.2329 	 -32.2697 	 -57.4781
| 16> C 	 -85.2967 	 -34.0861 	 -57.9747
| 17> H 	 -84.3695 	 -34.6291 	 -58.2775
| 18> H 	 -85.891 	 -34.9004 	 -57.5787
| 19> C 	 -85.947 	 -33.5095 	 -59.2515
| 20> H 	 -85.9754 	 -34.2362 	 -60.014
| 21> H 	 -86.9095 	 -33.0409 	 -59.181
| 22> H 	 -85.3024 	 -32.7367 	 -59.7031
| 23> S 	 -87.429 	 -27.6492 	 -56.8631
| 24> C 	 -88.1165 	 -26.2808 	 -55.9654
| 25> C 	 -88.2012 	 -26.6968 	 -54.6445
| 26> C 	 -87.9238 	 -28.0907 	 -54.3673
| 27> C 	 -87.6061 	 -28.7775 	 -55.5183
| 28> H 	 -88.3317 	 -25.9782 	 -53.8552
| 29> C 	 -88.099 	 -28.645 	 -52.9466
| 30> H 	 -87.0364 	 -28.4929 	 -52.5068
| 31> H 	 -88.2993 	 -29.7538 	 -53.0558
| 32> C 	 -89.1591 	 -27.9603 	 -52.0235
| 33> H 	 -90.0993 	 -28.0103 	 -52.5492
| 34> H 	 -88.9517 	 -26.9502 	 -51.8315
| 35> C 	 -89.1687 	 -28.7225 	 -50.6174
| 36> H 	 -89.3697 	 -29.7789 	 -50.6814
| 37> H 	 -89.8772 	 -28.1972 	 -49.9547
| 38> H 	 -88.1388 	 -28.5408 	 -50.1945
| 39> H 	 -87.5896 	 -33.6135 	 -56.4761
| 40> H 	 -87.9921 	 -25.2719 	 -56.2739
| 41> *
| 42>
| 43>                          ****END OF INPUT****

CARTESIAN COORDINATES (ANGSTROEM)
---------------------------------
  S    -88.448300  -31.398800  -55.526000
  C    -87.349800  -32.590000  -56.189500
  C    -86.090200  -32.067600  -56.514700
  C    -86.132700  -30.684000  -56.275300
  C    -87.300700  -30.154900  -55.836100
  H    -85.385000  -29.932700  -56.493600
  C    -84.942900  -32.925100  -57.004500
  H    -84.387300  -33.224000  -56.136000
  H    -84.232900  -32.269700  -57.478100
  C    -85.296700  -34.086100  -57.974700
  H    -84.369500  -34.629100  -58.277500
  H    -85.891000  -34.900400  -57.578700
  C    -85.947000  -33.509500  -59.251500
  H    -85.975400  -34.236200  -60.014000
  H    -86.909500  -33.040900  -59.181000
  H    -85.302400  -32.736700  -59.703100
  S    -87.429000  -27.649200  -56.863100
  C    -88.116500  -26.280800  -55.965400
  C    -88.201200  -26.696800  -54.644500
  C    -87.923800  -28.090700  -54.367300
  C    -87.606100  -28.777500  -55.518300
  H    -88.331700  -25.978200  -53.855200
  C    -88.099000  -28.645000  -52.946600
  H    -87.036400  -28.492900  -52.506800
  H    -88.299300  -29.753800  -53.055800
  C    -89.159100  -27.960300  -52.023500
  H    -90.099300  -28.010300  -52.549200
  H    -88.951700  -26.950200  -51.831500
  C    -89.168700  -28.722500  -50.617400
  H    -89.369700  -29.778900  -50.681400
  H    -89.877200  -28.197200  -49.954700
  H    -88.138800  -28.540800  -50.194500
  H    -87.589600  -33.613500  -56.476100
  H    -87.992100  -25.271900  -56.273900

 Total Charge           Charge          ....    0
 Multiplicity           Mult            ....    1
 Number of Electrons    NEL             ....  134
 Basis Dimension        Dim             ....  322

ORBITAL ENERGIES
----------------

  NO   OCC          E(Eh)            E(eV)
   0   2.0000     -88.967682     -2420.9337
   1   2.0000     -88.958777     -2420.6914
   2   2.0000     -10.326395      -280.9955
   3   2.0000     -10.321571      -280.8642
   4   2.0000     -10.316505      -280.7264
   5   2.0000     -10.312601      -280.6201
   6   2.0000     -10.304679      -280.4046
   7   2.0000     -10.304601      -280.4024
   8   2.0000     -10.302277      -280.3392
   9   2.0000     -10.297056      -280.1971
  10   2.0000     -10.294791      -280.1355
  11   2.0000     -10.294620      -280.1309
  12   2.0000     -10.289725      -279.9976
  13   2.0000     -10.288862      -279.9742
  14   2.0000     -10.286902      -279.9208
  15   2.0000     -10.271892      -279.5124
  16   2.0000      -8.082544      -219.9372
  17   2.0000      -8.073165      -219.6820
  18   2.0000      -6.040985      -164.3835
  19   2.0000      -6.036982      -164.2746
  20   2.0000      -6.033430      -164.1780
  21   2.0000      -6.031832      -164.1345
  22   2.0000      -6.027711      -164.0224
  23   2.0000      -6.023772      -163.9152
  24   2.0000      -1.010062       -27.4852
  25   2.0000      -0.982645       -26.7391
  26   2.0000      -0.913191       -24.8492
  27   2.0000      -0.898923       -24.4609
  28   2.0000      -0.868260       -23.6266
  29   2.0000      -0.851617       -23.1737
  30   2.0000      -0.841223       -22.8908
  31   2.0000      -0.812414       -22.1069
  32   2.0000      -0.784749       -21.3541
  33   2.0000      -0.766809       -20.8659
  34   2.0000      -0.713564       -19.4171
  35   2.0000      -0.707317       -19.2471
  36   2.0000      -0.697780       -18.9876
  37   2.0000      -0.660355       -17.9692
  38   2.0000      -0.638670       -17.3791
  39   2.0000      -0.609280       -16.5794
  40   2.0000      -0.591483       -16.0951
  41   2.0000      -0.576509       -15.6876
  42   2.0000      -0.565159       -15.3788
  43   2.0000      -0.559190       -15.2163
  44   2.0000      -0.538978       -14.6663
  45   2.0000      -0.526243       -14.3198
  46   2.0000      -0.513875       -13.9833
  47   2.0000      -0.509618       -13.8674
  48   2.0000      -0.501033       -13.6338
  49   2.0000      -0.496044       -13.4980
  50   2.0000      -0.487560       -13.2672
  51   2.0000      -0.474051       -12.8996
  52   2.0000      -0.469074       -12.7641
  53   2.0000      -0.458790       -12.4843
  54   2.0000      -0.456019       -12.4089
  55   2.0000      -0.445264       -12.1162
  56   2.0000      -0.440785       -11.9944
  57   2.0000      -0.440247       -11.9797
  58   2.0000      -0.436725       -11.8839
  59   2.0000      -0.433181       -11.7875
  60   2.0000      -0.428555       -11.6616
  61   2.0000      -0.421791       -11.4775
  62   2.0000      -0.407610       -11.0916
  63   2.0000      -0.342112        -9.3093
  64   2.0000      -0.333787        -9.0828
  65   2.0000      -0.322284        -8.7698
  66   2.0000      -0.295862        -8.0508
  67   0.0000       0.034901         0.9497
  68   0.0000       0.062646         1.7047
  69   0.0000       0.105464         2.8698
  70   0.0000       0.121906         3.3172
  71   0.0000       0.132186         3.5970

MULLIKEN ATOMIC CHARGES
-----------------------
   0 S :    0.126248
   1 C :   -0.127699
   2 C :   -0.099347
   3 C :    0.031854
   4 C :   -0.170154
   5 H :    0.001268
   6 C :    0.116858
   7 H :    0.039250
   8 H :    0.011075
   9 C :   -0.087188
  10 H :    0.033741
  11 H :    0.033701
  12 C :   -0.038610
  13 H :    0.017242
  14 H :    0.043359
  15 H :    0.020009
  16 S :    0.078692
  17 C :   -0.063153
  18 C :   -0.055106
  19 C :   -0.007939
  20 C :   -0.179762
  21 H :    0.015204
  22 C :    0.003637
  23 H :    0.053777
  24 H :    0.037725
  25 C :   -0.063720
  26 H :    0.038538
  27 H :    0.024979
  28 C :   -0.061712
  29 H :    0.045231
  30 H :    0.040206
  31 H :    0.035466
  32 H :    0.047109
  33 H :    0.059221
Sum of atomic charges:    0.0000000

LOEWDIN ATOMIC CHARGES
----------------------
   0 S :    0.425897
   1 C :   -0.198185
   2 C :   -0.059620
   3 C :   -0.065751
   4 C :   -0.209358
   5 H :    0.028916
   6 C :   -0.027514
   7 H :    0.034896
   8 H :    0.029533
   9 C :   -0.039441
  10 H :    0.033653
  11 H :    0.020774
  12 C :   -0.064542
  13 H :    0.018678
  14 H :    0.024958
  15 H :    0.028447
  16 S :    0.387077
  17 C :   -0.180007
  18 C :   -0.066888
  19 C :   -0.065093
  20 C :   -0.193070
  21 H :    0.024997
  22 C :   -0.041789
  23 H :    0.044775
  24 H :    0.030677
  25 C :   -0.033593
  26 H :    0.024266
  27 H :    0.014940
  28 C :   -0.062326
  29 H :    0.023339
  30 H :    0.027369
  31 H :    0.031158
  32 H :    0.026299
  33 H :    0.026529

  Mayer bond orders larger than 0.100000
B(  0-S ,  1-C ) :   1.1568 B(  0-S ,  4-C ) :   1.1461 B(  1-C ,  2-C ) :   1.5930
B(  1-C ,  4-C ) :   0.1013 B(  1-C , 32-H ) :   0.9623 B(  2-C ,  3-C ) :   1.2462
B(  2-C ,  6-C ) :   1.0061 B(  3-C ,  4-C ) :   1.6000 B(  3-C ,  5-H ) :   0.9915
B(  4-C , 20-C ) :   1.0120 B(  6-C ,  7-H ) :   0.9295 B(  6-C ,  8-H ) :   0.9385
B(  6-C ,  9-C ) :   1.0717 B(  9-C , 10-H ) :   0.9531 B(  9-C , 11-H ) :   0.9563
B(  9-C , 12-C ) :   1.0721 B( 12-C , 13-H ) :   0.9737 B( 12-C , 14-H ) :   0.9762
B( 12-C , 15-H ) :   0.9735 B( 16-S , 17-C ) :   1.1349 B( 16-S , 20-C ) :   1.1417
B( 17-C , 18-C ) :   1.6127 B( 17-C , 20-C ) :   0.1006 B( 17-C , 33-H ) :   0.9673
B( 18-C , 19-C ) :   1.2416 B( 18-C , 21-H ) :   0.9809 B( 19-C , 20-C ) :   1.5973
B( 19-C , 22-C ) :   1.0275 B( 22-C , 23-H ) :   0.9272 B( 22-C , 24-H ) :   0.9414
B( 22-C , 25-C ) :   1.0666 B( 25-C , 26-H ) :   0.9610 B( 25-C , 27-H ) :   0.9483
B( 25-C , 28-C ) :   1.0745 B( 28-C , 29-H ) :   0.9793 B( 28-C , 30-H ) :   0.9763
B( 28-C , 31-H ) :   0.9759

Dispersion correction           -0.013947236
FINAL SINGLE POINT ENERGY     -1339.874132474250

DIPOLE MOMENT
-------------
                                X             Y             Z
Electronic contribution:     -4.51881       9.31249      -7.14633
Nuclear contribution   :      4.92898      -9.43660       7.40630
                        -----------------------------------------
Total Dipole Moment    :      0.41017      -0.12412       0.25997
                        -----------------------------------------
Magnitude (a.u.)       :      0.50123
Magnitude (Debye)      :      1.27402

Rotational constants in cm-1:     0.023187     0.007299     0.005998
Rotational constants in MHz :   695.133443   218.827428   179.820908

                             ****ORCA TERMINATED NORMALLY****
TOTAL RUN TIME: 0 days 0 hours 0 minutes 21 seconds 1 msec
