                         Program Version 4.2.1 -  RELEASE  -
|  1> ! wB97X-D3 SP def2-SVP
|  2> %pal
|  3> nprocs 24
|  4> end
|  5>
|  6> * xyz 0 1
|  7> S 	 -53.568 	 -49.1373 	 -79.8007
|  8> C 	 -52.4464 	 -47.8585 	 -79.902
|  9> C 	 -51.8305 	 -47.8161 	 -81.1367
| 10> C 	 -52.2179 	 -48.8547 	 -82.0193
| 11> C 	 -53.2325 	 -49.6073 	 -81.407
| 12> H 	 -51.9718 	 -49.0365 	 -83.0019
| 13> C 	 -50.7083 	 -46.8863 	 -81.4657
| 14> H 	 -50.0619 	 -47.3608 	 -82.1586
| 15> H 	 -49.983 	 -46.7298 	 -80.6236
| 16> C 	 -51.1737 	 -45.4625 	 -81.9799
| 17> H 	 -50.3288 	 -44.904 	 -82.3101
| 18> H 	 -51.8374 	 -45.5579 	 -82.8272
| 19> C 	 -51.8417 	 -44.6398 	 -80.8518
| 20> H 	 -51.4312 	 -44.7565 	 -79.8654
| 21> H 	 -51.9258 	 -43.5649 	 -81.1217
| 22> H 	 -52.8344 	 -44.9673 	 -80.7731
| 23> S 	 -53.6965 	 -52.2603 	 -81.0877
| 24> C 	 -54.6601 	 -53.1824 	 -82.2618
| 25> C 	 -55.0358 	 -52.3689 	 -83.2815
| 26> C 	 -54.5006 	 -51.0286 	 -83.2061
| 27> C 	 -53.8641 	 -50.7778 	 -82.0018
| 28> H 	 -55.6986 	 -52.8016 	 -84.0439
| 29> C 	 -54.9816 	 -49.9189 	 -84.2729
| 30> H 	 -55.3596 	 -50.4598 	 -85.1513
| 31> H 	 -54.1146 	 -49.3405 	 -84.5478
| 32> C 	 -56.1096 	 -48.8896 	 -83.9286
| 33> H 	 -55.9777 	 -48.4135 	 -83.0025
| 34> H 	 -57.0548 	 -49.3342 	 -83.8402
| 35> C 	 -56.1677 	 -47.6672 	 -84.932
| 36> H 	 -56.5579 	 -48.0665 	 -85.8957
| 37> H 	 -55.1721 	 -47.1039 	 -85.0646
| 38> H 	 -56.8043 	 -46.8718 	 -84.4853
| 39> H 	 -52.1496 	 -47.2501 	 -79.0651
| 40> H 	 -54.9057 	 -54.234 	 -82.2225
| 41> *
| 42>
| 43>                          ****END OF INPUT****

CARTESIAN COORDINATES (ANGSTROEM)
---------------------------------
  S    -53.568000  -49.137300  -79.800700
  C    -52.446400  -47.858500  -79.902000
  C    -51.830500  -47.816100  -81.136700
  C    -52.217900  -48.854700  -82.019300
  C    -53.232500  -49.607300  -81.407000
  H    -51.971800  -49.036500  -83.001900
  C    -50.708300  -46.886300  -81.465700
  H    -50.061900  -47.360800  -82.158600
  H    -49.983000  -46.729800  -80.623600
  C    -51.173700  -45.462500  -81.979900
  H    -50.328800  -44.904000  -82.310100
  H    -51.837400  -45.557900  -82.827200
  C    -51.841700  -44.639800  -80.851800
  H    -51.431200  -44.756500  -79.865400
  H    -51.925800  -43.564900  -81.121700
  H    -52.834400  -44.967300  -80.773100
  S    -53.696500  -52.260300  -81.087700
  C    -54.660100  -53.182400  -82.261800
  C    -55.035800  -52.368900  -83.281500
  C    -54.500600  -51.028600  -83.206100
  C    -53.864100  -50.777800  -82.001800
  H    -55.698600  -52.801600  -84.043900
  C    -54.981600  -49.918900  -84.272900
  H    -55.359600  -50.459800  -85.151300
  H    -54.114600  -49.340500  -84.547800
  C    -56.109600  -48.889600  -83.928600
  H    -55.977700  -48.413500  -83.002500
  H    -57.054800  -49.334200  -83.840200
  C    -56.167700  -47.667200  -84.932000
  H    -56.557900  -48.066500  -85.895700
  H    -55.172100  -47.103900  -85.064600
  H    -56.804300  -46.871800  -84.485300
  H    -52.149600  -47.250100  -79.065100
  H    -54.905700  -54.234000  -82.222500

 Total Charge           Charge          ....    0
 Multiplicity           Mult            ....    1
 Number of Electrons    NEL             ....  134
 Basis Dimension        Dim             ....  322

ORBITAL ENERGIES
----------------

  NO   OCC          E(Eh)            E(eV)
   0   2.0000     -88.970942     -2421.0224
   1   2.0000     -88.962083     -2420.7814
   2   2.0000     -10.327880      -281.0359
   3   2.0000     -10.327639      -281.0293
   4   2.0000     -10.315190      -280.6906
   5   2.0000     -10.309969      -280.5485
   6   2.0000     -10.308715      -280.5144
   7   2.0000     -10.298645      -280.2404
   8   2.0000     -10.298549      -280.2378
   9   2.0000     -10.294680      -280.1325
  10   2.0000     -10.291108      -280.0353
  11   2.0000     -10.290443      -280.0172
  12   2.0000     -10.290307      -280.0135
  13   2.0000     -10.286240      -279.9028
  14   2.0000     -10.279583      -279.7217
  15   2.0000     -10.271664      -279.5062
  16   2.0000      -8.087007      -220.0587
  17   2.0000      -8.076724      -219.7788
  18   2.0000      -6.045244      -164.4995
  19   2.0000      -6.041168      -164.3885
  20   2.0000      -6.038146      -164.3063
  21   2.0000      -6.035330      -164.2297
  22   2.0000      -6.031188      -164.1170
  23   2.0000      -6.027419      -164.0144
  24   2.0000      -1.014049       -27.5937
  25   2.0000      -0.985717       -26.8227
  26   2.0000      -0.909169       -24.7397
  27   2.0000      -0.892942       -24.2982
  28   2.0000      -0.870537       -23.6885
  29   2.0000      -0.856123       -23.2963
  30   2.0000      -0.839301       -22.8385
  31   2.0000      -0.814563       -22.1654
  32   2.0000      -0.781346       -21.2615
  33   2.0000      -0.768362       -20.9082
  34   2.0000      -0.709822       -19.3152
  35   2.0000      -0.700691       -19.0668
  36   2.0000      -0.692949       -18.8561
  37   2.0000      -0.663250       -18.0479
  38   2.0000      -0.648387       -17.6435
  39   2.0000      -0.618455       -16.8290
  40   2.0000      -0.588905       -16.0249
  41   2.0000      -0.572506       -15.5787
  42   2.0000      -0.562488       -15.3061
  43   2.0000      -0.544995       -14.8301
  44   2.0000      -0.543315       -14.7844
  45   2.0000      -0.517138       -14.0721
  46   2.0000      -0.515537       -14.0285
  47   2.0000      -0.509799       -13.8723
  48   2.0000      -0.501644       -13.6504
  49   2.0000      -0.495564       -13.4850
  50   2.0000      -0.492065       -13.3898
  51   2.0000      -0.483777       -13.1642
  52   2.0000      -0.474066       -12.9000
  53   2.0000      -0.464842       -12.6490
  54   2.0000      -0.460110       -12.5202
  55   2.0000      -0.450891       -12.2694
  56   2.0000      -0.436100       -11.8669
  57   2.0000      -0.434143       -11.8136
  58   2.0000      -0.431787       -11.7495
  59   2.0000      -0.429033       -11.6746
  60   2.0000      -0.425288       -11.5727
  61   2.0000      -0.418609       -11.3909
  62   2.0000      -0.405988       -11.0475
  63   2.0000      -0.347555        -9.4575
  64   2.0000      -0.334684        -9.1072
  65   2.0000      -0.329429        -8.9642
  66   2.0000      -0.295007        -8.0275
  67   0.0000       0.031153         0.8477
  68   0.0000       0.071902         1.9565
  69   0.0000       0.115543         3.1441
  70   0.0000       0.124376         3.3844
  71   0.0000       0.128170         3.4877

MULLIKEN ATOMIC CHARGES
-----------------------
   0 S :    0.141506
   1 C :   -0.115155
   2 C :   -0.061405
   3 C :    0.069790
   4 C :   -0.168845
   5 H :   -0.013681
   6 C :    0.033890
   7 H :    0.008923
   8 H :    0.031623
   9 C :   -0.042429
  10 H :    0.023325
  11 H :    0.025547
  12 C :   -0.051896
  13 H :    0.024417
  14 H :    0.037955
  15 H :    0.023225
  16 S :    0.091820
  17 C :   -0.091695
  18 C :   -0.048246
  19 C :   -0.020367
  20 C :   -0.157116
  21 H :    0.028595
  22 C :    0.065398
  23 H :    0.021972
  24 H :    0.015797
  25 C :   -0.020301
  26 H :    0.015592
  27 H :    0.017191
  28 C :   -0.118706
  29 H :    0.045273
  30 H :    0.044417
  31 H :    0.043582
  32 H :    0.044135
  33 H :    0.055872
Sum of atomic charges:   -0.0000000

LOEWDIN ATOMIC CHARGES
----------------------
   0 S :    0.455286
   1 C :   -0.213973
   2 C :   -0.062301
   3 C :   -0.044602
   4 C :   -0.208401
   5 H :    0.020782
   6 C :   -0.033884
   7 H :    0.022940
   8 H :    0.034458
   9 C :   -0.028005
  10 H :    0.017746
  11 H :    0.022180
  12 C :   -0.067191
  13 H :    0.019602
  14 H :    0.031551
  15 H :    0.018446
  16 S :    0.389647
  17 C :   -0.180492
  18 C :   -0.075122
  19 C :   -0.062398
  20 C :   -0.193649
  21 H :    0.036509
  22 C :   -0.024603
  23 H :    0.029360
  24 H :    0.023664
  25 C :   -0.034071
  26 H :    0.017608
  27 H :    0.016930
  28 C :   -0.074319
  29 H :    0.025194
  30 H :    0.032039
  31 H :    0.030517
  32 H :    0.026618
  33 H :    0.031933

  Mayer bond orders larger than 0.100000
B(  0-S ,  1-C ) :   1.1498 B(  0-S ,  4-C ) :   1.1939 B(  1-C ,  2-C ) :   1.5805
B(  1-C , 32-H ) :   0.9700 B(  2-C ,  3-C ) :   1.2630 B(  2-C ,  6-C ) :   1.0232
B(  3-C ,  4-C ) :   1.5286 B(  3-C ,  5-H ) :   1.0103 B(  4-C , 20-C ) :   1.0221
B(  6-C ,  7-H ) :   0.9418 B(  6-C ,  8-H ) :   0.9491 B(  6-C ,  9-C ) :   1.0657
B(  9-C , 10-H ) :   0.9609 B(  9-C , 11-H ) :   0.9588 B(  9-C , 12-C ) :   1.0726
B( 12-C , 13-H ) :   0.9763 B( 12-C , 14-H ) :   0.9738 B( 12-C , 15-H ) :   0.9729
B( 16-S , 17-C ) :   1.1288 B( 16-S , 20-C ) :   1.1486 B( 17-C , 18-C ) :   1.6499
B( 17-C , 33-H ) :   0.9670 B( 18-C , 19-C ) :   1.2157 B( 18-C , 21-H ) :   0.9839
B( 19-C , 20-C ) :   1.6143 B( 19-C , 22-C ) :   1.0350 B( 22-C , 23-H ) :   0.9440
B( 22-C , 24-H ) :   0.9401 B( 22-C , 25-C ) :   1.0568 B( 25-C , 26-H ) :   0.9579
B( 25-C , 27-H ) :   0.9577 B( 25-C , 28-C ) :   1.0702 B( 28-C , 29-H ) :   0.9799
B( 28-C , 30-H ) :   0.9746 B( 28-C , 31-H ) :   0.9755

Dispersion correction           -0.014347939
FINAL SINGLE POINT ENERGY     -1339.872374379652

DIPOLE MOMENT
-------------
                                X             Y             Z
Electronic contribution:      0.62077     -24.76408      14.87721
Nuclear contribution   :     -0.62542      25.07175     -15.22967
                        -----------------------------------------
Total Dipole Moment    :     -0.00465       0.30767      -0.35247
                        -----------------------------------------
Magnitude (a.u.)       :      0.46788
Magnitude (Debye)      :      1.18926

Rotational constants in cm-1:     0.018733     0.009009     0.006869
Rotational constants in MHz :   561.593673   270.071143   205.924090

                             ****ORCA TERMINATED NORMALLY****
TOTAL RUN TIME: 0 days 0 hours 0 minutes 21 seconds 448 msec
