                         Program Version 4.2.1 -  RELEASE  -
|  1> ! wB97X-D3 SP def2-SVP
|  2> %pal
|  3> nprocs 24
|  4> end
|  5>
|  6> * xyz 0 1
|  7> S 	 -1.54394 	 -30.2426 	 -114.706
|  8> C 	 -2.66259 	 -30.0961 	 -116.066
|  9> C 	 -4.00482 	 -30.319 	 -115.677
| 10> C 	 -4.10231 	 -30.7452 	 -114.345
| 11> C 	 -2.88569 	 -30.7969 	 -113.7
| 12> H 	 -4.98591 	 -31.1226 	 -113.861
| 13> C 	 -5.19926 	 -30.2505 	 -116.644
| 14> H 	 -6.10662 	 -30.0972 	 -116.097
| 15> H 	 -5.21829 	 -31.2282 	 -117.074
| 16> C 	 -5.04441 	 -29.1589 	 -117.7
| 17> H 	 -4.07718 	 -29.2991 	 -118.146
| 18> H 	 -5.7519 	 -29.4218 	 -118.464
| 19> C 	 -5.29204 	 -27.7721 	 -117.281
| 20> H 	 -4.56851 	 -27.397 	 -116.602
| 21> H 	 -5.44088 	 -27.0882 	 -118.152
| 22> H 	 -6.2979 	 -27.7426 	 -116.868
| 23> S 	 -1.17704 	 -32.2968 	 -112.253
| 24> C 	 -1.52324 	 -32.7175 	 -110.577
| 25> C 	 -2.81537 	 -32.3972 	 -110.313
| 26> C 	 -3.43928 	 -31.5234 	 -111.275
| 27> C 	 -2.66121 	 -31.448 	 -112.433
| 28> H 	 -3.28211 	 -32.753 	 -109.445
| 29> C 	 -4.8218 	 -30.9034 	 -110.978
| 30> H 	 -5.10498 	 -30.1594 	 -111.725
| 31> H 	 -4.84364 	 -30.4516 	 -109.963
| 32> C 	 -5.99523 	 -31.936 	 -110.883
| 33> H 	 -6.0059 	 -32.7831 	 -111.593
| 34> H 	 -6.78341 	 -31.2407 	 -111.087
| 35> C 	 -6.22438 	 -32.435 	 -109.39
| 36> H 	 -6.09893 	 -31.728 	 -108.648
| 37> H 	 -5.57119 	 -33.2716 	 -109.287
| 38> H 	 -7.24573 	 -32.7752 	 -109.264
| 39> H 	 -2.29668 	 -29.6784 	 -117.009
| 40> H 	 -1.09918 	 -33.5619 	 -110.03
| 41> *
| 42>
| 43>                          ****END OF INPUT****

CARTESIAN COORDINATES (ANGSTROEM)
---------------------------------
  S     -1.543940  -30.242600  -114.706000
  C     -2.662590  -30.096100  -116.066000
  C     -4.004820  -30.319000  -115.677000
  C     -4.102310  -30.745200  -114.345000
  C     -2.885690  -30.796900  -113.700000
  H     -4.985910  -31.122600  -113.861000
  C     -5.199260  -30.250500  -116.644000
  H     -6.106620  -30.097200  -116.097000
  H     -5.218290  -31.228200  -117.074000
  C     -5.044410  -29.158900  -117.700000
  H     -4.077180  -29.299100  -118.146000
  H     -5.751900  -29.421800  -118.464000
  C     -5.292040  -27.772100  -117.281000
  H     -4.568510  -27.397000  -116.602000
  H     -5.440880  -27.088200  -118.152000
  H     -6.297900  -27.742600  -116.868000
  S     -1.177040  -32.296800  -112.253000
  C     -1.523240  -32.717500  -110.577000
  C     -2.815370  -32.397200  -110.313000
  C     -3.439280  -31.523400  -111.275000
  C     -2.661210  -31.448000  -112.433000
  H     -3.282110  -32.753000  -109.445000
  C     -4.821800  -30.903400  -110.978000
  H     -5.104980  -30.159400  -111.725000
  H     -4.843640  -30.451600  -109.963000
  C     -5.995230  -31.936000  -110.883000
  H     -6.005900  -32.783100  -111.593000
  H     -6.783410  -31.240700  -111.087000
  C     -6.224380  -32.435000  -109.390000
  H     -6.098930  -31.728000  -108.648000
  H     -5.571190  -33.271600  -109.287000
  H     -7.245730  -32.775200  -109.264000
  H     -2.296680  -29.678400  -117.009000
  H     -1.099180  -33.561900  -110.030000

 Total Charge           Charge          ....    0
 Multiplicity           Mult            ....    1
 Number of Electrons    NEL             ....  134
 Basis Dimension        Dim             ....  322

ORBITAL ENERGIES
----------------

  NO   OCC          E(Eh)            E(eV)
   0   2.0000     -88.969273     -2420.9770
   1   2.0000     -88.961693     -2420.7707
   2   2.0000     -10.328470      -281.0519
   3   2.0000     -10.325135      -280.9612
   4   2.0000     -10.317180      -280.7447
   5   2.0000     -10.309727      -280.5419
   6   2.0000     -10.304319      -280.3948
   7   2.0000     -10.302294      -280.3397
   8   2.0000     -10.298816      -280.2450
   9   2.0000     -10.292431      -280.0713
  10   2.0000     -10.291062      -280.0340
  11   2.0000     -10.289018      -279.9784
  12   2.0000     -10.287302      -279.9317
  13   2.0000     -10.278061      -279.6803
  14   2.0000     -10.275089      -279.5994
  15   2.0000     -10.272974      -279.5418
  16   2.0000      -8.083276      -219.9571
  17   2.0000      -8.076892      -219.7834
  18   2.0000      -6.041745      -164.4042
  19   2.0000      -6.037949      -164.3010
  20   2.0000      -6.035537      -164.2353
  21   2.0000      -6.034068      -164.1953
  22   2.0000      -6.031321      -164.1206
  23   2.0000      -6.027461      -164.0155
  24   2.0000      -1.008498       -27.4426
  25   2.0000      -0.982319       -26.7303
  26   2.0000      -0.919302       -25.0155
  27   2.0000      -0.904739       -24.6192
  28   2.0000      -0.871413       -23.7124
  29   2.0000      -0.856444       -23.3050
  30   2.0000      -0.842201       -22.9174
  31   2.0000      -0.815781       -22.1985
  32   2.0000      -0.786816       -21.4104
  33   2.0000      -0.774467       -21.0743
  34   2.0000      -0.710017       -19.3205
  35   2.0000      -0.702614       -19.1191
  36   2.0000      -0.689409       -18.7598
  37   2.0000      -0.664804       -18.0902
  38   2.0000      -0.637688       -17.3524
  39   2.0000      -0.614753       -16.7283
  40   2.0000      -0.598957       -16.2985
  41   2.0000      -0.581816       -15.8320
  42   2.0000      -0.560823       -15.2608
  43   2.0000      -0.549603       -14.9555
  44   2.0000      -0.543150       -14.7799
  45   2.0000      -0.538651       -14.6574
  46   2.0000      -0.518550       -14.1105
  47   2.0000      -0.509208       -13.8563
  48   2.0000      -0.505894       -13.7661
  49   2.0000      -0.495756       -13.4902
  50   2.0000      -0.492036       -13.3890
  51   2.0000      -0.479240       -13.0408
  52   2.0000      -0.475538       -12.9400
  53   2.0000      -0.472020       -12.8443
  54   2.0000      -0.458330       -12.4718
  55   2.0000      -0.451481       -12.2854
  56   2.0000      -0.448366       -12.2007
  57   2.0000      -0.445381       -12.1194
  58   2.0000      -0.433824       -11.8050
  59   2.0000      -0.422284       -11.4909
  60   2.0000      -0.417496       -11.3606
  61   2.0000      -0.414022       -11.2661
  62   2.0000      -0.411301       -11.1921
  63   2.0000      -0.357900        -9.7390
  64   2.0000      -0.334192        -9.0938
  65   2.0000      -0.325007        -8.8439
  66   2.0000      -0.281825        -7.6689
  67   0.0000       0.021408         0.5825
  68   0.0000       0.078966         2.1488
  69   0.0000       0.101529         2.7627
  70   0.0000       0.116914         3.1814
  71   0.0000       0.134177         3.6512

MULLIKEN ATOMIC CHARGES
-----------------------
   0 S :    0.115230
   1 C :   -0.163459
   2 C :   -0.087941
   3 C :    0.005848
   4 C :   -0.124105
   5 H :    0.005545
   6 C :    0.103073
   7 H :    0.009915
   8 H :    0.040306
   9 C :   -0.072916
  10 H :    0.015064
  11 H :    0.014378
  12 C :   -0.011457
  13 H :    0.039335
  14 H :    0.034210
  15 H :    0.014081
  16 S :    0.089851
  17 C :   -0.074972
  18 C :   -0.042084
  19 C :   -0.037978
  20 C :   -0.135041
  21 H :   -0.001788
  22 C :    0.042195
  23 H :    0.030892
  24 H :    0.034462
  25 C :   -0.101444
  26 H :    0.050222
  27 H :    0.025618
  28 C :   -0.025079
  29 H :    0.016323
  30 H :    0.034132
  31 H :    0.029295
  32 H :    0.062079
  33 H :    0.066211
Sum of atomic charges:    0.0000000

LOEWDIN ATOMIC CHARGES
----------------------
   0 S :    0.396482
   1 C :   -0.204758
   2 C :   -0.055976
   3 C :   -0.063935
   4 C :   -0.180924
   5 H :    0.031293
   6 C :   -0.019882
   7 H :    0.023143
   8 H :    0.035917
   9 C :   -0.043241
  10 H :    0.017657
  11 H :    0.023955
  12 C :   -0.061215
  13 H :    0.022502
  14 H :    0.034413
  15 H :    0.025793
  16 S :    0.406128
  17 C :   -0.198490
  18 C :   -0.057181
  19 C :   -0.064472
  20 C :   -0.198905
  21 H :    0.019686
  22 C :   -0.030550
  23 H :    0.026845
  24 H :    0.037706
  25 C :   -0.037117
  26 H :    0.027676
  27 H :    0.021912
  28 C :   -0.057589
  29 H :    0.013030
  30 H :    0.020972
  31 H :    0.027853
  32 H :    0.024943
  33 H :    0.036331

  Mayer bond orders larger than 0.100000
B(  0-S ,  1-C ) :   1.1337 B(  0-S ,  4-C ) :   1.1519 B(  1-C ,  2-C ) :   1.5744
B(  1-C ,  4-C ) :   0.1012 B(  1-C , 32-H ) :   0.9657 B(  2-C ,  3-C ) :   1.2682
B(  2-C ,  6-C ) :   1.0016 B(  3-C ,  4-C ) :   1.5488 B(  3-C ,  5-H ) :   0.9950
B(  4-C , 20-C ) :   1.0680 B(  6-C ,  7-H ) :   0.9429 B(  6-C ,  8-H ) :   0.9325
B(  6-C ,  9-C ) :   1.0892 B(  9-C , 10-H ) :   0.9487 B(  9-C , 11-H ) :   0.9472
B(  9-C , 12-C ) :   1.0924 B( 12-C , 13-H ) :   0.9745 B( 12-C , 14-H ) :   0.9693
B( 12-C , 15-H ) :   0.9653 B( 16-S , 17-C ) :   1.1252 B( 16-S , 20-C ) :   1.1498
B( 17-C , 18-C ) :   1.6489 B( 17-C , 33-H ) :   0.9562 B( 18-C , 19-C ) :   1.2289
B( 18-C , 21-H ) :   0.9864 B( 19-C , 20-C ) :   1.5807 B( 19-C , 22-C ) :   1.0522
B( 22-C , 23-H ) :   0.9448 B( 22-C , 24-H ) :   0.9330 B( 22-C , 25-C ) :   1.0449
B( 25-C , 26-H ) :   0.9614 B( 25-C , 27-H ) :   0.9624 B( 25-C , 28-C ) :   1.0744
B( 28-C , 29-H ) :   0.9762 B( 28-C , 30-H ) :   0.9779 B( 28-C , 31-H ) :   0.9724

Dispersion correction           -0.014052813
FINAL SINGLE POINT ENERGY     -1339.865994268680

DIPOLE MOMENT
-------------
                                X             Y             Z
Electronic contribution:     26.42059      -5.45615       1.70972
Nuclear contribution   :    -27.33061       5.36340      -1.76662
                        -----------------------------------------
Total Dipole Moment    :     -0.91002      -0.09276      -0.05690
                        -----------------------------------------
Magnitude (a.u.)       :      0.91650
Magnitude (Debye)      :      2.32956

Rotational constants in cm-1:     0.020592     0.008159     0.006138
Rotational constants in MHz :   617.345582   244.600850   184.018631

                             ****ORCA TERMINATED NORMALLY****
TOTAL RUN TIME: 0 days 0 hours 0 minutes 20 seconds 329 msec
