                         Program Version 4.2.1 -  RELEASE  -
|  1> ! wB97X-D3 SP def2-SVP
|  2> %pal
|  3> nprocs 24
|  4> end
|  5>
|  6> * xyz 0 1
|  7> S 	 -103.631 	 40.8434 	 -95.0738
|  8> C 	 -102.333 	 39.6784 	 -94.7759
|  9> C 	 -101.378 	 40.1937 	 -93.9059
| 10> C 	 -101.74 	 41.4785 	 -93.3469
| 11> C 	 -102.886 	 42.0114 	 -93.9288
| 12> H 	 -101.165 	 42.0786 	 -92.5945
| 13> C 	 -100.199 	 39.4278 	 -93.2669
| 14> H 	 -99.3527 	 40.1635 	 -93.0815
| 15> H 	 -99.8834 	 38.7129 	 -94.0189
| 16> C 	 -100.621 	 38.5736 	 -92.0468
| 17> H 	 -101.106 	 39.0343 	 -91.2154
| 18> H 	 -101.312 	 37.8498 	 -92.4532
| 19> C 	 -99.4036 	 37.7855 	 -91.486
| 20> H 	 -98.974 	 37.1816 	 -92.224
| 21> H 	 -98.608 	 38.4519 	 -90.9835
| 22> H 	 -99.8379 	 37.1963 	 -90.6206
| 23> S 	 -104.229 	 43.3404 	 -91.7532
| 24> C 	 -104.9 	 44.9158 	 -92.0364
| 25> C 	 -104.836 	 45.234 	 -93.3853
| 26> C 	 -104.199 	 44.2154 	 -94.1492
| 27> C 	 -103.688 	 43.1463 	 -93.4043
| 28> H 	 -105.263 	 46.238 	 -93.7126
| 29> C 	 -104.129 	 44.3473 	 -95.67
| 30> H 	 -104.838 	 45.1717 	 -95.8212
| 31> H 	 -104.643 	 43.517 	 -96.0843
| 32> C 	 -102.77 	 44.6087 	 -96.3618
| 33> H 	 -102.186 	 43.6485 	 -96.2741
| 34> H 	 -102.202 	 45.3926 	 -95.8819
| 35> C 	 -102.914 	 45.1583 	 -97.783
| 36> H 	 -103.701 	 44.648 	 -98.3414
| 37> H 	 -102.035 	 45.0463 	 -98.3921
| 38> H 	 -102.996 	 46.1949 	 -97.6716
| 39> H 	 -102.258 	 38.673 	 -95.1835
| 40> H 	 -105.279 	 45.6023 	 -91.2467
| 41> *
| 42>
| 43>                          ****END OF INPUT****

CARTESIAN COORDINATES (ANGSTROEM)
---------------------------------
  S    -103.631000   40.843400  -95.073800
  C    -102.333000   39.678400  -94.775900
  C    -101.378000   40.193700  -93.905900
  C    -101.740000   41.478500  -93.346900
  C    -102.886000   42.011400  -93.928800
  H    -101.165000   42.078600  -92.594500
  C    -100.199000   39.427800  -93.266900
  H    -99.352700   40.163500  -93.081500
  H    -99.883400   38.712900  -94.018900
  C    -100.621000   38.573600  -92.046800
  H    -101.106000   39.034300  -91.215400
  H    -101.312000   37.849800  -92.453200
  C    -99.403600   37.785500  -91.486000
  H    -98.974000   37.181600  -92.224000
  H    -98.608000   38.451900  -90.983500
  H    -99.837900   37.196300  -90.620600
  S    -104.229000   43.340400  -91.753200
  C    -104.900000   44.915800  -92.036400
  C    -104.836000   45.234000  -93.385300
  C    -104.199000   44.215400  -94.149200
  C    -103.688000   43.146300  -93.404300
  H    -105.263000   46.238000  -93.712600
  C    -104.129000   44.347300  -95.670000
  H    -104.838000   45.171700  -95.821200
  H    -104.643000   43.517000  -96.084300
  C    -102.770000   44.608700  -96.361800
  H    -102.186000   43.648500  -96.274100
  H    -102.202000   45.392600  -95.881900
  C    -102.914000   45.158300  -97.783000
  H    -103.701000   44.648000  -98.341400
  H    -102.035000   45.046300  -98.392100
  H    -102.996000   46.194900  -97.671600
  H    -102.258000   38.673000  -95.183500
  H    -105.279000   45.602300  -91.246700

 Total Charge           Charge          ....    0
 Multiplicity           Mult            ....    1
 Number of Electrons    NEL             ....  134
 Basis Dimension        Dim             ....  322

ORBITAL ENERGIES
----------------

  NO   OCC          E(Eh)            E(eV)
   0   2.0000     -88.969285     -2420.9773
   1   2.0000     -88.967370     -2420.9252
   2   2.0000     -10.336220      -281.2628
   3   2.0000     -10.326274      -280.9922
   4   2.0000     -10.320767      -280.8423
   5   2.0000     -10.319284      -280.8020
   6   2.0000     -10.305840      -280.4362
   7   2.0000     -10.302986      -280.3585
   8   2.0000     -10.300667      -280.2954
   9   2.0000     -10.300041      -280.2784
  10   2.0000     -10.298169      -280.2274
  11   2.0000     -10.286775      -279.9174
  12   2.0000     -10.285034      -279.8700
  13   2.0000     -10.284372      -279.8520
  14   2.0000     -10.282430      -279.7992
  15   2.0000     -10.267373      -279.3894
  16   2.0000      -8.082520      -219.9365
  17   2.0000      -8.081841      -219.9181
  18   2.0000      -6.041233      -164.3903
  19   2.0000      -6.040322      -164.3655
  20   2.0000      -6.037241      -164.2817
  21   2.0000      -6.036239      -164.2544
  22   2.0000      -6.033150      -164.1704
  23   2.0000      -6.032794      -164.1607
  24   2.0000      -1.000790       -27.2329
  25   2.0000      -0.979284       -26.6477
  26   2.0000      -0.907089       -24.6831
  27   2.0000      -0.901874       -24.5412
  28   2.0000      -0.864035       -23.5116
  29   2.0000      -0.850423       -23.1412
  30   2.0000      -0.843934       -22.9646
  31   2.0000      -0.811882       -22.0924
  32   2.0000      -0.778194       -21.1757
  33   2.0000      -0.766090       -20.8464
  34   2.0000      -0.704278       -19.1644
  35   2.0000      -0.699377       -19.0310
  36   2.0000      -0.687096       -18.6968
  37   2.0000      -0.657541       -17.8926
  38   2.0000      -0.633813       -17.2469
  39   2.0000      -0.614714       -16.7272
  40   2.0000      -0.590707       -16.0740
  41   2.0000      -0.564964       -15.3735
  42   2.0000      -0.563905       -15.3446
  43   2.0000      -0.558074       -15.1860
  44   2.0000      -0.525664       -14.3040
  45   2.0000      -0.522266       -14.2116
  46   2.0000      -0.511272       -13.9124
  47   2.0000      -0.507629       -13.8133
  48   2.0000      -0.501351       -13.6425
  49   2.0000      -0.499842       -13.6014
  50   2.0000      -0.481529       -13.1031
  51   2.0000      -0.480817       -13.0837
  52   2.0000      -0.470689       -12.8081
  53   2.0000      -0.464615       -12.6428
  54   2.0000      -0.458378       -12.4731
  55   2.0000      -0.446426       -12.1479
  56   2.0000      -0.443462       -12.0672
  57   2.0000      -0.440870       -11.9967
  58   2.0000      -0.429478       -11.6867
  59   2.0000      -0.424114       -11.5407
  60   2.0000      -0.414619       -11.2823
  61   2.0000      -0.412705       -11.2303
  62   2.0000      -0.407333       -11.0841
  63   2.0000      -0.340029        -9.2527
  64   2.0000      -0.333988        -9.0883
  65   2.0000      -0.328830        -8.9479
  66   2.0000      -0.294988        -8.0270
  67   0.0000       0.028471         0.7747
  68   0.0000       0.063016         1.7147
  69   0.0000       0.108053         2.9403
  70   0.0000       0.112507         3.0615
  71   0.0000       0.129081         3.5125

MULLIKEN ATOMIC CHARGES
-----------------------
   0 S :    0.100523
   1 C :   -0.125518
   2 C :   -0.083481
   3 C :   -0.004217
   4 C :   -0.151814
   5 H :    0.043057
   6 C :    0.036925
   7 H :    0.043169
   8 H :    0.018453
   9 C :   -0.053860
  10 H :    0.031490
  11 H :    0.022101
  12 C :   -0.072391
  13 H :    0.028327
  14 H :    0.043675
  15 H :    0.042583
  16 S :    0.121467
  17 C :   -0.127033
  18 C :   -0.053760
  19 C :   -0.070482
  20 C :   -0.127253
  21 H :    0.047586
  22 C :    0.082300
  23 H :    0.002797
  24 H :    0.019777
  25 C :   -0.067875
  26 H :    0.049145
  27 H :    0.022575
  28 C :   -0.023044
  29 H :    0.032703
  30 H :    0.022487
  31 H :    0.021613
  32 H :    0.053238
  33 H :    0.074736
Sum of atomic charges:    0.0000000

LOEWDIN ATOMIC CHARGES
----------------------
   0 S :    0.383729
   1 C :   -0.193168
   2 C :   -0.065495
   3 C :   -0.059831
   4 C :   -0.176624
   5 H :    0.044148
   6 C :   -0.033659
   7 H :    0.035617
   8 H :    0.027642
   9 C :   -0.035263
  10 H :    0.021262
  11 H :    0.024803
  12 C :   -0.067801
  13 H :    0.012935
  14 H :    0.032380
  15 H :    0.033871
  16 S :    0.419527
  17 C :   -0.201258
  18 C :   -0.086775
  19 C :   -0.057627
  20 C :   -0.214197
  21 H :    0.045430
  22 C :   -0.034961
  23 H :    0.028398
  24 H :    0.021975
  25 C :   -0.039254
  26 H :    0.029037
  27 H :    0.023076
  28 C :   -0.061211
  29 H :    0.025148
  30 H :    0.025945
  31 H :    0.019900
  32 H :    0.031526
  33 H :    0.040774

  Mayer bond orders larger than 0.100000
B(  0-S ,  1-C ) :   1.1301 B(  0-S ,  4-C ) :   1.1307 B(  1-C ,  2-C ) :   1.6267
B(  1-C , 32-H ) :   0.9657 B(  2-C ,  3-C ) :   1.2108 B(  2-C ,  6-C ) :   1.0339
B(  3-C ,  4-C ) :   1.6000 B(  3-C ,  5-H ) :   0.9890 B(  4-C , 20-C ) :   1.0428
B(  6-C ,  7-H ) :   0.9469 B(  6-C ,  8-H ) :   0.9384 B(  6-C ,  9-C ) :   1.0544
B(  9-C , 10-H ) :   0.9635 B(  9-C , 11-H ) :   0.9518 B(  9-C , 12-C ) :   1.0795
B( 12-C , 13-H ) :   0.9767 B( 12-C , 14-H ) :   0.9761 B( 12-C , 15-H ) :   0.9754
B( 16-S , 17-C ) :   1.1782 B( 16-S , 20-C ) :   1.1360 B( 17-C , 18-C ) :   1.5812
B( 17-C , 33-H ) :   0.9600 B( 18-C , 19-C ) :   1.2877 B( 18-C , 21-H ) :   0.9774
B( 19-C , 20-C ) :   1.5478 B( 19-C , 22-C ) :   1.0311 B( 22-C , 23-H ) :   0.9362
B( 22-C , 24-H ) :   0.9249 B( 22-C , 25-C ) :   1.0550 B( 25-C , 26-H ) :   0.9527
B( 25-C , 27-H ) :   0.9638 B( 25-C , 28-C ) :   1.0775 B( 28-C , 29-H ) :   0.9756
B( 28-C , 30-H ) :   0.9716 B( 28-C , 31-H ) :   0.9786

Dispersion correction           -0.014118216
FINAL SINGLE POINT ENERGY     -1339.873030949688

DIPOLE MOMENT
-------------
                                X             Y             Z
Electronic contribution:    -14.91411       3.67710       6.28788
Nuclear contribution   :     15.19662      -3.68454      -6.23530
                        -----------------------------------------
Total Dipole Moment    :      0.28251      -0.00744       0.05257
                        -----------------------------------------
Magnitude (a.u.)       :      0.28746
Magnitude (Debye)      :      0.73066

Rotational constants in cm-1:     0.019905     0.007832     0.006300
Rotational constants in MHz :   596.745031   234.799637   188.869786

                             ****ORCA TERMINATED NORMALLY****
TOTAL RUN TIME: 0 days 0 hours 0 minutes 19 seconds 822 msec
