                         Program Version 4.2.1 -  RELEASE  -
|  1> ! wB97X-D3 SP def2-SVP
|  2> %pal
|  3> nprocs 24
|  4> end
|  5>
|  6> * xyz 0 1
|  7> S 	 -100.745 	 26.3574 	 -118.877
|  8> C 	 -102.274 	 26.1936 	 -118.02
|  9> C 	 -103.044 	 27.3042 	 -118.249
| 10> C 	 -102.448 	 28.2905 	 -119.101
| 11> C 	 -101.191 	 27.8687 	 -119.557
| 12> H 	 -102.884 	 29.2217 	 -119.454
| 13> C 	 -104.353 	 27.6003 	 -117.596
| 14> H 	 -104.523 	 27.0043 	 -116.744
| 15> H 	 -105.097 	 27.4296 	 -118.38
| 16> C 	 -104.351 	 29.0313 	 -117.074
| 17> H 	 -103.63 	 29.0738 	 -116.292
| 18> H 	 -104.153 	 29.6901 	 -117.816
| 19> C 	 -105.582 	 29.4308 	 -116.242
| 20> H 	 -105.688 	 28.8536 	 -115.32
| 21> H 	 -105.625 	 30.4897 	 -116.079
| 22> H 	 -106.52 	 29.2635 	 -116.81
| 23> S 	 -98.6776 	 28.9121 	 -120.037
| 24> C 	 -98.3301 	 29.6347 	 -121.607
| 25> C 	 -99.4077 	 29.5977 	 -122.506
| 26> C 	 -100.626 	 29.085 	 -121.851
| 27> C 	 -100.362 	 28.6608 	 -120.486
| 28> H 	 -99.2999 	 29.8309 	 -123.579
| 29> C 	 -101.814 	 28.6557 	 -122.737
| 30> H 	 -101.864 	 29.2635 	 -123.667
| 31> H 	 -102.629 	 28.9782 	 -122.155
| 32> C 	 -101.886 	 27.1309 	 -123.155
| 33> H 	 -101.694 	 26.3972 	 -122.285
| 34> H 	 -101.134 	 26.9058 	 -123.871
| 35> C 	 -103.168 	 26.735 	 -123.965
| 36> H 	 -103.361 	 27.4561 	 -124.76
| 37> H 	 -104.081 	 26.7195 	 -123.261
| 38> H 	 -103.035 	 25.7111 	 -124.403
| 39> H 	 -102.492 	 25.4535 	 -117.287
| 40> H 	 -97.4344 	 30.0478 	 -121.895
| 41> *
| 42>
| 43>                          ****END OF INPUT****

CARTESIAN COORDINATES (ANGSTROEM)
---------------------------------
  S    -100.745000   26.357400  -118.877000
  C    -102.274000   26.193600  -118.020000
  C    -103.044000   27.304200  -118.249000
  C    -102.448000   28.290500  -119.101000
  C    -101.191000   27.868700  -119.557000
  H    -102.884000   29.221700  -119.454000
  C    -104.353000   27.600300  -117.596000
  H    -104.523000   27.004300  -116.744000
  H    -105.097000   27.429600  -118.380000
  C    -104.351000   29.031300  -117.074000
  H    -103.630000   29.073800  -116.292000
  H    -104.153000   29.690100  -117.816000
  C    -105.582000   29.430800  -116.242000
  H    -105.688000   28.853600  -115.320000
  H    -105.625000   30.489700  -116.079000
  H    -106.520000   29.263500  -116.810000
  S    -98.677600   28.912100  -120.037000
  C    -98.330100   29.634700  -121.607000
  C    -99.407700   29.597700  -122.506000
  C    -100.626000   29.085000  -121.851000
  C    -100.362000   28.660800  -120.486000
  H    -99.299900   29.830900  -123.579000
  C    -101.814000   28.655700  -122.737000
  H    -101.864000   29.263500  -123.667000
  H    -102.629000   28.978200  -122.155000
  C    -101.886000   27.130900  -123.155000
  H    -101.694000   26.397200  -122.285000
  H    -101.134000   26.905800  -123.871000
  C    -103.168000   26.735000  -123.965000
  H    -103.361000   27.456100  -124.760000
  H    -104.081000   26.719500  -123.261000
  H    -103.035000   25.711100  -124.403000
  H    -102.492000   25.453500  -117.287000
  H    -97.434400   30.047800  -121.895000

 Total Charge           Charge          ....    0
 Multiplicity           Mult            ....    1
 Number of Electrons    NEL             ....  134
 Basis Dimension        Dim             ....  322

ORBITAL ENERGIES
----------------

  NO   OCC          E(Eh)            E(eV)
   0   2.0000     -88.971745     -2421.0443
   1   2.0000     -88.967575     -2420.9308
   2   2.0000     -10.336758      -281.2775
   3   2.0000     -10.331253      -281.1277
   4   2.0000     -10.316678      -280.7311
   5   2.0000     -10.316476      -280.7256
   6   2.0000     -10.309875      -280.5460
   7   2.0000     -10.303121      -280.3622
   8   2.0000     -10.297560      -280.2108
   9   2.0000     -10.295944      -280.1669
  10   2.0000     -10.293364      -280.0967
  11   2.0000     -10.292048      -280.0609
  12   2.0000     -10.287829      -279.9461
  13   2.0000     -10.284417      -279.8532
  14   2.0000     -10.276508      -279.6380
  15   2.0000     -10.273754      -279.5630
  16   2.0000      -8.085671      -220.0223
  17   2.0000      -8.082434      -219.9342
  18   2.0000      -6.044144      -164.4695
  19   2.0000      -6.040994      -164.3838
  20   2.0000      -6.040290      -164.3646
  21   2.0000      -6.036791      -164.2694
  22   2.0000      -6.036528      -164.2623
  23   2.0000      -6.033259      -164.1733
  24   2.0000      -1.003780       -27.3142
  25   2.0000      -0.976674       -26.5766
  26   2.0000      -0.919504       -25.0210
  27   2.0000      -0.895218       -24.3601
  28   2.0000      -0.867427       -23.6039
  29   2.0000      -0.847533       -23.0625
  30   2.0000      -0.843088       -22.9416
  31   2.0000      -0.813059       -22.1245
  32   2.0000      -0.780871       -21.2486
  33   2.0000      -0.767026       -20.8718
  34   2.0000      -0.711330       -19.3563
  35   2.0000      -0.696871       -18.9628
  36   2.0000      -0.689591       -18.7647
  37   2.0000      -0.658339       -17.9143
  38   2.0000      -0.641023       -17.4431
  39   2.0000      -0.623939       -16.9783
  40   2.0000      -0.588022       -16.0009
  41   2.0000      -0.577163       -15.7054
  42   2.0000      -0.565240       -15.3810
  43   2.0000      -0.554325       -15.0840
  44   2.0000      -0.524513       -14.2727
  45   2.0000      -0.520792       -14.1715
  46   2.0000      -0.514164       -13.9911
  47   2.0000      -0.509997       -13.8777
  48   2.0000      -0.504487       -13.7278
  49   2.0000      -0.500442       -13.6177
  50   2.0000      -0.494731       -13.4623
  51   2.0000      -0.483384       -13.1535
  52   2.0000      -0.472029       -12.8446
  53   2.0000      -0.461037       -12.5454
  54   2.0000      -0.458851       -12.4860
  55   2.0000      -0.449360       -12.2277
  56   2.0000      -0.441962       -12.0264
  57   2.0000      -0.437323       -11.9002
  58   2.0000      -0.434170       -11.8144
  59   2.0000      -0.426420       -11.6035
  60   2.0000      -0.419119       -11.4048
  61   2.0000      -0.410605       -11.1731
  62   2.0000      -0.408470       -11.1150
  63   2.0000      -0.342811        -9.3284
  64   2.0000      -0.331079        -9.0091
  65   2.0000      -0.329291        -8.9605
  66   2.0000      -0.291015        -7.9189
  67   0.0000       0.026366         0.7174
  68   0.0000       0.068888         1.8745
  69   0.0000       0.106605         2.9009
  70   0.0000       0.121578         3.3083
  71   0.0000       0.130346         3.5469

MULLIKEN ATOMIC CHARGES
-----------------------
   0 S :    0.113871
   1 C :   -0.120724
   2 C :   -0.091638
   3 C :    0.010687
   4 C :   -0.139162
   5 H :    0.024779
   6 C :    0.123203
   7 H :   -0.000334
   8 H :    0.039511
   9 C :   -0.074800
  10 H :    0.028245
  11 H :    0.010868
  12 C :   -0.040799
  13 H :    0.034678
  14 H :    0.029701
  15 H :    0.014893
  16 S :    0.117259
  17 C :   -0.062032
  18 C :   -0.048165
  19 C :   -0.049731
  20 C :   -0.175913
  21 H :    0.040398
  22 C :    0.086690
  23 H :    0.022528
  24 H :    0.008735
  25 C :   -0.074068
  26 H :    0.053637
  27 H :    0.021092
  28 C :   -0.095147
  29 H :    0.033669
  30 H :    0.044871
  31 H :    0.049173
  32 H :    0.037665
  33 H :    0.026362
Sum of atomic charges:   -0.0000000

LOEWDIN ATOMIC CHARGES
----------------------
   0 S :    0.415360
   1 C :   -0.201441
   2 C :   -0.058076
   3 C :   -0.066975
   4 C :   -0.204592
   5 H :    0.032501
   6 C :   -0.021983
   7 H :    0.021657
   8 H :    0.035086
   9 C :   -0.028629
  10 H :    0.028393
  11 H :    0.005974
  12 C :   -0.064371
  13 H :    0.025210
  14 H :    0.025066
  15 H :    0.021629
  16 S :    0.408054
  17 C :   -0.173285
  18 C :   -0.068113
  19 C :   -0.048672
  20 C :   -0.199729
  21 H :    0.038815
  22 C :   -0.032848
  23 H :    0.032964
  24 H :    0.021190
  25 C :   -0.042430
  26 H :    0.035640
  27 H :    0.017940
  28 C :   -0.074014
  29 H :    0.021146
  30 H :    0.030177
  31 H :    0.032628
  32 H :    0.025113
  33 H :    0.010613

  Mayer bond orders larger than 0.100000
B(  0-S ,  1-C ) :   1.1145 B(  0-S ,  4-C ) :   1.1721 B(  1-C ,  2-C ) :   1.6180
B(  1-C , 32-H ) :   0.9751 B(  2-C ,  3-C ) :   1.2321 B(  2-C ,  6-C ) :   1.0278
B(  3-C ,  4-C ) :   1.5537 B(  3-C ,  5-H ) :   0.9913 B(  4-C , 20-C ) :   1.0414
B(  6-C ,  7-H ) :   0.9433 B(  6-C ,  8-H ) :   0.9247 B(  6-C ,  9-C ) :   1.0742
B(  9-C , 10-H ) :   0.9579 B(  9-C , 11-H ) :   0.9532 B(  9-C , 12-C ) :   1.0913
B( 12-C , 13-H ) :   0.9753 B( 12-C , 14-H ) :   0.9726 B( 12-C , 15-H ) :   0.9719
B( 16-S , 17-C ) :   1.1540 B( 16-S , 20-C ) :   1.1498 B( 17-C , 18-C ) :   1.6108
B( 17-C , 33-H ) :   0.9751 B( 18-C , 19-C ) :   1.2488 B( 18-C , 21-H ) :   0.9806
B( 19-C , 20-C ) :   1.5540 B( 19-C , 22-C ) :   1.0465 B( 22-C , 23-H ) :   0.9378
B( 22-C , 24-H ) :   0.9310 B( 22-C , 25-C ) :   1.0435 B( 25-C , 26-H ) :   0.9576
B( 25-C , 27-H ) :   0.9586 B( 25-C , 28-C ) :   1.0699 B( 28-C , 29-H ) :   0.9747
B( 28-C , 30-H ) :   0.9783 B( 28-C , 31-H ) :   0.9756

Dispersion correction           -0.014121605
FINAL SINGLE POINT ENERGY     -1339.860495482228

DIPOLE MOMENT
-------------
                                X             Y             Z
Electronic contribution:     25.58487      -2.17963       3.95121
Nuclear contribution   :    -25.98329       2.29540      -4.17130
                        -----------------------------------------
Total Dipole Moment    :     -0.39843       0.11578      -0.22009
                        -----------------------------------------
Magnitude (a.u.)       :      0.46967
Magnitude (Debye)      :      1.19380

Rotational constants in cm-1:     0.017321     0.008342     0.007230
Rotational constants in MHz :   519.258699   250.096893   216.761719

                             ****ORCA TERMINATED NORMALLY****
TOTAL RUN TIME: 0 days 0 hours 0 minutes 21 seconds 330 msec
