                         Program Version 4.2.1 -  RELEASE  -
|  1> ! wB97X-D3 SP def2-SVP
|  2> %pal
|  3> nprocs 24
|  4> end
|  5>
|  6> * xyz 0 1
|  7> S 	 -144.656 	 7.38007 	 1.80598
|  8> C 	 -143.176 	 7.65585 	 0.878129
|  9> C 	 -142.052 	 7.41898 	 1.63492
| 10> C 	 -142.392 	 7.06748 	 2.99949
| 11> C 	 -143.745 	 6.97787 	 3.24651
| 12> H 	 -141.684 	 6.77452 	 3.74959
| 13> C 	 -140.645 	 7.58754 	 1.20969
| 14> H 	 -139.926 	 7.1848 	 1.93739
| 15> H 	 -140.491 	 8.65581 	 1.12183
| 16> C 	 -140.189 	 6.83727 	 -0.0741825
| 17> H 	 -140.413 	 5.76053 	 0.00863326
| 18> H 	 -140.766 	 7.37007 	 -0.851707
| 19> C 	 -138.704 	 6.76028 	 -0.371603
| 20> H 	 -138.103 	 6.73231 	 0.530618
| 21> H 	 -138.475 	 5.87538 	 -1.01552
| 22> H 	 -138.31 	 7.67228 	 -0.885435
| 23> S 	 -145.518 	 5.21904 	 4.42322
| 24> C 	 -145.657 	 5.24523 	 6.18645
| 25> C 	 -144.848 	 6.18079 	 6.77717
| 26> C 	 -143.991 	 6.87581 	 5.85459
| 27> C 	 -144.337 	 6.53844 	 4.48867
| 28> H 	 -144.859 	 6.25556 	 7.88882
| 29> C 	 -142.97 	 7.84854 	 6.34734
| 30> H 	 -143.451 	 8.34617 	 7.19467
| 31> H 	 -142.834 	 8.55416 	 5.52132
| 32> C 	 -141.658 	 7.12868 	 6.78692
| 33> H 	 -141.36 	 6.26241 	 6.19354
| 34> H 	 -141.802 	 6.72142 	 7.72258
| 35> C 	 -140.369 	 7.96072 	 6.81622
| 36> H 	 -140.096 	 8.31529 	 5.75984
| 37> H 	 -139.591 	 7.50918 	 7.42347
| 38> H 	 -140.658 	 8.86936 	 7.34477
| 39> H 	 -143.08 	 8.01054 	 -0.190335
| 40> H 	 -146.354 	 4.61487 	 6.67951
| 41> *
| 42>
| 43>                          ****END OF INPUT****

CARTESIAN COORDINATES (ANGSTROEM)
---------------------------------
  S    -144.656000    7.380070    1.805980
  C    -143.176000    7.655850    0.878129
  C    -142.052000    7.418980    1.634920
  C    -142.392000    7.067480    2.999490
  C    -143.745000    6.977870    3.246510
  H    -141.684000    6.774520    3.749590
  C    -140.645000    7.587540    1.209690
  H    -139.926000    7.184800    1.937390
  H    -140.491000    8.655810    1.121830
  C    -140.189000    6.837270   -0.074182
  H    -140.413000    5.760530    0.008633
  H    -140.766000    7.370070   -0.851707
  C    -138.704000    6.760280   -0.371603
  H    -138.103000    6.732310    0.530618
  H    -138.475000    5.875380   -1.015520
  H    -138.310000    7.672280   -0.885435
  S    -145.518000    5.219040    4.423220
  C    -145.657000    5.245230    6.186450
  C    -144.848000    6.180790    6.777170
  C    -143.991000    6.875810    5.854590
  C    -144.337000    6.538440    4.488670
  H    -144.859000    6.255560    7.888820
  C    -142.970000    7.848540    6.347340
  H    -143.451000    8.346170    7.194670
  H    -142.834000    8.554160    5.521320
  C    -141.658000    7.128680    6.786920
  H    -141.360000    6.262410    6.193540
  H    -141.802000    6.721420    7.722580
  C    -140.369000    7.960720    6.816220
  H    -140.096000    8.315290    5.759840
  H    -139.591000    7.509180    7.423470
  H    -140.658000    8.869360    7.344770
  H    -143.080000    8.010540   -0.190335
  H    -146.354000    4.614870    6.679510

 Total Charge           Charge          ....    0
 Multiplicity           Mult            ....    1
 Number of Electrons    NEL             ....  134
 Basis Dimension        Dim             ....  322

ORBITAL ENERGIES
----------------

  NO   OCC          E(Eh)            E(eV)
   0   2.0000     -88.967605     -2420.9316
   1   2.0000     -88.966286     -2420.8957
   2   2.0000     -10.332156      -281.1522
   3   2.0000     -10.327824      -281.0344
   4   2.0000     -10.318001      -280.7671
   5   2.0000     -10.315625      -280.7024
   6   2.0000     -10.310266      -280.5566
   7   2.0000     -10.300120      -280.2805
   8   2.0000     -10.297671      -280.2139
   9   2.0000     -10.296084      -280.1707
  10   2.0000     -10.291835      -280.0551
  11   2.0000     -10.291101      -280.0351
  12   2.0000     -10.289921      -280.0030
  13   2.0000     -10.283972      -279.8411
  14   2.0000     -10.283799      -279.8364
  15   2.0000     -10.282974      -279.8139
  16   2.0000      -8.081809      -219.9172
  17   2.0000      -8.080408      -219.8791
  18   2.0000      -6.040510      -164.3706
  19   2.0000      -6.038887      -164.3265
  20   2.0000      -6.036392      -164.2586
  21   2.0000      -6.035038      -164.2217
  22   2.0000      -6.032391      -164.1497
  23   2.0000      -6.031218      -164.1178
  24   2.0000      -1.001739       -27.2587
  25   2.0000      -0.978217       -26.6186
  26   2.0000      -0.913832       -24.8666
  27   2.0000      -0.909639       -24.7525
  28   2.0000      -0.869587       -23.6627
  29   2.0000      -0.853199       -23.2167
  30   2.0000      -0.848204       -23.0808
  31   2.0000      -0.813705       -22.1420
  32   2.0000      -0.782556       -21.2944
  33   2.0000      -0.767755       -20.8917
  34   2.0000      -0.707145       -19.2424
  35   2.0000      -0.700881       -19.0719
  36   2.0000      -0.693066       -18.8593
  37   2.0000      -0.659010       -17.9326
  38   2.0000      -0.633280       -17.2324
  39   2.0000      -0.615280       -16.7426
  40   2.0000      -0.593091       -16.1388
  41   2.0000      -0.577081       -15.7032
  42   2.0000      -0.567735       -15.4489
  43   2.0000      -0.559898       -15.2356
  44   2.0000      -0.531853       -14.4725
  45   2.0000      -0.529426       -14.4064
  46   2.0000      -0.517320       -14.0770
  47   2.0000      -0.512886       -13.9563
  48   2.0000      -0.503344       -13.6967
  49   2.0000      -0.499584       -13.5944
  50   2.0000      -0.493382       -13.4256
  51   2.0000      -0.480210       -13.0672
  52   2.0000      -0.470337       -12.7985
  53   2.0000      -0.464141       -12.6299
  54   2.0000      -0.457658       -12.4535
  55   2.0000      -0.450553       -12.2602
  56   2.0000      -0.446077       -12.1384
  57   2.0000      -0.437185       -11.8964
  58   2.0000      -0.430925       -11.7261
  59   2.0000      -0.428320       -11.6552
  60   2.0000      -0.418103       -11.3772
  61   2.0000      -0.414165       -11.2700
  62   2.0000      -0.407752       -11.0955
  63   2.0000      -0.350057        -9.5255
  64   2.0000      -0.329446        -8.9647
  65   2.0000      -0.328996        -8.9524
  66   2.0000      -0.286610        -7.7991
  67   0.0000       0.026438         0.7194
  68   0.0000       0.071778         1.9532
  69   0.0000       0.109612         2.9827
  70   0.0000       0.121231         3.2989
  71   0.0000       0.124502         3.3879

MULLIKEN ATOMIC CHARGES
-----------------------
   0 S :    0.114849
   1 C :   -0.147805
   2 C :   -0.065967
   3 C :    0.020705
   4 C :   -0.140781
   5 H :   -0.001313
   6 C :    0.050913
   7 H :    0.014093
   8 H :    0.045895
   9 C :   -0.103270
  10 H :    0.041942
  11 H :    0.031658
  12 C :   -0.058667
  13 H :    0.024383
  14 H :    0.050119
  15 H :    0.030503
  16 S :    0.102494
  17 C :   -0.087863
  18 C :   -0.036175
  19 C :   -0.057783
  20 C :   -0.152729
  21 H :    0.034608
  22 C :    0.079110
  23 H :    0.035051
  24 H :    0.034803
  25 C :   -0.057392
  26 H :    0.033540
  27 H :    0.001774
  28 C :   -0.058969
  29 H :    0.044654
  30 H :    0.043722
  31 H :    0.018991
  32 H :    0.068458
  33 H :    0.046447
Sum of atomic charges:   -0.0000000

LOEWDIN ATOMIC CHARGES
----------------------
   0 S :    0.398679
   1 C :   -0.205270
   2 C :   -0.063961
   3 C :   -0.060831
   4 C :   -0.197338
   5 H :    0.027634
   6 C :   -0.037545
   7 H :    0.027922
   8 H :    0.035206
   9 C :   -0.045820
  10 H :    0.032315
  11 H :    0.022710
  12 C :   -0.073444
  13 H :    0.022684
  14 H :    0.034889
  15 H :    0.026708
  16 S :    0.391249
  17 C :   -0.172771
  18 C :   -0.076953
  19 C :   -0.045271
  20 C :   -0.196183
  21 H :    0.040116
  22 C :   -0.030125
  23 H :    0.036688
  24 H :    0.033548
  25 C :   -0.038976
  26 H :    0.023977
  27 H :    0.013464
  28 C :   -0.068610
  29 H :    0.032268
  30 H :    0.028379
  31 H :    0.021335
  32 H :    0.042646
  33 H :    0.020681

  Mayer bond orders larger than 0.100000
B(  0-S ,  1-C ) :   1.1194 B(  0-S ,  4-C ) :   1.1418 B(  1-C ,  2-C ) :   1.6250
B(  1-C , 32-H ) :   0.9595 B(  2-C ,  3-C ) :   1.2366 B(  2-C ,  6-C ) :   1.0298
B(  3-C ,  4-C ) :   1.5695 B(  3-C ,  5-H ) :   0.9975 B(  4-C , 20-C ) :   1.0615
B(  6-C ,  7-H ) :   0.9407 B(  6-C ,  8-H ) :   0.9353 B(  6-C ,  9-C ) :   1.0595
B(  9-C , 10-H ) :   0.9641 B(  9-C , 11-H ) :   0.9550 B(  9-C , 12-C ) :   1.0823
B( 12-C , 13-H ) :   0.9696 B( 12-C , 14-H ) :   0.9790 B( 12-C , 15-H ) :   0.9723
B( 16-S , 17-C ) :   1.1479 B( 16-S , 20-C ) :   1.1450 B( 17-C , 18-C ) :   1.6193
B( 17-C , 20-C ) :   0.1041 B( 17-C , 33-H ) :   0.9705 B( 18-C , 19-C ) :   1.2386
B( 18-C , 21-H ) :   0.9811 B( 19-C , 20-C ) :   1.5558 B( 19-C , 22-C ) :   1.0529
B( 22-C , 23-H ) :   0.9320 B( 22-C , 24-H ) :   0.9362 B( 22-C , 25-C ) :   1.0383
B( 25-C , 26-H ) :   0.9618 B( 25-C , 27-H ) :   0.9472 B( 25-C , 28-C ) :   1.0881
B( 28-C , 29-H ) :   0.9754 B( 28-C , 30-H ) :   0.9728 B( 28-C , 31-H ) :   0.9719

Dispersion correction           -0.013999908
FINAL SINGLE POINT ENERGY     -1339.875689972283

DIPOLE MOMENT
-------------
                                X             Y             Z
Electronic contribution:    -30.22557      -5.94624      -1.00957
Nuclear contribution   :     30.88184       6.02467       1.35919
                        -----------------------------------------
Total Dipole Moment    :      0.65628       0.07843       0.34962
                        -----------------------------------------
Magnitude (a.u.)       :      0.74772
Magnitude (Debye)      :      1.90055

Rotational constants in cm-1:     0.018003     0.008386     0.006303
Rotational constants in MHz :   539.729347   251.419371   188.959613

                             ****ORCA TERMINATED NORMALLY****
TOTAL RUN TIME: 0 days 0 hours 0 minutes 22 seconds 575 msec
