                         Program Version 4.2.1 -  RELEASE  -
|  1> ! wB97X-D3 SP def2-SVP
|  2> %pal
|  3> nprocs 24
|  4> end
|  5>
|  6> * xyz 0 1
|  7> S 	 -102.148 	 37.2372 	 -88.5111
|  8> C 	 -102.972 	 36.7305 	 -87.0826
|  9> C 	 -103.526 	 37.783 	 -86.3853
| 10> C 	 -103.08 	 39.0417 	 -86.8643
| 11> C 	 -102.343 	 38.9608 	 -88.0364
| 12> H 	 -103.228 	 40.0323 	 -86.4387
| 13> C 	 -104.452 	 37.52 	 -85.2086
| 14> H 	 -104.466 	 36.4139 	 -85.0226
| 15> H 	 -105.438 	 37.9142 	 -85.5834
| 16> C 	 -103.968 	 38.2018 	 -83.9023
| 17> H 	 -103.855 	 39.2754 	 -84.1131
| 18> H 	 -104.756 	 38.2023 	 -83.1291
| 19> C 	 -102.6 	 37.6386 	 -83.3248
| 20> H 	 -101.739 	 37.8016 	 -83.9164
| 21> H 	 -102.415 	 37.9465 	 -82.3482
| 22> H 	 -102.629 	 36.5695 	 -83.4573
| 23> S 	 -100.104 	 39.6698 	 -89.3669
| 24> C 	 -99.9113 	 41.2931 	 -89.9415
| 25> C 	 -101.042 	 42.0837 	 -89.7729
| 26> C 	 -102.113 	 41.2961 	 -89.1564
| 27> C 	 -101.695 	 40.007 	 -88.7796
| 28> H 	 -101.05 	 43.1468 	 -90.1437
| 29> C 	 -103.479 	 41.8598 	 -88.8063
| 30> H 	 -103.488 	 42.9706 	 -89.0766
| 31> H 	 -103.455 	 41.9918 	 -87.6956
| 32> C 	 -104.698 	 41.1698 	 -89.4186
| 33> H 	 -104.654 	 40.1601 	 -89.0938
| 34> H 	 -104.59 	 41.1836 	 -90.5155
| 35> C 	 -105.999 	 41.7409 	 -88.9326
| 36> H 	 -105.986 	 41.799 	 -87.8656
| 37> H 	 -106.875 	 41.2501 	 -89.3801
| 38> H 	 -106.1 	 42.787 	 -89.1593
| 39> H 	 -103.049 	 35.6282 	 -86.7977
| 40> H 	 -98.9773 	 41.7121 	 -90.304
| 41> *
| 42>
| 43>                          ****END OF INPUT****

CARTESIAN COORDINATES (ANGSTROEM)
---------------------------------
  S    -102.148000   37.237200  -88.511100
  C    -102.972000   36.730500  -87.082600
  C    -103.526000   37.783000  -86.385300
  C    -103.080000   39.041700  -86.864300
  C    -102.343000   38.960800  -88.036400
  H    -103.228000   40.032300  -86.438700
  C    -104.452000   37.520000  -85.208600
  H    -104.466000   36.413900  -85.022600
  H    -105.438000   37.914200  -85.583400
  C    -103.968000   38.201800  -83.902300
  H    -103.855000   39.275400  -84.113100
  H    -104.756000   38.202300  -83.129100
  C    -102.600000   37.638600  -83.324800
  H    -101.739000   37.801600  -83.916400
  H    -102.415000   37.946500  -82.348200
  H    -102.629000   36.569500  -83.457300
  S    -100.104000   39.669800  -89.366900
  C    -99.911300   41.293100  -89.941500
  C    -101.042000   42.083700  -89.772900
  C    -102.113000   41.296100  -89.156400
  C    -101.695000   40.007000  -88.779600
  H    -101.050000   43.146800  -90.143700
  C    -103.479000   41.859800  -88.806300
  H    -103.488000   42.970600  -89.076600
  H    -103.455000   41.991800  -87.695600
  C    -104.698000   41.169800  -89.418600
  H    -104.654000   40.160100  -89.093800
  H    -104.590000   41.183600  -90.515500
  C    -105.999000   41.740900  -88.932600
  H    -105.986000   41.799000  -87.865600
  H    -106.875000   41.250100  -89.380100
  H    -106.100000   42.787000  -89.159300
  H    -103.049000   35.628200  -86.797700
  H    -98.977300   41.712100  -90.304000

 Total Charge           Charge          ....    0
 Multiplicity           Mult            ....    1
 Number of Electrons    NEL             ....  134
 Basis Dimension        Dim             ....  322

ORBITAL ENERGIES
----------------

  NO   OCC          E(Eh)            E(eV)
   0   2.0000     -88.966928     -2420.9132
   1   2.0000     -88.964245     -2420.8402
   2   2.0000     -10.332168      -281.1526
   3   2.0000     -10.324859      -280.9537
   4   2.0000     -10.317773      -280.7609
   5   2.0000     -10.315884      -280.7095
   6   2.0000     -10.310200      -280.5548
   7   2.0000     -10.304088      -280.3885
   8   2.0000     -10.302371      -280.3418
   9   2.0000     -10.300832      -280.2999
  10   2.0000     -10.297997      -280.2228
  11   2.0000     -10.297001      -280.1956
  12   2.0000     -10.293947      -280.1125
  13   2.0000     -10.279782      -279.7271
  14   2.0000     -10.271814      -279.5103
  15   2.0000     -10.270651      -279.4786
  16   2.0000      -8.082286      -219.9302
  17   2.0000      -8.078890      -219.8378
  18   2.0000      -6.040715      -164.3762
  19   2.0000      -6.037364      -164.2850
  20   2.0000      -6.036647      -164.2655
  21   2.0000      -6.033496      -164.1798
  22   2.0000      -6.033143      -164.1702
  23   2.0000      -6.029617      -164.0742
  24   2.0000      -1.007550       -27.4168
  25   2.0000      -0.983580       -26.7646
  26   2.0000      -0.910601       -24.7787
  27   2.0000      -0.905683       -24.6449
  28   2.0000      -0.868930       -23.6448
  29   2.0000      -0.853862       -23.2348
  30   2.0000      -0.842864       -22.9355
  31   2.0000      -0.815995       -22.2044
  32   2.0000      -0.782117       -21.2825
  33   2.0000      -0.768219       -20.9043
  34   2.0000      -0.714342       -19.4382
  35   2.0000      -0.699847       -19.0438
  36   2.0000      -0.686784       -18.6884
  37   2.0000      -0.661145       -17.9907
  38   2.0000      -0.637242       -17.3402
  39   2.0000      -0.620108       -16.8740
  40   2.0000      -0.589818       -16.0498
  41   2.0000      -0.563184       -15.3250
  42   2.0000      -0.557963       -15.1829
  43   2.0000      -0.555380       -15.1127
  44   2.0000      -0.534766       -14.5517
  45   2.0000      -0.531966       -14.4755
  46   2.0000      -0.513925       -13.9846
  47   2.0000      -0.511820       -13.9273
  48   2.0000      -0.501627       -13.6500
  49   2.0000      -0.496564       -13.5122
  50   2.0000      -0.491758       -13.3814
  51   2.0000      -0.481876       -13.1125
  52   2.0000      -0.473546       -12.8858
  53   2.0000      -0.460546       -12.5321
  54   2.0000      -0.456631       -12.4256
  55   2.0000      -0.452634       -12.3168
  56   2.0000      -0.443599       -12.0710
  57   2.0000      -0.440684       -11.9916
  58   2.0000      -0.437715       -11.9108
  59   2.0000      -0.425574       -11.5805
  60   2.0000      -0.418034       -11.3753
  61   2.0000      -0.413645       -11.2559
  62   2.0000      -0.407203       -11.0806
  63   2.0000      -0.352673        -9.5967
  64   2.0000      -0.332577        -9.0499
  65   2.0000      -0.328456        -8.9377
  66   2.0000      -0.285204        -7.7608
  67   0.0000       0.023812         0.6480
  68   0.0000       0.074937         2.0391
  69   0.0000       0.107243         2.9182
  70   0.0000       0.117232         3.1901
  71   0.0000       0.136498         3.7143

MULLIKEN ATOMIC CHARGES
-----------------------
   0 S :    0.101453
   1 C :   -0.161137
   2 C :   -0.078823
   3 C :    0.020918
   4 C :   -0.151868
   5 H :    0.013523
   6 C :    0.052187
   7 H :    0.030111
   8 H :    0.053792
   9 C :   -0.098052
  10 H :    0.027045
  11 H :    0.033141
  12 C :   -0.006174
  13 H :    0.027157
  14 H :    0.032257
  15 H :    0.009395
  16 S :    0.119490
  17 C :   -0.093208
  18 C :   -0.053648
  19 C :   -0.036935
  20 C :   -0.149593
  21 H :    0.046912
  22 C :   -0.015552
  23 H :    0.014301
  24 H :    0.036777
  25 C :   -0.034422
  26 H :    0.034983
  27 H :    0.036522
  28 C :   -0.007662
  29 H :    0.011831
  30 H :    0.044062
  31 H :    0.007341
  32 H :    0.077076
  33 H :    0.056800
Sum of atomic charges:   -0.0000000

LOEWDIN ATOMIC CHARGES
----------------------
   0 S :    0.385246
   1 C :   -0.215988
   2 C :   -0.070842
   3 C :   -0.064151
   4 C :   -0.175235
   5 H :    0.032925
   6 C :   -0.030835
   7 H :    0.031980
   8 H :    0.042333
   9 C :   -0.043533
  10 H :    0.020271
  11 H :    0.024639
  12 C :   -0.057863
  13 H :    0.025509
  14 H :    0.019644
  15 H :    0.023952
  16 S :    0.426399
  17 C :   -0.192351
  18 C :   -0.078168
  19 C :   -0.052633
  20 C :   -0.213039
  21 H :    0.045250
  22 C :   -0.045483
  23 H :    0.031827
  24 H :    0.032101
  25 C :   -0.038464
  26 H :    0.022392
  27 H :    0.030685
  28 C :   -0.062687
  29 H :    0.022175
  30 H :    0.031940
  31 H :    0.020000
  32 H :    0.042568
  33 H :    0.029436

  Mayer bond orders larger than 0.100000
B(  0-S ,  1-C ) :   1.1374 B(  0-S ,  4-C ) :   1.1347 B(  1-C ,  2-C ) :   1.6127
B(  1-C , 32-H ) :   0.9556 B(  2-C ,  3-C ) :   1.2231 B(  2-C ,  6-C ) :   1.0144
B(  3-C ,  4-C ) :   1.5797 B(  3-C ,  5-H ) :   0.9923 B(  4-C , 20-C ) :   1.0822
B(  6-C ,  7-H ) :   0.9471 B(  6-C ,  8-H ) :   0.9358 B(  6-C ,  9-C ) :   1.0694
B(  9-C , 10-H ) :   0.9568 B(  9-C , 11-H ) :   0.9601 B(  9-C , 12-C ) :   1.0555
B( 12-C , 13-H ) :   0.9729 B( 12-C , 14-H ) :   0.9782 B( 12-C , 15-H ) :   0.9746
B( 16-S , 17-C ) :   1.1659 B( 16-S , 20-C ) :   1.1420 B( 17-C , 18-C ) :   1.6090
B( 17-C , 33-H ) :   0.9646 B( 18-C , 19-C ) :   1.2410 B( 18-C , 21-H ) :   0.9810
B( 19-C , 20-C ) :   1.5641 B( 19-C , 22-C ) :   1.0388 B( 22-C , 23-H ) :   0.9323
B( 22-C , 24-H ) :   0.9364 B( 22-C , 25-C ) :   1.0499 B( 25-C , 26-H ) :   0.9519
B( 25-C , 27-H ) :   0.9512 B( 25-C , 28-C ) :   1.0928 B( 28-C , 29-H ) :   0.9689
B( 28-C , 30-H ) :   0.9718 B( 28-C , 31-H ) :   0.9691

Dispersion correction           -0.014861346
FINAL SINGLE POINT ENERGY     -1339.881821760437

DIPOLE MOMENT
-------------
                                X             Y             Z
Electronic contribution:     19.08205      -7.33759     -15.98470
Nuclear contribution   :    -19.38041       7.72741      16.31772
                        -----------------------------------------
Total Dipole Moment    :     -0.29836       0.38982       0.33302
                        -----------------------------------------
Magnitude (a.u.)       :      0.59320
Magnitude (Debye)      :      1.50779

Rotational constants in cm-1:     0.017595     0.009368     0.007483
Rotational constants in MHz :   527.472284   280.834606   224.349477

                             ****ORCA TERMINATED NORMALLY****
TOTAL RUN TIME: 0 days 0 hours 0 minutes 21 seconds 977 msec
