                         Program Version 4.2.1 -  RELEASE  -
|  1> ! wB97X-D3 SP def2-SVP
|  2> %pal
|  3> nprocs 24
|  4> end
|  5>
|  6> * xyz 0 1
|  7> S 	 -50.8942 	 -50.7948 	 -78.3928
|  8> C 	 -50.84 	 -51.8754 	 -79.8185
|  9> C 	 -51.9993 	 -51.7393 	 -80.5642
| 10> C 	 -52.9966 	 -50.9976 	 -79.923
| 11> C 	 -52.6143 	 -50.5813 	 -78.6564
| 12> H 	 -53.9773 	 -50.9152 	 -80.3258
| 13> C 	 -52.1693 	 -52.3794 	 -81.932
| 14> H 	 -53.0382 	 -52.9686 	 -81.8963
| 15> H 	 -51.3056 	 -53.0606 	 -82.0407
| 16> C 	 -52.2412 	 -51.4045 	 -83.1531
| 17> H 	 -52.4385 	 -51.8553 	 -84.092
| 18> H 	 -53.1194 	 -50.79 	 -82.9344
| 19> C 	 -51.0432 	 -50.4808 	 -83.385
| 20> H 	 -50.8357 	 -49.7875 	 -82.6059
| 21> H 	 -50.0438 	 -51.0732 	 -83.4655
| 22> H 	 -51.1424 	 -49.8006 	 -84.2142
| 23> S 	 -53.3498 	 -50.7704 	 -76.0257
| 24> C 	 -54.9097 	 -50.196 	 -75.468
| 25> C 	 -55.5794 	 -49.5904 	 -76.4705
| 26> C 	 -54.7778 	 -49.4346 	 -77.6404
| 27> C 	 -53.5198 	 -50.032 	 -77.6074
| 28> H 	 -56.5972 	 -49.2515 	 -76.2753
| 29> C 	 -55.3425 	 -48.7102 	 -78.8666
| 30> H 	 -56.3731 	 -49.1805 	 -79.0735
| 31> H 	 -54.7329 	 -48.9588 	 -79.7504
| 32> C 	 -55.5137 	 -47.1182 	 -78.6951
| 33> H 	 -54.5471 	 -46.5507 	 -78.571
| 34> H 	 -56.078 	 -46.9695 	 -77.7459
| 35> C 	 -56.3889 	 -46.5117 	 -79.8329
| 36> H 	 -55.811 	 -46.0487 	 -80.5755
| 37> H 	 -57.1572 	 -45.7892 	 -79.4736
| 38> H 	 -56.9812 	 -47.2849 	 -80.3224
| 39> H 	 -50.0203 	 -52.4774 	 -80.0999
| 40> H 	 -55.3334 	 -50.4523 	 -74.4719
| 41> *
| 42>
| 43>                          ****END OF INPUT****

CARTESIAN COORDINATES (ANGSTROEM)
---------------------------------
  S    -50.894200  -50.794800  -78.392800
  C    -50.840000  -51.875400  -79.818500
  C    -51.999300  -51.739300  -80.564200
  C    -52.996600  -50.997600  -79.923000
  C    -52.614300  -50.581300  -78.656400
  H    -53.977300  -50.915200  -80.325800
  C    -52.169300  -52.379400  -81.932000
  H    -53.038200  -52.968600  -81.896300
  H    -51.305600  -53.060600  -82.040700
  C    -52.241200  -51.404500  -83.153100
  H    -52.438500  -51.855300  -84.092000
  H    -53.119400  -50.790000  -82.934400
  C    -51.043200  -50.480800  -83.385000
  H    -50.835700  -49.787500  -82.605900
  H    -50.043800  -51.073200  -83.465500
  H    -51.142400  -49.800600  -84.214200
  S    -53.349800  -50.770400  -76.025700
  C    -54.909700  -50.196000  -75.468000
  C    -55.579400  -49.590400  -76.470500
  C    -54.777800  -49.434600  -77.640400
  C    -53.519800  -50.032000  -77.607400
  H    -56.597200  -49.251500  -76.275300
  C    -55.342500  -48.710200  -78.866600
  H    -56.373100  -49.180500  -79.073500
  H    -54.732900  -48.958800  -79.750400
  C    -55.513700  -47.118200  -78.695100
  H    -54.547100  -46.550700  -78.571000
  H    -56.078000  -46.969500  -77.745900
  C    -56.388900  -46.511700  -79.832900
  H    -55.811000  -46.048700  -80.575500
  H    -57.157200  -45.789200  -79.473600
  H    -56.981200  -47.284900  -80.322400
  H    -50.020300  -52.477400  -80.099900
  H    -55.333400  -50.452300  -74.471900

 Total Charge           Charge          ....    0
 Multiplicity           Mult            ....    1
 Number of Electrons    NEL             ....  134
 Basis Dimension        Dim             ....  322

ORBITAL ENERGIES
----------------

  NO   OCC          E(Eh)            E(eV)
   0   2.0000     -88.969343     -2420.9789
   1   2.0000     -88.960586     -2420.7406
   2   2.0000     -10.338275      -281.3188
   3   2.0000     -10.330091      -281.0961
   4   2.0000     -10.319558      -280.8094
   5   2.0000     -10.313112      -280.6341
   6   2.0000     -10.306404      -280.4515
   7   2.0000     -10.303049      -280.3602
   8   2.0000     -10.299038      -280.2511
   9   2.0000     -10.298376      -280.2331
  10   2.0000     -10.293892      -280.1110
  11   2.0000     -10.293181      -280.0917
  12   2.0000     -10.291326      -280.0412
  13   2.0000     -10.289198      -279.9833
  14   2.0000     -10.277816      -279.6736
  15   2.0000     -10.276445      -279.6363
  16   2.0000      -8.083309      -219.9580
  17   2.0000      -8.075634      -219.7492
  18   2.0000      -6.041839      -164.4068
  19   2.0000      -6.038137      -164.3061
  20   2.0000      -6.034163      -164.1979
  21   2.0000      -6.033879      -164.1902
  22   2.0000      -6.029977      -164.0840
  23   2.0000      -6.026432      -163.9876
  24   2.0000      -1.007183       -27.4068
  25   2.0000      -0.986199       -26.8358
  26   2.0000      -0.908942       -24.7336
  27   2.0000      -0.893859       -24.3231
  28   2.0000      -0.868360       -23.6293
  29   2.0000      -0.850666       -23.1478
  30   2.0000      -0.843227       -22.9454
  31   2.0000      -0.818357       -22.2686
  32   2.0000      -0.782555       -21.2944
  33   2.0000      -0.767100       -20.8739
  34   2.0000      -0.709692       -19.3117
  35   2.0000      -0.698690       -19.0123
  36   2.0000      -0.695176       -18.9167
  37   2.0000      -0.658494       -17.9185
  38   2.0000      -0.638080       -17.3630
  39   2.0000      -0.627502       -17.0752
  40   2.0000      -0.590808       -16.0767
  41   2.0000      -0.567952       -15.4548
  42   2.0000      -0.556848       -15.1526
  43   2.0000      -0.551409       -15.0046
  44   2.0000      -0.548056       -14.9134
  45   2.0000      -0.519629       -14.1398
  46   2.0000      -0.517002       -14.0683
  47   2.0000      -0.511153       -13.9092
  48   2.0000      -0.498700       -13.5703
  49   2.0000      -0.494372       -13.4526
  50   2.0000      -0.488508       -13.2930
  51   2.0000      -0.479716       -13.0537
  52   2.0000      -0.464858       -12.6494
  53   2.0000      -0.463152       -12.6030
  54   2.0000      -0.458629       -12.4799
  55   2.0000      -0.450585       -12.2610
  56   2.0000      -0.446274       -12.1437
  57   2.0000      -0.444020       -12.0824
  58   2.0000      -0.434997       -11.8369
  59   2.0000      -0.423324       -11.5192
  60   2.0000      -0.418888       -11.3985
  61   2.0000      -0.414540       -11.2802
  62   2.0000      -0.409353       -11.1391
  63   2.0000      -0.353618        -9.6224
  64   2.0000      -0.334285        -9.0964
  65   2.0000      -0.326903        -8.8955
  66   2.0000      -0.289089        -7.8665
  67   0.0000       0.021120         0.5747
  68   0.0000       0.074883         2.0377
  69   0.0000       0.103262         2.8099
  70   0.0000       0.117517         3.1978
  71   0.0000       0.134818         3.6686

MULLIKEN ATOMIC CHARGES
-----------------------
   0 S :    0.109285
   1 C :   -0.116448
   2 C :   -0.095715
   3 C :    0.032274
   4 C :   -0.133348
   5 H :    0.005602
   6 C :    0.094465
   7 H :    0.022224
   8 H :    0.015474
   9 C :   -0.048198
  10 H :    0.029142
  11 H :    0.019117
  12 C :   -0.068453
  13 H :    0.026678
  14 H :    0.034209
  15 H :    0.029640
  16 S :    0.079168
  17 C :   -0.103003
  18 C :   -0.020377
  19 C :   -0.078309
  20 C :   -0.085380
  21 H :    0.026685
  22 C :    0.011280
  23 H :    0.039226
  24 H :    0.027920
  25 C :   -0.089592
  26 H :    0.053207
  27 H :    0.031884
  28 C :   -0.041678
  29 H :    0.029994
  30 H :    0.037630
  31 H :    0.020538
  32 H :    0.032233
  33 H :    0.072627
Sum of atomic charges:   -0.0000000

LOEWDIN ATOMIC CHARGES
----------------------
   0 S :    0.387876
   1 C :   -0.180258
   2 C :   -0.058178
   3 C :   -0.064792
   4 C :   -0.177164
   5 H :    0.026786
   6 C :   -0.021447
   7 H :    0.024811
   8 H :    0.029188
   9 C :   -0.036955
  10 H :    0.022205
  11 H :    0.023513
  12 C :   -0.073463
  13 H :    0.020434
  14 H :    0.033021
  15 H :    0.025248
  16 S :    0.399674
  17 C :   -0.180354
  18 C :   -0.077426
  19 C :   -0.061562
  20 C :   -0.200256
  21 H :    0.037116
  22 C :   -0.038497
  23 H :    0.036918
  24 H :    0.024863
  25 C :   -0.042347
  26 H :    0.033789
  27 H :    0.024850
  28 C :   -0.069508
  29 H :    0.018070
  30 H :    0.031915
  31 H :    0.023620
  32 H :    0.018928
  33 H :    0.039383

  Mayer bond orders larger than 0.100000
B(  0-S ,  1-C ) :   1.1163 B(  0-S ,  4-C ) :   1.1595 B(  1-C ,  2-C ) :   1.6091
B(  1-C , 32-H ) :   0.9738 B(  2-C ,  3-C ) :   1.2566 B(  2-C ,  6-C ) :   1.0204
B(  3-C ,  4-C ) :   1.5529 B(  3-C ,  5-H ) :   0.9911 B(  4-C , 20-C ) :   1.0213
B(  6-C ,  7-H ) :   0.9397 B(  6-C ,  8-H ) :   0.9429 B(  6-C ,  9-C ) :   1.0638
B(  9-C , 10-H ) :   0.9601 B(  9-C , 11-H ) :   0.9531 B(  9-C , 12-C ) :   1.0755
B( 12-C , 13-H ) :   0.9735 B( 12-C , 14-H ) :   0.9744 B( 12-C , 15-H ) :   0.9735
B( 16-S , 17-C ) :   1.1624 B( 16-S , 20-C ) :   1.1268 B( 17-C , 18-C ) :   1.6072
B( 17-C , 33-H ) :   0.9610 B( 18-C , 19-C ) :   1.2424 B( 18-C , 21-H ) :   0.9937
B( 19-C , 20-C ) :   1.5988 B( 19-C , 22-C ) :   1.0376 B( 22-C , 23-H ) :   0.9400
B( 22-C , 24-H ) :   0.9410 B( 22-C , 25-C ) :   1.0482 B( 25-C , 26-H ) :   0.9606
B( 25-C , 27-H ) :   0.9653 B( 25-C , 28-C ) :   1.0596 B( 28-C , 29-H ) :   0.9792
B( 28-C , 30-H ) :   0.9782 B( 28-C , 31-H ) :   0.9762

Dispersion correction           -0.013866589
FINAL SINGLE POINT ENERGY     -1339.869915729172

DIPOLE MOMENT
-------------
                                X             Y             Z
Electronic contribution:     10.35006     -10.15979      25.06850
Nuclear contribution   :    -10.94846      10.17268     -25.54058
                        -----------------------------------------
Total Dipole Moment    :     -0.59840       0.01289      -0.47208
                        -----------------------------------------
Magnitude (a.u.)       :      0.76230
Magnitude (Debye)      :      1.93762

Rotational constants in cm-1:     0.016937     0.008987     0.006488
Rotational constants in MHz :   507.761824   269.416942   194.504780

                             ****ORCA TERMINATED NORMALLY****
TOTAL RUN TIME: 0 days 0 hours 0 minutes 21 seconds 189 msec
