                         Program Version 4.2.1 -  RELEASE  -
|  1> ! wB97X-D3 SP def2-SVP
|  2> %pal
|  3> nprocs 24
|  4> end
|  5>
|  6> * xyz 0 1
|  7> S 	 -69.6975 	 -45.2622 	 -89.9052
|  8> C 	 -69.3514 	 -44.8156 	 -91.5554
|  9> C 	 -68.3737 	 -45.5261 	 -92.0978
| 10> C 	 -67.7256 	 -46.4177 	 -91.1301
| 11> C 	 -68.4128 	 -46.4148 	 -89.9146
| 12> H 	 -66.836 	 -47.0685 	 -91.2602
| 13> C 	 -67.8845 	 -45.323 	 -93.5159
| 14> H 	 -68.5147 	 -44.6046 	 -94.106
| 15> H 	 -67.715 	 -46.2634 	 -94.0641
| 16> C 	 -66.5778 	 -44.5605 	 -93.6616
| 17> H 	 -66.3846 	 -44.3406 	 -94.673
| 18> H 	 -66.7159 	 -43.5641 	 -93.1271
| 19> C 	 -65.4235 	 -45.2401 	 -93.0178
| 20> H 	 -65.3974 	 -45.2556 	 -91.9523
| 21> H 	 -65.2897 	 -46.2488 	 -93.4665
| 22> H 	 -64.6219 	 -44.6901 	 -93.4435
| 23> S 	 -66.7389 	 -46.1348 	 -87.7198
| 24> C 	 -66.4514 	 -47.5739 	 -86.7363
| 25> C 	 -67.2512 	 -48.668 	 -87.0939
| 26> C 	 -68.0577 	 -48.3247 	 -88.2162
| 27> C 	 -67.8046 	 -47.0154 	 -88.736
| 28> H 	 -67.2191 	 -49.6039 	 -86.551
| 29> C 	 -69.1311 	 -49.1967 	 -88.8378
| 30> H 	 -68.8835 	 -50.2567 	 -88.6599
| 31> H 	 -69.0756 	 -49.0541 	 -89.8735
| 32> C 	 -70.5889 	 -48.8356 	 -88.5105
| 33> H 	 -71.2778 	 -49.1673 	 -89.3613
| 34> H 	 -70.5985 	 -47.7628 	 -88.4257
| 35> C 	 -71.085 	 -49.4322 	 -87.2334
| 36> H 	 -70.918 	 -50.538 	 -87.2362
| 37> H 	 -72.146 	 -49.1547 	 -86.992
| 38> H 	 -70.5575 	 -48.9202 	 -86.4262
| 39> H 	 -70.0192 	 -44.1878 	 -92.1282
| 40> H 	 -65.7272 	 -47.593 	 -85.9144
| 41> *
| 42>
| 43>                          ****END OF INPUT****

CARTESIAN COORDINATES (ANGSTROEM)
---------------------------------
  S    -69.697500  -45.262200  -89.905200
  C    -69.351400  -44.815600  -91.555400
  C    -68.373700  -45.526100  -92.097800
  C    -67.725600  -46.417700  -91.130100
  C    -68.412800  -46.414800  -89.914600
  H    -66.836000  -47.068500  -91.260200
  C    -67.884500  -45.323000  -93.515900
  H    -68.514700  -44.604600  -94.106000
  H    -67.715000  -46.263400  -94.064100
  C    -66.577800  -44.560500  -93.661600
  H    -66.384600  -44.340600  -94.673000
  H    -66.715900  -43.564100  -93.127100
  C    -65.423500  -45.240100  -93.017800
  H    -65.397400  -45.255600  -91.952300
  H    -65.289700  -46.248800  -93.466500
  H    -64.621900  -44.690100  -93.443500
  S    -66.738900  -46.134800  -87.719800
  C    -66.451400  -47.573900  -86.736300
  C    -67.251200  -48.668000  -87.093900
  C    -68.057700  -48.324700  -88.216200
  C    -67.804600  -47.015400  -88.736000
  H    -67.219100  -49.603900  -86.551000
  C    -69.131100  -49.196700  -88.837800
  H    -68.883500  -50.256700  -88.659900
  H    -69.075600  -49.054100  -89.873500
  C    -70.588900  -48.835600  -88.510500
  H    -71.277800  -49.167300  -89.361300
  H    -70.598500  -47.762800  -88.425700
  C    -71.085000  -49.432200  -87.233400
  H    -70.918000  -50.538000  -87.236200
  H    -72.146000  -49.154700  -86.992000
  H    -70.557500  -48.920200  -86.426200
  H    -70.019200  -44.187800  -92.128200
  H    -65.727200  -47.593000  -85.914400

 Total Charge           Charge          ....    0
 Multiplicity           Mult            ....    1
 Number of Electrons    NEL             ....  134
 Basis Dimension        Dim             ....  322

ORBITAL ENERGIES
----------------

  NO   OCC          E(Eh)            E(eV)
   0   2.0000     -88.969846     -2420.9926
   1   2.0000     -88.966503     -2420.9016
   2   2.0000     -10.327242      -281.0185
   3   2.0000     -10.322421      -280.8873
   4   2.0000     -10.321126      -280.8521
   5   2.0000     -10.310006      -280.5495
   6   2.0000     -10.303449      -280.3711
   7   2.0000     -10.302155      -280.3359
   8   2.0000     -10.301177      -280.3093
   9   2.0000     -10.297761      -280.2163
  10   2.0000     -10.292452      -280.0719
  11   2.0000     -10.280903      -279.7576
  12   2.0000     -10.280742      -279.7532
  13   2.0000     -10.280729      -279.7529
  14   2.0000     -10.274516      -279.5838
  15   2.0000     -10.267512      -279.3932
  16   2.0000      -8.084517      -219.9909
  17   2.0000      -8.081725      -219.9149
  18   2.0000      -6.042869      -164.4348
  19   2.0000      -6.040218      -164.3627
  20   2.0000      -6.038944      -164.3280
  21   2.0000      -6.036159      -164.2522
  22   2.0000      -6.035554      -164.2358
  23   2.0000      -6.032484      -164.1522
  24   2.0000      -1.009193       -27.4615
  25   2.0000      -0.984962       -26.8022
  26   2.0000      -0.920060       -25.0361
  27   2.0000      -0.907890       -24.7049
  28   2.0000      -0.874241       -23.7893
  29   2.0000      -0.848661       -23.0932
  30   2.0000      -0.846498       -23.0344
  31   2.0000      -0.814922       -22.1751
  32   2.0000      -0.786994       -21.4152
  33   2.0000      -0.768363       -20.9082
  34   2.0000      -0.702509       -19.1162
  35   2.0000      -0.692870       -18.8539
  36   2.0000      -0.680085       -18.5061
  37   2.0000      -0.658921       -17.9301
  38   2.0000      -0.645494       -17.5648
  39   2.0000      -0.608870       -16.5682
  40   2.0000      -0.594505       -16.1773
  41   2.0000      -0.579474       -15.7683
  42   2.0000      -0.555044       -15.1035
  43   2.0000      -0.549260       -14.9461
  44   2.0000      -0.544308       -14.8114
  45   2.0000      -0.540601       -14.7105
  46   2.0000      -0.519641       -14.1402
  47   2.0000      -0.515004       -14.0140
  48   2.0000      -0.501592       -13.6490
  49   2.0000      -0.493458       -13.4277
  50   2.0000      -0.488046       -13.2804
  51   2.0000      -0.480439       -13.0734
  52   2.0000      -0.470796       -12.8110
  53   2.0000      -0.467968       -12.7341
  54   2.0000      -0.462910       -12.5964
  55   2.0000      -0.446526       -12.1506
  56   2.0000      -0.444316       -12.0904
  57   2.0000      -0.434983       -11.8365
  58   2.0000      -0.424934       -11.5630
  59   2.0000      -0.421564       -11.4713
  60   2.0000      -0.414702       -11.2846
  61   2.0000      -0.410699       -11.1757
  62   2.0000      -0.407907       -11.0997
  63   2.0000      -0.340068        -9.2537
  64   2.0000      -0.328555        -8.9404
  65   2.0000      -0.326113        -8.8740
  66   2.0000      -0.303949        -8.2709
  67   0.0000       0.044966         1.2236
  68   0.0000       0.050529         1.3750
  69   0.0000       0.112501         3.0613
  70   0.0000       0.120930         3.2907
  71   0.0000       0.127768         3.4767

MULLIKEN ATOMIC CHARGES
-----------------------
   0 S :    0.114513
   1 C :   -0.126706
   2 C :   -0.043186
   3 C :    0.010077
   4 C :   -0.175652
   5 H :    0.040991
   6 C :    0.047726
   7 H :    0.024273
   8 H :    0.032216
   9 C :   -0.093465
  10 H :    0.022142
  11 H :    0.026296
  12 C :   -0.023379
  13 H :    0.050859
  14 H :    0.016735
  15 H :    0.017707
  16 S :    0.135795
  17 C :   -0.116303
  18 C :   -0.019311
  19 C :   -0.063535
  20 C :   -0.172554
  21 H :    0.023471
  22 C :    0.108899
  23 H :    0.015221
  24 H :    0.012786
  25 C :   -0.069201
  26 H :    0.039667
  27 H :    0.013749
  28 C :   -0.057374
  29 H :    0.037088
  30 H :    0.036662
  31 H :    0.025492
  32 H :    0.047577
  33 H :    0.060723
Sum of atomic charges:    0.0000000

LOEWDIN ATOMIC CHARGES
----------------------
   0 S :    0.413733
   1 C :   -0.188700
   2 C :   -0.065012
   3 C :   -0.052766
   4 C :   -0.211172
   5 H :    0.041300
   6 C :   -0.037110
   7 H :    0.035320
   8 H :    0.029529
   9 C :   -0.040889
  10 H :    0.017557
  11 H :    0.029263
  12 C :   -0.066203
  13 H :    0.023729
  14 H :    0.024577
  15 H :    0.025666
  16 S :    0.426742
  17 C :   -0.184720
  18 C :   -0.070889
  19 C :   -0.050936
  20 C :   -0.224976
  21 H :    0.035890
  22 C :   -0.032934
  23 H :    0.027167
  24 H :    0.027392
  25 C :   -0.041916
  26 H :    0.030590
  27 H :    0.015405
  28 C :   -0.074612
  29 H :    0.026617
  30 H :    0.029975
  31 H :    0.025102
  32 H :    0.028773
  33 H :    0.028509

  Mayer bond orders larger than 0.100000
B(  0-S ,  1-C ) :   1.1253 B(  0-S ,  4-C ) :   1.1537 B(  1-C ,  2-C ) :   1.6680
B(  1-C , 32-H ) :   0.9606 B(  2-C ,  3-C ) :   1.1889 B(  2-C ,  6-C ) :   1.0321
B(  3-C ,  4-C ) :   1.5980 B(  3-C ,  5-H ) :   0.9851 B(  4-C , 20-C ) :   1.0150
B(  6-C ,  7-H ) :   0.9443 B(  6-C ,  8-H ) :   0.9389 B(  6-C ,  9-C ) :   1.0736
B(  9-C , 10-H ) :   0.9580 B(  9-C , 11-H ) :   0.9444 B(  9-C , 12-C ) :   1.0989
B( 12-C , 13-H ) :   0.9667 B( 12-C , 14-H ) :   0.9673 B( 12-C , 15-H ) :   0.9672
B( 16-S , 17-C ) :   1.1749 B( 16-S , 20-C ) :   1.1600 B( 17-C , 18-C ) :   1.5692
B( 17-C , 20-C ) :   0.1055 B( 17-C , 33-H ) :   0.9649 B( 18-C , 19-C ) :   1.2746
B( 18-C , 21-H ) :   0.9945 B( 19-C , 20-C ) :   1.5519 B( 19-C , 22-C ) :   1.0563
B( 22-C , 23-H ) :   0.9385 B( 22-C , 24-H ) :   0.9101 B( 22-C , 25-C ) :   1.0606
B( 25-C , 26-H ) :   0.9550 B( 25-C , 27-H ) :   0.9489 B( 25-C , 28-C ) :   1.0912
B( 28-C , 29-H ) :   0.9748 B( 28-C , 30-H ) :   0.9700 B( 28-C , 31-H ) :   0.9726

Dispersion correction           -0.015236424
FINAL SINGLE POINT ENERGY     -1339.874426248219

DIPOLE MOMENT
-------------
                                X             Y             Z
Electronic contribution:      0.90694       8.06811      11.26701
Nuclear contribution   :     -0.72910      -8.19256     -11.64668
                        -----------------------------------------
Total Dipole Moment    :      0.17784      -0.12445      -0.37967
                        -----------------------------------------
Magnitude (a.u.)       :      0.43734
Magnitude (Debye)      :      1.11162

Rotational constants in cm-1:     0.021345     0.008747     0.007390
Rotational constants in MHz :   639.893345   262.218153   221.542241

                             ****ORCA TERMINATED NORMALLY****
TOTAL RUN TIME: 0 days 0 hours 0 minutes 22 seconds 316 msec
