                         Program Version 4.2.1 -  RELEASE  -
|  1> ! wB97X-D3 SP def2-SVP
|  2> %pal
|  3> nprocs 24
|  4> end
|  5>
|  6> * xyz 0 1
|  7> S 	 -110.709 	 68.8588 	 -8.35137
|  8> C 	 -110.569 	 70.0463 	 -9.72347
|  9> C 	 -109.401 	 69.9275 	 -10.4267
| 10> C 	 -108.675 	 68.8643 	 -9.86219
| 11> C 	 -109.177 	 68.2017 	 -8.74018
| 12> H 	 -107.728 	 68.5074 	 -10.1909
| 13> C 	 -109.046 	 70.7423 	 -11.6113
| 14> H 	 -108.065 	 71.1965 	 -11.4446
| 15> H 	 -109.832 	 71.497 	 -11.6776
| 16> C 	 -109.001 	 70.0837 	 -12.9969
| 17> H 	 -108.342 	 69.3355 	 -12.8535
| 18> H 	 -110.03 	 69.7144 	 -13.1618
| 19> C 	 -108.59 	 70.8489 	 -14.257
| 20> H 	 -108.477 	 70.2029 	 -15.1645
| 21> H 	 -109.278 	 71.655 	 -14.6055
| 22> H 	 -107.649 	 71.316 	 -14.241
| 23> S 	 -108.356 	 67.4318 	 -6.16854
| 24> C 	 -107.334 	 65.9368 	 -6.09842
| 25> C 	 -107.217 	 65.3504 	 -7.34014
| 26> C 	 -107.764 	 66.1557 	 -8.43097
| 27> C 	 -108.542 	 67.1622 	 -7.96354
| 28> H 	 -106.673 	 64.4339 	 -7.49633
| 29> C 	 -107.535 	 65.6801 	 -9.81907
| 30> H 	 -106.467 	 65.5806 	 -10.0566
| 31> H 	 -107.852 	 66.3957 	 -10.5508
| 32> C 	 -108.188 	 64.2944 	 -10.2112
| 33> H 	 -107.871 	 63.5591 	 -9.50998
| 34> H 	 -107.833 	 64.0522 	 -11.1918
| 35> C 	 -109.7 	 64.3405 	 -10.4397
| 36> H 	 -110.113 	 63.306 	 -10.6539
| 37> H 	 -110.115 	 64.9598 	 -11.2526
| 38> H 	 -110.282 	 64.5835 	 -9.53819
| 39> H 	 -111.349 	 70.597 	 -10.1687
| 40> H 	 -106.801 	 65.5585 	 -5.19569
| 41> *
| 42>
| 43>                          ****END OF INPUT****

CARTESIAN COORDINATES (ANGSTROEM)
---------------------------------
  S    -110.709000   68.858800   -8.351370
  C    -110.569000   70.046300   -9.723470
  C    -109.401000   69.927500  -10.426700
  C    -108.675000   68.864300   -9.862190
  C    -109.177000   68.201700   -8.740180
  H    -107.728000   68.507400  -10.190900
  C    -109.046000   70.742300  -11.611300
  H    -108.065000   71.196500  -11.444600
  H    -109.832000   71.497000  -11.677600
  C    -109.001000   70.083700  -12.996900
  H    -108.342000   69.335500  -12.853500
  H    -110.030000   69.714400  -13.161800
  C    -108.590000   70.848900  -14.257000
  H    -108.477000   70.202900  -15.164500
  H    -109.278000   71.655000  -14.605500
  H    -107.649000   71.316000  -14.241000
  S    -108.356000   67.431800   -6.168540
  C    -107.334000   65.936800   -6.098420
  C    -107.217000   65.350400   -7.340140
  C    -107.764000   66.155700   -8.430970
  C    -108.542000   67.162200   -7.963540
  H    -106.673000   64.433900   -7.496330
  C    -107.535000   65.680100   -9.819070
  H    -106.467000   65.580600  -10.056600
  H    -107.852000   66.395700  -10.550800
  C    -108.188000   64.294400  -10.211200
  H    -107.871000   63.559100   -9.509980
  H    -107.833000   64.052200  -11.191800
  C    -109.700000   64.340500  -10.439700
  H    -110.113000   63.306000  -10.653900
  H    -110.115000   64.959800  -11.252600
  H    -110.282000   64.583500   -9.538190
  H    -111.349000   70.597000  -10.168700
  H    -106.801000   65.558500   -5.195690

 Total Charge           Charge          ....    0
 Multiplicity           Mult            ....    1
 Number of Electrons    NEL             ....  134
 Basis Dimension        Dim             ....  322

ORBITAL ENERGIES
----------------

  NO   OCC          E(Eh)            E(eV)
   0   2.0000     -88.967561     -2420.9304
   1   2.0000     -88.967001     -2420.9152
   2   2.0000     -10.330756      -281.1142
   3   2.0000     -10.328180      -281.0441
   4   2.0000     -10.326650      -281.0024
   5   2.0000     -10.312186      -280.6088
   6   2.0000     -10.304694      -280.4050
   7   2.0000     -10.299368      -280.2601
   8   2.0000     -10.297961      -280.2218
   9   2.0000     -10.293970      -280.1132
  10   2.0000     -10.292716      -280.0791
  11   2.0000     -10.289177      -279.9827
  12   2.0000     -10.288033      -279.9516
  13   2.0000     -10.284102      -279.8446
  14   2.0000     -10.283670      -279.8329
  15   2.0000     -10.279506      -279.7196
  16   2.0000      -8.081781      -219.9164
  17   2.0000      -8.079860      -219.8642
  18   2.0000      -6.040309      -164.3652
  19   2.0000      -6.038748      -164.3227
  20   2.0000      -6.036326      -164.2568
  21   2.0000      -6.034892      -164.2177
  22   2.0000      -6.032584      -164.1550
  23   2.0000      -6.030038      -164.0857
  24   2.0000      -1.005233       -27.3538
  25   2.0000      -0.978801       -26.6345
  26   2.0000      -0.919310       -25.0157
  27   2.0000      -0.905439       -24.6383
  28   2.0000      -0.873711       -23.7749
  29   2.0000      -0.851106       -23.1598
  30   2.0000      -0.841539       -22.8994
  31   2.0000      -0.812376       -22.1059
  32   2.0000      -0.790279       -21.5046
  33   2.0000      -0.778207       -21.1761
  34   2.0000      -0.715101       -19.4589
  35   2.0000      -0.703919       -19.1546
  36   2.0000      -0.697663       -18.9844
  37   2.0000      -0.661164       -17.9912
  38   2.0000      -0.641597       -17.4587
  39   2.0000      -0.619240       -16.8504
  40   2.0000      -0.601023       -16.3547
  41   2.0000      -0.579410       -15.7666
  42   2.0000      -0.564923       -15.3723
  43   2.0000      -0.546406       -14.8685
  44   2.0000      -0.543047       -14.7771
  45   2.0000      -0.522139       -14.2081
  46   2.0000      -0.520891       -14.1742
  47   2.0000      -0.508472       -13.8362
  48   2.0000      -0.503195       -13.6926
  49   2.0000      -0.501925       -13.6581
  50   2.0000      -0.492874       -13.4118
  51   2.0000      -0.477517       -12.9939
  52   2.0000      -0.469630       -12.7793
  53   2.0000      -0.467181       -12.7126
  54   2.0000      -0.458877       -12.4867
  55   2.0000      -0.450911       -12.2699
  56   2.0000      -0.442257       -12.0344
  57   2.0000      -0.435389       -11.8475
  58   2.0000      -0.430978       -11.7275
  59   2.0000      -0.426114       -11.5952
  60   2.0000      -0.421863       -11.4795
  61   2.0000      -0.416994       -11.3470
  62   2.0000      -0.415718       -11.3123
  63   2.0000      -0.351128        -9.5547
  64   2.0000      -0.334350        -9.0981
  65   2.0000      -0.329390        -8.9631
  66   2.0000      -0.289098        -7.8668
  67   0.0000       0.028121         0.7652
  68   0.0000       0.065392         1.7794
  69   0.0000       0.101151         2.7525
  70   0.0000       0.110062         2.9949
  71   0.0000       0.124282         3.3819

MULLIKEN ATOMIC CHARGES
-----------------------
   0 S :    0.106087
   1 C :   -0.107133
   2 C :   -0.075606
   3 C :    0.025325
   4 C :   -0.170822
   5 H :   -0.014189
   6 C :    0.089410
   7 H :    0.033021
   8 H :    0.010080
   9 C :   -0.029907
  10 H :    0.001332
  11 H :    0.029834
  12 C :   -0.054033
  13 H :    0.036075
  14 H :    0.033531
  15 H :    0.014297
  16 S :    0.085123
  17 C :   -0.103623
  18 C :   -0.019826
  19 C :   -0.038278
  20 C :   -0.101819
  21 H :    0.020190
  22 C :    0.048792
  23 H :    0.033655
  24 H :    0.003235
  25 C :   -0.027233
  26 H :    0.025821
  27 H :    0.023178
  28 C :   -0.089167
  29 H :    0.029560
  30 H :    0.041338
  31 H :    0.037104
  32 H :    0.028313
  33 H :    0.076332
Sum of atomic charges:   -0.0000000

LOEWDIN ATOMIC CHARGES
----------------------
   0 S :    0.398298
   1 C :   -0.170379
   2 C :   -0.061002
   3 C :   -0.064845
   4 C :   -0.202144
   5 H :    0.017121
   6 C :   -0.025783
   7 H :    0.034876
   8 H :    0.028788
   9 C :   -0.032343
  10 H :    0.007786
  11 H :    0.030493
  12 C :   -0.070986
  13 H :    0.036341
  14 H :    0.028983
  15 H :    0.016343
  16 S :    0.342889
  17 C :   -0.166035
  18 C :   -0.063092
  19 C :   -0.051308
  20 C :   -0.172955
  21 H :    0.028978
  22 C :   -0.034780
  23 H :    0.036823
  24 H :    0.023922
  25 C :   -0.026723
  26 H :    0.019205
  27 H :    0.024950
  28 C :   -0.078511
  29 H :    0.031322
  30 H :    0.028845
  31 H :    0.025622
  32 H :    0.018248
  33 H :    0.041051

  Mayer bond orders larger than 0.100000
B(  0-S ,  1-C ) :   1.1285 B(  0-S ,  4-C ) :   1.1484 B(  1-C ,  2-C ) :   1.6212
B(  1-C , 32-H ) :   0.9595 B(  2-C ,  3-C ) :   1.2397 B(  2-C ,  6-C ) :   1.0402
B(  3-C ,  4-C ) :   1.5717 B(  3-C ,  5-H ) :   0.9923 B(  4-C , 20-C ) :   1.0412
B(  6-C ,  7-H ) :   0.9282 B(  6-C ,  8-H ) :   0.9336 B(  6-C ,  9-C ) :   1.0612
B(  9-C , 10-H ) :   0.9552 B(  9-C , 11-H ) :   0.9546 B(  9-C , 12-C ) :   1.0887
B( 12-C , 13-H ) :   0.9719 B( 12-C , 14-H ) :   0.9757 B( 12-C , 15-H ) :   0.9717
B( 16-S , 17-C ) :   1.1126 B( 16-S , 20-C ) :   1.0903 B( 17-C , 18-C ) :   1.6765
B( 17-C , 33-H ) :   0.9607 B( 18-C , 19-C ) :   1.1642 B( 18-C , 21-H ) :   0.9853
B( 19-C , 20-C ) :   1.6674 B( 19-C , 22-C ) :   1.0634 B( 22-C , 23-H ) :   0.9284
B( 22-C , 24-H ) :   0.9278 B( 22-C , 25-C ) :   1.0742 B( 25-C , 26-H ) :   0.9580
B( 25-C , 27-H ) :   0.9513 B( 25-C , 28-C ) :   1.0770 B( 28-C , 29-H ) :   0.9714
B( 28-C , 30-H ) :   0.9749 B( 28-C , 31-H ) :   0.9767

Dispersion correction           -0.014095761
FINAL SINGLE POINT ENERGY     -1339.858602585915

DIPOLE MOMENT
-------------
                                X             Y             Z
Electronic contribution:     -3.91218       3.40461      29.37295
Nuclear contribution   :      4.38336      -3.68187     -30.14250
                        -----------------------------------------
Total Dipole Moment    :      0.47118      -0.27726      -0.76955
                        -----------------------------------------
Magnitude (a.u.)       :      0.94397
Magnitude (Debye)      :      2.39939

Rotational constants in cm-1:     0.018789     0.008357     0.006789
Rotational constants in MHz :   563.271654   250.548040   203.523569

                             ****ORCA TERMINATED NORMALLY****
TOTAL RUN TIME: 0 days 0 hours 0 minutes 21 seconds 628 msec
