                         Program Version 4.2.1 -  RELEASE  -
|  1> ! wB97X-D3 SP def2-SVP
|  2> %pal
|  3> nprocs 24
|  4> end
|  5>
|  6> * xyz 0 1
|  7> S 	 -70.8691 	 5.35345 	 -111.601
|  8> C 	 -71.7277 	 6.02798 	 -110.174
|  9> C 	 -70.8935 	 5.79834 	 -109.121
| 10> C 	 -69.5806 	 5.35857 	 -109.476
| 11> C 	 -69.4085 	 4.9659 	 -110.767
| 12> H 	 -68.7967 	 5.33727 	 -108.84
| 13> C 	 -71.2469 	 6.13146 	 -107.642
| 14> H 	 -72.1626 	 6.73524 	 -107.687
| 15> H 	 -70.5957 	 6.97219 	 -107.445
| 16> C 	 -71.2226 	 4.88961 	 -106.786
| 17> H 	 -71.8281 	 4.15912 	 -107.357
| 18> H 	 -70.1822 	 4.60205 	 -106.842
| 19> C 	 -71.7192 	 5.19781 	 -105.307
| 20> H 	 -71.6811 	 4.2556 	 -104.781
| 21> H 	 -71.0074 	 5.81943 	 -104.836
| 22> H 	 -72.671 	 5.73063 	 -105.192
| 23> S 	 -67.6631 	 5.34918 	 -112.691
| 24> C 	 -66.4169 	 4.21741 	 -113.076
| 25> C 	 -66.432 	 3.15915 	 -112.218
| 26> C 	 -67.5479 	 3.19966 	 -111.295
| 27> C 	 -68.2831 	 4.39548 	 -111.463
| 28> H 	 -65.6911 	 2.32807 	 -112.234
| 29> C 	 -67.7142 	 2.18214 	 -110.156
| 30> H 	 -67.4044 	 1.22691 	 -110.621
| 31> H 	 -68.7435 	 2.13772 	 -109.772
| 32> C 	 -66.7871 	 2.6051 	 -109.035
| 33> H 	 -66.9574 	 3.6574 	 -108.868
| 34> H 	 -65.7641 	 2.57516 	 -109.408
| 35> C 	 -66.9368 	 1.81393 	 -107.75
| 36> H 	 -66.1612 	 2.12344 	 -107.113
| 37> H 	 -66.9732 	 0.708776 	 -107.797
| 38> H 	 -67.8554 	 2.09834 	 -107.24
| 39> H 	 -72.751 	 6.35875 	 -110.008
| 40> H 	 -65.5344 	 4.13377 	 -113.782
| 41> *
| 42>
| 43>                          ****END OF INPUT****

CARTESIAN COORDINATES (ANGSTROEM)
---------------------------------
  S    -70.869100    5.353450  -111.601000
  C    -71.727700    6.027980  -110.174000
  C    -70.893500    5.798340  -109.121000
  C    -69.580600    5.358570  -109.476000
  C    -69.408500    4.965900  -110.767000
  H    -68.796700    5.337270  -108.840000
  C    -71.246900    6.131460  -107.642000
  H    -72.162600    6.735240  -107.687000
  H    -70.595700    6.972190  -107.445000
  C    -71.222600    4.889610  -106.786000
  H    -71.828100    4.159120  -107.357000
  H    -70.182200    4.602050  -106.842000
  C    -71.719200    5.197810  -105.307000
  H    -71.681100    4.255600  -104.781000
  H    -71.007400    5.819430  -104.836000
  H    -72.671000    5.730630  -105.192000
  S    -67.663100    5.349180  -112.691000
  C    -66.416900    4.217410  -113.076000
  C    -66.432000    3.159150  -112.218000
  C    -67.547900    3.199660  -111.295000
  C    -68.283100    4.395480  -111.463000
  H    -65.691100    2.328070  -112.234000
  C    -67.714200    2.182140  -110.156000
  H    -67.404400    1.226910  -110.621000
  H    -68.743500    2.137720  -109.772000
  C    -66.787100    2.605100  -109.035000
  H    -66.957400    3.657400  -108.868000
  H    -65.764100    2.575160  -109.408000
  C    -66.936800    1.813930  -107.750000
  H    -66.161200    2.123440  -107.113000
  H    -66.973200    0.708776  -107.797000
  H    -67.855400    2.098340  -107.240000
  H    -72.751000    6.358750  -110.008000
  H    -65.534400    4.133770  -113.782000

 Total Charge           Charge          ....    0
 Multiplicity           Mult            ....    1
 Number of Electrons    NEL             ....  134
 Basis Dimension        Dim             ....  322

ORBITAL ENERGIES
----------------

  NO   OCC          E(Eh)            E(eV)
   0   2.0000     -88.969606     -2420.9861
   1   2.0000     -88.959636     -2420.7148
   2   2.0000     -10.326917      -281.0097
   3   2.0000     -10.322541      -280.8906
   4   2.0000     -10.317528      -280.7542
   5   2.0000     -10.314838      -280.6810
   6   2.0000     -10.306644      -280.4580
   7   2.0000     -10.296949      -280.1942
   8   2.0000     -10.295698      -280.1602
   9   2.0000     -10.294403      -280.1249
  10   2.0000     -10.293257      -280.0938
  11   2.0000     -10.288958      -279.9768
  12   2.0000     -10.282830      -279.8100
  13   2.0000     -10.282774      -279.8085
  14   2.0000     -10.281484      -279.7734
  15   2.0000     -10.275133      -279.6006
  16   2.0000      -8.085653      -220.0218
  17   2.0000      -8.074291      -219.7126
  18   2.0000      -6.044213      -164.4714
  19   2.0000      -6.039755      -164.3501
  20   2.0000      -6.036444      -164.2600
  21   2.0000      -6.032990      -164.1660
  22   2.0000      -6.028666      -164.0483
  23   2.0000      -6.024918      -163.9464
  24   2.0000      -1.017101       -27.6767
  25   2.0000      -0.989632       -26.9293
  26   2.0000      -0.915566       -24.9138
  27   2.0000      -0.911913       -24.8144
  28   2.0000      -0.875397       -23.8208
  29   2.0000      -0.850492       -23.1431
  30   2.0000      -0.838894       -22.8275
  31   2.0000      -0.822579       -22.3835
  32   2.0000      -0.784539       -21.3484
  33   2.0000      -0.773590       -21.0505
  34   2.0000      -0.715646       -19.4737
  35   2.0000      -0.702295       -19.1104
  36   2.0000      -0.694064       -18.8864
  37   2.0000      -0.659411       -17.9435
  38   2.0000      -0.644095       -17.5267
  39   2.0000      -0.625737       -17.0272
  40   2.0000      -0.591592       -16.0980
  41   2.0000      -0.568988       -15.4830
  42   2.0000      -0.564374       -15.3574
  43   2.0000      -0.558142       -15.1878
  44   2.0000      -0.532102       -14.4792
  45   2.0000      -0.527590       -14.3565
  46   2.0000      -0.520558       -14.1651
  47   2.0000      -0.514723       -14.0063
  48   2.0000      -0.510036       -13.8788
  49   2.0000      -0.498017       -13.5517
  50   2.0000      -0.495554       -13.4847
  51   2.0000      -0.484204       -13.1759
  52   2.0000      -0.474373       -12.9084
  53   2.0000      -0.467178       -12.7125
  54   2.0000      -0.458533       -12.4773
  55   2.0000      -0.448734       -12.2107
  56   2.0000      -0.447570       -12.1790
  57   2.0000      -0.441942       -12.0259
  58   2.0000      -0.436643       -11.8817
  59   2.0000      -0.425294       -11.5728
  60   2.0000      -0.421917       -11.4809
  61   2.0000      -0.415637       -11.3101
  62   2.0000      -0.398131       -10.8337
  63   2.0000      -0.346767        -9.4360
  64   2.0000      -0.330612        -8.9964
  65   2.0000      -0.323129        -8.7928
  66   2.0000      -0.302611        -8.2345
  67   0.0000       0.037775         1.0279
  68   0.0000       0.070485         1.9180
  69   0.0000       0.120523         3.2796
  70   0.0000       0.121790         3.3141
  71   0.0000       0.126272         3.4360

MULLIKEN ATOMIC CHARGES
-----------------------
   0 S :    0.093029
   1 C :   -0.110424
   2 C :   -0.143878
   3 C :    0.072088
   4 C :   -0.121795
   5 H :   -0.040323
   6 C :    0.062817
   7 H :   -0.003440
   8 H :    0.025479
   9 C :   -0.067605
  10 H :    0.045353
  11 H :    0.031499
  12 C :   -0.014632
  13 H :    0.036836
  14 H :    0.017644
  15 H :    0.042202
  16 S :    0.146801
  17 C :   -0.078176
  18 C :   -0.087490
  19 C :   -0.047656
  20 C :   -0.192480
  21 H :    0.032892
  22 C :    0.087967
  23 H :    0.026360
  24 H :    0.031850
  25 C :   -0.081665
  26 H :    0.018074
  27 H :    0.017255
  28 C :   -0.002759
  29 H :    0.022941
  30 H :    0.035862
  31 H :    0.022346
  32 H :    0.052102
  33 H :    0.070927
Sum of atomic charges:   -0.0000000

LOEWDIN ATOMIC CHARGES
----------------------
   0 S :    0.393337
   1 C :   -0.192781
   2 C :   -0.062168
   3 C :   -0.063495
   4 C :   -0.195847
   5 H :    0.007586
   6 C :   -0.038965
   7 H :    0.022912
   8 H :    0.029063
   9 C :   -0.035673
  10 H :    0.032153
  11 H :    0.026012
  12 C :   -0.060979
  13 H :    0.027188
  14 H :    0.021020
  15 H :    0.030133
  16 S :    0.465811
  17 C :   -0.217819
  18 C :   -0.081072
  19 C :   -0.047659
  20 C :   -0.236483
  21 H :    0.035767
  22 C :   -0.028120
  23 H :    0.031738
  24 H :    0.031867
  25 C :   -0.041180
  26 H :    0.022567
  27 H :    0.022436
  28 C :   -0.064554
  29 H :    0.022178
  30 H :    0.029251
  31 H :    0.024797
  32 H :    0.037480
  33 H :    0.053501

  Mayer bond orders larger than 0.100000
B(  0-S ,  1-C ) :   1.1117 B(  0-S ,  4-C ) :   1.1546 B(  1-C ,  2-C ) :   1.6416
B(  1-C , 32-H ) :   0.9657 B(  2-C ,  3-C ) :   1.2157 B(  2-C ,  6-C ) :   1.0137
B(  3-C ,  4-C ) :   1.5887 B(  3-C ,  5-H ) :   1.0152 B(  4-C , 20-C ) :   1.0045
B(  6-C ,  7-H ) :   0.9411 B(  6-C ,  8-H ) :   0.9407 B(  6-C ,  9-C ) :   1.0314
B(  9-C , 10-H ) :   0.9595 B(  9-C , 11-H ) :   0.9562 B(  9-C , 12-C ) :   1.0710
B( 12-C , 13-H ) :   0.9766 B( 12-C , 14-H ) :   0.9727 B( 12-C , 15-H ) :   0.9783
B( 16-S , 17-C ) :   1.1499 B( 16-S , 20-C ) :   1.1838 B( 17-C , 18-C ) :   1.6193
B( 17-C , 33-H ) :   0.9550 B( 18-C , 19-C ) :   1.2635 B( 18-C , 21-H ) :   0.9750
B( 19-C , 20-C ) :   1.5577 B( 19-C , 22-C ) :   1.0546 B( 22-C , 23-H ) :   0.9265
B( 22-C , 24-H ) :   0.9358 B( 22-C , 25-C ) :   1.0686 B( 25-C , 26-H ) :   0.9509
B( 25-C , 27-H ) :   0.9519 B( 25-C , 28-C ) :   1.0845 B( 28-C , 29-H ) :   0.9697
B( 28-C , 30-H ) :   0.9731 B( 28-C , 31-H ) :   0.9709

Dispersion correction           -0.014472815
FINAL SINGLE POINT ENERGY     -1339.857453442870

DIPOLE MOMENT
-------------
                                X             Y             Z
Electronic contribution:     -0.14352       9.77220     -30.25675
Nuclear contribution   :      0.43311      -9.98905      31.01035
                        -----------------------------------------
Total Dipole Moment    :      0.28959      -0.21685       0.75360
                        -----------------------------------------
Magnitude (a.u.)       :      0.83595
Magnitude (Debye)      :      2.12481

Rotational constants in cm-1:     0.018071     0.009449     0.006628
Rotational constants in MHz :   541.751832   283.259341   198.688305

                             ****ORCA TERMINATED NORMALLY****
TOTAL RUN TIME: 0 days 0 hours 0 minutes 22 seconds 97 msec
