                         Program Version 4.2.1 -  RELEASE  -
|  1> ! wB97X-D3 SP def2-SVP
|  2> %pal
|  3> nprocs 24
|  4> end
|  5>
|  6> * xyz 0 1
|  7> S 	 -50.2133 	 8.10744 	 -17.734
|  8> C 	 -50.9453 	 6.89598 	 -18.7821
|  9> C 	 -51.7595 	 5.98728 	 -18.0627
| 10> C 	 -51.9272 	 6.41917 	 -16.6874
| 11> C 	 -51.1708 	 7.48127 	 -16.3137
| 12> H 	 -52.725 	 5.97984 	 -16.1352
| 13> C 	 -52.5293 	 4.91176 	 -18.751
| 14> H 	 -52.696 	 5.24708 	 -19.8022
| 15> H 	 -53.5308 	 4.98744 	 -18.2838
| 16> C 	 -52.1325 	 3.47497 	 -18.6873
| 17> H 	 -52.1359 	 3.21612 	 -17.6202
| 18> H 	 -52.902 	 2.85668 	 -19.052
| 19> C 	 -50.7511 	 3.20132 	 -19.3866
| 20> H 	 -50.4086 	 2.13941 	 -19.1686
| 21> H 	 -50.8139 	 3.39159 	 -20.4623
| 22> H 	 -50.0079 	 3.94402 	 -19.0486
| 23> S 	 -51.3441 	 9.90695 	 -14.9724
| 24> C 	 -50.9676 	 9.99496 	 -13.2797
| 25> C 	 -50.5283 	 8.78357 	 -12.8295
| 26> C 	 -50.484 	 7.73661 	 -13.8266
| 27> C 	 -51.0075 	 8.17333 	 -15.019
| 28> H 	 -50.1896 	 8.63026 	 -11.7997
| 29> C 	 -50.1366 	 6.34409 	 -13.4099
| 30> H 	 -50.8677 	 5.74671 	 -13.7159
| 31> H 	 -50.1055 	 6.28313 	 -12.3027
| 32> C 	 -48.8631 	 5.78071 	 -13.9277
| 33> H 	 -48.8462 	 5.77978 	 -15.0051
| 34> H 	 -48.8176 	 4.73973 	 -13.7556
| 35> C 	 -47.5023 	 6.44809 	 -13.4833
| 36> H 	 -46.7118 	 5.92476 	 -13.852
| 37> H 	 -47.4315 	 6.44344 	 -12.4345
| 38> H 	 -47.5825 	 7.52279 	 -13.7619
| 39> H 	 -50.7796 	 6.74162 	 -19.8805
| 40> H 	 -50.8819 	 10.8172 	 -12.7045
| 41> *
| 42>
| 43>                          ****END OF INPUT****

CARTESIAN COORDINATES (ANGSTROEM)
---------------------------------
  S    -50.213300    8.107440  -17.734000
  C    -50.945300    6.895980  -18.782100
  C    -51.759500    5.987280  -18.062700
  C    -51.927200    6.419170  -16.687400
  C    -51.170800    7.481270  -16.313700
  H    -52.725000    5.979840  -16.135200
  C    -52.529300    4.911760  -18.751000
  H    -52.696000    5.247080  -19.802200
  H    -53.530800    4.987440  -18.283800
  C    -52.132500    3.474970  -18.687300
  H    -52.135900    3.216120  -17.620200
  H    -52.902000    2.856680  -19.052000
  C    -50.751100    3.201320  -19.386600
  H    -50.408600    2.139410  -19.168600
  H    -50.813900    3.391590  -20.462300
  H    -50.007900    3.944020  -19.048600
  S    -51.344100    9.906950  -14.972400
  C    -50.967600    9.994960  -13.279700
  C    -50.528300    8.783570  -12.829500
  C    -50.484000    7.736610  -13.826600
  C    -51.007500    8.173330  -15.019000
  H    -50.189600    8.630260  -11.799700
  C    -50.136600    6.344090  -13.409900
  H    -50.867700    5.746710  -13.715900
  H    -50.105500    6.283130  -12.302700
  C    -48.863100    5.780710  -13.927700
  H    -48.846200    5.779780  -15.005100
  H    -48.817600    4.739730  -13.755600
  C    -47.502300    6.448090  -13.483300
  H    -46.711800    5.924760  -13.852000
  H    -47.431500    6.443440  -12.434500
  H    -47.582500    7.522790  -13.761900
  H    -50.779600    6.741620  -19.880500
  H    -50.881900   10.817200  -12.704500

 Total Charge           Charge          ....    0
 Multiplicity           Mult            ....    1
 Number of Electrons    NEL             ....  134
 Basis Dimension        Dim             ....  322

ORBITAL ENERGIES
----------------

  NO   OCC          E(Eh)            E(eV)
   0   2.0000     -88.967169     -2420.9197
   1   2.0000     -88.965276     -2420.8682
   2   2.0000     -10.336876      -281.2807
   3   2.0000     -10.328588      -281.0552
   4   2.0000     -10.322248      -280.8826
   5   2.0000     -10.309002      -280.5222
   6   2.0000     -10.303929      -280.3842
   7   2.0000     -10.302391      -280.3423
   8   2.0000     -10.297995      -280.2227
   9   2.0000     -10.293007      -280.0870
  10   2.0000     -10.292312      -280.0680
  11   2.0000     -10.285730      -279.8889
  12   2.0000     -10.285612      -279.8857
  13   2.0000     -10.279625      -279.7228
  14   2.0000     -10.273574      -279.5582
  15   2.0000     -10.265580      -279.3406
  16   2.0000      -8.080540      -219.8827
  17   2.0000      -8.080043      -219.8691
  18   2.0000      -6.039229      -164.3358
  19   2.0000      -6.038612      -164.3190
  20   2.0000      -6.035248      -164.2275
  21   2.0000      -6.034561      -164.2087
  22   2.0000      -6.031164      -164.1163
  23   2.0000      -6.030708      -164.1039
  24   2.0000      -1.003809       -27.3150
  25   2.0000      -0.979740       -26.6601
  26   2.0000      -0.915365       -24.9084
  27   2.0000      -0.914264       -24.8784
  28   2.0000      -0.866292       -23.5730
  29   2.0000      -0.848271       -23.0826
  30   2.0000      -0.843412       -22.9504
  31   2.0000      -0.817297       -22.2398
  32   2.0000      -0.790236       -21.5034
  33   2.0000      -0.773825       -21.0568
  34   2.0000      -0.716354       -19.4930
  35   2.0000      -0.700705       -19.0672
  36   2.0000      -0.692425       -18.8418
  37   2.0000      -0.665007       -18.0958
  38   2.0000      -0.635827       -17.3017
  39   2.0000      -0.624779       -17.0011
  40   2.0000      -0.598979       -16.2990
  41   2.0000      -0.566067       -15.4035
  42   2.0000      -0.563115       -15.3231
  43   2.0000      -0.549018       -14.9395
  44   2.0000      -0.548336       -14.9210
  45   2.0000      -0.542248       -14.7553
  46   2.0000      -0.515977       -14.0404
  47   2.0000      -0.511092       -13.9075
  48   2.0000      -0.505478       -13.7548
  49   2.0000      -0.488310       -13.2876
  50   2.0000      -0.486644       -13.2423
  51   2.0000      -0.482190       -13.1210
  52   2.0000      -0.471228       -12.8228
  53   2.0000      -0.468866       -12.7585
  54   2.0000      -0.463506       -12.6126
  55   2.0000      -0.450707       -12.2644
  56   2.0000      -0.448971       -12.2171
  57   2.0000      -0.435030       -11.8378
  58   2.0000      -0.431797       -11.7498
  59   2.0000      -0.420988       -11.4557
  60   2.0000      -0.417078       -11.3493
  61   2.0000      -0.416096       -11.3226
  62   2.0000      -0.409979       -11.1561
  63   2.0000      -0.344326        -9.3696
  64   2.0000      -0.331044        -9.0082
  65   2.0000      -0.327137        -8.9019
  66   2.0000      -0.300131        -8.1670
  67   0.0000       0.030144         0.8203
  68   0.0000       0.062219         1.6931
  69   0.0000       0.109779         2.9872
  70   0.0000       0.116484         3.1697
  71   0.0000       0.124945         3.3999

MULLIKEN ATOMIC CHARGES
-----------------------
   0 S :    0.102841
   1 C :   -0.131007
   2 C :   -0.116501
   3 C :    0.059268
   4 C :   -0.133537
   5 H :    0.007803
   6 C :    0.003040
   7 H :    0.028295
   8 H :    0.024190
   9 C :   -0.006563
  10 H :    0.016528
  11 H :    0.020512
  12 C :   -0.084415
  13 H :    0.052412
  14 H :    0.029144
  15 H :    0.043492
  16 S :    0.108573
  17 C :   -0.024510
  18 C :   -0.057239
  19 C :   -0.031391
  20 C :   -0.186358
  21 H :    0.021991
  22 C :    0.166985
  23 H :   -0.013387
  24 H :    0.016413
  25 C :   -0.089778
  26 H :    0.023448
  27 H :    0.006864
  28 C :   -0.005538
  29 H :    0.019990
  30 H :    0.005863
  31 H :    0.042282
  32 H :    0.067676
  33 H :    0.012615
Sum of atomic charges:    0.0000000

LOEWDIN ATOMIC CHARGES
----------------------
   0 S :    0.370331
   1 C :   -0.199931
   2 C :   -0.066468
   3 C :   -0.056678
   4 C :   -0.167552
   5 H :    0.029944
   6 C :   -0.043340
   7 H :    0.032996
   8 H :    0.036095
   9 C :   -0.039809
  10 H :    0.024920
  11 H :    0.020040
  12 C :   -0.072843
  13 H :    0.034323
  14 H :    0.023456
  15 H :    0.028721
  16 S :    0.406489
  17 C :   -0.170215
  18 C :   -0.070205
  19 C :   -0.047138
  20 C :   -0.199986
  21 H :    0.031344
  22 C :   -0.020023
  23 H :    0.017349
  24 H :    0.034760
  25 C :   -0.035465
  26 H :    0.023303
  27 H :    0.016884
  28 C :   -0.050554
  29 H :    0.013589
  30 H :    0.013796
  31 H :    0.033514
  32 H :    0.038565
  33 H :    0.009791

  Mayer bond orders larger than 0.100000
B(  0-S ,  1-C ) :   1.1337 B(  0-S ,  4-C ) :   1.1163 B(  1-C ,  2-C ) :   1.6195
B(  1-C , 32-H ) :   0.9579 B(  2-C ,  3-C ) :   1.2229 B(  2-C ,  6-C ) :   1.0265
B(  3-C ,  4-C ) :   1.6256 B(  3-C ,  5-H ) :   0.9929 B(  4-C , 20-C ) :   1.0161
B(  6-C ,  7-H ) :   0.9462 B(  6-C ,  8-H ) :   0.9330 B(  6-C ,  9-C ) :   1.0819
B(  9-C , 10-H ) :   0.9499 B(  9-C , 11-H ) :   0.9501 B(  9-C , 12-C ) :   1.0620
B( 12-C , 13-H ) :   0.9759 B( 12-C , 14-H ) :   0.9755 B( 12-C , 15-H ) :   0.9770
B( 16-S , 17-C ) :   1.1466 B( 16-S , 20-C ) :   1.1373 B( 17-C , 18-C ) :   1.6205
B( 17-C , 33-H ) :   0.9786 B( 18-C , 19-C ) :   1.2348 B( 18-C , 21-H ) :   0.9827
B( 19-C , 20-C ) :   1.6055 B( 19-C , 22-C ) :   1.0334 B( 22-C , 23-H ) :   0.9134
B( 22-C , 24-H ) :   0.9341 B( 22-C , 25-C ) :   1.0866 B( 25-C , 26-H ) :   0.9531
B( 25-C , 27-H ) :   0.9496 B( 25-C , 28-C ) :   1.0733 B( 28-C , 29-H ) :   0.9747
B( 28-C , 30-H ) :   0.9755 B( 28-C , 31-H ) :   0.9762

Dispersion correction           -0.014740355
FINAL SINGLE POINT ENERGY     -1339.863669226288

DIPOLE MOMENT
-------------
                                X             Y             Z
Electronic contribution:     -5.71351      25.30644       0.58108
Nuclear contribution   :      5.57094     -25.91665      -0.39508
                        -----------------------------------------
Total Dipole Moment    :     -0.14256      -0.61021       0.18599
                        -----------------------------------------
Magnitude (a.u.)       :      0.65366
Magnitude (Debye)      :      1.66147

Rotational constants in cm-1:     0.020782     0.008391     0.006991
Rotational constants in MHz :   623.030214   251.569579   209.594961

                             ****ORCA TERMINATED NORMALLY****
TOTAL RUN TIME: 0 days 0 hours 0 minutes 22 seconds 2 msec
