                         Program Version 4.2.1 -  RELEASE  -
|  1> ! wB97X-D3 SP def2-SVP
|  2> %pal
|  3> nprocs 24
|  4> end
|  5>
|  6> * xyz 0 1
|  7> S 	 -128.696 	 57.7751 	 -59.8494
|  8> C 	 -129.794 	 59.1365 	 -59.5703
|  9> C 	 -129.31 	 59.9681 	 -58.5961
| 10> C 	 -127.966 	 59.5565 	 -58.2187
| 11> C 	 -127.445 	 58.5514 	 -58.9674
| 12> H 	 -127.3 	 59.9409 	 -57.4935
| 13> C 	 -129.913 	 61.2205 	 -57.9724
| 14> H 	 -129.249 	 61.5274 	 -57.1399
| 15> H 	 -130.776 	 60.8971 	 -57.3439
| 16> C 	 -130.36 	 62.2814 	 -58.937
| 17> H 	 -129.48 	 62.7767 	 -59.4116
| 18> H 	 -130.889 	 61.7248 	 -59.6807
| 19> C 	 -131.286 	 63.304 	 -58.2921
| 20> H 	 -131.955 	 62.892 	 -57.4876
| 21> H 	 -130.764 	 64.14 	 -57.7657
| 22> H 	 -131.994 	 63.758 	 -59.0446
| 23> S 	 -126.094 	 56.1457 	 -58.5409
| 24> C 	 -124.469 	 56.1664 	 -58.0697
| 25> C 	 -123.901 	 57.4088 	 -58.0935
| 26> C 	 -124.852 	 58.4476 	 -58.4989
| 27> C 	 -126.12 	 57.9056 	 -58.8105
| 28> H 	 -122.811 	 57.5385 	 -57.8089
| 29> C 	 -124.435 	 59.9173 	 -58.5405
| 30> H 	 -125.043 	 60.3073 	 -59.3448
| 31> H 	 -123.402 	 60.0134 	 -58.8551
| 32> C 	 -124.383 	 60.5716 	 -57.2019
| 33> H 	 -123.701 	 60.034 	 -56.6036
| 34> H 	 -125.332 	 60.5398 	 -56.6183
| 35> C 	 -124.15 	 62.1279 	 -57.1719
| 36> H 	 -123.439 	 62.405 	 -56.4357
| 37> H 	 -124.999 	 62.6622 	 -56.9061
| 38> H 	 -123.774 	 62.5086 	 -58.2167
| 39> H 	 -130.791 	 59.2411 	 -60.0375
| 40> H 	 -123.918 	 55.3454 	 -57.6464
| 41> *
| 42>
| 43>                          ****END OF INPUT****

CARTESIAN COORDINATES (ANGSTROEM)
---------------------------------
  S    -128.696000   57.775100  -59.849400
  C    -129.794000   59.136500  -59.570300
  C    -129.310000   59.968100  -58.596100
  C    -127.966000   59.556500  -58.218700
  C    -127.445000   58.551400  -58.967400
  H    -127.300000   59.940900  -57.493500
  C    -129.913000   61.220500  -57.972400
  H    -129.249000   61.527400  -57.139900
  H    -130.776000   60.897100  -57.343900
  C    -130.360000   62.281400  -58.937000
  H    -129.480000   62.776700  -59.411600
  H    -130.889000   61.724800  -59.680700
  C    -131.286000   63.304000  -58.292100
  H    -131.955000   62.892000  -57.487600
  H    -130.764000   64.140000  -57.765700
  H    -131.994000   63.758000  -59.044600
  S    -126.094000   56.145700  -58.540900
  C    -124.469000   56.166400  -58.069700
  C    -123.901000   57.408800  -58.093500
  C    -124.852000   58.447600  -58.498900
  C    -126.120000   57.905600  -58.810500
  H    -122.811000   57.538500  -57.808900
  C    -124.435000   59.917300  -58.540500
  H    -125.043000   60.307300  -59.344800
  H    -123.402000   60.013400  -58.855100
  C    -124.383000   60.571600  -57.201900
  H    -123.701000   60.034000  -56.603600
  H    -125.332000   60.539800  -56.618300
  C    -124.150000   62.127900  -57.171900
  H    -123.439000   62.405000  -56.435700
  H    -124.999000   62.662200  -56.906100
  H    -123.774000   62.508600  -58.216700
  H    -130.791000   59.241100  -60.037500
  H    -123.918000   55.345400  -57.646400

 Total Charge           Charge          ....    0
 Multiplicity           Mult            ....    1
 Number of Electrons    NEL             ....  134
 Basis Dimension        Dim             ....  322

ORBITAL ENERGIES
----------------

  NO   OCC          E(Eh)            E(eV)
   0   2.0000     -88.966322     -2420.8967
   1   2.0000     -88.962034     -2420.7800
   2   2.0000     -10.333050      -281.1766
   3   2.0000     -10.325332      -280.9666
   4   2.0000     -10.316929      -280.7379
   5   2.0000     -10.312317      -280.6124
   6   2.0000     -10.311528      -280.5909
   7   2.0000     -10.304240      -280.3926
   8   2.0000     -10.298448      -280.2350
   9   2.0000     -10.294868      -280.1376
  10   2.0000     -10.290531      -280.0196
  11   2.0000     -10.289503      -279.9916
  12   2.0000     -10.288698      -279.9697
  13   2.0000     -10.287563      -279.9388
  14   2.0000     -10.287216      -279.9294
  15   2.0000     -10.281158      -279.7645
  16   2.0000      -8.081698      -219.9142
  17   2.0000      -8.077426      -219.7979
  18   2.0000      -6.040229      -164.3630
  19   2.0000      -6.036116      -164.2511
  20   2.0000      -6.036042      -164.2491
  21   2.0000      -6.032392      -164.1497
  22   2.0000      -6.032052      -164.1405
  23   2.0000      -6.027826      -164.0255
  24   2.0000      -1.008278       -27.4366
  25   2.0000      -0.985990       -26.8302
  26   2.0000      -0.916672       -24.9439
  27   2.0000      -0.914112       -24.8742
  28   2.0000      -0.868822       -23.6418
  29   2.0000      -0.850677       -23.1481
  30   2.0000      -0.842495       -22.9254
  31   2.0000      -0.814622       -22.1670
  32   2.0000      -0.785325       -21.3698
  33   2.0000      -0.774765       -21.0824
  34   2.0000      -0.708064       -19.2674
  35   2.0000      -0.705190       -19.1892
  36   2.0000      -0.691518       -18.8172
  37   2.0000      -0.659572       -17.9479
  38   2.0000      -0.639657       -17.4059
  39   2.0000      -0.613981       -16.7073
  40   2.0000      -0.595970       -16.2172
  41   2.0000      -0.572232       -15.5712
  42   2.0000      -0.568690       -15.4748
  43   2.0000      -0.558155       -15.1882
  44   2.0000      -0.526466       -14.3259
  45   2.0000      -0.522519       -14.2185
  46   2.0000      -0.520223       -14.1560
  47   2.0000      -0.510291       -13.8857
  48   2.0000      -0.505141       -13.7456
  49   2.0000      -0.503326       -13.6962
  50   2.0000      -0.495450       -13.4819
  51   2.0000      -0.480764       -13.0823
  52   2.0000      -0.474295       -12.9062
  53   2.0000      -0.465199       -12.6587
  54   2.0000      -0.458197       -12.4682
  55   2.0000      -0.451793       -12.2939
  56   2.0000      -0.446486       -12.1495
  57   2.0000      -0.440554       -11.9881
  58   2.0000      -0.431446       -11.7403
  59   2.0000      -0.422414       -11.4945
  60   2.0000      -0.419813       -11.4237
  61   2.0000      -0.416692       -11.3388
  62   2.0000      -0.405767       -11.0415
  63   2.0000      -0.353462        -9.6182
  64   2.0000      -0.330907        -9.0044
  65   2.0000      -0.325703        -8.8628
  66   2.0000      -0.291721        -7.9381
  67   0.0000       0.030508         0.8302
  68   0.0000       0.071295         1.9400
  69   0.0000       0.103175         2.8075
  70   0.0000       0.122598         3.3361
  71   0.0000       0.130114         3.5406

MULLIKEN ATOMIC CHARGES
-----------------------
   0 S :    0.090606
   1 C :   -0.144564
   2 C :   -0.060702
   3 C :    0.037356
   4 C :   -0.137381
   5 H :   -0.033657
   6 C :    0.052081
   7 H :    0.018264
   8 H :    0.029417
   9 C :   -0.029603
  10 H :    0.046807
  11 H :    0.020064
  12 C :   -0.092127
  13 H :    0.032420
  14 H :    0.041484
  15 H :    0.044114
  16 S :    0.105961
  17 C :   -0.076194
  18 C :   -0.065107
  19 C :   -0.085923
  20 C :   -0.121886
  21 H :    0.043364
  22 C :    0.098497
  23 H :    0.034823
  24 H :    0.017524
  25 C :   -0.079419
  26 H :    0.016028
  27 H :    0.030027
  28 C :   -0.036472
  29 H :    0.025640
  30 H :    0.023949
  31 H :    0.039683
  32 H :    0.060872
  33 H :    0.054053
Sum of atomic charges:    0.0000000

LOEWDIN ATOMIC CHARGES
----------------------
   0 S :    0.397431
   1 C :   -0.193851
   2 C :   -0.059139
   3 C :   -0.062318
   4 C :   -0.198115
   5 H :    0.021292
   6 C :   -0.039386
   7 H :    0.029630
   8 H :    0.035237
   9 C :   -0.041398
  10 H :    0.035512
  11 H :    0.022696
  12 C :   -0.078588
  13 H :    0.027835
  14 H :    0.029272
  15 H :    0.032826
  16 S :    0.415384
  17 C :   -0.201373
  18 C :   -0.086287
  19 C :   -0.046260
  20 C :   -0.193877
  21 H :    0.042621
  22 C :   -0.034669
  23 H :    0.032569
  24 H :    0.033923
  25 C :   -0.041081
  26 H :    0.018562
  27 H :    0.024223
  28 C :   -0.061280
  29 H :    0.022234
  30 H :    0.015652
  31 H :    0.035238
  32 H :    0.034000
  33 H :    0.031485

  Mayer bond orders larger than 0.100000
B(  0-S ,  1-C ) :   1.1240 B(  0-S ,  4-C ) :   1.1428 B(  1-C ,  2-C ) :   1.6363
B(  1-C , 32-H ) :   0.9658 B(  2-C ,  3-C ) :   1.2022 B(  2-C ,  6-C ) :   1.0172
B(  3-C ,  4-C ) :   1.6101 B(  3-C ,  5-H ) :   1.0012 B(  4-C , 20-C ) :   1.0203
B(  6-C ,  7-H ) :   0.9408 B(  6-C ,  8-H ) :   0.9304 B(  6-C ,  9-C ) :   1.0633
B(  9-C , 10-H ) :   0.9520 B(  9-C , 11-H ) :   0.9566 B(  9-C , 12-C ) :   1.0741
B( 12-C , 13-H ) :   0.9749 B( 12-C , 14-H ) :   0.9757 B( 12-C , 15-H ) :   0.9755
B( 16-S , 17-C ) :   1.1690 B( 16-S , 20-C ) :   1.1280 B( 17-C , 18-C ) :   1.6278
B( 17-C , 33-H ) :   0.9620 B( 18-C , 19-C ) :   1.2299 B( 18-C , 21-H ) :   0.9783
B( 19-C , 20-C ) :   1.6170 B( 19-C , 22-C ) :   1.0477 B( 22-C , 23-H ) :   0.9394
B( 22-C , 24-H ) :   0.9252 B( 22-C , 25-C ) :   1.0599 B( 25-C , 26-H ) :   0.9562
B( 25-C , 27-H ) :   0.9582 B( 25-C , 28-C ) :   1.0536 B( 28-C , 29-H ) :   0.9753
B( 28-C , 30-H ) :   0.9834 B( 28-C , 31-H ) :   0.9775

Dispersion correction           -0.013754339
FINAL SINGLE POINT ENERGY     -1339.862339624139

DIPOLE MOMENT
-------------
                                X             Y             Z
Electronic contribution:      1.26565     -31.32337      -8.84527
Nuclear contribution   :     -1.11341      31.93532       9.34632
                        -----------------------------------------
Total Dipole Moment    :      0.15224       0.61195       0.50105
                        -----------------------------------------
Magnitude (a.u.)       :      0.80543
Magnitude (Debye)      :      2.04723

Rotational constants in cm-1:     0.018230     0.008650     0.006126
Rotational constants in MHz :   546.526512   259.325735   183.653367

                             ****ORCA TERMINATED NORMALLY****
TOTAL RUN TIME: 0 days 0 hours 0 minutes 21 seconds 364 msec
