                         Program Version 4.2.1 -  RELEASE  -
|  1> ! wB97X-D3 SP def2-SVP
|  2> %pal
|  3> nprocs 24
|  4> end
|  5>
|  6> * xyz 0 1
|  7> S 	 40.7912 	 -14.8863 	 -122.007
|  8> C 	 39.9783 	 -13.4416 	 -121.489
|  9> C 	 39.4792 	 -12.6768 	 -122.504
| 10> C 	 39.8126 	 -13.27 	 -123.774
| 11> C 	 40.5208 	 -14.4527 	 -123.716
| 12> H 	 39.5423 	 -12.8614 	 -124.739
| 13> C 	 38.7588 	 -11.3777 	 -122.309
| 14> H 	 38.103 	 -11.6217 	 -121.465
| 15> H 	 37.9252 	 -11.2744 	 -123.089
| 16> C 	 39.5114 	 -10.0739 	 -122.302
| 17> H 	 39.829 	 -9.71417 	 -123.321
| 18> H 	 38.9028 	 -9.25462 	 -121.889
| 19> C 	 40.6243 	 -10.0131 	 -121.247
| 20> H 	 40.3194 	 -10.2503 	 -120.174
| 21> H 	 41.3716 	 -10.7908 	 -121.414
| 22> H 	 41.1686 	 -9.04932 	 -121.139
| 23> S 	 40.3216 	 -16.9134 	 -124.812
| 24> C 	 41.1146 	 -17.2744 	 -126.307
| 25> C 	 41.8178 	 -16.1883 	 -126.766
| 26> C 	 41.6974 	 -14.9924 	 -125.95
| 27> C 	 40.9373 	 -15.2737 	 -124.855
| 28> H 	 42.3079 	 -16.3249 	 -127.782
| 29> C 	 42.3206 	 -13.6637 	 -126.188
| 30> H 	 43.0625 	 -13.7002 	 -125.384
| 31> H 	 41.7005 	 -12.8401 	 -125.737
| 32> C 	 42.8226 	 -13.2623 	 -127.541
| 33> H 	 42.0531 	 -13.1428 	 -128.206
| 34> H 	 43.4754 	 -14.1098 	 -127.996
| 35> C 	 43.6385 	 -12.0074 	 -127.5
| 36> H 	 42.9791 	 -11.2184 	 -127.093
| 37> H 	 43.7974 	 -11.5889 	 -128.51
| 38> H 	 44.461 	 -12.0378 	 -126.816
| 39> H 	 39.9185 	 -13.118 	 -120.506
| 40> H 	 40.9639 	 -18.2933 	 -126.78
| 41> *
| 42>
| 43>                          ****END OF INPUT****

CARTESIAN COORDINATES (ANGSTROEM)
---------------------------------
  S     40.791200  -14.886300  -122.007000
  C     39.978300  -13.441600  -121.489000
  C     39.479200  -12.676800  -122.504000
  C     39.812600  -13.270000  -123.774000
  C     40.520800  -14.452700  -123.716000
  H     39.542300  -12.861400  -124.739000
  C     38.758800  -11.377700  -122.309000
  H     38.103000  -11.621700  -121.465000
  H     37.925200  -11.274400  -123.089000
  C     39.511400  -10.073900  -122.302000
  H     39.829000   -9.714170  -123.321000
  H     38.902800   -9.254620  -121.889000
  C     40.624300  -10.013100  -121.247000
  H     40.319400  -10.250300  -120.174000
  H     41.371600  -10.790800  -121.414000
  H     41.168600   -9.049320  -121.139000
  S     40.321600  -16.913400  -124.812000
  C     41.114600  -17.274400  -126.307000
  C     41.817800  -16.188300  -126.766000
  C     41.697400  -14.992400  -125.950000
  C     40.937300  -15.273700  -124.855000
  H     42.307900  -16.324900  -127.782000
  C     42.320600  -13.663700  -126.188000
  H     43.062500  -13.700200  -125.384000
  H     41.700500  -12.840100  -125.737000
  C     42.822600  -13.262300  -127.541000
  H     42.053100  -13.142800  -128.206000
  H     43.475400  -14.109800  -127.996000
  C     43.638500  -12.007400  -127.500000
  H     42.979100  -11.218400  -127.093000
  H     43.797400  -11.588900  -128.510000
  H     44.461000  -12.037800  -126.816000
  H     39.918500  -13.118000  -120.506000
  H     40.963900  -18.293300  -126.780000

 Total Charge           Charge          ....    0
 Multiplicity           Mult            ....    1
 Number of Electrons    NEL             ....  134
 Basis Dimension        Dim             ....  322

ORBITAL ENERGIES
----------------

  NO   OCC          E(Eh)            E(eV)
   0   2.0000     -88.966739     -2420.9080
   1   2.0000     -88.959750     -2420.7179
   2   2.0000     -10.329188      -281.0715
   3   2.0000     -10.319737      -280.8143
   4   2.0000     -10.318877      -280.7909
   5   2.0000     -10.307196      -280.4731
   6   2.0000     -10.306019      -280.4410
   7   2.0000     -10.300027      -280.2780
   8   2.0000     -10.298517      -280.2369
   9   2.0000     -10.298342      -280.2321
  10   2.0000     -10.296283      -280.1761
  11   2.0000     -10.292841      -280.0824
  12   2.0000     -10.292174      -280.0643
  13   2.0000     -10.286261      -279.9034
  14   2.0000     -10.282755      -279.8080
  15   2.0000     -10.278617      -279.6954
  16   2.0000      -8.081096      -219.8978
  17   2.0000      -8.075299      -219.7401
  18   2.0000      -6.039657      -164.3474
  19   2.0000      -6.035694      -164.2396
  20   2.0000      -6.033721      -164.1859
  21   2.0000      -6.031792      -164.1334
  22   2.0000      -6.029729      -164.0773
  23   2.0000      -6.026071      -163.9777
  24   2.0000      -1.006942       -27.4003
  25   2.0000      -0.985048       -26.8045
  26   2.0000      -0.920018       -25.0350
  27   2.0000      -0.913247       -24.8507
  28   2.0000      -0.870555       -23.6890
  29   2.0000      -0.857162       -23.3246
  30   2.0000      -0.845276       -23.0011
  31   2.0000      -0.813838       -22.1457
  32   2.0000      -0.783762       -21.3273
  33   2.0000      -0.774849       -21.0847
  34   2.0000      -0.711932       -19.3727
  35   2.0000      -0.702933       -19.1278
  36   2.0000      -0.695246       -18.9186
  37   2.0000      -0.651162       -17.7190
  38   2.0000      -0.639938       -17.4136
  39   2.0000      -0.617897       -16.8138
  40   2.0000      -0.597981       -16.2719
  41   2.0000      -0.570984       -15.5373
  42   2.0000      -0.566485       -15.4148
  43   2.0000      -0.551490       -15.0068
  44   2.0000      -0.543385       -14.7863
  45   2.0000      -0.538079       -14.6419
  46   2.0000      -0.518355       -14.1052
  47   2.0000      -0.511427       -13.9166
  48   2.0000      -0.499446       -13.5906
  49   2.0000      -0.492549       -13.4029
  50   2.0000      -0.485518       -13.2116
  51   2.0000      -0.483022       -13.1437
  52   2.0000      -0.469864       -12.7856
  53   2.0000      -0.464577       -12.6418
  54   2.0000      -0.457669       -12.4538
  55   2.0000      -0.451281       -12.2800
  56   2.0000      -0.445764       -12.1299
  57   2.0000      -0.442073       -12.0294
  58   2.0000      -0.435499       -11.8505
  59   2.0000      -0.424751       -11.5581
  60   2.0000      -0.415875       -11.3165
  61   2.0000      -0.409736       -11.1495
  62   2.0000      -0.406842       -11.0707
  63   2.0000      -0.345527        -9.4023
  64   2.0000      -0.330575        -8.9954
  65   2.0000      -0.326597        -8.8872
  66   2.0000      -0.294433        -8.0119
  67   0.0000       0.037820         1.0291
  68   0.0000       0.067841         1.8461
  69   0.0000       0.116694         3.1754
  70   0.0000       0.124759         3.3949
  71   0.0000       0.131427         3.5763

MULLIKEN ATOMIC CHARGES
-----------------------
   0 S :    0.117730
   1 C :   -0.092325
   2 C :   -0.092783
   3 C :    0.042777
   4 C :   -0.170065
   5 H :    0.010210
   6 C :    0.038932
   7 H :    0.029359
   8 H :    0.031896
   9 C :   -0.022373
  10 H :    0.043587
  11 H :    0.035715
  12 C :   -0.112048
  13 H :    0.028264
  14 H :    0.036571
  15 H :    0.041978
  16 S :    0.102948
  17 C :   -0.121552
  18 C :   -0.075980
  19 C :    0.009263
  20 C :   -0.184254
  21 H :    0.043444
  22 C :    0.034789
  23 H :    0.035622
  24 H :    0.017064
  25 C :   -0.031918
  26 H :    0.012024
  27 H :    0.037207
  28 C :   -0.025617
  29 H :    0.011549
  30 H :    0.036608
  31 H :    0.033015
  32 H :    0.015772
  33 H :    0.082590
Sum of atomic charges:   -0.0000000

LOEWDIN ATOMIC CHARGES
----------------------
   0 S :    0.395620
   1 C :   -0.183569
   2 C :   -0.068786
   3 C :   -0.057402
   4 C :   -0.190414
   5 H :    0.028230
   6 C :   -0.045677
   7 H :    0.037523
   8 H :    0.041408
   9 C :   -0.047048
  10 H :    0.032980
  11 H :    0.034412
  12 C :   -0.082433
  13 H :    0.028645
  14 H :    0.019581
  15 H :    0.029176
  16 S :    0.405786
  17 C :   -0.199191
  18 C :   -0.087727
  19 C :   -0.050181
  20 C :   -0.202773
  21 H :    0.042371
  22 C :   -0.045699
  23 H :    0.044605
  24 H :    0.038325
  25 C :   -0.039802
  26 H :    0.014910
  27 H :    0.031813
  28 C :   -0.062879
  29 H :    0.025987
  30 H :    0.032295
  31 H :    0.023729
  32 H :    0.013391
  33 H :    0.042798

  Mayer bond orders larger than 0.100000
B(  0-S ,  1-C ) :   1.1379 B(  0-S ,  4-C ) :   1.1318 B(  1-C ,  2-C ) :   1.6268
B(  1-C , 32-H ) :   0.9719 B(  2-C ,  3-C ) :   1.2288 B(  2-C ,  6-C ) :   1.0157
B(  3-C ,  4-C ) :   1.5970 B(  3-C ,  5-H ) :   0.9899 B(  4-C , 20-C ) :   1.0254
B(  6-C ,  7-H ) :   0.9392 B(  6-C ,  8-H ) :   0.9369 B(  6-C ,  9-C ) :   1.0720
B(  9-C , 10-H ) :   0.9549 B(  9-C , 11-H ) :   0.9511 B(  9-C , 12-C ) :   1.0614
B( 12-C , 13-H ) :   0.9737 B( 12-C , 14-H ) :   0.9747 B( 12-C , 15-H ) :   0.9755
B( 16-S , 17-C ) :   1.1548 B( 16-S , 20-C ) :   1.1461 B( 17-C , 18-C ) :   1.6261
B( 17-C , 33-H ) :   0.9598 B( 18-C , 19-C ) :   1.1977 B( 18-C , 21-H ) :   0.9791
B( 19-C , 20-C ) :   1.6240 B( 19-C , 22-C ) :   1.0381 B( 22-C , 23-H ) :   0.9186
B( 22-C , 24-H ) :   0.9211 B( 22-C , 25-C ) :   1.0618 B( 25-C , 26-H ) :   0.9504
B( 25-C , 27-H ) :   0.9446 B( 25-C , 28-C ) :   1.0977 B( 28-C , 29-H ) :   0.9657
B( 28-C , 30-H ) :   0.9692 B( 28-C , 31-H ) :   0.9753

Dispersion correction           -0.014080118
FINAL SINGLE POINT ENERGY     -1339.870453800407

DIPOLE MOMENT
-------------
                                X             Y             Z
Electronic contribution:     -6.10172     -27.98269       5.79275
Nuclear contribution   :      6.09515      28.63065      -6.11311
                        -----------------------------------------
Total Dipole Moment    :     -0.00657       0.64797      -0.32036
                        -----------------------------------------
Magnitude (a.u.)       :      0.72287
Magnitude (Debye)      :      1.83738

Rotational constants in cm-1:     0.017382     0.009024     0.006487
Rotational constants in MHz :   521.107571   270.528505   194.486136

                             ****ORCA TERMINATED NORMALLY****
TOTAL RUN TIME: 0 days 0 hours 0 minutes 21 seconds 373 msec
