                         Program Version 4.2.1 -  RELEASE  -
|  1> ! wB97X-D3 SP def2-SVP
|  2> %pal
|  3> nprocs 24
|  4> end
|  5>
|  6> * xyz 0 1
|  7> S 	 -58.7688 	 11.6923 	 -90.321
|  8> C 	 -58.701 	 13.2771 	 -91.0754
|  9> C 	 -58.5844 	 14.344 	 -90.1504
| 10> C 	 -58.42 	 13.848 	 -88.8012
| 11> C 	 -58.3951 	 12.4636 	 -88.7424
| 12> H 	 -58.4359 	 14.4013 	 -87.8123
| 13> C 	 -58.465 	 15.7987 	 -90.605
| 14> H 	 -58.255 	 15.9237 	 -91.6354
| 15> H 	 -57.4977 	 16.114 	 -90.1088
| 16> C 	 -59.5905 	 16.8506 	 -90.2341
| 17> H 	 -59.6008 	 17.0169 	 -89.1493
| 18> H 	 -59.5221 	 17.7564 	 -90.7288
| 19> C 	 -60.9738 	 16.2575 	 -90.6519
| 20> H 	 -61.0207 	 15.9825 	 -91.6879
| 21> H 	 -61.3146 	 15.436 	 -90.1747
| 22> H 	 -61.7316 	 16.9581 	 -90.4279
| 23> S 	 -59.4769 	 10.4886 	 -87.3142
| 24> C 	 -58.9355 	 10.052 	 -85.7129
| 25> C 	 -57.852 	 10.8385 	 -85.3986
| 26> C 	 -57.5384 	 11.8025 	 -86.3799
| 27> C 	 -58.2883 	 11.6775 	 -87.5428
| 28> H 	 -57.2614 	 10.7357 	 -84.4529
| 29> C 	 -56.4287 	 12.8298 	 -86.1987
| 30> H 	 -56.9023 	 13.8165 	 -86.4101
| 31> H 	 -55.7598 	 12.5937 	 -87.0722
| 32> C 	 -55.6348 	 12.8969 	 -84.9253
| 33> H 	 -55.1828 	 11.8736 	 -84.7544
| 34> H 	 -56.2734 	 13.1136 	 -84.1406
| 35> C 	 -54.3987 	 13.8496 	 -85.0664
| 36> H 	 -54.5314 	 14.8627 	 -85.4312
| 37> H 	 -53.6993 	 13.528 	 -85.7761
| 38> H 	 -53.8955 	 14.0359 	 -84.1007
| 39> H 	 -58.7786 	 13.3267 	 -92.1305
| 40> H 	 -59.3292 	 9.27335 	 -85.1059
| 41> *
| 42>
| 43>                          ****END OF INPUT****

CARTESIAN COORDINATES (ANGSTROEM)
---------------------------------
  S    -58.768800   11.692300  -90.321000
  C    -58.701000   13.277100  -91.075400
  C    -58.584400   14.344000  -90.150400
  C    -58.420000   13.848000  -88.801200
  C    -58.395100   12.463600  -88.742400
  H    -58.435900   14.401300  -87.812300
  C    -58.465000   15.798700  -90.605000
  H    -58.255000   15.923700  -91.635400
  H    -57.497700   16.114000  -90.108800
  C    -59.590500   16.850600  -90.234100
  H    -59.600800   17.016900  -89.149300
  H    -59.522100   17.756400  -90.728800
  C    -60.973800   16.257500  -90.651900
  H    -61.020700   15.982500  -91.687900
  H    -61.314600   15.436000  -90.174700
  H    -61.731600   16.958100  -90.427900
  S    -59.476900   10.488600  -87.314200
  C    -58.935500   10.052000  -85.712900
  C    -57.852000   10.838500  -85.398600
  C    -57.538400   11.802500  -86.379900
  C    -58.288300   11.677500  -87.542800
  H    -57.261400   10.735700  -84.452900
  C    -56.428700   12.829800  -86.198700
  H    -56.902300   13.816500  -86.410100
  H    -55.759800   12.593700  -87.072200
  C    -55.634800   12.896900  -84.925300
  H    -55.182800   11.873600  -84.754400
  H    -56.273400   13.113600  -84.140600
  C    -54.398700   13.849600  -85.066400
  H    -54.531400   14.862700  -85.431200
  H    -53.699300   13.528000  -85.776100
  H    -53.895500   14.035900  -84.100700
  H    -58.778600   13.326700  -92.130500
  H    -59.329200    9.273350  -85.105900

 Total Charge           Charge          ....    0
 Multiplicity           Mult            ....    1
 Number of Electrons    NEL             ....  134
 Basis Dimension        Dim             ....  322

ORBITAL ENERGIES
----------------

  NO   OCC          E(Eh)            E(eV)
   0   2.0000     -88.968180     -2420.9473
   1   2.0000     -88.962063     -2420.7808
   2   2.0000     -10.332912      -281.1728
   3   2.0000     -10.318309      -280.7755
   4   2.0000     -10.317590      -280.7559
   5   2.0000     -10.313657      -280.6489
   6   2.0000     -10.313597      -280.6472
   7   2.0000     -10.304792      -280.4076
   8   2.0000     -10.298806      -280.2447
   9   2.0000     -10.297183      -280.2006
  10   2.0000     -10.293401      -280.0977
  11   2.0000     -10.293047      -280.0880
  12   2.0000     -10.291370      -280.0424
  13   2.0000     -10.288421      -279.9622
  14   2.0000     -10.278261      -279.6857
  15   2.0000     -10.259246      -279.1683
  16   2.0000      -8.082226      -219.9286
  17   2.0000      -8.077907      -219.8110
  18   2.0000      -6.040696      -164.3757
  19   2.0000      -6.037035      -164.2761
  20   2.0000      -6.036326      -164.2568
  21   2.0000      -6.032876      -164.1629
  22   2.0000      -6.032048      -164.1404
  23   2.0000      -6.028903      -164.0548
  24   2.0000      -1.011583       -27.5266
  25   2.0000      -0.980150       -26.6712
  26   2.0000      -0.911195       -24.7949
  27   2.0000      -0.903437       -24.5838
  28   2.0000      -0.871563       -23.7164
  29   2.0000      -0.852189       -23.1892
  30   2.0000      -0.843932       -22.9646
  31   2.0000      -0.815136       -22.1810
  32   2.0000      -0.781805       -21.2740
  33   2.0000      -0.773100       -21.0371
  34   2.0000      -0.716224       -19.4894
  35   2.0000      -0.708058       -19.2672
  36   2.0000      -0.698508       -19.0074
  37   2.0000      -0.654215       -17.8021
  38   2.0000      -0.642779       -17.4909
  39   2.0000      -0.616587       -16.7782
  40   2.0000      -0.596461       -16.2305
  41   2.0000      -0.574269       -15.6267
  42   2.0000      -0.562574       -15.3084
  43   2.0000      -0.546796       -14.8791
  44   2.0000      -0.543086       -14.7781
  45   2.0000      -0.526570       -14.3287
  46   2.0000      -0.518329       -14.1044
  47   2.0000      -0.506151       -13.7731
  48   2.0000      -0.504081       -13.7167
  49   2.0000      -0.495339       -13.4789
  50   2.0000      -0.488677       -13.2976
  51   2.0000      -0.483295       -13.1511
  52   2.0000      -0.471835       -12.8393
  53   2.0000      -0.468884       -12.7590
  54   2.0000      -0.460696       -12.5362
  55   2.0000      -0.449867       -12.2415
  56   2.0000      -0.447790       -12.1850
  57   2.0000      -0.437732       -11.9113
  58   2.0000      -0.432516       -11.7694
  59   2.0000      -0.426292       -11.6000
  60   2.0000      -0.420695       -11.4477
  61   2.0000      -0.417652       -11.3649
  62   2.0000      -0.412247       -11.2178
  63   2.0000      -0.354664        -9.6509
  64   2.0000      -0.331833        -9.0296
  65   2.0000      -0.324708        -8.8357
  66   2.0000      -0.284883        -7.7521
  67   0.0000       0.025116         0.6834
  68   0.0000       0.070044         1.9060
  69   0.0000       0.107198         2.9170
  70   0.0000       0.119096         3.2408
  71   0.0000       0.139223         3.7885

MULLIKEN ATOMIC CHARGES
-----------------------
   0 S :    0.102712
   1 C :   -0.113063
   2 C :   -0.056425
   3 C :   -0.012227
   4 C :   -0.150107
   5 H :    0.054839
   6 C :    0.033249
   7 H :    0.016316
   8 H :    0.038806
   9 C :   -0.035596
  10 H :    0.031311
  11 H :    0.023854
  12 C :   -0.022259
  13 H :    0.017674
  14 H :    0.011293
  15 H :    0.014846
  16 S :    0.099272
  17 C :   -0.075325
  18 C :   -0.058506
  19 C :   -0.061413
  20 C :   -0.133571
  21 H :    0.033262
  22 C :    0.023929
  23 H :    0.025550
  24 H :    0.047883
  25 C :   -0.047312
  26 H :    0.040557
  27 H :    0.023592
  28 C :   -0.030402
  29 H :    0.015638
  30 H :    0.018959
  31 H :    0.035078
  32 H :    0.041141
  33 H :    0.046445
Sum of atomic charges:    0.0000000

LOEWDIN ATOMIC CHARGES
----------------------
   0 S :    0.380640
   1 C :   -0.184208
   2 C :   -0.055574
   3 C :   -0.066379
   4 C :   -0.177802
   5 H :    0.047023
   6 C :   -0.033777
   7 H :    0.023931
   8 H :    0.038036
   9 C :   -0.024097
  10 H :    0.024584
  11 H :    0.017185
  12 C :   -0.058181
  13 H :    0.022845
  14 H :    0.011774
  15 H :    0.021266
  16 S :    0.433944
  17 C :   -0.187370
  18 C :   -0.081281
  19 C :   -0.066125
  20 C :   -0.222607
  21 H :    0.038849
  22 C :   -0.041209
  23 H :    0.030077
  24 H :    0.043042
  25 C :   -0.035364
  26 H :    0.033795
  27 H :    0.014752
  28 C :   -0.065656
  29 H :    0.023704
  30 H :    0.020198
  31 H :    0.030603
  32 H :    0.017432
  33 H :    0.025949

  Mayer bond orders larger than 0.100000
B(  0-S ,  1-C ) :   1.1354 B(  0-S ,  4-C ) :   1.1327 B(  1-C ,  2-C ) :   1.6006
B(  1-C , 32-H ) :   0.9755 B(  2-C ,  3-C ) :   1.2180 B(  2-C ,  6-C ) :   1.0194
B(  3-C ,  4-C ) :   1.6006 B(  3-C ,  5-H ) :   0.9720 B(  4-C , 20-C ) :   1.0524
B(  6-C ,  7-H ) :   0.9499 B(  6-C ,  8-H ) :   0.9449 B(  6-C ,  9-C ) :   1.0643
B(  9-C , 10-H ) :   0.9583 B(  9-C , 11-H ) :   0.9607 B(  9-C , 12-C ) :   1.0750
B( 12-C , 13-H ) :   0.9763 B( 12-C , 14-H ) :   0.9716 B( 12-C , 15-H ) :   0.9729
B( 16-S , 17-C ) :   1.1719 B( 16-S , 20-C ) :   1.1619 B( 17-C , 18-C ) :   1.5511
B( 17-C , 20-C ) :   0.1057 B( 17-C , 33-H ) :   0.9736 B( 18-C , 19-C ) :   1.3067
B( 18-C , 21-H ) :   0.9762 B( 19-C , 20-C ) :   1.5637 B( 19-C , 22-C ) :   1.0097
B( 22-C , 23-H ) :   0.9271 B( 22-C , 24-H ) :   0.9372 B( 22-C , 25-C ) :   1.0902
B( 25-C , 26-H ) :   0.9467 B( 25-C , 27-H ) :   0.9524 B( 25-C , 28-C ) :   1.0727
B( 28-C , 29-H ) :   0.9742 B( 28-C , 30-H ) :   0.9745 B( 28-C , 31-H ) :   0.9752

Dispersion correction           -0.013827116
FINAL SINGLE POINT ENERGY     -1339.861515236712

DIPOLE MOMENT
-------------
                                X             Y             Z
Electronic contribution:     -9.18760     -23.71346      -5.44845
Nuclear contribution   :      9.42905      24.27685       5.67933
                        -----------------------------------------
Total Dipole Moment    :      0.24146       0.56339       0.23088
                        -----------------------------------------
Magnitude (a.u.)       :      0.65499
Magnitude (Debye)      :      1.66486

Rotational constants in cm-1:     0.017396     0.008443     0.006522
Rotational constants in MHz :   521.520965   253.121273   195.510200

                             ****ORCA TERMINATED NORMALLY****
TOTAL RUN TIME: 0 days 0 hours 0 minutes 21 seconds 12 msec
