                         Program Version 4.2.1 -  RELEASE  -
|  1> ! wB97X-D3 SP def2-SVP
|  2> %pal
|  3> nprocs 24
|  4> end
|  5>
|  6> * xyz 0 1
|  7> S 	 -49.9397 	 15.6432 	 23.6329
|  8> C 	 -51.2105 	 14.4095 	 23.8143
|  9> C 	 -50.7092 	 13.2565 	 24.394
| 10> C 	 -49.3337 	 13.3734 	 24.7303
| 11> C 	 -48.7862 	 14.5945 	 24.4211
| 12> H 	 -48.6652 	 12.6526 	 25.1947
| 13> C 	 -51.578 	 12.0853 	 24.8339
| 14> H 	 -50.9753 	 11.3239 	 25.208
| 15> H 	 -52.0403 	 11.6313 	 23.8992
| 16> C 	 -52.7943 	 12.413 	 25.7972
| 17> H 	 -52.5116 	 13.0913 	 26.5921
| 18> H 	 -53.3485 	 13.1224 	 25.2146
| 19> C 	 -53.6866 	 11.3091 	 26.2093
| 20> H 	 -54.5961 	 11.6723 	 26.8311
| 21> H 	 -53.9608 	 10.6781 	 25.363
| 22> H 	 -53.1365 	 10.5524 	 26.8438
| 23> S 	 -46.5065 	 15.3858 	 23.0582
| 24> C 	 -45.1325 	 15.7673 	 23.9403
| 25> C 	 -45.154 	 15.4105 	 25.2802
| 26> C 	 -46.4604 	 14.9675 	 25.6215
| 27> C 	 -47.3309 	 14.8706 	 24.5216
| 28> H 	 -44.2608 	 15.4846 	 25.839
| 29> C 	 -46.8531 	 14.7892 	 27.0919
| 30> H 	 -45.8395 	 14.6236 	 27.4919
| 31> H 	 -47.4534 	 13.9124 	 27.0471
| 32> C 	 -47.5738 	 15.9187 	 27.7577
| 33> H 	 -48.1913 	 15.6511 	 28.5723
| 34> H 	 -48.1188 	 16.4636 	 26.975
| 35> C 	 -46.5875 	 16.9641 	 28.3459
| 36> H 	 -46.0057 	 17.4925 	 27.6309
| 37> H 	 -45.8774 	 16.3053 	 28.9205
| 38> H 	 -46.9988 	 17.7414 	 29.0152
| 39> H 	 -52.2269 	 14.5533 	 23.5361
| 40> H 	 -44.357 	 16.3055 	 23.4709
| 41> *
| 42>
| 43>                          ****END OF INPUT****

CARTESIAN COORDINATES (ANGSTROEM)
---------------------------------
  S    -49.939700   15.643200   23.632900
  C    -51.210500   14.409500   23.814300
  C    -50.709200   13.256500   24.394000
  C    -49.333700   13.373400   24.730300
  C    -48.786200   14.594500   24.421100
  H    -48.665200   12.652600   25.194700
  C    -51.578000   12.085300   24.833900
  H    -50.975300   11.323900   25.208000
  H    -52.040300   11.631300   23.899200
  C    -52.794300   12.413000   25.797200
  H    -52.511600   13.091300   26.592100
  H    -53.348500   13.122400   25.214600
  C    -53.686600   11.309100   26.209300
  H    -54.596100   11.672300   26.831100
  H    -53.960800   10.678100   25.363000
  H    -53.136500   10.552400   26.843800
  S    -46.506500   15.385800   23.058200
  C    -45.132500   15.767300   23.940300
  C    -45.154000   15.410500   25.280200
  C    -46.460400   14.967500   25.621500
  C    -47.330900   14.870600   24.521600
  H    -44.260800   15.484600   25.839000
  C    -46.853100   14.789200   27.091900
  H    -45.839500   14.623600   27.491900
  H    -47.453400   13.912400   27.047100
  C    -47.573800   15.918700   27.757700
  H    -48.191300   15.651100   28.572300
  H    -48.118800   16.463600   26.975000
  C    -46.587500   16.964100   28.345900
  H    -46.005700   17.492500   27.630900
  H    -45.877400   16.305300   28.920500
  H    -46.998800   17.741400   29.015200
  H    -52.226900   14.553300   23.536100
  H    -44.357000   16.305500   23.470900

 Total Charge           Charge          ....    0
 Multiplicity           Mult            ....    1
 Number of Electrons    NEL             ....  134
 Basis Dimension        Dim             ....  322

ORBITAL ENERGIES
----------------

  NO   OCC          E(Eh)            E(eV)
   0   2.0000     -88.969491     -2420.9829
   1   2.0000     -88.965448     -2420.8729
   2   2.0000     -10.328697      -281.0581
   3   2.0000     -10.324573      -280.9459
   4   2.0000     -10.315819      -280.7077
   5   2.0000     -10.308588      -280.5109
   6   2.0000     -10.304055      -280.3876
   7   2.0000     -10.304008      -280.3863
   8   2.0000     -10.295829      -280.1637
   9   2.0000     -10.292416      -280.0709
  10   2.0000     -10.290519      -280.0193
  11   2.0000     -10.289476      -279.9909
  12   2.0000     -10.286128      -279.8998
  13   2.0000     -10.284796      -279.8635
  14   2.0000     -10.279737      -279.7259
  15   2.0000     -10.275297      -279.6050
  16   2.0000      -8.083561      -219.9649
  17   2.0000      -8.081623      -219.9122
  18   2.0000      -6.042118      -164.4144
  19   2.0000      -6.039784      -164.3509
  20   2.0000      -6.038096      -164.3049
  21   2.0000      -6.035878      -164.2446
  22   2.0000      -6.034378      -164.2038
  23   2.0000      -6.032729      -164.1589
  24   2.0000      -1.008101       -27.4318
  25   2.0000      -0.987075       -26.8597
  26   2.0000      -0.913948       -24.8698
  27   2.0000      -0.909180       -24.7400
  28   2.0000      -0.867744       -23.6125
  29   2.0000      -0.853307       -23.2197
  30   2.0000      -0.849466       -23.1151
  31   2.0000      -0.813914       -22.1477
  32   2.0000      -0.782513       -21.2933
  33   2.0000      -0.770256       -20.9597
  34   2.0000      -0.710201       -19.3255
  35   2.0000      -0.704567       -19.1722
  36   2.0000      -0.688173       -18.7261
  37   2.0000      -0.665481       -18.1087
  38   2.0000      -0.644913       -17.5490
  39   2.0000      -0.614381       -16.7181
  40   2.0000      -0.590829       -16.0773
  41   2.0000      -0.572318       -15.5736
  42   2.0000      -0.560006       -15.2385
  43   2.0000      -0.555584       -15.1182
  44   2.0000      -0.552179       -15.0256
  45   2.0000      -0.523556       -14.2467
  46   2.0000      -0.521764       -14.1979
  47   2.0000      -0.513693       -13.9783
  48   2.0000      -0.501065       -13.6347
  49   2.0000      -0.494291       -13.4503
  50   2.0000      -0.486284       -13.2325
  51   2.0000      -0.478114       -13.0101
  52   2.0000      -0.472721       -12.8634
  53   2.0000      -0.467617       -12.7245
  54   2.0000      -0.461327       -12.5533
  55   2.0000      -0.451491       -12.2857
  56   2.0000      -0.448894       -12.2150
  57   2.0000      -0.437027       -11.8921
  58   2.0000      -0.433768       -11.8034
  59   2.0000      -0.428479       -11.6595
  60   2.0000      -0.420669       -11.4470
  61   2.0000      -0.407670       -11.0933
  62   2.0000      -0.405469       -11.0334
  63   2.0000      -0.341287        -9.2869
  64   2.0000      -0.335465        -9.1285
  65   2.0000      -0.328441        -8.9373
  66   2.0000      -0.293958        -7.9990
  67   0.0000       0.031403         0.8545
  68   0.0000       0.065736         1.7888
  69   0.0000       0.113718         3.0944
  70   0.0000       0.120752         3.2858
  71   0.0000       0.132784         3.6132

MULLIKEN ATOMIC CHARGES
-----------------------
   0 S :    0.116016
   1 C :   -0.133286
   2 C :   -0.052874
   3 C :    0.020687
   4 C :   -0.152862
   5 H :    0.020317
   6 C :    0.074062
   7 H :    0.000799
   8 H :    0.035292
   9 C :   -0.048045
  10 H :    0.025996
  11 H :    0.003948
  12 C :   -0.065802
  13 H :    0.059921
  14 H :    0.027807
  15 H :    0.030993
  16 S :    0.124915
  17 C :   -0.092369
  18 C :   -0.020076
  19 C :   -0.091884
  20 C :   -0.180443
  21 H :    0.010436
  22 C :    0.114995
  23 H :    0.016945
  24 H :    0.012303
  25 C :   -0.010184
  26 H :    0.030222
  27 H :    0.038357
  28 C :   -0.089021
  29 H :    0.028343
  30 H :    0.018589
  31 H :    0.040595
  32 H :    0.042773
  33 H :    0.042537
Sum of atomic charges:   -0.0000000

LOEWDIN ATOMIC CHARGES
----------------------
   0 S :    0.397784
   1 C :   -0.180861
   2 C :   -0.061186
   3 C :   -0.062545
   4 C :   -0.199169
   5 H :    0.034309
   6 C :   -0.025894
   7 H :    0.014461
   8 H :    0.039105
   9 C :   -0.048427
  10 H :    0.025135
  11 H :    0.018273
  12 C :   -0.076068
  13 H :    0.043563
  14 H :    0.025219
  15 H :    0.027913
  16 S :    0.439351
  17 C :   -0.192997
  18 C :   -0.075862
  19 C :   -0.049792
  20 C :   -0.210694
  21 H :    0.028795
  22 C :   -0.027230
  23 H :    0.030878
  24 H :    0.027082
  25 C :   -0.034121
  26 H :    0.022949
  27 H :    0.031406
  28 C :   -0.067857
  29 H :    0.016476
  30 H :    0.023714
  31 H :    0.027457
  32 H :    0.021734
  33 H :    0.017098

  Mayer bond orders larger than 0.100000
B(  0-S ,  1-C ) :   1.1327 B(  0-S ,  4-C ) :   1.1494 B(  1-C ,  2-C ) :   1.5976
B(  1-C , 32-H ) :   0.9758 B(  2-C ,  3-C ) :   1.2383 B(  2-C ,  6-C ) :   1.0308
B(  3-C ,  4-C ) :   1.5857 B(  3-C ,  5-H ) :   0.9893 B(  4-C , 20-C ) :   1.0249
B(  6-C ,  7-H ) :   0.9466 B(  6-C ,  8-H ) :   0.9321 B(  6-C ,  9-C ) :   1.0473
B(  9-C , 10-H ) :   0.9545 B(  9-C , 11-H ) :   0.9462 B(  9-C , 12-C ) :   1.0918
B( 12-C , 13-H ) :   0.9688 B( 12-C , 14-H ) :   0.9689 B( 12-C , 15-H ) :   0.9726
B( 16-S , 17-C ) :   1.2060 B( 16-S , 20-C ) :   1.1483 B( 17-C , 18-C ) :   1.5697
B( 17-C , 33-H ) :   0.9679 B( 18-C , 19-C ) :   1.2640 B( 18-C , 21-H ) :   1.0011
B( 19-C , 20-C ) :   1.5828 B( 19-C , 22-C ) :   1.0244 B( 22-C , 23-H ) :   0.9363
B( 22-C , 24-H ) :   0.9194 B( 22-C , 25-C ) :   1.0665 B( 25-C , 26-H ) :   0.9571
B( 25-C , 27-H ) :   0.9543 B( 25-C , 28-C ) :   1.0671 B( 28-C , 29-H ) :   0.9789
B( 28-C , 30-H ) :   0.9775 B( 28-C , 31-H ) :   0.9759

Dispersion correction           -0.014156080
FINAL SINGLE POINT ENERGY     -1339.865483768125

DIPOLE MOMENT
-------------
                                X             Y             Z
Electronic contribution:     11.26654       8.65445     -21.98291
Nuclear contribution   :    -11.37387      -8.85234      22.35085
                        -----------------------------------------
Total Dipole Moment    :     -0.10733      -0.19789       0.36794
                        -----------------------------------------
Magnitude (a.u.)       :      0.43135
Magnitude (Debye)      :      1.09640

Rotational constants in cm-1:     0.021066     0.007604     0.006372
Rotational constants in MHz :   631.555967   227.950150   191.023127

                             ****ORCA TERMINATED NORMALLY****
TOTAL RUN TIME: 0 days 0 hours 0 minutes 21 seconds 315 msec
