                         Program Version 4.2.1 -  RELEASE  -
|  1> ! wB97X-D3 SP def2-SVP
|  2> %pal
|  3> nprocs 24
|  4> end
|  5>
|  6> * xyz 0 1
|  7> S 	 -114.599 	 22.4301 	 -114.506
|  8> C 	 -116.231 	 22.9425 	 -114.91
|  9> C 	 -117.116 	 22.1418 	 -114.27
| 10> C 	 -116.475 	 20.9702 	 -113.646
| 11> C 	 -115.112 	 21.0024 	 -113.645
| 12> H 	 -117.033 	 20.2063 	 -113.109
| 13> C 	 -118.594 	 22.2952 	 -114.327
| 14> H 	 -118.688 	 23.3742 	 -114.09
| 15> H 	 -119.141 	 21.7799 	 -113.581
| 16> C 	 -119.207 	 21.9846 	 -115.71
| 17> H 	 -118.634 	 22.4527 	 -116.529
| 18> H 	 -119.155 	 20.9457 	 -115.812
| 19> C 	 -120.69 	 22.3964 	 -115.654
| 20> H 	 -121.277 	 21.7627 	 -114.981
| 21> H 	 -120.79 	 23.4408 	 -115.471
| 22> H 	 -121.11 	 22.3332 	 -116.635
| 23> S 	 -112.684 	 20.7008 	 -112.239
| 24> C 	 -112.222 	 19.0658 	 -111.806
| 25> C 	 -113.039 	 18.1325 	 -112.41
| 26> C 	 -114.133 	 18.6456 	 -113.158
| 27> C 	 -114.167 	 20.0277 	 -113.098
| 28> H 	 -112.771 	 17.0392 	 -112.212
| 29> C 	 -115.183 	 17.7649 	 -113.873
| 30> H 	 -116.081 	 18.3086 	 -113.815
| 31> H 	 -115.358 	 16.7888 	 -113.453
| 32> C 	 -114.853 	 17.5596 	 -115.325
| 33> H 	 -115.686 	 16.9738 	 -115.68
| 34> H 	 -113.946 	 16.9415 	 -115.376
| 35> C 	 -114.361 	 18.7668 	 -116.316
| 36> H 	 -113.436 	 19.1673 	 -115.888
| 37> H 	 -115.129 	 19.5479 	 -116.282
| 38> H 	 -114.203 	 18.468 	 -117.348
| 39> H 	 -116.539 	 23.8421 	 -115.515
| 40> H 	 -111.352 	 18.8583 	 -111.271
| 41> *
| 42>
| 43>                          ****END OF INPUT****

CARTESIAN COORDINATES (ANGSTROEM)
---------------------------------
  S    -114.599000   22.430100  -114.506000
  C    -116.231000   22.942500  -114.910000
  C    -117.116000   22.141800  -114.270000
  C    -116.475000   20.970200  -113.646000
  C    -115.112000   21.002400  -113.645000
  H    -117.033000   20.206300  -113.109000
  C    -118.594000   22.295200  -114.327000
  H    -118.688000   23.374200  -114.090000
  H    -119.141000   21.779900  -113.581000
  C    -119.207000   21.984600  -115.710000
  H    -118.634000   22.452700  -116.529000
  H    -119.155000   20.945700  -115.812000
  C    -120.690000   22.396400  -115.654000
  H    -121.277000   21.762700  -114.981000
  H    -120.790000   23.440800  -115.471000
  H    -121.110000   22.333200  -116.635000
  S    -112.684000   20.700800  -112.239000
  C    -112.222000   19.065800  -111.806000
  C    -113.039000   18.132500  -112.410000
  C    -114.133000   18.645600  -113.158000
  C    -114.167000   20.027700  -113.098000
  H    -112.771000   17.039200  -112.212000
  C    -115.183000   17.764900  -113.873000
  H    -116.081000   18.308600  -113.815000
  H    -115.358000   16.788800  -113.453000
  C    -114.853000   17.559600  -115.325000
  H    -115.686000   16.973800  -115.680000
  H    -113.946000   16.941500  -115.376000
  C    -114.361000   18.766800  -116.316000
  H    -113.436000   19.167300  -115.888000
  H    -115.129000   19.547900  -116.282000
  H    -114.203000   18.468000  -117.348000
  H    -116.539000   23.842100  -115.515000
  H    -111.352000   18.858300  -111.271000

 Total Charge           Charge          ....    0
 Multiplicity           Mult            ....    1
 Number of Electrons    NEL             ....  134
 Basis Dimension        Dim             ....  322

ORBITAL ENERGIES
----------------

  NO   OCC          E(Eh)            E(eV)
   0   2.0000     -88.965771     -2420.8817
   1   2.0000     -88.962216     -2420.7850
   2   2.0000     -10.335520      -281.2438
   3   2.0000     -10.329906      -281.0910
   4   2.0000     -10.315449      -280.6976
   5   2.0000     -10.315293      -280.6934
   6   2.0000     -10.309280      -280.5298
   7   2.0000     -10.299749      -280.2704
   8   2.0000     -10.298583      -280.2387
   9   2.0000     -10.293746      -280.1071
  10   2.0000     -10.290485      -280.0183
  11   2.0000     -10.286423      -279.9078
  12   2.0000     -10.285475      -279.8820
  13   2.0000     -10.284896      -279.8663
  14   2.0000     -10.277416      -279.6627
  15   2.0000     -10.275102      -279.5997
  16   2.0000      -8.079308      -219.8491
  17   2.0000      -8.076961      -219.7853
  18   2.0000      -6.037856      -164.2984
  19   2.0000      -6.035717      -164.2402
  20   2.0000      -6.034119      -164.1967
  21   2.0000      -6.031397      -164.1227
  22   2.0000      -6.029964      -164.0837
  23   2.0000      -6.027503      -164.0167
  24   2.0000      -1.003875       -27.3168
  25   2.0000      -0.981209       -26.7000
  26   2.0000      -0.916482       -24.9387
  27   2.0000      -0.906439       -24.6655
  28   2.0000      -0.869634       -23.6639
  29   2.0000      -0.845093       -22.9961
  30   2.0000      -0.836541       -22.7634
  31   2.0000      -0.812810       -22.1177
  32   2.0000      -0.787208       -21.4210
  33   2.0000      -0.773387       -21.0449
  34   2.0000      -0.708585       -19.2816
  35   2.0000      -0.705594       -19.2002
  36   2.0000      -0.691818       -18.8253
  37   2.0000      -0.656573       -17.8663
  38   2.0000      -0.637180       -17.3386
  39   2.0000      -0.617491       -16.8028
  40   2.0000      -0.597786       -16.2666
  41   2.0000      -0.581969       -15.8362
  42   2.0000      -0.556670       -15.1478
  43   2.0000      -0.549734       -14.9590
  44   2.0000      -0.540688       -14.7129
  45   2.0000      -0.520843       -14.1729
  46   2.0000      -0.516495       -14.0545
  47   2.0000      -0.510454       -13.8902
  48   2.0000      -0.504585       -13.7304
  49   2.0000      -0.501178       -13.6378
  50   2.0000      -0.489057       -13.3079
  51   2.0000      -0.477288       -12.9877
  52   2.0000      -0.470989       -12.8163
  53   2.0000      -0.465063       -12.6550
  54   2.0000      -0.463498       -12.6124
  55   2.0000      -0.449947       -12.2437
  56   2.0000      -0.447000       -12.1635
  57   2.0000      -0.439291       -11.9537
  58   2.0000      -0.433208       -11.7882
  59   2.0000      -0.426533       -11.6066
  60   2.0000      -0.415365       -11.3027
  61   2.0000      -0.411074       -11.1859
  62   2.0000      -0.398231       -10.8364
  63   2.0000      -0.353347        -9.6151
  64   2.0000      -0.334149        -9.0927
  65   2.0000      -0.323773        -8.8103
  66   2.0000      -0.290939        -7.9169
  67   0.0000       0.026704         0.7267
  68   0.0000       0.068413         1.8616
  69   0.0000       0.106575         2.9001
  70   0.0000       0.121604         3.3090
  71   0.0000       0.127064         3.4576

MULLIKEN ATOMIC CHARGES
-----------------------
   0 S :    0.098144
   1 C :   -0.149184
   2 C :   -0.075677
   3 C :   -0.005104
   4 C :   -0.113776
   5 H :    0.021576
   6 C :    0.046678
   7 H :    0.028758
   8 H :    0.008984
   9 C :   -0.054411
  10 H :    0.032459
  11 H :    0.016154
  12 C :   -0.018822
  13 H :    0.037839
  14 H :    0.020180
  15 H :    0.019624
  16 S :    0.088329
  17 C :   -0.067092
  18 C :   -0.068315
  19 C :   -0.042066
  20 C :   -0.167330
  21 H :    0.042965
  22 C :    0.169175
  23 H :   -0.010799
  24 H :    0.023776
  25 C :   -0.117166
  26 H :    0.028544
  27 H :    0.024625
  28 C :   -0.052705
  29 H :    0.046241
  30 H :    0.039099
  31 H :    0.041654
  32 H :    0.069620
  33 H :    0.038022
Sum of atomic charges:    0.0000000

LOEWDIN ATOMIC CHARGES
----------------------
   0 S :    0.397417
   1 C :   -0.205826
   2 C :   -0.063516
   3 C :   -0.073244
   4 C :   -0.191182
   5 H :    0.028793
   6 C :   -0.034915
   7 H :    0.035061
   8 H :    0.023083
   9 C :   -0.027525
  10 H :    0.026157
  11 H :    0.017152
  12 C :   -0.061106
  13 H :    0.028484
  14 H :    0.021172
  15 H :    0.023068
  16 S :    0.363358
  17 C :   -0.169928
  18 C :   -0.080942
  19 C :   -0.048506
  20 C :   -0.165975
  21 H :    0.043836
  22 C :   -0.020123
  23 H :    0.020576
  24 H :    0.034759
  25 C :   -0.039850
  26 H :    0.020246
  27 H :    0.021947
  28 C :   -0.062412
  29 H :    0.028222
  30 H :    0.022335
  31 H :    0.026814
  32 H :    0.044851
  33 H :    0.017720

  Mayer bond orders larger than 0.100000
B(  0-S ,  1-C ) :   1.1150 B(  0-S ,  4-C ) :   1.1374 B(  1-C ,  2-C ) :   1.6376
B(  1-C , 32-H ) :   0.9617 B(  2-C ,  3-C ) :   1.2130 B(  2-C ,  6-C ) :   1.0261
B(  3-C ,  4-C ) :   1.5998 B(  3-C ,  5-H ) :   0.9882 B(  4-C , 20-C ) :   1.0465
B(  6-C ,  7-H ) :   0.9389 B(  6-C ,  8-H ) :   0.9435 B(  6-C ,  9-C ) :   1.0628
B(  9-C , 10-H ) :   0.9580 B(  9-C , 11-H ) :   0.9536 B(  9-C , 12-C ) :   1.0844
B( 12-C , 13-H ) :   0.9732 B( 12-C , 14-H ) :   0.9756 B( 12-C , 15-H ) :   0.9708
B( 16-S , 17-C ) :   1.1412 B( 16-S , 20-C ) :   1.1209 B( 17-C , 18-C ) :   1.6328
B( 17-C , 20-C ) :   0.1083 B( 17-C , 33-H ) :   0.9749 B( 18-C , 19-C ) :   1.2186
B( 18-C , 21-H ) :   0.9776 B( 19-C , 20-C ) :   1.6137 B( 19-C , 22-C ) :   1.0269
B( 22-C , 23-H ) :   0.9207 B( 22-C , 24-H ) :   0.9328 B( 22-C , 25-C ) :   1.0750
B( 25-C , 26-H ) :   0.9592 B( 25-C , 27-H ) :   0.9604 B( 25-C , 28-C ) :   1.0596
B( 28-C , 29-H ) :   0.9723 B( 28-C , 30-H ) :   0.9790 B( 28-C , 31-H ) :   0.9773

Dispersion correction           -0.015287998
FINAL SINGLE POINT ENERGY     -1339.870349054999

DIPOLE MOMENT
-------------
                                X             Y             Z
Electronic contribution:     22.55314       7.46116      13.95768
Nuclear contribution   :    -23.14374      -7.87788     -14.10477
                        -----------------------------------------
Total Dipole Moment    :     -0.59060      -0.41672      -0.14709
                        -----------------------------------------
Magnitude (a.u.)       :      0.73763
Magnitude (Debye)      :      1.87491

Rotational constants in cm-1:     0.023021     0.008083     0.006951
Rotational constants in MHz :   690.140568   242.321403   208.391750

                             ****ORCA TERMINATED NORMALLY****
TOTAL RUN TIME: 0 days 0 hours 0 minutes 21 seconds 165 msec
