                         Program Version 4.2.1 -  RELEASE  -
|  1> ! wB97X-D3 SP def2-SVP
|  2> %pal
|  3> nprocs 24
|  4> end
|  5>
|  6> * xyz 0 1
|  7> S 	 -105.046 	 48.4322 	 -96.4394
|  8> C 	 -104.514 	 49.5783 	 -95.2474
|  9> C 	 -104.924 	 49.2344 	 -93.9103
| 10> C 	 -105.705 	 48.0338 	 -93.9168
| 11> C 	 -105.825 	 47.4625 	 -95.1807
| 12> H 	 -106.063 	 47.5256 	 -93.0035
| 13> C 	 -104.561 	 50.042 	 -92.6145
| 14> H 	 -104.62 	 49.3941 	 -91.7352
| 15> H 	 -105.221 	 50.9233 	 -92.5225
| 16> C 	 -103.146 	 50.5541 	 -92.6592
| 17> H 	 -102.66 	 50.3884 	 -91.69
| 18> H 	 -102.467 	 50.0247 	 -93.3648
| 19> C 	 -102.91 	 52.047 	 -93.0176
| 20> H 	 -103.484 	 52.3117 	 -93.8581
| 21> H 	 -103.083 	 52.6503 	 -92.1291
| 22> H 	 -101.925 	 52.4278 	 -93.3716
| 23> S 	 -105.738 	 44.9118 	 -96.2798
| 24> C 	 -107.259 	 44.135 	 -96.7697
| 25> C 	 -108.315 	 44.8091 	 -96.2474
| 26> C 	 -107.948 	 45.9951 	 -95.5944
| 27> C 	 -106.579 	 46.2634 	 -95.5909
| 28> H 	 -109.343 	 44.4837 	 -96.4135
| 29> C 	 -109.047 	 46.9247 	 -94.9858
| 30> H 	 -108.612 	 47.4501 	 -94.1696
| 31> H 	 -109.719 	 46.1842 	 -94.5221
| 32> C 	 -109.786 	 47.92 	 -95.8391
| 33> H 	 -110.548 	 48.563 	 -95.3173
| 34> H 	 -110.393 	 47.2099 	 -96.4259
| 35> C 	 -108.926 	 48.7767 	 -96.6653
| 36> H 	 -108.077 	 49.1827 	 -96.1514
| 37> H 	 -109.527 	 49.638 	 -97.1843
| 38> H 	 -108.43 	 48.2027 	 -97.4297
| 39> H 	 -104.177 	 50.5623 	 -95.4796
| 40> H 	 -107.299 	 43.2607 	 -97.3566
| 41> *
| 42>
| 43>                          ****END OF INPUT****

CARTESIAN COORDINATES (ANGSTROEM)
---------------------------------
  S    -105.046000   48.432200  -96.439400
  C    -104.514000   49.578300  -95.247400
  C    -104.924000   49.234400  -93.910300
  C    -105.705000   48.033800  -93.916800
  C    -105.825000   47.462500  -95.180700
  H    -106.063000   47.525600  -93.003500
  C    -104.561000   50.042000  -92.614500
  H    -104.620000   49.394100  -91.735200
  H    -105.221000   50.923300  -92.522500
  C    -103.146000   50.554100  -92.659200
  H    -102.660000   50.388400  -91.690000
  H    -102.467000   50.024700  -93.364800
  C    -102.910000   52.047000  -93.017600
  H    -103.484000   52.311700  -93.858100
  H    -103.083000   52.650300  -92.129100
  H    -101.925000   52.427800  -93.371600
  S    -105.738000   44.911800  -96.279800
  C    -107.259000   44.135000  -96.769700
  C    -108.315000   44.809100  -96.247400
  C    -107.948000   45.995100  -95.594400
  C    -106.579000   46.263400  -95.590900
  H    -109.343000   44.483700  -96.413500
  C    -109.047000   46.924700  -94.985800
  H    -108.612000   47.450100  -94.169600
  H    -109.719000   46.184200  -94.522100
  C    -109.786000   47.920000  -95.839100
  H    -110.548000   48.563000  -95.317300
  H    -110.393000   47.209900  -96.425900
  C    -108.926000   48.776700  -96.665300
  H    -108.077000   49.182700  -96.151400
  H    -109.527000   49.638000  -97.184300
  H    -108.430000   48.202700  -97.429700
  H    -104.177000   50.562300  -95.479600
  H    -107.299000   43.260700  -97.356600

 Total Charge           Charge          ....    0
 Multiplicity           Mult            ....    1
 Number of Electrons    NEL             ....  134
 Basis Dimension        Dim             ....  322

ORBITAL ENERGIES
----------------

  NO   OCC          E(Eh)            E(eV)
   0   2.0000     -88.973941     -2421.1040
   1   2.0000     -88.963853     -2420.8295
   2   2.0000     -10.334875      -281.2263
   3   2.0000     -10.326577      -281.0005
   4   2.0000     -10.318448      -280.7792
   5   2.0000     -10.315064      -280.6872
   6   2.0000     -10.312760      -280.6245
   7   2.0000     -10.302662      -280.3497
   8   2.0000     -10.302611      -280.3483
   9   2.0000     -10.302584      -280.3476
  10   2.0000     -10.291591      -280.0484
  11   2.0000     -10.286658      -279.9142
  12   2.0000     -10.285047      -279.8703
  13   2.0000     -10.280861      -279.7564
  14   2.0000     -10.277758      -279.6720
  15   2.0000     -10.268489      -279.4198
  16   2.0000      -8.087880      -220.0824
  17   2.0000      -8.078639      -219.8309
  18   2.0000      -6.046246      -164.5267
  19   2.0000      -6.042412      -164.4224
  20   2.0000      -6.038906      -164.3270
  21   2.0000      -6.037087      -164.2775
  22   2.0000      -6.033102      -164.1691
  23   2.0000      -6.029496      -164.0709
  24   2.0000      -1.005194       -27.3527
  25   2.0000      -0.982503       -26.7353
  26   2.0000      -0.910897       -24.7868
  27   2.0000      -0.910213       -24.7681
  28   2.0000      -0.866924       -23.5902
  29   2.0000      -0.851432       -23.1686
  30   2.0000      -0.844654       -22.9842
  31   2.0000      -0.812831       -22.1183
  32   2.0000      -0.786501       -21.4018
  33   2.0000      -0.772497       -21.0207
  34   2.0000      -0.702195       -19.1077
  35   2.0000      -0.698666       -19.0117
  36   2.0000      -0.689089       -18.7511
  37   2.0000      -0.659584       -17.9482
  38   2.0000      -0.642693       -17.4886
  39   2.0000      -0.616311       -16.7707
  40   2.0000      -0.594274       -16.1710
  41   2.0000      -0.576200       -15.6792
  42   2.0000      -0.555484       -15.1155
  43   2.0000      -0.551582       -15.0093
  44   2.0000      -0.545224       -14.8363
  45   2.0000      -0.539963       -14.6931
  46   2.0000      -0.512722       -13.9519
  47   2.0000      -0.510919       -13.9028
  48   2.0000      -0.500095       -13.6083
  49   2.0000      -0.497782       -13.5453
  50   2.0000      -0.491955       -13.3868
  51   2.0000      -0.480952       -13.0874
  52   2.0000      -0.471793       -12.8381
  53   2.0000      -0.459708       -12.5093
  54   2.0000      -0.457493       -12.4490
  55   2.0000      -0.447892       -12.1878
  56   2.0000      -0.444346       -12.0913
  57   2.0000      -0.438413       -11.9298
  58   2.0000      -0.432334       -11.7644
  59   2.0000      -0.422242       -11.4898
  60   2.0000      -0.414189       -11.2707
  61   2.0000      -0.408965       -11.1285
  62   2.0000      -0.395963       -10.7747
  63   2.0000      -0.345154        -9.3921
  64   2.0000      -0.334726        -9.1083
  65   2.0000      -0.328878        -8.9492
  66   2.0000      -0.295007        -8.0275
  67   0.0000       0.030871         0.8401
  68   0.0000       0.056241         1.5304
  69   0.0000       0.112849         3.0708
  70   0.0000       0.116738         3.1766
  71   0.0000       0.127401         3.4668

MULLIKEN ATOMIC CHARGES
-----------------------
   0 S :    0.136748
   1 C :   -0.107834
   2 C :   -0.130679
   3 C :    0.048857
   4 C :   -0.181244
   5 H :    0.030889
   6 C :    0.104271
   7 H :    0.034272
   8 H :    0.051972
   9 C :   -0.115160
  10 H :    0.028331
  11 H :    0.043303
  12 C :   -0.065152
  13 H :    0.013894
  14 H :    0.035284
  15 H :    0.030183
  16 S :    0.101464
  17 C :   -0.085960
  18 C :   -0.020092
  19 C :   -0.052605
  20 C :   -0.175806
  21 H :    0.023959
  22 C :    0.080131
  23 H :    0.004183
  24 H :    0.023504
  25 C :   -0.040547
  26 H :    0.035681
  27 H :    0.011552
  28 C :   -0.049280
  29 H :    0.027768
  30 H :    0.043564
  31 H :    0.024941
  32 H :    0.046005
  33 H :    0.043601
Sum of atomic charges:   -0.0000000

LOEWDIN ATOMIC CHARGES
----------------------
   0 S :    0.427287
   1 C :   -0.207469
   2 C :   -0.053550
   3 C :   -0.062230
   4 C :   -0.192726
   5 H :    0.040008
   6 C :   -0.027400
   7 H :    0.036141
   8 H :    0.040402
   9 C :   -0.052775
  10 H :    0.025085
  11 H :    0.030118
  12 C :   -0.073883
  13 H :    0.012965
  14 H :    0.024399
  15 H :    0.032162
  16 S :    0.401292
  17 C :   -0.165510
  18 C :   -0.073382
  19 C :   -0.057554
  20 C :   -0.213659
  21 H :    0.036144
  22 C :   -0.029195
  23 H :    0.018796
  24 H :    0.032849
  25 C :   -0.051103
  26 H :    0.031325
  27 H :    0.021733
  28 C :   -0.072463
  29 H :    0.020195
  30 H :    0.037487
  31 H :    0.022988
  32 H :    0.020285
  33 H :    0.021235

  Mayer bond orders larger than 0.100000
B(  0-S ,  1-C ) :   1.1602 B(  0-S ,  4-C ) :   1.1641 B(  1-C ,  2-C ) :   1.5773
B(  1-C ,  4-C ) :   0.1095 B(  1-C , 32-H ) :   0.9656 B(  2-C ,  3-C ) :   1.2781
B(  2-C ,  6-C ) :   1.0126 B(  3-C ,  4-C ) :   1.5698 B(  3-C ,  5-H ) :   0.9842
B(  4-C , 20-C ) :   1.0129 B(  6-C ,  7-H ) :   0.9498 B(  6-C ,  8-H ) :   0.9403
B(  6-C ,  9-C ) :   1.0423 B(  9-C , 10-H ) :   0.9650 B(  9-C , 11-H ) :   0.9642
B(  9-C , 12-C ) :   1.0679 B( 12-C , 13-H ) :   0.9768 B( 12-C , 14-H ) :   0.9771
B( 12-C , 15-H ) :   0.9754 B( 16-S , 17-C ) :   1.1543 B( 16-S , 20-C ) :   1.1562
B( 17-C , 18-C ) :   1.5891 B( 17-C , 20-C ) :   0.1001 B( 17-C , 33-H ) :   0.9756
B( 18-C , 19-C ) :   1.2657 B( 18-C , 21-H ) :   0.9895 B( 19-C , 20-C ) :   1.5814
B( 19-C , 22-C ) :   1.0165 B( 22-C , 23-H ) :   0.9333 B( 22-C , 24-H ) :   0.9388
B( 22-C , 25-C ) :   1.0687 B( 25-C , 26-H ) :   0.9537 B( 25-C , 27-H ) :   0.9518
B( 25-C , 28-C ) :   1.0843 B( 28-C , 29-H ) :   0.9726 B( 28-C , 30-H ) :   0.9715
B( 28-C , 31-H ) :   0.9654

Dispersion correction           -0.015484719
FINAL SINGLE POINT ENERGY     -1339.865193674705

DIPOLE MOMENT
-------------
                                X             Y             Z
Electronic contribution:      4.66449     -19.97455     -11.00887
Nuclear contribution   :     -4.91707      20.24069      11.37091
                        -----------------------------------------
Total Dipole Moment    :     -0.25258       0.26614       0.36205
                        -----------------------------------------
Magnitude (a.u.)       :      0.51547
Magnitude (Debye)      :      1.31022

Rotational constants in cm-1:     0.024416     0.007679     0.006793
Rotational constants in MHz :   731.960762   230.206519   203.634382

                             ****ORCA TERMINATED NORMALLY****
TOTAL RUN TIME: 0 days 0 hours 0 minutes 22 seconds 136 msec
