                         Program Version 4.2.1 -  RELEASE  -
|  1> ! wB97X-D3 SP def2-SVP
|  2> %pal
|  3> nprocs 24
|  4> end
|  5>
|  6> * xyz 0 1
|  7> S 	 -117.076 	 37.3922 	 -120.025
|  8> C 	 -115.558 	 36.8427 	 -119.245
|  9> C 	 -115.847 	 35.8495 	 -118.364
| 10> C 	 -117.245 	 35.8183 	 -118.049
| 11> C 	 -117.956 	 36.7247 	 -118.726
| 12> H 	 -117.641 	 35.2794 	 -117.223
| 13> C 	 -114.891 	 35.0726 	 -117.485
| 14> H 	 -114.014 	 34.9492 	 -118.08
| 15> H 	 -115.161 	 34.0352 	 -117.375
| 16> C 	 -114.525 	 35.8336 	 -116.25
| 17> H 	 -113.96 	 36.7407 	 -116.542
| 18> H 	 -115.346 	 36.1743 	 -115.739
| 19> C 	 -113.716 	 34.9903 	 -115.224
| 20> H 	 -114.288 	 34.2231 	 -114.678
| 21> H 	 -112.869 	 34.4578 	 -115.712
| 22> H 	 -113.302 	 35.6177 	 -114.535
| 23> S 	 -120.227 	 36.7066 	 -120.158
| 24> C 	 -121.777 	 36.9112 	 -119.372
| 25> C 	 -121.65 	 36.8608 	 -118.024
| 26> C 	 -120.265 	 37.0172 	 -117.573
| 27> C 	 -119.376 	 36.8607 	 -118.668
| 28> H 	 -122.534 	 36.8417 	 -117.401
| 29> C 	 -119.995 	 37.2468 	 -116.126
| 30> H 	 -119.083 	 37.6918 	 -116.19
| 31> H 	 -119.793 	 36.2816 	 -115.655
| 32> C 	 -121.042 	 38.0396 	 -115.263
| 33> H 	 -121.972 	 37.578 	 -115.494
| 34> H 	 -121.022 	 39.0641 	 -115.59
| 35> C 	 -120.794 	 38.0951 	 -113.749
| 36> H 	 -120.882 	 37.1021 	 -113.331
| 37> H 	 -121.542 	 38.6971 	 -113.156
| 38> H 	 -119.809 	 38.4317 	 -113.571
| 39> H 	 -114.482 	 37.219 	 -119.497
| 40> H 	 -122.763 	 36.8606 	 -119.84
| 41> *
| 42>
| 43>                          ****END OF INPUT****

CARTESIAN COORDINATES (ANGSTROEM)
---------------------------------
  S    -117.076000   37.392200  -120.025000
  C    -115.558000   36.842700  -119.245000
  C    -115.847000   35.849500  -118.364000
  C    -117.245000   35.818300  -118.049000
  C    -117.956000   36.724700  -118.726000
  H    -117.641000   35.279400  -117.223000
  C    -114.891000   35.072600  -117.485000
  H    -114.014000   34.949200  -118.080000
  H    -115.161000   34.035200  -117.375000
  C    -114.525000   35.833600  -116.250000
  H    -113.960000   36.740700  -116.542000
  H    -115.346000   36.174300  -115.739000
  C    -113.716000   34.990300  -115.224000
  H    -114.288000   34.223100  -114.678000
  H    -112.869000   34.457800  -115.712000
  H    -113.302000   35.617700  -114.535000
  S    -120.227000   36.706600  -120.158000
  C    -121.777000   36.911200  -119.372000
  C    -121.650000   36.860800  -118.024000
  C    -120.265000   37.017200  -117.573000
  C    -119.376000   36.860700  -118.668000
  H    -122.534000   36.841700  -117.401000
  C    -119.995000   37.246800  -116.126000
  H    -119.083000   37.691800  -116.190000
  H    -119.793000   36.281600  -115.655000
  C    -121.042000   38.039600  -115.263000
  H    -121.972000   37.578000  -115.494000
  H    -121.022000   39.064100  -115.590000
  C    -120.794000   38.095100  -113.749000
  H    -120.882000   37.102100  -113.331000
  H    -121.542000   38.697100  -113.156000
  H    -119.809000   38.431700  -113.571000
  H    -114.482000   37.219000  -119.497000
  H    -122.763000   36.860600  -119.840000

 Total Charge           Charge          ....    0
 Multiplicity           Mult            ....    1
 Number of Electrons    NEL             ....  134
 Basis Dimension        Dim             ....  322

ORBITAL ENERGIES
----------------

  NO   OCC          E(Eh)            E(eV)
   0   2.0000     -88.962346     -2420.7885
   1   2.0000     -88.962043     -2420.7803
   2   2.0000     -10.322929      -280.9012
   3   2.0000     -10.322489      -280.8892
   4   2.0000     -10.318128      -280.7705
   5   2.0000     -10.310822      -280.5717
   6   2.0000     -10.304924      -280.4112
   7   2.0000     -10.298198      -280.2282
   8   2.0000     -10.289057      -279.9795
   9   2.0000     -10.286738      -279.9164
  10   2.0000     -10.285394      -279.8798
  11   2.0000     -10.284734      -279.8618
  12   2.0000     -10.283793      -279.8362
  13   2.0000     -10.283090      -279.8171
  14   2.0000     -10.279820      -279.7281
  15   2.0000     -10.275861      -279.6204
  16   2.0000      -8.077717      -219.8059
  17   2.0000      -8.077571      -219.8019
  18   2.0000      -6.036354      -164.2575
  19   2.0000      -6.036245      -164.2546
  20   2.0000      -6.032283      -164.1468
  21   2.0000      -6.032182      -164.1440
  22   2.0000      -6.028253      -164.0371
  23   2.0000      -6.027755      -164.0235
  24   2.0000      -1.015984       -27.6463
  25   2.0000      -0.985834       -26.8259
  26   2.0000      -0.920310       -25.0429
  27   2.0000      -0.909047       -24.7364
  28   2.0000      -0.874038       -23.7838
  29   2.0000      -0.853502       -23.2250
  30   2.0000      -0.844945       -22.9921
  31   2.0000      -0.818997       -22.2860
  32   2.0000      -0.786729       -21.4080
  33   2.0000      -0.771624       -20.9970
  34   2.0000      -0.713677       -19.4201
  35   2.0000      -0.709134       -19.2965
  36   2.0000      -0.698199       -18.9990
  37   2.0000      -0.654200       -17.8017
  38   2.0000      -0.637233       -17.3400
  39   2.0000      -0.625432       -17.0189
  40   2.0000      -0.593733       -16.1563
  41   2.0000      -0.571580       -15.5535
  42   2.0000      -0.569882       -15.5073
  43   2.0000      -0.558408       -15.1950
  44   2.0000      -0.534710       -14.5502
  45   2.0000      -0.527381       -14.3508
  46   2.0000      -0.521581       -14.1929
  47   2.0000      -0.514952       -14.0126
  48   2.0000      -0.504394       -13.7253
  49   2.0000      -0.500982       -13.6324
  50   2.0000      -0.493765       -13.4360
  51   2.0000      -0.483450       -13.1554
  52   2.0000      -0.467273       -12.7151
  53   2.0000      -0.461697       -12.5634
  54   2.0000      -0.457956       -12.4616
  55   2.0000      -0.456887       -12.4325
  56   2.0000      -0.450923       -12.2702
  57   2.0000      -0.446327       -12.1452
  58   2.0000      -0.431292       -11.7360
  59   2.0000      -0.427676       -11.6377
  60   2.0000      -0.421518       -11.4701
  61   2.0000      -0.416431       -11.3317
  62   2.0000      -0.414584       -11.2814
  63   2.0000      -0.350506        -9.5378
  64   2.0000      -0.329702        -8.9716
  65   2.0000      -0.324073        -8.8185
  66   2.0000      -0.287932        -7.8350
  67   0.0000       0.030812         0.8384
  68   0.0000       0.073091         1.9889
  69   0.0000       0.097046         2.6408
  70   0.0000       0.122824         3.3422
  71   0.0000       0.139963         3.8086

MULLIKEN ATOMIC CHARGES
-----------------------
   0 S :    0.096365
   1 C :   -0.163669
   2 C :   -0.075848
   3 C :    0.030505
   4 C :   -0.135274
   5 H :    0.001482
   6 C :    0.085559
   7 H :    0.002743
   8 H :    0.023406
   9 C :   -0.039979
  10 H :    0.027305
  11 H :    0.007013
  12 C :   -0.023942
  13 H :    0.035548
  14 H :    0.024773
  15 H :    0.012456
  16 S :    0.100980
  17 C :   -0.088986
  18 C :   -0.047564
  19 C :   -0.085556
  20 C :   -0.132127
  21 H :    0.022858
  22 C :    0.114444
  23 H :   -0.004947
  24 H :    0.029399
  25 C :   -0.067081
  26 H :    0.023977
  27 H :    0.034564
  28 C :   -0.037369
  29 H :    0.019775
  30 H :    0.045535
  31 H :    0.025587
  32 H :    0.080581
  33 H :    0.057487
Sum of atomic charges:   -0.0000000

LOEWDIN ATOMIC CHARGES
----------------------
   0 S :    0.392179
   1 C :   -0.192001
   2 C :   -0.059566
   3 C :   -0.055036
   4 C :   -0.205097
   5 H :    0.026967
   6 C :   -0.034620
   7 H :    0.026533
   8 H :    0.030891
   9 C :   -0.028519
  10 H :    0.031034
  11 H :    0.011431
  12 C :   -0.058704
  13 H :    0.027590
  14 H :    0.026729
  15 H :    0.012535
  16 S :    0.409339
  17 C :   -0.191568
  18 C :   -0.070703
  19 C :   -0.052880
  20 C :   -0.204791
  21 H :    0.029050
  22 C :   -0.032311
  23 H :    0.018044
  24 H :    0.032851
  25 C :   -0.029723
  26 H :    0.016090
  27 H :    0.026420
  28 C :   -0.062063
  29 H :    0.021144
  30 H :    0.036013
  31 H :    0.019774
  32 H :    0.049587
  33 H :    0.033380

  Mayer bond orders larger than 0.100000
B(  0-S ,  1-C ) :   1.1087 B(  0-S ,  4-C ) :   1.1329 B(  1-C ,  2-C ) :   1.6483
B(  1-C , 32-H ) :   0.9587 B(  2-C ,  3-C ) :   1.1942 B(  2-C ,  6-C ) :   1.0388
B(  3-C ,  4-C ) :   1.5966 B(  3-C ,  5-H ) :   1.0068 B(  4-C , 20-C ) :   1.0493
B(  6-C ,  7-H ) :   0.9237 B(  6-C ,  8-H ) :   0.9417 B(  6-C ,  9-C ) :   1.0623
B(  9-C , 10-H ) :   0.9505 B(  9-C , 11-H ) :   0.9593 B(  9-C , 12-C ) :   1.0806
B( 12-C , 13-H ) :   0.9766 B( 12-C , 14-H ) :   0.9750 B( 12-C , 15-H ) :   0.9727
B( 16-S , 17-C ) :   1.1325 B( 16-S , 20-C ) :   1.1461 B( 17-C , 18-C ) :   1.6595
B( 17-C , 33-H ) :   0.9627 B( 18-C , 19-C ) :   1.2127 B( 18-C , 21-H ) :   0.9798
B( 19-C , 20-C ) :   1.5951 B( 19-C , 22-C ) :   1.0484 B( 22-C , 23-H ) :   0.9156
B( 22-C , 24-H ) :   0.9217 B( 22-C , 25-C ) :   1.0575 B( 25-C , 26-H ) :   0.9552
B( 25-C , 27-H ) :   0.9577 B( 25-C , 28-C ) :   1.0894 B( 28-C , 29-H ) :   0.9736
B( 28-C , 30-H ) :   0.9742 B( 28-C , 31-H ) :   0.9753

Dispersion correction           -0.013504764
FINAL SINGLE POINT ENERGY     -1339.846847602014

DIPOLE MOMENT
-------------
                                X             Y             Z
Electronic contribution:     -7.89897       2.91657     -30.29355
Nuclear contribution   :      8.05245      -3.12477      31.09210
                        -----------------------------------------
Total Dipole Moment    :      0.15347      -0.20820       0.79855
                        -----------------------------------------
Magnitude (a.u.)       :      0.83940
Magnitude (Debye)      :      2.13358

Rotational constants in cm-1:     0.016114     0.008990     0.006205
Rotational constants in MHz :   483.099493   269.504265   186.022726

                             ****ORCA TERMINATED NORMALLY****
TOTAL RUN TIME: 0 days 0 hours 0 minutes 21 seconds 178 msec
