                         Program Version 4.2.1 -  RELEASE  -
|  1> ! wB97X-D3 SP def2-SVP
|  2> %pal
|  3> nprocs 24
|  4> end
|  5>
|  6> * xyz 0 1
|  7> S 	 -131.928 	 30.7919 	 -17.18
|  8> C 	 -130.571 	 29.6794 	 -17.5025
|  9> C 	 -130.969 	 28.4034 	 -17.8672
| 10> C 	 -132.379 	 28.2636 	 -17.7841
| 11> C 	 -133.105 	 29.4576 	 -17.4326
| 12> H 	 -132.916 	 27.3677 	 -18.0754
| 13> C 	 -130.043 	 27.3015 	 -18.4143
| 14> H 	 -128.998 	 27.6024 	 -18.4805
| 15> H 	 -130.321 	 27.1535 	 -19.3919
| 16> C 	 -130.157 	 25.9876 	 -17.6605
| 17> H 	 -129.433 	 25.9223 	 -16.8271
| 18> H 	 -131.1 	 25.9502 	 -17.1176
| 19> C 	 -129.931 	 24.7446 	 -18.5667
| 20> H 	 -128.875 	 24.8923 	 -18.8974
| 21> H 	 -129.935 	 23.8282 	 -17.878
| 22> H 	 -130.566 	 24.699 	 -19.4732
| 23> S 	 -135.156 	 31.2001 	 -17.9534
| 24> C 	 -136.765 	 30.6488 	 -17.8342
| 25> C 	 -136.854 	 29.3223 	 -17.417
| 26> C 	 -135.542 	 28.7575 	 -17.1028
| 27> C 	 -134.538 	 29.6295 	 -17.3971
| 28> H 	 -137.826 	 28.8391 	 -17.2969
| 29> C 	 -135.379 	 27.3588 	 -16.4782
| 30> H 	 -134.9 	 26.623 	 -17.0625
| 31> H 	 -136.337 	 26.8487 	 -16.2205
| 32> C 	 -134.621 	 27.3463 	 -15.1246
| 33> H 	 -135.177 	 27.9106 	 -14.3397
| 34> H 	 -133.674 	 27.8674 	 -15.3473
| 35> C 	 -134.151 	 25.9816 	 -14.7163
| 36> H 	 -133.471 	 25.6164 	 -15.4596
| 37> H 	 -135.037 	 25.2574 	 -14.8123
| 38> H 	 -133.753 	 25.9651 	 -13.6883
| 39> H 	 -129.606 	 29.9587 	 -17.4225
| 40> H 	 -137.674 	 31.3482 	 -17.9722
| 41> *
| 42>
| 43>                          ****END OF INPUT****

CARTESIAN COORDINATES (ANGSTROEM)
---------------------------------
  S    -131.928000   30.791900  -17.180000
  C    -130.571000   29.679400  -17.502500
  C    -130.969000   28.403400  -17.867200
  C    -132.379000   28.263600  -17.784100
  C    -133.105000   29.457600  -17.432600
  H    -132.916000   27.367700  -18.075400
  C    -130.043000   27.301500  -18.414300
  H    -128.998000   27.602400  -18.480500
  H    -130.321000   27.153500  -19.391900
  C    -130.157000   25.987600  -17.660500
  H    -129.433000   25.922300  -16.827100
  H    -131.100000   25.950200  -17.117600
  C    -129.931000   24.744600  -18.566700
  H    -128.875000   24.892300  -18.897400
  H    -129.935000   23.828200  -17.878000
  H    -130.566000   24.699000  -19.473200
  S    -135.156000   31.200100  -17.953400
  C    -136.765000   30.648800  -17.834200
  C    -136.854000   29.322300  -17.417000
  C    -135.542000   28.757500  -17.102800
  C    -134.538000   29.629500  -17.397100
  H    -137.826000   28.839100  -17.296900
  C    -135.379000   27.358800  -16.478200
  H    -134.900000   26.623000  -17.062500
  H    -136.337000   26.848700  -16.220500
  C    -134.621000   27.346300  -15.124600
  H    -135.177000   27.910600  -14.339700
  H    -133.674000   27.867400  -15.347300
  C    -134.151000   25.981600  -14.716300
  H    -133.471000   25.616400  -15.459600
  H    -135.037000   25.257400  -14.812300
  H    -133.753000   25.965100  -13.688300
  H    -129.606000   29.958700  -17.422500
  H    -137.674000   31.348200  -17.972200

 Total Charge           Charge          ....    0
 Multiplicity           Mult            ....    1
 Number of Electrons    NEL             ....  134
 Basis Dimension        Dim             ....  322

ORBITAL ENERGIES
----------------

  NO   OCC          E(Eh)            E(eV)
   0   2.0000     -88.970869     -2421.0204
   1   2.0000     -88.966634     -2420.9052
   2   2.0000     -10.340539      -281.3804
   3   2.0000     -10.328376      -281.0494
   4   2.0000     -10.323948      -280.9289
   5   2.0000     -10.311257      -280.5836
   6   2.0000     -10.310041      -280.5505
   7   2.0000     -10.305469      -280.4261
   8   2.0000     -10.301143      -280.3083
   9   2.0000     -10.300261      -280.2843
  10   2.0000     -10.294462      -280.1265
  11   2.0000     -10.292947      -280.0853
  12   2.0000     -10.290742      -280.0253
  13   2.0000     -10.288806      -279.9726
  14   2.0000     -10.280291      -279.7410
  15   2.0000     -10.280142      -279.7369
  16   2.0000      -8.084023      -219.9775
  17   2.0000      -8.082067      -219.9242
  18   2.0000      -6.042683      -164.4298
  19   2.0000      -6.040590      -164.3728
  20   2.0000      -6.038776      -164.3234
  21   2.0000      -6.036524      -164.2622
  22   2.0000      -6.034708      -164.2128
  23   2.0000      -6.032716      -164.1585
  24   2.0000      -1.004698       -27.3392
  25   2.0000      -0.978282       -26.6204
  26   2.0000      -0.913700       -24.8630
  27   2.0000      -0.910403       -24.7733
  28   2.0000      -0.869231       -23.6530
  29   2.0000      -0.854063       -23.2402
  30   2.0000      -0.842192       -22.9172
  31   2.0000      -0.809112       -22.0171
  32   2.0000      -0.783425       -21.3181
  33   2.0000      -0.773976       -21.0610
  34   2.0000      -0.708089       -19.2681
  35   2.0000      -0.699241       -19.0273
  36   2.0000      -0.684758       -18.6332
  37   2.0000      -0.664603       -18.0848
  38   2.0000      -0.640439       -17.4272
  39   2.0000      -0.623520       -16.9668
  40   2.0000      -0.600526       -16.3411
  41   2.0000      -0.567421       -15.4403
  42   2.0000      -0.564089       -15.3496
  43   2.0000      -0.558085       -15.1863
  44   2.0000      -0.527067       -14.3422
  45   2.0000      -0.522690       -14.2231
  46   2.0000      -0.519560       -14.1379
  47   2.0000      -0.509367       -13.8606
  48   2.0000      -0.501807       -13.6549
  49   2.0000      -0.499799       -13.6002
  50   2.0000      -0.492378       -13.3983
  51   2.0000      -0.488430       -13.2908
  52   2.0000      -0.471216       -12.8224
  53   2.0000      -0.462932       -12.5970
  54   2.0000      -0.461642       -12.5619
  55   2.0000      -0.450745       -12.2654
  56   2.0000      -0.444550       -12.0968
  57   2.0000      -0.436793       -11.8857
  58   2.0000      -0.434287       -11.8176
  59   2.0000      -0.428001       -11.6465
  60   2.0000      -0.418956       -11.4004
  61   2.0000      -0.418302       -11.3826
  62   2.0000      -0.401349       -10.9213
  63   2.0000      -0.355307        -9.6684
  64   2.0000      -0.335185        -9.1209
  65   2.0000      -0.332195        -9.0395
  66   2.0000      -0.282655        -7.6914
  67   0.0000       0.016963         0.4616
  68   0.0000       0.074956         2.0397
  69   0.0000       0.100872         2.7449
  70   0.0000       0.118937         3.2364
  71   0.0000       0.125882         3.4254

MULLIKEN ATOMIC CHARGES
-----------------------
   0 S :    0.099226
   1 C :   -0.081400
   2 C :   -0.081131
   3 C :    0.004834
   4 C :   -0.145831
   5 H :    0.012647
   6 C :    0.137301
   7 H :    0.019954
   8 H :    0.013474
   9 C :   -0.108669
  10 H :    0.030591
  11 H :    0.030617
  12 C :   -0.092248
  13 H :    0.035958
  14 H :    0.052523
  15 H :    0.051470
  16 S :    0.108901
  17 C :   -0.120561
  18 C :   -0.040156
  19 C :   -0.014888
  20 C :   -0.133976
  21 H :    0.025291
  22 C :    0.050718
  23 H :    0.009799
  24 H :    0.020491
  25 C :   -0.112478
  26 H :    0.041648
  27 H :    0.045366
  28 C :   -0.045535
  29 H :    0.024011
  30 H :    0.019310
  31 H :    0.052155
  32 H :   -0.000903
  33 H :    0.091489
Sum of atomic charges:    0.0000000

LOEWDIN ATOMIC CHARGES
----------------------
   0 S :    0.375437
   1 C :   -0.166970
   2 C :   -0.054668
   3 C :   -0.062615
   4 C :   -0.176578
   5 H :    0.027896
   6 C :   -0.020398
   7 H :    0.032441
   8 H :    0.022748
   9 C :   -0.047889
  10 H :    0.028038
  11 H :    0.017939
  12 C :   -0.073751
  13 H :    0.028461
  14 H :    0.037383
  15 H :    0.026546
  16 S :    0.409920
  17 C :   -0.210585
  18 C :   -0.073305
  19 C :   -0.051332
  20 C :   -0.188801
  21 H :    0.034093
  22 C :   -0.031390
  23 H :    0.018168
  24 H :    0.032721
  25 C :   -0.049051
  26 H :    0.026419
  27 H :    0.026817
  28 C :   -0.066943
  29 H :    0.019286
  30 H :    0.024363
  31 H :    0.033550
  32 H :    0.002557
  33 H :    0.049492

  Mayer bond orders larger than 0.100000
B(  0-S ,  1-C ) :   1.1289 B(  0-S ,  4-C ) :   1.1408 B(  1-C ,  2-C ) :   1.6087
B(  1-C ,  4-C ) :   0.1061 B(  1-C , 32-H ) :   0.9806 B(  2-C ,  3-C ) :   1.2587
B(  2-C ,  6-C ) :   1.0189 B(  3-C ,  4-C ) :   1.5329 B(  3-C ,  5-H ) :   0.9833
B(  4-C , 20-C ) :   1.0991 B(  6-C ,  7-H ) :   0.9373 B(  6-C ,  8-H ) :   0.9418
B(  6-C ,  9-C ) :   1.0376 B(  9-C , 10-H ) :   0.9518 B(  9-C , 11-H ) :   0.9686
B(  9-C , 12-C ) :   1.0678 B( 12-C , 13-H ) :   0.9752 B( 12-C , 14-H ) :   0.9730
B( 12-C , 15-H ) :   0.9776 B( 16-S , 17-C ) :   1.1635 B( 16-S , 20-C ) :   1.1207
B( 17-C , 18-C ) :   1.6122 B( 17-C , 33-H ) :   0.9537 B( 18-C , 19-C ) :   1.2274
B( 18-C , 21-H ) :   0.9913 B( 19-C , 20-C ) :   1.6097 B( 19-C , 22-C ) :   1.0334
B( 22-C , 23-H ) :   0.9380 B( 22-C , 24-H ) :   0.9349 B( 22-C , 25-C ) :   1.0556
B( 25-C , 26-H ) :   0.9568 B( 25-C , 27-H ) :   0.9528 B( 25-C , 28-C ) :   1.0824
B( 28-C , 29-H ) :   0.9707 B( 28-C , 30-H ) :   0.9699 B( 28-C , 31-H ) :   0.9702

Dispersion correction           -0.014644495
FINAL SINGLE POINT ENERGY     -1339.871636832140

DIPOLE MOMENT
-------------
                                X             Y             Z
Electronic contribution:     -8.53753      30.91724      -5.38183
Nuclear contribution   :      8.62335     -31.50924       5.34341
                        -----------------------------------------
Total Dipole Moment    :      0.08582      -0.59200      -0.03842
                        -----------------------------------------
Magnitude (a.u.)       :      0.59942
Magnitude (Debye)      :      1.52361

Rotational constants in cm-1:     0.018335     0.009251     0.007035
Rotational constants in MHz :   549.680514   277.332009   210.899792

                             ****ORCA TERMINATED NORMALLY****
TOTAL RUN TIME: 0 days 0 hours 0 minutes 22 seconds 185 msec
