                         Program Version 4.2.1 -  RELEASE  -
|  1> ! wB97X-D3 SP def2-SVP
|  2> %pal
|  3> nprocs 24
|  4> end
|  5>
|  6> * xyz 0 1
|  7> S 	 44.8765 	 -10.6948 	 -105.1
|  8> C 	 45.6285 	 -9.31961 	 -105.815
|  9> C 	 44.8767 	 -8.8229 	 -106.902
| 10> C 	 43.7352 	 -9.63195 	 -107.148
| 11> C 	 43.5719 	 -10.6705 	 -106.338
| 12> H 	 43.0003 	 -9.53045 	 -107.847
| 13> C 	 45.1787 	 -7.57458 	 -107.621
| 14> H 	 45.734 	 -6.92017 	 -106.986
| 15> H 	 44.2893 	 -7.04945 	 -107.927
| 16> C 	 46.0238 	 -7.80005 	 -108.87
| 17> H 	 46.9119 	 -8.45183 	 -108.804
| 18> H 	 45.4212 	 -8.41163 	 -109.528
| 19> C 	 46.4395 	 -6.51655 	 -109.491
| 20> H 	 45.5492 	 -5.86728 	 -109.534
| 21> H 	 47.2141 	 -5.95689 	 -108.908
| 22> H 	 46.8242 	 -6.75738 	 -110.52
| 23> S 	 42.0934 	 -12.7919 	 -107.362
| 24> C 	 40.6664 	 -13.2716 	 -106.552
| 25> C 	 40.2248 	 -12.3048 	 -105.691
| 26> C 	 41.2228 	 -11.2701 	 -105.491
| 27> C 	 42.3735 	 -11.4783 	 -106.198
| 28> H 	 39.2084 	 -12.3226 	 -105.302
| 29> C 	 41.0329 	 -10.1372 	 -104.496
| 30> H 	 41.9746 	 -9.51529 	 -104.542
| 31> H 	 40.984 	 -10.4613 	 -103.47
| 32> C 	 39.7657 	 -9.22152 	 -104.801
| 33> H 	 39.8244 	 -8.37459 	 -104.151
| 34> H 	 38.9319 	 -9.78184 	 -104.506
| 35> C 	 39.7438 	 -8.68124 	 -106.178
| 36> H 	 40.6638 	 -8.46934 	 -106.635
| 37> H 	 39.22 	 -7.75423 	 -106.281
| 38> H 	 39.1648 	 -9.35327 	 -106.865
| 39> H 	 46.4692 	 -8.81453 	 -105.393
| 40> H 	 40.0148 	 -14.1264 	 -106.779
| 41> *
| 42>
| 43>                          ****END OF INPUT****

CARTESIAN COORDINATES (ANGSTROEM)
---------------------------------
  S     44.876500  -10.694800  -105.100000
  C     45.628500   -9.319610  -105.815000
  C     44.876700   -8.822900  -106.902000
  C     43.735200   -9.631950  -107.148000
  C     43.571900  -10.670500  -106.338000
  H     43.000300   -9.530450  -107.847000
  C     45.178700   -7.574580  -107.621000
  H     45.734000   -6.920170  -106.986000
  H     44.289300   -7.049450  -107.927000
  C     46.023800   -7.800050  -108.870000
  H     46.911900   -8.451830  -108.804000
  H     45.421200   -8.411630  -109.528000
  C     46.439500   -6.516550  -109.491000
  H     45.549200   -5.867280  -109.534000
  H     47.214100   -5.956890  -108.908000
  H     46.824200   -6.757380  -110.520000
  S     42.093400  -12.791900  -107.362000
  C     40.666400  -13.271600  -106.552000
  C     40.224800  -12.304800  -105.691000
  C     41.222800  -11.270100  -105.491000
  C     42.373500  -11.478300  -106.198000
  H     39.208400  -12.322600  -105.302000
  C     41.032900  -10.137200  -104.496000
  H     41.974600   -9.515290  -104.542000
  H     40.984000  -10.461300  -103.470000
  C     39.765700   -9.221520  -104.801000
  H     39.824400   -8.374590  -104.151000
  H     38.931900   -9.781840  -104.506000
  C     39.743800   -8.681240  -106.178000
  H     40.663800   -8.469340  -106.635000
  H     39.220000   -7.754230  -106.281000
  H     39.164800   -9.353270  -106.865000
  H     46.469200   -8.814530  -105.393000
  H     40.014800  -14.126400  -106.779000

 Total Charge           Charge          ....    0
 Multiplicity           Mult            ....    1
 Number of Electrons    NEL             ....  134
 Basis Dimension        Dim             ....  322

ORBITAL ENERGIES
----------------

  NO   OCC          E(Eh)            E(eV)
   0   2.0000     -88.963649     -2420.8239
   1   2.0000     -88.960553     -2420.7397
   2   2.0000     -10.322963      -280.9021
   3   2.0000     -10.322087      -280.8783
   4   2.0000     -10.314915      -280.6831
   5   2.0000     -10.314744      -280.6785
   6   2.0000     -10.302809      -280.3537
   7   2.0000     -10.300247      -280.2840
   8   2.0000     -10.291929      -280.0576
   9   2.0000     -10.290910      -280.0299
  10   2.0000     -10.285601      -279.8854
  11   2.0000     -10.283673      -279.8330
  12   2.0000     -10.282569      -279.8029
  13   2.0000     -10.279862      -279.7293
  14   2.0000     -10.279598      -279.7221
  15   2.0000     -10.267729      -279.3991
  16   2.0000      -8.078119      -219.8168
  17   2.0000      -8.075941      -219.7575
  18   2.0000      -6.036557      -164.2631
  19   2.0000      -6.034422      -164.2050
  20   2.0000      -6.032591      -164.1551
  21   2.0000      -6.030539      -164.0993
  22   2.0000      -6.029034      -164.0583
  23   2.0000      -6.026501      -163.9894
  24   2.0000      -1.008326       -27.4379
  25   2.0000      -0.986906       -26.8551
  26   2.0000      -0.920837       -25.0572
  27   2.0000      -0.906658       -24.6714
  28   2.0000      -0.875337       -23.8191
  29   2.0000      -0.854487       -23.2518
  30   2.0000      -0.847760       -23.0687
  31   2.0000      -0.820256       -22.3203
  32   2.0000      -0.781595       -21.2683
  33   2.0000      -0.767477       -20.8841
  34   2.0000      -0.708077       -19.2678
  35   2.0000      -0.698707       -19.0128
  36   2.0000      -0.694168       -18.8893
  37   2.0000      -0.661388       -17.9973
  38   2.0000      -0.650684       -17.7060
  39   2.0000      -0.623176       -16.9575
  40   2.0000      -0.593655       -16.1542
  41   2.0000      -0.577990       -15.7279
  42   2.0000      -0.561051       -15.2670
  43   2.0000      -0.553194       -15.0532
  44   2.0000      -0.542264       -14.7557
  45   2.0000      -0.530116       -14.4252
  46   2.0000      -0.518207       -14.1011
  47   2.0000      -0.514086       -13.9890
  48   2.0000      -0.511303       -13.9133
  49   2.0000      -0.498521       -13.5655
  50   2.0000      -0.498217       -13.5572
  51   2.0000      -0.475518       -12.9395
  52   2.0000      -0.469612       -12.7788
  53   2.0000      -0.465468       -12.6660
  54   2.0000      -0.462510       -12.5855
  55   2.0000      -0.447681       -12.1820
  56   2.0000      -0.443511       -12.0685
  57   2.0000      -0.440278       -11.9806
  58   2.0000      -0.434463       -11.8223
  59   2.0000      -0.427180       -11.6242
  60   2.0000      -0.416373       -11.3301
  61   2.0000      -0.409630       -11.1466
  62   2.0000      -0.407020       -11.0756
  63   2.0000      -0.344514        -9.3747
  64   2.0000      -0.325372        -8.8538
  65   2.0000      -0.320237        -8.7141
  66   2.0000      -0.305926        -8.3247
  67   0.0000       0.046178         1.2566
  68   0.0000       0.053073         1.4442
  69   0.0000       0.105139         2.8610
  70   0.0000       0.122206         3.3254
  71   0.0000       0.130214         3.5433

MULLIKEN ATOMIC CHARGES
-----------------------
   0 S :    0.106157
   1 C :   -0.101914
   2 C :   -0.082525
   3 C :    0.090202
   4 C :   -0.179169
   5 H :   -0.028827
   6 C :    0.099444
   7 H :    0.005652
   8 H :    0.019904
   9 C :   -0.084809
  10 H :    0.026725
  11 H :    0.012274
  12 C :   -0.047023
  13 H :    0.023851
  14 H :    0.041557
  15 H :    0.044385
  16 S :    0.102059
  17 C :   -0.078737
  18 C :   -0.046767
  19 C :    0.002843
  20 C :   -0.195676
  21 H :    0.023692
  22 C :    0.038824
  23 H :    0.033524
  24 H :    0.036465
  25 C :   -0.047870
  26 H :    0.023094
  27 H :    0.019516
  28 C :   -0.020725
  29 H :    0.012307
  30 H :    0.017779
  31 H :    0.029897
  32 H :    0.042017
  33 H :    0.061875
Sum of atomic charges:   -0.0000000

LOEWDIN ATOMIC CHARGES
----------------------
   0 S :    0.397349
   1 C :   -0.193470
   2 C :   -0.059231
   3 C :   -0.046611
   4 C :   -0.182110
   5 H :    0.018726
   6 C :   -0.029147
   7 H :    0.024822
   8 H :    0.030848
   9 C :   -0.048223
  10 H :    0.026401
  11 H :    0.020077
  12 C :   -0.069334
  13 H :    0.023040
  14 H :    0.028498
  15 H :    0.034154
  16 S :    0.401892
  17 C :   -0.191479
  18 C :   -0.078788
  19 C :   -0.048986
  20 C :   -0.198658
  21 H :    0.032486
  22 C :   -0.029175
  23 H :    0.032298
  24 H :    0.028618
  25 C :   -0.032725
  26 H :    0.024450
  27 H :    0.015740
  28 C :   -0.066911
  29 H :    0.018691
  30 H :    0.024225
  31 H :    0.032253
  32 H :    0.023987
  33 H :    0.036293

  Mayer bond orders larger than 0.100000
B(  0-S ,  1-C ) :   1.1586 B(  0-S ,  4-C ) :   1.1209 B(  1-C ,  2-C ) :   1.5918
B(  1-C , 32-H ) :   0.9712 B(  2-C ,  3-C ) :   1.2152 B(  2-C ,  6-C ) :   1.0451
B(  3-C ,  4-C ) :   1.6298 B(  3-C ,  5-H ) :   1.0084 B(  4-C , 20-C ) :   1.0037
B(  6-C ,  7-H ) :   0.9365 B(  6-C ,  8-H ) :   0.9318 B(  6-C ,  9-C ) :   1.0566
B(  9-C , 10-H ) :   0.9538 B(  9-C , 11-H ) :   0.9508 B(  9-C , 12-C ) :   1.0889
B( 12-C , 13-H ) :   0.9688 B( 12-C , 14-H ) :   0.9739 B( 12-C , 15-H ) :   0.9705
B( 16-S , 17-C ) :   1.1597 B( 16-S , 20-C ) :   1.1206 B( 17-C , 18-C ) :   1.6314
B( 17-C , 33-H ) :   0.9619 B( 18-C , 19-C ) :   1.2071 B( 18-C , 21-H ) :   0.9908
B( 19-C , 20-C ) :   1.6275 B( 19-C , 22-C ) :   1.0400 B( 22-C , 23-H ) :   0.9351
B( 22-C , 24-H ) :   0.9460 B( 22-C , 25-C ) :   1.0700 B( 25-C , 26-H ) :   0.9578
B( 25-C , 27-H ) :   0.9587 B( 25-C , 28-C ) :   1.0802 B( 28-C , 29-H ) :   0.9738
B( 28-C , 30-H ) :   0.9706 B( 28-C , 31-H ) :   0.9683

Dispersion correction           -0.015099388
FINAL SINGLE POINT ENERGY     -1339.871945517029

DIPOLE MOMENT
-------------
                                X             Y             Z
Electronic contribution:      2.79556     -23.55128       6.73845
Nuclear contribution   :     -3.15730      24.17082      -6.77077
                        -----------------------------------------
Total Dipole Moment    :     -0.36174       0.61954      -0.03232
                        -----------------------------------------
Magnitude (a.u.)       :      0.71815
Magnitude (Debye)      :      1.82538

Rotational constants in cm-1:     0.020521     0.007828     0.007221
Rotational constants in MHz :   615.193778   234.686072   216.483368

                             ****ORCA TERMINATED NORMALLY****
TOTAL RUN TIME: 0 days 0 hours 0 minutes 22 seconds 36 msec
