                         Program Version 4.2.1 -  RELEASE  -
|  1> ! wB97X-D3 SP def2-SVP
|  2> %pal
|  3> nprocs 24
|  4> end
|  5>
|  6> * xyz 0 1
|  7> S 	 -56.1769 	 9.86222 	 20.8905
|  8> C 	 -55.8722 	 10.5585 	 19.2977
|  9> C 	 -56.8619 	 10.1971 	 18.4107
| 10> C 	 -57.7126 	 9.17884 	 18.9564
| 11> C 	 -57.4995 	 8.88913 	 20.3119
| 12> H 	 -58.5272 	 8.60777 	 18.4118
| 13> C 	 -56.9172 	 10.5996 	 16.9367
| 14> H 	 -56.0748 	 10.0518 	 16.5518
| 15> H 	 -56.7088 	 11.7046 	 16.6975
| 16> C 	 -58.2035 	 10.2808 	 16.1939
| 17> H 	 -58.3028 	 9.25153 	 16.0495
| 18> H 	 -59.0568 	 10.5138 	 16.8307
| 19> C 	 -58.3803 	 10.8743 	 14.8038
| 20> H 	 -59.3881 	 10.979 	 14.3928
| 21> H 	 -57.9852 	 11.9016 	 14.8906
| 22> H 	 -57.764 	 10.3029 	 14.1802
| 23> S 	 -59.0211 	 8.62242 	 22.5126
| 24> C 	 -59.4168 	 7.08684 	 23.2545
| 25> C 	 -58.9875 	 6.07884 	 22.4843
| 26> C 	 -58.1552 	 6.52741 	 21.3714
| 27> C 	 -58.1298 	 7.91125 	 21.2078
| 28> H 	 -59.1967 	 5.09939 	 22.8807
| 29> C 	 -57.6652 	 5.59022 	 20.277
| 30> H 	 -56.6032 	 5.3416 	 20.5259
| 31> H 	 -57.6546 	 6.19123 	 19.4422
| 32> C 	 -58.5314 	 4.42637 	 19.8993
| 33> H 	 -59.5667 	 4.87403 	 19.9328
| 34> H 	 -58.5109 	 3.60173 	 20.7074
| 35> C 	 -58.2561 	 3.8364 	 18.4364
| 36> H 	 -57.2963 	 3.37572 	 18.3543
| 37> H 	 -58.4464 	 4.66661 	 17.7712
| 38> H 	 -59.0326 	 3.15196 	 18.1314
| 39> H 	 -55.1254 	 11.2803 	 19.0743
| 40> H 	 -59.9289 	 6.90029 	 24.2357
| 41> *
| 42>
| 43>                          ****END OF INPUT****

CARTESIAN COORDINATES (ANGSTROEM)
---------------------------------
  S    -56.176900    9.862220   20.890500
  C    -55.872200   10.558500   19.297700
  C    -56.861900   10.197100   18.410700
  C    -57.712600    9.178840   18.956400
  C    -57.499500    8.889130   20.311900
  H    -58.527200    8.607770   18.411800
  C    -56.917200   10.599600   16.936700
  H    -56.074800   10.051800   16.551800
  H    -56.708800   11.704600   16.697500
  C    -58.203500   10.280800   16.193900
  H    -58.302800    9.251530   16.049500
  H    -59.056800   10.513800   16.830700
  C    -58.380300   10.874300   14.803800
  H    -59.388100   10.979000   14.392800
  H    -57.985200   11.901600   14.890600
  H    -57.764000   10.302900   14.180200
  S    -59.021100    8.622420   22.512600
  C    -59.416800    7.086840   23.254500
  C    -58.987500    6.078840   22.484300
  C    -58.155200    6.527410   21.371400
  C    -58.129800    7.911250   21.207800
  H    -59.196700    5.099390   22.880700
  C    -57.665200    5.590220   20.277000
  H    -56.603200    5.341600   20.525900
  H    -57.654600    6.191230   19.442200
  C    -58.531400    4.426370   19.899300
  H    -59.566700    4.874030   19.932800
  H    -58.510900    3.601730   20.707400
  C    -58.256100    3.836400   18.436400
  H    -57.296300    3.375720   18.354300
  H    -58.446400    4.666610   17.771200
  H    -59.032600    3.151960   18.131400
  H    -55.125400   11.280300   19.074300
  H    -59.928900    6.900290   24.235700

 Total Charge           Charge          ....    0
 Multiplicity           Mult            ....    1
 Number of Electrons    NEL             ....  134
 Basis Dimension        Dim             ....  322

ORBITAL ENERGIES
----------------

  NO   OCC          E(Eh)            E(eV)
   0   2.0000     -88.967249     -2420.9219
   1   2.0000     -88.958899     -2420.6947
   2   2.0000     -10.334306      -281.2108
   3   2.0000     -10.327803      -281.0338
   4   2.0000     -10.315565      -280.7008
   5   2.0000     -10.314462      -280.6708
   6   2.0000     -10.307934      -280.4932
   7   2.0000     -10.307120      -280.4710
   8   2.0000     -10.304348      -280.3956
   9   2.0000     -10.300138      -280.2810
  10   2.0000     -10.297333      -280.2047
  11   2.0000     -10.290596      -280.0214
  12   2.0000     -10.280814      -279.7552
  13   2.0000     -10.280784      -279.7544
  14   2.0000     -10.279995      -279.7329
  15   2.0000     -10.277221      -279.6574
  16   2.0000      -8.081734      -219.9152
  17   2.0000      -8.074293      -219.7127
  18   2.0000      -6.040246      -164.3635
  19   2.0000      -6.036142      -164.2518
  20   2.0000      -6.032886      -164.1632
  21   2.0000      -6.032612      -164.1557
  22   2.0000      -6.028541      -164.0449
  23   2.0000      -6.025069      -163.9505
  24   2.0000      -1.007731       -27.4217
  25   2.0000      -0.985861       -26.8266
  26   2.0000      -0.916824       -24.9481
  27   2.0000      -0.907079       -24.6829
  28   2.0000      -0.876582       -23.8530
  29   2.0000      -0.847392       -23.0587
  30   2.0000      -0.839863       -22.8538
  31   2.0000      -0.819948       -22.3119
  32   2.0000      -0.784232       -21.3400
  33   2.0000      -0.773289       -21.0423
  34   2.0000      -0.715048       -19.4574
  35   2.0000      -0.696851       -18.9623
  36   2.0000      -0.692438       -18.8422
  37   2.0000      -0.646522       -17.5927
  38   2.0000      -0.642581       -17.4855
  39   2.0000      -0.617589       -16.8054
  40   2.0000      -0.591585       -16.0978
  41   2.0000      -0.578946       -15.7539
  42   2.0000      -0.573705       -15.6113
  43   2.0000      -0.567907       -15.4535
  44   2.0000      -0.531473       -14.4621
  45   2.0000      -0.519797       -14.1444
  46   2.0000      -0.514108       -13.9896
  47   2.0000      -0.512118       -13.9354
  48   2.0000      -0.508323       -13.8322
  49   2.0000      -0.506041       -13.7701
  50   2.0000      -0.494036       -13.4434
  51   2.0000      -0.475106       -12.9283
  52   2.0000      -0.470192       -12.7946
  53   2.0000      -0.465401       -12.6642
  54   2.0000      -0.460051       -12.5186
  55   2.0000      -0.454682       -12.3725
  56   2.0000      -0.448156       -12.1949
  57   2.0000      -0.431566       -11.7435
  58   2.0000      -0.426995       -11.6191
  59   2.0000      -0.421274       -11.4634
  60   2.0000      -0.419550       -11.4165
  61   2.0000      -0.418125       -11.3778
  62   2.0000      -0.407950       -11.1009
  63   2.0000      -0.339769        -9.2456
  64   2.0000      -0.331692        -9.0258
  65   2.0000      -0.324238        -8.8230
  66   2.0000      -0.304489        -8.2856
  67   0.0000       0.038064         1.0358
  68   0.0000       0.060758         1.6533
  69   0.0000       0.120357         3.2751
  70   0.0000       0.125357         3.4111
  71   0.0000       0.127656         3.4737

MULLIKEN ATOMIC CHARGES
-----------------------
   0 S :    0.127281
   1 C :   -0.114393
   2 C :   -0.075199
   3 C :    0.012733
   4 C :   -0.157188
   5 H :    0.040563
   6 C :    0.035847
   7 H :    0.042402
   8 H :    0.037853
   9 C :   -0.091045
  10 H :    0.013481
  11 H :    0.031169
  12 C :   -0.011619
  13 H :    0.043379
  14 H :    0.020163
  15 H :    0.021713
  16 S :    0.093605
  17 C :   -0.103806
  18 C :   -0.038367
  19 C :   -0.052044
  20 C :   -0.172829
  21 H :    0.018675
  22 C :    0.142207
  23 H :    0.038060
  24 H :   -0.019591
  25 C :   -0.153855
  26 H :    0.038992
  27 H :    0.041787
  28 C :   -0.023209
  29 H :    0.045334
  30 H :    0.026137
  31 H :    0.030798
  32 H :    0.038004
  33 H :    0.072961
Sum of atomic charges:    0.0000000

LOEWDIN ATOMIC CHARGES
----------------------
   0 S :    0.417363
   1 C :   -0.187225
   2 C :   -0.062759
   3 C :   -0.070034
   4 C :   -0.207746
   5 H :    0.041941
   6 C :   -0.034283
   7 H :    0.035266
   8 H :    0.037793
   9 C :   -0.048649
  10 H :    0.014178
  11 H :    0.025063
  12 C :   -0.055948
  13 H :    0.031949
  14 H :    0.025041
  15 H :    0.018233
  16 S :    0.407356
  17 C :   -0.189459
  18 C :   -0.081496
  19 C :   -0.049790
  20 C :   -0.211215
  21 H :    0.033342
  22 C :   -0.037527
  23 H :    0.036819
  24 H :    0.016888
  25 C :   -0.047692
  26 H :    0.030494
  27 H :    0.024709
  28 C :   -0.058671
  29 H :    0.024232
  30 H :    0.025399
  31 H :    0.027300
  32 H :    0.023957
  33 H :    0.045169

  Mayer bond orders larger than 0.100000
B(  0-S ,  1-C ) :   1.1453 B(  0-S ,  4-C ) :   1.1657 B(  1-C ,  2-C ) :   1.6086
B(  1-C ,  4-C ) :   0.1081 B(  1-C , 32-H ) :   0.9764 B(  2-C ,  3-C ) :   1.2469
B(  2-C ,  6-C ) :   1.0053 B(  3-C ,  4-C ) :   1.5732 B(  3-C ,  5-H ) :   0.9784
B(  4-C , 20-C ) :   1.0023 B(  6-C ,  7-H ) :   0.9359 B(  6-C ,  8-H ) :   0.9442
B(  6-C ,  9-C ) :   1.0787 B(  9-C , 10-H ) :   0.9420 B(  9-C , 11-H ) :   0.9585
B(  9-C , 12-C ) :   1.0791 B( 12-C , 13-H ) :   0.9739 B( 12-C , 14-H ) :   0.9746
B( 12-C , 15-H ) :   0.9771 B( 16-S , 17-C ) :   1.1469 B( 16-S , 20-C ) :   1.1467
B( 17-C , 18-C ) :   1.6491 B( 17-C , 33-H ) :   0.9563 B( 18-C , 19-C ) :   1.2005
B( 18-C , 21-H ) :   0.9921 B( 19-C , 20-C ) :   1.6140 B( 19-C , 22-C ) :   1.0396
B( 22-C , 23-H ) :   0.9105 B( 22-C , 24-H ) :   0.9378 B( 22-C , 25-C ) :   1.0698
B( 25-C , 26-H ) :   0.9563 B( 25-C , 27-H ) :   0.9490 B( 25-C , 28-C ) :   1.0763
B( 28-C , 29-H ) :   0.9792 B( 28-C , 30-H ) :   0.9728 B( 28-C , 31-H ) :   0.9754

Dispersion correction           -0.013400297
FINAL SINGLE POINT ENERGY     -1339.859493035377

DIPOLE MOMENT
-------------
                                X             Y             Z
Electronic contribution:      3.84337      10.51730      27.17765
Nuclear contribution   :     -3.90787     -10.85432     -27.77605
                        -----------------------------------------
Total Dipole Moment    :     -0.06450      -0.33702      -0.59839
                        -----------------------------------------
Magnitude (a.u.)       :      0.68980
Magnitude (Debye)      :      1.75332

Rotational constants in cm-1:     0.016502     0.008357     0.006435
Rotational constants in MHz :   494.707341   250.536302   192.921461

                             ****ORCA TERMINATED NORMALLY****
TOTAL RUN TIME: 0 days 0 hours 0 minutes 20 seconds 727 msec
