                         Program Version 4.2.1 -  RELEASE  -
|  1> ! wB97X-D3 SP def2-SVP
|  2> %pal
|  3> nprocs 24
|  4> end
|  5>
|  6> * xyz 0 1
|  7> S 	 -140.474 	 24.3201 	 -21.3942
|  8> C 	 -141.34 	 22.9014 	 -20.9347
|  9> C 	 -142.631 	 23.2147 	 -20.4205
| 10> C 	 -142.729 	 24.6094 	 -20.1572
| 11> C 	 -141.601 	 25.3269 	 -20.5638
| 12> H 	 -143.582 	 25.0875 	 -19.7664
| 13> C 	 -143.772 	 22.3057 	 -20.2219
| 14> H 	 -144.059 	 22.3705 	 -19.1398
| 15> H 	 -143.515 	 21.2632 	 -20.281
| 16> C 	 -144.896 	 22.4517 	 -21.2346
| 17> H 	 -145.176 	 23.4847 	 -21.3095
| 18> H 	 -144.454 	 22.1172 	 -22.1198
| 19> C 	 -146.081 	 21.561 	 -20.772
| 20> H 	 -145.737 	 20.5187 	 -20.6009
| 21> H 	 -146.44 	 21.9017 	 -19.8344
| 22> H 	 -146.958 	 21.5491 	 -21.5105
| 23> S 	 -140.758 	 27.6278 	 -21.7844
| 24> C 	 -140.892 	 29.1398 	 -20.9673
| 25> C 	 -141.377 	 28.9768 	 -19.6995
| 26> C 	 -141.579 	 27.6072 	 -19.3076
| 27> C 	 -141.409 	 26.7647 	 -20.4178
| 28> H 	 -141.542 	 29.9107 	 -19.1583
| 29> C 	 -142.024 	 27.2325 	 -17.8896
| 30> H 	 -143.011 	 26.809 	 -17.9819
| 31> H 	 -142.169 	 28.1891 	 -17.3269
| 32> C 	 -141.038 	 26.3354 	 -17.1792
| 33> H 	 -140.04 	 26.6823 	 -17.0441
| 34> H 	 -140.851 	 25.4001 	 -17.7437
| 35> C 	 -141.568 	 25.895 	 -15.7715
| 36> H 	 -140.709 	 25.445 	 -15.2597
| 37> H 	 -142.333 	 25.112 	 -15.7747
| 38> H 	 -141.905 	 26.7529 	 -15.1689
| 39> H 	 -141.149 	 21.7726 	 -21.1564
| 40> H 	 -140.824 	 30.0911 	 -21.3533
| 41> *
| 42>
| 43>                          ****END OF INPUT****

CARTESIAN COORDINATES (ANGSTROEM)
---------------------------------
  S    -140.474000   24.320100  -21.394200
  C    -141.340000   22.901400  -20.934700
  C    -142.631000   23.214700  -20.420500
  C    -142.729000   24.609400  -20.157200
  C    -141.601000   25.326900  -20.563800
  H    -143.582000   25.087500  -19.766400
  C    -143.772000   22.305700  -20.221900
  H    -144.059000   22.370500  -19.139800
  H    -143.515000   21.263200  -20.281000
  C    -144.896000   22.451700  -21.234600
  H    -145.176000   23.484700  -21.309500
  H    -144.454000   22.117200  -22.119800
  C    -146.081000   21.561000  -20.772000
  H    -145.737000   20.518700  -20.600900
  H    -146.440000   21.901700  -19.834400
  H    -146.958000   21.549100  -21.510500
  S    -140.758000   27.627800  -21.784400
  C    -140.892000   29.139800  -20.967300
  C    -141.377000   28.976800  -19.699500
  C    -141.579000   27.607200  -19.307600
  C    -141.409000   26.764700  -20.417800
  H    -141.542000   29.910700  -19.158300
  C    -142.024000   27.232500  -17.889600
  H    -143.011000   26.809000  -17.981900
  H    -142.169000   28.189100  -17.326900
  C    -141.038000   26.335400  -17.179200
  H    -140.040000   26.682300  -17.044100
  H    -140.851000   25.400100  -17.743700
  C    -141.568000   25.895000  -15.771500
  H    -140.709000   25.445000  -15.259700
  H    -142.333000   25.112000  -15.774700
  H    -141.905000   26.752900  -15.168900
  H    -141.149000   21.772600  -21.156400
  H    -140.824000   30.091100  -21.353300

 Total Charge           Charge          ....    0
 Multiplicity           Mult            ....    1
 Number of Electrons    NEL             ....  134
 Basis Dimension        Dim             ....  322

ORBITAL ENERGIES
----------------

  NO   OCC          E(Eh)            E(eV)
   0   2.0000     -88.972624     -2421.0682
   1   2.0000     -88.964912     -2420.8583
   2   2.0000     -10.328805      -281.0611
   3   2.0000     -10.327060      -281.0136
   4   2.0000     -10.321029      -280.8495
   5   2.0000     -10.305521      -280.4275
   6   2.0000     -10.305316      -280.4219
   7   2.0000     -10.300599      -280.2935
   8   2.0000     -10.294439      -280.1259
   9   2.0000     -10.290847      -280.0282
  10   2.0000     -10.290634      -280.0224
  11   2.0000     -10.288525      -279.9650
  12   2.0000     -10.286240      -279.9028
  13   2.0000     -10.283322      -279.8234
  14   2.0000     -10.281995      -279.7873
  15   2.0000     -10.277338      -279.6606
  16   2.0000      -8.087591      -220.0746
  17   2.0000      -8.080296      -219.8760
  18   2.0000      -6.046093      -164.5225
  19   2.0000      -6.042060      -164.4128
  20   2.0000      -6.038833      -164.3250
  21   2.0000      -6.038360      -164.3121
  22   2.0000      -6.034690      -164.2123
  23   2.0000      -6.031030      -164.1127
  24   2.0000      -1.010027       -27.4842
  25   2.0000      -0.986823       -26.8528
  26   2.0000      -0.921097       -25.0643
  27   2.0000      -0.906336       -24.6627
  28   2.0000      -0.868558       -23.6347
  29   2.0000      -0.853506       -23.2251
  30   2.0000      -0.845246       -23.0003
  31   2.0000      -0.812965       -22.1219
  32   2.0000      -0.780064       -21.2266
  33   2.0000      -0.768321       -20.9071
  34   2.0000      -0.712007       -19.3747
  35   2.0000      -0.703344       -19.1390
  36   2.0000      -0.691734       -18.8230
  37   2.0000      -0.660406       -17.9706
  38   2.0000      -0.636379       -17.3168
  39   2.0000      -0.627996       -17.0886
  40   2.0000      -0.593096       -16.1390
  41   2.0000      -0.569764       -15.5041
  42   2.0000      -0.566692       -15.4205
  43   2.0000      -0.557260       -15.1638
  44   2.0000      -0.526958       -14.3393
  45   2.0000      -0.520274       -14.1574
  46   2.0000      -0.518730       -14.1154
  47   2.0000      -0.510741       -13.8980
  48   2.0000      -0.501727       -13.6527
  49   2.0000      -0.498722       -13.5709
  50   2.0000      -0.489611       -13.3230
  51   2.0000      -0.483727       -13.1629
  52   2.0000      -0.466894       -12.7048
  53   2.0000      -0.464244       -12.6327
  54   2.0000      -0.460235       -12.5236
  55   2.0000      -0.452766       -12.3204
  56   2.0000      -0.446017       -12.1367
  57   2.0000      -0.442327       -12.0363
  58   2.0000      -0.435805       -11.8588
  59   2.0000      -0.432927       -11.7805
  60   2.0000      -0.418348       -11.3838
  61   2.0000      -0.414619       -11.2824
  62   2.0000      -0.411641       -11.2013
  63   2.0000      -0.349823        -9.5192
  64   2.0000      -0.332869        -9.0578
  65   2.0000      -0.328692        -8.9442
  66   2.0000      -0.284068        -7.7299
  67   0.0000       0.028068         0.7638
  68   0.0000       0.070427         1.9164
  69   0.0000       0.104969         2.8563
  70   0.0000       0.121760         3.3133
  71   0.0000       0.137563         3.7433

MULLIKEN ATOMIC CHARGES
-----------------------
   0 S :    0.136341
   1 C :   -0.136259
   2 C :   -0.096326
   3 C :    0.030252
   4 C :   -0.143491
   5 H :   -0.004766
   6 C :    0.018325
   7 H :    0.031987
   8 H :   -0.002121
   9 C :   -0.013600
  10 H :    0.029240
  11 H :    0.018052
  12 C :   -0.053890
  13 H :    0.029598
  14 H :    0.020353
  15 H :    0.050342
  16 S :    0.104653
  17 C :   -0.049991
  18 C :   -0.063365
  19 C :   -0.043951
  20 C :   -0.156259
  21 H :    0.021912
  22 C :    0.104662
  23 H :    0.027373
  24 H :    0.021840
  25 C :   -0.081613
  26 H :    0.024463
  27 H :    0.044478
  28 C :   -0.060921
  29 H :    0.029247
  30 H :    0.034202
  31 H :    0.031707
  32 H :    0.074673
  33 H :    0.022855
Sum of atomic charges:    0.0000000

LOEWDIN ATOMIC CHARGES
----------------------
   0 S :    0.435251
   1 C :   -0.234994
   2 C :   -0.062531
   3 C :   -0.057119
   4 C :   -0.203381
   5 H :    0.022896
   6 C :   -0.043072
   7 H :    0.033600
   8 H :    0.023857
   9 C :   -0.023556
  10 H :    0.021108
  11 H :    0.020100
  12 C :   -0.064038
  13 H :    0.026802
  14 H :    0.017965
  15 H :    0.034002
  16 S :    0.413664
  17 C :   -0.188089
  18 C :   -0.072423
  19 C :   -0.054896
  20 C :   -0.199311
  21 H :    0.033992
  22 C :   -0.029715
  23 H :    0.029921
  24 H :    0.034421
  25 C :   -0.040762
  26 H :    0.022897
  27 H :    0.032693
  28 C :   -0.068364
  29 H :    0.027289
  30 H :    0.022782
  31 H :    0.023012
  32 H :    0.049996
  33 H :    0.016003

  Mayer bond orders larger than 0.100000
B(  0-S ,  1-C ) :   1.1482 B(  0-S ,  4-C ) :   1.1648 B(  1-C ,  2-C ) :   1.5791
B(  1-C ,  4-C ) :   0.1005 B(  1-C , 32-H ) :   0.9516 B(  2-C ,  3-C ) :   1.2645
B(  2-C ,  6-C ) :   1.0447 B(  3-C ,  4-C ) :   1.5284 B(  3-C ,  5-H ) :   1.0042
B(  4-C , 20-C ) :   1.0554 B(  6-C ,  7-H ) :   0.9394 B(  6-C ,  8-H ) :   0.9347
B(  6-C ,  9-C ) :   1.0474 B(  9-C , 10-H ) :   0.9615 B(  9-C , 11-H ) :   0.9520
B(  9-C , 12-C ) :   1.0743 B( 12-C , 13-H ) :   0.9724 B( 12-C , 14-H ) :   0.9764
B( 12-C , 15-H ) :   0.9751 B( 16-S , 17-C ) :   1.1451 B( 16-S , 20-C ) :   1.1479
B( 17-C , 18-C ) :   1.6414 B( 17-C , 33-H ) :   0.9705 B( 18-C , 19-C ) :   1.2331
B( 18-C , 21-H ) :   0.9858 B( 19-C , 20-C ) :   1.5759 B( 19-C , 22-C ) :   1.0320
B( 22-C , 23-H ) :   0.9344 B( 22-C , 24-H ) :   0.9328 B( 22-C , 25-C ) :   1.0612
B( 25-C , 26-H ) :   0.9582 B( 25-C , 27-H ) :   0.9538 B( 25-C , 28-C ) :   1.0803
B( 28-C , 29-H ) :   0.9760 B( 28-C , 30-H ) :   0.9782 B( 28-C , 31-H ) :   0.9749

Dispersion correction           -0.014193802
FINAL SINGLE POINT ENERGY     -1339.874611437080

DIPOLE MOMENT
-------------
                                X             Y             Z
Electronic contribution:     17.63011      12.47150     -18.19109
Nuclear contribution   :    -18.12188     -12.56664      18.54453
                        -----------------------------------------
Total Dipole Moment    :     -0.49178      -0.09513       0.35344
                        -----------------------------------------
Magnitude (a.u.)       :      0.61304
Magnitude (Debye)      :      1.55822

Rotational constants in cm-1:     0.017713     0.008534     0.007073
Rotational constants in MHz :   531.029257   255.829084   212.035970

                             ****ORCA TERMINATED NORMALLY****
TOTAL RUN TIME: 0 days 0 hours 0 minutes 21 seconds 656 msec
