                         Program Version 4.2.1 -  RELEASE  -
|  1> ! wB97X-D3 SP def2-SVP
|  2> %pal
|  3> nprocs 24
|  4> end
|  5>
|  6> * xyz 0 1
|  7> S 	 -70.9827 	 -42.672 	 -92.2333
|  8> C 	 -70.4604 	 -41.1096 	 -92.7015
|  9> C 	 -70.1703 	 -41.062 	 -94.047
| 10> C 	 -70.6583 	 -42.2191 	 -94.7902
| 11> C 	 -71.1064 	 -43.2184 	 -93.9339
| 12> H 	 -70.6842 	 -42.3258 	 -95.9083
| 13> C 	 -69.3592 	 -39.9854 	 -94.6567
| 14> H 	 -69.6057 	 -39.0671 	 -94.1781
| 15> H 	 -69.642 	 -39.8995 	 -95.7313
| 16> C 	 -67.8019 	 -40.2353 	 -94.5337
| 17> H 	 -67.2174 	 -39.3332 	 -94.9555
| 18> H 	 -67.4605 	 -40.2629 	 -93.4523
| 19> C 	 -67.2762 	 -41.5341 	 -95.1739
| 20> H 	 -67.8187 	 -41.9333 	 -95.9934
| 21> H 	 -66.2113 	 -41.4393 	 -95.3314
| 22> H 	 -67.238 	 -42.3715 	 -94.504
| 23> S 	 -71.545 	 -45.8001 	 -93.0917
| 24> C 	 -72.0386 	 -47.0095 	 -94.2429
| 25> C 	 -72.6219 	 -46.3388 	 -95.2931
| 26> C 	 -72.3738 	 -44.9343 	 -95.3452
| 27> C 	 -71.6836 	 -44.4984 	 -94.1976
| 28> H 	 -73.0941 	 -46.9662 	 -96.0637
| 29> C 	 -72.8488 	 -44.1454 	 -96.5409
| 30> H 	 -72.9726 	 -43.0609 	 -96.362
| 31> H 	 -73.9319 	 -44.4942 	 -96.6507
| 32> C 	 -72.1044 	 -44.539 	 -97.7589
| 33> H 	 -72.0936 	 -45.5634 	 -97.9121
| 34> H 	 -71.0374 	 -44.2724 	 -97.7549
| 35> C 	 -72.4936 	 -43.7896 	 -99.1219
| 36> H 	 -72.4752 	 -42.7395 	 -98.8777
| 37> H 	 -73.4506 	 -44.2074 	 -99.4084
| 38> H 	 -71.8278 	 -43.8908 	 -99.9572
| 39> H 	 -70.0901 	 -40.4547 	 -91.9912
| 40> H 	 -72.0863 	 -48.0651 	 -94.0183
| 41> *
| 42>
| 43>                          ****END OF INPUT****

CARTESIAN COORDINATES (ANGSTROEM)
---------------------------------
  S    -70.982700  -42.672000  -92.233300
  C    -70.460400  -41.109600  -92.701500
  C    -70.170300  -41.062000  -94.047000
  C    -70.658300  -42.219100  -94.790200
  C    -71.106400  -43.218400  -93.933900
  H    -70.684200  -42.325800  -95.908300
  C    -69.359200  -39.985400  -94.656700
  H    -69.605700  -39.067100  -94.178100
  H    -69.642000  -39.899500  -95.731300
  C    -67.801900  -40.235300  -94.533700
  H    -67.217400  -39.333200  -94.955500
  H    -67.460500  -40.262900  -93.452300
  C    -67.276200  -41.534100  -95.173900
  H    -67.818700  -41.933300  -95.993400
  H    -66.211300  -41.439300  -95.331400
  H    -67.238000  -42.371500  -94.504000
  S    -71.545000  -45.800100  -93.091700
  C    -72.038600  -47.009500  -94.242900
  C    -72.621900  -46.338800  -95.293100
  C    -72.373800  -44.934300  -95.345200
  C    -71.683600  -44.498400  -94.197600
  H    -73.094100  -46.966200  -96.063700
  C    -72.848800  -44.145400  -96.540900
  H    -72.972600  -43.060900  -96.362000
  H    -73.931900  -44.494200  -96.650700
  C    -72.104400  -44.539000  -97.758900
  H    -72.093600  -45.563400  -97.912100
  H    -71.037400  -44.272400  -97.754900
  C    -72.493600  -43.789600  -99.121900
  H    -72.475200  -42.739500  -98.877700
  H    -73.450600  -44.207400  -99.408400
  H    -71.827800  -43.890800  -99.957200
  H    -70.090100  -40.454700  -91.991200
  H    -72.086300  -48.065100  -94.018300

 Total Charge           Charge          ....    0
 Multiplicity           Mult            ....    1
 Number of Electrons    NEL             ....  134
 Basis Dimension        Dim             ....  322

ORBITAL ENERGIES
----------------

  NO   OCC          E(Eh)            E(eV)
   0   2.0000     -88.963201     -2420.8118
   1   2.0000     -88.962008     -2420.7793
   2   2.0000     -10.333905      -281.1999
   3   2.0000     -10.326554      -280.9998
   4   2.0000     -10.318738      -280.7871
   5   2.0000     -10.306218      -280.4464
   6   2.0000     -10.305150      -280.4174
   7   2.0000     -10.303863      -280.3824
   8   2.0000     -10.300823      -280.2996
   9   2.0000     -10.300666      -280.2954
  10   2.0000     -10.299823      -280.2724
  11   2.0000     -10.296439      -280.1804
  12   2.0000     -10.292663      -280.0776
  13   2.0000     -10.283583      -279.8305
  14   2.0000     -10.278932      -279.7040
  15   2.0000     -10.268776      -279.4276
  16   2.0000      -8.079058      -219.8423
  17   2.0000      -8.077171      -219.7910
  18   2.0000      -6.037637      -164.2924
  19   2.0000      -6.035763      -164.2415
  20   2.0000      -6.033378      -164.1766
  21   2.0000      -6.031685      -164.1305
  22   2.0000      -6.029702      -164.0765
  23   2.0000      -6.027775      -164.0241
  24   2.0000      -1.012020       -27.5385
  25   2.0000      -0.987315       -26.8662
  26   2.0000      -0.915960       -24.9245
  27   2.0000      -0.906877       -24.6774
  28   2.0000      -0.873355       -23.7652
  29   2.0000      -0.850174       -23.1344
  30   2.0000      -0.842224       -22.9181
  31   2.0000      -0.819974       -22.3126
  32   2.0000      -0.783997       -21.3336
  33   2.0000      -0.772414       -21.0185
  34   2.0000      -0.709658       -19.3108
  35   2.0000      -0.702453       -19.1147
  36   2.0000      -0.698759       -19.0142
  37   2.0000      -0.663300       -18.0493
  38   2.0000      -0.639712       -17.4074
  39   2.0000      -0.618170       -16.8212
  40   2.0000      -0.600615       -16.3436
  41   2.0000      -0.566410       -15.4128
  42   2.0000      -0.564743       -15.3674
  43   2.0000      -0.551529       -15.0079
  44   2.0000      -0.537077       -14.6146
  45   2.0000      -0.530405       -14.4330
  46   2.0000      -0.520683       -14.1685
  47   2.0000      -0.514560       -14.0019
  48   2.0000      -0.513124       -13.9628
  49   2.0000      -0.501371       -13.6430
  50   2.0000      -0.492318       -13.3966
  51   2.0000      -0.481682       -13.1072
  52   2.0000      -0.477843       -13.0028
  53   2.0000      -0.468978       -12.7616
  54   2.0000      -0.457673       -12.4539
  55   2.0000      -0.453325       -12.3356
  56   2.0000      -0.442919       -12.0524
  57   2.0000      -0.438117       -11.9218
  58   2.0000      -0.433171       -11.7872
  59   2.0000      -0.429457       -11.6861
  60   2.0000      -0.420672       -11.4471
  61   2.0000      -0.403896       -10.9906
  62   2.0000      -0.397216       -10.8088
  63   2.0000      -0.363527        -9.8921
  64   2.0000      -0.332373        -9.0443
  65   2.0000      -0.322514        -8.7761
  66   2.0000      -0.282016        -7.6741
  67   0.0000       0.019431         0.5288
  68   0.0000       0.074640         2.0311
  69   0.0000       0.106104         2.8872
  70   0.0000       0.117199         3.1891
  71   0.0000       0.123039         3.3481

MULLIKEN ATOMIC CHARGES
-----------------------
   0 S :    0.086089
   1 C :   -0.072317
   2 C :   -0.111814
   3 C :   -0.009034
   4 C :   -0.135649
   5 H :    0.035895
   6 C :    0.082924
   7 H :    0.019641
   8 H :    0.029361
   9 C :   -0.115976
  10 H :    0.044175
  11 H :    0.035183
  12 C :   -0.023432
  13 H :    0.023995
  14 H :    0.025151
  15 H :    0.023447
  16 S :    0.097844
  17 C :   -0.098847
  18 C :   -0.044129
  19 C :   -0.047242
  20 C :   -0.105604
  21 H :    0.030537
  22 C :    0.054198
  23 H :    0.036082
  24 H :    0.038446
  25 C :   -0.081283
  26 H :    0.013466
  27 H :    0.024151
  28 C :   -0.039853
  29 H :    0.028277
  30 H :    0.031022
  31 H :    0.032646
  32 H :    0.028188
  33 H :    0.064459
Sum of atomic charges:   -0.0000000

LOEWDIN ATOMIC CHARGES
----------------------
   0 S :    0.395022
   1 C :   -0.195480
   2 C :   -0.061182
   3 C :   -0.070810
   4 C :   -0.168470
   5 H :    0.040409
   6 C :   -0.033542
   7 H :    0.028102
   8 H :    0.033102
   9 C :   -0.044241
  10 H :    0.029689
  11 H :    0.029096
  12 C :   -0.073296
  13 H :    0.018865
  14 H :    0.029844
  15 H :    0.027736
  16 S :    0.418180
  17 C :   -0.184647
  18 C :   -0.073477
  19 C :   -0.054386
  20 C :   -0.212776
  21 H :    0.033905
  22 C :   -0.039329
  23 H :    0.032697
  24 H :    0.044047
  25 C :   -0.040348
  26 H :    0.012913
  27 H :    0.025129
  28 C :   -0.059707
  29 H :    0.022976
  30 H :    0.021126
  31 H :    0.023100
  32 H :    0.013451
  33 H :    0.032301

  Mayer bond orders larger than 0.100000
B(  0-S ,  1-C ) :   1.1352 B(  0-S ,  4-C ) :   1.1389 B(  1-C ,  2-C ) :   1.6218
B(  1-C , 32-H ) :   0.9726 B(  2-C ,  3-C ) :   1.2149 B(  2-C ,  6-C ) :   1.0406
B(  3-C ,  4-C ) :   1.5826 B(  3-C ,  5-H ) :   0.9784 B(  4-C , 20-C ) :   1.0905
B(  6-C ,  7-H ) :   0.9364 B(  6-C ,  8-H ) :   0.9422 B(  6-C ,  9-C ) :   1.0600
B(  9-C , 10-H ) :   0.9636 B(  9-C , 11-H ) :   0.9568 B(  9-C , 12-C ) :   1.0664
B( 12-C , 13-H ) :   0.9783 B( 12-C , 14-H ) :   0.9700 B( 12-C , 15-H ) :   0.9705
B( 16-S , 17-C ) :   1.1578 B( 16-S , 20-C ) :   1.1436 B( 17-C , 18-C ) :   1.5875
B( 17-C , 20-C ) :   0.1010 B( 17-C , 33-H ) :   0.9727 B( 18-C , 19-C ) :   1.2557
B( 18-C , 21-H ) :   0.9837 B( 19-C , 20-C ) :   1.5496 B( 19-C , 22-C ) :   1.0374
B( 22-C , 23-H ) :   0.9391 B( 22-C , 24-H ) :   0.9283 B( 22-C , 25-C ) :   1.0590
B( 25-C , 26-H ) :   0.9575 B( 25-C , 27-H ) :   0.9545 B( 25-C , 28-C ) :   1.0683
B( 28-C , 29-H ) :   0.9768 B( 28-C , 30-H ) :   0.9793 B( 28-C , 31-H ) :   0.9796

Dispersion correction           -0.014588929
FINAL SINGLE POINT ENERGY     -1339.863956045950

DIPOLE MOMENT
-------------
                                X             Y             Z
Electronic contribution:     -8.10093     -10.66091      24.30936
Nuclear contribution   :      8.23135      10.69140     -24.90348
                        -----------------------------------------
Total Dipole Moment    :      0.13042       0.03049      -0.59412
                        -----------------------------------------
Magnitude (a.u.)       :      0.60903
Magnitude (Debye)      :      1.54804

Rotational constants in cm-1:     0.017031     0.009663     0.007106
Rotational constants in MHz :   510.574100   289.687832   213.025332

                             ****ORCA TERMINATED NORMALLY****
TOTAL RUN TIME: 0 days 0 hours 0 minutes 21 seconds 980 msec
