                         Program Version 4.2.1 -  RELEASE  -
|  1> ! wB97X-D3 SP def2-SVP
|  2> %pal
|  3> nprocs 24
|  4> end
|  5>
|  6> * xyz 0 1
|  7> S 	 -107.683 	 54.4491 	 -101.746
|  8> C 	 -109.23 	 53.7584 	 -101.376
|  9> C 	 -109.824 	 54.3955 	 -100.317
| 10> C 	 -108.979 	 55.4293 	 -99.8094
| 11> C 	 -107.793 	 55.6394 	 -100.455
| 12> H 	 -109.138 	 55.9892 	 -98.9258
| 13> C 	 -111.091 	 53.9361 	 -99.7375
| 14> H 	 -110.844 	 52.8864 	 -99.3879
| 15> H 	 -111.875 	 53.978 	 -100.533
| 16> C 	 -111.546 	 54.7362 	 -98.442
| 17> H 	 -110.752 	 54.8515 	 -97.6871
| 18> H 	 -111.614 	 55.77 	 -98.6957
| 19> C 	 -112.922 	 54.1567 	 -97.8794
| 20> H 	 -113.07 	 54.7754 	 -96.9603
| 21> H 	 -113.746 	 54.3308 	 -98.6661
| 22> H 	 -112.739 	 53.1194 	 -97.6134
| 23> S 	 -105.583 	 56.2686 	 -98.9299
| 24> C 	 -104.633 	 57.6636 	 -99.3128
| 25> C 	 -105.169 	 58.2972 	 -100.4
| 26> C 	 -106.331 	 57.7059 	 -100.98
| 27> C 	 -106.785 	 56.6339 	 -100.196
| 28> H 	 -104.542 	 59.0633 	 -100.885
| 29> C 	 -107.05 	 58.3841 	 -102.149
| 30> H 	 -107.655 	 57.6111 	 -102.585
| 31> H 	 -106.398 	 58.628 	 -102.994
| 32> C 	 -107.909 	 59.6257 	 -101.734
| 33> H 	 -108.287 	 60.0506 	 -102.557
| 34> H 	 -107.214 	 60.3662 	 -101.249
| 35> C 	 -109.007 	 59.3523 	 -100.709
| 36> H 	 -109.591 	 58.5079 	 -100.983
| 37> H 	 -109.674 	 60.1774 	 -100.612
| 38> H 	 -108.598 	 59.0803 	 -99.7345
| 39> H 	 -109.584 	 52.8702 	 -101.917
| 40> H 	 -103.633 	 57.9272 	 -98.8799
| 41> *
| 42>
| 43>                          ****END OF INPUT****

CARTESIAN COORDINATES (ANGSTROEM)
---------------------------------
  S    -107.683000   54.449100  -101.746000
  C    -109.230000   53.758400  -101.376000
  C    -109.824000   54.395500  -100.317000
  C    -108.979000   55.429300  -99.809400
  C    -107.793000   55.639400  -100.455000
  H    -109.138000   55.989200  -98.925800
  C    -111.091000   53.936100  -99.737500
  H    -110.844000   52.886400  -99.387900
  H    -111.875000   53.978000  -100.533000
  C    -111.546000   54.736200  -98.442000
  H    -110.752000   54.851500  -97.687100
  H    -111.614000   55.770000  -98.695700
  C    -112.922000   54.156700  -97.879400
  H    -113.070000   54.775400  -96.960300
  H    -113.746000   54.330800  -98.666100
  H    -112.739000   53.119400  -97.613400
  S    -105.583000   56.268600  -98.929900
  C    -104.633000   57.663600  -99.312800
  C    -105.169000   58.297200  -100.400000
  C    -106.331000   57.705900  -100.980000
  C    -106.785000   56.633900  -100.196000
  H    -104.542000   59.063300  -100.885000
  C    -107.050000   58.384100  -102.149000
  H    -107.655000   57.611100  -102.585000
  H    -106.398000   58.628000  -102.994000
  C    -107.909000   59.625700  -101.734000
  H    -108.287000   60.050600  -102.557000
  H    -107.214000   60.366200  -101.249000
  C    -109.007000   59.352300  -100.709000
  H    -109.591000   58.507900  -100.983000
  H    -109.674000   60.177400  -100.612000
  H    -108.598000   59.080300  -99.734500
  H    -109.584000   52.870200  -101.917000
  H    -103.633000   57.927200  -98.879900

 Total Charge           Charge          ....    0
 Multiplicity           Mult            ....    1
 Number of Electrons    NEL             ....  134
 Basis Dimension        Dim             ....  322

ORBITAL ENERGIES
----------------

  NO   OCC          E(Eh)            E(eV)
   0   2.0000     -88.964446     -2420.8457
   1   2.0000     -88.961370     -2420.7619
   2   2.0000     -10.328781      -281.0604
   3   2.0000     -10.323976      -280.9297
   4   2.0000     -10.318564      -280.7824
   5   2.0000     -10.311030      -280.5774
   6   2.0000     -10.307315      -280.4763
   7   2.0000     -10.299203      -280.2556
   8   2.0000     -10.296296      -280.1765
   9   2.0000     -10.293800      -280.1085
  10   2.0000     -10.291445      -280.0445
  11   2.0000     -10.290863      -280.0286
  12   2.0000     -10.290040      -280.0062
  13   2.0000     -10.288680      -279.9692
  14   2.0000     -10.279689      -279.7246
  15   2.0000     -10.264310      -279.3061
  16   2.0000      -8.079023      -219.8414
  17   2.0000      -8.076205      -219.7647
  18   2.0000      -6.037508      -164.2890
  19   2.0000      -6.034639      -164.2109
  20   2.0000      -6.033505      -164.1800
  21   2.0000      -6.030509      -164.0985
  22   2.0000      -6.029843      -164.0804
  23   2.0000      -6.027229      -164.0092
  24   2.0000      -1.006568       -27.3901
  25   2.0000      -0.985427       -26.8148
  26   2.0000      -0.907462       -24.6933
  27   2.0000      -0.903863       -24.5954
  28   2.0000      -0.870144       -23.6778
  29   2.0000      -0.845962       -23.0198
  30   2.0000      -0.841881       -22.9087
  31   2.0000      -0.816249       -22.2113
  32   2.0000      -0.782866       -21.3029
  33   2.0000      -0.765493       -20.8301
  34   2.0000      -0.716381       -19.4937
  35   2.0000      -0.701230       -19.0814
  36   2.0000      -0.687373       -18.7044
  37   2.0000      -0.655464       -17.8361
  38   2.0000      -0.640341       -17.4246
  39   2.0000      -0.616988       -16.7891
  40   2.0000      -0.594022       -16.1642
  41   2.0000      -0.565815       -15.3966
  42   2.0000      -0.564407       -15.3583
  43   2.0000      -0.552110       -15.0237
  44   2.0000      -0.537900       -14.6370
  45   2.0000      -0.522192       -14.2096
  46   2.0000      -0.513925       -13.9846
  47   2.0000      -0.510709       -13.8971
  48   2.0000      -0.503629       -13.7044
  49   2.0000      -0.497630       -13.5412
  50   2.0000      -0.490377       -13.3438
  51   2.0000      -0.482120       -13.1192
  52   2.0000      -0.470129       -12.7929
  53   2.0000      -0.459955       -12.5160
  54   2.0000      -0.455630       -12.3983
  55   2.0000      -0.445976       -12.1356
  56   2.0000      -0.442653       -12.0452
  57   2.0000      -0.436228       -11.8704
  58   2.0000      -0.431404       -11.7391
  59   2.0000      -0.425271       -11.5722
  60   2.0000      -0.421096       -11.4586
  61   2.0000      -0.412787       -11.2325
  62   2.0000      -0.407941       -11.1006
  63   2.0000      -0.334968        -9.1149
  64   2.0000      -0.331456        -9.0194
  65   2.0000      -0.322895        -8.7864
  66   2.0000      -0.305349        -8.3090
  67   0.0000       0.041131         1.1192
  68   0.0000       0.053330         1.4512
  69   0.0000       0.114807         3.1241
  70   0.0000       0.122132         3.3234
  71   0.0000       0.135796         3.6952

MULLIKEN ATOMIC CHARGES
-----------------------
   0 S :    0.115242
   1 C :   -0.147306
   2 C :   -0.070954
   3 C :    0.042217
   4 C :   -0.155660
   5 H :   -0.009762
   6 C :    0.035709
   7 H :    0.053184
   8 H :    0.051639
   9 C :   -0.128019
  10 H :    0.032419
  11 H :    0.020748
  12 C :   -0.044949
  13 H :    0.045349
  14 H :    0.057434
  15 H :    0.043463
  16 S :    0.107449
  17 C :   -0.105431
  18 C :   -0.047216
  19 C :   -0.037181
  20 C :   -0.187957
  21 H :    0.027210
  22 C :    0.073634
  23 H :    0.011935
  24 H :    0.027682
  25 C :   -0.024835
  26 H :    0.002895
  27 H :    0.030047
  28 C :   -0.032903
  29 H :    0.017312
  30 H :    0.026055
  31 H :    0.036236
  32 H :    0.056776
  33 H :    0.077536
Sum of atomic charges:    0.0000000

LOEWDIN ATOMIC CHARGES
----------------------
   0 S :    0.408487
   1 C :   -0.198705
   2 C :   -0.076066
   3 C :   -0.058138
   4 C :   -0.202468
   5 H :    0.023963
   6 C :   -0.039250
   7 H :    0.044394
   8 H :    0.039867
   9 C :   -0.049410
  10 H :    0.023976
  11 H :    0.016186
  12 C :   -0.066493
  13 H :    0.032856
  14 H :    0.038092
  15 H :    0.024726
  16 S :    0.404848
  17 C :   -0.198473
  18 C :   -0.084028
  19 C :   -0.046162
  20 C :   -0.198174
  21 H :    0.034296
  22 C :   -0.029431
  23 H :    0.023253
  24 H :    0.033943
  25 C :   -0.023614
  26 H :    0.005583
  27 H :    0.029573
  28 C :   -0.060002
  29 H :    0.019423
  30 H :    0.022922
  31 H :    0.027017
  32 H :    0.032556
  33 H :    0.044452

  Mayer bond orders larger than 0.100000
B(  0-S ,  1-C ) :   1.1577 B(  0-S ,  4-C ) :   1.1383 B(  1-C ,  2-C ) :   1.5923
B(  1-C , 32-H ) :   0.9735 B(  2-C ,  3-C ) :   1.2495 B(  2-C ,  6-C ) :   1.0111
B(  3-C ,  4-C ) :   1.5704 B(  3-C ,  5-H ) :   1.0003 B(  4-C , 20-C ) :   1.0404
B(  6-C ,  7-H ) :   0.9389 B(  6-C ,  8-H ) :   0.9382 B(  6-C ,  9-C ) :   1.0853
B(  9-C , 10-H ) :   0.9518 B(  9-C , 11-H ) :   0.9515 B(  9-C , 12-C ) :   1.0645
B( 12-C , 13-H ) :   0.9744 B( 12-C , 14-H ) :   0.9749 B( 12-C , 15-H ) :   0.9772
B( 16-S , 17-C ) :   1.1584 B( 16-S , 20-C ) :   1.1473 B( 17-C , 18-C ) :   1.6146
B( 17-C , 20-C ) :   0.1005 B( 17-C , 33-H ) :   0.9585 B( 18-C , 19-C ) :   1.2461
B( 18-C , 21-H ) :   0.9806 B( 19-C , 20-C ) :   1.5704 B( 19-C , 22-C ) :   1.0533
B( 22-C , 23-H ) :   0.9262 B( 22-C , 24-H ) :   0.9352 B( 22-C , 25-C ) :   1.0684
B( 25-C , 26-H ) :   0.9552 B( 25-C , 27-H ) :   0.9569 B( 25-C , 28-C ) :   1.0783
B( 28-C , 29-H ) :   0.9743 B( 28-C , 30-H ) :   0.9721 B( 28-C , 31-H ) :   0.9732

Dispersion correction           -0.015066009
FINAL SINGLE POINT ENERGY     -1339.875294841095

DIPOLE MOMENT
-------------
                                X             Y             Z
Electronic contribution:     22.33542      -8.44950      -3.59516
Nuclear contribution   :    -22.63028       8.61771       3.54516
                        -----------------------------------------
Total Dipole Moment    :     -0.29486       0.16821      -0.05000
                        -----------------------------------------
Magnitude (a.u.)       :      0.34313
Magnitude (Debye)      :      0.87216

Rotational constants in cm-1:     0.019615     0.008018     0.007499
Rotational constants in MHz :   588.035106   240.362131   224.822139

                             ****ORCA TERMINATED NORMALLY****
TOTAL RUN TIME: 0 days 0 hours 0 minutes 20 seconds 780 msec
