                         Program Version 4.2.1 -  RELEASE  -
|  1> ! wB97X-D3 SP def2-SVP
|  2> %pal
|  3> nprocs 24
|  4> end
|  5>
|  6> * xyz 0 1
|  7> S 	 -84.7579 	 2.00619 	 3.92143
|  8> C 	 -83.9281 	 0.513327 	 3.61234
|  9> C 	 -84.8703 	 -0.539635 	 3.73191
| 10> C 	 -86.1165 	 -0.122566 	 4.24647
| 11> C 	 -86.2439 	 1.2359 	 4.41048
| 12> H 	 -86.9933 	 -0.672873 	 4.48552
| 13> C 	 -84.5321 	 -1.99792 	 3.4043
| 14> H 	 -85.1265 	 -2.50927 	 4.20163
| 15> H 	 -83.4742 	 -2.09257 	 3.57594
| 16> C 	 -85.0389 	 -2.53145 	 2.10179
| 17> H 	 -84.8791 	 -3.55041 	 1.94292
| 18> H 	 -86.1312 	 -2.44189 	 2.09767
| 19> C 	 -84.3889 	 -1.8062 	 0.904194
| 20> H 	 -84.5979 	 -2.19778 	 -0.0729219
| 21> H 	 -84.8353 	 -0.883851 	 0.966446
| 22> H 	 -83.2492 	 -1.72749 	 1.13008
| 23> S 	 -87.4413 	 3.66889 	 4.92421
| 24> C 	 -88.7916 	 3.88903 	 5.96509
| 25> C 	 -89.2203 	 2.65735 	 6.42355
| 26> C 	 -88.4794 	 1.60768 	 5.94899
| 27> C 	 -87.3537 	 1.94094 	 5.12301
| 28> H 	 -90.0825 	 2.65672 	 7.15902
| 29> C 	 -88.8434 	 0.200742 	 6.39618
| 30> H 	 -88.872 	 -0.428656 	 5.49763
| 31> H 	 -89.8865 	 0.157035 	 6.72125
| 32> C 	 -87.8276 	 -0.348562 	 7.43942
| 33> H 	 -87.787 	 0.3084 	 8.31276
| 34> H 	 -86.8512 	 -0.276036 	 7.00558
| 35> C 	 -88.0498 	 -1.77376 	 7.8621
| 36> H 	 -89.0963 	 -2.04611 	 8.01535
| 37> H 	 -87.4677 	 -1.94443 	 8.80277
| 38> H 	 -87.5912 	 -2.29211 	 6.96079
| 39> H 	 -82.8845 	 0.304593 	 3.2726
| 40> H 	 -89.3098 	 4.77854 	 6.11135
| 41> *
| 42>
| 43>                          ****END OF INPUT****

CARTESIAN COORDINATES (ANGSTROEM)
---------------------------------
  S    -84.757900    2.006190    3.921430
  C    -83.928100    0.513327    3.612340
  C    -84.870300   -0.539635    3.731910
  C    -86.116500   -0.122566    4.246470
  C    -86.243900    1.235900    4.410480
  H    -86.993300   -0.672873    4.485520
  C    -84.532100   -1.997920    3.404300
  H    -85.126500   -2.509270    4.201630
  H    -83.474200   -2.092570    3.575940
  C    -85.038900   -2.531450    2.101790
  H    -84.879100   -3.550410    1.942920
  H    -86.131200   -2.441890    2.097670
  C    -84.388900   -1.806200    0.904194
  H    -84.597900   -2.197780   -0.072922
  H    -84.835300   -0.883851    0.966446
  H    -83.249200   -1.727490    1.130080
  S    -87.441300    3.668890    4.924210
  C    -88.791600    3.889030    5.965090
  C    -89.220300    2.657350    6.423550
  C    -88.479400    1.607680    5.948990
  C    -87.353700    1.940940    5.123010
  H    -90.082500    2.656720    7.159020
  C    -88.843400    0.200742    6.396180
  H    -88.872000   -0.428656    5.497630
  H    -89.886500    0.157035    6.721250
  C    -87.827600   -0.348562    7.439420
  H    -87.787000    0.308400    8.312760
  H    -86.851200   -0.276036    7.005580
  C    -88.049800   -1.773760    7.862100
  H    -89.096300   -2.046110    8.015350
  H    -87.467700   -1.944430    8.802770
  H    -87.591200   -2.292110    6.960790
  H    -82.884500    0.304593    3.272600
  H    -89.309800    4.778540    6.111350

 Total Charge           Charge          ....    0
 Multiplicity           Mult            ....    1
 Number of Electrons    NEL             ....  134
 Basis Dimension        Dim             ....  322

ORBITAL ENERGIES
----------------

  NO   OCC          E(Eh)            E(eV)
   0   2.0000     -88.971137     -2421.0277
   1   2.0000     -88.967341     -2420.9244
   2   2.0000     -10.338368      -281.3213
   3   2.0000     -10.337270      -281.2914
   4   2.0000     -10.322335      -280.8850
   5   2.0000     -10.312418      -280.6152
   6   2.0000     -10.306064      -280.4423
   7   2.0000     -10.305631      -280.4305
   8   2.0000     -10.294563      -280.1293
   9   2.0000     -10.293301      -280.0950
  10   2.0000     -10.293086      -280.0891
  11   2.0000     -10.291777      -280.0535
  12   2.0000     -10.283034      -279.8156
  13   2.0000     -10.280262      -279.7401
  14   2.0000     -10.280165      -279.7375
  15   2.0000     -10.272902      -279.5399
  16   2.0000      -8.085694      -220.0229
  17   2.0000      -8.082563      -219.9377
  18   2.0000      -6.044303      -164.4738
  19   2.0000      -6.040860      -164.3802
  20   2.0000      -6.040092      -164.3593
  21   2.0000      -6.036716      -164.2674
  22   2.0000      -6.036463      -164.2605
  23   2.0000      -6.033821      -164.1886
  24   2.0000      -1.012309       -27.5463
  25   2.0000      -0.992646       -27.0113
  26   2.0000      -0.918037       -24.9811
  27   2.0000      -0.910481       -24.7755
  28   2.0000      -0.870777       -23.6951
  29   2.0000      -0.856675       -23.3113
  30   2.0000      -0.848737       -23.0953
  31   2.0000      -0.818733       -22.2789
  32   2.0000      -0.781241       -21.2587
  33   2.0000      -0.771523       -20.9942
  34   2.0000      -0.709944       -19.3186
  35   2.0000      -0.699111       -19.0238
  36   2.0000      -0.691227       -18.8092
  37   2.0000      -0.662608       -18.0305
  38   2.0000      -0.642211       -17.4754
  39   2.0000      -0.625280       -17.0147
  40   2.0000      -0.597240       -16.2517
  41   2.0000      -0.571161       -15.5421
  42   2.0000      -0.565086       -15.3768
  43   2.0000      -0.556865       -15.1531
  44   2.0000      -0.548777       -14.9330
  45   2.0000      -0.528537       -14.3822
  46   2.0000      -0.523176       -14.2363
  47   2.0000      -0.515342       -14.0232
  48   2.0000      -0.513417       -13.9708
  49   2.0000      -0.501286       -13.6407
  50   2.0000      -0.489485       -13.3196
  51   2.0000      -0.479801       -13.0560
  52   2.0000      -0.478860       -13.0304
  53   2.0000      -0.462313       -12.5802
  54   2.0000      -0.458394       -12.4735
  55   2.0000      -0.447411       -12.1747
  56   2.0000      -0.445641       -12.1265
  57   2.0000      -0.439063       -11.9475
  58   2.0000      -0.432402       -11.7663
  59   2.0000      -0.430062       -11.7026
  60   2.0000      -0.413519       -11.2524
  61   2.0000      -0.410055       -11.1582
  62   2.0000      -0.405244       -11.0273
  63   2.0000      -0.362555        -9.8656
  64   2.0000      -0.338918        -9.2224
  65   2.0000      -0.329446        -8.9647
  66   2.0000      -0.281778        -7.6676
  67   0.0000       0.015765         0.4290
  68   0.0000       0.080590         2.1930
  69   0.0000       0.107738         2.9317
  70   0.0000       0.113316         3.0835
  71   0.0000       0.133809         3.6411

MULLIKEN ATOMIC CHARGES
-----------------------
   0 S :    0.116513
   1 C :   -0.123098
   2 C :   -0.127238
   3 C :   -0.002859
   4 C :   -0.077169
   5 H :   -0.016257
   6 C :    0.069435
   7 H :    0.029674
   8 H :    0.021448
   9 C :   -0.032803
  10 H :    0.018496
  11 H :    0.021365
  12 C :   -0.050392
  13 H :    0.033833
  14 H :    0.025918
  15 H :    0.034705
  16 S :    0.096306
  17 C :   -0.065992
  18 C :   -0.065155
  19 C :   -0.051942
  20 C :   -0.138253
  21 H :    0.042236
  22 C :    0.045689
  23 H :    0.023026
  24 H :    0.014373
  25 C :   -0.071148
  26 H :    0.022450
  27 H :    0.028752
  28 C :   -0.045484
  29 H :    0.037116
  30 H :    0.047222
  31 H :    0.034771
  32 H :    0.068256
  33 H :    0.036205
Sum of atomic charges:    0.0000000

LOEWDIN ATOMIC CHARGES
----------------------
   0 S :    0.420369
   1 C :   -0.216461
   2 C :   -0.062952
   3 C :   -0.075019
   4 C :   -0.189707
   5 H :    0.024818
   6 C :   -0.028790
   7 H :    0.038229
   8 H :    0.025613
   9 C :   -0.038562
  10 H :    0.015263
  11 H :    0.025420
  12 C :   -0.060457
  13 H :    0.022077
  14 H :    0.014816
  15 H :    0.033194
  16 S :    0.434345
  17 C :   -0.187211
  18 C :   -0.082797
  19 C :   -0.062573
  20 C :   -0.199613
  21 H :    0.046368
  22 C :   -0.031785
  23 H :    0.024151
  24 H :    0.027640
  25 C :   -0.043729
  26 H :    0.021358
  27 H :    0.022446
  28 C :   -0.069575
  29 H :    0.022238
  30 H :    0.034486
  31 H :    0.033449
  32 H :    0.043790
  33 H :    0.019164

  Mayer bond orders larger than 0.100000
B(  0-S ,  1-C ) :   1.1480 B(  0-S ,  4-C ) :   1.1573 B(  1-C ,  2-C ) :   1.5666
B(  1-C ,  4-C ) :   0.1024 B(  1-C , 32-H ) :   0.9637 B(  2-C ,  3-C ) :   1.2647
B(  2-C ,  6-C ) :   1.0116 B(  3-C ,  4-C ) :   1.5558 B(  3-C ,  5-H ) :   0.9992
B(  4-C , 20-C ) :   1.0523 B(  6-C ,  7-H ) :   0.9371 B(  6-C ,  8-H ) :   0.9442
B(  6-C ,  9-C ) :   1.0810 B(  9-C , 10-H ) :   0.9561 B(  9-C , 11-H ) :   0.9525
B(  9-C , 12-C ) :   1.0595 B( 12-C , 13-H ) :   0.9746 B( 12-C , 14-H ) :   0.9785
B( 12-C , 15-H ) :   0.9746 B( 16-S , 17-C ) :   1.1987 B( 16-S , 20-C ) :   1.1673
B( 17-C , 18-C ) :   1.5296 B( 17-C , 20-C ) :   0.1190 B( 17-C , 33-H ) :   0.9759
B( 18-C , 19-C ) :   1.3460 B( 18-C , 21-H ) :   0.9834 B( 19-C , 20-C ) :   1.4862
B( 19-C , 22-C ) :   1.0348 B( 22-C , 23-H ) :   0.9348 B( 22-C , 24-H ) :   0.9324
B( 22-C , 25-C ) :   1.0544 B( 25-C , 26-H ) :   0.9536 B( 25-C , 27-H ) :   0.9590
B( 25-C , 28-C ) :   1.0715 B( 28-C , 29-H ) :   0.9763 B( 28-C , 30-H ) :   0.9728
B( 28-C , 31-H ) :   0.9784

Dispersion correction           -0.014765529
FINAL SINGLE POINT ENERGY     -1339.860773168708

DIPOLE MOMENT
-------------
                                X             Y             Z
Electronic contribution:      1.14172      27.18678      -0.98726
Nuclear contribution   :     -1.42297     -27.68575       1.16271
                        -----------------------------------------
Total Dipole Moment    :     -0.28126      -0.49896       0.17545
                        -----------------------------------------
Magnitude (a.u.)       :      0.59904
Magnitude (Debye)      :      1.52264

Rotational constants in cm-1:     0.019096     0.009052     0.006805
Rotational constants in MHz :   572.479368   271.383296   204.005768

                             ****ORCA TERMINATED NORMALLY****
TOTAL RUN TIME: 0 days 0 hours 0 minutes 22 seconds 10 msec
