                         Program Version 4.2.1 -  RELEASE  -
|  1> ! wB97X-D3 SP def2-SVP
|  2> %pal
|  3> nprocs 24
|  4> end
|  5>
|  6> * xyz 0 1
|  7> S 	 -129.773 	 70.4578 	 -50.5949
|  8> C 	 -130.717 	 70.4604 	 -52.11
|  9> C 	 -129.857 	 70.5158 	 -53.1896
| 10> C 	 -128.499 	 70.3006 	 -52.7285
| 11> C 	 -128.296 	 70.2066 	 -51.3667
| 12> H 	 -127.753 	 70.3732 	 -53.523
| 13> C 	 -130.253 	 70.4072 	 -54.6692
| 14> H 	 -131.021 	 69.6684 	 -54.8124
| 15> H 	 -129.348 	 70.1781 	 -55.1773
| 16> C 	 -130.763 	 71.7663 	 -55.2064
| 17> H 	 -130.194 	 72.6355 	 -55.0285
| 18> H 	 -130.833 	 71.7096 	 -56.3399
| 19> C 	 -132.234 	 72.0942 	 -54.8916
| 20> H 	 -132.552 	 73.0809 	 -55.3671
| 21> H 	 -132.919 	 71.2808 	 -55.1488
| 22> H 	 -132.413 	 72.3386 	 -53.9007
| 23> S 	 -126.634 	 71.5559 	 -49.5578
| 24> C 	 -125.146 	 70.8462 	 -49.1265
| 25> C 	 -124.858 	 69.7899 	 -49.9089
| 26> C 	 -125.945 	 69.4422 	 -50.8039
| 27> C 	 -127.005 	 70.2802 	 -50.6483
| 28> H 	 -123.871 	 69.3721 	 -49.7202
| 29> C 	 -125.826 	 68.1246 	 -51.6633
| 30> H 	 -126.595 	 67.9467 	 -52.387
| 31> H 	 -125.926 	 67.2599 	 -50.9117
| 32> C 	 -124.62 	 68.0741 	 -52.5224
| 33> H 	 -124.557 	 67.243 	 -53.2496
| 34> H 	 -123.76 	 67.9442 	 -51.8579
| 35> C 	 -124.348 	 69.3937 	 -53.2778
| 36> H 	 -124.125 	 70.3013 	 -52.677
| 37> H 	 -125.162 	 69.5679 	 -53.9869
| 38> H 	 -123.53 	 69.3579 	 -53.9454
| 39> H 	 -131.81 	 70.3846 	 -52.2441
| 40> H 	 -124.475 	 71.2362 	 -48.3116
| 41> *
| 42>
| 43>                          ****END OF INPUT****

CARTESIAN COORDINATES (ANGSTROEM)
---------------------------------
  S    -129.773000   70.457800  -50.594900
  C    -130.717000   70.460400  -52.110000
  C    -129.857000   70.515800  -53.189600
  C    -128.499000   70.300600  -52.728500
  C    -128.296000   70.206600  -51.366700
  H    -127.753000   70.373200  -53.523000
  C    -130.253000   70.407200  -54.669200
  H    -131.021000   69.668400  -54.812400
  H    -129.348000   70.178100  -55.177300
  C    -130.763000   71.766300  -55.206400
  H    -130.194000   72.635500  -55.028500
  H    -130.833000   71.709600  -56.339900
  C    -132.234000   72.094200  -54.891600
  H    -132.552000   73.080900  -55.367100
  H    -132.919000   71.280800  -55.148800
  H    -132.413000   72.338600  -53.900700
  S    -126.634000   71.555900  -49.557800
  C    -125.146000   70.846200  -49.126500
  C    -124.858000   69.789900  -49.908900
  C    -125.945000   69.442200  -50.803900
  C    -127.005000   70.280200  -50.648300
  H    -123.871000   69.372100  -49.720200
  C    -125.826000   68.124600  -51.663300
  H    -126.595000   67.946700  -52.387000
  H    -125.926000   67.259900  -50.911700
  C    -124.620000   68.074100  -52.522400
  H    -124.557000   67.243000  -53.249600
  H    -123.760000   67.944200  -51.857900
  C    -124.348000   69.393700  -53.277800
  H    -124.125000   70.301300  -52.677000
  H    -125.162000   69.567900  -53.986900
  H    -123.530000   69.357900  -53.945400
  H    -131.810000   70.384600  -52.244100
  H    -124.475000   71.236200  -48.311600

 Total Charge           Charge          ....    0
 Multiplicity           Mult            ....    1
 Number of Electrons    NEL             ....  134
 Basis Dimension        Dim             ....  322

ORBITAL ENERGIES
----------------

  NO   OCC          E(Eh)            E(eV)
   0   2.0000     -88.965516     -2420.8748
   1   2.0000     -88.962503     -2420.7928
   2   2.0000     -10.327662      -281.0300
   3   2.0000     -10.324384      -280.9408
   4   2.0000     -10.317722      -280.7595
   5   2.0000     -10.313294      -280.6390
   6   2.0000     -10.306129      -280.4440
   7   2.0000     -10.300408      -280.2884
   8   2.0000     -10.296476      -280.1814
   9   2.0000     -10.294533      -280.1285
  10   2.0000     -10.293341      -280.0961
  11   2.0000     -10.290649      -280.0228
  12   2.0000     -10.288935      -279.9762
  13   2.0000     -10.285672      -279.8874
  14   2.0000     -10.276636      -279.6415
  15   2.0000     -10.272926      -279.5405
  16   2.0000      -8.080766      -219.8888
  17   2.0000      -8.078980      -219.8402
  18   2.0000      -6.039355      -164.3392
  19   2.0000      -6.037419      -164.2865
  20   2.0000      -6.035085      -164.2230
  21   2.0000      -6.033316      -164.1749
  22   2.0000      -6.031493      -164.1253
  23   2.0000      -6.029623      -164.0744
  24   2.0000      -1.015048       -27.6209
  25   2.0000      -0.991408       -26.9776
  26   2.0000      -0.913265       -24.8512
  27   2.0000      -0.911768       -24.8105
  28   2.0000      -0.869624       -23.6637
  29   2.0000      -0.846408       -23.0319
  30   2.0000      -0.841308       -22.8932
  31   2.0000      -0.812104       -22.0985
  32   2.0000      -0.788137       -21.4463
  33   2.0000      -0.782133       -21.2829
  34   2.0000      -0.705412       -19.1952
  35   2.0000      -0.698666       -19.0117
  36   2.0000      -0.689152       -18.7528
  37   2.0000      -0.652923       -17.7669
  38   2.0000      -0.633654       -17.2426
  39   2.0000      -0.625232       -17.0134
  40   2.0000      -0.602238       -16.3877
  41   2.0000      -0.573923       -15.6172
  42   2.0000      -0.553416       -15.0592
  43   2.0000      -0.552048       -15.0220
  44   2.0000      -0.543765       -14.7966
  45   2.0000      -0.539444       -14.6790
  46   2.0000      -0.520835       -14.1726
  47   2.0000      -0.508371       -13.8335
  48   2.0000      -0.505463       -13.7543
  49   2.0000      -0.494960       -13.4685
  50   2.0000      -0.481307       -13.0970
  51   2.0000      -0.477974       -13.0063
  52   2.0000      -0.470659       -12.8073
  53   2.0000      -0.466001       -12.6805
  54   2.0000      -0.458102       -12.4656
  55   2.0000      -0.445961       -12.1352
  56   2.0000      -0.443530       -12.0691
  57   2.0000      -0.441322       -12.0090
  58   2.0000      -0.435183       -11.8419
  59   2.0000      -0.431223       -11.7342
  60   2.0000      -0.417861       -11.3706
  61   2.0000      -0.403735       -10.9862
  62   2.0000      -0.402396       -10.9498
  63   2.0000      -0.348783        -9.4909
  64   2.0000      -0.331939        -9.0325
  65   2.0000      -0.326749        -8.8913
  66   2.0000      -0.299072        -8.1382
  67   0.0000       0.038026         1.0347
  68   0.0000       0.075050         2.0422
  69   0.0000       0.116425         3.1681
  70   0.0000       0.122247         3.3265
  71   0.0000       0.126412         3.4398

MULLIKEN ATOMIC CHARGES
-----------------------
   0 S :    0.106287
   1 C :   -0.128682
   2 C :   -0.118479
   3 C :    0.021496
   4 C :   -0.127291
   5 H :    0.006617
   6 C :    0.108691
   7 H :    0.035946
   8 H :    0.014344
   9 C :   -0.080558
  10 H :    0.027416
  11 H :    0.033072
  12 C :   -0.067926
  13 H :    0.036553
  14 H :    0.031400
  15 H :    0.011646
  16 S :    0.116903
  17 C :   -0.122393
  18 C :   -0.040735
  19 C :   -0.043126
  20 C :   -0.141786
  21 H :    0.022645
  22 C :    0.091507
  23 H :    0.014926
  24 H :    0.055312
  25 C :   -0.087778
  26 H :    0.038148
  27 H :    0.019891
  28 C :   -0.052278
  29 H :    0.052854
  30 H :    0.018387
  31 H :    0.012194
  32 H :    0.059475
  33 H :    0.075321
Sum of atomic charges:    0.0000000

LOEWDIN ATOMIC CHARGES
----------------------
   0 S :    0.423771
   1 C :   -0.192608
   2 C :   -0.064276
   3 C :   -0.068082
   4 C :   -0.213139
   5 H :    0.025592
   6 C :   -0.016940
   7 H :    0.033224
   8 H :    0.027544
   9 C :   -0.039592
  10 H :    0.020107
  11 H :    0.030384
  12 C :   -0.071287
  13 H :    0.036835
  14 H :    0.022982
  15 H :    0.008113
  16 S :    0.424723
  17 C :   -0.203536
  18 C :   -0.079040
  19 C :   -0.051781
  20 C :   -0.208731
  21 H :    0.035383
  22 C :   -0.031875
  23 H :    0.024158
  24 H :    0.043482
  25 C :   -0.046780
  26 H :    0.030262
  27 H :    0.018018
  28 C :   -0.069474
  29 H :    0.033916
  30 H :    0.021625
  31 H :    0.018918
  32 H :    0.034936
  33 H :    0.043171

  Mayer bond orders larger than 0.100000
B(  0-S ,  1-C ) :   1.1410 B(  0-S ,  4-C ) :   1.1630 B(  1-C ,  2-C ) :   1.5974
B(  1-C , 32-H ) :   0.9620 B(  2-C ,  3-C ) :   1.2885 B(  2-C ,  6-C ) :   1.0131
B(  3-C ,  4-C ) :   1.5427 B(  3-C ,  5-H ) :   0.9865 B(  4-C , 20-C ) :   1.0087
B(  6-C ,  7-H ) :   0.9491 B(  6-C ,  8-H ) :   0.9377 B(  6-C ,  9-C ) :   1.0614
B(  9-C , 10-H ) :   0.9591 B(  9-C , 11-H ) :   0.9589 B(  9-C , 12-C ) :   1.0772
B( 12-C , 13-H ) :   0.9704 B( 12-C , 14-H ) :   0.9762 B( 12-C , 15-H ) :   0.9734
B( 16-S , 17-C ) :   1.1517 B( 16-S , 20-C ) :   1.1473 B( 17-C , 18-C ) :   1.6495
B( 17-C , 33-H ) :   0.9585 B( 18-C , 19-C ) :   1.1947 B( 18-C , 21-H ) :   0.9937
B( 19-C , 20-C ) :   1.6484 B( 19-C , 22-C ) :   1.0221 B( 22-C , 23-H ) :   0.9382
B( 22-C , 24-H ) :   0.9458 B( 22-C , 25-C ) :   1.0604 B( 25-C , 26-H ) :   0.9597
B( 25-C , 27-H ) :   0.9500 B( 25-C , 28-C ) :   1.0837 B( 28-C , 29-H ) :   0.9670
B( 28-C , 30-H ) :   0.9726 B( 28-C , 31-H ) :   0.9695

Dispersion correction           -0.014717952
FINAL SINGLE POINT ENERGY     -1339.860812374612

DIPOLE MOMENT
-------------
                                X             Y             Z
Electronic contribution:     -0.47046       3.94887      24.20116
Nuclear contribution   :      0.70324      -4.13537     -24.74295
                        -----------------------------------------
Total Dipole Moment    :      0.23278      -0.18651      -0.54179
                        -----------------------------------------
Magnitude (a.u.)       :      0.61847
Magnitude (Debye)      :      1.57203

Rotational constants in cm-1:     0.022137     0.007978     0.006584
Rotational constants in MHz :   663.643643   239.179124   197.368864

                             ****ORCA TERMINATED NORMALLY****
TOTAL RUN TIME: 0 days 0 hours 0 minutes 21 seconds 670 msec
