                         Program Version 4.2.1 -  RELEASE  -
|  1> ! wB97X-D3 SP def2-SVP
|  2> %pal
|  3> nprocs 24
|  4> end
|  5>
|  6> * xyz 0 1
|  7> S 	 -44.7984 	 -6.63169 	 -17.7902
|  8> C 	 -45.8328 	 -7.80137 	 -18.5415
|  9> C 	 -47.0307 	 -7.19488 	 -18.8446
| 10> C 	 -47.092 	 -5.82478 	 -18.3904
| 11> C 	 -45.9528 	 -5.34208 	 -17.7712
| 12> H 	 -47.905 	 -5.08005 	 -18.4681
| 13> C 	 -48.2748 	 -7.88436 	 -19.5141
| 14> H 	 -49.0339 	 -8.06433 	 -18.7338
| 15> H 	 -47.9517 	 -8.88818 	 -19.6446
| 16> C 	 -48.8015 	 -7.25485 	 -20.7909
| 17> H 	 -49.0655 	 -6.23476 	 -20.5777
| 18> H 	 -48.0446 	 -7.20972 	 -21.5832
| 19> C 	 -49.9781 	 -8.04003 	 -21.4742
| 20> H 	 -50.6187 	 -8.46905 	 -20.8157
| 21> H 	 -50.5711 	 -7.3889 	 -22.1523
| 22> H 	 -49.6086 	 -8.92849 	 -21.9963
| 23> S 	 -45.0583 	 -2.74344 	 -18.1814
| 24> C 	 -45.309 	 -1.61935 	 -16.9514
| 25> C 	 -45.7366 	 -2.18776 	 -15.7478
| 26> C 	 -46.0246 	 -3.57754 	 -15.8951
| 27> C 	 -45.7306 	 -4.04373 	 -17.1913
| 28> H 	 -45.6317 	 -1.64065 	 -14.8437
| 29> C 	 -46.4844 	 -4.52359 	 -14.7509
| 30> H 	 -46.0854 	 -4.15064 	 -13.812
| 31> H 	 -46.0094 	 -5.52614 	 -14.9663
| 32> C 	 -47.9937 	 -4.63455 	 -14.615
| 33> H 	 -48.538 	 -4.80637 	 -15.5735
| 34> H 	 -48.4217 	 -3.66887 	 -14.4433
| 35> C 	 -48.5048 	 -5.51097 	 -13.4331
| 36> H 	 -48.6633 	 -6.49457 	 -13.6992
| 37> H 	 -49.5917 	 -5.30388 	 -13.3036
| 38> H 	 -48.0296 	 -5.28763 	 -12.4721
| 39> H 	 -45.6428 	 -8.90686 	 -18.6916
| 40> H 	 -44.92 	 -0.575057 	 -17.0278
| 41> *
| 42>
| 43>                          ****END OF INPUT****

CARTESIAN COORDINATES (ANGSTROEM)
---------------------------------
  S    -44.798400   -6.631690  -17.790200
  C    -45.832800   -7.801370  -18.541500
  C    -47.030700   -7.194880  -18.844600
  C    -47.092000   -5.824780  -18.390400
  C    -45.952800   -5.342080  -17.771200
  H    -47.905000   -5.080050  -18.468100
  C    -48.274800   -7.884360  -19.514100
  H    -49.033900   -8.064330  -18.733800
  H    -47.951700   -8.888180  -19.644600
  C    -48.801500   -7.254850  -20.790900
  H    -49.065500   -6.234760  -20.577700
  H    -48.044600   -7.209720  -21.583200
  C    -49.978100   -8.040030  -21.474200
  H    -50.618700   -8.469050  -20.815700
  H    -50.571100   -7.388900  -22.152300
  H    -49.608600   -8.928490  -21.996300
  S    -45.058300   -2.743440  -18.181400
  C    -45.309000   -1.619350  -16.951400
  C    -45.736600   -2.187760  -15.747800
  C    -46.024600   -3.577540  -15.895100
  C    -45.730600   -4.043730  -17.191300
  H    -45.631700   -1.640650  -14.843700
  C    -46.484400   -4.523590  -14.750900
  H    -46.085400   -4.150640  -13.812000
  H    -46.009400   -5.526140  -14.966300
  C    -47.993700   -4.634550  -14.615000
  H    -48.538000   -4.806370  -15.573500
  H    -48.421700   -3.668870  -14.443300
  C    -48.504800   -5.510970  -13.433100
  H    -48.663300   -6.494570  -13.699200
  H    -49.591700   -5.303880  -13.303600
  H    -48.029600   -5.287630  -12.472100
  H    -45.642800   -8.906860  -18.691600
  H    -44.920000   -0.575057  -17.027800

 Total Charge           Charge          ....    0
 Multiplicity           Mult            ....    1
 Number of Electrons    NEL             ....  134
 Basis Dimension        Dim             ....  322

ORBITAL ENERGIES
----------------

  NO   OCC          E(Eh)            E(eV)
   0   2.0000     -88.968250     -2420.9492
   1   2.0000     -88.962536     -2420.7937
   2   2.0000     -10.325225      -280.9637
   3   2.0000     -10.324378      -280.9406
   4   2.0000     -10.319256      -280.8012
   5   2.0000     -10.318933      -280.7924
   6   2.0000     -10.309435      -280.5340
   7   2.0000     -10.304803      -280.4079
   8   2.0000     -10.295647      -280.1588
   9   2.0000     -10.294553      -280.1290
  10   2.0000     -10.293412      -280.0980
  11   2.0000     -10.293244      -280.0934
  12   2.0000     -10.288024      -279.9514
  13   2.0000     -10.283228      -279.8209
  14   2.0000     -10.275009      -279.5972
  15   2.0000     -10.274351      -279.5793
  16   2.0000      -8.083836      -219.9724
  17   2.0000      -8.077660      -219.8043
  18   2.0000      -6.042065      -164.4129
  19   2.0000      -6.038149      -164.3064
  20   2.0000      -6.036190      -164.2531
  21   2.0000      -6.034920      -164.2185
  22   2.0000      -6.031806      -164.1338
  23   2.0000      -6.028662      -164.0482
  24   2.0000      -1.008336       -27.4382
  25   2.0000      -0.987420       -26.8691
  26   2.0000      -0.906301       -24.6617
  27   2.0000      -0.903557       -24.5870
  28   2.0000      -0.871078       -23.7032
  29   2.0000      -0.850964       -23.1559
  30   2.0000      -0.840624       -22.8745
  31   2.0000      -0.811993       -22.0954
  32   2.0000      -0.785537       -21.3755
  33   2.0000      -0.773781       -21.0556
  34   2.0000      -0.711438       -19.3592
  35   2.0000      -0.701384       -19.0856
  36   2.0000      -0.689801       -18.7704
  37   2.0000      -0.658774       -17.9261
  38   2.0000      -0.642752       -17.4902
  39   2.0000      -0.613162       -16.6850
  40   2.0000      -0.594240       -16.1701
  41   2.0000      -0.567684       -15.4475
  42   2.0000      -0.559175       -15.2159
  43   2.0000      -0.554876       -15.0989
  44   2.0000      -0.528813       -14.3897
  45   2.0000      -0.522860       -14.2277
  46   2.0000      -0.516632       -14.0583
  47   2.0000      -0.506663       -13.7870
  48   2.0000      -0.503624       -13.7043
  49   2.0000      -0.500348       -13.6152
  50   2.0000      -0.493739       -13.4353
  51   2.0000      -0.479002       -13.0343
  52   2.0000      -0.471875       -12.8404
  53   2.0000      -0.467332       -12.7167
  54   2.0000      -0.460783       -12.5385
  55   2.0000      -0.448857       -12.2140
  56   2.0000      -0.445976       -12.1356
  57   2.0000      -0.437102       -11.8941
  58   2.0000      -0.433946       -11.8083
  59   2.0000      -0.423102       -11.5132
  60   2.0000      -0.418250       -11.3812
  61   2.0000      -0.408880       -11.1262
  62   2.0000      -0.404632       -11.0106
  63   2.0000      -0.335888        -9.1400
  64   2.0000      -0.326542        -8.8856
  65   2.0000      -0.321763        -8.7556
  66   2.0000      -0.313579        -8.5329
  67   0.0000       0.046212         1.2575
  68   0.0000       0.052412         1.4262
  69   0.0000       0.113774         3.0959
  70   0.0000       0.124896         3.3986
  71   0.0000       0.136243         3.7074

MULLIKEN ATOMIC CHARGES
-----------------------
   0 S :    0.111054
   1 C :   -0.141483
   2 C :   -0.104393
   3 C :    0.042499
   4 C :   -0.186551
   5 H :    0.021454
   6 C :    0.089671
   7 H :    0.036636
   8 H :   -0.012494
   9 C :   -0.068163
  10 H :    0.028957
  11 H :    0.036026
  12 C :   -0.023454
  13 H :   -0.001099
  14 H :    0.042370
  15 H :    0.028003
  16 S :    0.139807
  17 C :   -0.115865
  18 C :   -0.032534
  19 C :   -0.015686
  20 C :   -0.206364
  21 H :    0.014219
  22 C :    0.100076
  23 H :    0.014632
  24 H :    0.042133
  25 C :   -0.085156
  26 H :    0.022687
  27 H :    0.008463
  28 C :   -0.014146
  29 H :    0.018968
  30 H :    0.015138
  31 H :    0.042764
  32 H :    0.075861
  33 H :    0.075968
Sum of atomic charges:    0.0000000

LOEWDIN ATOMIC CHARGES
----------------------
   0 S :    0.420372
   1 C :   -0.215163
   2 C :   -0.068140
   3 C :   -0.064523
   4 C :   -0.213598
   5 H :    0.033989
   6 C :   -0.031922
   7 H :    0.034674
   8 H :    0.019306
   9 C :   -0.037228
  10 H :    0.020658
  11 H :    0.030171
  12 C :   -0.059608
  13 H :    0.006679
  14 H :    0.033499
  15 H :    0.028355
  16 S :    0.439946
  17 C :   -0.208604
  18 C :   -0.078056
  19 C :   -0.038108
  20 C :   -0.214997
  21 H :    0.028242
  22 C :   -0.027587
  23 H :    0.027744
  24 H :    0.036108
  25 C :   -0.049321
  26 H :    0.029156
  27 H :    0.019175
  28 C :   -0.066786
  29 H :    0.016098
  30 H :    0.033897
  31 H :    0.029411
  32 H :    0.048385
  33 H :    0.037775

  Mayer bond orders larger than 0.100000
B(  0-S ,  1-C ) :   1.1514 B(  0-S ,  4-C ) :   1.1512 B(  1-C ,  2-C ) :   1.6105
B(  1-C , 32-H ) :   0.9583 B(  2-C ,  3-C ) :   1.2326 B(  2-C ,  6-C ) :   1.0133
B(  3-C ,  4-C ) :   1.5992 B(  3-C ,  5-H ) :   0.9867 B(  4-C , 20-C ) :   1.0242
B(  6-C ,  7-H ) :   0.9399 B(  6-C ,  8-H ) :   0.9349 B(  6-C ,  9-C ) :   1.0585
B(  9-C , 10-H ) :   0.9607 B(  9-C , 11-H ) :   0.9587 B(  9-C , 12-C ) :   1.0730
B( 12-C , 13-H ) :   0.9757 B( 12-C , 14-H ) :   0.9764 B( 12-C , 15-H ) :   0.9754
B( 16-S , 17-C ) :   1.2018 B( 16-S , 20-C ) :   1.1559 B( 17-C , 18-C ) :   1.5668
B( 17-C , 20-C ) :   0.1069 B( 17-C , 33-H ) :   0.9576 B( 18-C , 19-C ) :   1.2744
B( 18-C , 21-H ) :   0.9938 B( 19-C , 20-C ) :   1.5731 B( 19-C , 22-C ) :   1.0335
B( 22-C , 23-H ) :   0.9327 B( 22-C , 24-H ) :   0.9344 B( 22-C , 25-C ) :   1.0658
B( 25-C , 26-H ) :   0.9498 B( 25-C , 27-H ) :   0.9529 B( 25-C , 28-C ) :   1.0835
B( 28-C , 29-H ) :   0.9744 B( 28-C , 30-H ) :   0.9668 B( 28-C , 31-H ) :   0.9735

Dispersion correction           -0.014025474
FINAL SINGLE POINT ENERGY     -1339.867830195353

DIPOLE MOMENT
-------------
                                X             Y             Z
Electronic contribution:     23.92131      11.35964      -2.96157
Nuclear contribution   :    -24.40195     -11.44363       3.15366
                        -----------------------------------------
Total Dipole Moment    :     -0.48064      -0.08399       0.19209
                        -----------------------------------------
Magnitude (a.u.)       :      0.52437
Magnitude (Debye)      :      1.33284

Rotational constants in cm-1:     0.016996     0.008036     0.006939
Rotational constants in MHz :   509.530702   240.904476   208.032290

                             ****ORCA TERMINATED NORMALLY****
TOTAL RUN TIME: 0 days 0 hours 0 minutes 19 seconds 815 msec
