                         Program Version 4.2.1 -  RELEASE  -
|  1> ! wB97X-D3 SP def2-SVP
|  2> %pal
|  3> nprocs 24
|  4> end
|  5>
|  6> * xyz 0 1
|  7> S 	 -65.0501 	 9.61574 	 -75.1226
|  8> C 	 -66.6568 	 9.02086 	 -74.81
|  9> C 	 -67.641 	 9.66419 	 -75.5369
| 10> C 	 -67.0481 	 10.6952 	 -76.302
| 11> C 	 -65.6966 	 10.7522 	 -76.2915
| 12> H 	 -67.5991 	 11.4417 	 -76.9075
| 13> C 	 -69.1972 	 9.62654 	 -75.3435
| 14> H 	 -69.4932 	 8.55444 	 -75.3003
| 15> H 	 -69.6462 	 9.97578 	 -76.265
| 16> C 	 -69.6808 	 10.2141 	 -74.0363
| 17> H 	 -70.7468 	 9.91001 	 -73.7444
| 18> H 	 -69.095 	 9.68308 	 -73.2998
| 19> C 	 -69.5722 	 11.7206 	 -73.8446
| 20> H 	 -70.0344 	 11.8559 	 -72.8402
| 21> H 	 -68.5192 	 12.1351 	 -73.723
| 22> H 	 -70.2268 	 12.2085 	 -74.6528
| 23> S 	 -63.784 	 12.6585 	 -76.1341
| 24> C 	 -63.0878 	 13.3769 	 -77.5624
| 25> C 	 -63.707 	 12.9286 	 -78.661
| 26> C 	 -64.7282 	 11.9645 	 -78.3795
| 27> C 	 -64.921 	 11.7745 	 -77.0053
| 28> H 	 -63.4809 	 13.235 	 -79.5868
| 29> C 	 -65.5232 	 11.2018 	 -79.4747
| 30> H 	 -66.1816 	 10.4829 	 -78.9755
| 31> H 	 -64.814 	 10.5804 	 -80.1257
| 32> C 	 -66.5057 	 11.9796 	 -80.3654
| 33> H 	 -65.8472 	 12.7481 	 -80.8353
| 34> H 	 -67.1847 	 12.5575 	 -79.7382
| 35> C 	 -67.3345 	 11.1014 	 -81.3685
| 36> H 	 -67.8069 	 10.2983 	 -80.8653
| 37> H 	 -66.779 	 10.637 	 -82.0926
| 38> H 	 -68.1386 	 11.6441 	 -81.8208
| 39> H 	 -66.9525 	 8.28686 	 -74.0651
| 40> H 	 -62.3473 	 14.1373 	 -77.5076
| 41> *
| 42>
| 43>                          ****END OF INPUT****

CARTESIAN COORDINATES (ANGSTROEM)
---------------------------------
  S    -65.050100    9.615740  -75.122600
  C    -66.656800    9.020860  -74.810000
  C    -67.641000    9.664190  -75.536900
  C    -67.048100   10.695200  -76.302000
  C    -65.696600   10.752200  -76.291500
  H    -67.599100   11.441700  -76.907500
  C    -69.197200    9.626540  -75.343500
  H    -69.493200    8.554440  -75.300300
  H    -69.646200    9.975780  -76.265000
  C    -69.680800   10.214100  -74.036300
  H    -70.746800    9.910010  -73.744400
  H    -69.095000    9.683080  -73.299800
  C    -69.572200   11.720600  -73.844600
  H    -70.034400   11.855900  -72.840200
  H    -68.519200   12.135100  -73.723000
  H    -70.226800   12.208500  -74.652800
  S    -63.784000   12.658500  -76.134100
  C    -63.087800   13.376900  -77.562400
  C    -63.707000   12.928600  -78.661000
  C    -64.728200   11.964500  -78.379500
  C    -64.921000   11.774500  -77.005300
  H    -63.480900   13.235000  -79.586800
  C    -65.523200   11.201800  -79.474700
  H    -66.181600   10.482900  -78.975500
  H    -64.814000   10.580400  -80.125700
  C    -66.505700   11.979600  -80.365400
  H    -65.847200   12.748100  -80.835300
  H    -67.184700   12.557500  -79.738200
  C    -67.334500   11.101400  -81.368500
  H    -67.806900   10.298300  -80.865300
  H    -66.779000   10.637000  -82.092600
  H    -68.138600   11.644100  -81.820800
  H    -66.952500    8.286860  -74.065100
  H    -62.347300   14.137300  -77.507600

 Total Charge           Charge          ....    0
 Multiplicity           Mult            ....    1
 Number of Electrons    NEL             ....  134
 Basis Dimension        Dim             ....  322

ORBITAL ENERGIES
----------------

  NO   OCC          E(Eh)            E(eV)
   0   2.0000     -88.971001     -2421.0240
   1   2.0000     -88.961649     -2420.7695
   2   2.0000     -10.324487      -280.9436
   3   2.0000     -10.322854      -280.8991
   4   2.0000     -10.315194      -280.6907
   5   2.0000     -10.311878      -280.6005
   6   2.0000     -10.304291      -280.3940
   7   2.0000     -10.300397      -280.2880
   8   2.0000     -10.297306      -280.2039
   9   2.0000     -10.294136      -280.1177
  10   2.0000     -10.291131      -280.0359
  11   2.0000     -10.290089      -280.0076
  12   2.0000     -10.288941      -279.9763
  13   2.0000     -10.288321      -279.9595
  14   2.0000     -10.283493      -279.8281
  15   2.0000     -10.270133      -279.4645
  16   2.0000      -8.085456      -220.0164
  17   2.0000      -8.078195      -219.8189
  18   2.0000      -6.043976      -164.4649
  19   2.0000      -6.040077      -164.3588
  20   2.0000      -6.036581      -164.2637
  21   2.0000      -6.036144      -164.2518
  22   2.0000      -6.032272      -164.1465
  23   2.0000      -6.029152      -164.0616
  24   2.0000      -1.014617       -27.6091
  25   2.0000      -0.991435       -26.9783
  26   2.0000      -0.910553       -24.7774
  27   2.0000      -0.900475       -24.5032
  28   2.0000      -0.874935       -23.8082
  29   2.0000      -0.850544       -23.1445
  30   2.0000      -0.845385       -23.0041
  31   2.0000      -0.818310       -22.2674
  32   2.0000      -0.784449       -21.3460
  33   2.0000      -0.775235       -21.0952
  34   2.0000      -0.704463       -19.1694
  35   2.0000      -0.698706       -19.0127
  36   2.0000      -0.689023       -18.7493
  37   2.0000      -0.666764       -18.1436
  38   2.0000      -0.638526       -17.3752
  39   2.0000      -0.615559       -16.7502
  40   2.0000      -0.600108       -16.3298
  41   2.0000      -0.575490       -15.6599
  42   2.0000      -0.559955       -15.2371
  43   2.0000      -0.546749       -14.8778
  44   2.0000      -0.544117       -14.8062
  45   2.0000      -0.519688       -14.1414
  46   2.0000      -0.516529       -14.0555
  47   2.0000      -0.510042       -13.8789
  48   2.0000      -0.507328       -13.8051
  49   2.0000      -0.497127       -13.5275
  50   2.0000      -0.490878       -13.3575
  51   2.0000      -0.475854       -12.9486
  52   2.0000      -0.472298       -12.8519
  53   2.0000      -0.467869       -12.7314
  54   2.0000      -0.462630       -12.5888
  55   2.0000      -0.453315       -12.3353
  56   2.0000      -0.440555       -11.9881
  57   2.0000      -0.436504       -11.8779
  58   2.0000      -0.432937       -11.7808
  59   2.0000      -0.423236       -11.5168
  60   2.0000      -0.418491       -11.3877
  61   2.0000      -0.413008       -11.2385
  62   2.0000      -0.407747       -11.0954
  63   2.0000      -0.350343        -9.5333
  64   2.0000      -0.334885        -9.1127
  65   2.0000      -0.330316        -8.9884
  66   2.0000      -0.296845        -8.0776
  67   0.0000       0.035739         0.9725
  68   0.0000       0.071255         1.9390
  69   0.0000       0.117165         3.1882
  70   0.0000       0.125869         3.4251
  71   0.0000       0.128807         3.5050

MULLIKEN ATOMIC CHARGES
-----------------------
   0 S :    0.132451
   1 C :   -0.134426
   2 C :   -0.080567
   3 C :   -0.004985
   4 C :   -0.134921
   5 H :    0.024162
   6 C :    0.077508
   7 H :    0.026936
   8 H :    0.020149
   9 C :   -0.074478
  10 H :    0.036599
  11 H :    0.010975
  12 C :   -0.083199
  13 H :    0.036495
  14 H :    0.062784
  15 H :    0.048257
  16 S :    0.094895
  17 C :   -0.074165
  18 C :    0.045459
  19 C :   -0.047461
  20 C :   -0.161339
  21 H :   -0.036307
  22 C :    0.027471
  23 H :    0.018965
  24 H :    0.042345
  25 C :   -0.083218
  26 H :    0.023172
  27 H :    0.023252
  28 C :    0.014709
  29 H :    0.012317
  30 H :    0.012287
  31 H :    0.030138
  32 H :    0.046974
  33 H :    0.046763
Sum of atomic charges:   -0.0000000

LOEWDIN ATOMIC CHARGES
----------------------
   0 S :    0.412355
   1 C :   -0.198159
   2 C :   -0.067033
   3 C :   -0.065406
   4 C :   -0.199467
   5 H :    0.035441
   6 C :   -0.031344
   7 H :    0.036542
   8 H :    0.024163
   9 C :   -0.052402
  10 H :    0.032260
  11 H :    0.020584
  12 C :   -0.080343
  13 H :    0.031206
  14 H :    0.036690
  15 H :    0.034245
  16 S :    0.431206
  17 C :   -0.172979
  18 C :   -0.054339
  19 C :   -0.053762
  20 C :   -0.218301
  21 H :    0.011233
  22 C :   -0.040951
  23 H :    0.025215
  24 H :    0.036036
  25 C :   -0.040756
  26 H :    0.020861
  27 H :    0.020933
  28 C :   -0.052508
  29 H :    0.023305
  30 H :    0.014655
  31 H :    0.028063
  32 H :    0.028804
  33 H :    0.023951

  Mayer bond orders larger than 0.100000
B(  0-S ,  1-C ) :   1.1496 B(  0-S ,  4-C ) :   1.1330 B(  1-C ,  2-C ) :   1.6130
B(  1-C , 32-H ) :   0.9611 B(  2-C ,  3-C ) :   1.2476 B(  2-C ,  6-C ) :   1.0199
B(  3-C ,  4-C ) :   1.5929 B(  3-C ,  5-H ) :   0.9879 B(  4-C , 20-C ) :   1.0225
B(  6-C ,  7-H ) :   0.9329 B(  6-C ,  8-H ) :   0.9461 B(  6-C ,  9-C ) :   1.0696
B(  9-C , 10-H ) :   0.9549 B(  9-C , 11-H ) :   0.9465 B(  9-C , 12-C ) :   1.0806
B( 12-C , 13-H ) :   0.9714 B( 12-C , 14-H ) :   0.9713 B( 12-C , 15-H ) :   0.9731
B( 16-S , 17-C ) :   1.1580 B( 16-S , 20-C ) :   1.1639 B( 17-C , 18-C ) :   1.5843
B( 17-C , 33-H ) :   0.9749 B( 18-C , 19-C ) :   1.2569 B( 18-C , 21-H ) :   1.0166
B( 19-C , 20-C ) :   1.5784 B( 19-C , 22-C ) :   1.0372 B( 22-C , 23-H ) :   0.9334
B( 22-C , 24-H ) :   0.9404 B( 22-C , 25-C ) :   1.0543 B( 25-C , 26-H ) :   0.9594
B( 25-C , 27-H ) :   0.9558 B( 25-C , 28-C ) :   1.0716 B( 28-C , 29-H ) :   0.9719
B( 28-C , 30-H ) :   0.9756 B( 28-C , 31-H ) :   0.9754

Dispersion correction           -0.014302286
FINAL SINGLE POINT ENERGY     -1339.872049178050

DIPOLE MOMENT
-------------
                                X             Y             Z
Electronic contribution:     23.95646       0.18868      10.51176
Nuclear contribution   :    -24.42917      -0.16550     -10.72143
                        -----------------------------------------
Total Dipole Moment    :     -0.47271       0.02318      -0.20967
                        -----------------------------------------
Magnitude (a.u.)       :      0.51764
Magnitude (Debye)      :      1.31573

Rotational constants in cm-1:     0.016727     0.009084     0.007090
Rotational constants in MHz :   501.464495   272.330010   212.551185

                             ****ORCA TERMINATED NORMALLY****
TOTAL RUN TIME: 0 days 0 hours 0 minutes 21 seconds 538 msec
