                         Program Version 4.2.1 -  RELEASE  -
|  1> ! wB97X-D3 SP def2-SVP
|  2> %pal
|  3> nprocs 24
|  4> end
|  5>
|  6> * xyz 0 1
|  7> S 	 -46.8662 	 -2.7436 	 19.574
|  8> C 	 -47.8065 	 -1.7918 	 18.4541
|  9> C 	 -48.8205 	 -2.51198 	 17.8645
| 10> C 	 -49.0606 	 -3.77313 	 18.4007
| 11> C 	 -48.0323 	 -4.17362 	 19.2365
| 12> H 	 -49.851 	 -4.44427 	 18.0816
| 13> C 	 -49.7742 	 -1.896 	 16.9234
| 14> H 	 -50.581 	 -1.46747 	 17.5028
| 15> H 	 -50.252 	 -2.78833 	 16.4247
| 16> C 	 -49.1772 	 -0.769493 	 15.9598
| 17> H 	 -48.6368 	 0.0989025 	 16.4345
| 18> H 	 -48.3648 	 -1.19085 	 15.3244
| 19> C 	 -50.3179 	 -0.271425 	 15.0491
| 20> H 	 -50.6448 	 -0.87765 	 14.1585
| 21> H 	 -51.1104 	 0.159082 	 15.6721
| 22> H 	 -49.9608 	 0.648995 	 14.5772
| 23> S 	 -47.8236 	 -6.81675 	 18.7556
| 24> C 	 -47.3408 	 -7.94339 	 20.0676
| 25> C 	 -47.2879 	 -7.28909 	 21.2582
| 26> C 	 -47.4651 	 -5.86223 	 21.131
| 27> C 	 -47.8069 	 -5.48863 	 19.8275
| 28> H 	 -47.1045 	 -7.75668 	 22.2059
| 29> C 	 -47.4252 	 -4.95612 	 22.3534
| 30> H 	 -46.7795 	 -4.1545 	 21.9293
| 31> H 	 -46.8583 	 -5.45503 	 23.1907
| 32> C 	 -48.7246 	 -4.29082 	 22.8262
| 33> H 	 -49.3993 	 -5.11786 	 23.0112
| 34> H 	 -49.2588 	 -3.9485 	 22.0094
| 35> C 	 -48.5405 	 -3.22197 	 23.9176
| 36> H 	 -49.4516 	 -3.09868 	 24.4113
| 37> H 	 -48.2109 	 -2.33863 	 23.536
| 38> H 	 -47.8477 	 -3.59533 	 24.7078
| 39> H 	 -47.5817 	 -0.712101 	 18.3483
| 40> H 	 -47.4157 	 -8.99797 	 20.063
| 41> *
| 42>
| 43>                          ****END OF INPUT****

CARTESIAN COORDINATES (ANGSTROEM)
---------------------------------
  S    -46.866200   -2.743600   19.574000
  C    -47.806500   -1.791800   18.454100
  C    -48.820500   -2.511980   17.864500
  C    -49.060600   -3.773130   18.400700
  C    -48.032300   -4.173620   19.236500
  H    -49.851000   -4.444270   18.081600
  C    -49.774200   -1.896000   16.923400
  H    -50.581000   -1.467470   17.502800
  H    -50.252000   -2.788330   16.424700
  C    -49.177200   -0.769493   15.959800
  H    -48.636800    0.098903   16.434500
  H    -48.364800   -1.190850   15.324400
  C    -50.317900   -0.271425   15.049100
  H    -50.644800   -0.877650   14.158500
  H    -51.110400    0.159082   15.672100
  H    -49.960800    0.648995   14.577200
  S    -47.823600   -6.816750   18.755600
  C    -47.340800   -7.943390   20.067600
  C    -47.287900   -7.289090   21.258200
  C    -47.465100   -5.862230   21.131000
  C    -47.806900   -5.488630   19.827500
  H    -47.104500   -7.756680   22.205900
  C    -47.425200   -4.956120   22.353400
  H    -46.779500   -4.154500   21.929300
  H    -46.858300   -5.455030   23.190700
  C    -48.724600   -4.290820   22.826200
  H    -49.399300   -5.117860   23.011200
  H    -49.258800   -3.948500   22.009400
  C    -48.540500   -3.221970   23.917600
  H    -49.451600   -3.098680   24.411300
  H    -48.210900   -2.338630   23.536000
  H    -47.847700   -3.595330   24.707800
  H    -47.581700   -0.712101   18.348300
  H    -47.415700   -8.997970   20.063000

 Total Charge           Charge          ....    0
 Multiplicity           Mult            ....    1
 Number of Electrons    NEL             ....  134
 Basis Dimension        Dim             ....  322

ORBITAL ENERGIES
----------------

  NO   OCC          E(Eh)            E(eV)
   0   2.0000     -88.966212     -2420.8937
   1   2.0000     -88.965317     -2420.8693
   2   2.0000     -10.339168      -281.3431
   3   2.0000     -10.323757      -280.9237
   4   2.0000     -10.313946      -280.6568
   5   2.0000     -10.313744      -280.6512
   6   2.0000     -10.302009      -280.3319
   7   2.0000     -10.301269      -280.3118
   8   2.0000     -10.296467      -280.1811
   9   2.0000     -10.294371      -280.1241
  10   2.0000     -10.292738      -280.0796
  11   2.0000     -10.291988      -280.0592
  12   2.0000     -10.291630      -280.0495
  13   2.0000     -10.283195      -279.8200
  14   2.0000     -10.274063      -279.5715
  15   2.0000     -10.267923      -279.4044
  16   2.0000      -8.080870      -219.8917
  17   2.0000      -8.078274      -219.8210
  18   2.0000      -6.039531      -164.3440
  19   2.0000      -6.036867      -164.2715
  20   2.0000      -6.035337      -164.2299
  21   2.0000      -6.033135      -164.1699
  22   2.0000      -6.031522      -164.1260
  23   2.0000      -6.028962      -164.0564
  24   2.0000      -1.003620       -27.3099
  25   2.0000      -0.981733       -26.7143
  26   2.0000      -0.904620       -24.6160
  27   2.0000      -0.902790       -24.5662
  28   2.0000      -0.870959       -23.7000
  29   2.0000      -0.854917       -23.2635
  30   2.0000      -0.846735       -23.0408
  31   2.0000      -0.817968       -22.2580
  32   2.0000      -0.778209       -21.1761
  33   2.0000      -0.760650       -20.6983
  34   2.0000      -0.715047       -19.4574
  35   2.0000      -0.706319       -19.2199
  36   2.0000      -0.692128       -18.8338
  37   2.0000      -0.666666       -18.1409
  38   2.0000      -0.639807       -17.4100
  39   2.0000      -0.613633       -16.6978
  40   2.0000      -0.590529       -16.0691
  41   2.0000      -0.563608       -15.3366
  42   2.0000      -0.560655       -15.2562
  43   2.0000      -0.556645       -15.1471
  44   2.0000      -0.524584       -14.2747
  45   2.0000      -0.523875       -14.2554
  46   2.0000      -0.515183       -14.0189
  47   2.0000      -0.512901       -13.9568
  48   2.0000      -0.504390       -13.7251
  49   2.0000      -0.503356       -13.6970
  50   2.0000      -0.487936       -13.2774
  51   2.0000      -0.481680       -13.1072
  52   2.0000      -0.472250       -12.8506
  53   2.0000      -0.463310       -12.6073
  54   2.0000      -0.456822       -12.4308
  55   2.0000      -0.449862       -12.2414
  56   2.0000      -0.444477       -12.0948
  57   2.0000      -0.436043       -11.8653
  58   2.0000      -0.428336       -11.6556
  59   2.0000      -0.423147       -11.5144
  60   2.0000      -0.419603       -11.4180
  61   2.0000      -0.415027       -11.2935
  62   2.0000      -0.406652       -11.0656
  63   2.0000      -0.350306        -9.5323
  64   2.0000      -0.335413        -9.1270
  65   2.0000      -0.322279        -8.7697
  66   2.0000      -0.286625        -7.7994
  67   0.0000       0.022082         0.6009
  68   0.0000       0.071771         1.9530
  69   0.0000       0.095904         2.6097
  70   0.0000       0.111731         3.0403
  71   0.0000       0.131037         3.5657

MULLIKEN ATOMIC CHARGES
-----------------------
   0 S :    0.083907
   1 C :   -0.145357
   2 C :   -0.053686
   3 C :    0.016968
   4 C :   -0.126669
   5 H :    0.024656
   6 C :    0.040049
   7 H :    0.039411
   8 H :    0.030732
   9 C :   -0.110405
  10 H :    0.043659
  11 H :    0.040188
  12 C :   -0.054374
  13 H :    0.058037
  14 H :    0.030502
  15 H :    0.014899
  16 S :    0.107116
  17 C :   -0.066800
  18 C :   -0.028069
  19 C :   -0.065491
  20 C :   -0.165814
  21 H :    0.013918
  22 C :    0.032638
  23 H :    0.024295
  24 H :    0.028327
  25 C :   -0.024891
  26 H :    0.007182
  27 H :    0.000399
  28 C :    0.025679
  29 H :    0.017752
  30 H :    0.022067
  31 H :    0.026804
  32 H :    0.066317
  33 H :    0.046055
Sum of atomic charges:   -0.0000000

LOEWDIN ATOMIC CHARGES
----------------------
   0 S :    0.358353
   1 C :   -0.199338
   2 C :   -0.076583
   3 C :   -0.059795
   4 C :   -0.145011
   5 H :    0.037208
   6 C :   -0.036039
   7 H :    0.032690
   8 H :    0.037514
   9 C :   -0.045146
  10 H :    0.031059
  11 H :    0.029490
  12 C :   -0.079702
  13 H :    0.036051
  14 H :    0.026609
  15 H :    0.024970
  16 S :    0.413086
  17 C :   -0.174516
  18 C :   -0.060436
  19 C :   -0.057827
  20 C :   -0.219154
  21 H :    0.030069
  22 C :   -0.041050
  23 H :    0.025128
  24 H :    0.031758
  25 C :   -0.040573
  26 H :    0.023035
  27 H :    0.016950
  28 C :   -0.044050
  29 H :    0.022539
  30 H :    0.014860
  31 H :    0.031395
  32 H :    0.032499
  33 H :    0.023956

  Mayer bond orders larger than 0.100000
B(  0-S ,  1-C ) :   1.1285 B(  0-S ,  4-C ) :   1.1145 B(  1-C ,  2-C ) :   1.6068
B(  1-C , 32-H ) :   0.9640 B(  2-C ,  3-C ) :   1.2387 B(  2-C ,  6-C ) :   1.0274
B(  3-C ,  4-C ) :   1.5813 B(  3-C ,  5-H ) :   0.9877 B(  4-C , 20-C ) :   1.0614
B(  6-C ,  7-H ) :   0.9358 B(  6-C ,  8-H ) :   0.9436 B(  6-C ,  9-C ) :   1.0453
B(  9-C , 10-H ) :   0.9537 B(  9-C , 11-H ) :   0.9600 B(  9-C , 12-C ) :   1.0852
B( 12-C , 13-H ) :   0.9755 B( 12-C , 14-H ) :   0.9721 B( 12-C , 15-H ) :   0.9700
B( 16-S , 17-C ) :   1.1333 B( 16-S , 20-C ) :   1.1498 B( 17-C , 18-C ) :   1.6201
B( 17-C , 33-H ) :   0.9650 B( 18-C , 19-C ) :   1.2588 B( 18-C , 21-H ) :   0.9863
B( 19-C , 20-C ) :   1.5564 B( 19-C , 22-C ) :   1.0360 B( 22-C , 23-H ) :   0.9222
B( 22-C , 24-H ) :   0.9365 B( 22-C , 25-C ) :   1.0636 B( 25-C , 26-H ) :   0.9487
B( 25-C , 27-H ) :   0.9456 B( 25-C , 28-C ) :   1.0701 B( 28-C , 29-H ) :   0.9711
B( 28-C , 30-H ) :   0.9766 B( 28-C , 31-H ) :   0.9761

Dispersion correction           -0.014212130
FINAL SINGLE POINT ENERGY     -1339.855448803320

DIPOLE MOMENT
-------------
                                X             Y             Z
Electronic contribution:     11.22697     -16.50221      -1.66243
Nuclear contribution   :    -11.68255      16.75145       1.75865
                        -----------------------------------------
Total Dipole Moment    :     -0.45558       0.24924       0.09622
                        -----------------------------------------
Magnitude (a.u.)       :      0.52814
Magnitude (Debye)      :      1.34241

Rotational constants in cm-1:     0.020839     0.007724     0.006256
Rotational constants in MHz :   624.728291   231.553887   187.563752

                             ****ORCA TERMINATED NORMALLY****
TOTAL RUN TIME: 0 days 0 hours 0 minutes 22 seconds 235 msec
