                         Program Version 4.2.1 -  RELEASE  -
|  1> ! wB97X-D3 SP def2-SVP
|  2> %pal
|  3> nprocs 24
|  4> end
|  5>
|  6> * xyz 0 1
|  7> S 	 20.6752 	 1.48576 	 -109.382
|  8> C 	 20.3063 	 0.519977 	 -107.945
|  9> C 	 19.0016 	 0.236031 	 -107.784
| 10> C 	 18.2466 	 0.879678 	 -108.835
| 11> C 	 19.0067 	 1.48661 	 -109.853
| 12> H 	 17.1962 	 0.87952 	 -108.94
| 13> C 	 18.4554 	 -0.390294 	 -106.534
| 14> H 	 17.8516 	 0.443665 	 -106.18
| 15> H 	 19.2692 	 -0.639901 	 -105.805
| 16> C 	 17.6163 	 -1.72987 	 -106.774
| 17> H 	 17.3876 	 -2.29231 	 -105.814
| 18> H 	 16.6493 	 -1.53051 	 -107.163
| 19> C 	 18.397 	 -2.70426 	 -107.691
| 20> H 	 18.6486 	 -2.35006 	 -108.644
| 21> H 	 19.3033 	 -2.95587 	 -107.165
| 22> H 	 17.7383 	 -3.52616 	 -107.985
| 23> S 	 17.7967 	 3.79086 	 -110.707
| 24> C 	 17.7911 	 4.12441 	 -112.376
| 25> C 	 18.5246 	 3.20072 	 -113.125
| 26> C 	 18.8864 	 2.12188 	 -112.346
| 27> C 	 18.5489 	 2.25576 	 -111.009
| 28> H 	 18.7145 	 3.37959 	 -114.15
| 29> C 	 19.7547 	 1.0315 	 -113.018
| 30> H 	 19.2211 	 0.69129 	 -113.939
| 31> H 	 19.6936 	 0.141931 	 -112.38
| 32> C 	 21.2192 	 1.38595 	 -113.383
| 33> H 	 21.8712 	 1.5337 	 -112.567
| 34> H 	 21.2024 	 2.35087 	 -113.876
| 35> C 	 21.9604 	 0.282371 	 -114.198
| 36> H 	 22.9832 	 0.513397 	 -114.33
| 37> H 	 21.5069 	 0.164106 	 -115.212
| 38> H 	 21.9972 	 -0.653653 	 -113.716
| 39> H 	 21.1168 	 0.208838 	 -107.314
| 40> H 	 17.5114 	 5.11767 	 -112.722
| 41> *
| 42>
| 43>                          ****END OF INPUT****

CARTESIAN COORDINATES (ANGSTROEM)
---------------------------------
  S     20.675200    1.485760  -109.382000
  C     20.306300    0.519977  -107.945000
  C     19.001600    0.236031  -107.784000
  C     18.246600    0.879678  -108.835000
  C     19.006700    1.486610  -109.853000
  H     17.196200    0.879520  -108.940000
  C     18.455400   -0.390294  -106.534000
  H     17.851600    0.443665  -106.180000
  H     19.269200   -0.639901  -105.805000
  C     17.616300   -1.729870  -106.774000
  H     17.387600   -2.292310  -105.814000
  H     16.649300   -1.530510  -107.163000
  C     18.397000   -2.704260  -107.691000
  H     18.648600   -2.350060  -108.644000
  H     19.303300   -2.955870  -107.165000
  H     17.738300   -3.526160  -107.985000
  S     17.796700    3.790860  -110.707000
  C     17.791100    4.124410  -112.376000
  C     18.524600    3.200720  -113.125000
  C     18.886400    2.121880  -112.346000
  C     18.548900    2.255760  -111.009000
  H     18.714500    3.379590  -114.150000
  C     19.754700    1.031500  -113.018000
  H     19.221100    0.691290  -113.939000
  H     19.693600    0.141931  -112.380000
  C     21.219200    1.385950  -113.383000
  H     21.871200    1.533700  -112.567000
  H     21.202400    2.350870  -113.876000
  C     21.960400    0.282371  -114.198000
  H     22.983200    0.513397  -114.330000
  H     21.506900    0.164106  -115.212000
  H     21.997200   -0.653653  -113.716000
  H     21.116800    0.208838  -107.314000
  H     17.511400    5.117670  -112.722000

 Total Charge           Charge          ....    0
 Multiplicity           Mult            ....    1
 Number of Electrons    NEL             ....  134
 Basis Dimension        Dim             ....  322

ORBITAL ENERGIES
----------------

  NO   OCC          E(Eh)            E(eV)
   0   2.0000     -88.968301     -2420.9506
   1   2.0000     -88.961308     -2420.7602
   2   2.0000     -10.327998      -281.0391
   3   2.0000     -10.322267      -280.8832
   4   2.0000     -10.314169      -280.6628
   5   2.0000     -10.308005      -280.4951
   6   2.0000     -10.300535      -280.2918
   7   2.0000     -10.299330      -280.2590
   8   2.0000     -10.299102      -280.2528
   9   2.0000     -10.293856      -280.1101
  10   2.0000     -10.293683      -280.1053
  11   2.0000     -10.292592      -280.0757
  12   2.0000     -10.287135      -279.9272
  13   2.0000     -10.283384      -279.8251
  14   2.0000     -10.273313      -279.5511
  15   2.0000     -10.269723      -279.4534
  16   2.0000      -8.084072      -219.9788
  17   2.0000      -8.076138      -219.7629
  18   2.0000      -6.042229      -164.4174
  19   2.0000      -6.038453      -164.3147
  20   2.0000      -6.035123      -164.2240
  21   2.0000      -6.034579      -164.2092
  22   2.0000      -6.030671      -164.1029
  23   2.0000      -6.026939      -164.0013
  24   2.0000      -1.011346       -27.5201
  25   2.0000      -0.987542       -26.8724
  26   2.0000      -0.907416       -24.6920
  27   2.0000      -0.902261       -24.5518
  28   2.0000      -0.866955       -23.5910
  29   2.0000      -0.855519       -23.2798
  30   2.0000      -0.841425       -22.8963
  31   2.0000      -0.810884       -22.0653
  32   2.0000      -0.783829       -21.3291
  33   2.0000      -0.772501       -21.0208
  34   2.0000      -0.709089       -19.2953
  35   2.0000      -0.702010       -19.1027
  36   2.0000      -0.690890       -18.8001
  37   2.0000      -0.666787       -18.1442
  38   2.0000      -0.641741       -17.4627
  39   2.0000      -0.615805       -16.7569
  40   2.0000      -0.598265       -16.2796
  41   2.0000      -0.564745       -15.3675
  42   2.0000      -0.557662       -15.1748
  43   2.0000      -0.556209       -15.1352
  44   2.0000      -0.537303       -14.6208
  45   2.0000      -0.519997       -14.1498
  46   2.0000      -0.516020       -14.0416
  47   2.0000      -0.512254       -13.9391
  48   2.0000      -0.506488       -13.7822
  49   2.0000      -0.493115       -13.4184
  50   2.0000      -0.486368       -13.2348
  51   2.0000      -0.478553       -13.0221
  52   2.0000      -0.471817       -12.8388
  53   2.0000      -0.466765       -12.7013
  54   2.0000      -0.461133       -12.5481
  55   2.0000      -0.449322       -12.2267
  56   2.0000      -0.442045       -12.0287
  57   2.0000      -0.437645       -11.9089
  58   2.0000      -0.427874       -11.6430
  59   2.0000      -0.425852       -11.5880
  60   2.0000      -0.422258       -11.4902
  61   2.0000      -0.418413       -11.3856
  62   2.0000      -0.412143       -11.2150
  63   2.0000      -0.339098        -9.2273
  64   2.0000      -0.331047        -9.0082
  65   2.0000      -0.326779        -8.8921
  66   2.0000      -0.301018        -8.1911
  67   0.0000       0.038295         1.0421
  68   0.0000       0.062375         1.6973
  69   0.0000       0.112805         3.0696
  70   0.0000       0.118537         3.2256
  71   0.0000       0.126850         3.4518

MULLIKEN ATOMIC CHARGES
-----------------------
   0 S :    0.108026
   1 C :   -0.146442
   2 C :   -0.047569
   3 C :    0.028339
   4 C :   -0.165903
   5 H :   -0.007355
   6 C :    0.048348
   7 H :    0.048510
   8 H :    0.035504
   9 C :   -0.089063
  10 H :    0.040915
  11 H :    0.021100
  12 C :   -0.031575
  13 H :    0.027533
  14 H :    0.028980
  15 H :    0.030513
  16 S :    0.136746
  17 C :   -0.097907
  18 C :   -0.037213
  19 C :   -0.011785
  20 C :   -0.169479
  21 H :    0.010816
  22 C :    0.049575
  23 H :    0.028165
  24 H :    0.022790
  25 C :   -0.035730
  26 H :    0.016671
  27 H :    0.018304
  28 C :   -0.040538
  29 H :    0.022388
  30 H :    0.032595
  31 H :    0.025694
  32 H :    0.041374
  33 H :    0.057675
Sum of atomic charges:    0.0000000

LOEWDIN ATOMIC CHARGES
----------------------
   0 S :    0.399756
   1 C :   -0.183237
   2 C :   -0.067233
   3 C :   -0.058333
   4 C :   -0.200956
   5 H :    0.020484
   6 C :   -0.028355
   7 H :    0.038830
   8 H :    0.035692
   9 C :   -0.040775
  10 H :    0.031736
  11 H :    0.013787
  12 C :   -0.062408
  13 H :    0.018500
  14 H :    0.024342
  15 H :    0.030006
  16 S :    0.448607
  17 C :   -0.197034
  18 C :   -0.066983
  19 C :   -0.056251
  20 C :   -0.218850
  21 H :    0.028088
  22 C :   -0.033218
  23 H :    0.034536
  24 H :    0.027393
  25 C :   -0.034416
  26 H :    0.017518
  27 H :    0.021513
  28 C :   -0.059566
  29 H :    0.022255
  30 H :    0.027160
  31 H :    0.021035
  32 H :    0.020934
  33 H :    0.025441

  Mayer bond orders larger than 0.100000
B(  0-S ,  1-C ) :   1.1381 B(  0-S ,  4-C ) :   1.1528 B(  1-C ,  2-C ) :   1.6248
B(  1-C , 32-H ) :   0.9670 B(  2-C ,  3-C ) :   1.2038 B(  2-C ,  6-C ) :   1.0117
B(  3-C ,  4-C ) :   1.5873 B(  3-C ,  5-H ) :   1.0044 B(  4-C , 20-C ) :   1.0281
B(  6-C ,  7-H ) :   0.9440 B(  6-C ,  8-H ) :   0.9494 B(  6-C ,  9-C ) :   1.0492
B(  9-C , 10-H ) :   0.9628 B(  9-C , 11-H ) :   0.9594 B(  9-C , 12-C ) :   1.0774
B( 12-C , 13-H ) :   0.9698 B( 12-C , 14-H ) :   0.9787 B( 12-C , 15-H ) :   0.9722
B( 16-S , 17-C ) :   1.2002 B( 16-S , 20-C ) :   1.1679 B( 17-C , 18-C ) :   1.5491
B( 17-C , 20-C ) :   0.1034 B( 17-C , 33-H ) :   0.9648 B( 18-C , 19-C ) :   1.2832
B( 18-C , 21-H ) :   1.0032 B( 19-C , 20-C ) :   1.5607 B( 19-C , 22-C ) :   1.0421
B( 22-C , 23-H ) :   0.9396 B( 22-C , 24-H ) :   0.9320 B( 22-C , 25-C ) :   1.0556
B( 25-C , 26-H ) :   0.9525 B( 25-C , 27-H ) :   0.9564 B( 25-C , 28-C ) :   1.0829
B( 28-C , 29-H ) :   0.9742 B( 28-C , 30-H ) :   0.9765 B( 28-C , 31-H ) :   0.9756

Dispersion correction           -0.014501535
FINAL SINGLE POINT ENERGY     -1339.876436482474

DIPOLE MOMENT
-------------
                                X             Y             Z
Electronic contribution:     -4.37446      20.33377       2.73620
Nuclear contribution   :      4.42879     -20.48858      -2.75198
                        -----------------------------------------
Total Dipole Moment    :      0.05433      -0.15481      -0.01578
                        -----------------------------------------
Magnitude (a.u.)       :      0.16483
Magnitude (Debye)      :      0.41895

Rotational constants in cm-1:     0.019129     0.008342     0.006806
Rotational constants in MHz :   573.470043   250.101013   204.036817

                             ****ORCA TERMINATED NORMALLY****
TOTAL RUN TIME: 0 days 0 hours 0 minutes 21 seconds 213 msec
