                         Program Version 4.2.1 -  RELEASE  -
|  1> ! wB97X-D3 SP def2-SVP
|  2> %pal
|  3> nprocs 24
|  4> end
|  5>
|  6> * xyz 0 1
|  7> S 	 -115.832 	 28.4945 	 -9.95941
|  8> C 	 -115.201 	 26.9072 	 -10.2019
|  9> C 	 -115.418 	 26.4524 	 -11.4861
| 10> C 	 -116.161 	 27.4471 	 -12.2425
| 11> C 	 -116.452 	 28.6302 	 -11.5379
| 12> H 	 -116.47 	 27.2358 	 -13.2999
| 13> C 	 -115.114 	 25.0578 	 -11.9572
| 14> H 	 -115.897 	 24.6852 	 -12.5032
| 15> H 	 -115.163 	 24.4108 	 -11.0077
| 16> C 	 -113.78 	 24.995 	 -12.7888
| 17> H 	 -113.779 	 25.6286 	 -13.6033
| 18> H 	 -112.992 	 25.3521 	 -12.0578
| 19> C 	 -113.502 	 23.5104 	 -13.1269
| 20> H 	 -113.566 	 22.9753 	 -12.1638
| 21> H 	 -114.151 	 23.1923 	 -13.9133
| 22> H 	 -112.42 	 23.3133 	 -13.4095
| 23> S 	 -118.086 	 30.6227 	 -10.6387
| 24> C 	 -118.627 	 31.8996 	 -11.7694
| 25> C 	 -118.093 	 31.621 	 -13.0153
| 26> C 	 -117.35 	 30.4381 	 -13.1325
| 27> C 	 -117.262 	 29.7687 	 -11.9231
| 28> H 	 -118.29 	 32.3285 	 -13.809
| 29> C 	 -116.598 	 30.1536 	 -14.4056
| 30> H 	 -115.753 	 29.4715 	 -14.2316
| 31> H 	 -116.128 	 31.0054 	 -14.8248
| 32> C 	 -117.569 	 29.6101 	 -15.4652
| 33> H 	 -118.541 	 30.1681 	 -15.5119
| 34> H 	 -117.981 	 28.7088 	 -15.0519
| 35> C 	 -117.033 	 29.4645 	 -16.8816
| 36> H 	 -116.553 	 30.4298 	 -17.1373
| 37> H 	 -117.876 	 29.3851 	 -17.6095
| 38> H 	 -116.223 	 28.6882 	 -16.9426
| 39> H 	 -114.827 	 26.3005 	 -9.36615
| 40> H 	 -119.234 	 32.6978 	 -11.5642
| 41> *
| 42>
| 43>                          ****END OF INPUT****

CARTESIAN COORDINATES (ANGSTROEM)
---------------------------------
  S    -115.832000   28.494500   -9.959410
  C    -115.201000   26.907200  -10.201900
  C    -115.418000   26.452400  -11.486100
  C    -116.161000   27.447100  -12.242500
  C    -116.452000   28.630200  -11.537900
  H    -116.470000   27.235800  -13.299900
  C    -115.114000   25.057800  -11.957200
  H    -115.897000   24.685200  -12.503200
  H    -115.163000   24.410800  -11.007700
  C    -113.780000   24.995000  -12.788800
  H    -113.779000   25.628600  -13.603300
  H    -112.992000   25.352100  -12.057800
  C    -113.502000   23.510400  -13.126900
  H    -113.566000   22.975300  -12.163800
  H    -114.151000   23.192300  -13.913300
  H    -112.420000   23.313300  -13.409500
  S    -118.086000   30.622700  -10.638700
  C    -118.627000   31.899600  -11.769400
  C    -118.093000   31.621000  -13.015300
  C    -117.350000   30.438100  -13.132500
  C    -117.262000   29.768700  -11.923100
  H    -118.290000   32.328500  -13.809000
  C    -116.598000   30.153600  -14.405600
  H    -115.753000   29.471500  -14.231600
  H    -116.128000   31.005400  -14.824800
  C    -117.569000   29.610100  -15.465200
  H    -118.541000   30.168100  -15.511900
  H    -117.981000   28.708800  -15.051900
  C    -117.033000   29.464500  -16.881600
  H    -116.553000   30.429800  -17.137300
  H    -117.876000   29.385100  -17.609500
  H    -116.223000   28.688200  -16.942600
  H    -114.827000   26.300500   -9.366150
  H    -119.234000   32.697800  -11.564200

 Total Charge           Charge          ....    0
 Multiplicity           Mult            ....    1
 Number of Electrons    NEL             ....  134
 Basis Dimension        Dim             ....  322

ORBITAL ENERGIES
----------------

  NO   OCC          E(Eh)            E(eV)
   0   2.0000     -88.966846     -2420.9109
   1   2.0000     -88.964790     -2420.8550
   2   2.0000     -10.329547      -281.0813
   3   2.0000     -10.329278      -281.0739
   4   2.0000     -10.315892      -280.7097
   5   2.0000     -10.311361      -280.5864
   6   2.0000     -10.300920      -280.3023
   7   2.0000     -10.300755      -280.2978
   8   2.0000     -10.300185      -280.2823
   9   2.0000     -10.293218      -280.0927
  10   2.0000     -10.292427      -280.0712
  11   2.0000     -10.289487      -279.9912
  12   2.0000     -10.289441      -279.9899
  13   2.0000     -10.287695      -279.9424
  14   2.0000     -10.284732      -279.8618
  15   2.0000     -10.283366      -279.8246
  16   2.0000      -8.081066      -219.8970
  17   2.0000      -8.080866      -219.8915
  18   2.0000      -6.039671      -164.3478
  19   2.0000      -6.039297      -164.3376
  20   2.0000      -6.035628      -164.2378
  21   2.0000      -6.035061      -164.2224
  22   2.0000      -6.031752      -164.1323
  23   2.0000      -6.031745      -164.1321
  24   2.0000      -1.011753       -27.5312
  25   2.0000      -0.986431       -26.8422
  26   2.0000      -0.913807       -24.8659
  27   2.0000      -0.910059       -24.7640
  28   2.0000      -0.871734       -23.7211
  29   2.0000      -0.852291       -23.1920
  30   2.0000      -0.843819       -22.9615
  31   2.0000      -0.813549       -22.1378
  32   2.0000      -0.780826       -21.2473
  33   2.0000      -0.772375       -21.0174
  34   2.0000      -0.708497       -19.2792
  35   2.0000      -0.702183       -19.1074
  36   2.0000      -0.699036       -19.0217
  37   2.0000      -0.668098       -18.1799
  38   2.0000      -0.637456       -17.3461
  39   2.0000      -0.619794       -16.8655
  40   2.0000      -0.602608       -16.3978
  41   2.0000      -0.573974       -15.6186
  42   2.0000      -0.563137       -15.3237
  43   2.0000      -0.557909       -15.1815
  44   2.0000      -0.533838       -14.5265
  45   2.0000      -0.520449       -14.1622
  46   2.0000      -0.518136       -14.0992
  47   2.0000      -0.513892       -13.9837
  48   2.0000      -0.508065       -13.8251
  49   2.0000      -0.498930       -13.5766
  50   2.0000      -0.495314       -13.4782
  51   2.0000      -0.481379       -13.0990
  52   2.0000      -0.473548       -12.8859
  53   2.0000      -0.460661       -12.5352
  54   2.0000      -0.458875       -12.4866
  55   2.0000      -0.448615       -12.2074
  56   2.0000      -0.443920       -12.0797
  57   2.0000      -0.440846       -11.9960
  58   2.0000      -0.437461       -11.9039
  59   2.0000      -0.429190       -11.6789
  60   2.0000      -0.417503       -11.3608
  61   2.0000      -0.415533       -11.3072
  62   2.0000      -0.408054       -11.1037
  63   2.0000      -0.356703        -9.7064
  64   2.0000      -0.333609        -9.0780
  65   2.0000      -0.327677        -8.9166
  66   2.0000      -0.285530        -7.7697
  67   0.0000       0.022523         0.6129
  68   0.0000       0.080744         2.1972
  69   0.0000       0.109440         2.9780
  70   0.0000       0.120309         3.2738
  71   0.0000       0.131963         3.5909

MULLIKEN ATOMIC CHARGES
-----------------------
   0 S :    0.109287
   1 C :   -0.138281
   2 C :   -0.093211
   3 C :   -0.001856
   4 C :   -0.134690
   5 H :    0.024851
   6 C :    0.051357
   7 H :    0.003227
   8 H :    0.033252
   9 C :   -0.062154
  10 H :    0.021038
  11 H :    0.036435
  12 C :   -0.046477
  13 H :    0.032171
  14 H :    0.040239
  15 H :    0.038759
  16 S :    0.092842
  17 C :   -0.058847
  18 C :   -0.031699
  19 C :   -0.033912
  20 C :   -0.123792
  21 H :    0.017660
  22 C :    0.101909
  23 H :    0.025629
  24 H :    0.008327
  25 C :   -0.112181
  26 H :    0.024541
  27 H :    0.009997
  28 C :   -0.028344
  29 H :    0.023589
  30 H :    0.045939
  31 H :    0.042598
  32 H :    0.058013
  33 H :    0.023783
Sum of atomic charges:    0.0000000

LOEWDIN ATOMIC CHARGES
----------------------
   0 S :    0.435377
   1 C :   -0.212996
   2 C :   -0.064105
   3 C :   -0.076002
   4 C :   -0.209294
   5 H :    0.033985
   6 C :   -0.029364
   7 H :    0.014865
   8 H :    0.040968
   9 C :   -0.029033
  10 H :    0.011532
  11 H :    0.032293
  12 C :   -0.068812
  13 H :    0.029279
  14 H :    0.021409
  15 H :    0.031323
  16 S :    0.390215
  17 C :   -0.160640
  18 C :   -0.060466
  19 C :   -0.058044
  20 C :   -0.189976
  21 H :    0.031001
  22 C :   -0.024350
  23 H :    0.031293
  24 H :    0.023091
  25 C :   -0.052339
  26 H :    0.028655
  27 H :    0.016807
  28 C :   -0.071664
  29 H :    0.025516
  30 H :    0.034388
  31 H :    0.029743
  32 H :    0.032004
  33 H :    0.013343

  Mayer bond orders larger than 0.100000
B(  0-S ,  1-C ) :   1.1483 B(  0-S ,  4-C ) :   1.1726 B(  1-C ,  2-C ) :   1.5906
B(  1-C , 32-H ) :   0.9653 B(  2-C ,  3-C ) :   1.2774 B(  2-C ,  6-C ) :   1.0228
B(  3-C ,  4-C ) :   1.5198 B(  3-C ,  5-H ) :   0.9844 B(  4-C , 20-C ) :   1.0699
B(  6-C ,  7-H ) :   0.9409 B(  6-C ,  8-H ) :   0.9473 B(  6-C ,  9-C ) :   1.0399
B(  9-C , 10-H ) :   0.9634 B(  9-C , 11-H ) :   0.9587 B(  9-C , 12-C ) :   1.0754
B( 12-C , 13-H ) :   0.9732 B( 12-C , 14-H ) :   0.9771 B( 12-C , 15-H ) :   0.9752
B( 16-S , 17-C ) :   1.1318 B( 16-S , 20-C ) :   1.1407 B( 17-C , 18-C ) :   1.6081
B( 17-C , 20-C ) :   0.1017 B( 17-C , 33-H ) :   0.9829 B( 18-C , 19-C ) :   1.2548
B( 18-C , 21-H ) :   0.9866 B( 19-C , 20-C ) :   1.5689 B( 19-C , 22-C ) :   1.0517
B( 22-C , 23-H ) :   0.9299 B( 22-C , 24-H ) :   0.9359 B( 22-C , 25-C ) :   1.0417
B( 25-C , 26-H ) :   0.9583 B( 25-C , 27-H ) :   0.9477 B( 25-C , 28-C ) :   1.0764
B( 28-C , 29-H ) :   0.9707 B( 28-C , 30-H ) :   0.9726 B( 28-C , 31-H ) :   0.9728

Dispersion correction           -0.013631516
FINAL SINGLE POINT ENERGY     -1339.877006497300

DIPOLE MOMENT
-------------
                                X             Y             Z
Electronic contribution:     -9.35418      16.78704      25.09025
Nuclear contribution   :      9.42261     -16.98294     -25.65544
                        -----------------------------------------
Total Dipole Moment    :      0.06843      -0.19590      -0.56518
                        -----------------------------------------
Magnitude (a.u.)       :      0.60207
Magnitude (Debye)      :      1.53034

Rotational constants in cm-1:     0.017769     0.008657     0.006011
Rotational constants in MHz :   532.697606   259.536421   180.215924

                             ****ORCA TERMINATED NORMALLY****
TOTAL RUN TIME: 0 days 0 hours 0 minutes 21 seconds 166 msec
