                         Program Version 4.2.1 -  RELEASE  -
|  1> ! wB97X-D3 SP def2-SVP
|  2> %pal
|  3> nprocs 24
|  4> end
|  5>
|  6> * xyz 0 1
|  7> S 	 -67.7473 	 7.48897 	 -74.3615
|  8> C 	 -67.2648 	 7.53823 	 -72.7025
|  9> C 	 -68.1019 	 8.30345 	 -71.9223
| 10> C 	 -69.0732 	 8.92355 	 -72.7594
| 11> C 	 -69.1605 	 8.39117 	 -74.0253
| 12> H 	 -69.8421 	 9.6066 	 -72.5135
| 13> C 	 -68.096 	 8.34201 	 -70.4191
| 14> H 	 -68.311 	 9.41446 	 -70.1676
| 15> H 	 -67.0127 	 8.12839 	 -70.233
| 16> C 	 -69.0443 	 7.34911 	 -69.7463
| 17> H 	 -69.0302 	 7.60517 	 -68.6949
| 18> H 	 -70.0707 	 7.50159 	 -70.0838
| 19> C 	 -68.5756 	 5.91066 	 -70.0791
| 20> H 	 -69.0798 	 5.16165 	 -69.3989
| 21> H 	 -68.5828 	 5.6037 	 -71.1135
| 22> H 	 -67.5025 	 5.9253 	 -69.7567
| 23> S 	 -69.5816 	 9.4721 	 -76.643
| 24> C 	 -71.1566 	 10.0086 	 -77.0525
| 25> C 	 -72.0682 	 9.73903 	 -76.0475
| 26> C 	 -71.4862 	 9.05023 	 -74.8974
| 27> C 	 -70.1011 	 8.81111 	 -75.0632
| 28> H 	 -73.0444 	 10.0799 	 -76.155
| 29> C 	 -72.3943 	 8.68776 	 -73.7054
| 30> H 	 -71.7941 	 8.31076 	 -72.8478
| 31> H 	 -73.089 	 7.90487 	 -74.0364
| 32> C 	 -73.3633 	 9.72922 	 -73.1759
| 33> H 	 -73.8594 	 10.2008 	 -74.026
| 34> H 	 -72.7678 	 10.5043 	 -72.6867
| 35> C 	 -74.4353 	 9.13865 	 -72.1902
| 36> H 	 -75.0753 	 8.34947 	 -72.5631
| 37> H 	 -75.0722 	 9.9995 	 -71.825
| 38> H 	 -73.8423 	 8.82606 	 -71.2948
| 39> H 	 -66.4642 	 6.89464 	 -72.2102
| 40> H 	 -71.3468 	 10.4986 	 -77.9838
| 41> *
| 42>
| 43>                          ****END OF INPUT****

CARTESIAN COORDINATES (ANGSTROEM)
---------------------------------
  S    -67.747300    7.488970  -74.361500
  C    -67.264800    7.538230  -72.702500
  C    -68.101900    8.303450  -71.922300
  C    -69.073200    8.923550  -72.759400
  C    -69.160500    8.391170  -74.025300
  H    -69.842100    9.606600  -72.513500
  C    -68.096000    8.342010  -70.419100
  H    -68.311000    9.414460  -70.167600
  H    -67.012700    8.128390  -70.233000
  C    -69.044300    7.349110  -69.746300
  H    -69.030200    7.605170  -68.694900
  H    -70.070700    7.501590  -70.083800
  C    -68.575600    5.910660  -70.079100
  H    -69.079800    5.161650  -69.398900
  H    -68.582800    5.603700  -71.113500
  H    -67.502500    5.925300  -69.756700
  S    -69.581600    9.472100  -76.643000
  C    -71.156600   10.008600  -77.052500
  C    -72.068200    9.739030  -76.047500
  C    -71.486200    9.050230  -74.897400
  C    -70.101100    8.811110  -75.063200
  H    -73.044400   10.079900  -76.155000
  C    -72.394300    8.687760  -73.705400
  H    -71.794100    8.310760  -72.847800
  H    -73.089000    7.904870  -74.036400
  C    -73.363300    9.729220  -73.175900
  H    -73.859400   10.200800  -74.026000
  H    -72.767800   10.504300  -72.686700
  C    -74.435300    9.138650  -72.190200
  H    -75.075300    8.349470  -72.563100
  H    -75.072200    9.999500  -71.825000
  H    -73.842300    8.826060  -71.294800
  H    -66.464200    6.894640  -72.210200
  H    -71.346800   10.498600  -77.983800

 Total Charge           Charge          ....    0
 Multiplicity           Mult            ....    1
 Number of Electrons    NEL             ....  134
 Basis Dimension        Dim             ....  322

ORBITAL ENERGIES
----------------

  NO   OCC          E(Eh)            E(eV)
   0   2.0000     -88.965506     -2420.8745
   1   2.0000     -88.965450     -2420.8730
   2   2.0000     -10.332592      -281.1641
   3   2.0000     -10.324551      -280.9453
   4   2.0000     -10.317486      -280.7531
   5   2.0000     -10.313936      -280.6565
   6   2.0000     -10.312885      -280.6279
   7   2.0000     -10.298112      -280.2259
   8   2.0000     -10.297152      -280.1998
   9   2.0000     -10.294327      -280.1229
  10   2.0000     -10.292814      -280.0817
  11   2.0000     -10.292042      -280.0607
  12   2.0000     -10.290999      -280.0323
  13   2.0000     -10.290274      -280.0126
  14   2.0000     -10.287791      -279.9450
  15   2.0000     -10.285169      -279.8737
  16   2.0000      -8.081305      -219.9035
  17   2.0000      -8.080300      -219.8761
  18   2.0000      -6.039714      -164.3490
  19   2.0000      -6.038848      -164.3254
  20   2.0000      -6.035700      -164.2398
  21   2.0000      -6.034672      -164.2118
  22   2.0000      -6.032070      -164.1410
  23   2.0000      -6.031134      -164.1155
  24   2.0000      -1.010664       -27.5016
  25   2.0000      -0.984900       -26.8005
  26   2.0000      -0.917192       -24.9581
  27   2.0000      -0.908883       -24.7320
  28   2.0000      -0.869029       -23.6475
  29   2.0000      -0.850825       -23.1521
  30   2.0000      -0.842360       -22.9218
  31   2.0000      -0.811550       -22.0834
  32   2.0000      -0.782057       -21.2809
  33   2.0000      -0.772819       -21.0295
  34   2.0000      -0.711845       -19.3703
  35   2.0000      -0.697399       -18.9772
  36   2.0000      -0.691955       -18.8290
  37   2.0000      -0.657589       -17.8939
  38   2.0000      -0.639119       -17.3913
  39   2.0000      -0.619030       -16.8447
  40   2.0000      -0.599914       -16.3245
  41   2.0000      -0.570833       -15.5332
  42   2.0000      -0.570304       -15.5188
  43   2.0000      -0.548966       -14.9381
  44   2.0000      -0.546894       -14.8817
  45   2.0000      -0.519298       -14.1308
  46   2.0000      -0.517543       -14.0831
  47   2.0000      -0.511550       -13.9200
  48   2.0000      -0.506926       -13.7942
  49   2.0000      -0.498143       -13.5552
  50   2.0000      -0.487860       -13.2753
  51   2.0000      -0.477248       -12.9866
  52   2.0000      -0.469057       -12.7637
  53   2.0000      -0.464127       -12.6295
  54   2.0000      -0.456969       -12.4347
  55   2.0000      -0.452009       -12.2998
  56   2.0000      -0.447847       -12.1865
  57   2.0000      -0.437310       -11.8998
  58   2.0000      -0.431911       -11.7529
  59   2.0000      -0.427746       -11.6396
  60   2.0000      -0.421582       -11.4718
  61   2.0000      -0.420986       -11.4556
  62   2.0000      -0.415517       -11.3068
  63   2.0000      -0.349464        -9.5094
  64   2.0000      -0.329142        -8.9564
  65   2.0000      -0.328012        -8.9256
  66   2.0000      -0.291103        -7.9213
  67   0.0000       0.029840         0.8120
  68   0.0000       0.072789         1.9807
  69   0.0000       0.113321         3.0836
  70   0.0000       0.118582         3.2268
  71   0.0000       0.125128         3.4049

MULLIKEN ATOMIC CHARGES
-----------------------
   0 S :    0.116395
   1 C :   -0.137057
   2 C :   -0.111442
   3 C :    0.040242
   4 C :   -0.183188
   5 H :   -0.005351
   6 C :    0.023829
   7 H :    0.037920
   8 H :    0.030649
   9 C :   -0.016993
  10 H :    0.036084
  11 H :    0.029827
  12 C :   -0.087286
  13 H :    0.045928
  14 H :    0.062513
  15 H :    0.020413
  16 S :    0.102874
  17 C :   -0.089163
  18 C :   -0.015781
  19 C :   -0.030846
  20 C :   -0.116798
  21 H :   -0.001508
  22 C :    0.047008
  23 H :    0.030051
  24 H :    0.033233
  25 C :   -0.094922
  26 H :    0.026293
  27 H :    0.028337
  28 C :   -0.075435
  29 H :    0.047495
  30 H :    0.046345
  31 H :    0.037188
  32 H :    0.065840
  33 H :    0.057304
Sum of atomic charges:   -0.0000000

LOEWDIN ATOMIC CHARGES
----------------------
   0 S :    0.427365
   1 C :   -0.217969
   2 C :   -0.070024
   3 C :   -0.057310
   4 C :   -0.204765
   5 H :    0.022340
   6 C :   -0.036933
   7 H :    0.035972
   8 H :    0.033636
   9 C :   -0.035795
  10 H :    0.027247
  11 H :    0.023366
  12 C :   -0.069725
  13 H :    0.032614
  14 H :    0.027542
  15 H :    0.025827
  16 S :    0.402909
  17 C :   -0.184481
  18 C :   -0.068864
  19 C :   -0.046449
  20 C :   -0.196647
  21 H :    0.018760
  22 C :   -0.040525
  23 H :    0.028974
  24 H :    0.035451
  25 C :   -0.042158
  26 H :    0.018281
  27 H :    0.022329
  28 C :   -0.069052
  29 H :    0.024367
  30 H :    0.035452
  31 H :    0.030138
  32 H :    0.040616
  33 H :    0.027509

  Mayer bond orders larger than 0.100000
B(  0-S ,  1-C ) :   1.1449 B(  0-S ,  4-C ) :   1.1569 B(  1-C ,  2-C ) :   1.6156
B(  1-C , 32-H ) :   0.9529 B(  2-C ,  3-C ) :   1.2344 B(  2-C ,  6-C ) :   1.0123
B(  3-C ,  4-C ) :   1.5720 B(  3-C ,  5-H ) :   0.9962 B(  4-C , 20-C ) :   1.0452
B(  6-C ,  7-H ) :   0.9375 B(  6-C ,  8-H ) :   0.9434 B(  6-C ,  9-C ) :   1.0652
B(  9-C , 10-H ) :   0.9557 B(  9-C , 11-H ) :   0.9534 B(  9-C , 12-C ) :   1.0615
B( 12-C , 13-H ) :   0.9725 B( 12-C , 14-H ) :   0.9742 B( 12-C , 15-H ) :   0.9750
B( 16-S , 17-C ) :   1.1701 B( 16-S , 20-C ) :   1.1284 B( 17-C , 18-C ) :   1.5976
B( 17-C , 33-H ) :   0.9702 B( 18-C , 19-C ) :   1.2297 B( 18-C , 21-H ) :   1.0016
B( 19-C , 20-C ) :   1.5880 B( 19-C , 22-C ) :   1.0418 B( 22-C , 23-H ) :   0.9374
B( 22-C , 24-H ) :   0.9339 B( 22-C , 25-C ) :   1.0605 B( 25-C , 26-H ) :   0.9518
B( 25-C , 27-H ) :   0.9556 B( 25-C , 28-C ) :   1.0781 B( 28-C , 29-H ) :   0.9758
B( 28-C , 30-H ) :   0.9744 B( 28-C , 31-H ) :   0.9756

Dispersion correction           -0.014484207
FINAL SINGLE POINT ENERGY     -1339.880187162024

DIPOLE MOMENT
-------------
                                X             Y             Z
Electronic contribution:     15.55417       2.97630     -26.08277
Nuclear contribution   :    -16.08610      -2.82223      26.65244
                        -----------------------------------------
Total Dipole Moment    :     -0.53193       0.15407       0.56966
                        -----------------------------------------
Magnitude (a.u.)       :      0.79448
Magnitude (Debye)      :      2.01942

Rotational constants in cm-1:     0.016753     0.009902     0.006649
Rotational constants in MHz :   502.251163   296.859803   199.328747

                             ****ORCA TERMINATED NORMALLY****
TOTAL RUN TIME: 0 days 0 hours 0 minutes 22 seconds 50 msec
