                         Program Version 4.2.1 -  RELEASE  -
|  1> ! wB97X-D3 SP def2-SVP
|  2> %pal
|  3> nprocs 24
|  4> end
|  5>
|  6> * xyz 0 1
|  7> S 	 -48.4757 	 15.9673 	 23.0711
|  8> C 	 -49.4343 	 15.1824 	 24.3022
|  9> C 	 -50.3118 	 14.3015 	 23.7385
| 10> C 	 -50.2135 	 14.2085 	 22.3121
| 11> C 	 -49.1848 	 14.9461 	 21.8115
| 12> H 	 -50.8299 	 13.6577 	 21.5426
| 13> C 	 -51.2383 	 13.5183 	 24.657
| 14> H 	 -52.2052 	 13.2877 	 24.1162
| 15> H 	 -51.5449 	 14.1789 	 25.4114
| 16> C 	 -50.7637 	 12.1992 	 25.2736
| 17> H 	 -49.8177 	 12.3691 	 25.7291
| 18> H 	 -51.4306 	 11.9271 	 26.0305
| 19> C 	 -50.4744 	 11.1345 	 24.1104
| 20> H 	 -50.4491 	 10.1015 	 24.5063
| 21> H 	 -51.1766 	 11.1473 	 23.2899
| 22> H 	 -49.4838 	 11.3776 	 23.6392
| 23> S 	 -47.9492 	 13.4453 	 19.8897
| 24> C 	 -47.7945 	 14.1234 	 18.3028
| 25> C 	 -48.4774 	 15.2868 	 18.1586
| 26> C 	 -48.9409 	 15.8515 	 19.4475
| 27> C 	 -48.6745 	 14.9612 	 20.4867
| 28> H 	 -48.6683 	 15.7155 	 17.2189
| 29> C 	 -49.6732 	 17.1934 	 19.6128
| 30> H 	 -50.2068 	 17.1934 	 20.5508
| 31> H 	 -50.4465 	 17.2163 	 18.8865
| 32> C 	 -48.7894 	 18.4667 	 19.5497
| 33> H 	 -48.0328 	 18.4393 	 18.6809
| 34> H 	 -48.2738 	 18.4616 	 20.4984
| 35> C 	 -49.7272 	 19.6643 	 19.3724
| 36> H 	 -49.1328 	 20.5621 	 19.0825
| 37> H 	 -50.3871 	 20.0999 	 20.1966
| 38> H 	 -50.4653 	 19.586 	 18.5505
| 39> H 	 -49.4089 	 15.4335 	 25.3479
| 40> H 	 -47.4861 	 13.4325 	 17.5232
| 41> *
| 42>
| 43>                          ****END OF INPUT****

CARTESIAN COORDINATES (ANGSTROEM)
---------------------------------
  S    -48.475700   15.967300   23.071100
  C    -49.434300   15.182400   24.302200
  C    -50.311800   14.301500   23.738500
  C    -50.213500   14.208500   22.312100
  C    -49.184800   14.946100   21.811500
  H    -50.829900   13.657700   21.542600
  C    -51.238300   13.518300   24.657000
  H    -52.205200   13.287700   24.116200
  H    -51.544900   14.178900   25.411400
  C    -50.763700   12.199200   25.273600
  H    -49.817700   12.369100   25.729100
  H    -51.430600   11.927100   26.030500
  C    -50.474400   11.134500   24.110400
  H    -50.449100   10.101500   24.506300
  H    -51.176600   11.147300   23.289900
  H    -49.483800   11.377600   23.639200
  S    -47.949200   13.445300   19.889700
  C    -47.794500   14.123400   18.302800
  C    -48.477400   15.286800   18.158600
  C    -48.940900   15.851500   19.447500
  C    -48.674500   14.961200   20.486700
  H    -48.668300   15.715500   17.218900
  C    -49.673200   17.193400   19.612800
  H    -50.206800   17.193400   20.550800
  H    -50.446500   17.216300   18.886500
  C    -48.789400   18.466700   19.549700
  H    -48.032800   18.439300   18.680900
  H    -48.273800   18.461600   20.498400
  C    -49.727200   19.664300   19.372400
  H    -49.132800   20.562100   19.082500
  H    -50.387100   20.099900   20.196600
  H    -50.465300   19.586000   18.550500
  H    -49.408900   15.433500   25.347900
  H    -47.486100   13.432500   17.523200

 Total Charge           Charge          ....    0
 Multiplicity           Mult            ....    1
 Number of Electrons    NEL             ....  134
 Basis Dimension        Dim             ....  322

ORBITAL ENERGIES
----------------

  NO   OCC          E(Eh)            E(eV)
   0   2.0000     -88.962008     -2420.7793
   1   2.0000     -88.961853     -2420.7751
   2   2.0000     -10.323553      -280.9182
   3   2.0000     -10.323260      -280.9102
   4   2.0000     -10.315755      -280.7060
   5   2.0000     -10.310929      -280.5746
   6   2.0000     -10.310219      -280.5553
   7   2.0000     -10.300346      -280.2867
   8   2.0000     -10.298249      -280.2296
   9   2.0000     -10.296357      -280.1781
  10   2.0000     -10.295427      -280.1528
  11   2.0000     -10.288682      -279.9693
  12   2.0000     -10.287567      -279.9389
  13   2.0000     -10.285707      -279.8883
  14   2.0000     -10.282714      -279.8069
  15   2.0000     -10.281341      -279.7695
  16   2.0000      -8.076885      -219.7832
  17   2.0000      -8.076671      -219.7774
  18   2.0000      -6.035391      -164.2313
  19   2.0000      -6.035200      -164.2261
  20   2.0000      -6.031522      -164.1261
  21   2.0000      -6.031187      -164.1170
  22   2.0000      -6.027451      -164.0153
  23   2.0000      -6.027437      -164.0149
  24   2.0000      -1.006524       -27.3889
  25   2.0000      -0.982212       -26.7274
  26   2.0000      -0.908354       -24.7176
  27   2.0000      -0.905385       -24.6368
  28   2.0000      -0.872391       -23.7390
  29   2.0000      -0.845461       -23.0062
  30   2.0000      -0.839189       -22.8355
  31   2.0000      -0.814982       -22.1768
  32   2.0000      -0.780932       -21.2502
  33   2.0000      -0.767458       -20.8836
  34   2.0000      -0.708356       -19.2753
  35   2.0000      -0.702732       -19.1223
  36   2.0000      -0.695330       -18.9209
  37   2.0000      -0.662988       -18.0408
  38   2.0000      -0.642813       -17.4918
  39   2.0000      -0.608973       -16.5710
  40   2.0000      -0.597863       -16.2687
  41   2.0000      -0.571390       -15.5483
  42   2.0000      -0.562461       -15.3053
  43   2.0000      -0.545374       -14.8404
  44   2.0000      -0.537725       -14.6322
  45   2.0000      -0.518545       -14.1103
  46   2.0000      -0.517077       -14.0704
  47   2.0000      -0.510326       -13.8867
  48   2.0000      -0.504462       -13.7271
  49   2.0000      -0.496182       -13.5018
  50   2.0000      -0.484586       -13.1863
  51   2.0000      -0.473131       -12.8746
  52   2.0000      -0.470934       -12.8148
  53   2.0000      -0.457670       -12.4538
  54   2.0000      -0.456904       -12.4330
  55   2.0000      -0.453453       -12.3391
  56   2.0000      -0.441433       -12.0120
  57   2.0000      -0.434729       -11.8296
  58   2.0000      -0.434255       -11.8167
  59   2.0000      -0.425952       -11.5908
  60   2.0000      -0.420561       -11.4440
  61   2.0000      -0.415183       -11.2977
  62   2.0000      -0.410944       -11.1824
  63   2.0000      -0.337816        -9.1924
  64   2.0000      -0.331060        -9.0086
  65   2.0000      -0.324570        -8.8320
  66   2.0000      -0.304478        -8.2853
  67   0.0000       0.040285         1.0962
  68   0.0000       0.058524         1.5925
  69   0.0000       0.100651         2.7389
  70   0.0000       0.119530         3.2526
  71   0.0000       0.129931         3.5356

MULLIKEN ATOMIC CHARGES
-----------------------
   0 S :    0.101749
   1 C :   -0.113480
   2 C :   -0.078698
   3 C :    0.029952
   4 C :   -0.205599
   5 H :    0.038924
   6 C :    0.034951
   7 H :    0.025989
   8 H :    0.008487
   9 C :   -0.002804
  10 H :    0.016840
  11 H :    0.024051
  12 C :   -0.091313
  13 H :    0.041320
  14 H :    0.025053
  15 H :    0.051409
  16 S :    0.096456
  17 C :   -0.083650
  18 C :   -0.003485
  19 C :   -0.032934
  20 C :   -0.160425
  21 H :    0.002998
  22 C :    0.074808
  23 H :    0.028269
  24 H :    0.010626
  25 C :   -0.050520
  26 H :    0.052146
  27 H :    0.037968
  28 C :   -0.095476
  29 H :    0.031817
  30 H :    0.045186
  31 H :    0.027564
  32 H :    0.045925
  33 H :    0.065895
Sum of atomic charges:   -0.0000000

LOEWDIN ATOMIC CHARGES
----------------------
   0 S :    0.390834
   1 C :   -0.190701
   2 C :   -0.066079
   3 C :   -0.067646
   4 C :   -0.192242
   5 H :    0.046497
   6 C :   -0.033685
   7 H :    0.032631
   8 H :    0.020574
   9 C :   -0.026617
  10 H :    0.020217
  11 H :    0.017183
  12 C :   -0.070054
  13 H :    0.027700
  14 H :    0.016720
  15 H :    0.035094
  16 S :    0.394673
  17 C :   -0.183948
  18 C :   -0.064059
  19 C :   -0.037893
  20 C :   -0.200439
  21 H :    0.023092
  22 C :   -0.029847
  23 H :    0.030526
  24 H :    0.022807
  25 C :   -0.036163
  26 H :    0.036667
  27 H :    0.027081
  28 C :   -0.087970
  29 H :    0.028361
  30 H :    0.034858
  31 H :    0.024591
  32 H :    0.027963
  33 H :    0.029273

  Mayer bond orders larger than 0.100000
B(  0-S ,  1-C ) :   1.1303 B(  0-S ,  4-C ) :   1.1352 B(  1-C ,  2-C ) :   1.6313
B(  1-C , 32-H ) :   0.9716 B(  2-C ,  3-C ) :   1.2019 B(  2-C ,  6-C ) :   1.0200
B(  3-C ,  4-C ) :   1.6189 B(  3-C ,  5-H ) :   0.9886 B(  4-C , 20-C ) :   1.0290
B(  6-C ,  7-H ) :   0.9434 B(  6-C ,  8-H ) :   0.9376 B(  6-C ,  9-C ) :   1.0794
B(  9-C , 10-H ) :   0.9550 B(  9-C , 11-H ) :   0.9593 B(  9-C , 12-C ) :   1.0550
B( 12-C , 13-H ) :   0.9779 B( 12-C , 14-H ) :   0.9821 B( 12-C , 15-H ) :   0.9758
B( 16-S , 17-C ) :   1.1489 B( 16-S , 20-C ) :   1.1278 B( 17-C , 18-C ) :   1.6305
B( 17-C , 33-H ) :   0.9646 B( 18-C , 19-C ) :   1.2070 B( 18-C , 21-H ) :   1.0004
B( 19-C , 20-C ) :   1.6183 B( 19-C , 22-C ) :   1.0435 B( 22-C , 23-H ) :   0.9301
B( 22-C , 24-H ) :   0.9385 B( 22-C , 25-C ) :   1.0508 B( 25-C , 26-H ) :   0.9615
B( 25-C , 27-H ) :   0.9515 B( 25-C , 28-C ) :   1.0645 B( 28-C , 29-H ) :   0.9746
B( 28-C , 30-H ) :   0.9751 B( 28-C , 31-H ) :   0.9761

Dispersion correction           -0.014661029
FINAL SINGLE POINT ENERGY     -1339.873371137669

DIPOLE MOMENT
-------------
                                X             Y             Z
Electronic contribution:     11.88342      -4.02327      -3.40091
Nuclear contribution   :    -12.41133       4.08941       3.28485
                        -----------------------------------------
Total Dipole Moment    :     -0.52791       0.06613      -0.11607
                        -----------------------------------------
Magnitude (a.u.)       :      0.54455
Magnitude (Debye)      :      1.38414

Rotational constants in cm-1:     0.020416     0.008408     0.006612
Rotational constants in MHz :   612.065079   252.075132   198.220840

                             ****ORCA TERMINATED NORMALLY****
TOTAL RUN TIME: 0 days 0 hours 0 minutes 20 seconds 185 msec
