                         Program Version 4.2.1 -  RELEASE  -
|  1> ! wB97X-D3 SP def2-SVP
|  2> %pal
|  3> nprocs 24
|  4> end
|  5>
|  6> * xyz 0 1
|  7> S 	 38.1405 	 -22.3163 	 -115.078
|  8> C 	 39.3822 	 -22.6463 	 -116.26
|  9> C 	 40.6669 	 -22.6146 	 -115.622
| 10> C 	 40.5979 	 -22.7171 	 -114.214
| 11> C 	 39.2828 	 -22.5418 	 -113.791
| 12> H 	 41.4638 	 -22.7443 	 -113.523
| 13> C 	 41.9188 	 -22.9057 	 -116.442
| 14> H 	 42.7992 	 -22.602 	 -115.833
| 15> H 	 41.9258 	 -22.1184 	 -117.243
| 16> C 	 42.1034 	 -24.3229 	 -117.037
| 17> H 	 41.2367 	 -24.3966 	 -117.733
| 18> H 	 42.9364 	 -24.4053 	 -117.687
| 19> C 	 42.1857 	 -25.4278 	 -115.965
| 20> H 	 41.3659 	 -25.4101 	 -115.284
| 21> H 	 42.1052 	 -26.4453 	 -116.393
| 22> H 	 43.1286 	 -25.501 	 -115.501
| 23> S 	 37.9392 	 -23.7838 	 -111.844
| 24> C 	 37.6361 	 -22.9853 	 -110.334
| 25> C 	 38.1872 	 -21.7167 	 -110.265
| 26> C 	 38.9778 	 -21.4383 	 -111.434
| 27> C 	 38.7617 	 -22.3785 	 -112.471
| 28> H 	 38.1256 	 -21.0706 	 -109.43
| 29> C 	 39.8283 	 -20.1752 	 -111.534
| 30> H 	 39.3026 	 -19.36 	 -110.982
| 31> H 	 39.8819 	 -19.9035 	 -112.663
| 32> C 	 41.18 	 -20.0599 	 -110.859
| 33> H 	 40.9969 	 -20.0593 	 -109.791
| 34> H 	 41.6904 	 -19.1246 	 -111.082
| 35> C 	 42.1801 	 -21.1832 	 -111.199
| 36> H 	 42.2334 	 -21.0889 	 -112.315
| 37> H 	 41.9589 	 -22.1903 	 -110.74
| 38> H 	 43.1692 	 -20.8554 	 -110.763
| 39> H 	 39.1915 	 -22.767 	 -117.333
| 40> H 	 37.2994 	 -23.39 	 -109.42
| 41> *
| 42>
| 43>                          ****END OF INPUT****

CARTESIAN COORDINATES (ANGSTROEM)
---------------------------------
  S     38.140500  -22.316300  -115.078000
  C     39.382200  -22.646300  -116.260000
  C     40.666900  -22.614600  -115.622000
  C     40.597900  -22.717100  -114.214000
  C     39.282800  -22.541800  -113.791000
  H     41.463800  -22.744300  -113.523000
  C     41.918800  -22.905700  -116.442000
  H     42.799200  -22.602000  -115.833000
  H     41.925800  -22.118400  -117.243000
  C     42.103400  -24.322900  -117.037000
  H     41.236700  -24.396600  -117.733000
  H     42.936400  -24.405300  -117.687000
  C     42.185700  -25.427800  -115.965000
  H     41.365900  -25.410100  -115.284000
  H     42.105200  -26.445300  -116.393000
  H     43.128600  -25.501000  -115.501000
  S     37.939200  -23.783800  -111.844000
  C     37.636100  -22.985300  -110.334000
  C     38.187200  -21.716700  -110.265000
  C     38.977800  -21.438300  -111.434000
  C     38.761700  -22.378500  -112.471000
  H     38.125600  -21.070600  -109.430000
  C     39.828300  -20.175200  -111.534000
  H     39.302600  -19.360000  -110.982000
  H     39.881900  -19.903500  -112.663000
  C     41.180000  -20.059900  -110.859000
  H     40.996900  -20.059300  -109.791000
  H     41.690400  -19.124600  -111.082000
  C     42.180100  -21.183200  -111.199000
  H     42.233400  -21.088900  -112.315000
  H     41.958900  -22.190300  -110.740000
  H     43.169200  -20.855400  -110.763000
  H     39.191500  -22.767000  -117.333000
  H     37.299400  -23.390000  -109.420000

 Total Charge           Charge          ....    0
 Multiplicity           Mult            ....    1
 Number of Electrons    NEL             ....  134
 Basis Dimension        Dim             ....  322

ORBITAL ENERGIES
----------------

  NO   OCC          E(Eh)            E(eV)
   0   2.0000     -88.968190     -2420.9475
   1   2.0000     -88.966671     -2420.9062
   2   2.0000     -10.324451      -280.9426
   3   2.0000     -10.321945      -280.8744
   4   2.0000     -10.317606      -280.7563
   5   2.0000     -10.312626      -280.6208
   6   2.0000     -10.308303      -280.5032
   7   2.0000     -10.303712      -280.3783
   8   2.0000     -10.298150      -280.2269
   9   2.0000     -10.297132      -280.1992
  10   2.0000     -10.293862      -280.1102
  11   2.0000     -10.291496      -280.0458
  12   2.0000     -10.288275      -279.9582
  13   2.0000     -10.286687      -279.9150
  14   2.0000     -10.285697      -279.8880
  15   2.0000     -10.270174      -279.4656
  16   2.0000      -8.083043      -219.9508
  17   2.0000      -8.081545      -219.9100
  18   2.0000      -6.041355      -164.3936
  19   2.0000      -6.040011      -164.3571
  20   2.0000      -6.037420      -164.2866
  21   2.0000      -6.035965      -164.2469
  22   2.0000      -6.034111      -164.1965
  23   2.0000      -6.032404      -164.1500
  24   2.0000      -1.007668       -27.4200
  25   2.0000      -0.981706       -26.7136
  26   2.0000      -0.908323       -24.7167
  27   2.0000      -0.905530       -24.6407
  28   2.0000      -0.867354       -23.6019
  29   2.0000      -0.848754       -23.0958
  30   2.0000      -0.846653       -23.0386
  31   2.0000      -0.811830       -22.0910
  32   2.0000      -0.781697       -21.2711
  33   2.0000      -0.766871       -20.8676
  34   2.0000      -0.707663       -19.2565
  35   2.0000      -0.701167       -19.0797
  36   2.0000      -0.685132       -18.6434
  37   2.0000      -0.660250       -17.9663
  38   2.0000      -0.638783       -17.3822
  39   2.0000      -0.611111       -16.6292
  40   2.0000      -0.585700       -15.9377
  41   2.0000      -0.569616       -15.5000
  42   2.0000      -0.559361       -15.2210
  43   2.0000      -0.550416       -14.9776
  44   2.0000      -0.542983       -14.7753
  45   2.0000      -0.536740       -14.6054
  46   2.0000      -0.516232       -14.0474
  47   2.0000      -0.507615       -13.8129
  48   2.0000      -0.499000       -13.5785
  49   2.0000      -0.496422       -13.5083
  50   2.0000      -0.490052       -13.3350
  51   2.0000      -0.474634       -12.9155
  52   2.0000      -0.466784       -12.7018
  53   2.0000      -0.465436       -12.6652
  54   2.0000      -0.456640       -12.4258
  55   2.0000      -0.448465       -12.2034
  56   2.0000      -0.444267       -12.0891
  57   2.0000      -0.431332       -11.7372
  58   2.0000      -0.428281       -11.6541
  59   2.0000      -0.425349       -11.5743
  60   2.0000      -0.418799       -11.3961
  61   2.0000      -0.409026       -11.1302
  62   2.0000      -0.408219       -11.1082
  63   2.0000      -0.340676        -9.2703
  64   2.0000      -0.329675        -8.9709
  65   2.0000      -0.318509        -8.6671
  66   2.0000      -0.297702        -8.1009
  67   0.0000       0.033632         0.9152
  68   0.0000       0.054889         1.4936
  69   0.0000       0.108949         2.9647
  70   0.0000       0.114728         3.1219
  71   0.0000       0.124024         3.3749

MULLIKEN ATOMIC CHARGES
-----------------------
   0 S :    0.136107
   1 C :   -0.135177
   2 C :   -0.109602
   3 C :    0.058352
   4 C :   -0.188592
   5 H :    0.028907
   6 C :    0.013290
   7 H :    0.017860
   8 H :    0.033203
   9 C :   -0.024735
  10 H :    0.020783
  11 H :    0.020669
  12 C :   -0.034075
  13 H :    0.038834
  14 H :    0.020904
  15 H :    0.022633
  16 S :    0.125639
  17 C :   -0.056694
  18 C :   -0.033164
  19 C :   -0.005523
  20 C :   -0.184242
  21 H :    0.006771
  22 C :    0.010222
  23 H :    0.028977
  24 H :    0.050710
  25 C :   -0.061497
  26 H :    0.017177
  27 H :    0.034184
  28 C :   -0.096834
  29 H :    0.041936
  30 H :    0.062392
  31 H :    0.035537
  32 H :    0.064473
  33 H :    0.040577
Sum of atomic charges:   -0.0000000

LOEWDIN ATOMIC CHARGES
----------------------
   0 S :    0.433007
   1 C :   -0.205877
   2 C :   -0.065194
   3 C :   -0.061038
   4 C :   -0.210964
   5 H :    0.041307
   6 C :   -0.044037
   7 H :    0.025811
   8 H :    0.034214
   9 C :   -0.034863
  10 H :    0.025233
  11 H :    0.020001
  12 C :   -0.063919
  13 H :    0.024560
  14 H :    0.031071
  15 H :    0.020529
  16 S :    0.428140
  17 C :   -0.186222
  18 C :   -0.066035
  19 C :   -0.047691
  20 C :   -0.220456
  21 H :    0.025046
  22 C :   -0.046451
  23 H :    0.036978
  24 H :    0.040344
  25 C :   -0.045412
  26 H :    0.017814
  27 H :    0.029169
  28 C :   -0.080068
  29 H :    0.028617
  30 H :    0.033827
  31 H :    0.029455
  32 H :    0.029979
  33 H :    0.023119

  Mayer bond orders larger than 0.100000
B(  0-S ,  1-C ) :   1.1621 B(  0-S ,  4-C ) :   1.1868 B(  1-C ,  2-C ) :   1.5400
B(  1-C ,  4-C ) :   0.1140 B(  1-C , 32-H ) :   0.9722 B(  2-C ,  3-C ) :   1.2659
B(  2-C ,  6-C ) :   1.0369 B(  3-C ,  4-C ) :   1.5378 B(  3-C ,  5-H ) :   0.9880
B(  4-C , 20-C ) :   1.0121 B(  6-C ,  7-H ) :   0.9435 B(  6-C ,  8-H ) :   0.9387
B(  6-C ,  9-C ) :   1.0624 B(  9-C , 10-H ) :   0.9552 B(  9-C , 11-H ) :   0.9541
B(  9-C , 12-C ) :   1.0749 B( 12-C , 13-H ) :   0.9768 B( 12-C , 14-H ) :   0.9700
B( 12-C , 15-H ) :   0.9751 B( 16-S , 17-C ) :   1.1661 B( 16-S , 20-C ) :   1.1545
B( 17-C , 18-C ) :   1.5925 B( 17-C , 20-C ) :   0.1041 B( 17-C , 33-H ) :   0.9673
B( 18-C , 19-C ) :   1.2555 B( 18-C , 21-H ) :   0.9920 B( 19-C , 20-C ) :   1.5667
B( 19-C , 22-C ) :   1.0461 B( 22-C , 23-H ) :   0.9365 B( 22-C , 24-H ) :   0.9365
B( 22-C , 25-C ) :   1.0748 B( 25-C , 26-H ) :   0.9522 B( 25-C , 27-H ) :   0.9547
B( 25-C , 28-C ) :   1.0772 B( 28-C , 29-H ) :   0.9671 B( 28-C , 30-H ) :   0.9707
B( 28-C , 31-H ) :   0.9711

Dispersion correction           -0.015492438
FINAL SINGLE POINT ENERGY     -1339.862753332859

DIPOLE MOMENT
-------------
                                X             Y             Z
Electronic contribution:    -23.79341      -2.05521       2.23434
Nuclear contribution   :     24.34315       2.24349      -2.06327
                        -----------------------------------------
Total Dipole Moment    :      0.54974       0.18828       0.17108
                        -----------------------------------------
Magnitude (a.u.)       :      0.60575
Magnitude (Debye)      :      1.53968

Rotational constants in cm-1:     0.019761     0.008960     0.007676
Rotational constants in MHz :   592.414940   268.599916   230.117742

                             ****ORCA TERMINATED NORMALLY****
TOTAL RUN TIME: 0 days 0 hours 0 minutes 21 seconds 208 msec
