                         Program Version 4.2.1 -  RELEASE  -
|  1> ! wB97X-D3 SP def2-SVP
|  2> %pal
|  3> nprocs 24
|  4> end
|  5>
|  6> * xyz 0 1
|  7> S 	 -57.07 	 -1.74255 	 -29.0501
|  8> C 	 -57.1755 	 -2.77336 	 -27.6608
|  9> C 	 -57.2038 	 -2.02853 	 -26.5101
| 10> C 	 -57.3407 	 -0.654959 	 -26.7625
| 11> C 	 -57.2365 	 -0.285759 	 -28.1303
| 12> H 	 -57.4868 	 0.0204758 	 -25.9183
| 13> C 	 -57.0653 	 -2.52375 	 -25.0169
| 14> H 	 -58.0997 	 -2.50315 	 -24.6685
| 15> H 	 -56.581 	 -1.78734 	 -24.4242
| 16> C 	 -56.6092 	 -3.9615 	 -24.85
| 17> H 	 -57.3007 	 -4.64069 	 -25.3333
| 18> H 	 -55.6369 	 -4.12105 	 -25.3484
| 19> C 	 -56.5681 	 -4.48803 	 -23.4224
| 20> H 	 -56.4728 	 -5.54034 	 -23.2455
| 21> H 	 -55.7635 	 -3.8955 	 -22.8811
| 22> H 	 -57.4805 	 -4.12782 	 -22.8052
| 23> S 	 -55.4604 	 1.29226 	 -29.5694
| 24> C 	 -55.8286 	 3.07496 	 -29.6605
| 25> C 	 -56.9273 	 3.37793 	 -28.9031
| 26> C 	 -57.6803 	 2.23606 	 -28.4138
| 27> C 	 -57.012 	 1.06184 	 -28.6824
| 28> H 	 -57.3598 	 4.35468 	 -28.7797
| 29> C 	 -59.052 	 2.42102 	 -27.6808
| 30> H 	 -59.1558 	 3.28137 	 -27.0799
| 31> H 	 -59.321 	 1.5235 	 -27.0901
| 32> C 	 -60.2917 	 2.4453 	 -28.5787
| 33> H 	 -61.2376 	 2.32182 	 -28.0144
| 34> H 	 -60.124 	 1.54394 	 -29.1791
| 35> C 	 -60.205 	 3.52046 	 -29.6661
| 36> H 	 -60.583 	 4.36485 	 -29.1781
| 37> H 	 -60.8709 	 3.3327 	 -30.5131
| 38> H 	 -59.2726 	 3.6416 	 -30.1583
| 39> H 	 -57.026 	 -3.81483 	 -27.5451
| 40> H 	 -55.2983 	 3.78159 	 -30.269
| 41> *
| 42>
| 43>                          ****END OF INPUT****

CARTESIAN COORDINATES (ANGSTROEM)
---------------------------------
  S    -57.070000   -1.742550  -29.050100
  C    -57.175500   -2.773360  -27.660800
  C    -57.203800   -2.028530  -26.510100
  C    -57.340700   -0.654959  -26.762500
  C    -57.236500   -0.285759  -28.130300
  H    -57.486800    0.020476  -25.918300
  C    -57.065300   -2.523750  -25.016900
  H    -58.099700   -2.503150  -24.668500
  H    -56.581000   -1.787340  -24.424200
  C    -56.609200   -3.961500  -24.850000
  H    -57.300700   -4.640690  -25.333300
  H    -55.636900   -4.121050  -25.348400
  C    -56.568100   -4.488030  -23.422400
  H    -56.472800   -5.540340  -23.245500
  H    -55.763500   -3.895500  -22.881100
  H    -57.480500   -4.127820  -22.805200
  S    -55.460400    1.292260  -29.569400
  C    -55.828600    3.074960  -29.660500
  C    -56.927300    3.377930  -28.903100
  C    -57.680300    2.236060  -28.413800
  C    -57.012000    1.061840  -28.682400
  H    -57.359800    4.354680  -28.779700
  C    -59.052000    2.421020  -27.680800
  H    -59.155800    3.281370  -27.079900
  H    -59.321000    1.523500  -27.090100
  C    -60.291700    2.445300  -28.578700
  H    -61.237600    2.321820  -28.014400
  H    -60.124000    1.543940  -29.179100
  C    -60.205000    3.520460  -29.666100
  H    -60.583000    4.364850  -29.178100
  H    -60.870900    3.332700  -30.513100
  H    -59.272600    3.641600  -30.158300
  H    -57.026000   -3.814830  -27.545100
  H    -55.298300    3.781590  -30.269000

 Total Charge           Charge          ....    0
 Multiplicity           Mult            ....    1
 Number of Electrons    NEL             ....  134
 Basis Dimension        Dim             ....  322

ORBITAL ENERGIES
----------------

  NO   OCC          E(Eh)            E(eV)
   0   2.0000     -88.969949     -2420.9954
   1   2.0000     -88.967465     -2420.9278
   2   2.0000     -10.335688      -281.2484
   3   2.0000     -10.333343      -281.1845
   4   2.0000     -10.324230      -280.9366
   5   2.0000     -10.310191      -280.5546
   6   2.0000     -10.308471      -280.5078
   7   2.0000     -10.299019      -280.2505
   8   2.0000     -10.297778      -280.2168
   9   2.0000     -10.297697      -280.2146
  10   2.0000     -10.294681      -280.1325
  11   2.0000     -10.293187      -280.0919
  12   2.0000     -10.291311      -280.0408
  13   2.0000     -10.289931      -280.0033
  14   2.0000     -10.282978      -279.8141
  15   2.0000     -10.264405      -279.3087
  16   2.0000      -8.084681      -219.9953
  17   2.0000      -8.080496      -219.8815
  18   2.0000      -6.043212      -164.4442
  19   2.0000      -6.039296      -164.3376
  20   2.0000      -6.039038      -164.3306
  21   2.0000      -6.035561      -164.2360
  22   2.0000      -6.035466      -164.2334
  23   2.0000      -6.030796      -164.1063
  24   2.0000      -1.005060       -27.3491
  25   2.0000      -0.979071       -26.6419
  26   2.0000      -0.913604       -24.8604
  27   2.0000      -0.908226       -24.7141
  28   2.0000      -0.868647       -23.6371
  29   2.0000      -0.850869       -23.1533
  30   2.0000      -0.840366       -22.8675
  31   2.0000      -0.810863       -22.0647
  32   2.0000      -0.787129       -21.4189
  33   2.0000      -0.778878       -21.1944
  34   2.0000      -0.714456       -19.4413
  35   2.0000      -0.698669       -19.0117
  36   2.0000      -0.682500       -18.5718
  37   2.0000      -0.665869       -18.1192
  38   2.0000      -0.633779       -17.2460
  39   2.0000      -0.615152       -16.7391
  40   2.0000      -0.599081       -16.3018
  41   2.0000      -0.574152       -15.6235
  42   2.0000      -0.566507       -15.4154
  43   2.0000      -0.562410       -15.3039
  44   2.0000      -0.541544       -14.7362
  45   2.0000      -0.528691       -14.3864
  46   2.0000      -0.512617       -13.9490
  47   2.0000      -0.512218       -13.9382
  48   2.0000      -0.509369       -13.8606
  49   2.0000      -0.499073       -13.5805
  50   2.0000      -0.486540       -13.2394
  51   2.0000      -0.480024       -13.0621
  52   2.0000      -0.477109       -12.9828
  53   2.0000      -0.470455       -12.8017
  54   2.0000      -0.455279       -12.3888
  55   2.0000      -0.448539       -12.2054
  56   2.0000      -0.442420       -12.0389
  57   2.0000      -0.438997       -11.9457
  58   2.0000      -0.428258       -11.6535
  59   2.0000      -0.423439       -11.5224
  60   2.0000      -0.417786       -11.3685
  61   2.0000      -0.413806       -11.2602
  62   2.0000      -0.398483       -10.8433
  63   2.0000      -0.345949        -9.4137
  64   2.0000      -0.332523        -9.0484
  65   2.0000      -0.330600        -8.9961
  66   2.0000      -0.294256        -8.0071
  67   0.0000       0.025142         0.6842
  68   0.0000       0.069517         1.8917
  69   0.0000       0.099423         2.7054
  70   0.0000       0.124894         3.3985
  71   0.0000       0.128607         3.4996

MULLIKEN ATOMIC CHARGES
-----------------------
   0 S :    0.121579
   1 C :   -0.092409
   2 C :   -0.127250
   3 C :    0.036212
   4 C :   -0.163993
   5 H :    0.012383
   6 C :    0.085309
   7 H :    0.033653
   8 H :    0.025656
   9 C :   -0.093337
  10 H :    0.030609
  11 H :    0.042288
  12 C :   -0.073365
  13 H :    0.047159
  14 H :    0.031499
  15 H :    0.029282
  16 S :    0.090001
  17 C :   -0.086633
  18 C :   -0.003660
  19 C :   -0.062244
  20 C :   -0.133646
  21 H :    0.019793
  22 C :    0.087130
  23 H :    0.015547
  24 H :    0.032128
  25 C :   -0.101643
  26 H :    0.046787
  27 H :    0.021753
  28 C :   -0.033433
  29 H :    0.012563
  30 H :    0.025423
  31 H :    0.038206
  32 H :    0.029298
  33 H :    0.057354
Sum of atomic charges:    0.0000000

LOEWDIN ATOMIC CHARGES
----------------------
   0 S :    0.432098
   1 C :   -0.209135
   2 C :   -0.062578
   3 C :   -0.060672
   4 C :   -0.210140
   5 H :    0.030180
   6 C :   -0.022913
   7 H :    0.037914
   8 H :    0.025681
   9 C :   -0.051320
  10 H :    0.023863
  11 H :    0.027017
  12 C :   -0.073593
  13 H :    0.024311
  14 H :    0.029249
  15 H :    0.031782
  16 S :    0.352765
  17 C :   -0.158897
  18 C :   -0.061029
  19 C :   -0.053153
  20 C :   -0.174063
  21 H :    0.028862
  22 C :   -0.027547
  23 H :    0.019008
  24 H :    0.037653
  25 C :   -0.043147
  26 H :    0.030377
  27 H :    0.024098
  28 C :   -0.066290
  29 H :    0.014547
  30 H :    0.027928
  31 H :    0.025036
  32 H :    0.023660
  33 H :    0.028447

  Mayer bond orders larger than 0.100000
B(  0-S ,  1-C ) :   1.1409 B(  0-S ,  4-C ) :   1.1710 B(  1-C ,  2-C ) :   1.6119
B(  1-C ,  4-C ) :   0.1006 B(  1-C , 32-H ) :   0.9596 B(  2-C ,  3-C ) :   1.3137
B(  2-C ,  6-C ) :   0.9885 B(  3-C ,  4-C ) :   1.5039 B(  3-C ,  5-H ) :   0.9911
B(  4-C , 20-C ) :   1.0343 B(  6-C ,  7-H ) :   0.9295 B(  6-C ,  8-H ) :   0.9525
B(  6-C ,  9-C ) :   1.0700 B(  9-C , 10-H ) :   0.9454 B(  9-C , 11-H ) :   0.9576
B(  9-C , 12-C ) :   1.0821 B( 12-C , 13-H ) :   0.9762 B( 12-C , 14-H ) :   0.9734
B( 12-C , 15-H ) :   0.9717 B( 16-S , 17-C ) :   1.1099 B( 16-S , 20-C ) :   1.1192
B( 17-C , 18-C ) :   1.6466 B( 17-C , 33-H ) :   0.9713 B( 18-C , 19-C ) :   1.2085
B( 18-C , 21-H ) :   0.9799 B( 19-C , 20-C ) :   1.6580 B( 19-C , 22-C ) :   1.0352
B( 22-C , 23-H ) :   0.9442 B( 22-C , 24-H ) :   0.9356 B( 22-C , 25-C ) :   1.0610
B( 25-C , 26-H ) :   0.9617 B( 25-C , 27-H ) :   0.9572 B( 25-C , 28-C ) :   1.0703
B( 28-C , 29-H ) :   0.9784 B( 28-C , 30-H ) :   0.9729 B( 28-C , 31-H ) :   0.9683

Dispersion correction           -0.013877625
FINAL SINGLE POINT ENERGY     -1339.851736909853

DIPOLE MOMENT
-------------
                                X             Y             Z
Electronic contribution:     12.91858       2.24635     -17.39486
Nuclear contribution   :    -13.19310      -2.13518      17.98660
                        -----------------------------------------
Total Dipole Moment    :     -0.27452       0.11116       0.59174
                        -----------------------------------------
Magnitude (a.u.)       :      0.66172
Magnitude (Debye)      :      1.68196

Rotational constants in cm-1:     0.023502     0.006799     0.006105
Rotational constants in MHz :   704.568174   203.820710   183.016026

                             ****ORCA TERMINATED NORMALLY****
TOTAL RUN TIME: 0 days 0 hours 0 minutes 21 seconds 81 msec
