                         Program Version 4.2.1 -  RELEASE  -
|  1> ! wB97X-D3 SP def2-SVP
|  2> %pal
|  3> nprocs 24
|  4> end
|  5>
|  6> * xyz 0 1
|  7> S 	 -41.6776 	 -8.46392 	 8.76406
|  8> C 	 -40.953 	 -9.48672 	 7.51827
|  9> C 	 -39.8301 	 -8.91002 	 6.82155
| 10> C 	 -39.5354 	 -7.61055 	 7.3951
| 11> C 	 -40.3969 	 -7.29868 	 8.42704
| 12> H 	 -38.7353 	 -6.90611 	 7.12584
| 13> C 	 -39.0347 	 -9.44379 	 5.60149
| 14> H 	 -39.3504 	 -10.486 	 5.5035
| 15> H 	 -37.9538 	 -9.38162 	 5.77828
| 16> C 	 -39.3896 	 -8.80236 	 4.25351
| 17> H 	 -38.8903 	 -9.36004 	 3.40407
| 18> H 	 -40.5001 	 -8.77247 	 4.12607
| 19> C 	 -38.8675 	 -7.41252 	 4.05908
| 20> H 	 -37.7865 	 -7.27893 	 4.24923
| 21> H 	 -38.9731 	 -7.08267 	 3.14414
| 22> H 	 -39.297 	 -6.73779 	 4.79442
| 23> S 	 -40.1482 	 -5.89364 	 10.6842
| 24> C 	 -40.4792 	 -4.13311 	 10.6955
| 25> C 	 -40.6935 	 -3.70854 	 9.38204
| 26> C 	 -40.5986 	 -4.71534 	 8.41793
| 27> C 	 -40.4133 	 -5.98745 	 9.00787
| 28> H 	 -40.9586 	 -2.6418 	 9.32142
| 29> C 	 -41.0332 	 -4.55154 	 6.97075
| 30> H 	 -42.0437 	 -4.95559 	 6.99491
| 31> H 	 -40.3437 	 -5.10732 	 6.36216
| 32> C 	 -41.1211 	 -3.14115 	 6.41037
| 33> H 	 -40.2781 	 -2.49486 	 6.56894
| 34> H 	 -41.8464 	 -2.47298 	 6.88621
| 35> C 	 -41.6677 	 -3.05672 	 4.93853
| 36> H 	 -40.9036 	 -3.43279 	 4.28122
| 37> H 	 -41.938 	 -2.04725 	 4.53524
| 38> H 	 -42.5919 	 -3.64629 	 4.75191
| 39> H 	 -41.2942 	 -10.3952 	 7.05202
| 40> H 	 -40.4642 	 -3.58611 	 11.6712
| 41> *
| 42>
| 43>                          ****END OF INPUT****

CARTESIAN COORDINATES (ANGSTROEM)
---------------------------------
  S    -41.677600   -8.463920    8.764060
  C    -40.953000   -9.486720    7.518270
  C    -39.830100   -8.910020    6.821550
  C    -39.535400   -7.610550    7.395100
  C    -40.396900   -7.298680    8.427040
  H    -38.735300   -6.906110    7.125840
  C    -39.034700   -9.443790    5.601490
  H    -39.350400  -10.486000    5.503500
  H    -37.953800   -9.381620    5.778280
  C    -39.389600   -8.802360    4.253510
  H    -38.890300   -9.360040    3.404070
  H    -40.500100   -8.772470    4.126070
  C    -38.867500   -7.412520    4.059080
  H    -37.786500   -7.278930    4.249230
  H    -38.973100   -7.082670    3.144140
  H    -39.297000   -6.737790    4.794420
  S    -40.148200   -5.893640   10.684200
  C    -40.479200   -4.133110   10.695500
  C    -40.693500   -3.708540    9.382040
  C    -40.598600   -4.715340    8.417930
  C    -40.413300   -5.987450    9.007870
  H    -40.958600   -2.641800    9.321420
  C    -41.033200   -4.551540    6.970750
  H    -42.043700   -4.955590    6.994910
  H    -40.343700   -5.107320    6.362160
  C    -41.121100   -3.141150    6.410370
  H    -40.278100   -2.494860    6.568940
  H    -41.846400   -2.472980    6.886210
  C    -41.667700   -3.056720    4.938530
  H    -40.903600   -3.432790    4.281220
  H    -41.938000   -2.047250    4.535240
  H    -42.591900   -3.646290    4.751910
  H    -41.294200  -10.395200    7.052020
  H    -40.464200   -3.586110   11.671200

 Total Charge           Charge          ....    0
 Multiplicity           Mult            ....    1
 Number of Electrons    NEL             ....  134
 Basis Dimension        Dim             ....  322

ORBITAL ENERGIES
----------------

  NO   OCC          E(Eh)            E(eV)
   0   2.0000     -88.978363     -2421.2244
   1   2.0000     -88.961530     -2420.7663
   2   2.0000     -10.325121      -280.9608
   3   2.0000     -10.321129      -280.8522
   4   2.0000     -10.321017      -280.8491
   5   2.0000     -10.318238      -280.7735
   6   2.0000     -10.311908      -280.6013
   7   2.0000     -10.302725      -280.3514
   8   2.0000     -10.299760      -280.2707
   9   2.0000     -10.296891      -280.1927
  10   2.0000     -10.296274      -280.1759
  11   2.0000     -10.293692      -280.1056
  12   2.0000     -10.291691      -280.0511
  13   2.0000     -10.286815      -279.9185
  14   2.0000     -10.283246      -279.8213
  15   2.0000     -10.264814      -279.3198
  16   2.0000      -8.091820      -220.1896
  17   2.0000      -8.076758      -219.7798
  18   2.0000      -6.050337      -164.6380
  19   2.0000      -6.046709      -164.5393
  20   2.0000      -6.042430      -164.4229
  21   2.0000      -6.034956      -164.2195
  22   2.0000      -6.031082      -164.1141
  23   2.0000      -6.027945      -164.0287
  24   2.0000      -1.006358       -27.3844
  25   2.0000      -0.977108       -26.5885
  26   2.0000      -0.914175       -24.8760
  27   2.0000      -0.906629       -24.6706
  28   2.0000      -0.869007       -23.6469
  29   2.0000      -0.852767       -23.2050
  30   2.0000      -0.846621       -23.0377
  31   2.0000      -0.813600       -22.1392
  32   2.0000      -0.786474       -21.4011
  33   2.0000      -0.767745       -20.8914
  34   2.0000      -0.708499       -19.2792
  35   2.0000      -0.698676       -19.0119
  36   2.0000      -0.695889       -18.9361
  37   2.0000      -0.651870       -17.7383
  38   2.0000      -0.636191       -17.3116
  39   2.0000      -0.615834       -16.7577
  40   2.0000      -0.594450       -16.1758
  41   2.0000      -0.572639       -15.5823
  42   2.0000      -0.568807       -15.4780
  43   2.0000      -0.556477       -15.1425
  44   2.0000      -0.546521       -14.8716
  45   2.0000      -0.526991       -14.3402
  46   2.0000      -0.513759       -13.9801
  47   2.0000      -0.506972       -13.7954
  48   2.0000      -0.503548       -13.7022
  49   2.0000      -0.491813       -13.3829
  50   2.0000      -0.485022       -13.1981
  51   2.0000      -0.482589       -13.1319
  52   2.0000      -0.471286       -12.8243
  53   2.0000      -0.460775       -12.5383
  54   2.0000      -0.457382       -12.4460
  55   2.0000      -0.454206       -12.3596
  56   2.0000      -0.443776       -12.0758
  57   2.0000      -0.438497       -11.9321
  58   2.0000      -0.434046       -11.8110
  59   2.0000      -0.430512       -11.7148
  60   2.0000      -0.423951       -11.5363
  61   2.0000      -0.411551       -11.1989
  62   2.0000      -0.404486       -11.0066
  63   2.0000      -0.343356        -9.3432
  64   2.0000      -0.334795        -9.1102
  65   2.0000      -0.325048        -8.8450
  66   2.0000      -0.289605        -7.8806
  67   0.0000       0.030220         0.8223
  68   0.0000       0.060330         1.6417
  69   0.0000       0.106098         2.8871
  70   0.0000       0.117956         3.2097
  71   0.0000       0.128806         3.5050

MULLIKEN ATOMIC CHARGES
-----------------------
   0 S :    0.144250
   1 C :   -0.084941
   2 C :   -0.134759
   3 C :    0.014246
   4 C :   -0.146961
   5 H :    0.033422
   6 C :    0.078842
   7 H :    0.021031
   8 H :    0.041572
   9 C :   -0.093530
  10 H :    0.041047
  11 H :    0.041092
  12 C :    0.004062
  13 H :    0.012559
  14 H :   -0.002144
  15 H :    0.017557
  16 S :    0.104592
  17 C :   -0.135175
  18 C :   -0.062610
  19 C :   -0.015752
  20 C :   -0.198913
  21 H :    0.034095
  22 C :    0.126650
  23 H :    0.048097
  24 H :    0.025138
  25 C :   -0.089428
  26 H :    0.020198
  27 H :    0.017895
  28 C :   -0.071714
  29 H :    0.026580
  30 H :    0.036322
  31 H :    0.035315
  32 H :    0.033170
  33 H :    0.078196
Sum of atomic charges:   -0.0000000

LOEWDIN ATOMIC CHARGES
----------------------
   0 S :    0.409971
   1 C :   -0.203076
   2 C :   -0.052619
   3 C :   -0.058693
   4 C :   -0.199601
   5 H :    0.038269
   6 C :   -0.031623
   7 H :    0.031784
   8 H :    0.034684
   9 C :   -0.041414
  10 H :    0.032720
  11 H :    0.031994
  12 C :   -0.060049
  13 H :    0.026962
  14 H :    0.003389
  15 H :    0.021584
  16 S :    0.415579
  17 C :   -0.188991
  18 C :   -0.077405
  19 C :   -0.062317
  20 C :   -0.221442
  21 H :    0.039676
  22 C :   -0.024079
  23 H :    0.044662
  24 H :    0.027784
  25 C :   -0.050820
  26 H :    0.021535
  27 H :    0.023944
  28 C :   -0.070031
  29 H :    0.017576
  30 H :    0.030311
  31 H :    0.028414
  32 H :    0.024259
  33 H :    0.037063

  Mayer bond orders larger than 0.100000
B(  0-S ,  1-C ) :   1.1297 B(  0-S ,  4-C ) :   1.1356 B(  1-C ,  2-C ) :   1.6370
B(  1-C , 32-H ) :   0.9577 B(  2-C ,  3-C ) :   1.2124 B(  2-C ,  6-C ) :   1.0259
B(  3-C ,  4-C ) :   1.5982 B(  3-C ,  5-H ) :   0.9846 B(  4-C , 20-C ) :   1.0364
B(  6-C ,  7-H ) :   0.9315 B(  6-C ,  8-H ) :   0.9450 B(  6-C ,  9-C ) :   1.0715
B(  9-C , 10-H ) :   0.9542 B(  9-C , 11-H ) :   0.9495 B(  9-C , 12-C ) :   1.0907
B( 12-C , 13-H ) :   0.9645 B( 12-C , 14-H ) :   0.9654 B( 12-C , 15-H ) :   0.9682
B( 16-S , 17-C ) :   1.1601 B( 16-S , 20-C ) :   1.1895 B( 17-C , 18-C ) :   1.5646
B( 17-C , 20-C ) :   0.1187 B( 17-C , 33-H ) :   0.9655 B( 18-C , 19-C ) :   1.2674
B( 18-C , 21-H ) :   0.9898 B( 19-C , 20-C ) :   1.5358 B( 19-C , 22-C ) :   1.0332
B( 22-C , 23-H ) :   0.9278 B( 22-C , 24-H ) :   0.9256 B( 22-C , 25-C ) :   1.0785
B( 25-C , 26-H ) :   0.9560 B( 25-C , 27-H ) :   0.9456 B( 25-C , 28-C ) :   1.0702
B( 28-C , 29-H ) :   0.9783 B( 28-C , 30-H ) :   0.9769 B( 28-C , 31-H ) :   0.9754

Dispersion correction           -0.014991469
FINAL SINGLE POINT ENERGY     -1339.851206709284

DIPOLE MOMENT
-------------
                                X             Y             Z
Electronic contribution:     -3.60131      -9.38261      29.71263
Nuclear contribution   :      3.61528       9.64211     -30.35861
                        -----------------------------------------
Total Dipole Moment    :      0.01396       0.25950      -0.64598
                        -----------------------------------------
Magnitude (a.u.)       :      0.69629
Magnitude (Debye)      :      1.76984

Rotational constants in cm-1:     0.015568     0.010627     0.007185
Rotational constants in MHz :   466.709460   318.576103   215.391226

                             ****ORCA TERMINATED NORMALLY****
TOTAL RUN TIME: 0 days 0 hours 0 minutes 22 seconds 221 msec
