                         Program Version 4.2.1 -  RELEASE  -
|  1> ! wB97X-D3 SP def2-SVP
|  2> %pal
|  3> nprocs 24
|  4> end
|  5>
|  6> * xyz 0 1
|  7> S 	 -73.5206 	 -0.314283 	 -66.9677
|  8> C 	 -72.499 	 0.888256 	 -66.3307
|  9> C 	 -73.2051 	 1.9834 	 -65.8775
| 10> C 	 -74.5949 	 1.69587 	 -65.9997
| 11> C 	 -74.9644 	 0.474556 	 -66.424
| 12> H 	 -75.2569 	 2.40908 	 -65.6859
| 13> C 	 -72.5017 	 3.13159 	 -65.2264
| 14> H 	 -71.4605 	 2.85815 	 -64.9678
| 15> H 	 -73.0195 	 3.26358 	 -64.2033
| 16> C 	 -72.6044 	 4.41273 	 -66.0487
| 17> H 	 -71.7649 	 4.4142 	 -66.7158
| 18> H 	 -73.4122 	 4.33678 	 -66.8052
| 19> C 	 -72.7699 	 5.63361 	 -65.2197
| 20> H 	 -73.5782 	 5.56544 	 -64.5028
| 21> H 	 -71.854 	 6.03743 	 -64.8002
| 22> H 	 -73.2429 	 6.37729 	 -65.8355
| 23> S 	 -76.3327 	 -1.89754 	 -66.3713
| 24> C 	 -77.9662 	 -1.99637 	 -66.94
| 25> C 	 -78.5853 	 -0.728425 	 -66.9988
| 26> C 	 -77.5731 	 0.322613 	 -66.8308
| 27> C 	 -76.2881 	 -0.139062 	 -66.5542
| 28> H 	 -79.6189 	 -0.6926 	 -67.0614
| 29> C 	 -77.9703 	 1.74768 	 -66.9401
| 30> H 	 -77.2068 	 2.16489 	 -67.618
| 31> H 	 -77.8463 	 2.35865 	 -66.0514
| 32> C 	 -79.2584 	 2.05568 	 -67.6904
| 33> H 	 -80.0627 	 1.53916 	 -67.2232
| 34> H 	 -79.2062 	 1.70107 	 -68.705
| 35> C 	 -79.5787 	 3.53739 	 -67.7194
| 36> H 	 -78.8466 	 4.09899 	 -68.1472
| 37> H 	 -79.7801 	 3.9877 	 -66.7204
| 38> H 	 -80.534 	 3.74716 	 -68.3146
| 39> H 	 -71.3764 	 0.79095 	 -66.3021
| 40> H 	 -78.4844 	 -2.97818 	 -67.019
| 41> *
| 42>
| 43>                          ****END OF INPUT****

CARTESIAN COORDINATES (ANGSTROEM)
---------------------------------
  S    -73.520600   -0.314283  -66.967700
  C    -72.499000    0.888256  -66.330700
  C    -73.205100    1.983400  -65.877500
  C    -74.594900    1.695870  -65.999700
  C    -74.964400    0.474556  -66.424000
  H    -75.256900    2.409080  -65.685900
  C    -72.501700    3.131590  -65.226400
  H    -71.460500    2.858150  -64.967800
  H    -73.019500    3.263580  -64.203300
  C    -72.604400    4.412730  -66.048700
  H    -71.764900    4.414200  -66.715800
  H    -73.412200    4.336780  -66.805200
  C    -72.769900    5.633610  -65.219700
  H    -73.578200    5.565440  -64.502800
  H    -71.854000    6.037430  -64.800200
  H    -73.242900    6.377290  -65.835500
  S    -76.332700   -1.897540  -66.371300
  C    -77.966200   -1.996370  -66.940000
  C    -78.585300   -0.728425  -66.998800
  C    -77.573100    0.322613  -66.830800
  C    -76.288100   -0.139062  -66.554200
  H    -79.618900   -0.692600  -67.061400
  C    -77.970300    1.747680  -66.940100
  H    -77.206800    2.164890  -67.618000
  H    -77.846300    2.358650  -66.051400
  C    -79.258400    2.055680  -67.690400
  H    -80.062700    1.539160  -67.223200
  H    -79.206200    1.701070  -68.705000
  C    -79.578700    3.537390  -67.719400
  H    -78.846600    4.098990  -68.147200
  H    -79.780100    3.987700  -66.720400
  H    -80.534000    3.747160  -68.314600
  H    -71.376400    0.790950  -66.302100
  H    -78.484400   -2.978180  -67.019000

 Total Charge           Charge          ....    0
 Multiplicity           Mult            ....    1
 Number of Electrons    NEL             ....  134
 Basis Dimension        Dim             ....  322

ORBITAL ENERGIES
----------------

  NO   OCC          E(Eh)            E(eV)
   0   2.0000     -88.963956     -2420.8323
   1   2.0000     -88.959812     -2420.7195
   2   2.0000     -10.329651      -281.0841
   3   2.0000     -10.326431      -280.9965
   4   2.0000     -10.322615      -280.8926
   5   2.0000     -10.309986      -280.5490
   6   2.0000     -10.309555      -280.5373
   7   2.0000     -10.297138      -280.1994
   8   2.0000     -10.296703      -280.1875
   9   2.0000     -10.294907      -280.1387
  10   2.0000     -10.287659      -279.9414
  11   2.0000     -10.283180      -279.8196
  12   2.0000     -10.283136      -279.8184
  13   2.0000     -10.281556      -279.7754
  14   2.0000     -10.277732      -279.6713
  15   2.0000     -10.273748      -279.5629
  16   2.0000      -8.078812      -219.8357
  17   2.0000      -8.076025      -219.7598
  18   2.0000      -6.037282      -164.2828
  19   2.0000      -6.034480      -164.2065
  20   2.0000      -6.033309      -164.1747
  21   2.0000      -6.030281      -164.0923
  22   2.0000      -6.029590      -164.0735
  23   2.0000      -6.026766      -163.9966
  24   2.0000      -1.012634       -27.5552
  25   2.0000      -0.985734       -26.8232
  26   2.0000      -0.918499       -24.9936
  27   2.0000      -0.915656       -24.9163
  28   2.0000      -0.872052       -23.7298
  29   2.0000      -0.855864       -23.2892
  30   2.0000      -0.846761       -23.0416
  31   2.0000      -0.820585       -22.3292
  32   2.0000      -0.783268       -21.3138
  33   2.0000      -0.770678       -20.9712
  34   2.0000      -0.713986       -19.4285
  35   2.0000      -0.703438       -19.1415
  36   2.0000      -0.691081       -18.8053
  37   2.0000      -0.658609       -17.9217
  38   2.0000      -0.640293       -17.4233
  39   2.0000      -0.632865       -17.2211
  40   2.0000      -0.600287       -16.3346
  41   2.0000      -0.575574       -15.6622
  42   2.0000      -0.572064       -15.5667
  43   2.0000      -0.561234       -15.2720
  44   2.0000      -0.540078       -14.6963
  45   2.0000      -0.523627       -14.2486
  46   2.0000      -0.517770       -14.0892
  47   2.0000      -0.509238       -13.8571
  48   2.0000      -0.503170       -13.6919
  49   2.0000      -0.500623       -13.6226
  50   2.0000      -0.497933       -13.5494
  51   2.0000      -0.479759       -13.0549
  52   2.0000      -0.476048       -12.9539
  53   2.0000      -0.468482       -12.7480
  54   2.0000      -0.460760       -12.5379
  55   2.0000      -0.454019       -12.3545
  56   2.0000      -0.445210       -12.1148
  57   2.0000      -0.436153       -11.8683
  58   2.0000      -0.434109       -11.8127
  59   2.0000      -0.421803       -11.4778
  60   2.0000      -0.418222       -11.3804
  61   2.0000      -0.415493       -11.3061
  62   2.0000      -0.408442       -11.1143
  63   2.0000      -0.354320        -9.6415
  64   2.0000      -0.327839        -8.9210
  65   2.0000      -0.324283        -8.8242
  66   2.0000      -0.287575        -7.8253
  67   0.0000       0.025857         0.7036
  68   0.0000       0.081490         2.2174
  69   0.0000       0.107228         2.9178
  70   0.0000       0.120773         3.2864
  71   0.0000       0.135395         3.6843

MULLIKEN ATOMIC CHARGES
-----------------------
   0 S :    0.113318
   1 C :   -0.153550
   2 C :   -0.091999
   3 C :    0.028843
   4 C :   -0.094790
   5 H :   -0.046525
   6 C :    0.037352
   7 H :    0.028744
   8 H :    0.042715
   9 C :   -0.064892
  10 H :    0.019019
  11 H :    0.032074
  12 C :   -0.013028
  13 H :    0.020077
  14 H :    0.043554
  15 H :    0.013155
  16 S :    0.101129
  17 C :   -0.110263
  18 C :   -0.018962
  19 C :   -0.029242
  20 C :   -0.125738
  21 H :    0.003957
  22 C :    0.016936
  23 H :    0.027680
  24 H :    0.043037
  25 C :   -0.060394
  26 H :    0.022329
  27 H :    0.031153
  28 C :   -0.031826
  29 H :    0.008288
  30 H :    0.029015
  31 H :    0.037523
  32 H :    0.066241
  33 H :    0.075069
Sum of atomic charges:    0.0000000

LOEWDIN ATOMIC CHARGES
----------------------
   0 S :    0.423840
   1 C :   -0.216386
   2 C :   -0.069710
   3 C :   -0.060192
   4 C :   -0.197173
   5 H :    0.011285
   6 C :   -0.033577
   7 H :    0.032186
   8 H :    0.038263
   9 C :   -0.047549
  10 H :    0.025278
  11 H :    0.029253
  12 C :   -0.066515
  13 H :    0.025747
  14 H :    0.027735
  15 H :    0.027622
  16 S :    0.407323
  17 C :   -0.188638
  18 C :   -0.066800
  19 C :   -0.049032
  20 C :   -0.192573
  21 H :    0.021260
  22 C :   -0.043358
  23 H :    0.040443
  24 H :    0.030280
  25 C :   -0.037421
  26 H :    0.016106
  27 H :    0.027057
  28 C :   -0.060054
  29 H :    0.007838
  30 H :    0.027417
  31 H :    0.036131
  32 H :    0.038220
  33 H :    0.035697

  Mayer bond orders larger than 0.100000
B(  0-S ,  1-C ) :   1.1590 B(  0-S ,  4-C ) :   1.1455 B(  1-C ,  2-C ) :   1.5878
B(  1-C , 32-H ) :   0.9584 B(  2-C ,  3-C ) :   1.2599 B(  2-C ,  6-C ) :   1.0297
B(  3-C ,  4-C ) :   1.5551 B(  3-C ,  5-H ) :   1.0199 B(  4-C , 20-C ) :   1.0599
B(  6-C ,  7-H ) :   0.9431 B(  6-C ,  8-H ) :   0.9523 B(  6-C ,  9-C ) :   1.0243
B(  9-C , 10-H ) :   0.9456 B(  9-C , 11-H ) :   0.9683 B(  9-C , 12-C ) :   1.0850
B( 12-C , 13-H ) :   0.9706 B( 12-C , 14-H ) :   0.9742 B( 12-C , 15-H ) :   0.9669
B( 16-S , 17-C ) :   1.1792 B( 16-S , 20-C ) :   1.1294 B( 17-C , 18-C ) :   1.5789
B( 17-C , 33-H ) :   0.9600 B( 18-C , 19-C ) :   1.2295 B( 18-C , 21-H ) :   1.0024
B( 19-C , 20-C ) :   1.5875 B( 19-C , 22-C ) :   1.0468 B( 22-C , 23-H ) :   0.9238
B( 22-C , 24-H ) :   0.9354 B( 22-C , 25-C ) :   1.0791 B( 25-C , 26-H ) :   0.9432
B( 25-C , 27-H ) :   0.9526 B( 25-C , 28-C ) :   1.0929 B( 28-C , 29-H ) :   0.9737
B( 28-C , 30-H ) :   0.9727 B( 28-C , 31-H ) :   0.9710

Dispersion correction           -0.013244084
FINAL SINGLE POINT ENERGY     -1339.862912742273

DIPOLE MOMENT
-------------
                                X             Y             Z
Electronic contribution:      6.14635     -30.82546      -0.78110
Nuclear contribution   :     -6.36516      31.49326       0.85868
                        -----------------------------------------
Total Dipole Moment    :     -0.21882       0.66780       0.07759
                        -----------------------------------------
Magnitude (a.u.)       :      0.70701
Magnitude (Debye)      :      1.79707

Rotational constants in cm-1:     0.016728     0.008763     0.005988
Rotational constants in MHz :   501.486554   262.718222   179.502115

                             ****ORCA TERMINATED NORMALLY****
TOTAL RUN TIME: 0 days 0 hours 0 minutes 20 seconds 966 msec
