                         Program Version 4.2.1 -  RELEASE  -
|  1> ! wB97X-D3 SP def2-SVP
|  2> %pal
|  3> nprocs 24
|  4> end
|  5>
|  6> * xyz 0 1
|  7> S 	 23.7192 	 -23.9211 	 -124.489
|  8> C 	 24.799 	 -24.1172 	 -125.812
|  9> C 	 26.1079 	 -23.9432 	 -125.452
| 10> C 	 26.2441 	 -23.7662 	 -124.031
| 11> C 	 25.0549 	 -24.0066 	 -123.361
| 12> H 	 27.1951 	 -23.7437 	 -123.58
| 13> C 	 27.2355 	 -23.877 	 -126.391
| 14> H 	 28.1438 	 -23.7824 	 -125.8
| 15> H 	 27.1522 	 -22.9015 	 -126.901
| 16> C 	 27.3844 	 -25.1584 	 -127.315
| 17> H 	 27.4495 	 -26.0238 	 -126.64
| 18> H 	 26.4271 	 -25.3828 	 -127.838
| 19> C 	 28.5699 	 -25.2145 	 -128.306
| 20> H 	 29.3938 	 -25.7063 	 -127.859
| 21> H 	 28.4182 	 -25.8299 	 -129.182
| 22> H 	 28.8757 	 -24.2544 	 -128.644
| 23> S 	 25.8507 	 -23.0476 	 -121.063
| 24> C 	 25.1227 	 -23.6784 	 -119.584
| 25> C 	 24.1408 	 -24.6833 	 -119.747
| 26> C 	 24.1175 	 -25.0376 	 -121.142
| 27> C 	 24.9601 	 -24.2246 	 -121.943
| 28> H 	 23.599 	 -25.051 	 -118.907
| 29> C 	 23.2301 	 -26.1863 	 -121.664
| 30> H 	 23.6761 	 -26.9763 	 -121.056
| 31> H 	 23.5052 	 -26.4414 	 -122.71
| 32> C 	 21.7797 	 -26.1972 	 -121.406
| 33> H 	 21.6827 	 -26.5083 	 -120.366
| 34> H 	 21.357 	 -26.997 	 -122.027
| 35> C 	 21.0835 	 -24.8158 	 -121.703
| 36> H 	 20.17 	 -24.6703 	 -121.13
| 37> H 	 20.795 	 -24.5878 	 -122.73
| 38> H 	 21.7318 	 -23.9767 	 -121.459
| 39> H 	 24.5586 	 -24.4823 	 -126.826
| 40> H 	 25.2982 	 -23.3331 	 -118.631
| 41> *
| 42>
| 43>                          ****END OF INPUT****

CARTESIAN COORDINATES (ANGSTROEM)
---------------------------------
  S     23.719200  -23.921100  -124.489000
  C     24.799000  -24.117200  -125.812000
  C     26.107900  -23.943200  -125.452000
  C     26.244100  -23.766200  -124.031000
  C     25.054900  -24.006600  -123.361000
  H     27.195100  -23.743700  -123.580000
  C     27.235500  -23.877000  -126.391000
  H     28.143800  -23.782400  -125.800000
  H     27.152200  -22.901500  -126.901000
  C     27.384400  -25.158400  -127.315000
  H     27.449500  -26.023800  -126.640000
  H     26.427100  -25.382800  -127.838000
  C     28.569900  -25.214500  -128.306000
  H     29.393800  -25.706300  -127.859000
  H     28.418200  -25.829900  -129.182000
  H     28.875700  -24.254400  -128.644000
  S     25.850700  -23.047600  -121.063000
  C     25.122700  -23.678400  -119.584000
  C     24.140800  -24.683300  -119.747000
  C     24.117500  -25.037600  -121.142000
  C     24.960100  -24.224600  -121.943000
  H     23.599000  -25.051000  -118.907000
  C     23.230100  -26.186300  -121.664000
  H     23.676100  -26.976300  -121.056000
  H     23.505200  -26.441400  -122.710000
  C     21.779700  -26.197200  -121.406000
  H     21.682700  -26.508300  -120.366000
  H     21.357000  -26.997000  -122.027000
  C     21.083500  -24.815800  -121.703000
  H     20.170000  -24.670300  -121.130000
  H     20.795000  -24.587800  -122.730000
  H     21.731800  -23.976700  -121.459000
  H     24.558600  -24.482300  -126.826000
  H     25.298200  -23.333100  -118.631000

 Total Charge           Charge          ....    0
 Multiplicity           Mult            ....    1
 Number of Electrons    NEL             ....  134
 Basis Dimension        Dim             ....  322

ORBITAL ENERGIES
----------------

  NO   OCC          E(Eh)            E(eV)
   0   2.0000     -88.970161     -2421.0012
   1   2.0000     -88.964429     -2420.8452
   2   2.0000     -10.325967      -280.9838
   3   2.0000     -10.321977      -280.8753
   4   2.0000     -10.315866      -280.7090
   5   2.0000     -10.310699      -280.5684
   6   2.0000     -10.303685      -280.3775
   7   2.0000     -10.299530      -280.2645
   8   2.0000     -10.295378      -280.1515
   9   2.0000     -10.292423      -280.0711
  10   2.0000     -10.291804      -280.0542
  11   2.0000     -10.286672      -279.9146
  12   2.0000     -10.286665      -279.9144
  13   2.0000     -10.285836      -279.8918
  14   2.0000     -10.272875      -279.5391
  15   2.0000     -10.272058      -279.5169
  16   2.0000      -8.084815      -219.9990
  17   2.0000      -8.079283      -219.8485
  18   2.0000      -6.043203      -164.4439
  19   2.0000      -6.039416      -164.3409
  20   2.0000      -6.037877      -164.2990
  21   2.0000      -6.035610      -164.2373
  22   2.0000      -6.033860      -164.1897
  23   2.0000      -6.029879      -164.0814
  24   2.0000      -1.008884       -27.4531
  25   2.0000      -0.983460       -26.7613
  26   2.0000      -0.911356       -24.7993
  27   2.0000      -0.906825       -24.6760
  28   2.0000      -0.870942       -23.6995
  29   2.0000      -0.852801       -23.2059
  30   2.0000      -0.840120       -22.8608
  31   2.0000      -0.812039       -22.0967
  32   2.0000      -0.785259       -21.3680
  33   2.0000      -0.769649       -20.9432
  34   2.0000      -0.712669       -19.3927
  35   2.0000      -0.705817       -19.2063
  36   2.0000      -0.690756       -18.7964
  37   2.0000      -0.666375       -18.1330
  38   2.0000      -0.636595       -17.3226
  39   2.0000      -0.609991       -16.5987
  40   2.0000      -0.588944       -16.0260
  41   2.0000      -0.569630       -15.5004
  42   2.0000      -0.554992       -15.1021
  43   2.0000      -0.552537       -15.0353
  44   2.0000      -0.542976       -14.7751
  45   2.0000      -0.526603       -14.3296
  46   2.0000      -0.514533       -14.0012
  47   2.0000      -0.509938       -13.8761
  48   2.0000      -0.505080       -13.7439
  49   2.0000      -0.496418       -13.5082
  50   2.0000      -0.490694       -13.3525
  51   2.0000      -0.476607       -12.9691
  52   2.0000      -0.471242       -12.8231
  53   2.0000      -0.460416       -12.5286
  54   2.0000      -0.457391       -12.4462
  55   2.0000      -0.454203       -12.3595
  56   2.0000      -0.447717       -12.1830
  57   2.0000      -0.439450       -11.9580
  58   2.0000      -0.432267       -11.7626
  59   2.0000      -0.430210       -11.7066
  60   2.0000      -0.414709       -11.2848
  61   2.0000      -0.411638       -11.2013
  62   2.0000      -0.410255       -11.1636
  63   2.0000      -0.347135        -9.4460
  64   2.0000      -0.331140        -9.0108
  65   2.0000      -0.322682        -8.7806
  66   2.0000      -0.281455        -7.6588
  67   0.0000       0.022295         0.6067
  68   0.0000       0.075336         2.0500
  69   0.0000       0.102769         2.7965
  70   0.0000       0.113773         3.0959
  71   0.0000       0.126748         3.4490

MULLIKEN ATOMIC CHARGES
-----------------------
   0 S :    0.126420
   1 C :   -0.137142
   2 C :   -0.117050
   3 C :    0.029266
   4 C :   -0.128296
   5 H :    0.000180
   6 C :    0.094405
   7 H :    0.008590
   8 H :    0.049103
   9 C :   -0.120785
  10 H :    0.032276
  11 H :    0.030009
  12 C :   -0.000433
  13 H :    0.020600
  14 H :    0.025588
  15 H :    0.023382
  16 S :    0.121718
  17 C :   -0.053139
  18 C :   -0.039322
  19 C :   -0.072260
  20 C :   -0.155676
  21 H :    0.018825
  22 C :    0.048761
  23 H :    0.029127
  24 H :    0.031032
  25 C :   -0.030906
  26 H :    0.023186
  27 H :    0.038795
  28 C :   -0.063435
  29 H :    0.028075
  30 H :    0.030554
  31 H :    0.037559
  32 H :    0.052476
  33 H :    0.018513
Sum of atomic charges:   -0.0000000

LOEWDIN ATOMIC CHARGES
----------------------
   0 S :    0.417895
   1 C :   -0.219387
   2 C :   -0.064918
   3 C :   -0.069757
   4 C :   -0.191024
   5 H :    0.019006
   6 C :   -0.033193
   7 H :    0.026711
   8 H :    0.038802
   9 C :   -0.041144
  10 H :    0.028557
  11 H :    0.022221
  12 C :   -0.063668
  13 H :    0.022885
  14 H :    0.029239
  15 H :    0.021288
  16 S :    0.431908
  17 C :   -0.163463
  18 C :   -0.060885
  19 C :   -0.047262
  20 C :   -0.216160
  21 H :    0.031726
  22 C :   -0.043063
  23 H :    0.037258
  24 H :    0.028001
  25 C :   -0.040364
  26 H :    0.023925
  27 H :    0.033990
  28 C :   -0.073759
  29 H :    0.024885
  30 H :    0.025349
  31 H :    0.025827
  32 H :    0.031844
  33 H :    0.006727

  Mayer bond orders larger than 0.100000
B(  0-S ,  1-C ) :   1.1251 B(  0-S ,  4-C ) :   1.1421 B(  1-C ,  2-C ) :   1.6216
B(  1-C , 32-H ) :   0.9612 B(  2-C ,  3-C ) :   1.2578 B(  2-C ,  6-C ) :   1.0308
B(  3-C ,  4-C ) :   1.5305 B(  3-C ,  5-H ) :   0.9917 B(  4-C , 20-C ) :   1.0753
B(  6-C ,  7-H ) :   0.9394 B(  6-C ,  8-H ) :   0.9301 B(  6-C ,  9-C ) :   1.0449
B(  9-C , 10-H ) :   0.9612 B(  9-C , 11-H ) :   0.9641 B(  9-C , 12-C ) :   1.0729
B( 12-C , 13-H ) :   0.9762 B( 12-C , 14-H ) :   0.9739 B( 12-C , 15-H ) :   0.9774
B( 16-S , 17-C ) :   1.1639 B( 16-S , 20-C ) :   1.1461 B( 17-C , 18-C ) :   1.6106
B( 17-C , 33-H ) :   0.9735 B( 18-C , 19-C ) :   1.2246 B( 18-C , 21-H ) :   0.9970
B( 19-C , 20-C ) :   1.5678 B( 19-C , 22-C ) :   1.0227 B( 22-C , 23-H ) :   0.9329
B( 22-C , 24-H ) :   0.9395 B( 22-C , 25-C ) :   1.0818 B( 25-C , 26-H ) :   0.9521
B( 25-C , 27-H ) :   0.9522 B( 25-C , 28-C ) :   1.0664 B( 28-C , 29-H ) :   0.9774
B( 28-C , 30-H ) :   0.9757 B( 28-C , 31-H ) :   0.9749

Dispersion correction           -0.014713963
FINAL SINGLE POINT ENERGY     -1339.855598988599

DIPOLE MOMENT
-------------
                                X             Y             Z
Electronic contribution:     -0.44210      10.94541      12.18332
Nuclear contribution   :      0.57926     -11.29547     -12.16723
                        -----------------------------------------
Total Dipole Moment    :      0.13716      -0.35006       0.01609
                        -----------------------------------------
Magnitude (a.u.)       :      0.37632
Magnitude (Debye)      :      0.95652

Rotational constants in cm-1:     0.023826     0.007497     0.006373
Rotational constants in MHz :   714.284953   224.759072   191.062302

                             ****ORCA TERMINATED NORMALLY****
TOTAL RUN TIME: 0 days 0 hours 0 minutes 21 seconds 482 msec
