                         Program Version 4.2.1 -  RELEASE  -
|  1> ! wB97X-D3 SP def2-SVP
|  2> %pal
|  3> nprocs 24
|  4> end
|  5>
|  6> * xyz 0 1
|  7> S 	 -55.9589 	 -58.7701 	 -80.7972
|  8> C 	 -56.7774 	 -57.6121 	 -79.799
|  9> C 	 -58.0395 	 -57.3161 	 -80.2588
| 10> C 	 -58.3939 	 -58.1872 	 -81.3583
| 11> C 	 -57.4516 	 -59.0577 	 -81.7434
| 12> H 	 -59.4066 	 -58.1985 	 -81.8213
| 13> C 	 -59.0105 	 -56.4304 	 -79.5692
| 14> H 	 -59.2464 	 -56.8987 	 -78.6517
| 15> H 	 -59.8778 	 -56.4255 	 -80.2048
| 16> C 	 -58.5502 	 -55.0609 	 -79.1602
| 17> H 	 -58.0733 	 -55.1267 	 -78.176
| 18> H 	 -57.8251 	 -54.7574 	 -79.9344
| 19> C 	 -59.6859 	 -53.9999 	 -79.0772
| 20> H 	 -60.467 	 -54.0862 	 -79.8535
| 21> H 	 -60.057 	 -53.7705 	 -78.0358
| 22> H 	 -59.188 	 -53.0552 	 -79.2986
| 23> S 	 -56.838 	 -61.6541 	 -82.459
| 24> C 	 -57.1699 	 -62.2242 	 -84.0324
| 25> C 	 -57.6822 	 -61.2962 	 -84.8564
| 26> C 	 -57.9566 	 -60.082 	 -84.122
| 27> C 	 -57.5785 	 -60.1058 	 -82.7519
| 28> H 	 -57.842 	 -61.5854 	 -85.9164
| 29> C 	 -58.4107 	 -58.7822 	 -84.7558
| 30> H 	 -59.0307 	 -58.2606 	 -84.019
| 31> H 	 -59.0841 	 -58.8686 	 -85.6167
| 32> C 	 -57.2923 	 -57.7958 	 -85.3519
| 33> H 	 -57.7152 	 -57.0465 	 -85.9898
| 34> H 	 -56.8077 	 -58.4772 	 -86.0089
| 35> C 	 -56.334 	 -57.204 	 -84.2788
| 36> H 	 -55.9261 	 -58.0294 	 -83.715
| 37> H 	 -56.7761 	 -56.5063 	 -83.5226
| 38> H 	 -55.5792 	 -56.6094 	 -84.7962
| 39> H 	 -56.2612 	 -57.1886 	 -78.9022
| 40> H 	 -56.6721 	 -63.142 	 -84.3881
| 41> *
| 42>
| 43>                          ****END OF INPUT****

CARTESIAN COORDINATES (ANGSTROEM)
---------------------------------
  S    -55.958900  -58.770100  -80.797200
  C    -56.777400  -57.612100  -79.799000
  C    -58.039500  -57.316100  -80.258800
  C    -58.393900  -58.187200  -81.358300
  C    -57.451600  -59.057700  -81.743400
  H    -59.406600  -58.198500  -81.821300
  C    -59.010500  -56.430400  -79.569200
  H    -59.246400  -56.898700  -78.651700
  H    -59.877800  -56.425500  -80.204800
  C    -58.550200  -55.060900  -79.160200
  H    -58.073300  -55.126700  -78.176000
  H    -57.825100  -54.757400  -79.934400
  C    -59.685900  -53.999900  -79.077200
  H    -60.467000  -54.086200  -79.853500
  H    -60.057000  -53.770500  -78.035800
  H    -59.188000  -53.055200  -79.298600
  S    -56.838000  -61.654100  -82.459000
  C    -57.169900  -62.224200  -84.032400
  C    -57.682200  -61.296200  -84.856400
  C    -57.956600  -60.082000  -84.122000
  C    -57.578500  -60.105800  -82.751900
  H    -57.842000  -61.585400  -85.916400
  C    -58.410700  -58.782200  -84.755800
  H    -59.030700  -58.260600  -84.019000
  H    -59.084100  -58.868600  -85.616700
  C    -57.292300  -57.795800  -85.351900
  H    -57.715200  -57.046500  -85.989800
  H    -56.807700  -58.477200  -86.008900
  C    -56.334000  -57.204000  -84.278800
  H    -55.926100  -58.029400  -83.715000
  H    -56.776100  -56.506300  -83.522600
  H    -55.579200  -56.609400  -84.796200
  H    -56.261200  -57.188600  -78.902200
  H    -56.672100  -63.142000  -84.388100

 Total Charge           Charge          ....    0
 Multiplicity           Mult            ....    1
 Number of Electrons    NEL             ....  134
 Basis Dimension        Dim             ....  322

ORBITAL ENERGIES
----------------

  NO   OCC          E(Eh)            E(eV)
   0   2.0000     -88.964783     -2420.8548
   1   2.0000     -88.963200     -2420.8117
   2   2.0000     -10.329873      -281.0901
   3   2.0000     -10.329612      -281.0830
   4   2.0000     -10.315992      -280.7124
   5   2.0000     -10.312877      -280.6277
   6   2.0000     -10.311651      -280.5943
   7   2.0000     -10.299624      -280.2670
   8   2.0000     -10.297711      -280.2150
   9   2.0000     -10.294789      -280.1354
  10   2.0000     -10.288948      -279.9765
  11   2.0000     -10.288760      -279.9714
  12   2.0000     -10.286001      -279.8963
  13   2.0000     -10.282641      -279.8049
  14   2.0000     -10.280830      -279.7556
  15   2.0000     -10.269826      -279.4562
  16   2.0000      -8.079186      -219.8458
  17   2.0000      -8.079140      -219.8446
  18   2.0000      -6.037817      -164.2974
  19   2.0000      -6.037560      -164.2904
  20   2.0000      -6.033711      -164.1856
  21   2.0000      -6.033371      -164.1764
  22   2.0000      -6.030140      -164.0885
  23   2.0000      -6.029746      -164.0777
  24   2.0000      -1.010196       -27.4888
  25   2.0000      -0.989486       -26.9253
  26   2.0000      -0.918217       -24.9860
  27   2.0000      -0.896713       -24.4008
  28   2.0000      -0.872850       -23.7515
  29   2.0000      -0.849798       -23.1242
  30   2.0000      -0.841036       -22.8857
  31   2.0000      -0.820101       -22.3161
  32   2.0000      -0.782241       -21.2859
  33   2.0000      -0.766896       -20.8683
  34   2.0000      -0.707354       -19.2481
  35   2.0000      -0.702617       -19.1192
  36   2.0000      -0.689755       -18.7692
  37   2.0000      -0.655024       -17.8241
  38   2.0000      -0.637936       -17.3591
  39   2.0000      -0.620181       -16.8760
  40   2.0000      -0.593200       -16.1418
  41   2.0000      -0.576170       -15.6784
  42   2.0000      -0.570287       -15.5183
  43   2.0000      -0.546728       -14.8772
  44   2.0000      -0.535811       -14.5802
  45   2.0000      -0.517066       -14.0701
  46   2.0000      -0.516819       -14.0634
  47   2.0000      -0.507831       -13.8188
  48   2.0000      -0.502879       -13.6840
  49   2.0000      -0.497271       -13.5314
  50   2.0000      -0.487302       -13.2602
  51   2.0000      -0.479579       -13.0500
  52   2.0000      -0.474820       -12.9205
  53   2.0000      -0.464417       -12.6374
  54   2.0000      -0.462389       -12.5822
  55   2.0000      -0.448808       -12.2127
  56   2.0000      -0.442810       -12.0495
  57   2.0000      -0.438491       -11.9320
  58   2.0000      -0.422961       -11.5094
  59   2.0000      -0.422068       -11.4851
  60   2.0000      -0.416770       -11.3409
  61   2.0000      -0.414473       -11.2784
  62   2.0000      -0.406315       -11.0564
  63   2.0000      -0.355229        -9.6663
  64   2.0000      -0.331977        -9.0335
  65   2.0000      -0.325586        -8.8596
  66   2.0000      -0.292080        -7.9479
  67   0.0000       0.025820         0.7026
  68   0.0000       0.073450         1.9987
  69   0.0000       0.109539         2.9807
  70   0.0000       0.122164         3.3243
  71   0.0000       0.131390         3.5753

MULLIKEN ATOMIC CHARGES
-----------------------
   0 S :    0.105196
   1 C :   -0.154424
   2 C :   -0.093734
   3 C :   -0.001798
   4 C :   -0.125253
   5 H :    0.036441
   6 C :    0.123789
   7 H :    0.032256
   8 H :    0.005054
   9 C :   -0.104403
  10 H :    0.034453
  11 H :    0.038542
  12 C :   -0.063674
  13 H :    0.040999
  14 H :    0.044621
  15 H :    0.024264
  16 S :    0.102398
  17 C :   -0.095610
  18 C :   -0.040783
  19 C :   -0.041930
  20 C :   -0.159407
  21 H :    0.040045
  22 C :    0.037820
  23 H :    0.007473
  24 H :    0.017700
  25 C :   -0.045174
  26 H :    0.023911
  27 H :    0.013074
  28 C :   -0.043927
  29 H :    0.036130
  30 H :    0.036685
  31 H :    0.030810
  32 H :    0.069445
  33 H :    0.069011
Sum of atomic charges:    0.0000000

LOEWDIN ATOMIC CHARGES
----------------------
   0 S :    0.388513
   1 C :   -0.200629
   2 C :   -0.066368
   3 C :   -0.063839
   4 C :   -0.180322
   5 H :    0.038640
   6 C :   -0.034549
   7 H :    0.034943
   8 H :    0.025275
   9 C :   -0.042222
  10 H :    0.027474
  11 H :    0.026165
  12 C :   -0.075194
  13 H :    0.027501
  14 H :    0.033167
  15 H :    0.028896
  16 S :    0.427300
  17 C :   -0.198758
  18 C :   -0.080117
  19 C :   -0.051200
  20 C :   -0.206172
  21 H :    0.045052
  22 C :   -0.041049
  23 H :    0.022843
  24 H :    0.029061
  25 C :   -0.027544
  26 H :    0.018627
  27 H :    0.018122
  28 C :   -0.069414
  29 H :    0.019813
  30 H :    0.029530
  31 H :    0.024169
  32 H :    0.036979
  33 H :    0.035310

  Mayer bond orders larger than 0.100000
B(  0-S ,  1-C ) :   1.1355 B(  0-S ,  4-C ) :   1.1186 B(  1-C ,  2-C ) :   1.6084
B(  1-C , 32-H ) :   0.9656 B(  2-C ,  3-C ) :   1.2222 B(  2-C ,  6-C ) :   1.0362
B(  3-C ,  4-C ) :   1.6228 B(  3-C ,  5-H ) :   0.9804 B(  4-C , 20-C ) :   1.0605
B(  6-C ,  7-H ) :   0.9272 B(  6-C ,  8-H ) :   0.9380 B(  6-C ,  9-C ) :   1.0589
B(  9-C , 10-H ) :   0.9495 B(  9-C , 11-H ) :   0.9709 B(  9-C , 12-C ) :   1.0813
B( 12-C , 13-H ) :   0.9766 B( 12-C , 14-H ) :   0.9759 B( 12-C , 15-H ) :   0.9744
B( 16-S , 17-C ) :   1.1797 B( 16-S , 20-C ) :   1.1447 B( 17-C , 18-C ) :   1.6092
B( 17-C , 33-H ) :   0.9558 B( 18-C , 19-C ) :   1.2438 B( 18-C , 21-H ) :   0.9910
B( 19-C , 20-C ) :   1.5524 B( 19-C , 22-C ) :   1.0540 B( 22-C , 23-H ) :   0.9366
B( 22-C , 24-H ) :   0.9378 B( 22-C , 25-C ) :   1.0535 B( 25-C , 26-H ) :   0.9596
B( 25-C , 27-H ) :   0.9555 B( 25-C , 28-C ) :   1.0780 B( 28-C , 29-H ) :   0.9690
B( 28-C , 30-H ) :   0.9760 B( 28-C , 31-H ) :   0.9732

Dispersion correction           -0.015384055
FINAL SINGLE POINT ENERGY     -1339.872989302385

DIPOLE MOMENT
-------------
                                X             Y             Z
Electronic contribution:      9.68456     -25.67687       1.45916
Nuclear contribution   :     -9.93728      26.10517      -1.59106
                        -----------------------------------------
Total Dipole Moment    :     -0.25272       0.42830      -0.13191
                        -----------------------------------------
Magnitude (a.u.)       :      0.51450
Magnitude (Debye)      :      1.30775

Rotational constants in cm-1:     0.024055     0.007903     0.006897
Rotational constants in MHz :   721.143546   236.917075   206.755973

                             ****ORCA TERMINATED NORMALLY****
TOTAL RUN TIME: 0 days 0 hours 0 minutes 22 seconds 407 msec
