                         Program Version 4.2.1 -  RELEASE  -
|  1> ! wB97X-D3 SP def2-SVP
|  2> %pal
|  3> nprocs 24
|  4> end
|  5>
|  6> * xyz 0 1
|  7> S 	 -114.101 	 57.4407 	 -26.9623
|  8> C 	 -112.899 	 57.8591 	 -25.7563
|  9> C 	 -112.316 	 59.0815 	 -26.0107
| 10> C 	 -113.005 	 59.749 	 -27.0498
| 11> C 	 -113.958 	 58.9897 	 -27.7452
| 12> H 	 -112.924 	 60.82 	 -27.3573
| 13> C 	 -111.361 	 59.7664 	 -25.0652
| 14> H 	 -110.573 	 60.2521 	 -25.6811
| 15> H 	 -110.724 	 59.0051 	 -24.5184
| 16> C 	 -111.927 	 60.8717 	 -24.1371
| 17> H 	 -112.675 	 61.3946 	 -24.666
| 18> H 	 -112.47 	 60.4382 	 -23.2862
| 19> C 	 -110.897 	 61.8068 	 -23.4692
| 20> H 	 -110.616 	 62.6115 	 -24.1974
| 21> H 	 -111.321 	 62.3043 	 -22.6343
| 22> H 	 -109.979 	 61.3616 	 -23.0085
| 23> S 	 -114.64 	 58.4278 	 -30.4047
| 24> C 	 -115.741 	 59.4481 	 -31.1593
| 25> C 	 -116.279 	 60.3571 	 -30.3116
| 26> C 	 -115.644 	 60.413 	 -29.0522
| 27> C 	 -114.777 	 59.3405 	 -28.891
| 28> H 	 -117.114 	 60.9776 	 -30.5118
| 29> C 	 -116.158 	 61.3308 	 -28.0039
| 30> H 	 -116.733 	 62.1324 	 -28.4045
| 31> H 	 -115.324 	 61.9032 	 -27.6131
| 32> C 	 -116.922 	 60.7484 	 -26.792
| 33> H 	 -116.934 	 61.5487 	 -26.0935
| 34> H 	 -116.457 	 59.9482 	 -26.2383
| 35> C 	 -118.343 	 60.3216 	 -26.994
| 36> H 	 -119.038 	 61.0509 	 -27.3796
| 37> H 	 -118.734 	 59.7642 	 -26.1743
| 38> H 	 -118.461 	 59.5798 	 -27.7643
| 39> H 	 -112.565 	 57.2343 	 -24.9394
| 40> H 	 -116.214 	 59.3497 	 -32.0562
| 41> *
| 42>
| 43>                          ****END OF INPUT****

CARTESIAN COORDINATES (ANGSTROEM)
---------------------------------
  S    -114.101000   57.440700  -26.962300
  C    -112.899000   57.859100  -25.756300
  C    -112.316000   59.081500  -26.010700
  C    -113.005000   59.749000  -27.049800
  C    -113.958000   58.989700  -27.745200
  H    -112.924000   60.820000  -27.357300
  C    -111.361000   59.766400  -25.065200
  H    -110.573000   60.252100  -25.681100
  H    -110.724000   59.005100  -24.518400
  C    -111.927000   60.871700  -24.137100
  H    -112.675000   61.394600  -24.666000
  H    -112.470000   60.438200  -23.286200
  C    -110.897000   61.806800  -23.469200
  H    -110.616000   62.611500  -24.197400
  H    -111.321000   62.304300  -22.634300
  H    -109.979000   61.361600  -23.008500
  S    -114.640000   58.427800  -30.404700
  C    -115.741000   59.448100  -31.159300
  C    -116.279000   60.357100  -30.311600
  C    -115.644000   60.413000  -29.052200
  C    -114.777000   59.340500  -28.891000
  H    -117.114000   60.977600  -30.511800
  C    -116.158000   61.330800  -28.003900
  H    -116.733000   62.132400  -28.404500
  H    -115.324000   61.903200  -27.613100
  C    -116.922000   60.748400  -26.792000
  H    -116.934000   61.548700  -26.093500
  H    -116.457000   59.948200  -26.238300
  C    -118.343000   60.321600  -26.994000
  H    -119.038000   61.050900  -27.379600
  H    -118.734000   59.764200  -26.174300
  H    -118.461000   59.579800  -27.764300
  H    -112.565000   57.234300  -24.939400
  H    -116.214000   59.349700  -32.056200

 Total Charge           Charge          ....    0
 Multiplicity           Mult            ....    1
 Number of Electrons    NEL             ....  134
 Basis Dimension        Dim             ....  322

ORBITAL ENERGIES
----------------

  NO   OCC          E(Eh)            E(eV)
   0   2.0000     -88.967618     -2420.9320
   1   2.0000     -88.966846     -2420.9110
   2   2.0000     -10.328594      -281.0553
   3   2.0000     -10.325482      -280.9707
   4   2.0000     -10.314530      -280.6726
   5   2.0000     -10.302065      -280.3334
   6   2.0000     -10.300581      -280.2930
   7   2.0000     -10.299293      -280.2580
   8   2.0000     -10.297431      -280.2073
   9   2.0000     -10.296669      -280.1866
  10   2.0000     -10.288304      -279.9590
  11   2.0000     -10.287600      -279.9398
  12   2.0000     -10.283591      -279.8307
  13   2.0000     -10.281954      -279.7862
  14   2.0000     -10.278302      -279.6868
  15   2.0000     -10.264488      -279.3109
  16   2.0000      -8.083142      -219.9535
  17   2.0000      -8.081505      -219.9089
  18   2.0000      -6.041539      -164.3986
  19   2.0000      -6.039893      -164.3538
  20   2.0000      -6.037545      -164.2899
  21   2.0000      -6.035966      -164.2470
  22   2.0000      -6.033960      -164.1924
  23   2.0000      -6.032445      -164.1512
  24   2.0000      -1.011240       -27.5172
  25   2.0000      -0.990074       -26.9413
  26   2.0000      -0.913321       -24.8527
  27   2.0000      -0.908503       -24.7216
  28   2.0000      -0.871114       -23.7042
  29   2.0000      -0.858104       -23.3502
  30   2.0000      -0.846249       -23.0276
  31   2.0000      -0.814453       -22.1624
  32   2.0000      -0.790312       -21.5055
  33   2.0000      -0.775769       -21.1097
  34   2.0000      -0.716233       -19.4897
  35   2.0000      -0.703914       -19.1545
  36   2.0000      -0.695401       -18.9228
  37   2.0000      -0.664218       -18.0743
  38   2.0000      -0.642042       -17.4709
  39   2.0000      -0.616919       -16.7872
  40   2.0000      -0.603859       -16.4318
  41   2.0000      -0.571237       -15.5441
  42   2.0000      -0.556027       -15.1303
  43   2.0000      -0.552039       -15.0217
  44   2.0000      -0.540178       -14.6990
  45   2.0000      -0.523988       -14.2584
  46   2.0000      -0.519470       -14.1355
  47   2.0000      -0.507779       -13.8174
  48   2.0000      -0.505693       -13.7606
  49   2.0000      -0.500460       -13.6182
  50   2.0000      -0.493844       -13.4382
  51   2.0000      -0.478338       -13.0162
  52   2.0000      -0.475870       -12.9491
  53   2.0000      -0.469087       -12.7645
  54   2.0000      -0.462215       -12.5775
  55   2.0000      -0.450726       -12.2649
  56   2.0000      -0.443807       -12.0766
  57   2.0000      -0.438667       -11.9367
  58   2.0000      -0.437342       -11.9007
  59   2.0000      -0.429399       -11.6845
  60   2.0000      -0.421446       -11.4681
  61   2.0000      -0.408897       -11.1266
  62   2.0000      -0.407366       -11.0850
  63   2.0000      -0.341061        -9.2807
  64   2.0000      -0.334309        -9.0970
  65   2.0000      -0.331156        -9.0112
  66   2.0000      -0.294167        -8.0047
  67   0.0000       0.033475         0.9109
  68   0.0000       0.065357         1.7785
  69   0.0000       0.120822         3.2877
  70   0.0000       0.124151         3.3783
  71   0.0000       0.128346         3.4925

MULLIKEN ATOMIC CHARGES
-----------------------
   0 S :    0.113000
   1 C :   -0.115776
   2 C :   -0.060806
   3 C :    0.011675
   4 C :   -0.183483
   5 H :    0.026826
   6 C :    0.030944
   7 H :    0.027028
   8 H :    0.027765
   9 C :   -0.034769
  10 H :    0.016148
  11 H :    0.024685
  12 C :   -0.068978
  13 H :    0.039826
  14 H :    0.023955
  15 H :    0.040789
  16 S :    0.132576
  17 C :   -0.017763
  18 C :   -0.048749
  19 C :   -0.014057
  20 C :   -0.171868
  21 H :   -0.000946
  22 C :    0.090957
  23 H :    0.000774
  24 H :    0.011141
  25 C :   -0.025372
  26 H :    0.011197
  27 H :    0.029485
  28 C :   -0.028656
  29 H :    0.015489
  30 H :    0.024291
  31 H :    0.008874
  32 H :    0.047181
  33 H :    0.016615
Sum of atomic charges:    0.0000000

LOEWDIN ATOMIC CHARGES
----------------------
   0 S :    0.411016
   1 C :   -0.189793
   2 C :   -0.072595
   3 C :   -0.065340
   4 C :   -0.202143
   5 H :    0.036306
   6 C :   -0.039447
   7 H :    0.032953
   8 H :    0.034069
   9 C :   -0.037674
  10 H :    0.019308
  11 H :    0.026051
  12 C :   -0.071662
  13 H :    0.029584
  14 H :    0.021996
  15 H :    0.031960
  16 S :    0.434393
  17 C :   -0.194417
  18 C :   -0.066317
  19 C :   -0.052331
  20 C :   -0.201241
  21 H :    0.024098
  22 C :   -0.030365
  23 H :    0.027567
  24 H :    0.033641
  25 C :   -0.032668
  26 H :    0.021482
  27 H :    0.027931
  28 C :   -0.070701
  29 H :    0.020415
  30 H :    0.026788
  31 H :    0.023158
  32 H :    0.029122
  33 H :    0.014852

  Mayer bond orders larger than 0.100000
B(  0-S ,  1-C ) :   1.1498 B(  0-S ,  4-C ) :   1.1514 B(  1-C ,  2-C ) :   1.5978
B(  1-C ,  4-C ) :   0.1062 B(  1-C , 32-H ) :   0.9669 B(  2-C ,  3-C ) :   1.2421
B(  2-C ,  6-C ) :   1.0433 B(  3-C ,  4-C ) :   1.5809 B(  3-C ,  5-H ) :   0.9858
B(  4-C , 20-C ) :   1.0353 B(  6-C ,  7-H ) :   0.9378 B(  6-C ,  8-H ) :   0.9398
B(  6-C ,  9-C ) :   1.0479 B(  9-C , 10-H ) :   0.9568 B(  9-C , 11-H ) :   0.9573
B(  9-C , 12-C ) :   1.0774 B( 12-C , 13-H ) :   0.9756 B( 12-C , 14-H ) :   0.9749
B( 12-C , 15-H ) :   0.9762 B( 16-S , 17-C ) :   1.1674 B( 16-S , 20-C ) :   1.1457
B( 17-C , 18-C ) :   1.5931 B( 17-C , 33-H ) :   0.9670 B( 18-C , 19-C ) :   1.2681
B( 18-C , 21-H ) :   0.9919 B( 19-C , 20-C ) :   1.5717 B( 19-C , 22-C ) :   1.0646
B( 22-C , 23-H ) :   0.9280 B( 22-C , 24-H ) :   0.9129 B( 22-C , 25-C ) :   1.0729
B( 25-C , 26-H ) :   0.9477 B( 25-C , 27-H ) :   0.9549 B( 25-C , 28-C ) :   1.0892
B( 28-C , 29-H ) :   0.9711 B( 28-C , 30-H ) :   0.9698 B( 28-C , 31-H ) :   0.9688

Dispersion correction           -0.014734825
FINAL SINGLE POINT ENERGY     -1339.871465407535

DIPOLE MOMENT
-------------
                                X             Y             Z
Electronic contribution:      0.79918     -18.58073     -20.63827
Nuclear contribution   :     -0.93768      19.11724      21.04929
                        -----------------------------------------
Total Dipole Moment    :     -0.13850       0.53651       0.41102
                        -----------------------------------------
Magnitude (a.u.)       :      0.68990
Magnitude (Debye)      :      1.75359

Rotational constants in cm-1:     0.019806     0.008214     0.007099
Rotational constants in MHz :   593.761051   246.256684   212.837648

                             ****ORCA TERMINATED NORMALLY****
TOTAL RUN TIME: 0 days 0 hours 0 minutes 21 seconds 950 msec
