                         Program Version 4.2.1 -  RELEASE  -
|  1> ! wB97X-D3 SP def2-SVP
|  2> %pal
|  3> nprocs 24
|  4> end
|  5>
|  6> * xyz 0 1
|  7> S 	 -41.0947 	 20.4016 	 12.22
|  8> C 	 -41.1033 	 18.9756 	 13.1549
|  9> C 	 -39.9027 	 18.5247 	 13.6299
| 10> C 	 -38.8961 	 19.3912 	 13.2228
| 11> C 	 -39.3659 	 20.4377 	 12.4516
| 12> H 	 -37.869 	 19.3604 	 13.5544
| 13> C 	 -39.6636 	 17.3525 	 14.5696
| 14> H 	 -39.5517 	 16.4882 	 13.9413
| 15> H 	 -40.5933 	 17.1609 	 15.1304
| 16> C 	 -38.5074 	 17.5465 	 15.4989
| 17> H 	 -37.6188 	 17.654 	 14.9778
| 18> H 	 -38.689 	 18.5254 	 15.9627
| 19> C 	 -38.2774 	 16.4568 	 16.5438
| 20> H 	 -37.2499 	 16.5301 	 16.9777
| 21> H 	 -39.0213 	 16.683 	 17.3029
| 22> H 	 -38.5648 	 15.492 	 16.161
| 23> S 	 -39.3836 	 23.1041 	 12.3623
| 24> C 	 -37.9884 	 24.0457 	 11.8848
| 25> C 	 -36.8909 	 23.227 	 11.6745
| 26> C 	 -37.1945 	 21.8059 	 11.7794
| 27> C 	 -38.5257 	 21.6247 	 12.2026
| 28> H 	 -35.9269 	 23.6771 	 11.3392
| 29> C 	 -36.1356 	 20.7646 	 11.3062
| 30> H 	 -36.057 	 21.1173 	 10.2751
| 31> H 	 -36.5706 	 19.7539 	 11.4535
| 32> C 	 -34.7706 	 20.8759 	 11.9712
| 33> H 	 -34.53 	 21.9454 	 12.1567
| 34> H 	 -33.9517 	 20.5847 	 11.2994
| 35> C 	 -34.6166 	 20.1362 	 13.3644
| 36> H 	 -35.4496 	 20.2208 	 13.983
| 37> H 	 -33.7583 	 20.4176 	 13.8965
| 38> H 	 -34.5426 	 19.0568 	 13.2425
| 39> H 	 -42.0076 	 18.5103 	 13.5684
| 40> H 	 -38.0732 	 25.0769 	 11.5565
| 41> *
| 42>
| 43>                          ****END OF INPUT****

CARTESIAN COORDINATES (ANGSTROEM)
---------------------------------
  S    -41.094700   20.401600   12.220000
  C    -41.103300   18.975600   13.154900
  C    -39.902700   18.524700   13.629900
  C    -38.896100   19.391200   13.222800
  C    -39.365900   20.437700   12.451600
  H    -37.869000   19.360400   13.554400
  C    -39.663600   17.352500   14.569600
  H    -39.551700   16.488200   13.941300
  H    -40.593300   17.160900   15.130400
  C    -38.507400   17.546500   15.498900
  H    -37.618800   17.654000   14.977800
  H    -38.689000   18.525400   15.962700
  C    -38.277400   16.456800   16.543800
  H    -37.249900   16.530100   16.977700
  H    -39.021300   16.683000   17.302900
  H    -38.564800   15.492000   16.161000
  S    -39.383600   23.104100   12.362300
  C    -37.988400   24.045700   11.884800
  C    -36.890900   23.227000   11.674500
  C    -37.194500   21.805900   11.779400
  C    -38.525700   21.624700   12.202600
  H    -35.926900   23.677100   11.339200
  C    -36.135600   20.764600   11.306200
  H    -36.057000   21.117300   10.275100
  H    -36.570600   19.753900   11.453500
  C    -34.770600   20.875900   11.971200
  H    -34.530000   21.945400   12.156700
  H    -33.951700   20.584700   11.299400
  C    -34.616600   20.136200   13.364400
  H    -35.449600   20.220800   13.983000
  H    -33.758300   20.417600   13.896500
  H    -34.542600   19.056800   13.242500
  H    -42.007600   18.510300   13.568400
  H    -38.073200   25.076900   11.556500

 Total Charge           Charge          ....    0
 Multiplicity           Mult            ....    1
 Number of Electrons    NEL             ....  134
 Basis Dimension        Dim             ....  322

ORBITAL ENERGIES
----------------

  NO   OCC          E(Eh)            E(eV)
   0   2.0000     -88.973895     -2421.1028
   1   2.0000     -88.960388     -2420.7352
   2   2.0000     -10.325103      -280.9603
   3   2.0000     -10.324936      -280.9558
   4   2.0000     -10.313379      -280.6413
   5   2.0000     -10.307216      -280.4736
   6   2.0000     -10.306941      -280.4661
   7   2.0000     -10.298901      -280.2473
   8   2.0000     -10.298231      -280.2291
   9   2.0000     -10.293780      -280.1080
  10   2.0000     -10.293505      -280.1005
  11   2.0000     -10.291600      -280.0487
  12   2.0000     -10.287298      -279.9316
  13   2.0000     -10.281249      -279.7670
  14   2.0000     -10.279223      -279.7119
  15   2.0000     -10.272149      -279.5194
  16   2.0000      -8.089141      -220.1167
  17   2.0000      -8.076028      -219.7599
  18   2.0000      -6.047423      -164.5588
  19   2.0000      -6.043779      -164.4596
  20   2.0000      -6.039901      -164.3541
  21   2.0000      -6.034531      -164.2079
  22   2.0000      -6.030394      -164.0954
  23   2.0000      -6.026761      -163.9965
  24   2.0000      -1.013088       -27.5675
  25   2.0000      -0.985568       -26.8187
  26   2.0000      -0.921378       -25.0720
  27   2.0000      -0.903942       -24.5975
  28   2.0000      -0.868390       -23.6301
  29   2.0000      -0.858413       -23.3586
  30   2.0000      -0.842346       -22.9214
  31   2.0000      -0.813194       -22.1281
  32   2.0000      -0.785333       -21.3700
  33   2.0000      -0.775578       -21.1045
  34   2.0000      -0.714140       -19.4327
  35   2.0000      -0.701471       -19.0880
  36   2.0000      -0.686905       -18.6916
  37   2.0000      -0.657608       -17.8944
  38   2.0000      -0.634480       -17.2651
  39   2.0000      -0.625443       -17.0192
  40   2.0000      -0.591691       -16.1007
  41   2.0000      -0.577572       -15.7165
  42   2.0000      -0.562520       -15.3069
  43   2.0000      -0.557054       -15.1582
  44   2.0000      -0.533813       -14.5258
  45   2.0000      -0.524769       -14.2797
  46   2.0000      -0.517732       -14.0882
  47   2.0000      -0.509683       -13.8692
  48   2.0000      -0.506546       -13.7838
  49   2.0000      -0.493067       -13.4170
  50   2.0000      -0.489712       -13.3257
  51   2.0000      -0.478660       -13.0250
  52   2.0000      -0.472413       -12.8550
  53   2.0000      -0.466986       -12.7073
  54   2.0000      -0.458572       -12.4784
  55   2.0000      -0.457589       -12.4516
  56   2.0000      -0.446272       -12.1437
  57   2.0000      -0.443262       -12.0618
  58   2.0000      -0.436636       -11.8815
  59   2.0000      -0.430660       -11.7189
  60   2.0000      -0.428245       -11.6531
  61   2.0000      -0.419080       -11.4038
  62   2.0000      -0.407058       -11.0766
  63   2.0000      -0.350953        -9.5499
  64   2.0000      -0.336973        -9.1695
  65   2.0000      -0.326014        -8.8713
  66   2.0000      -0.282662        -7.6916
  67   0.0000       0.027770         0.7557
  68   0.0000       0.079809         2.1717
  69   0.0000       0.106036         2.8854
  70   0.0000       0.124281         3.3819
  71   0.0000       0.131148         3.5687

MULLIKEN ATOMIC CHARGES
-----------------------
   0 S :    0.141079
   1 C :   -0.133882
   2 C :   -0.084496
   3 C :   -0.006212
   4 C :   -0.119929
   5 H :   -0.001204
   6 C :    0.113900
   7 H :    0.030741
   8 H :    0.014742
   9 C :   -0.116426
  10 H :    0.018259
  11 H :    0.034261
  12 C :   -0.012506
  13 H :    0.050235
  14 H :    0.025423
  15 H :    0.026020
  16 S :    0.086953
  17 C :   -0.104525
  18 C :   -0.057995
  19 C :   -0.075817
  20 C :   -0.157682
  21 H :    0.038088
  22 C :    0.086576
  23 H :    0.044874
  24 H :    0.036319
  25 C :   -0.089093
  26 H :    0.028342
  27 H :    0.032140
  28 C :   -0.023218
  29 H :    0.024419
  30 H :    0.024917
  31 H :    0.019763
  32 H :    0.040812
  33 H :    0.065121
Sum of atomic charges:   -0.0000000

LOEWDIN ATOMIC CHARGES
----------------------
   0 S :    0.432517
   1 C :   -0.214444
   2 C :   -0.064278
   3 C :   -0.058098
   4 C :   -0.200358
   5 H :    0.028172
   6 C :   -0.026071
   7 H :    0.030738
   8 H :    0.030262
   9 C :   -0.045041
  10 H :    0.010597
  11 H :    0.029151
  12 C :   -0.059454
  13 H :    0.036015
  14 H :    0.026756
  15 H :    0.022767
  16 S :    0.407972
  17 C :   -0.196328
  18 C :   -0.075508
  19 C :   -0.065773
  20 C :   -0.202643
  21 H :    0.036193
  22 C :   -0.028919
  23 H :    0.042062
  24 H :    0.033203
  25 C :   -0.042558
  26 H :    0.025625
  27 H :    0.026181
  28 C :   -0.059072
  29 H :    0.015920
  30 H :    0.021751
  31 H :    0.024322
  32 H :    0.027850
  33 H :    0.030491

  Mayer bond orders larger than 0.100000
B(  0-S ,  1-C ) :   1.1483 B(  0-S ,  4-C ) :   1.1573 B(  1-C ,  2-C ) :   1.6185
B(  1-C , 32-H ) :   0.9536 B(  2-C ,  3-C ) :   1.2835 B(  2-C ,  6-C ) :   1.0030
B(  3-C ,  4-C ) :   1.5403 B(  3-C ,  5-H ) :   0.9905 B(  4-C , 20-C ) :   1.0451
B(  6-C ,  7-H ) :   0.9172 B(  6-C ,  8-H ) :   0.9407 B(  6-C ,  9-C ) :   1.0857
B(  9-C , 10-H ) :   0.9415 B(  9-C , 11-H ) :   0.9615 B(  9-C , 12-C ) :   1.0778
B( 12-C , 13-H ) :   0.9744 B( 12-C , 14-H ) :   0.9749 B( 12-C , 15-H ) :   0.9734
B( 16-S , 17-C ) :   1.1454 B( 16-S , 20-C ) :   1.1506 B( 17-C , 18-C ) :   1.6225
B( 17-C , 33-H ) :   0.9666 B( 18-C , 19-C ) :   1.2357 B( 18-C , 21-H ) :   0.9764
B( 19-C , 20-C ) :   1.5896 B( 19-C , 22-C ) :   1.0200 B( 22-C , 23-H ) :   0.9305
B( 22-C , 24-H ) :   0.9429 B( 22-C , 25-C ) :   1.0659 B( 25-C , 26-H ) :   0.9585
B( 25-C , 27-H ) :   0.9560 B( 25-C , 28-C ) :   1.0661 B( 28-C , 29-H ) :   0.9767
B( 28-C , 30-H ) :   0.9733 B( 28-C , 31-H ) :   0.9754

Dispersion correction           -0.014198352
FINAL SINGLE POINT ENERGY     -1339.871888884851

DIPOLE MOMENT
-------------
                                X             Y             Z
Electronic contribution:    -21.37494      18.47930     -13.01444
Nuclear contribution   :     21.81237     -18.81862      13.20616
                        -----------------------------------------
Total Dipole Moment    :      0.43743      -0.33932       0.19173
                        -----------------------------------------
Magnitude (a.u.)       :      0.58587
Magnitude (Debye)      :      1.48915

Rotational constants in cm-1:     0.016462     0.009918     0.006805
Rotational constants in MHz :   493.504609   297.339977   204.020802

                             ****ORCA TERMINATED NORMALLY****
TOTAL RUN TIME: 0 days 0 hours 0 minutes 21 seconds 970 msec
