                         Program Version 4.2.1 -  RELEASE  -
|  1> ! wB97X-D3 SP def2-SVP
|  2> %pal
|  3> nprocs 24
|  4> end
|  5>
|  6> * xyz 0 1
|  7> S 	 -134.731 	 65.2242 	 -65.675
|  8> C 	 -133.808 	 66.4086 	 -66.4914
|  9> C 	 -133.64 	 67.5399 	 -65.7893
| 10> C 	 -134.414 	 67.5238 	 -64.5637
| 11> C 	 -134.802 	 66.2208 	 -64.2579
| 12> H 	 -134.564 	 68.3493 	 -63.936
| 13> C 	 -132.912 	 68.6929 	 -66.4511
| 14> H 	 -132.793 	 68.4645 	 -67.5145
| 15> H 	 -131.868 	 68.7408 	 -66.1508
| 16> C 	 -133.495 	 70.1129 	 -66.2815
| 17> H 	 -133.27 	 70.4918 	 -65.3123
| 18> H 	 -132.823 	 70.7019 	 -66.9887
| 19> C 	 -134.974 	 70.2962 	 -66.6318
| 20> H 	 -135.298 	 71.316 	 -67.0245
| 21> H 	 -135.159 	 69.6627 	 -67.491
| 22> H 	 -135.594 	 70.3338 	 -65.7709
| 23> S 	 -136.098 	 64.2313 	 -62.9437
| 24> C 	 -136.2 	 64.104 	 -61.2074
| 25> C 	 -135.612 	 65.2089 	 -60.6193
| 26> C 	 -134.997 	 66.1177 	 -61.6043
| 27> C 	 -135.168 	 65.7232 	 -62.935
| 28> H 	 -135.494 	 65.3668 	 -59.5569
| 29> C 	 -134.089 	 67.182 	 -61.0184
| 30> H 	 -134.478 	 67.3788 	 -60.0285
| 31> H 	 -134.285 	 68.0144 	 -61.6092
| 32> C 	 -132.579 	 66.8553 	 -61.0573
| 33> H 	 -132.054 	 67.7482 	 -61.1409
| 34> H 	 -132.337 	 66.3669 	 -61.9756
| 35> C 	 -132.034 	 65.9531 	 -59.9473
| 36> H 	 -132.83 	 65.2427 	 -59.6804
| 37> H 	 -131.721 	 66.5704 	 -59.1717
| 38> H 	 -131.211 	 65.4008 	 -60.3239
| 39> H 	 -133.688 	 66.4331 	 -67.5174
| 40> H 	 -136.633 	 63.267 	 -60.7309
| 41> *
| 42>
| 43>                          ****END OF INPUT****

CARTESIAN COORDINATES (ANGSTROEM)
---------------------------------
  S    -134.731000   65.224200  -65.675000
  C    -133.808000   66.408600  -66.491400
  C    -133.640000   67.539900  -65.789300
  C    -134.414000   67.523800  -64.563700
  C    -134.802000   66.220800  -64.257900
  H    -134.564000   68.349300  -63.936000
  C    -132.912000   68.692900  -66.451100
  H    -132.793000   68.464500  -67.514500
  H    -131.868000   68.740800  -66.150800
  C    -133.495000   70.112900  -66.281500
  H    -133.270000   70.491800  -65.312300
  H    -132.823000   70.701900  -66.988700
  C    -134.974000   70.296200  -66.631800
  H    -135.298000   71.316000  -67.024500
  H    -135.159000   69.662700  -67.491000
  H    -135.594000   70.333800  -65.770900
  S    -136.098000   64.231300  -62.943700
  C    -136.200000   64.104000  -61.207400
  C    -135.612000   65.208900  -60.619300
  C    -134.997000   66.117700  -61.604300
  C    -135.168000   65.723200  -62.935000
  H    -135.494000   65.366800  -59.556900
  C    -134.089000   67.182000  -61.018400
  H    -134.478000   67.378800  -60.028500
  H    -134.285000   68.014400  -61.609200
  C    -132.579000   66.855300  -61.057300
  H    -132.054000   67.748200  -61.140900
  H    -132.337000   66.366900  -61.975600
  C    -132.034000   65.953100  -59.947300
  H    -132.830000   65.242700  -59.680400
  H    -131.721000   66.570400  -59.171700
  H    -131.211000   65.400800  -60.323900
  H    -133.688000   66.433100  -67.517400
  H    -136.633000   63.267000  -60.730900

 Total Charge           Charge          ....    0
 Multiplicity           Mult            ....    1
 Number of Electrons    NEL             ....  134
 Basis Dimension        Dim             ....  322

ORBITAL ENERGIES
----------------

  NO   OCC          E(Eh)            E(eV)
   0   2.0000     -88.963852     -2420.8295
   1   2.0000     -88.960323     -2420.7334
   2   2.0000     -10.332781      -281.1693
   3   2.0000     -10.331204      -281.1263
   4   2.0000     -10.318944      -280.7927
   5   2.0000     -10.306958      -280.4666
   6   2.0000     -10.298134      -280.2265
   7   2.0000     -10.297980      -280.2223
   8   2.0000     -10.296747      -280.1887
   9   2.0000     -10.295148      -280.1452
  10   2.0000     -10.293642      -280.1042
  11   2.0000     -10.291241      -280.0389
  12   2.0000     -10.284569      -279.8574
  13   2.0000     -10.280030      -279.7338
  14   2.0000     -10.273616      -279.5593
  15   2.0000     -10.266658      -279.3700
  16   2.0000      -8.079840      -219.8636
  17   2.0000      -8.075589      -219.7479
  18   2.0000      -6.038342      -164.3116
  19   2.0000      -6.034326      -164.2024
  20   2.0000      -6.034204      -164.1990
  21   2.0000      -6.030381      -164.0950
  22   2.0000      -6.029902      -164.0820
  23   2.0000      -6.026342      -163.9851
  24   2.0000      -1.011396       -27.5215
  25   2.0000      -0.985659       -26.8212
  26   2.0000      -0.912638       -24.8341
  27   2.0000      -0.908903       -24.7325
  28   2.0000      -0.872950       -23.7542
  29   2.0000      -0.851703       -23.1760
  30   2.0000      -0.843105       -22.9421
  31   2.0000      -0.821135       -22.3442
  32   2.0000      -0.786250       -21.3950
  33   2.0000      -0.777902       -21.1678
  34   2.0000      -0.714754       -19.4494
  35   2.0000      -0.701203       -19.0807
  36   2.0000      -0.689309       -18.7570
  37   2.0000      -0.668114       -18.1803
  38   2.0000      -0.643988       -17.5238
  39   2.0000      -0.624134       -16.9835
  40   2.0000      -0.593165       -16.1408
  41   2.0000      -0.570213       -15.5163
  42   2.0000      -0.566446       -15.4138
  43   2.0000      -0.554690       -15.0939
  44   2.0000      -0.552224       -15.0268
  45   2.0000      -0.529203       -14.4004
  46   2.0000      -0.522413       -14.2156
  47   2.0000      -0.518915       -14.1204
  48   2.0000      -0.506988       -13.7958
  49   2.0000      -0.497192       -13.5293
  50   2.0000      -0.491054       -13.3623
  51   2.0000      -0.482792       -13.1374
  52   2.0000      -0.474536       -12.9128
  53   2.0000      -0.467602       -12.7241
  54   2.0000      -0.461497       -12.5580
  55   2.0000      -0.447791       -12.1850
  56   2.0000      -0.443547       -12.0695
  57   2.0000      -0.441157       -12.0045
  58   2.0000      -0.431807       -11.7501
  59   2.0000      -0.427741       -11.6394
  60   2.0000      -0.423415       -11.5217
  61   2.0000      -0.407307       -11.0834
  62   2.0000      -0.399920       -10.8824
  63   2.0000      -0.358681        -9.7602
  64   2.0000      -0.332243        -9.0408
  65   2.0000      -0.322480        -8.7751
  66   2.0000      -0.283582        -7.7167
  67   0.0000       0.016419         0.4468
  68   0.0000       0.090351         2.4586
  69   0.0000       0.097432         2.6513
  70   0.0000       0.118659         3.2289
  71   0.0000       0.131835         3.5874

MULLIKEN ATOMIC CHARGES
-----------------------
   0 S :    0.112959
   1 C :   -0.081604
   2 C :   -0.090821
   3 C :    0.023231
   4 C :   -0.105427
   5 H :   -0.004489
   6 C :    0.051220
   7 H :    0.012770
   8 H :    0.036499
   9 C :   -0.093628
  10 H :    0.021967
  11 H :    0.035301
  12 C :   -0.034475
  13 H :    0.025430
  14 H :    0.038093
  15 H :    0.031708
  16 S :    0.069090
  17 C :   -0.066743
  18 C :   -0.025361
  19 C :   -0.117021
  20 C :   -0.115578
  21 H :    0.023477
  22 C :    0.108888
  23 H :    0.012616
  24 H :   -0.006191
  25 C :   -0.036354
  26 H :    0.006364
  27 H :    0.019297
  28 C :   -0.008595
  29 H :    0.032020
  30 H :    0.022998
  31 H :    0.025021
  32 H :    0.025941
  33 H :    0.051399
Sum of atomic charges:   -0.0000000

LOEWDIN ATOMIC CHARGES
----------------------
   0 S :    0.418656
   1 C :   -0.201033
   2 C :   -0.060400
   3 C :   -0.053674
   4 C :   -0.190799
   5 H :    0.018862
   6 C :   -0.033517
   7 H :    0.027914
   8 H :    0.036017
   9 C :   -0.046009
  10 H :    0.015492
  11 H :    0.034313
  12 C :   -0.075399
  13 H :    0.035165
  14 H :    0.030031
  15 H :    0.024593
  16 S :    0.395074
  17 C :   -0.173029
  18 C :   -0.073711
  19 C :   -0.053215
  20 C :   -0.192198
  21 H :    0.029206
  22 C :   -0.024480
  23 H :    0.027622
  24 H :    0.018770
  25 C :   -0.030059
  26 H :    0.014719
  27 H :    0.025370
  28 C :   -0.052404
  29 H :    0.029435
  30 H :    0.016293
  31 H :    0.024716
  32 H :    0.014233
  33 H :    0.023445

  Mayer bond orders larger than 0.100000
B(  0-S ,  1-C ) :   1.1260 B(  0-S ,  4-C ) :   1.1580 B(  1-C ,  2-C ) :   1.6314
B(  1-C , 32-H ) :   0.9697 B(  2-C ,  3-C ) :   1.2417 B(  2-C ,  6-C ) :   1.0189
B(  3-C ,  4-C ) :   1.5392 B(  3-C ,  5-H ) :   1.0071 B(  4-C , 20-C ) :   1.0804
B(  6-C ,  7-H ) :   0.9448 B(  6-C ,  8-H ) :   0.9287 B(  6-C ,  9-C ) :   1.0811
B(  9-C , 10-H ) :   0.9564 B(  9-C , 11-H ) :   0.9538 B(  9-C , 12-C ) :   1.0719
B( 12-C , 13-H ) :   0.9714 B( 12-C , 14-H ) :   0.9764 B( 12-C , 15-H ) :   0.9724
B( 16-S , 17-C ) :   1.1638 B( 16-S , 20-C ) :   1.1230 B( 17-C , 18-C ) :   1.5821
B( 17-C , 33-H ) :   0.9772 B( 18-C , 19-C ) :   1.2497 B( 18-C , 21-H ) :   0.9858
B( 19-C , 20-C ) :   1.5863 B( 19-C , 22-C ) :   1.0454 B( 22-C , 23-H ) :   0.9336
B( 22-C , 24-H ) :   0.9231 B( 22-C , 25-C ) :   1.0670 B( 25-C , 26-H ) :   0.9558
B( 25-C , 27-H ) :   0.9584 B( 25-C , 28-C ) :   1.0722 B( 28-C , 29-H ) :   0.9760
B( 28-C , 30-H ) :   0.9779 B( 28-C , 31-H ) :   0.9751

Dispersion correction           -0.014631360
FINAL SINGLE POINT ENERGY     -1339.849022337605

DIPOLE MOMENT
-------------
                                X             Y             Z
Electronic contribution:    -13.15005     -21.41277      -4.17047
Nuclear contribution   :     13.51158      22.02749       4.35451
                        -----------------------------------------
Total Dipole Moment    :      0.36153       0.61472       0.18404
                        -----------------------------------------
Magnitude (a.u.)       :      0.73651
Magnitude (Debye)      :      1.87206

Rotational constants in cm-1:     0.019641     0.008798     0.007092
Rotational constants in MHz :   588.823630   263.754138   212.610763

                             ****ORCA TERMINATED NORMALLY****
TOTAL RUN TIME: 0 days 0 hours 0 minutes 22 seconds 242 msec
