                         Program Version 4.2.1 -  RELEASE  -
|  1> ! wB97X-D3 SP def2-SVP
|  2> %pal
|  3> nprocs 24
|  4> end
|  5>
|  6> * xyz 0 1
|  7> S 	 -24.4422 	 -36.5398 	 -94.2923
|  8> C 	 -22.9272 	 -37.3408 	 -94.6485
|  9> C 	 -21.9715 	 -36.413 	 -95.1337
| 10> C 	 -22.4806 	 -35.064 	 -95.1891
| 11> C 	 -23.7955 	 -34.9568 	 -94.7028
| 12> H 	 -21.9093 	 -34.2085 	 -95.5152
| 13> C 	 -20.5275 	 -36.8504 	 -95.5926
| 14> H 	 -20.4003 	 -36.7577 	 -96.6854
| 15> H 	 -20.3588 	 -37.9106 	 -95.4037
| 16> C 	 -19.3689 	 -36.1666 	 -94.885
| 17> H 	 -19.4366 	 -35.0602 	 -95.0506
| 18> H 	 -19.5052 	 -36.2538 	 -93.8021
| 19> C 	 -18.0621 	 -36.771 	 -95.3661
| 20> H 	 -17.9397 	 -37.8586 	 -95.4705
| 21> H 	 -17.767 	 -36.3642 	 -96.3293
| 22> H 	 -17.2658 	 -36.3974 	 -94.6823
| 23> S 	 -26.2264 	 -33.5883 	 -94.8336
| 24> C 	 -26.3006 	 -32.0183 	 -94.2144
| 25> C 	 -25.057 	 -31.6587 	 -93.7459
| 26> C 	 -24.0016 	 -32.5249 	 -94.0703
| 27> C 	 -24.5121 	 -33.6712 	 -94.5445
| 28> H 	 -24.9978 	 -30.6353 	 -93.281
| 29> C 	 -22.6315 	 -32.3102 	 -93.5967
| 30> H 	 -22.1878 	 -33.1661 	 -93.1204
| 31> H 	 -22.7178 	 -31.5145 	 -92.8521
| 32> C 	 -21.6686 	 -31.734 	 -94.6603
| 33> H 	 -22.0921 	 -30.7643 	 -95.0318
| 34> H 	 -21.6511 	 -32.2798 	 -95.5864
| 35> C 	 -20.1962 	 -31.5117 	 -94.2543
| 36> H 	 -19.5481 	 -32.389 	 -94.1755
| 37> H 	 -20.0905 	 -30.911 	 -93.3218
| 38> H 	 -19.8864 	 -30.8275 	 -94.9971
| 39> H 	 -22.7325 	 -38.3784 	 -94.4331
| 40> H 	 -27.1945 	 -31.4674 	 -93.8626
| 41> *
| 42>
| 43>                          ****END OF INPUT****

CARTESIAN COORDINATES (ANGSTROEM)
---------------------------------
  S    -24.442200  -36.539800  -94.292300
  C    -22.927200  -37.340800  -94.648500
  C    -21.971500  -36.413000  -95.133700
  C    -22.480600  -35.064000  -95.189100
  C    -23.795500  -34.956800  -94.702800
  H    -21.909300  -34.208500  -95.515200
  C    -20.527500  -36.850400  -95.592600
  H    -20.400300  -36.757700  -96.685400
  H    -20.358800  -37.910600  -95.403700
  C    -19.368900  -36.166600  -94.885000
  H    -19.436600  -35.060200  -95.050600
  H    -19.505200  -36.253800  -93.802100
  C    -18.062100  -36.771000  -95.366100
  H    -17.939700  -37.858600  -95.470500
  H    -17.767000  -36.364200  -96.329300
  H    -17.265800  -36.397400  -94.682300
  S    -26.226400  -33.588300  -94.833600
  C    -26.300600  -32.018300  -94.214400
  C    -25.057000  -31.658700  -93.745900
  C    -24.001600  -32.524900  -94.070300
  C    -24.512100  -33.671200  -94.544500
  H    -24.997800  -30.635300  -93.281000
  C    -22.631500  -32.310200  -93.596700
  H    -22.187800  -33.166100  -93.120400
  H    -22.717800  -31.514500  -92.852100
  C    -21.668600  -31.734000  -94.660300
  H    -22.092100  -30.764300  -95.031800
  H    -21.651100  -32.279800  -95.586400
  C    -20.196200  -31.511700  -94.254300
  H    -19.548100  -32.389000  -94.175500
  H    -20.090500  -30.911000  -93.321800
  H    -19.886400  -30.827500  -94.997100
  H    -22.732500  -38.378400  -94.433100
  H    -27.194500  -31.467400  -93.862600

 Total Charge           Charge          ....    0
 Multiplicity           Mult            ....    1
 Number of Electrons    NEL             ....  134
 Basis Dimension        Dim             ....  322

ORBITAL ENERGIES
----------------

  NO   OCC          E(Eh)            E(eV)
   0   2.0000     -88.969960     -2420.9957
   1   2.0000     -88.965066     -2420.8625
   2   2.0000     -10.334016      -281.2029
   3   2.0000     -10.322745      -280.8962
   4   2.0000     -10.317633      -280.7571
   5   2.0000     -10.310876      -280.5732
   6   2.0000     -10.309770      -280.5431
   7   2.0000     -10.296869      -280.1920
   8   2.0000     -10.295505      -280.1549
   9   2.0000     -10.292692      -280.0784
  10   2.0000     -10.291909      -280.0571
  11   2.0000     -10.291243      -280.0389
  12   2.0000     -10.290562      -280.0204
  13   2.0000     -10.287623      -279.9404
  14   2.0000     -10.282995      -279.8145
  15   2.0000     -10.280904      -279.7576
  16   2.0000      -8.084099      -219.9795
  17   2.0000      -8.081209      -219.9009
  18   2.0000      -6.042673      -164.4295
  19   2.0000      -6.039569      -164.3450
  20   2.0000      -6.038578      -164.3181
  21   2.0000      -6.035563      -164.2360
  22   2.0000      -6.034961      -164.2196
  23   2.0000      -6.031989      -164.1388
  24   2.0000      -1.016554       -27.6618
  25   2.0000      -0.982981       -26.7483
  26   2.0000      -0.915905       -24.9230
  27   2.0000      -0.910543       -24.7771
  28   2.0000      -0.868364       -23.6294
  29   2.0000      -0.858500       -23.3610
  30   2.0000      -0.844401       -22.9773
  31   2.0000      -0.810683       -22.0598
  32   2.0000      -0.788109       -21.4455
  33   2.0000      -0.772194       -21.0125
  34   2.0000      -0.706366       -19.2212
  35   2.0000      -0.700232       -19.0543
  36   2.0000      -0.692334       -18.8394
  37   2.0000      -0.662785       -18.0353
  38   2.0000      -0.639021       -17.3886
  39   2.0000      -0.621865       -16.9218
  40   2.0000      -0.600313       -16.3354
  41   2.0000      -0.566907       -15.4263
  42   2.0000      -0.562252       -15.2997
  43   2.0000      -0.558063       -15.1857
  44   2.0000      -0.533770       -14.5246
  45   2.0000      -0.521083       -14.1794
  46   2.0000      -0.515485       -14.0271
  47   2.0000      -0.513787       -13.9809
  48   2.0000      -0.502072       -13.6621
  49   2.0000      -0.499264       -13.5857
  50   2.0000      -0.494245       -13.4491
  51   2.0000      -0.486334       -13.2338
  52   2.0000      -0.477581       -12.9956
  53   2.0000      -0.465272       -12.6607
  54   2.0000      -0.462396       -12.5824
  55   2.0000      -0.446661       -12.1543
  56   2.0000      -0.445770       -12.1300
  57   2.0000      -0.438810       -11.9406
  58   2.0000      -0.435733       -11.8569
  59   2.0000      -0.427522       -11.6335
  60   2.0000      -0.420197       -11.4341
  61   2.0000      -0.414595       -11.2817
  62   2.0000      -0.410943       -11.1823
  63   2.0000      -0.352183        -9.5834
  64   2.0000      -0.334259        -9.0956
  65   2.0000      -0.331478        -9.0200
  66   2.0000      -0.287951        -7.8356
  67   0.0000       0.026726         0.7272
  68   0.0000       0.077675         2.1136
  69   0.0000       0.117512         3.1977
  70   0.0000       0.122950         3.3456
  71   0.0000       0.127292         3.4638

MULLIKEN ATOMIC CHARGES
-----------------------
   0 S :    0.117789
   1 C :   -0.127448
   2 C :   -0.069884
   3 C :    0.032935
   4 C :   -0.132901
   5 H :   -0.015146
   6 C :    0.047438
   7 H :    0.040462
   8 H :    0.010840
   9 C :   -0.096464
  10 H :    0.035829
  11 H :    0.034016
  12 C :   -0.053500
  13 H :    0.040585
  14 H :    0.025986
  15 H :    0.035174
  16 S :    0.119390
  17 C :   -0.095052
  18 C :   -0.086420
  19 C :   -0.013751
  20 C :   -0.151855
  21 H :    0.033277
  22 C :    0.095614
  23 H :    0.035458
  24 H :    0.014100
  25 C :   -0.128273
  26 H :    0.021601
  27 H :    0.029814
  28 C :   -0.023816
  29 H :    0.047754
  30 H :    0.027206
  31 H :    0.025939
  32 H :    0.051949
  33 H :    0.071353
Sum of atomic charges:    0.0000000

LOEWDIN ATOMIC CHARGES
----------------------
   0 S :    0.407639
   1 C :   -0.202466
   2 C :   -0.057058
   3 C :   -0.064540
   4 C :   -0.186065
   5 H :    0.027468
   6 C :   -0.034002
   7 H :    0.032607
   8 H :    0.026202
   9 C :   -0.048515
  10 H :    0.025956
  11 H :    0.024828
  12 C :   -0.071368
  13 H :    0.028283
  14 H :    0.025469
  15 H :    0.032600
  16 S :    0.430027
  17 C :   -0.220720
  18 C :   -0.075830
  19 C :   -0.067292
  20 C :   -0.191195
  21 H :    0.037293
  22 C :   -0.028798
  23 H :    0.030280
  24 H :    0.033716
  25 C :   -0.041772
  26 H :    0.028837
  27 H :    0.015536
  28 C :   -0.066481
  29 H :    0.025036
  30 H :    0.028386
  31 H :    0.026437
  32 H :    0.027786
  33 H :    0.041718

  Mayer bond orders larger than 0.100000
B(  0-S ,  1-C ) :   1.1415 B(  0-S ,  4-C ) :   1.1608 B(  1-C ,  2-C ) :   1.5895
B(  1-C , 32-H ) :   0.9696 B(  2-C ,  3-C ) :   1.2591 B(  2-C ,  6-C ) :   1.0135
B(  3-C ,  4-C ) :   1.5306 B(  3-C ,  5-H ) :   0.9925 B(  4-C , 20-C ) :   1.0497
B(  6-C ,  7-H ) :   0.9457 B(  6-C ,  8-H ) :   0.9482 B(  6-C ,  9-C ) :   1.0571
B(  9-C , 10-H ) :   0.9495 B(  9-C , 11-H ) :   0.9587 B(  9-C , 12-C ) :   1.0790
B( 12-C , 13-H ) :   0.9762 B( 12-C , 14-H ) :   0.9721 B( 12-C , 15-H ) :   0.9723
B( 16-S , 17-C ) :   1.1573 B( 16-S , 20-C ) :   1.1490 B( 17-C , 18-C ) :   1.6261
B( 17-C , 33-H ) :   0.9567 B( 18-C , 19-C ) :   1.2587 B( 18-C , 21-H ) :   0.9734
B( 19-C , 20-C ) :   1.5772 B( 19-C , 22-C ) :   1.0574 B( 22-C , 23-H ) :   0.9303
B( 22-C , 24-H ) :   0.9259 B( 22-C , 25-C ) :   1.0482 B( 25-C , 26-H ) :   0.9483
B( 25-C , 27-H ) :   0.9526 B( 25-C , 28-C ) :   1.0789 B( 28-C , 29-H ) :   0.9734
B( 28-C , 30-H ) :   0.9708 B( 28-C , 31-H ) :   0.9719

Dispersion correction           -0.014592488
FINAL SINGLE POINT ENERGY     -1339.881044843825

DIPOLE MOMENT
-------------
                                X             Y             Z
Electronic contribution:    -34.26112      -5.80043       0.85311
Nuclear contribution   :     34.94664       6.06555      -0.69410
                        -----------------------------------------
Total Dipole Moment    :      0.68552       0.26512       0.15901
                        -----------------------------------------
Magnitude (a.u.)       :      0.75200
Magnitude (Debye)      :      1.91144

Rotational constants in cm-1:     0.018872     0.009380     0.006512
Rotational constants in MHz :   565.762807   281.203171   195.230851

                             ****ORCA TERMINATED NORMALLY****
TOTAL RUN TIME: 0 days 0 hours 0 minutes 22 seconds 148 msec
