                         Program Version 4.2.1 -  RELEASE  -
|  1> ! wB97X-D3 SP def2-SVP
|  2> %pal
|  3> nprocs 24
|  4> end
|  5>
|  6> * xyz 0 1
|  7> S 	 -34.6301 	 8.99424 	 8.98974
|  8> C 	 -35.0515 	 10.6983 	 8.7604
|  9> C 	 -34.4873 	 11.5091 	 9.76323
| 10> C 	 -33.618 	 10.7916 	 10.5976
| 11> C 	 -33.4986 	 9.40919 	 10.2766
| 12> H 	 -33.0823 	 11.1121 	 11.4691
| 13> C 	 -34.689 	 13.0591 	 9.8307
| 14> H 	 -35.556 	 13.3436 	 9.26837
| 15> H 	 -33.8031 	 13.5007 	 9.34168
| 16> C 	 -34.7077 	 13.7372 	 11.231
| 17> H 	 -35.5247 	 13.2325 	 11.821
| 18> H 	 -33.7298 	 13.5737 	 11.7783
| 19> C 	 -34.9361 	 15.2894 	 11.1567
| 20> H 	 -34.8933 	 15.7766 	 12.1046
| 21> H 	 -34.3156 	 15.8433 	 10.4796
| 22> H 	 -35.9476 	 15.3832 	 10.7733
| 23> S 	 -31.7669 	 7.42704 	 9.9598
| 24> C 	 -31.0073 	 6.7083 	 11.3218
| 25> C 	 -31.2879 	 7.37566 	 12.5255
| 26> C 	 -32.292 	 8.32259 	 12.3677
| 27> C 	 -32.7069 	 8.44283 	 10.9946
| 28> H 	 -30.9475 	 7.07885 	 13.4845
| 29> C 	 -32.6947 	 9.27026 	 13.5199
| 30> H 	 -32.1385 	 10.2013 	 13.515
| 31> H 	 -32.3099 	 8.86738 	 14.4709
| 32> C 	 -34.3091 	 9.52315 	 13.6453
| 33> H 	 -34.8626 	 8.67173 	 13.8501
| 34> H 	 -34.7902 	 9.89048 	 12.7433
| 35> C 	 -34.6497 	 10.3909 	 14.9258
| 36> H 	 -34.1271 	 11.327 	 14.9697
| 37> H 	 -34.4345 	 9.76031 	 15.7349
| 38> H 	 -35.7141 	 10.5374 	 14.9227
| 39> H 	 -35.9044 	 11.126 	 8.19457
| 40> H 	 -30.3256 	 5.90901 	 11.3675
| 41> *
| 42>
| 43>                          ****END OF INPUT****

CARTESIAN COORDINATES (ANGSTROEM)
---------------------------------
  S    -34.630100    8.994240    8.989740
  C    -35.051500   10.698300    8.760400
  C    -34.487300   11.509100    9.763230
  C    -33.618000   10.791600   10.597600
  C    -33.498600    9.409190   10.276600
  H    -33.082300   11.112100   11.469100
  C    -34.689000   13.059100    9.830700
  H    -35.556000   13.343600    9.268370
  H    -33.803100   13.500700    9.341680
  C    -34.707700   13.737200   11.231000
  H    -35.524700   13.232500   11.821000
  H    -33.729800   13.573700   11.778300
  C    -34.936100   15.289400   11.156700
  H    -34.893300   15.776600   12.104600
  H    -34.315600   15.843300   10.479600
  H    -35.947600   15.383200   10.773300
  S    -31.766900    7.427040    9.959800
  C    -31.007300    6.708300   11.321800
  C    -31.287900    7.375660   12.525500
  C    -32.292000    8.322590   12.367700
  C    -32.706900    8.442830   10.994600
  H    -30.947500    7.078850   13.484500
  C    -32.694700    9.270260   13.519900
  H    -32.138500   10.201300   13.515000
  H    -32.309900    8.867380   14.470900
  C    -34.309100    9.523150   13.645300
  H    -34.862600    8.671730   13.850100
  H    -34.790200    9.890480   12.743300
  C    -34.649700   10.390900   14.925800
  H    -34.127100   11.327000   14.969700
  H    -34.434500    9.760310   15.734900
  H    -35.714100   10.537400   14.922700
  H    -35.904400   11.126000    8.194570
  H    -30.325600    5.909010   11.367500

 Total Charge           Charge          ....    0
 Multiplicity           Mult            ....    1
 Number of Electrons    NEL             ....  134
 Basis Dimension        Dim             ....  322

ORBITAL ENERGIES
----------------

  NO   OCC          E(Eh)            E(eV)
   0   2.0000     -88.971920     -2421.0490
   1   2.0000     -88.971525     -2421.0383
   2   2.0000     -10.330967      -281.1199
   3   2.0000     -10.326543      -280.9995
   4   2.0000     -10.317339      -280.7491
   5   2.0000     -10.313036      -280.6320
   6   2.0000     -10.306846      -280.4635
   7   2.0000     -10.305706      -280.4325
   8   2.0000     -10.303663      -280.3769
   9   2.0000     -10.300800      -280.2990
  10   2.0000     -10.298335      -280.2319
  11   2.0000     -10.292155      -280.0638
  12   2.0000     -10.289852      -280.0011
  13   2.0000     -10.284061      -279.8435
  14   2.0000     -10.279206      -279.7114
  15   2.0000     -10.271014      -279.4885
  16   2.0000      -8.087156      -220.0627
  17   2.0000      -8.085094      -220.0066
  18   2.0000      -6.045404      -164.5038
  19   2.0000      -6.043519      -164.4525
  20   2.0000      -6.041481      -164.3971
  21   2.0000      -6.039802      -164.3514
  22   2.0000      -6.038268      -164.3096
  23   2.0000      -6.035963      -164.2469
  24   2.0000      -1.007254       -27.4088
  25   2.0000      -0.980332       -26.6762
  26   2.0000      -0.903707       -24.5911
  27   2.0000      -0.895189       -24.3593
  28   2.0000      -0.869889       -23.6709
  29   2.0000      -0.852530       -23.1985
  30   2.0000      -0.845364       -23.0035
  31   2.0000      -0.808703       -22.0059
  32   2.0000      -0.783191       -21.3117
  33   2.0000      -0.768751       -20.9188
  34   2.0000      -0.711938       -19.3728
  35   2.0000      -0.701975       -19.1017
  36   2.0000      -0.688559       -18.7367
  37   2.0000      -0.665984       -18.1223
  38   2.0000      -0.636315       -17.3150
  39   2.0000      -0.616825       -16.7847
  40   2.0000      -0.594857       -16.1869
  41   2.0000      -0.567779       -15.4501
  42   2.0000      -0.560999       -15.2656
  43   2.0000      -0.554308       -15.0835
  44   2.0000      -0.524689       -14.2775
  45   2.0000      -0.522374       -14.2145
  46   2.0000      -0.507580       -13.8120
  47   2.0000      -0.504596       -13.7308
  48   2.0000      -0.499307       -13.5868
  49   2.0000      -0.496698       -13.5158
  50   2.0000      -0.491975       -13.3873
  51   2.0000      -0.489888       -13.3305
  52   2.0000      -0.476114       -12.9557
  53   2.0000      -0.469886       -12.7863
  54   2.0000      -0.458150       -12.4669
  55   2.0000      -0.451055       -12.2738
  56   2.0000      -0.443616       -12.0714
  57   2.0000      -0.437866       -11.9149
  58   2.0000      -0.430342       -11.7102
  59   2.0000      -0.428882       -11.6705
  60   2.0000      -0.425089       -11.5673
  61   2.0000      -0.418807       -11.3963
  62   2.0000      -0.412762       -11.2318
  63   2.0000      -0.347782        -9.4636
  64   2.0000      -0.333818        -9.0837
  65   2.0000      -0.331824        -9.0294
  66   2.0000      -0.279734        -7.6120
  67   0.0000       0.018337         0.4990
  68   0.0000       0.069154         1.8818
  69   0.0000       0.110568         3.0087
  70   0.0000       0.114523         3.1163
  71   0.0000       0.126270         3.4360

MULLIKEN ATOMIC CHARGES
-----------------------
   0 S :    0.121152
   1 C :   -0.124693
   2 C :   -0.083322
   3 C :    0.031290
   4 C :   -0.159473
   5 H :   -0.001123
   6 C :    0.064071
   7 H :    0.013421
   8 H :    0.047569
   9 C :   -0.139241
  10 H :    0.045579
  11 H :    0.045171
  12 C :   -0.025138
  13 H :    0.034971
  14 H :    0.027557
  15 H :    0.023102
  16 S :    0.135431
  17 C :   -0.058533
  18 C :   -0.040770
  19 C :   -0.008145
  20 C :   -0.162189
  21 H :    0.004769
  22 C :    0.030907
  23 H :    0.042157
  24 H :    0.006824
  25 C :   -0.076526
  26 H :    0.012940
  27 H :    0.048680
  28 C :   -0.029990
  29 H :    0.030717
  30 H :    0.020060
  31 H :    0.027562
  32 H :    0.061282
  33 H :    0.033933
Sum of atomic charges:   -0.0000000

LOEWDIN ATOMIC CHARGES
----------------------
   0 S :    0.403074
   1 C :   -0.212510
   2 C :   -0.060688
   3 C :   -0.061269
   4 C :   -0.198535
   5 H :    0.027001
   6 C :   -0.029570
   7 H :    0.022556
   8 H :    0.038582
   9 C :   -0.046471
  10 H :    0.028576
  11 H :    0.025563
  12 C :   -0.062458
  13 H :    0.024975
  14 H :    0.022363
  15 H :    0.025554
  16 S :    0.453471
  17 C :   -0.192979
  18 C :   -0.065721
  19 C :   -0.054171
  20 C :   -0.212613
  21 H :    0.026055
  22 C :   -0.031273
  23 H :    0.029163
  24 H :    0.029221
  25 C :   -0.030359
  26 H :    0.016451
  27 H :    0.023497
  28 C :   -0.055093
  29 H :    0.018535
  30 H :    0.017396
  31 H :    0.025535
  32 H :    0.037081
  33 H :    0.019062

  Mayer bond orders larger than 0.100000
B(  0-S ,  1-C ) :   1.1378 B(  0-S ,  4-C ) :   1.1632 B(  1-C ,  2-C ) :   1.5856
B(  1-C ,  4-C ) :   0.1112 B(  1-C , 32-H ) :   0.9579 B(  2-C ,  3-C ) :   1.2740
B(  2-C ,  6-C ) :   1.0165 B(  3-C ,  4-C ) :   1.5233 B(  3-C ,  5-H ) :   0.9961
B(  4-C , 20-C ) :   1.0617 B(  6-C ,  7-H ) :   0.9464 B(  6-C ,  8-H ) :   0.9412
B(  6-C ,  9-C ) :   1.0549 B(  9-C , 10-H ) :   0.9622 B(  9-C , 11-H ) :   0.9518
B(  9-C , 12-C ) :   1.0738 B( 12-C , 13-H ) :   0.9760 B( 12-C , 14-H ) :   0.9769
B( 12-C , 15-H ) :   0.9751 B( 16-S , 17-C ) :   1.1850 B( 16-S , 20-C ) :   1.1766
B( 17-C , 18-C ) :   1.5436 B( 17-C , 20-C ) :   0.1135 B( 17-C , 33-H ) :   0.9720
B( 18-C , 19-C ) :   1.3307 B( 18-C , 21-H ) :   0.9885 B( 19-C , 20-C ) :   1.4969
B( 19-C , 22-C ) :   1.0359 B( 22-C , 23-H ) :   0.9407 B( 22-C , 24-H ) :   0.9359
B( 22-C , 25-C ) :   1.0351 B( 25-C , 26-H ) :   0.9572 B( 25-C , 27-H ) :   0.9636
B( 25-C , 28-C ) :   1.0776 B( 28-C , 29-H ) :   0.9795 B( 28-C , 30-H ) :   0.9800
B( 28-C , 31-H ) :   0.9751

Dispersion correction           -0.014574491
FINAL SINGLE POINT ENERGY     -1339.858383022850

DIPOLE MOMENT
-------------
                                X             Y             Z
Electronic contribution:      8.72258     -25.56107     -19.90488
Nuclear contribution   :     -8.74930      26.03811      20.47875
                        -----------------------------------------
Total Dipole Moment    :     -0.02672       0.47704       0.57387
                        -----------------------------------------
Magnitude (a.u.)       :      0.74673
Magnitude (Debye)      :      1.89804

Rotational constants in cm-1:     0.018006     0.009146     0.006864
Rotational constants in MHz :   539.814398   274.192317   205.768897

                             ****ORCA TERMINATED NORMALLY****
TOTAL RUN TIME: 0 days 0 hours 0 minutes 22 seconds 79 msec
