                         Program Version 4.2.1 -  RELEASE  -
|  1> ! wB97X-D3 SP def2-SVP
|  2> %pal
|  3> nprocs 24
|  4> end
|  5>
|  6> * xyz 0 1
|  7> S 	 -27.2884 	 -37.9705 	 -93.3086
|  8> C 	 -27.152 	 -36.232 	 -93.0859
|  9> C 	 -27.9744 	 -35.8447 	 -92.0311
| 10> C 	 -28.6291 	 -36.9748 	 -91.3499
| 11> C 	 -28.3544 	 -38.213 	 -91.943
| 12> H 	 -29.2951 	 -36.9756 	 -90.4746
| 13> C 	 -28.1604 	 -34.4353 	 -91.5587
| 14> H 	 -28.9801 	 -34.4493 	 -90.8573
| 15> H 	 -28.4254 	 -33.8019 	 -92.3714
| 16> C 	 -27.0388 	 -33.7925 	 -90.8073
| 17> H 	 -27.3865 	 -32.8006 	 -90.627
| 18> H 	 -26.894 	 -34.3343 	 -89.863
| 19> C 	 -25.635 	 -33.6978 	 -91.4799
| 20> H 	 -24.9591 	 -32.9924 	 -90.8918
| 21> H 	 -25.3231 	 -34.6934 	 -91.3863
| 22> H 	 -25.5582 	 -33.3075 	 -92.5028
| 23> S 	 -28.1488 	 -40.4903 	 -90.3426
| 24> C 	 -29.5587 	 -41.5632 	 -90.1807
| 25> C 	 -30.6381 	 -41.1161 	 -90.949
| 26> C 	 -30.3355 	 -39.8965 	 -91.6407
| 27> C 	 -29.0052 	 -39.4904 	 -91.4903
| 28> H 	 -31.5622 	 -41.6102 	 -91.0904
| 29> C 	 -31.381 	 -39.185 	 -92.5128
| 30> H 	 -31.1355 	 -38.1125 	 -92.4083
| 31> H 	 -32.318 	 -39.3111 	 -92.0012
| 32> C 	 -31.4196 	 -39.5196 	 -93.9961
| 33> H 	 -30.5013 	 -39.1652 	 -94.3859
| 34> H 	 -32.2856 	 -39.0801 	 -94.5645
| 35> C 	 -31.456 	 -40.9754 	 -94.2734
| 36> H 	 -31.5518 	 -41.1594 	 -95.3286
| 37> H 	 -32.2519 	 -41.4301 	 -93.5968
| 38> H 	 -30.5607 	 -41.395 	 -93.8991
| 39> H 	 -26.5931 	 -35.6247 	 -93.7374
| 40> H 	 -29.5836 	 -42.5191 	 -89.6441
| 41> *
| 42>
| 43>                          ****END OF INPUT****

CARTESIAN COORDINATES (ANGSTROEM)
---------------------------------
  S    -27.288400  -37.970500  -93.308600
  C    -27.152000  -36.232000  -93.085900
  C    -27.974400  -35.844700  -92.031100
  C    -28.629100  -36.974800  -91.349900
  C    -28.354400  -38.213000  -91.943000
  H    -29.295100  -36.975600  -90.474600
  C    -28.160400  -34.435300  -91.558700
  H    -28.980100  -34.449300  -90.857300
  H    -28.425400  -33.801900  -92.371400
  C    -27.038800  -33.792500  -90.807300
  H    -27.386500  -32.800600  -90.627000
  H    -26.894000  -34.334300  -89.863000
  C    -25.635000  -33.697800  -91.479900
  H    -24.959100  -32.992400  -90.891800
  H    -25.323100  -34.693400  -91.386300
  H    -25.558200  -33.307500  -92.502800
  S    -28.148800  -40.490300  -90.342600
  C    -29.558700  -41.563200  -90.180700
  C    -30.638100  -41.116100  -90.949000
  C    -30.335500  -39.896500  -91.640700
  C    -29.005200  -39.490400  -91.490300
  H    -31.562200  -41.610200  -91.090400
  C    -31.381000  -39.185000  -92.512800
  H    -31.135500  -38.112500  -92.408300
  H    -32.318000  -39.311100  -92.001200
  C    -31.419600  -39.519600  -93.996100
  H    -30.501300  -39.165200  -94.385900
  H    -32.285600  -39.080100  -94.564500
  C    -31.456000  -40.975400  -94.273400
  H    -31.551800  -41.159400  -95.328600
  H    -32.251900  -41.430100  -93.596800
  H    -30.560700  -41.395000  -93.899100
  H    -26.593100  -35.624700  -93.737400
  H    -29.583600  -42.519100  -89.644100

 Total Charge           Charge          ....    0
 Multiplicity           Mult            ....    1
 Number of Electrons    NEL             ....  134
 Basis Dimension        Dim             ....  322

ORBITAL ENERGIES
----------------

  NO   OCC          E(Eh)            E(eV)
   0   2.0000     -88.970213     -2421.0026
   1   2.0000     -88.967562     -2420.9304
   2   2.0000     -10.334818      -281.2247
   3   2.0000     -10.331682      -281.1394
   4   2.0000     -10.325660      -280.9755
   5   2.0000     -10.317491      -280.7532
   6   2.0000     -10.307391      -280.4784
   7   2.0000     -10.306254      -280.4474
   8   2.0000     -10.302246      -280.3384
   9   2.0000     -10.296432      -280.1802
  10   2.0000     -10.287794      -279.9451
  11   2.0000     -10.283998      -279.8418
  12   2.0000     -10.282879      -279.8114
  13   2.0000     -10.278472      -279.6914
  14   2.0000     -10.277006      -279.6516
  15   2.0000     -10.267074      -279.3813
  16   2.0000      -8.084298      -219.9849
  17   2.0000      -8.081825      -219.9176
  18   2.0000      -6.042864      -164.4347
  19   2.0000      -6.040366      -164.3667
  20   2.0000      -6.038785      -164.3237
  21   2.0000      -6.036176      -164.2527
  22   2.0000      -6.035143      -164.2246
  23   2.0000      -6.032785      -164.1604
  24   2.0000      -1.000455       -27.2238
  25   2.0000      -0.980703       -26.6863
  26   2.0000      -0.916435       -24.9375
  27   2.0000      -0.912795       -24.8384
  28   2.0000      -0.865281       -23.5455
  29   2.0000      -0.849634       -23.1197
  30   2.0000      -0.843028       -22.9400
  31   2.0000      -0.813008       -22.1231
  32   2.0000      -0.786808       -21.4101
  33   2.0000      -0.774574       -21.0772
  34   2.0000      -0.702708       -19.1217
  35   2.0000      -0.696003       -18.9392
  36   2.0000      -0.682792       -18.5797
  37   2.0000      -0.665923       -18.1207
  38   2.0000      -0.646472       -17.5914
  39   2.0000      -0.612282       -16.6610
  40   2.0000      -0.588936       -16.0258
  41   2.0000      -0.577934       -15.7264
  42   2.0000      -0.559356       -15.2209
  43   2.0000      -0.554354       -15.0847
  44   2.0000      -0.549170       -14.9437
  45   2.0000      -0.542451       -14.7609
  46   2.0000      -0.520335       -14.1590
  47   2.0000      -0.516198       -14.0464
  48   2.0000      -0.505171       -13.7464
  49   2.0000      -0.490227       -13.3397
  50   2.0000      -0.486706       -13.2439
  51   2.0000      -0.477963       -13.0060
  52   2.0000      -0.472122       -12.8471
  53   2.0000      -0.468699       -12.7539
  54   2.0000      -0.461628       -12.5615
  55   2.0000      -0.443200       -12.0601
  56   2.0000      -0.437652       -11.9091
  57   2.0000      -0.434489       -11.8231
  58   2.0000      -0.431906       -11.7528
  59   2.0000      -0.428718       -11.6660
  60   2.0000      -0.415760       -11.3134
  61   2.0000      -0.411105       -11.1867
  62   2.0000      -0.406787       -11.0692
  63   2.0000      -0.338304        -9.2057
  64   2.0000      -0.328489        -8.9386
  65   2.0000      -0.323025        -8.7900
  66   2.0000      -0.312823        -8.5123
  67   0.0000       0.040195         1.0938
  68   0.0000       0.051848         1.4108
  69   0.0000       0.113920         3.0999
  70   0.0000       0.116321         3.1652
  71   0.0000       0.125426         3.4130

MULLIKEN ATOMIC CHARGES
-----------------------
   0 S :    0.108472
   1 C :   -0.106064
   2 C :   -0.108724
   3 C :    0.040280
   4 C :   -0.174165
   5 H :    0.029436
   6 C :    0.106279
   7 H :    0.012486
   8 H :    0.021813
   9 C :   -0.064453
  10 H :    0.021229
  11 H :    0.029022
  12 C :   -0.075574
  13 H :    0.041771
  14 H :    0.039293
  15 H :    0.032325
  16 S :    0.118309
  17 C :   -0.100075
  18 C :   -0.011225
  19 C :   -0.083293
  20 C :   -0.176336
  21 H :    0.008756
  22 C :    0.081470
  23 H :    0.028714
  24 H :    0.017855
  25 C :   -0.035935
  26 H :    0.013515
  27 H :    0.038105
  28 C :   -0.046850
  29 H :    0.037466
  30 H :    0.020186
  31 H :    0.028924
  32 H :    0.038891
  33 H :    0.068095
Sum of atomic charges:   -0.0000000

LOEWDIN ATOMIC CHARGES
----------------------
   0 S :    0.406640
   1 C :   -0.185632
   2 C :   -0.060561
   3 C :   -0.062412
   4 C :   -0.206865
   5 H :    0.037078
   6 C :   -0.033554
   7 H :    0.032103
   8 H :    0.028000
   9 C :   -0.033169
  10 H :    0.018725
  11 H :    0.027670
  12 C :   -0.071750
  13 H :    0.035346
  14 H :    0.019264
  15 H :    0.021749
  16 S :    0.407436
  17 C :   -0.179245
  18 C :   -0.065447
  19 C :   -0.051928
  20 C :   -0.208464
  21 H :    0.025630
  22 C :   -0.032299
  23 H :    0.036377
  24 H :    0.024673
  25 C :   -0.040355
  26 H :    0.018314
  27 H :    0.031003
  28 C :   -0.063318
  29 H :    0.025205
  30 H :    0.025514
  31 H :    0.018656
  32 H :    0.020997
  33 H :    0.034621

  Mayer bond orders larger than 0.100000
B(  0-S ,  1-C ) :   1.1412 B(  0-S ,  4-C ) :   1.1581 B(  1-C ,  2-C ) :   1.5889
B(  1-C , 32-H ) :   0.9815 B(  2-C ,  3-C ) :   1.2309 B(  2-C ,  6-C ) :   1.0286
B(  3-C ,  4-C ) :   1.5813 B(  3-C ,  5-H ) :   0.9873 B(  4-C , 20-C ) :   0.9940
B(  6-C ,  7-H ) :   0.9331 B(  6-C ,  8-H ) :   0.9331 B(  6-C ,  9-C ) :   1.0913
B(  9-C , 10-H ) :   0.9537 B(  9-C , 11-H ) :   0.9545 B(  9-C , 12-C ) :   1.0727
B( 12-C , 13-H ) :   0.9734 B( 12-C , 14-H ) :   0.9748 B( 12-C , 15-H ) :   0.9761
B( 16-S , 17-C ) :   1.1584 B( 16-S , 20-C ) :   1.1515 B( 17-C , 18-C ) :   1.5927
B( 17-C , 33-H ) :   0.9644 B( 18-C , 19-C ) :   1.2542 B( 18-C , 21-H ) :   0.9917
B( 19-C , 20-C ) :   1.5996 B( 19-C , 22-C ) :   1.0276 B( 22-C , 23-H ) :   0.9275
B( 22-C , 24-H ) :   0.9346 B( 22-C , 25-C ) :   1.0758 B( 25-C , 26-H ) :   0.9479
B( 25-C , 27-H ) :   0.9559 B( 25-C , 28-C ) :   1.0928 B( 28-C , 29-H ) :   0.9716
B( 28-C , 30-H ) :   0.9733 B( 28-C , 31-H ) :   0.9662

Dispersion correction           -0.015257472
FINAL SINGLE POINT ENERGY     -1339.876152529898

DIPOLE MOMENT
-------------
                                X             Y             Z
Electronic contribution:      7.37672     -13.90898       4.53402
Nuclear contribution   :     -7.75518      14.29621      -4.48773
                        -----------------------------------------
Total Dipole Moment    :     -0.37846       0.38723       0.04629
                        -----------------------------------------
Magnitude (a.u.)       :      0.54344
Magnitude (Debye)      :      1.38131

Rotational constants in cm-1:     0.023598     0.007586     0.006772
Rotational constants in MHz :   707.440291   227.429826   203.032606

                             ****ORCA TERMINATED NORMALLY****
TOTAL RUN TIME: 0 days 0 hours 0 minutes 21 seconds 855 msec
