                         Program Version 4.2.1 -  RELEASE  -
|  1> ! wB97X-D3 SP def2-SVP
|  2> %pal
|  3> nprocs 24
|  4> end
|  5>
|  6> * xyz 0 1
|  7> S 	 -128.477 	 62.2787 	 -59.5508
|  8> C 	 -127.567 	 60.8684 	 -60.0803
|  9> C 	 -127.681 	 59.8676 	 -59.152
| 10> C 	 -128.402 	 60.2369 	 -57.9833
| 11> C 	 -128.749 	 61.5324 	 -57.9515
| 12> H 	 -128.757 	 59.6202 	 -57.1888
| 13> C 	 -126.984 	 58.4869 	 -59.2046
| 14> H 	 -126.911 	 58.0724 	 -58.1872
| 15> H 	 -125.921 	 58.5313 	 -59.5992
| 16> C 	 -127.676 	 57.5015 	 -60.0996
| 17> H 	 -128.76 	 57.6478 	 -59.9451
| 18> H 	 -127.523 	 57.8482 	 -61.1246
| 19> C 	 -127.392 	 56.0375 	 -59.8296
| 20> H 	 -126.394 	 55.8403 	 -59.5041
| 21> H 	 -128.096 	 55.5737 	 -59.0848
| 22> H 	 -127.485 	 55.3746 	 -60.6784
| 23> S 	 -130.92 	 63.0483 	 -57.519
| 24> C 	 -131.501 	 63.2972 	 -55.9064
| 25> C 	 -130.548 	 62.9408 	 -54.9689
| 26> C 	 -129.385 	 62.3663 	 -55.5574
| 27> C 	 -129.487 	 62.2909 	 -56.9352
| 28> H 	 -130.719 	 63.0535 	 -53.9593
| 29> C 	 -128.189 	 61.9637 	 -54.739
| 30> H 	 -127.409 	 61.5735 	 -55.3388
| 31> H 	 -128.424 	 61.1645 	 -54.0061
| 32> C 	 -127.524 	 63.1764 	 -53.8936
| 33> H 	 -128.026 	 63.2085 	 -52.8753
| 34> H 	 -127.749 	 64.1446 	 -54.3898
| 35> C 	 -126.041 	 62.9438 	 -53.8044
| 36> H 	 -125.651 	 62.9114 	 -54.8356
| 37> H 	 -125.873 	 62.0695 	 -53.2189
| 38> H 	 -125.509 	 63.7697 	 -53.242
| 39> H 	 -126.942 	 60.7243 	 -60.9639
| 40> H 	 -132.502 	 63.6827 	 -55.6352
| 41> *
| 42>
| 43>                          ****END OF INPUT****

CARTESIAN COORDINATES (ANGSTROEM)
---------------------------------
  S    -128.477000   62.278700  -59.550800
  C    -127.567000   60.868400  -60.080300
  C    -127.681000   59.867600  -59.152000
  C    -128.402000   60.236900  -57.983300
  C    -128.749000   61.532400  -57.951500
  H    -128.757000   59.620200  -57.188800
  C    -126.984000   58.486900  -59.204600
  H    -126.911000   58.072400  -58.187200
  H    -125.921000   58.531300  -59.599200
  C    -127.676000   57.501500  -60.099600
  H    -128.760000   57.647800  -59.945100
  H    -127.523000   57.848200  -61.124600
  C    -127.392000   56.037500  -59.829600
  H    -126.394000   55.840300  -59.504100
  H    -128.096000   55.573700  -59.084800
  H    -127.485000   55.374600  -60.678400
  S    -130.920000   63.048300  -57.519000
  C    -131.501000   63.297200  -55.906400
  C    -130.548000   62.940800  -54.968900
  C    -129.385000   62.366300  -55.557400
  C    -129.487000   62.290900  -56.935200
  H    -130.719000   63.053500  -53.959300
  C    -128.189000   61.963700  -54.739000
  H    -127.409000   61.573500  -55.338800
  H    -128.424000   61.164500  -54.006100
  C    -127.524000   63.176400  -53.893600
  H    -128.026000   63.208500  -52.875300
  H    -127.749000   64.144600  -54.389800
  C    -126.041000   62.943800  -53.804400
  H    -125.651000   62.911400  -54.835600
  H    -125.873000   62.069500  -53.218900
  H    -125.509000   63.769700  -53.242000
  H    -126.942000   60.724300  -60.963900
  H    -132.502000   63.682700  -55.635200

 Total Charge           Charge          ....    0
 Multiplicity           Mult            ....    1
 Number of Electrons    NEL             ....  134
 Basis Dimension        Dim             ....  322

ORBITAL ENERGIES
----------------

  NO   OCC          E(Eh)            E(eV)
   0   2.0000     -88.965032     -2420.8616
   1   2.0000     -88.963280     -2420.8139
   2   2.0000     -10.329076      -281.0685
   3   2.0000     -10.324001      -280.9303
   4   2.0000     -10.319062      -280.7960
   5   2.0000     -10.314739      -280.6783
   6   2.0000     -10.303523      -280.3731
   7   2.0000     -10.300299      -280.2854
   8   2.0000     -10.294601      -280.1303
   9   2.0000     -10.293469      -280.0995
  10   2.0000     -10.291927      -280.0576
  11   2.0000     -10.288757      -279.9713
  12   2.0000     -10.288312      -279.9592
  13   2.0000     -10.282158      -279.7918
  14   2.0000     -10.279559      -279.7210
  15   2.0000     -10.277565      -279.6668
  16   2.0000      -8.080808      -219.8900
  17   2.0000      -8.077623      -219.8033
  18   2.0000      -6.039245      -164.3362
  19   2.0000      -6.036329      -164.2569
  20   2.0000      -6.035129      -164.2242
  21   2.0000      -6.032337      -164.1482
  22   2.0000      -6.031601      -164.1282
  23   2.0000      -6.028039      -164.0313
  24   2.0000      -1.011844       -27.5337
  25   2.0000      -0.987352       -26.8672
  26   2.0000      -0.912068       -24.8186
  27   2.0000      -0.904703       -24.6182
  28   2.0000      -0.871260       -23.7082
  29   2.0000      -0.855721       -23.2854
  30   2.0000      -0.844951       -22.9923
  31   2.0000      -0.818442       -22.2709
  32   2.0000      -0.780463       -21.2375
  33   2.0000      -0.769039       -20.9266
  34   2.0000      -0.700906       -19.0726
  35   2.0000      -0.697999       -18.9935
  36   2.0000      -0.692823       -18.8527
  37   2.0000      -0.664656       -18.0862
  38   2.0000      -0.643217       -17.5028
  39   2.0000      -0.620737       -16.8911
  40   2.0000      -0.599491       -16.3130
  41   2.0000      -0.570497       -15.5240
  42   2.0000      -0.565744       -15.3947
  43   2.0000      -0.558980       -15.2106
  44   2.0000      -0.527857       -14.3637
  45   2.0000      -0.522155       -14.2086
  46   2.0000      -0.515623       -14.0308
  47   2.0000      -0.510813       -13.8999
  48   2.0000      -0.505003       -13.7418
  49   2.0000      -0.499521       -13.5927
  50   2.0000      -0.493837       -13.4380
  51   2.0000      -0.483530       -13.1575
  52   2.0000      -0.468694       -12.7538
  53   2.0000      -0.465956       -12.6793
  54   2.0000      -0.458275       -12.4703
  55   2.0000      -0.451894       -12.2967
  56   2.0000      -0.448689       -12.2094
  57   2.0000      -0.436251       -11.8710
  58   2.0000      -0.430852       -11.7241
  59   2.0000      -0.423931       -11.5357
  60   2.0000      -0.418916       -11.3993
  61   2.0000      -0.414079       -11.2677
  62   2.0000      -0.406776       -11.0689
  63   2.0000      -0.353079        -9.6078
  64   2.0000      -0.331897        -9.0314
  65   2.0000      -0.327335        -8.9072
  66   2.0000      -0.291129        -7.9220
  67   0.0000       0.033165         0.9025
  68   0.0000       0.066453         1.8083
  69   0.0000       0.102497         2.7891
  70   0.0000       0.119270         3.2455
  71   0.0000       0.139288         3.7902

MULLIKEN ATOMIC CHARGES
-----------------------
   0 S :    0.084128
   1 C :   -0.104734
   2 C :   -0.082815
   3 C :    0.034684
   4 C :   -0.132999
   5 H :    0.009712
   6 C :    0.033893
   7 H :    0.022604
   8 H :    0.037537
   9 C :   -0.072571
  10 H :    0.029129
  11 H :    0.023629
  12 C :   -0.035989
  13 H :    0.018242
  14 H :    0.039263
  15 H :    0.025619
  16 S :    0.111862
  17 C :   -0.101381
  18 C :    0.000257
  19 C :   -0.040474
  20 C :   -0.146110
  21 H :   -0.013019
  22 C :    0.068646
  23 H :    0.009853
  24 H :    0.035405
  25 C :   -0.113557
  26 H :    0.037232
  27 H :    0.045800
  28 C :   -0.065032
  29 H :    0.052560
  30 H :    0.031016
  31 H :    0.040749
  32 H :    0.049377
  33 H :    0.067482
Sum of atomic charges:    0.0000000

LOEWDIN ATOMIC CHARGES
----------------------
   0 S :    0.371920
   1 C :   -0.193441
   2 C :   -0.061798
   3 C :   -0.064407
   4 C :   -0.169359
   5 H :    0.033090
   6 C :   -0.034257
   7 H :    0.027231
   8 H :    0.034869
   9 C :   -0.051789
  10 H :    0.027293
  11 H :    0.022180
  12 C :   -0.070755
  13 H :    0.018963
  14 H :    0.034362
  15 H :    0.027407
  16 S :    0.424698
  17 C :   -0.189995
  18 C :   -0.059952
  19 C :   -0.057385
  20 C :   -0.208767
  21 H :    0.018619
  22 C :   -0.029681
  23 H :    0.020569
  24 H :    0.034342
  25 C :   -0.042185
  26 H :    0.025033
  27 H :    0.025622
  28 C :   -0.070261
  29 H :    0.032336
  30 H :    0.021332
  31 H :    0.032437
  32 H :    0.035325
  33 H :    0.036403

  Mayer bond orders larger than 0.100000
B(  0-S ,  1-C ) :   1.1139 B(  0-S ,  4-C ) :   1.1235 B(  1-C ,  2-C ) :   1.6569
B(  1-C , 32-H ) :   0.9658 B(  2-C ,  3-C ) :   1.1989 B(  2-C ,  6-C ) :   1.0156
B(  3-C ,  4-C ) :   1.6309 B(  3-C ,  5-H ) :   1.0002 B(  4-C , 20-C ) :   1.0042
B(  6-C ,  7-H ) :   0.9509 B(  6-C ,  8-H ) :   0.9415 B(  6-C ,  9-C ) :   1.0565
B(  9-C , 10-H ) :   0.9592 B(  9-C , 11-H ) :   0.9581 B(  9-C , 12-C ) :   1.0725
B( 12-C , 13-H ) :   0.9746 B( 12-C , 14-H ) :   0.9755 B( 12-C , 15-H ) :   0.9722
B( 16-S , 17-C ) :   1.1639 B( 16-S , 20-C ) :   1.1479 B( 17-C , 18-C ) :   1.5925
B( 17-C , 33-H ) :   0.9659 B( 18-C , 19-C ) :   1.2341 B( 18-C , 21-H ) :   1.0091
B( 19-C , 20-C ) :   1.6024 B( 19-C , 22-C ) :   1.0642 B( 22-C , 23-H ) :   0.9444
B( 22-C , 24-H ) :   0.9281 B( 22-C , 25-C ) :   1.0278 B( 25-C , 26-H ) :   0.9535
B( 25-C , 27-H ) :   0.9653 B( 25-C , 28-C ) :   1.0912 B( 28-C , 29-H ) :   0.9738
B( 28-C , 30-H ) :   0.9731 B( 28-C , 31-H ) :   0.9719

Dispersion correction           -0.013437108
FINAL SINGLE POINT ENERGY     -1339.876517572601

DIPOLE MOMENT
-------------
                                X             Y             Z
Electronic contribution:    -16.03219      17.88207      -9.85453
Nuclear contribution   :     16.21110     -18.34975      10.33769
                        -----------------------------------------
Total Dipole Moment    :      0.17891      -0.46768       0.48316
                        -----------------------------------------
Magnitude (a.u.)       :      0.69583
Magnitude (Debye)      :      1.76865

Rotational constants in cm-1:     0.018484     0.007603     0.006421
Rotational constants in MHz :   554.146323   227.929005   192.504663

                             ****ORCA TERMINATED NORMALLY****
TOTAL RUN TIME: 0 days 0 hours 0 minutes 20 seconds 850 msec
