                         Program Version 4.2.1 -  RELEASE  -
|  1> ! wB97X-D3 SP def2-SVP
|  2> %pal
|  3> nprocs 24
|  4> end
|  5>
|  6> * xyz 0 1
|  7> S 	 -68.4856 	 20.1411 	 -108.789
|  8> C 	 -69.2598 	 18.5137 	 -108.946
|  9> C 	 -68.3778 	 17.4719 	 -108.666
| 10> C 	 -66.999 	 18.0135 	 -108.69
| 11> C 	 -66.9321 	 19.3719 	 -108.859
| 12> H 	 -66.0518 	 17.4829 	 -108.648
| 13> C 	 -68.6686 	 15.9524 	 -108.546
| 14> H 	 -69.1263 	 15.7521 	 -107.513
| 15> H 	 -67.7096 	 15.3956 	 -108.661
| 16> C 	 -69.55 	 15.3211 	 -109.653
| 17> H 	 -70.5346 	 15.7534 	 -109.692
| 18> H 	 -69.147 	 15.3939 	 -110.691
| 19> C 	 -69.8402 	 13.8136 	 -109.544
| 20> H 	 -70.0041 	 13.6609 	 -108.425
| 21> H 	 -70.769 	 13.4612 	 -110.107
| 22> H 	 -68.9396 	 13.2289 	 -109.866
| 23> S 	 -64.9282 	 20.8815 	 -107.781
| 24> C 	 -63.5679 	 21.3886 	 -108.694
| 25> C 	 -63.8003 	 21.1347 	 -110.031
| 26> C 	 -65.0915 	 20.5735 	 -110.277
| 27> C 	 -65.7764 	 20.1999 	 -109.107
| 28> H 	 -63.0965 	 21.3179 	 -110.838
| 29> C 	 -65.5461 	 20.2703 	 -111.743
| 30> H 	 -65.404 	 21.2187 	 -112.281
| 31> H 	 -66.5696 	 19.8216 	 -111.711
| 32> C 	 -64.6916 	 19.1684 	 -112.387
| 33> H 	 -63.6402 	 19.472 	 -112.34
| 34> H 	 -64.9832 	 19.2081 	 -113.443
| 35> C 	 -64.928 	 17.7268 	 -111.832
| 36> H 	 -64.4455 	 16.9943 	 -112.512
| 37> H 	 -66.0448 	 17.688 	 -111.911
| 38> H 	 -64.6324 	 17.6948 	 -110.819
| 39> H 	 -70.3051 	 18.34 	 -108.948
| 40> H 	 -62.5491 	 21.4962 	 -108.291
| 41> *
| 42>
| 43>                          ****END OF INPUT****

CARTESIAN COORDINATES (ANGSTROEM)
---------------------------------
  S    -68.485600   20.141100  -108.789000
  C    -69.259800   18.513700  -108.946000
  C    -68.377800   17.471900  -108.666000
  C    -66.999000   18.013500  -108.690000
  C    -66.932100   19.371900  -108.859000
  H    -66.051800   17.482900  -108.648000
  C    -68.668600   15.952400  -108.546000
  H    -69.126300   15.752100  -107.513000
  H    -67.709600   15.395600  -108.661000
  C    -69.550000   15.321100  -109.653000
  H    -70.534600   15.753400  -109.692000
  H    -69.147000   15.393900  -110.691000
  C    -69.840200   13.813600  -109.544000
  H    -70.004100   13.660900  -108.425000
  H    -70.769000   13.461200  -110.107000
  H    -68.939600   13.228900  -109.866000
  S    -64.928200   20.881500  -107.781000
  C    -63.567900   21.388600  -108.694000
  C    -63.800300   21.134700  -110.031000
  C    -65.091500   20.573500  -110.277000
  C    -65.776400   20.199900  -109.107000
  H    -63.096500   21.317900  -110.838000
  C    -65.546100   20.270300  -111.743000
  H    -65.404000   21.218700  -112.281000
  H    -66.569600   19.821600  -111.711000
  C    -64.691600   19.168400  -112.387000
  H    -63.640200   19.472000  -112.340000
  H    -64.983200   19.208100  -113.443000
  C    -64.928000   17.726800  -111.832000
  H    -64.445500   16.994300  -112.512000
  H    -66.044800   17.688000  -111.911000
  H    -64.632400   17.694800  -110.819000
  H    -70.305100   18.340000  -108.948000
  H    -62.549100   21.496200  -108.291000

 Total Charge           Charge          ....    0
 Multiplicity           Mult            ....    1
 Number of Electrons    NEL             ....  134
 Basis Dimension        Dim             ....  322

ORBITAL ENERGIES
----------------

  NO   OCC          E(Eh)            E(eV)
   0   2.0000     -88.966480     -2420.9010
   1   2.0000     -88.961475     -2420.7648
   2   2.0000     -10.327408      -281.0231
   3   2.0000     -10.322927      -280.9011
   4   2.0000     -10.319515      -280.8083
   5   2.0000     -10.316131      -280.7162
   6   2.0000     -10.315167      -280.6900
   7   2.0000     -10.313361      -280.6408
   8   2.0000     -10.303874      -280.3827
   9   2.0000     -10.301485      -280.3177
  10   2.0000     -10.294995      -280.1411
  11   2.0000     -10.293465      -280.0994
  12   2.0000     -10.293431      -280.0985
  13   2.0000     -10.291204      -280.0379
  14   2.0000     -10.284301      -279.8501
  15   2.0000     -10.279979      -279.7325
  16   2.0000      -8.080774      -219.8890
  17   2.0000      -8.077607      -219.8029
  18   2.0000      -6.039427      -164.3412
  19   2.0000      -6.036025      -164.2486
  20   2.0000      -6.035573      -164.2363
  21   2.0000      -6.031663      -164.1299
  22   2.0000      -6.031152      -164.1160
  23   2.0000      -6.028615      -164.0469
  24   2.0000      -1.009343       -27.4656
  25   2.0000      -0.982223       -26.7276
  26   2.0000      -0.908482       -24.7211
  27   2.0000      -0.904924       -24.6242
  28   2.0000      -0.870772       -23.6949
  29   2.0000      -0.844828       -22.9889
  30   2.0000      -0.840621       -22.8745
  31   2.0000      -0.813303       -22.1311
  32   2.0000      -0.780129       -21.2284
  33   2.0000      -0.771278       -20.9876
  34   2.0000      -0.703295       -19.1376
  35   2.0000      -0.693369       -18.8675
  36   2.0000      -0.686950       -18.6929
  37   2.0000      -0.654878       -17.8201
  38   2.0000      -0.644565       -17.5395
  39   2.0000      -0.611033       -16.6271
  40   2.0000      -0.594647       -16.1812
  41   2.0000      -0.573422       -15.6036
  42   2.0000      -0.564282       -15.3549
  43   2.0000      -0.552612       -15.0373
  44   2.0000      -0.543324       -14.7846
  45   2.0000      -0.524036       -14.2597
  46   2.0000      -0.514620       -14.0035
  47   2.0000      -0.508442       -13.8354
  48   2.0000      -0.504582       -13.7304
  49   2.0000      -0.501055       -13.6344
  50   2.0000      -0.491422       -13.3723
  51   2.0000      -0.479265       -13.0415
  52   2.0000      -0.471310       -12.8250
  53   2.0000      -0.460046       -12.5185
  54   2.0000      -0.455491       -12.3945
  55   2.0000      -0.446136       -12.1400
  56   2.0000      -0.438421       -11.9300
  57   2.0000      -0.437067       -11.8932
  58   2.0000      -0.435795       -11.8586
  59   2.0000      -0.419336       -11.4107
  60   2.0000      -0.418428       -11.3860
  61   2.0000      -0.415701       -11.3118
  62   2.0000      -0.405328       -11.0295
  63   2.0000      -0.333670        -9.0796
  64   2.0000      -0.330069        -8.9816
  65   2.0000      -0.319299        -8.6886
  66   2.0000      -0.311762        -8.4835
  67   0.0000       0.037816         1.0290
  68   0.0000       0.052392         1.4257
  69   0.0000       0.096882         2.6363
  70   0.0000       0.119302         3.2464
  71   0.0000       0.129076         3.5123

MULLIKEN ATOMIC CHARGES
-----------------------
   0 S :    0.115331
   1 C :   -0.108188
   2 C :   -0.073515
   3 C :    0.053848
   4 C :   -0.181801
   5 H :    0.017954
   6 C :    0.045030
   7 H :    0.060877
   8 H :    0.037915
   9 C :   -0.095131
  10 H :    0.024981
  11 H :    0.041002
  12 C :   -0.110638
  13 H :    0.031743
  14 H :    0.057829
  15 H :    0.045838
  16 S :    0.114800
  17 C :   -0.091324
  18 C :   -0.059143
  19 C :   -0.039054
  20 C :   -0.193593
  21 H :    0.025147
  22 C :    0.065897
  23 H :    0.041261
  24 H :    0.035763
  25 C :   -0.107904
  26 H :    0.020078
  27 H :    0.029489
  28 C :   -0.037226
  29 H :    0.049858
  30 H :    0.033960
  31 H :    0.035878
  32 H :    0.035596
  33 H :    0.077440
Sum of atomic charges:    0.0000000

LOEWDIN ATOMIC CHARGES
----------------------
   0 S :    0.389055
   1 C :   -0.171012
   2 C :   -0.055148
   3 C :   -0.051436
   4 C :   -0.204676
   5 H :    0.033008
   6 C :   -0.036036
   7 H :    0.044964
   8 H :    0.036958
   9 C :   -0.054464
  10 H :    0.017961
  11 H :    0.030318
  12 C :   -0.078591
  13 H :    0.027060
  14 H :    0.037352
  15 H :    0.026048
  16 S :    0.437490
  17 C :   -0.209175
  18 C :   -0.076357
  19 C :   -0.055781
  20 C :   -0.229665
  21 H :    0.030709
  22 C :   -0.029948
  23 H :    0.036710
  24 H :    0.033796
  25 C :   -0.044945
  26 H :    0.014106
  27 H :    0.022744
  28 C :   -0.059918
  29 H :    0.032651
  30 H :    0.031296
  31 H :    0.016726
  32 H :    0.017757
  33 H :    0.040443

  Mayer bond orders larger than 0.100000
B(  0-S ,  1-C ) :   1.1225 B(  0-S ,  4-C ) :   1.1330 B(  1-C ,  2-C ) :   1.6591
B(  1-C , 32-H ) :   0.9708 B(  2-C ,  3-C ) :   1.1777 B(  2-C ,  6-C ) :   1.0149
B(  3-C ,  4-C ) :   1.6598 B(  3-C ,  5-H ) :   0.9865 B(  4-C , 20-C ) :   0.9985
B(  6-C ,  7-H ) :   0.9304 B(  6-C ,  8-H ) :   0.9512 B(  6-C ,  9-C ) :   1.0637
B(  9-C , 10-H ) :   0.9549 B(  9-C , 11-H ) :   0.9601 B(  9-C , 12-C ) :   1.0720
B( 12-C , 13-H ) :   0.9743 B( 12-C , 14-H ) :   0.9742 B( 12-C , 15-H ) :   0.9779
B( 16-S , 17-C ) :   1.1778 B( 16-S , 20-C ) :   1.1728 B( 17-C , 18-C ) :   1.5743
B( 17-C , 20-C ) :   0.1032 B( 17-C , 33-H ) :   0.9612 B( 18-C , 19-C ) :   1.2758
B( 18-C , 21-H ) :   0.9857 B( 19-C , 20-C ) :   1.5606 B( 19-C , 22-C ) :   1.0352
B( 22-C , 23-H ) :   0.9323 B( 22-C , 24-H ) :   0.9373 B( 22-C , 25-C ) :   1.0789
B( 25-C , 26-H ) :   0.9546 B( 25-C , 27-H ) :   0.9567 B( 25-C , 28-C ) :   1.0586
B( 28-C , 29-H ) :   0.9728 B( 28-C , 30-H ) :   0.9738 B( 28-C , 31-H ) :   0.9770

Dispersion correction           -0.015022729
FINAL SINGLE POINT ENERGY     -1339.861189415699

DIPOLE MOMENT
-------------
                                X             Y             Z
Electronic contribution:      3.61312      25.16161      15.37227
Nuclear contribution   :     -3.51002     -25.79663     -15.76058
                        -----------------------------------------
Total Dipole Moment    :      0.10310      -0.63501      -0.38831
                        -----------------------------------------
Magnitude (a.u.)       :      0.75144
Magnitude (Debye)      :      1.91000

Rotational constants in cm-1:     0.021485     0.007955     0.006744
Rotational constants in MHz :   644.106123   238.477947   202.181177

                             ****ORCA TERMINATED NORMALLY****
TOTAL RUN TIME: 0 days 0 hours 0 minutes 21 seconds 899 msec
