                         Program Version 4.2.1 -  RELEASE  -
|  1> ! wB97X-D3 SP def2-SVP
|  2> %pal
|  3> nprocs 24
|  4> end
|  5>
|  6> * xyz 0 1
|  7> S 	 -100.182 	 -4.88537 	 -107.354
|  8> C 	 -100.349 	 -5.43232 	 -109.052
|  9> C 	 -101.172 	 -4.56701 	 -109.764
| 10> C 	 -101.798 	 -3.60955 	 -108.938
| 11> C 	 -101.512 	 -3.7428 	 -107.557
| 12> H 	 -102.47 	 -2.89481 	 -109.355
| 13> C 	 -101.477 	 -4.72596 	 -111.259
| 14> H 	 -100.978 	 -5.72449 	 -111.547
| 15> H 	 -100.863 	 -4.05138 	 -111.902
| 16> C 	 -102.986 	 -4.81984 	 -111.679
| 17> H 	 -103.507 	 -5.52043 	 -111.017
| 18> H 	 -103.608 	 -3.9237 	 -111.491
| 19> C 	 -103.103 	 -5.2263 	 -113.163
| 20> H 	 -104.068 	 -5.48122 	 -113.437
| 21> H 	 -102.793 	 -4.41288 	 -113.817
| 22> H 	 -102.587 	 -6.15685 	 -113.486
| 23> S 	 -100.811 	 -2.09825 	 -105.533
| 24> C 	 -101.959 	 -1.08313 	 -104.833
| 25> C 	 -103.264 	 -1.36135 	 -105.284
| 26> C 	 -103.309 	 -2.3715 	 -106.28
| 27> C 	 -102.007 	 -2.7822 	 -106.585
| 28> H 	 -104.086 	 -0.73795 	 -104.872
| 29> C 	 -104.591 	 -2.75754 	 -106.961
| 30> H 	 -104.431 	 -2.84814 	 -108.037
| 31> H 	 -105.312 	 -1.97673 	 -106.795
| 32> C 	 -105.217 	 -4.095 	 -106.43
| 33> H 	 -105.351 	 -4.08589 	 -105.305
| 34> H 	 -104.471 	 -4.80345 	 -106.641
| 35> C 	 -106.454 	 -4.55054 	 -107.174
| 36> H 	 -106.222 	 -4.88541 	 -108.189
| 37> H 	 -107.111 	 -3.69954 	 -107.225
| 38> H 	 -106.904 	 -5.43119 	 -106.669
| 39> H 	 -99.6964 	 -6.07183 	 -109.624
| 40> H 	 -101.71 	 -0.207377 	 -104.199
| 41> *
| 42>
| 43>                          ****END OF INPUT****

CARTESIAN COORDINATES (ANGSTROEM)
---------------------------------
  S    -100.182000   -4.885370  -107.354000
  C    -100.349000   -5.432320  -109.052000
  C    -101.172000   -4.567010  -109.764000
  C    -101.798000   -3.609550  -108.938000
  C    -101.512000   -3.742800  -107.557000
  H    -102.470000   -2.894810  -109.355000
  C    -101.477000   -4.725960  -111.259000
  H    -100.978000   -5.724490  -111.547000
  H    -100.863000   -4.051380  -111.902000
  C    -102.986000   -4.819840  -111.679000
  H    -103.507000   -5.520430  -111.017000
  H    -103.608000   -3.923700  -111.491000
  C    -103.103000   -5.226300  -113.163000
  H    -104.068000   -5.481220  -113.437000
  H    -102.793000   -4.412880  -113.817000
  H    -102.587000   -6.156850  -113.486000
  S    -100.811000   -2.098250  -105.533000
  C    -101.959000   -1.083130  -104.833000
  C    -103.264000   -1.361350  -105.284000
  C    -103.309000   -2.371500  -106.280000
  C    -102.007000   -2.782200  -106.585000
  H    -104.086000   -0.737950  -104.872000
  C    -104.591000   -2.757540  -106.961000
  H    -104.431000   -2.848140  -108.037000
  H    -105.312000   -1.976730  -106.795000
  C    -105.217000   -4.095000  -106.430000
  H    -105.351000   -4.085890  -105.305000
  H    -104.471000   -4.803450  -106.641000
  C    -106.454000   -4.550540  -107.174000
  H    -106.222000   -4.885410  -108.189000
  H    -107.111000   -3.699540  -107.225000
  H    -106.904000   -5.431190  -106.669000
  H    -99.696400   -6.071830  -109.624000
  H    -101.710000   -0.207377  -104.199000

 Total Charge           Charge          ....    0
 Multiplicity           Mult            ....    1
 Number of Electrons    NEL             ....  134
 Basis Dimension        Dim             ....  322

ORBITAL ENERGIES
----------------

  NO   OCC          E(Eh)            E(eV)
   0   2.0000     -88.972067     -2421.0530
   1   2.0000     -88.968424     -2420.9539
   2   2.0000     -10.334457      -281.2149
   3   2.0000     -10.325767      -280.9784
   4   2.0000     -10.315031      -280.6863
   5   2.0000     -10.314279      -280.6658
   6   2.0000     -10.306203      -280.4460
   7   2.0000     -10.305405      -280.4243
   8   2.0000     -10.300174      -280.2820
   9   2.0000     -10.297692      -280.2145
  10   2.0000     -10.296679      -280.1869
  11   2.0000     -10.291802      -280.0542
  12   2.0000     -10.291024      -280.0330
  13   2.0000     -10.281685      -279.7789
  14   2.0000     -10.277641      -279.6688
  15   2.0000     -10.276726      -279.6439
  16   2.0000      -8.085283      -220.0117
  17   2.0000      -8.084585      -219.9927
  18   2.0000      -6.043941      -164.4640
  19   2.0000      -6.042739      -164.4313
  20   2.0000      -6.040091      -164.3592
  21   2.0000      -6.038879      -164.3263
  22   2.0000      -6.035886      -164.2448
  23   2.0000      -6.035656      -164.2386
  24   2.0000      -1.009977       -27.4829
  25   2.0000      -0.981939       -26.7199
  26   2.0000      -0.910398       -24.7732
  27   2.0000      -0.904112       -24.6021
  28   2.0000      -0.867519       -23.6064
  29   2.0000      -0.858326       -23.3562
  30   2.0000      -0.844953       -22.9923
  31   2.0000      -0.808273       -21.9942
  32   2.0000      -0.783303       -21.3148
  33   2.0000      -0.770936       -20.9782
  34   2.0000      -0.711864       -19.3708
  35   2.0000      -0.700032       -19.0489
  36   2.0000      -0.690759       -18.7965
  37   2.0000      -0.661791       -18.0082
  38   2.0000      -0.630787       -17.1646
  39   2.0000      -0.622758       -16.9461
  40   2.0000      -0.595876       -16.2146
  41   2.0000      -0.567999       -15.4561
  42   2.0000      -0.564278       -15.3548
  43   2.0000      -0.551144       -14.9974
  44   2.0000      -0.525014       -14.2863
  45   2.0000      -0.523284       -14.2393
  46   2.0000      -0.513568       -13.9749
  47   2.0000      -0.510132       -13.8814
  48   2.0000      -0.504581       -13.7303
  49   2.0000      -0.496443       -13.5089
  50   2.0000      -0.488652       -13.2969
  51   2.0000      -0.487576       -13.2676
  52   2.0000      -0.472323       -12.8526
  53   2.0000      -0.465095       -12.6559
  54   2.0000      -0.459820       -12.5123
  55   2.0000      -0.446845       -12.1593
  56   2.0000      -0.442819       -12.0497
  57   2.0000      -0.439789       -11.9673
  58   2.0000      -0.432344       -11.7647
  59   2.0000      -0.428441       -11.6585
  60   2.0000      -0.426619       -11.6089
  61   2.0000      -0.416820       -11.3423
  62   2.0000      -0.413127       -11.2418
  63   2.0000      -0.347013        -9.4427
  64   2.0000      -0.334550        -9.1036
  65   2.0000      -0.331517        -9.0210
  66   2.0000      -0.282946        -7.6993
  67   0.0000       0.023874         0.6496
  68   0.0000       0.066075         1.7980
  69   0.0000       0.104500         2.8436
  70   0.0000       0.120686         3.2840
  71   0.0000       0.132538         3.6065

MULLIKEN ATOMIC CHARGES
-----------------------
   0 S :    0.106614
   1 C :   -0.102262
   2 C :   -0.084903
   3 C :    0.013913
   4 C :   -0.117725
   5 H :    0.006455
   6 C :    0.024991
   7 H :    0.020663
   8 H :    0.046536
   9 C :   -0.073596
  10 H :    0.032238
  11 H :    0.034223
  12 C :   -0.036311
  13 H :    0.010657
  14 H :    0.036091
  15 H :    0.030806
  16 S :    0.131235
  17 C :   -0.114011
  18 C :   -0.066546
  19 C :   -0.013979
  20 C :   -0.182647
  21 H :    0.031606
  22 C :    0.081175
  23 H :    0.017760
  24 H :    0.011855
  25 C :   -0.092128
  26 H :    0.040471
  27 H :    0.022393
  28 C :   -0.026125
  29 H :    0.028084
  30 H :    0.024063
  31 H :    0.043662
  32 H :    0.044081
  33 H :    0.070662
Sum of atomic charges:    0.0000000

LOEWDIN ATOMIC CHARGES
----------------------
   0 S :    0.387837
   1 C :   -0.195012
   2 C :   -0.064362
   3 C :   -0.062563
   4 C :   -0.189586
   5 H :    0.023873
   6 C :   -0.039934
   7 H :    0.037025
   8 H :    0.035047
   9 C :   -0.043126
  10 H :    0.027131
  11 H :    0.026111
  12 C :   -0.065734
  13 H :    0.016427
  14 H :    0.027794
  15 H :    0.030501
  16 S :    0.447493
  17 C :   -0.218676
  18 C :   -0.076021
  19 C :   -0.053534
  20 C :   -0.202431
  21 H :    0.037386
  22 C :   -0.026956
  23 H :    0.029625
  24 H :    0.024770
  25 C :   -0.040122
  26 H :    0.030478
  27 H :    0.018087
  28 C :   -0.064581
  29 H :    0.025211
  30 H :    0.019686
  31 H :    0.033864
  32 H :    0.027579
  33 H :    0.036712

  Mayer bond orders larger than 0.100000
B(  0-S ,  1-C ) :   1.1194 B(  0-S ,  4-C ) :   1.1481 B(  1-C ,  2-C ) :   1.6110
B(  1-C ,  4-C ) :   0.1025 B(  1-C , 32-H ) :   0.9577 B(  2-C ,  3-C ) :   1.2823
B(  2-C ,  6-C ) :   1.0192 B(  3-C ,  4-C ) :   1.5179 B(  3-C ,  5-H ) :   0.9944
B(  4-C , 20-C ) :   1.0748 B(  6-C ,  7-H ) :   0.9453 B(  6-C ,  8-H ) :   0.9393
B(  6-C ,  9-C ) :   1.0437 B(  9-C , 10-H ) :   0.9582 B(  9-C , 11-H ) :   0.9528
B(  9-C , 12-C ) :   1.0841 B( 12-C , 13-H ) :   0.9719 B( 12-C , 14-H ) :   0.9760
B( 12-C , 15-H ) :   0.9745 B( 16-S , 17-C ) :   1.1858 B( 16-S , 20-C ) :   1.1649
B( 17-C , 18-C ) :   1.5755 B( 17-C , 20-C ) :   0.1025 B( 17-C , 33-H ) :   0.9630
B( 18-C , 19-C ) :   1.2696 B( 18-C , 21-H ) :   0.9855 B( 19-C , 20-C ) :   1.5470
B( 19-C , 22-C ) :   1.0514 B( 22-C , 23-H ) :   0.9327 B( 22-C , 24-H ) :   0.9283
B( 22-C , 25-C ) :   1.0581 B( 25-C , 26-H ) :   0.9564 B( 25-C , 27-H ) :   0.9568
B( 25-C , 28-C ) :   1.0870 B( 28-C , 29-H ) :   0.9723 B( 28-C , 30-H ) :   0.9748
B( 28-C , 31-H ) :   0.9720

Dispersion correction           -0.013938806
FINAL SINGLE POINT ENERGY     -1339.873666494064

DIPOLE MOMENT
-------------
                                X             Y             Z
Electronic contribution:     23.32265       7.12432      20.97660
Nuclear contribution   :    -23.78650      -6.94929     -21.47632
                        -----------------------------------------
Total Dipole Moment    :     -0.46385       0.17503      -0.49972
                        -----------------------------------------
Magnitude (a.u.)       :      0.70393
Magnitude (Debye)      :      1.78924

Rotational constants in cm-1:     0.016976     0.009052     0.006747
Rotational constants in MHz :   508.940453   271.375711   202.268189

                             ****ORCA TERMINATED NORMALLY****
TOTAL RUN TIME: 0 days 0 hours 0 minutes 20 seconds 541 msec
