                         Program Version 4.2.1 -  RELEASE  -
|  1> ! wB97X-D3 SP def2-SVP
|  2> %pal
|  3> nprocs 24
|  4> end
|  5>
|  6> * xyz 0 1
|  7> S 	 -134.285 	 63.7084 	 -62.0142
|  8> C 	 -133.766 	 65.3972 	 -62.0094
|  9> C 	 -133.96 	 66.0228 	 -60.7995
| 10> C 	 -134.469 	 65.0735 	 -59.8166
| 11> C 	 -134.678 	 63.816 	 -60.3209
| 12> H 	 -134.758 	 65.3154 	 -58.7582
| 13> C 	 -133.745 	 67.524 	 -60.6639
| 14> H 	 -133.591 	 67.8696 	 -61.6759
| 15> H 	 -132.782 	 67.719 	 -60.1952
| 16> C 	 -134.857 	 68.3148 	 -60.1687
| 17> H 	 -135.116 	 67.942 	 -59.2722
| 18> H 	 -134.625 	 69.3334 	 -60.0559
| 19> C 	 -136.026 	 68.3101 	 -61.1787
| 20> H 	 -136.901 	 68.8657 	 -60.7855
| 21> H 	 -135.796 	 68.9769 	 -62.0115
| 22> H 	 -136.372 	 67.3018 	 -61.4482
| 23> S 	 -136.785 	 62.0723 	 -60.5549
| 24> C 	 -137.326 	 61.0673 	 -59.2451
| 25> C 	 -136.446 	 61.2339 	 -58.1986
| 26> C 	 -135.401 	 62.1848 	 -58.4491
| 27> C 	 -135.46 	 62.7862 	 -59.7015
| 28> H 	 -136.601 	 60.5704 	 -57.3327
| 29> C 	 -134.286 	 62.3443 	 -57.5033
| 30> H 	 -134.836 	 62.5329 	 -56.5233
| 31> H 	 -133.887 	 63.3664 	 -57.7174
| 32> C 	 -133.239 	 61.2475 	 -57.3869
| 33> H 	 -133.747 	 60.3522 	 -57.0192
| 34> H 	 -132.512 	 61.3971 	 -56.5975
| 35> C 	 -132.463 	 60.9719 	 -58.7266
| 36> H 	 -131.937 	 61.8073 	 -59.1761
| 37> H 	 -133.192 	 60.6031 	 -59.452
| 38> H 	 -131.766 	 60.1975 	 -58.5713
| 39> H 	 -133.64 	 66.0812 	 -62.9035
| 40> H 	 -138.141 	 60.3729 	 -59.1085
| 41> *
| 42>
| 43>                          ****END OF INPUT****

CARTESIAN COORDINATES (ANGSTROEM)
---------------------------------
  S    -134.285000   63.708400  -62.014200
  C    -133.766000   65.397200  -62.009400
  C    -133.960000   66.022800  -60.799500
  C    -134.469000   65.073500  -59.816600
  C    -134.678000   63.816000  -60.320900
  H    -134.758000   65.315400  -58.758200
  C    -133.745000   67.524000  -60.663900
  H    -133.591000   67.869600  -61.675900
  H    -132.782000   67.719000  -60.195200
  C    -134.857000   68.314800  -60.168700
  H    -135.116000   67.942000  -59.272200
  H    -134.625000   69.333400  -60.055900
  C    -136.026000   68.310100  -61.178700
  H    -136.901000   68.865700  -60.785500
  H    -135.796000   68.976900  -62.011500
  H    -136.372000   67.301800  -61.448200
  S    -136.785000   62.072300  -60.554900
  C    -137.326000   61.067300  -59.245100
  C    -136.446000   61.233900  -58.198600
  C    -135.401000   62.184800  -58.449100
  C    -135.460000   62.786200  -59.701500
  H    -136.601000   60.570400  -57.332700
  C    -134.286000   62.344300  -57.503300
  H    -134.836000   62.532900  -56.523300
  H    -133.887000   63.366400  -57.717400
  C    -133.239000   61.247500  -57.386900
  H    -133.747000   60.352200  -57.019200
  H    -132.512000   61.397100  -56.597500
  C    -132.463000   60.971900  -58.726600
  H    -131.937000   61.807300  -59.176100
  H    -133.192000   60.603100  -59.452000
  H    -131.766000   60.197500  -58.571300
  H    -133.640000   66.081200  -62.903500
  H    -138.141000   60.372900  -59.108500

 Total Charge           Charge          ....    0
 Multiplicity           Mult            ....    1
 Number of Electrons    NEL             ....  134
 Basis Dimension        Dim             ....  322

ORBITAL ENERGIES
----------------

  NO   OCC          E(Eh)            E(eV)
   0   2.0000     -88.970079     -2420.9989
   1   2.0000     -88.965054     -2420.8622
   2   2.0000     -10.330922      -281.1187
   3   2.0000     -10.324980      -280.9570
   4   2.0000     -10.316704      -280.7318
   5   2.0000     -10.315516      -280.6995
   6   2.0000     -10.304987      -280.4130
   7   2.0000     -10.303205      -280.3645
   8   2.0000     -10.298520      -280.2370
   9   2.0000     -10.292339      -280.0688
  10   2.0000     -10.289258      -279.9850
  11   2.0000     -10.287005      -279.9236
  12   2.0000     -10.286530      -279.9107
  13   2.0000     -10.277688      -279.6701
  14   2.0000     -10.270443      -279.4730
  15   2.0000     -10.268790      -279.4280
  16   2.0000      -8.084590      -219.9929
  17   2.0000      -8.080037      -219.8690
  18   2.0000      -6.043205      -164.4440
  19   2.0000      -6.039231      -164.3358
  20   2.0000      -6.038613      -164.3190
  21   2.0000      -6.035138      -164.2245
  22   2.0000      -6.034314      -164.2020
  23   2.0000      -6.030855      -164.1079
  24   2.0000      -1.012809       -27.5599
  25   2.0000      -0.986786       -26.8518
  26   2.0000      -0.927859       -25.2483
  27   2.0000      -0.906780       -24.6747
  28   2.0000      -0.875870       -23.8336
  29   2.0000      -0.847880       -23.0720
  30   2.0000      -0.840300       -22.8657
  31   2.0000      -0.819018       -22.2866
  32   2.0000      -0.783835       -21.3292
  33   2.0000      -0.771963       -21.0062
  34   2.0000      -0.719566       -19.5804
  35   2.0000      -0.701449       -19.0874
  36   2.0000      -0.693331       -18.8665
  37   2.0000      -0.655766       -17.8443
  38   2.0000      -0.640703       -17.4344
  39   2.0000      -0.619794       -16.8655
  40   2.0000      -0.586945       -15.9716
  41   2.0000      -0.576360       -15.6836
  42   2.0000      -0.562182       -15.2978
  43   2.0000      -0.553818       -15.0701
  44   2.0000      -0.551558       -15.0087
  45   2.0000      -0.534458       -14.5433
  46   2.0000      -0.516453       -14.0534
  47   2.0000      -0.510982       -13.9045
  48   2.0000      -0.499658       -13.5964
  49   2.0000      -0.495362       -13.4795
  50   2.0000      -0.489129       -13.3099
  51   2.0000      -0.472412       -12.8550
  52   2.0000      -0.469009       -12.7624
  53   2.0000      -0.466826       -12.7030
  54   2.0000      -0.458158       -12.4671
  55   2.0000      -0.451896       -12.2967
  56   2.0000      -0.446571       -12.1518
  57   2.0000      -0.438051       -11.9200
  58   2.0000      -0.429428       -11.6853
  59   2.0000      -0.425207       -11.5705
  60   2.0000      -0.418797       -11.3960
  61   2.0000      -0.412475       -11.2240
  62   2.0000      -0.407198       -11.0804
  63   2.0000      -0.354022        -9.6334
  64   2.0000      -0.333310        -9.0698
  65   2.0000      -0.326631        -8.8881
  66   2.0000      -0.292398        -7.9565
  67   0.0000       0.026969         0.7339
  68   0.0000       0.072933         1.9846
  69   0.0000       0.113371         3.0850
  70   0.0000       0.121225         3.2987
  71   0.0000       0.127666         3.4740

MULLIKEN ATOMIC CHARGES
-----------------------
   0 S :    0.110607
   1 C :   -0.127268
   2 C :   -0.136527
   3 C :    0.017256
   4 C :   -0.154583
   5 H :    0.041644
   6 C :    0.097878
   7 H :   -0.012226
   8 H :    0.039307
   9 C :    0.019305
  10 H :   -0.002155
  11 H :    0.014461
  12 C :   -0.090881
  13 H :    0.026155
  14 H :    0.025724
  15 H :    0.056746
  16 S :    0.106022
  17 C :   -0.081389
  18 C :   -0.064218
  19 C :   -0.071439
  20 C :   -0.126533
  21 H :    0.027579
  22 C :    0.049064
  23 H :    0.029417
  24 H :    0.011821
  25 C :   -0.030097
  26 H :    0.017767
  27 H :    0.025236
  28 C :   -0.045220
  29 H :    0.040458
  30 H :    0.039916
  31 H :    0.021280
  32 H :    0.072142
  33 H :    0.052754
Sum of atomic charges:   -0.0000000

LOEWDIN ATOMIC CHARGES
----------------------
   0 S :    0.402608
   1 C :   -0.207356
   2 C :   -0.058138
   3 C :   -0.065637
   4 C :   -0.193981
   5 H :    0.039656
   6 C :   -0.028610
   7 H :    0.025656
   8 H :    0.033918
   9 C :   -0.030838
  10 H :    0.006666
  11 H :    0.025332
  12 C :   -0.065024
  13 H :    0.028052
  14 H :    0.025048
  15 H :    0.029287
  16 S :    0.420269
  17 C :   -0.195413
  18 C :   -0.077681
  19 C :   -0.068283
  20 C :   -0.207251
  21 H :    0.034924
  22 C :   -0.046697
  23 H :    0.038225
  24 H :    0.029099
  25 C :   -0.036065
  26 H :    0.024228
  27 H :    0.023998
  28 C :   -0.060881
  29 H :    0.027574
  30 H :    0.028641
  31 H :    0.019071
  32 H :    0.042850
  33 H :    0.036755

  Mayer bond orders larger than 0.100000
B(  0-S ,  1-C ) :   1.1197 B(  0-S ,  4-C ) :   1.1386 B(  1-C ,  2-C ) :   1.6597
B(  1-C , 32-H ) :   0.9467 B(  2-C ,  3-C ) :   1.2183 B(  2-C ,  6-C ) :   1.0180
B(  3-C ,  4-C ) :   1.5918 B(  3-C ,  5-H ) :   0.9771 B(  4-C , 20-C ) :   1.0565
B(  6-C ,  7-H ) :   0.9322 B(  6-C ,  8-H ) :   0.9307 B(  6-C ,  9-C ) :   1.0833
B(  9-C , 10-H ) :   0.9527 B(  9-C , 11-H ) :   0.9447 B(  9-C , 12-C ) :   1.0794
B( 12-C , 13-H ) :   0.9728 B( 12-C , 14-H ) :   0.9723 B( 12-C , 15-H ) :   0.9780
B( 16-S , 17-C ) :   1.1548 B( 16-S , 20-C ) :   1.1364 B( 17-C , 18-C ) :   1.6101
B( 17-C , 33-H ) :   0.9670 B( 18-C , 19-C ) :   1.2460 B( 18-C , 21-H ) :   0.9881
B( 19-C , 20-C ) :   1.5635 B( 19-C , 22-C ) :   1.0545 B( 22-C , 23-H ) :   0.9273
B( 22-C , 24-H ) :   0.9269 B( 22-C , 25-C ) :   1.0718 B( 25-C , 26-H ) :   0.9511
B( 25-C , 27-H ) :   0.9548 B( 25-C , 28-C ) :   1.0697 B( 28-C , 29-H ) :   0.9775
B( 28-C , 30-H ) :   0.9759 B( 28-C , 31-H ) :   0.9744

Dispersion correction           -0.015146227
FINAL SINGLE POINT ENERGY     -1339.865969783034

DIPOLE MOMENT
-------------
                                X             Y             Z
Electronic contribution:     -7.73141     -11.76250     -10.36215
Nuclear contribution   :      7.73633      12.09827      10.82217
                        -----------------------------------------
Total Dipole Moment    :      0.00492       0.33576       0.46002
                        -----------------------------------------
Magnitude (a.u.)       :      0.56955
Magnitude (Debye)      :      1.44767

Rotational constants in cm-1:     0.021263     0.008366     0.007712
Rotational constants in MHz :   637.435303   250.814997   231.206232

                             ****ORCA TERMINATED NORMALLY****
TOTAL RUN TIME: 0 days 0 hours 0 minutes 21 seconds 108 msec
