                         Program Version 4.2.1 -  RELEASE  -
|  1> ! wB97X-D3 SP def2-SVP
|  2> %pal
|  3> nprocs 24
|  4> end
|  5>
|  6> * xyz 0 1
|  7> S 	 -33.2564 	 -31.4897 	 -90.9636
|  8> C 	 -33.3148 	 -32.4212 	 -92.4464
|  9> C 	 -32.1115 	 -32.3008 	 -93.1487
| 10> C 	 -31.1665 	 -31.4904 	 -92.4871
| 11> C 	 -31.5446 	 -31.23 	 -91.18
| 12> H 	 -30.2486 	 -31.0746 	 -92.8163
| 13> C 	 -31.9382 	 -32.6212 	 -94.6301
| 14> H 	 -31.5981 	 -31.7475 	 -95.1219
| 15> H 	 -32.8519 	 -32.7837 	 -95.0609
| 16> C 	 -30.9817 	 -33.8002 	 -95.0711
| 17> H 	 -31.5417 	 -34.7357 	 -94.9271
| 18> H 	 -30.6117 	 -33.6823 	 -96.0672
| 19> C 	 -29.7126 	 -33.9934 	 -94.25
| 20> H 	 -29.1213 	 -33.1253 	 -94.386
| 21> H 	 -29.8265 	 -34.1383 	 -93.1765
| 22> H 	 -29.1442 	 -34.8745 	 -94.658
| 23> S 	 -31.2707 	 -31.6762 	 -88.4713
| 24> C 	 -29.811 	 -31.1906 	 -87.6515
| 25> C 	 -28.9414 	 -30.5743 	 -88.5477
| 26> C 	 -29.4135 	 -30.487 	 -89.9012
| 27> C 	 -30.6892 	 -30.9743 	 -90.0054
| 28> H 	 -28.0016 	 -30.2722 	 -88.1994
| 29> C 	 -28.4772 	 -29.7595 	 -90.9311
| 30> H 	 -28.2164 	 -28.8979 	 -90.335
| 31> H 	 -28.9707 	 -29.2219 	 -91.843
| 32> C 	 -27.1274 	 -30.4956 	 -91.1991
| 33> H 	 -27.4208 	 -31.4764 	 -91.5732
| 34> H 	 -26.7052 	 -30.6153 	 -90.2042
| 35> C 	 -26.1778 	 -29.6143 	 -92.0161
| 36> H 	 -25.1998 	 -30.0622 	 -92.0981
| 37> H 	 -26.0211 	 -28.6625 	 -91.4921
| 38> H 	 -26.5588 	 -29.3467 	 -92.9912
| 39> H 	 -34.2308 	 -32.9659 	 -92.7903
| 40> H 	 -29.3341 	 -31.4621 	 -86.6969
| 41> *
| 42>
| 43>                          ****END OF INPUT****

CARTESIAN COORDINATES (ANGSTROEM)
---------------------------------
  S    -33.256400  -31.489700  -90.963600
  C    -33.314800  -32.421200  -92.446400
  C    -32.111500  -32.300800  -93.148700
  C    -31.166500  -31.490400  -92.487100
  C    -31.544600  -31.230000  -91.180000
  H    -30.248600  -31.074600  -92.816300
  C    -31.938200  -32.621200  -94.630100
  H    -31.598100  -31.747500  -95.121900
  H    -32.851900  -32.783700  -95.060900
  C    -30.981700  -33.800200  -95.071100
  H    -31.541700  -34.735700  -94.927100
  H    -30.611700  -33.682300  -96.067200
  C    -29.712600  -33.993400  -94.250000
  H    -29.121300  -33.125300  -94.386000
  H    -29.826500  -34.138300  -93.176500
  H    -29.144200  -34.874500  -94.658000
  S    -31.270700  -31.676200  -88.471300
  C    -29.811000  -31.190600  -87.651500
  C    -28.941400  -30.574300  -88.547700
  C    -29.413500  -30.487000  -89.901200
  C    -30.689200  -30.974300  -90.005400
  H    -28.001600  -30.272200  -88.199400
  C    -28.477200  -29.759500  -90.931100
  H    -28.216400  -28.897900  -90.335000
  H    -28.970700  -29.221900  -91.843000
  C    -27.127400  -30.495600  -91.199100
  H    -27.420800  -31.476400  -91.573200
  H    -26.705200  -30.615300  -90.204200
  C    -26.177800  -29.614300  -92.016100
  H    -25.199800  -30.062200  -92.098100
  H    -26.021100  -28.662500  -91.492100
  H    -26.558800  -29.346700  -92.991200
  H    -34.230800  -32.965900  -92.790300
  H    -29.334100  -31.462100  -86.696900

 Total Charge           Charge          ....    0
 Multiplicity           Mult            ....    1
 Number of Electrons    NEL             ....  134
 Basis Dimension        Dim             ....  322

ORBITAL ENERGIES
----------------

  NO   OCC          E(Eh)            E(eV)
   0   2.0000     -88.969120     -2420.9728
   1   2.0000     -88.966029     -2420.8887
   2   2.0000     -10.332164      -281.1525
   3   2.0000     -10.329813      -281.0885
   4   2.0000     -10.318182      -280.7720
   5   2.0000     -10.317270      -280.7472
   6   2.0000     -10.307059      -280.4693
   7   2.0000     -10.305430      -280.4250
   8   2.0000     -10.303297      -280.3670
   9   2.0000     -10.293390      -280.0974
  10   2.0000     -10.290540      -280.0198
  11   2.0000     -10.289339      -279.9871
  12   2.0000     -10.283923      -279.8398
  13   2.0000     -10.282788      -279.8089
  14   2.0000     -10.282661      -279.8054
  15   2.0000     -10.271034      -279.4891
  16   2.0000      -8.082915      -219.9473
  17   2.0000      -8.080959      -219.8941
  18   2.0000      -6.041726      -164.4037
  19   2.0000      -6.039392      -164.3402
  20   2.0000      -6.037484      -164.2883
  21   2.0000      -6.035572      -164.2363
  22   2.0000      -6.033436      -164.1782
  23   2.0000      -6.031653      -164.1296
  24   2.0000      -1.007095       -27.4045
  25   2.0000      -0.983184       -26.7538
  26   2.0000      -0.909291       -24.7431
  27   2.0000      -0.905450       -24.6385
  28   2.0000      -0.865565       -23.5532
  29   2.0000      -0.854812       -23.2606
  30   2.0000      -0.844730       -22.9863
  31   2.0000      -0.815445       -22.1894
  32   2.0000      -0.784259       -21.3408
  33   2.0000      -0.774626       -21.0787
  34   2.0000      -0.706643       -19.2287
  35   2.0000      -0.695406       -18.9230
  36   2.0000      -0.693073       -18.8595
  37   2.0000      -0.664638       -18.0857
  38   2.0000      -0.639568       -17.4035
  39   2.0000      -0.618037       -16.8176
  40   2.0000      -0.589696       -16.0464
  41   2.0000      -0.573123       -15.5955
  42   2.0000      -0.565431       -15.3862
  43   2.0000      -0.551871       -15.0172
  44   2.0000      -0.540014       -14.6945
  45   2.0000      -0.524092       -14.2613
  46   2.0000      -0.517311       -14.0767
  47   2.0000      -0.510798       -13.8995
  48   2.0000      -0.503521       -13.7015
  49   2.0000      -0.494101       -13.4452
  50   2.0000      -0.490623       -13.3505
  51   2.0000      -0.480719       -13.0810
  52   2.0000      -0.476315       -12.9612
  53   2.0000      -0.462023       -12.5723
  54   2.0000      -0.456657       -12.4263
  55   2.0000      -0.451651       -12.2901
  56   2.0000      -0.444437       -12.0938
  57   2.0000      -0.437376       -11.9016
  58   2.0000      -0.432698       -11.7743
  59   2.0000      -0.424926       -11.5628
  60   2.0000      -0.421330       -11.4650
  61   2.0000      -0.419071       -11.4035
  62   2.0000      -0.412137       -11.2148
  63   2.0000      -0.355278        -9.6676
  64   2.0000      -0.331516        -9.0210
  65   2.0000      -0.329138        -8.9563
  66   2.0000      -0.279250        -7.5988
  67   0.0000       0.018386         0.5003
  68   0.0000       0.074334         2.0227
  69   0.0000       0.097129         2.6430
  70   0.0000       0.114779         3.1233
  71   0.0000       0.124451         3.3865

MULLIKEN ATOMIC CHARGES
-----------------------
   0 S :    0.103998
   1 C :   -0.146509
   2 C :   -0.074666
   3 C :    0.030812
   4 C :   -0.154035
   5 H :   -0.004054
   6 C :    0.112866
   7 H :    0.016216
   8 H :   -0.006084
   9 C :   -0.072109
  10 H :    0.031428
  11 H :    0.028438
  12 C :   -0.071586
  13 H :    0.013374
  14 H :    0.046488
  15 H :    0.037727
  16 S :    0.107485
  17 C :   -0.079164
  18 C :   -0.055415
  19 C :   -0.012971
  20 C :   -0.115069
  21 H :   -0.002703
  22 C :   -0.018492
  23 H :    0.023693
  24 H :    0.049872
  25 C :   -0.065653
  26 H :    0.040416
  27 H :    0.025923
  28 C :   -0.016498
  29 H :    0.038209
  30 H :    0.023217
  31 H :    0.029192
  32 H :    0.070984
  33 H :    0.064670
Sum of atomic charges:   -0.0000000

LOEWDIN ATOMIC CHARGES
----------------------
   0 S :    0.402218
   1 C :   -0.205555
   2 C :   -0.060341
   3 C :   -0.058570
   4 C :   -0.182205
   5 H :    0.024986
   6 C :   -0.021649
   7 H :    0.029037
   8 H :    0.017349
   9 C :   -0.035413
  10 H :    0.024273
  11 H :    0.023147
  12 C :   -0.070297
  13 H :    0.012978
  14 H :    0.025057
  15 H :    0.032542
  16 S :    0.398569
  17 C :   -0.202701
  18 C :   -0.064635
  19 C :   -0.060977
  20 C :   -0.181621
  21 H :    0.017332
  22 C :   -0.043064
  23 H :    0.029279
  24 H :    0.037042
  25 C :   -0.036344
  26 H :    0.024812
  27 H :    0.025096
  28 C :   -0.061086
  29 H :    0.027264
  30 H :    0.028953
  31 H :    0.023178
  32 H :    0.038418
  33 H :    0.042926

  Mayer bond orders larger than 0.100000
B(  0-S ,  1-C ) :   1.1327 B(  0-S ,  4-C ) :   1.1574 B(  1-C ,  2-C ) :   1.5873
B(  1-C , 32-H ) :   0.9654 B(  2-C ,  3-C ) :   1.2459 B(  2-C ,  6-C ) :   1.0216
B(  3-C ,  4-C ) :   1.5537 B(  3-C ,  5-H ) :   0.9958 B(  4-C , 20-C ) :   1.0526
B(  6-C ,  7-H ) :   0.9415 B(  6-C ,  8-H ) :   0.9427 B(  6-C ,  9-C ) :   1.0608
B(  9-C , 10-H ) :   0.9588 B(  9-C , 11-H ) :   0.9587 B(  9-C , 12-C ) :   1.0964
B( 12-C , 13-H ) :   0.9756 B( 12-C , 14-H ) :   0.9681 B( 12-C , 15-H ) :   0.9725
B( 16-S , 17-C ) :   1.1343 B( 16-S , 20-C ) :   1.1231 B( 17-C , 18-C ) :   1.6407
B( 17-C , 33-H ) :   0.9588 B( 18-C , 19-C ) :   1.2293 B( 18-C , 21-H ) :   0.9877
B( 19-C , 20-C ) :   1.6296 B( 19-C , 22-C ) :   1.0033 B( 22-C , 23-H ) :   0.9378
B( 22-C , 24-H ) :   0.9488 B( 22-C , 25-C ) :   1.0438 B( 25-C , 26-H ) :   0.9605
B( 25-C , 27-H ) :   0.9535 B( 25-C , 28-C ) :   1.0805 B( 28-C , 29-H ) :   0.9741
B( 28-C , 30-H ) :   0.9702 B( 28-C , 31-H ) :   0.9758

Dispersion correction           -0.014215799
FINAL SINGLE POINT ENERGY     -1339.849278095993

DIPOLE MOMENT
-------------
                                X             Y             Z
Electronic contribution:    -22.88213       1.62821      20.55128
Nuclear contribution   :     23.55250      -1.54293     -20.97239
                        -----------------------------------------
Total Dipole Moment    :      0.67037       0.08527      -0.42111
                        -----------------------------------------
Magnitude (a.u.)       :      0.79624
Magnitude (Debye)      :      2.02389

Rotational constants in cm-1:     0.015226     0.010507     0.006964
Rotational constants in MHz :   456.469786   314.977171   208.774175

                             ****ORCA TERMINATED NORMALLY****
TOTAL RUN TIME: 0 days 0 hours 0 minutes 20 seconds 762 msec
