                         Program Version 4.2.1 -  RELEASE  -
|  1> ! wB97X-D3 SP def2-SVP
|  2> %pal
|  3> nprocs 24
|  4> end
|  5>
|  6> * xyz 0 1
|  7> S 	 -42.869 	 -0.688123 	 -23.3453
|  8> C 	 -42.0654 	 0.36937 	 -22.2357
|  9> C 	 -41.3741 	 -0.322344 	 -21.2438
| 10> C 	 -41.3131 	 -1.69376 	 -21.5672
| 11> C 	 -42.1302 	 -2.07597 	 -22.5766
| 12> H 	 -40.8966 	 -2.44166 	 -20.8908
| 13> C 	 -40.3942 	 0.329239 	 -20.3087
| 14> H 	 -40.3671 	 1.37859 	 -20.4815
| 15> H 	 -39.3274 	 0.0041551 	 -20.4745
| 16> C 	 -40.7313 	 0.114329 	 -18.8048
| 17> H 	 -40.0721 	 0.688815 	 -18.2398
| 18> H 	 -41.6861 	 0.595515 	 -18.4821
| 19> C 	 -40.4593 	 -1.2873 	 -18.2165
| 20> H 	 -41.314 	 -1.95067 	 -18.3929
| 21> H 	 -39.6165 	 -1.75439 	 -18.7249
| 22> H 	 -40.3655 	 -1.2472 	 -17.1011
| 23> S 	 -44.0963 	 -3.77576 	 -23.2935
| 24> C 	 -43.7915 	 -5.40622 	 -23.9264
| 25> C 	 -42.4599 	 -5.66913 	 -23.758
| 26> C 	 -41.7092 	 -4.56503 	 -23.2444
| 27> C 	 -42.4293 	 -3.47381 	 -22.9411
| 28> H 	 -42.1053 	 -6.62123 	 -24.0311
| 29> C 	 -40.2285 	 -4.58289 	 -23.3157
| 30> H 	 -39.8607 	 -5.36675 	 -22.651
| 31> H 	 -39.839 	 -3.71361 	 -22.8221
| 32> C 	 -39.5203 	 -4.69828 	 -24.6793
| 33> H 	 -39.7324 	 -5.7236 	 -25.0083
| 34> H 	 -38.4718 	 -4.51921 	 -24.6619
| 35> C 	 -40.0302 	 -3.65592 	 -25.6729
| 36> H 	 -39.7119 	 -2.66065 	 -25.3801
| 37> H 	 -41.1407 	 -3.68076 	 -25.8546
| 38> H 	 -39.5163 	 -3.81858 	 -26.6282
| 39> H 	 -42.0284 	 1.43182 	 -22.4448
| 40> H 	 -44.4464 	 -6.05656 	 -24.4977
| 41> *
| 42>
| 43>                          ****END OF INPUT****

CARTESIAN COORDINATES (ANGSTROEM)
---------------------------------
  S    -42.869000   -0.688123  -23.345300
  C    -42.065400    0.369370  -22.235700
  C    -41.374100   -0.322344  -21.243800
  C    -41.313100   -1.693760  -21.567200
  C    -42.130200   -2.075970  -22.576600
  H    -40.896600   -2.441660  -20.890800
  C    -40.394200    0.329239  -20.308700
  H    -40.367100    1.378590  -20.481500
  H    -39.327400    0.004155  -20.474500
  C    -40.731300    0.114329  -18.804800
  H    -40.072100    0.688815  -18.239800
  H    -41.686100    0.595515  -18.482100
  C    -40.459300   -1.287300  -18.216500
  H    -41.314000   -1.950670  -18.392900
  H    -39.616500   -1.754390  -18.724900
  H    -40.365500   -1.247200  -17.101100
  S    -44.096300   -3.775760  -23.293500
  C    -43.791500   -5.406220  -23.926400
  C    -42.459900   -5.669130  -23.758000
  C    -41.709200   -4.565030  -23.244400
  C    -42.429300   -3.473810  -22.941100
  H    -42.105300   -6.621230  -24.031100
  C    -40.228500   -4.582890  -23.315700
  H    -39.860700   -5.366750  -22.651000
  H    -39.839000   -3.713610  -22.822100
  C    -39.520300   -4.698280  -24.679300
  H    -39.732400   -5.723600  -25.008300
  H    -38.471800   -4.519210  -24.661900
  C    -40.030200   -3.655920  -25.672900
  H    -39.711900   -2.660650  -25.380100
  H    -41.140700   -3.680760  -25.854600
  H    -39.516300   -3.818580  -26.628200
  H    -42.028400    1.431820  -22.444800
  H    -44.446400   -6.056560  -24.497700

 Total Charge           Charge          ....    0
 Multiplicity           Mult            ....    1
 Number of Electrons    NEL             ....  134
 Basis Dimension        Dim             ....  322

ORBITAL ENERGIES
----------------

  NO   OCC          E(Eh)            E(eV)
   0   2.0000     -88.969535     -2420.9841
   1   2.0000     -88.958927     -2420.6955
   2   2.0000     -10.329525      -281.0807
   3   2.0000     -10.322992      -280.9029
   4   2.0000     -10.317192      -280.7451
   5   2.0000     -10.316582      -280.7285
   6   2.0000     -10.300180      -280.2821
   7   2.0000     -10.295816      -280.1634
   8   2.0000     -10.294921      -280.1390
   9   2.0000     -10.289802      -279.9997
  10   2.0000     -10.288906      -279.9754
  11   2.0000     -10.283340      -279.8239
  12   2.0000     -10.282348      -279.7969
  13   2.0000     -10.281865      -279.7838
  14   2.0000     -10.279805      -279.7277
  15   2.0000     -10.272127      -279.5188
  16   2.0000      -8.084573      -219.9924
  17   2.0000      -8.074058      -219.7063
  18   2.0000      -6.043014      -164.4388
  19   2.0000      -6.038989      -164.3292
  20   2.0000      -6.035419      -164.2321
  21   2.0000      -6.032709      -164.1584
  22   2.0000      -6.028431      -164.0419
  23   2.0000      -6.024694      -163.9403
  24   2.0000      -1.014207       -27.5980
  25   2.0000      -0.991243       -26.9731
  26   2.0000      -0.910527       -24.7767
  27   2.0000      -0.907280       -24.6883
  28   2.0000      -0.872923       -23.7534
  29   2.0000      -0.852968       -23.2105
  30   2.0000      -0.843161       -22.9436
  31   2.0000      -0.822609       -22.3843
  32   2.0000      -0.781127       -21.2555
  33   2.0000      -0.771987       -21.0068
  34   2.0000      -0.704361       -19.1666
  35   2.0000      -0.700249       -19.0547
  36   2.0000      -0.693051       -18.8589
  37   2.0000      -0.664259       -18.0754
  38   2.0000      -0.645689       -17.5701
  39   2.0000      -0.624479       -16.9929
  40   2.0000      -0.593895       -16.1607
  41   2.0000      -0.572863       -15.5884
  42   2.0000      -0.555979       -15.1290
  43   2.0000      -0.547334       -14.8937
  44   2.0000      -0.544391       -14.8136
  45   2.0000      -0.540068       -14.6960
  46   2.0000      -0.519339       -14.1319
  47   2.0000      -0.514890       -14.0109
  48   2.0000      -0.503146       -13.6913
  49   2.0000      -0.494205       -13.4480
  50   2.0000      -0.489245       -13.3130
  51   2.0000      -0.478500       -13.0207
  52   2.0000      -0.471118       -12.8198
  53   2.0000      -0.465323       -12.6621
  54   2.0000      -0.460629       -12.5343
  55   2.0000      -0.445489       -12.1224
  56   2.0000      -0.438599       -11.9349
  57   2.0000      -0.437177       -11.8962
  58   2.0000      -0.431210       -11.7338
  59   2.0000      -0.428071       -11.6484
  60   2.0000      -0.411753       -11.2044
  61   2.0000      -0.410113       -11.1597
  62   2.0000      -0.409024       -11.1301
  63   2.0000      -0.355260        -9.6671
  64   2.0000      -0.333887        -9.0855
  65   2.0000      -0.327347        -8.9076
  66   2.0000      -0.294222        -8.0062
  67   0.0000       0.031965         0.8698
  68   0.0000       0.070718         1.9243
  69   0.0000       0.110718         3.0128
  70   0.0000       0.116095         3.1591
  71   0.0000       0.135759         3.6942

MULLIKEN ATOMIC CHARGES
-----------------------
   0 S :    0.128958
   1 C :   -0.138312
   2 C :   -0.029859
   3 C :    0.010535
   4 C :   -0.122768
   5 H :    0.023574
   6 C :    0.030447
   7 H :    0.008756
   8 H :    0.044298
   9 C :   -0.061406
  10 H :    0.005071
  11 H :    0.031233
  12 C :   -0.074107
  13 H :    0.038903
  14 H :    0.032570
  15 H :    0.045147
  16 S :    0.074113
  17 C :   -0.091605
  18 C :   -0.022608
  19 C :   -0.054649
  20 C :   -0.135044
  21 H :    0.001135
  22 C :    0.079370
  23 H :    0.021443
  24 H :   -0.006341
  25 C :   -0.043619
  26 H :    0.023473
  27 H :    0.027394
  28 C :   -0.073332
  29 H :    0.027295
  30 H :    0.054352
  31 H :    0.027022
  32 H :    0.057843
  33 H :    0.060718
Sum of atomic charges:   -0.0000000

LOEWDIN ATOMIC CHARGES
----------------------
   0 S :    0.418532
   1 C :   -0.192672
   2 C :   -0.066438
   3 C :   -0.063448
   4 C :   -0.191554
   5 H :    0.034832
   6 C :   -0.028398
   7 H :    0.025351
   8 H :    0.038797
   9 C :   -0.045817
  10 H :    0.014617
  11 H :    0.029819
  12 C :   -0.070384
  13 H :    0.023454
  14 H :    0.022967
  15 H :    0.033927
  16 S :    0.391070
  17 C :   -0.175596
  18 C :   -0.061928
  19 C :   -0.071490
  20 C :   -0.189195
  21 H :    0.023644
  22 C :   -0.037187
  23 H :    0.030932
  24 H :    0.021920
  25 C :   -0.034223
  26 H :    0.019855
  27 H :    0.024779
  28 C :   -0.068564
  29 H :    0.023016
  30 H :    0.031834
  31 H :    0.025073
  32 H :    0.027435
  33 H :    0.035042

  Mayer bond orders larger than 0.100000
B(  0-S ,  1-C ) :   1.1562 B(  0-S ,  4-C ) :   1.1436 B(  1-C ,  2-C ) :   1.5816
B(  1-C , 32-H ) :   0.9688 B(  2-C ,  3-C ) :   1.2566 B(  2-C ,  6-C ) :   1.0302
B(  3-C ,  4-C ) :   1.5881 B(  3-C ,  5-H ) :   0.9808 B(  4-C , 20-C ) :   1.0172
B(  6-C ,  7-H ) :   0.9398 B(  6-C ,  8-H ) :   0.9481 B(  6-C ,  9-C ) :   1.0818
B(  9-C , 10-H ) :   0.9536 B(  9-C , 11-H ) :   0.9525 B(  9-C , 12-C ) :   1.0686
B( 12-C , 13-H ) :   0.9751 B( 12-C , 14-H ) :   0.9711 B( 12-C , 15-H ) :   0.9743
B( 16-S , 17-C ) :   1.1367 B( 16-S , 20-C ) :   1.1240 B( 17-C , 18-C ) :   1.6309
B( 17-C , 33-H ) :   0.9677 B( 18-C , 19-C ) :   1.2066 B( 18-C , 21-H ) :   1.0020
B( 19-C , 20-C ) :   1.6381 B( 19-C , 22-C ) :   1.0629 B( 22-C , 23-H ) :   0.9235
B( 22-C , 24-H ) :   0.9268 B( 22-C , 25-C ) :   1.0718 B( 25-C , 26-H ) :   0.9546
B( 25-C , 27-H ) :   0.9549 B( 25-C , 28-C ) :   1.0809 B( 28-C , 29-H ) :   0.9752
B( 28-C , 30-H ) :   0.9733 B( 28-C , 31-H ) :   0.9735

Dispersion correction           -0.015106462
FINAL SINGLE POINT ENERGY     -1339.876175980367

DIPOLE MOMENT
-------------
                                X             Y             Z
Electronic contribution:    -20.47469       0.30126      -8.61251
Nuclear contribution   :     21.11428      -0.26171       8.71914
                        -----------------------------------------
Total Dipole Moment    :      0.63959       0.03955       0.10662
                        -----------------------------------------
Magnitude (a.u.)       :      0.64962
Magnitude (Debye)      :      1.65121

Rotational constants in cm-1:     0.020031     0.008503     0.007898
Rotational constants in MHz :   600.517039   254.910543   236.771089

                             ****ORCA TERMINATED NORMALLY****
TOTAL RUN TIME: 0 days 0 hours 0 minutes 21 seconds 221 msec
