                         Program Version 4.2.1 -  RELEASE  -
|  1> ! wB97X-D3 SP def2-SVP
|  2> %pal
|  3> nprocs 24
|  4> end
|  5>
|  6> * xyz 0 1
|  7> S 	 0.152842 	 -17.5212 	 -101.131
|  8> C 	 1.03802 	 -18.9681 	 -101.061
|  9> C 	 1.98588 	 -19.0187 	 -102.1
| 10> C 	 1.9236 	 -17.9772 	 -103.02
| 11> C 	 1.01782 	 -16.9638 	 -102.619
| 12> H 	 2.64836 	 -17.8267 	 -103.858
| 13> C 	 3.02193 	 -20.0972 	 -102.223
| 14> H 	 3.17111 	 -20.5511 	 -101.275
| 15> H 	 3.95329 	 -19.6716 	 -102.4
| 16> C 	 2.4862 	 -21.1889 	 -103.218
| 17> H 	 1.52324 	 -21.5608 	 -102.84
| 18> H 	 2.24894 	 -20.682 	 -104.22
| 19> C 	 3.52296 	 -22.3485 	 -103.601
| 20> H 	 3.5227 	 -23.0679 	 -102.773
| 21> H 	 3.07528 	 -22.776 	 -104.514
| 22> H 	 4.54518 	 -22.0791 	 -103.929
| 23> S 	 1.22499 	 -15.764 	 -105.043
| 24> C 	 0.708473 	 -14.1212 	 -105.261
| 25> C 	 0.466864 	 -13.5622 	 -104.042
| 26> C 	 0.436963 	 -14.4421 	 -102.944
| 27> C 	 0.832599 	 -15.7226 	 -103.339
| 28> H 	 0.128158 	 -12.5145 	 -104.061
| 29> C 	 0.0273698 	 -14.0963 	 -101.526
| 30> H 	 -0.651929 	 -14.7607 	 -101.124
| 31> H 	 -0.507498 	 -13.094 	 -101.678
| 32> C 	 1.22284 	 -13.7992 	 -100.553
| 33> H 	 1.91295 	 -13.0555 	 -100.967
| 34> H 	 1.77772 	 -14.7822 	 -100.66
| 35> C 	 0.860079 	 -13.5963 	 -99.0908
| 36> H 	 0.267625 	 -14.3698 	 -98.604
| 37> H 	 0.236979 	 -12.7203 	 -99.0394
| 38> H 	 1.78268 	 -13.3394 	 -98.5522
| 39> H 	 0.717522 	 -19.7114 	 -100.307
| 40> H 	 0.813261 	 -13.6109 	 -106.183
| 41> *
| 42>
| 43>                          ****END OF INPUT****

CARTESIAN COORDINATES (ANGSTROEM)
---------------------------------
  S      0.152842  -17.521200  -101.131000
  C      1.038020  -18.968100  -101.061000
  C      1.985880  -19.018700  -102.100000
  C      1.923600  -17.977200  -103.020000
  C      1.017820  -16.963800  -102.619000
  H      2.648360  -17.826700  -103.858000
  C      3.021930  -20.097200  -102.223000
  H      3.171110  -20.551100  -101.275000
  H      3.953290  -19.671600  -102.400000
  C      2.486200  -21.188900  -103.218000
  H      1.523240  -21.560800  -102.840000
  H      2.248940  -20.682000  -104.220000
  C      3.522960  -22.348500  -103.601000
  H      3.522700  -23.067900  -102.773000
  H      3.075280  -22.776000  -104.514000
  H      4.545180  -22.079100  -103.929000
  S      1.224990  -15.764000  -105.043000
  C      0.708473  -14.121200  -105.261000
  C      0.466864  -13.562200  -104.042000
  C      0.436963  -14.442100  -102.944000
  C      0.832599  -15.722600  -103.339000
  H      0.128158  -12.514500  -104.061000
  C      0.027370  -14.096300  -101.526000
  H     -0.651929  -14.760700  -101.124000
  H     -0.507498  -13.094000  -101.678000
  C      1.222840  -13.799200  -100.553000
  H      1.912950  -13.055500  -100.967000
  H      1.777720  -14.782200  -100.660000
  C      0.860079  -13.596300  -99.090800
  H      0.267625  -14.369800  -98.604000
  H      0.236979  -12.720300  -99.039400
  H      1.782680  -13.339400  -98.552200
  H      0.717522  -19.711400  -100.307000
  H      0.813261  -13.610900  -106.183000

 Total Charge           Charge          ....    0
 Multiplicity           Mult            ....    1
 Number of Electrons    NEL             ....  134
 Basis Dimension        Dim             ....  322

ORBITAL ENERGIES
----------------

  NO   OCC          E(Eh)            E(eV)
   0   2.0000     -88.970987     -2421.0236
   1   2.0000     -88.963529     -2420.8207
   2   2.0000     -10.337353      -281.2937
   3   2.0000     -10.326855      -281.0080
   4   2.0000     -10.315498      -280.6990
   5   2.0000     -10.311012      -280.5769
   6   2.0000     -10.301685      -280.3231
   7   2.0000     -10.299238      -280.2565
   8   2.0000     -10.298606      -280.2393
   9   2.0000     -10.297137      -280.1993
  10   2.0000     -10.292140      -280.0634
  11   2.0000     -10.291962      -280.0585
  12   2.0000     -10.287486      -279.9367
  13   2.0000     -10.285116      -279.8722
  14   2.0000     -10.281238      -279.7667
  15   2.0000     -10.275123      -279.6003
  16   2.0000      -8.084990      -220.0038
  17   2.0000      -8.078610      -219.8301
  18   2.0000      -6.043472      -164.4512
  19   2.0000      -6.039411      -164.3407
  20   2.0000      -6.037057      -164.2767
  21   2.0000      -6.036043      -164.2491
  22   2.0000      -6.033124      -164.1696
  23   2.0000      -6.029374      -164.0676
  24   2.0000      -1.008531       -27.4435
  25   2.0000      -0.987414       -26.8689
  26   2.0000      -0.905883       -24.6503
  27   2.0000      -0.902188       -24.5498
  28   2.0000      -0.873747       -23.7759
  29   2.0000      -0.851769       -23.1778
  30   2.0000      -0.844311       -22.9749
  31   2.0000      -0.811051       -22.0698
  32   2.0000      -0.782432       -21.2911
  33   2.0000      -0.767387       -20.8817
  34   2.0000      -0.705267       -19.1913
  35   2.0000      -0.697621       -18.9832
  36   2.0000      -0.691063       -18.8048
  37   2.0000      -0.669964       -18.2306
  38   2.0000      -0.638578       -17.3766
  39   2.0000      -0.617193       -16.7947
  40   2.0000      -0.598685       -16.2910
  41   2.0000      -0.562811       -15.3149
  42   2.0000      -0.555979       -15.1289
  43   2.0000      -0.550687       -14.9849
  44   2.0000      -0.528743       -14.3878
  45   2.0000      -0.521596       -14.1934
  46   2.0000      -0.517318       -14.0769
  47   2.0000      -0.513574       -13.9751
  48   2.0000      -0.506612       -13.7856
  49   2.0000      -0.499588       -13.5945
  50   2.0000      -0.492464       -13.4006
  51   2.0000      -0.478250       -13.0138
  52   2.0000      -0.471977       -12.8431
  53   2.0000      -0.467410       -12.7189
  54   2.0000      -0.460642       -12.5347
  55   2.0000      -0.449361       -12.2277
  56   2.0000      -0.448616       -12.2075
  57   2.0000      -0.439890       -11.9700
  58   2.0000      -0.436827       -11.8867
  59   2.0000      -0.419746       -11.4219
  60   2.0000      -0.415172       -11.2974
  61   2.0000      -0.411535       -11.1984
  62   2.0000      -0.395870       -10.7722
  63   2.0000      -0.362681        -9.8690
  64   2.0000      -0.332186        -9.0392
  65   2.0000      -0.331690        -9.0257
  66   2.0000      -0.275284        -7.4909
  67   0.0000       0.016353         0.4450
  68   0.0000       0.082105         2.2342
  69   0.0000       0.110410         3.0044
  70   0.0000       0.115601         3.1457
  71   0.0000       0.134382         3.6567

MULLIKEN ATOMIC CHARGES
-----------------------
   0 S :    0.106783
   1 C :   -0.144896
   2 C :   -0.101692
   3 C :   -0.020759
   4 C :   -0.119580
   5 H :    0.044457
   6 C :    0.141752
   7 H :    0.000139
   8 H :    0.007986
   9 C :   -0.127713
  10 H :    0.034970
  11 H :    0.038105
  12 C :   -0.047936
  13 H :    0.041191
  14 H :    0.035548
  15 H :    0.041450
  16 S :    0.085816
  17 C :   -0.075834
  18 C :   -0.049528
  19 C :   -0.049630
  20 C :   -0.138326
  21 H :    0.025437
  22 C :    0.065499
  23 H :    0.016943
  24 H :    0.021523
  25 C :   -0.100492
  26 H :    0.033074
  27 H :    0.032389
  28 C :   -0.007842
  29 H :    0.036597
  30 H :    0.014514
  31 H :    0.040796
  32 H :    0.071197
  33 H :    0.048061
Sum of atomic charges:    0.0000000

LOEWDIN ATOMIC CHARGES
----------------------
   0 S :    0.417174
   1 C :   -0.225695
   2 C :   -0.062311
   3 C :   -0.074805
   4 C :   -0.175449
   5 H :    0.038398
   6 C :   -0.027138
   7 H :    0.023733
   8 H :    0.021148
   9 C :   -0.036798
  10 H :    0.026881
  11 H :    0.027808
  12 C :   -0.074622
  13 H :    0.024139
  14 H :    0.029918
  15 H :    0.028296
  16 S :    0.415098
  17 C :   -0.185762
  18 C :   -0.074170
  19 C :   -0.063949
  20 C :   -0.187077
  21 H :    0.035595
  22 C :   -0.030777
  23 H :    0.011674
  24 H :    0.035173
  25 C :   -0.044799
  26 H :    0.026619
  27 H :    0.025568
  28 C :   -0.066197
  29 H :    0.027920
  30 H :    0.020515
  31 H :    0.033477
  32 H :    0.036357
  33 H :    0.024056

  Mayer bond orders larger than 0.100000
B(  0-S ,  1-C ) :   1.1602 B(  0-S ,  4-C ) :   1.1531 B(  1-C ,  2-C ) :   1.5388
B(  1-C ,  4-C ) :   0.1083 B(  1-C , 32-H ) :   0.9676 B(  2-C ,  3-C ) :   1.3233
B(  2-C ,  6-C ) :   1.0339 B(  3-C ,  4-C ) :   1.4967 B(  3-C ,  5-H ) :   0.9722
B(  4-C , 20-C ) :   1.1059 B(  6-C ,  7-H ) :   0.9353 B(  6-C ,  8-H ) :   0.9405
B(  6-C ,  9-C ) :   1.0388 B(  9-C , 10-H ) :   0.9575 B(  9-C , 11-H ) :   0.9687
B(  9-C , 12-C ) :   1.0572 B( 12-C , 13-H ) :   0.9782 B( 12-C , 14-H ) :   0.9778
B( 12-C , 15-H ) :   0.9778 B( 16-S , 17-C ) :   1.1476 B( 16-S , 20-C ) :   1.1575
B( 17-C , 18-C ) :   1.6077 B( 17-C , 33-H ) :   0.9718 B( 18-C , 19-C ) :   1.2673
B( 18-C , 21-H ) :   0.9801 B( 19-C , 20-C ) :   1.5347 B( 19-C , 22-C ) :   1.0414
B( 22-C , 23-H ) :   0.9408 B( 22-C , 24-H ) :   0.9256 B( 22-C , 25-C ) :   1.0500
B( 25-C , 26-H ) :   0.9555 B( 25-C , 27-H ) :   0.9569 B( 25-C , 28-C ) :   1.0797
B( 28-C , 29-H ) :   0.9727 B( 28-C , 30-H ) :   0.9714 B( 28-C , 31-H ) :   0.9710

Dispersion correction           -0.014145492
FINAL SINGLE POINT ENERGY     -1339.871810824696

DIPOLE MOMENT
-------------
                                X             Y             Z
Electronic contribution:     -8.12230       6.87699      -9.09126
Nuclear contribution   :      8.33705      -6.88715       9.21569
                        -----------------------------------------
Total Dipole Moment    :      0.21476      -0.01016       0.12443
                        -----------------------------------------
Magnitude (a.u.)       :      0.24841
Magnitude (Debye)      :      0.63141

Rotational constants in cm-1:     0.020238     0.008207     0.006278
Rotational constants in MHz :   606.730986   246.030984   188.214125

                             ****ORCA TERMINATED NORMALLY****
TOTAL RUN TIME: 0 days 0 hours 0 minutes 20 seconds 69 msec
