                         Program Version 4.2.1 -  RELEASE  -
|  1> ! wB97X-D3 SP def2-SVP
|  2> %pal
|  3> nprocs 24
|  4> end
|  5>
|  6> * xyz 0 1
|  7> S 	 -50.8644 	 12.0608 	 -22.533
|  8> C 	 -49.5879 	 12.3597 	 -21.3583
|  9> C 	 -50.1177 	 12.4157 	 -20.1014
| 10> C 	 -51.5173 	 12.1921 	 -20.0676
| 11> C 	 -52.0634 	 12.0292 	 -21.3069
| 12> H 	 -52.2702 	 12.1881 	 -19.2518
| 13> C 	 -49.2401 	 12.4836 	 -18.8251
| 14> H 	 -48.9228 	 11.4604 	 -18.4834
| 15> H 	 -49.9459 	 12.7398 	 -18.0321
| 16> C 	 -48.0041 	 13.2902 	 -18.8131
| 17> H 	 -47.5325 	 13.1961 	 -17.8704
| 18> H 	 -47.1521 	 13.0818 	 -19.4747
| 19> C 	 -48.2039 	 14.7597 	 -18.8178
| 20> H 	 -48.3486 	 15.1424 	 -19.8051
| 21> H 	 -48.9876 	 14.9914 	 -18.0618
| 22> H 	 -47.2489 	 15.2364 	 -18.5743
| 23> S 	 -53.6462 	 9.80845 	 -21.8285
| 24> C 	 -55.3127 	 10.0611 	 -22.0714
| 25> C 	 -55.7335 	 11.3498 	 -21.8537
| 26> C 	 -54.6036 	 12.1729 	 -21.5309
| 27> C 	 -53.3902 	 11.5136 	 -21.6266
| 28> H 	 -56.7471 	 11.7573 	 -21.9615
| 29> C 	 -54.6764 	 13.6549 	 -21.3092
| 30> H 	 -53.7409 	 14.0051 	 -21.0422
| 31> H 	 -55.2571 	 13.8091 	 -20.4478
| 32> C 	 -55.1178 	 14.4725 	 -22.4952
| 33> H 	 -56.209 	 14.4348 	 -22.557
| 34> H 	 -54.7412 	 13.9741 	 -23.3898
| 35> C 	 -54.5579 	 15.9024 	 -22.4635
| 36> H 	 -54.8786 	 16.3865 	 -23.4211
| 37> H 	 -53.4328 	 15.9564 	 -22.3739
| 38> H 	 -55.0895 	 16.4329 	 -21.6347
| 39> H 	 -48.5498 	 12.4478 	 -21.6583
| 40> H 	 -55.9864 	 9.2348 	 -22.3884
| 41> *
| 42>
| 43>                          ****END OF INPUT****

CARTESIAN COORDINATES (ANGSTROEM)
---------------------------------
  S    -50.864400   12.060800  -22.533000
  C    -49.587900   12.359700  -21.358300
  C    -50.117700   12.415700  -20.101400
  C    -51.517300   12.192100  -20.067600
  C    -52.063400   12.029200  -21.306900
  H    -52.270200   12.188100  -19.251800
  C    -49.240100   12.483600  -18.825100
  H    -48.922800   11.460400  -18.483400
  H    -49.945900   12.739800  -18.032100
  C    -48.004100   13.290200  -18.813100
  H    -47.532500   13.196100  -17.870400
  H    -47.152100   13.081800  -19.474700
  C    -48.203900   14.759700  -18.817800
  H    -48.348600   15.142400  -19.805100
  H    -48.987600   14.991400  -18.061800
  H    -47.248900   15.236400  -18.574300
  S    -53.646200    9.808450  -21.828500
  C    -55.312700   10.061100  -22.071400
  C    -55.733500   11.349800  -21.853700
  C    -54.603600   12.172900  -21.530900
  C    -53.390200   11.513600  -21.626600
  H    -56.747100   11.757300  -21.961500
  C    -54.676400   13.654900  -21.309200
  H    -53.740900   14.005100  -21.042200
  H    -55.257100   13.809100  -20.447800
  C    -55.117800   14.472500  -22.495200
  H    -56.209000   14.434800  -22.557000
  H    -54.741200   13.974100  -23.389800
  C    -54.557900   15.902400  -22.463500
  H    -54.878600   16.386500  -23.421100
  H    -53.432800   15.956400  -22.373900
  H    -55.089500   16.432900  -21.634700
  H    -48.549800   12.447800  -21.658300
  H    -55.986400    9.234800  -22.388400

 Total Charge           Charge          ....    0
 Multiplicity           Mult            ....    1
 Number of Electrons    NEL             ....  134
 Basis Dimension        Dim             ....  322

ORBITAL ENERGIES
----------------

  NO   OCC          E(Eh)            E(eV)
   0   2.0000     -88.963490     -2420.8196
   1   2.0000     -88.961043     -2420.7531
   2   2.0000     -10.320390      -280.8321
   3   2.0000     -10.316839      -280.7355
   4   2.0000     -10.316500      -280.7262
   5   2.0000     -10.312540      -280.6185
   6   2.0000     -10.302101      -280.3344
   7   2.0000     -10.296164      -280.1729
   8   2.0000     -10.295009      -280.1414
   9   2.0000     -10.293805      -280.1087
  10   2.0000     -10.293421      -280.0982
  11   2.0000     -10.285659      -279.8870
  12   2.0000     -10.280046      -279.7343
  13   2.0000     -10.276337      -279.6333
  14   2.0000     -10.270249      -279.4677
  15   2.0000     -10.270168      -279.4655
  16   2.0000      -8.079533      -219.8553
  17   2.0000      -8.076616      -219.7759
  18   2.0000      -6.037878      -164.2990
  19   2.0000      -6.034994      -164.2205
  20   2.0000      -6.033932      -164.1916
  21   2.0000      -6.030869      -164.1083
  22   2.0000      -6.030309      -164.0931
  23   2.0000      -6.027610      -164.0196
  24   2.0000      -1.012837       -27.5607
  25   2.0000      -0.990129       -26.9428
  26   2.0000      -0.921295       -25.0697
  27   2.0000      -0.913959       -24.8701
  28   2.0000      -0.872015       -23.7287
  29   2.0000      -0.850711       -23.1490
  30   2.0000      -0.847715       -23.0675
  31   2.0000      -0.813941       -22.1485
  32   2.0000      -0.785930       -21.3862
  33   2.0000      -0.770797       -20.9745
  34   2.0000      -0.700958       -19.0740
  35   2.0000      -0.697115       -18.9695
  36   2.0000      -0.692358       -18.8400
  37   2.0000      -0.656093       -17.8532
  38   2.0000      -0.646477       -17.5915
  39   2.0000      -0.609392       -16.5824
  40   2.0000      -0.598359       -16.2822
  41   2.0000      -0.578492       -15.7416
  42   2.0000      -0.568213       -15.4619
  43   2.0000      -0.558506       -15.1977
  44   2.0000      -0.544707       -14.8222
  45   2.0000      -0.522829       -14.2269
  46   2.0000      -0.517629       -14.0854
  47   2.0000      -0.516386       -14.0516
  48   2.0000      -0.500766       -13.6265
  49   2.0000      -0.493563       -13.4305
  50   2.0000      -0.485744       -13.2178
  51   2.0000      -0.481658       -13.1066
  52   2.0000      -0.475380       -12.9358
  53   2.0000      -0.468535       -12.7495
  54   2.0000      -0.456617       -12.4252
  55   2.0000      -0.445032       -12.1099
  56   2.0000      -0.443093       -12.0572
  57   2.0000      -0.431183       -11.7331
  58   2.0000      -0.429493       -11.6871
  59   2.0000      -0.427145       -11.6232
  60   2.0000      -0.423558       -11.5256
  61   2.0000      -0.411139       -11.1877
  62   2.0000      -0.404585       -11.0093
  63   2.0000      -0.339017        -9.2251
  64   2.0000      -0.326731        -8.8908
  65   2.0000      -0.325348        -8.8532
  66   2.0000      -0.307814        -8.3760
  67   0.0000       0.044284         1.2050
  68   0.0000       0.064840         1.7644
  69   0.0000       0.117070         3.1856
  70   0.0000       0.126475         3.4416
  71   0.0000       0.132609         3.6085

MULLIKEN ATOMIC CHARGES
-----------------------
   0 S :    0.102654
   1 C :   -0.137852
   2 C :   -0.053093
   3 C :    0.038749
   4 C :   -0.205514
   5 H :    0.025333
   6 C :    0.079808
   7 H :    0.044686
   8 H :    0.011876
   9 C :   -0.065466
  10 H :    0.008972
  11 H :    0.022646
  12 C :   -0.039157
  13 H :    0.023211
  14 H :    0.034142
  15 H :    0.018575
  16 S :    0.132657
  17 C :   -0.104481
  18 C :   -0.019328
  19 C :   -0.088639
  20 C :   -0.159265
  21 H :    0.025192
  22 C :    0.160939
  23 H :   -0.016516
  24 H :    0.008271
  25 C :   -0.078543
  26 H :    0.025697
  27 H :    0.030482
  28 C :   -0.088315
  29 H :    0.041099
  30 H :    0.059347
  31 H :    0.038490
  32 H :    0.053038
  33 H :    0.070305
Sum of atomic charges:   -0.0000000

LOEWDIN ATOMIC CHARGES
----------------------
   0 S :    0.414756
   1 C :   -0.189776
   2 C :   -0.066831
   3 C :   -0.065913
   4 C :   -0.208960
   5 H :    0.041238
   6 C :   -0.032295
   7 H :    0.041811
   8 H :    0.030290
   9 C :   -0.058175
  10 H :    0.026284
  11 H :    0.026923
  12 C :   -0.061006
  13 H :    0.017427
  14 H :    0.028803
  15 H :    0.025241
  16 S :    0.432042
  17 C :   -0.197122
  18 C :   -0.077774
  19 C :   -0.046898
  20 C :   -0.222154
  21 H :    0.036627
  22 C :   -0.028766
  23 H :    0.017631
  24 H :    0.024766
  25 C :   -0.040606
  26 H :    0.021440
  27 H :    0.024872
  28 C :   -0.071427
  29 H :    0.030595
  30 H :    0.034677
  31 H :    0.028163
  32 H :    0.028583
  33 H :    0.035536

  Mayer bond orders larger than 0.100000
B(  0-S ,  1-C ) :   1.1420 B(  0-S ,  4-C ) :   1.1696 B(  1-C ,  2-C ) :   1.6060
B(  1-C , 32-H ) :   0.9758 B(  2-C ,  3-C ) :   1.2270 B(  2-C ,  6-C ) :   1.0028
B(  3-C ,  4-C ) :   1.5990 B(  3-C ,  5-H ) :   0.9905 B(  4-C , 20-C ) :   0.9916
B(  6-C ,  7-H ) :   0.9345 B(  6-C ,  8-H ) :   0.9364 B(  6-C ,  9-C ) :   1.0959
B(  9-C , 10-H ) :   0.9438 B(  9-C , 11-H ) :   0.9457 B(  9-C , 12-C ) :   1.0906
B( 12-C , 13-H ) :   0.9738 B( 12-C , 14-H ) :   0.9727 B( 12-C , 15-H ) :   0.9718
B( 16-S , 17-C ) :   1.1829 B( 16-S , 20-C ) :   1.1420 B( 17-C , 18-C ) :   1.5837
B( 17-C , 33-H ) :   0.9603 B( 18-C , 19-C ) :   1.2473 B( 18-C , 21-H ) :   0.9939
B( 19-C , 20-C ) :   1.6058 B( 19-C , 22-C ) :   1.0622 B( 22-C , 23-H ) :   0.9188
B( 22-C , 24-H ) :   0.9111 B( 22-C , 25-C ) :   1.0578 B( 25-C , 26-H ) :   0.9497
B( 25-C , 27-H ) :   0.9583 B( 25-C , 28-C ) :   1.0916 B( 28-C , 29-H ) :   0.9745
B( 28-C , 30-H ) :   0.9721 B( 28-C , 31-H ) :   0.9747

Dispersion correction           -0.014204821
FINAL SINGLE POINT ENERGY     -1339.875912701742

DIPOLE MOMENT
-------------
                                X             Y             Z
Electronic contribution:     -5.27892     -22.34815     -10.26033
Nuclear contribution   :      5.28055      22.57660      10.64986
                        -----------------------------------------
Total Dipole Moment    :      0.00163       0.22845       0.38953
                        -----------------------------------------
Magnitude (a.u.)       :      0.45158
Magnitude (Debye)      :      1.14782

Rotational constants in cm-1:     0.020084     0.008179     0.006697
Rotational constants in MHz :   602.106861   245.192885   200.760740

                             ****ORCA TERMINATED NORMALLY****
TOTAL RUN TIME: 0 days 0 hours 0 minutes 21 seconds 487 msec
