                         Program Version 4.2.1 -  RELEASE  -
|  1> ! wB97X-D3 SP def2-SVP
|  2> %pal
|  3> nprocs 24
|  4> end
|  5>
|  6> * xyz 0 1
|  7> S 	 -133.877 	 65.0379 	 -59.6108
|  8> C 	 -134.123 	 66.5091 	 -60.5848
|  9> C 	 -134.886 	 66.2653 	 -61.6963
| 10> C 	 -135.252 	 64.8525 	 -61.7811
| 11> C 	 -135.02 	 64.1792 	 -60.5633
| 12> H 	 -135.707 	 64.3924 	 -62.6522
| 13> C 	 -135.121 	 67.3284 	 -62.7871
| 14> H 	 -134.627 	 68.198 	 -62.4385
| 15> H 	 -136.187 	 67.5931 	 -62.8051
| 16> C 	 -134.711 	 67.0193 	 -64.2696
| 17> H 	 -135.263 	 66.153 	 -64.6098
| 18> H 	 -134.937 	 67.885 	 -64.8834
| 19> C 	 -133.248 	 66.7853 	 -64.4765
| 20> H 	 -133.002 	 66.7982 	 -65.589
| 21> H 	 -132.698 	 67.5026 	 -63.826
| 22> H 	 -132.93 	 65.8385 	 -64.1711
| 23> S 	 -134.607 	 61.5877 	 -61.4282
| 24> C 	 -135.459 	 60.2974 	 -60.6426
| 25> C 	 -136.288 	 60.7857 	 -59.6912
| 26> C 	 -136.357 	 62.2206 	 -59.5642
| 27> C 	 -135.339 	 62.7892 	 -60.3311
| 28> H 	 -136.893 	 60.0497 	 -59.1832
| 29> C 	 -137.18 	 62.982 	 -58.4905
| 30> H 	 -138.189 	 63.0083 	 -58.8388
| 31> H 	 -136.742 	 64.031 	 -58.5273
| 32> C 	 -137.082 	 62.5921 	 -56.9655
| 33> H 	 -137.506 	 61.584 	 -56.7695
| 34> H 	 -137.699 	 63.2663 	 -56.404
| 35> C 	 -135.576 	 62.5939 	 -56.4868
| 36> H 	 -135.142 	 63.5907 	 -56.5277
| 37> H 	 -134.879 	 61.9339 	 -57.089
| 38> H 	 -135.557 	 62.2785 	 -55.4554
| 39> H 	 -133.659 	 67.4699 	 -60.3565
| 40> H 	 -135.357 	 59.2689 	 -61.0143
| 41> *
| 42>
| 43>                          ****END OF INPUT****

CARTESIAN COORDINATES (ANGSTROEM)
---------------------------------
  S    -133.877000   65.037900  -59.610800
  C    -134.123000   66.509100  -60.584800
  C    -134.886000   66.265300  -61.696300
  C    -135.252000   64.852500  -61.781100
  C    -135.020000   64.179200  -60.563300
  H    -135.707000   64.392400  -62.652200
  C    -135.121000   67.328400  -62.787100
  H    -134.627000   68.198000  -62.438500
  H    -136.187000   67.593100  -62.805100
  C    -134.711000   67.019300  -64.269600
  H    -135.263000   66.153000  -64.609800
  H    -134.937000   67.885000  -64.883400
  C    -133.248000   66.785300  -64.476500
  H    -133.002000   66.798200  -65.589000
  H    -132.698000   67.502600  -63.826000
  H    -132.930000   65.838500  -64.171100
  S    -134.607000   61.587700  -61.428200
  C    -135.459000   60.297400  -60.642600
  C    -136.288000   60.785700  -59.691200
  C    -136.357000   62.220600  -59.564200
  C    -135.339000   62.789200  -60.331100
  H    -136.893000   60.049700  -59.183200
  C    -137.180000   62.982000  -58.490500
  H    -138.189000   63.008300  -58.838800
  H    -136.742000   64.031000  -58.527300
  C    -137.082000   62.592100  -56.965500
  H    -137.506000   61.584000  -56.769500
  H    -137.699000   63.266300  -56.404000
  C    -135.576000   62.593900  -56.486800
  H    -135.142000   63.590700  -56.527700
  H    -134.879000   61.933900  -57.089000
  H    -135.557000   62.278500  -55.455400
  H    -133.659000   67.469900  -60.356500
  H    -135.357000   59.268900  -61.014300

 Total Charge           Charge          ....    0
 Multiplicity           Mult            ....    1
 Number of Electrons    NEL             ....  134
 Basis Dimension        Dim             ....  322

ORBITAL ENERGIES
----------------

  NO   OCC          E(Eh)            E(eV)
   0   2.0000     -88.967069     -2420.9170
   1   2.0000     -88.960702     -2420.7438
   2   2.0000     -10.328117      -281.0424
   3   2.0000     -10.325786      -280.9789
   4   2.0000     -10.315807      -280.7074
   5   2.0000     -10.314945      -280.6839
   6   2.0000     -10.308489      -280.5082
   7   2.0000     -10.305361      -280.4231
   8   2.0000     -10.300018      -280.2777
   9   2.0000     -10.296966      -280.1947
  10   2.0000     -10.294278      -280.1215
  11   2.0000     -10.293534      -280.1013
  12   2.0000     -10.290533      -280.0196
  13   2.0000     -10.286226      -279.9024
  14   2.0000     -10.277477      -279.6644
  15   2.0000     -10.274219      -279.5757
  16   2.0000      -8.081689      -219.9139
  17   2.0000      -8.075597      -219.7482
  18   2.0000      -6.040186      -164.3618
  19   2.0000      -6.036354      -164.2576
  20   2.0000      -6.034110      -164.1965
  21   2.0000      -6.032310      -164.1475
  22   2.0000      -6.030103      -164.0875
  23   2.0000      -6.026336      -163.9849
  24   2.0000      -1.004568       -27.3357
  25   2.0000      -0.981362       -26.7042
  26   2.0000      -0.910771       -24.7833
  27   2.0000      -0.895273       -24.3616
  28   2.0000      -0.871039       -23.7022
  29   2.0000      -0.844685       -22.9850
  30   2.0000      -0.840052       -22.8590
  31   2.0000      -0.809489       -22.0273
  32   2.0000      -0.783205       -21.3121
  33   2.0000      -0.771182       -20.9849
  34   2.0000      -0.709448       -19.3051
  35   2.0000      -0.697645       -18.9839
  36   2.0000      -0.688392       -18.7321
  37   2.0000      -0.652925       -17.7670
  38   2.0000      -0.635650       -17.2969
  39   2.0000      -0.615755       -16.7555
  40   2.0000      -0.591438       -16.0938
  41   2.0000      -0.563433       -15.3318
  42   2.0000      -0.555599       -15.1186
  43   2.0000      -0.549989       -14.9660
  44   2.0000      -0.543323       -14.7846
  45   2.0000      -0.534805       -14.5528
  46   2.0000      -0.518036       -14.0965
  47   2.0000      -0.511477       -13.9180
  48   2.0000      -0.496702       -13.5159
  49   2.0000      -0.493982       -13.4419
  50   2.0000      -0.486597       -13.2410
  51   2.0000      -0.473098       -12.8736
  52   2.0000      -0.466508       -12.6943
  53   2.0000      -0.459469       -12.5028
  54   2.0000      -0.458035       -12.4638
  55   2.0000      -0.446442       -12.1483
  56   2.0000      -0.442413       -12.0387
  57   2.0000      -0.434232       -11.8160
  58   2.0000      -0.428739       -11.6666
  59   2.0000      -0.425070       -11.5668
  60   2.0000      -0.422198       -11.4886
  61   2.0000      -0.417807       -11.3691
  62   2.0000      -0.412704       -11.2303
  63   2.0000      -0.332443        -9.0462
  64   2.0000      -0.329267        -8.9598
  65   2.0000      -0.324743        -8.8367
  66   2.0000      -0.305849        -8.3226
  67   0.0000       0.036903         1.0042
  68   0.0000       0.057598         1.5673
  69   0.0000       0.105157         2.8615
  70   0.0000       0.120916         3.2903
  71   0.0000       0.131118         3.5679

MULLIKEN ATOMIC CHARGES
-----------------------
   0 S :    0.117052
   1 C :   -0.134372
   2 C :   -0.088363
   3 C :    0.018040
   4 C :   -0.165289
   5 H :    0.023909
   6 C :    0.080698
   7 H :   -0.001466
   8 H :    0.040362
   9 C :   -0.073713
  10 H :    0.030737
  11 H :    0.034612
  12 C :   -0.043486
  13 H :    0.042636
  14 H :    0.028047
  15 H :    0.017909
  16 S :    0.095627
  17 C :   -0.104643
  18 C :   -0.022257
  19 C :   -0.015762
  20 C :   -0.180621
  21 H :    0.013799
  22 C :    0.042804
  23 H :    0.035321
  24 H :    0.041261
  25 C :   -0.054805
  26 H :    0.030495
  27 H :    0.032602
  28 C :   -0.081685
  29 H :    0.032204
  30 H :    0.055612
  31 H :    0.032688
  32 H :    0.051524
  33 H :    0.068525
Sum of atomic charges:    0.0000000

LOEWDIN ATOMIC CHARGES
----------------------
   0 S :    0.409908
   1 C :   -0.191290
   2 C :   -0.061689
   3 C :   -0.056076
   4 C :   -0.210672
   5 H :    0.029275
   6 C :   -0.026676
   7 H :    0.020160
   8 H :    0.035977
   9 C :   -0.040292
  10 H :    0.021763
  11 H :    0.028371
  12 C :   -0.066950
  13 H :    0.035891
  14 H :    0.028445
  15 H :    0.014381
  16 S :    0.390410
  17 C :   -0.187626
  18 C :   -0.077717
  19 C :   -0.048325
  20 C :   -0.194920
  21 H :    0.029321
  22 C :   -0.032225
  23 H :    0.027637
  24 H :    0.038483
  25 C :   -0.035052
  26 H :    0.022219
  27 H :    0.024158
  28 C :   -0.070836
  29 H :    0.022110
  30 H :    0.035413
  31 H :    0.022924
  32 H :    0.028598
  33 H :    0.034902

  Mayer bond orders larger than 0.100000
B(  0-S ,  1-C ) :   1.1268 B(  0-S ,  4-C ) :   1.1628 B(  1-C ,  2-C ) :   1.6295
B(  1-C , 32-H ) :   0.9644 B(  2-C ,  3-C ) :   1.2245 B(  2-C ,  6-C ) :   1.0177
B(  3-C ,  4-C ) :   1.5701 B(  3-C ,  5-H ) :   0.9943 B(  4-C , 20-C ) :   1.0246
B(  6-C ,  7-H ) :   0.9391 B(  6-C ,  8-H ) :   0.9356 B(  6-C ,  9-C ) :   1.0787
B(  9-C , 10-H ) :   0.9532 B(  9-C , 11-H ) :   0.9556 B(  9-C , 12-C ) :   1.0793
B( 12-C , 13-H ) :   0.9732 B( 12-C , 14-H ) :   0.9742 B( 12-C , 15-H ) :   0.9733
B( 16-S , 17-C ) :   1.1434 B( 16-S , 20-C ) :   1.1435 B( 17-C , 18-C ) :   1.6333
B( 17-C , 33-H ) :   0.9654 B( 18-C , 19-C ) :   1.2082 B( 18-C , 21-H ) :   0.9921
B( 19-C , 20-C ) :   1.6018 B( 19-C , 22-C ) :   1.0348 B( 22-C , 23-H ) :   0.9336
B( 22-C , 24-H ) :   0.9403 B( 22-C , 25-C ) :   1.0654 B( 25-C , 26-H ) :   0.9562
B( 25-C , 27-H ) :   0.9559 B( 25-C , 28-C ) :   1.0651 B( 28-C , 29-H ) :   0.9770
B( 28-C , 30-H ) :   0.9754 B( 28-C , 31-H ) :   0.9757

Dispersion correction           -0.015030141
FINAL SINGLE POINT ENERGY     -1339.876680002071

DIPOLE MOMENT
-------------
                                X             Y             Z
Electronic contribution:      4.49305      -9.60069       0.55757
Nuclear contribution   :     -4.82644       9.72879      -0.70421
                        -----------------------------------------
Total Dipole Moment    :     -0.33339       0.12810      -0.14664
                        -----------------------------------------
Magnitude (a.u.)       :      0.38609
Magnitude (Debye)      :      0.98136

Rotational constants in cm-1:     0.022991     0.008028     0.006772
Rotational constants in MHz :   689.263320   240.683992   203.007711

                             ****ORCA TERMINATED NORMALLY****
TOTAL RUN TIME: 0 days 0 hours 0 minutes 21 seconds 402 msec
