                         Program Version 4.2.1 -  RELEASE  -
|  1> ! wB97X-D3 SP def2-SVP
|  2> %pal
|  3> nprocs 24
|  4> end
|  5>
|  6> * xyz 0 1
|  7> S 	 -100.838 	 42.5365 	 -87.9781
|  8> C 	 -102.304 	 42.2852 	 -88.9011
|  9> C 	 -103.426 	 42.1111 	 -88.0752
| 10> C 	 -103.19 	 42.517 	 -86.6874
| 11> C 	 -101.872 	 42.9251 	 -86.5601
| 12> H 	 -103.753 	 42.3936 	 -85.7906
| 13> C 	 -104.772 	 41.5412 	 -88.4768
| 14> H 	 -104.634 	 40.4452 	 -88.4973
| 15> H 	 -104.943 	 41.8823 	 -89.5153
| 16> C 	 -106.073 	 41.8245 	 -87.5712
| 17> H 	 -105.753 	 41.6478 	 -86.5184
| 18> H 	 -106.338 	 42.94 	 -87.6132
| 19> C 	 -107.288 	 40.9078 	 -88.0518
| 20> H 	 -107.285 	 39.8522 	 -87.7102
| 21> H 	 -108.319 	 41.2426 	 -87.7736
| 22> H 	 -107.237 	 40.9676 	 -89.11
| 23> S 	 -100.324 	 42.2243 	 -84.3311
| 24> C 	 -100.083 	 43.4803 	 -83.0871
| 25> C 	 -100.98 	 44.5088 	 -83.3263
| 26> C 	 -101.53 	 44.5543 	 -84.6303
| 27> C 	 -101.277 	 43.4219 	 -85.2917
| 28> H 	 -101.002 	 45.3619 	 -82.6881
| 29> C 	 -102.345 	 45.7451 	 -85.1538
| 30> H 	 -102.981 	 45.3471 	 -85.9494
| 31> H 	 -101.79 	 46.5333 	 -85.5517
| 32> C 	 -103.359 	 46.2943 	 -84.043
| 33> H 	 -102.762 	 46.9211 	 -83.4509
| 34> H 	 -103.785 	 45.5082 	 -83.2936
| 35> C 	 -104.438 	 47.1827 	 -84.6611
| 36> H 	 -103.966 	 48.0189 	 -85.251
| 37> H 	 -105.105 	 47.5338 	 -83.8282
| 38> H 	 -105.035 	 46.6292 	 -85.2343
| 39> H 	 -102.452 	 42.0226 	 -89.9547
| 40> H 	 -99.5672 	 43.3059 	 -82.1934
| 41> *
| 42>
| 43>                          ****END OF INPUT****

CARTESIAN COORDINATES (ANGSTROEM)
---------------------------------
  S    -100.838000   42.536500  -87.978100
  C    -102.304000   42.285200  -88.901100
  C    -103.426000   42.111100  -88.075200
  C    -103.190000   42.517000  -86.687400
  C    -101.872000   42.925100  -86.560100
  H    -103.753000   42.393600  -85.790600
  C    -104.772000   41.541200  -88.476800
  H    -104.634000   40.445200  -88.497300
  H    -104.943000   41.882300  -89.515300
  C    -106.073000   41.824500  -87.571200
  H    -105.753000   41.647800  -86.518400
  H    -106.338000   42.940000  -87.613200
  C    -107.288000   40.907800  -88.051800
  H    -107.285000   39.852200  -87.710200
  H    -108.319000   41.242600  -87.773600
  H    -107.237000   40.967600  -89.110000
  S    -100.324000   42.224300  -84.331100
  C    -100.083000   43.480300  -83.087100
  C    -100.980000   44.508800  -83.326300
  C    -101.530000   44.554300  -84.630300
  C    -101.277000   43.421900  -85.291700
  H    -101.002000   45.361900  -82.688100
  C    -102.345000   45.745100  -85.153800
  H    -102.981000   45.347100  -85.949400
  H    -101.790000   46.533300  -85.551700
  C    -103.359000   46.294300  -84.043000
  H    -102.762000   46.921100  -83.450900
  H    -103.785000   45.508200  -83.293600
  C    -104.438000   47.182700  -84.661100
  H    -103.966000   48.018900  -85.251000
  H    -105.105000   47.533800  -83.828200
  H    -105.035000   46.629200  -85.234300
  H    -102.452000   42.022600  -89.954700
  H    -99.567200   43.305900  -82.193400

 Total Charge           Charge          ....    0
 Multiplicity           Mult            ....    1
 Number of Electrons    NEL             ....  134
 Basis Dimension        Dim             ....  322

ORBITAL ENERGIES
----------------

  NO   OCC          E(Eh)            E(eV)
   0   2.0000     -88.969465     -2420.9822
   1   2.0000     -88.960687     -2420.7434
   2   2.0000     -10.331332      -281.1298
   3   2.0000     -10.322513      -280.8899
   4   2.0000     -10.317030      -280.7407
   5   2.0000     -10.315323      -280.6942
   6   2.0000     -10.308729      -280.5148
   7   2.0000     -10.307440      -280.4797
   8   2.0000     -10.300610      -280.2938
   9   2.0000     -10.297310      -280.2040
  10   2.0000     -10.297044      -280.1968
  11   2.0000     -10.291312      -280.0408
  12   2.0000     -10.291133      -280.0360
  13   2.0000     -10.289555      -279.9930
  14   2.0000     -10.288969      -279.9771
  15   2.0000     -10.275968      -279.6233
  16   2.0000      -8.083113      -219.9527
  17   2.0000      -8.074525      -219.7190
  18   2.0000      -6.041748      -164.4043
  19   2.0000      -6.038117      -164.3055
  20   2.0000      -6.033460      -164.1788
  21   2.0000      -6.033082      -164.1685
  22   2.0000      -6.029408      -164.0685
  23   2.0000      -6.025033      -163.9495
  24   2.0000      -0.999394       -27.1949
  25   2.0000      -0.977024       -26.5862
  26   2.0000      -0.902586       -24.5606
  27   2.0000      -0.896900       -24.4059
  28   2.0000      -0.864546       -23.5255
  29   2.0000      -0.849124       -23.1058
  30   2.0000      -0.842870       -22.9357
  31   2.0000      -0.811347       -22.0779
  32   2.0000      -0.780594       -21.2410
  33   2.0000      -0.767311       -20.8796
  34   2.0000      -0.708328       -19.2746
  35   2.0000      -0.702869       -19.1260
  36   2.0000      -0.689734       -18.7686
  37   2.0000      -0.657993       -17.9049
  38   2.0000      -0.638522       -17.3751
  39   2.0000      -0.612017       -16.6538
  40   2.0000      -0.599091       -16.3021
  41   2.0000      -0.566756       -15.4222
  42   2.0000      -0.558284       -15.1917
  43   2.0000      -0.554940       -15.1007
  44   2.0000      -0.526260       -14.3203
  45   2.0000      -0.522101       -14.2071
  46   2.0000      -0.512740       -13.9524
  47   2.0000      -0.507013       -13.7965
  48   2.0000      -0.499831       -13.6011
  49   2.0000      -0.496122       -13.5002
  50   2.0000      -0.487120       -13.2552
  51   2.0000      -0.477209       -12.9855
  52   2.0000      -0.472784       -12.8651
  53   2.0000      -0.461778       -12.5656
  54   2.0000      -0.458695       -12.4817
  55   2.0000      -0.447576       -12.1792
  56   2.0000      -0.444944       -12.1075
  57   2.0000      -0.435945       -11.8627
  58   2.0000      -0.429987       -11.7005
  59   2.0000      -0.428409       -11.6576
  60   2.0000      -0.423591       -11.5265
  61   2.0000      -0.417932       -11.3725
  62   2.0000      -0.410767       -11.1775
  63   2.0000      -0.335729        -9.1356
  64   2.0000      -0.330703        -8.9989
  65   2.0000      -0.322766        -8.7829
  66   2.0000      -0.299089        -8.1386
  67   0.0000       0.033345         0.9074
  68   0.0000       0.054333         1.4785
  69   0.0000       0.101550         2.7633
  70   0.0000       0.112608         3.0642
  71   0.0000       0.133322         3.6279

MULLIKEN ATOMIC CHARGES
-----------------------
   0 S :    0.120729
   1 C :   -0.101684
   2 C :   -0.106348
   3 C :    0.048070
   4 C :   -0.190696
   5 H :    0.023582
   6 C :    0.015238
   7 H :    0.053283
   8 H :    0.033521
   9 C :   -0.111441
  10 H :    0.042874
  11 H :    0.052407
  12 C :   -0.056730
  13 H :    0.046878
  14 H :    0.038416
  15 H :    0.029137
  16 S :    0.079065
  17 C :   -0.065667
  18 C :   -0.025617
  19 C :   -0.028027
  20 C :   -0.169299
  21 H :    0.010720
  22 C :    0.111057
  23 H :    0.027864
  24 H :    0.030978
  25 C :   -0.149736
  26 H :    0.020170
  27 H :    0.052514
  28 C :   -0.005674
  29 H :    0.042863
  30 H :    0.036944
  31 H :    0.004578
  32 H :    0.045289
  33 H :    0.044742
Sum of atomic charges:   -0.0000000

LOEWDIN ATOMIC CHARGES
----------------------
   0 S :    0.389719
   1 C :   -0.212138
   2 C :   -0.058107
   3 C :   -0.057100
   4 C :   -0.173138
   5 H :    0.033371
   6 C :   -0.043429
   7 H :    0.038811
   8 H :    0.031418
   9 C :   -0.044435
  10 H :    0.022071
  11 H :    0.033673
  12 C :   -0.071248
  13 H :    0.031403
  14 H :    0.031549
  15 H :    0.020808
  16 S :    0.354665
  17 C :   -0.157305
  18 C :   -0.064905
  19 C :   -0.058827
  20 C :   -0.179810
  21 H :    0.023916
  22 C :   -0.015249
  23 H :    0.030530
  24 H :    0.025383
  25 C :   -0.044186
  26 H :    0.010531
  27 H :    0.035821
  28 C :   -0.057216
  29 H :    0.034854
  30 H :    0.035303
  31 H :    0.002698
  32 H :    0.032331
  33 H :    0.018237

  Mayer bond orders larger than 0.100000
B(  0-S ,  1-C ) :   1.1171 B(  0-S ,  4-C ) :   1.1388 B(  1-C ,  2-C ) :   1.6526
B(  1-C , 32-H ) :   0.9625 B(  2-C ,  3-C ) :   1.1893 B(  2-C ,  6-C ) :   1.0179
B(  3-C ,  4-C ) :   1.6123 B(  3-C ,  5-H ) :   0.9908 B(  4-C , 20-C ) :   1.0004
B(  6-C ,  7-H ) :   0.9392 B(  6-C ,  8-H ) :   0.9390 B(  6-C ,  9-C ) :   1.0556
B(  9-C , 10-H ) :   0.9539 B(  9-C , 11-H ) :   0.9619 B(  9-C , 12-C ) :   1.0545
B( 12-C , 13-H ) :   0.9778 B( 12-C , 14-H ) :   0.9770 B( 12-C , 15-H ) :   0.9781
B( 16-S , 17-C ) :   1.1298 B( 16-S , 20-C ) :   1.1245 B( 17-C , 18-C ) :   1.6385
B( 17-C , 33-H ) :   0.9736 B( 18-C , 19-C ) :   1.2165 B( 18-C , 21-H ) :   0.9821
B( 19-C , 20-C ) :   1.6810 B( 19-C , 22-C ) :   1.0259 B( 22-C , 23-H ) :   0.9405
B( 22-C , 24-H ) :   0.9323 B( 22-C , 25-C ) :   1.0462 B( 25-C , 26-H ) :   0.9510
B( 25-C , 27-H ) :   0.9625 B( 25-C , 28-C ) :   1.0873 B( 28-C , 29-H ) :   0.9699
B( 28-C , 30-H ) :   0.9703 B( 28-C , 31-H ) :   0.9772

Dispersion correction           -0.013748944
FINAL SINGLE POINT ENERGY     -1339.837818339910

DIPOLE MOMENT
-------------
                                X             Y             Z
Electronic contribution:     28.87533      -9.30603       0.70187
Nuclear contribution   :    -29.57271       9.48156      -0.58224
                        -----------------------------------------
Total Dipole Moment    :     -0.69738       0.17552       0.11963
                        -----------------------------------------
Magnitude (a.u.)       :      0.72901
Magnitude (Debye)      :      1.85301

Rotational constants in cm-1:     0.015417     0.008795     0.006768
Rotational constants in MHz :   462.182370   263.658931   202.898058

                             ****ORCA TERMINATED NORMALLY****
TOTAL RUN TIME: 0 days 0 hours 0 minutes 19 seconds 955 msec
