                         Program Version 4.2.1 -  RELEASE  -
|  1> ! wB97X-D3 SP def2-SVP
|  2> %pal
|  3> nprocs 24
|  4> end
|  5>
|  6> * xyz 0 1
|  7> S 	 -28.0991 	 17.0222 	 6.06277
|  8> C 	 -29.7162 	 16.6182 	 5.46105
|  9> C 	 -30.5267 	 17.7499 	 5.47187
| 10> C 	 -29.8961 	 18.8551 	 6.13346
| 11> C 	 -28.6273 	 18.618 	 6.50876
| 12> H 	 -30.3396 	 19.833 	 6.27762
| 13> C 	 -31.8976 	 17.8167 	 5.02528
| 14> H 	 -31.8899 	 17.4759 	 3.99883
| 15> H 	 -32.0749 	 18.8794 	 4.99341
| 16> C 	 -32.9014 	 16.974 	 5.92146
| 17> H 	 -32.6167 	 15.928 	 5.92835
| 18> H 	 -32.8411 	 17.2029 	 7.00153
| 19> C 	 -34.3897 	 17.0426 	 5.60494
| 20> H 	 -34.638 	 18.0473 	 5.35375
| 21> H 	 -34.6741 	 16.4833 	 4.74983
| 22> H 	 -34.9498 	 16.782 	 6.54141
| 23> S 	 -27.0634 	 18.5347 	 8.75204
| 24> C 	 -26.3412 	 20.043 	 9.29037
| 25> C 	 -26.6726 	 21.1376 	 8.52531
| 26> C 	 -27.5814 	 20.7929 	 7.48555
| 27> C 	 -27.8245 	 19.4062 	 7.42048
| 28> H 	 -26.3803 	 22.1522 	 8.76828
| 29> C 	 -28.126 	 21.7946 	 6.54244
| 30> H 	 -28.4415 	 21.2997 	 5.63551
| 31> H 	 -27.3695 	 22.5766 	 6.21439
| 32> C 	 -29.2921 	 22.5757 	 7.07688
| 33> H 	 -28.9068 	 23.1432 	 7.86484
| 34> H 	 -30.032 	 21.9129 	 7.59147
| 35> C 	 -30.0332 	 23.4132 	 6.02038
| 36> H 	 -30.2933 	 22.7268 	 5.23599
| 37> H 	 -29.3835 	 24.2013 	 5.58743
| 38> H 	 -30.9007 	 23.9257 	 6.5233
| 39> H 	 -30.1135 	 15.6962 	 5.01311
| 40> H 	 -25.572 	 20.086 	 10.0454
| 41> *
| 42>
| 43>                          ****END OF INPUT****

CARTESIAN COORDINATES (ANGSTROEM)
---------------------------------
  S    -28.099100   17.022200    6.062770
  C    -29.716200   16.618200    5.461050
  C    -30.526700   17.749900    5.471870
  C    -29.896100   18.855100    6.133460
  C    -28.627300   18.618000    6.508760
  H    -30.339600   19.833000    6.277620
  C    -31.897600   17.816700    5.025280
  H    -31.889900   17.475900    3.998830
  H    -32.074900   18.879400    4.993410
  C    -32.901400   16.974000    5.921460
  H    -32.616700   15.928000    5.928350
  H    -32.841100   17.202900    7.001530
  C    -34.389700   17.042600    5.604940
  H    -34.638000   18.047300    5.353750
  H    -34.674100   16.483300    4.749830
  H    -34.949800   16.782000    6.541410
  S    -27.063400   18.534700    8.752040
  C    -26.341200   20.043000    9.290370
  C    -26.672600   21.137600    8.525310
  C    -27.581400   20.792900    7.485550
  C    -27.824500   19.406200    7.420480
  H    -26.380300   22.152200    8.768280
  C    -28.126000   21.794600    6.542440
  H    -28.441500   21.299700    5.635510
  H    -27.369500   22.576600    6.214390
  C    -29.292100   22.575700    7.076880
  H    -28.906800   23.143200    7.864840
  H    -30.032000   21.912900    7.591470
  C    -30.033200   23.413200    6.020380
  H    -30.293300   22.726800    5.235990
  H    -29.383500   24.201300    5.587430
  H    -30.900700   23.925700    6.523300
  H    -30.113500   15.696200    5.013110
  H    -25.572000   20.086000   10.045400

 Total Charge           Charge          ....    0
 Multiplicity           Mult            ....    1
 Number of Electrons    NEL             ....  134
 Basis Dimension        Dim             ....  322

ORBITAL ENERGIES
----------------

  NO   OCC          E(Eh)            E(eV)
   0   2.0000     -88.968038     -2420.9434
   1   2.0000     -88.967014     -2420.9155
   2   2.0000     -10.327097      -281.0146
   3   2.0000     -10.323141      -280.9069
   4   2.0000     -10.315397      -280.6962
   5   2.0000     -10.313888      -280.6552
   6   2.0000     -10.301543      -280.3192
   7   2.0000     -10.294998      -280.1411
   8   2.0000     -10.293444      -280.0989
   9   2.0000     -10.290513      -280.0191
  10   2.0000     -10.289563      -279.9932
  11   2.0000     -10.288561      -279.9660
  12   2.0000     -10.288455      -279.9631
  13   2.0000     -10.285149      -279.8731
  14   2.0000     -10.281188      -279.7653
  15   2.0000     -10.274924      -279.5949
  16   2.0000      -8.082305      -219.9307
  17   2.0000      -8.081351      -219.9047
  18   2.0000      -6.040744      -164.3770
  19   2.0000      -6.039963      -164.3558
  20   2.0000      -6.036949      -164.2737
  21   2.0000      -6.035922      -164.2458
  22   2.0000      -6.033082      -164.1685
  23   2.0000      -6.032013      -164.1394
  24   2.0000      -1.009101       -27.4590
  25   2.0000      -0.983501       -26.7624
  26   2.0000      -0.917844       -24.9758
  27   2.0000      -0.914007       -24.8714
  28   2.0000      -0.869243       -23.6533
  29   2.0000      -0.855091       -23.2682
  30   2.0000      -0.850442       -23.1417
  31   2.0000      -0.818044       -22.2601
  32   2.0000      -0.783046       -21.3078
  33   2.0000      -0.768150       -20.9024
  34   2.0000      -0.709749       -19.3133
  35   2.0000      -0.703593       -19.1457
  36   2.0000      -0.695173       -18.9166
  37   2.0000      -0.663689       -18.0599
  38   2.0000      -0.637181       -17.3386
  39   2.0000      -0.621022       -16.8989
  40   2.0000      -0.600517       -16.3409
  41   2.0000      -0.569987       -15.5101
  42   2.0000      -0.565275       -15.3819
  43   2.0000      -0.554059       -15.0767
  44   2.0000      -0.534419       -14.5423
  45   2.0000      -0.525895       -14.3103
  46   2.0000      -0.518303       -14.1037
  47   2.0000      -0.515418       -14.0252
  48   2.0000      -0.508321       -13.8321
  49   2.0000      -0.501377       -13.6432
  50   2.0000      -0.496108       -13.4998
  51   2.0000      -0.474059       -12.8998
  52   2.0000      -0.471520       -12.8307
  53   2.0000      -0.461844       -12.5674
  54   2.0000      -0.456667       -12.4265
  55   2.0000      -0.453954       -12.3527
  56   2.0000      -0.444902       -12.1064
  57   2.0000      -0.440284       -11.9807
  58   2.0000      -0.435195       -11.8423
  59   2.0000      -0.429454       -11.6860
  60   2.0000      -0.424579       -11.5534
  61   2.0000      -0.417619       -11.3640
  62   2.0000      -0.414851       -11.2887
  63   2.0000      -0.350675        -9.5423
  64   2.0000      -0.332838        -9.0570
  65   2.0000      -0.327023        -8.8987
  66   2.0000      -0.286658        -7.8003
  67   0.0000       0.026224         0.7136
  68   0.0000       0.073114         1.9895
  69   0.0000       0.104581         2.8458
  70   0.0000       0.119836         3.2609
  71   0.0000       0.125158         3.4057

MULLIKEN ATOMIC CHARGES
-----------------------
   0 S :    0.110764
   1 C :   -0.129379
   2 C :   -0.115452
   3 C :    0.018294
   4 C :   -0.129118
   5 H :    0.000538
   6 C :    0.110906
   7 H :    0.029275
   8 H :    0.009569
   9 C :   -0.093873
  10 H :    0.021239
  11 H :    0.030852
  12 C :   -0.017514
  13 H :    0.012917
  14 H :    0.026540
  15 H :    0.044558
  16 S :    0.114840
  17 C :   -0.085516
  18 C :   -0.020699
  19 C :   -0.022629
  20 C :   -0.148319
  21 H :    0.018802
  22 C :    0.038941
  23 H :    0.012402
  24 H :    0.033794
  25 C :   -0.089475
  26 H :    0.005376
  27 H :    0.031513
  28 C :   -0.032438
  29 H :    0.027947
  30 H :    0.033523
  31 H :    0.050694
  32 H :    0.049157
  33 H :    0.051971
Sum of atomic charges:   -0.0000000

LOEWDIN ATOMIC CHARGES
----------------------
   0 S :    0.400401
   1 C :   -0.200371
   2 C :   -0.062670
   3 C :   -0.064841
   4 C :   -0.194463
   5 H :    0.030286
   6 C :   -0.034393
   7 H :    0.034856
   8 H :    0.029115
   9 C :   -0.039575
  10 H :    0.021574
  11 H :    0.030129
  12 C :   -0.064192
  13 H :    0.019278
  14 H :    0.018707
  15 H :    0.037256
  16 S :    0.402572
  17 C :   -0.180391
  18 C :   -0.066013
  19 C :   -0.053684
  20 C :   -0.190814
  21 H :    0.033215
  22 C :   -0.039602
  23 H :    0.023048
  24 H :    0.038209
  25 C :   -0.044953
  26 H :    0.012546
  27 H :    0.024680
  28 C :   -0.063119
  29 H :    0.021418
  30 H :    0.027057
  31 H :    0.036000
  32 H :    0.033804
  33 H :    0.024926

  Mayer bond orders larger than 0.100000
B(  0-S ,  1-C ) :   1.1201 B(  0-S ,  4-C ) :   1.1423 B(  1-C ,  2-C ) :   1.6074
B(  1-C , 32-H ) :   0.9652 B(  2-C ,  3-C ) :   1.2399 B(  2-C ,  6-C ) :   1.0400
B(  3-C ,  4-C ) :   1.5834 B(  3-C ,  5-H ) :   0.9886 B(  4-C , 20-C ) :   1.0418
B(  6-C ,  7-H ) :   0.9235 B(  6-C ,  8-H ) :   0.9345 B(  6-C ,  9-C ) :   1.0486
B(  9-C , 10-H ) :   0.9560 B(  9-C , 11-H ) :   0.9620 B(  9-C , 12-C ) :   1.0845
B( 12-C , 13-H ) :   0.9730 B( 12-C , 14-H ) :   0.9750 B( 12-C , 15-H ) :   0.9756
B( 16-S , 17-C ) :   1.1488 B( 16-S , 20-C ) :   1.1400 B( 17-C , 18-C ) :   1.6108
B( 17-C , 33-H ) :   0.9646 B( 18-C , 19-C ) :   1.2470 B( 18-C , 21-H ) :   0.9888
B( 19-C , 20-C ) :   1.5796 B( 19-C , 22-C ) :   1.0660 B( 22-C , 23-H ) :   0.9281
B( 22-C , 24-H ) :   0.9318 B( 22-C , 25-C ) :   1.0546 B( 25-C , 26-H ) :   0.9499
B( 25-C , 27-H ) :   0.9508 B( 25-C , 28-C ) :   1.0800 B( 28-C , 29-H ) :   0.9743
B( 28-C , 30-H ) :   0.9726 B( 28-C , 31-H ) :   0.9739

Dispersion correction           -0.014095493
FINAL SINGLE POINT ENERGY     -1339.881200470638

DIPOLE MOMENT
-------------
                                X             Y             Z
Electronic contribution:     25.01248     -13.60153       8.25554
Nuclear contribution   :    -25.48439      14.04891      -8.36332
                        -----------------------------------------
Total Dipole Moment    :     -0.47192       0.44738      -0.10778
                        -----------------------------------------
Magnitude (a.u.)       :      0.65914
Magnitude (Debye)      :      1.67540

Rotational constants in cm-1:     0.017574     0.008801     0.006574
Rotational constants in MHz :   526.851163   263.841802   197.097158

                             ****ORCA TERMINATED NORMALLY****
TOTAL RUN TIME: 0 days 0 hours 0 minutes 20 seconds 398 msec
