                         Program Version 4.2.1 -  RELEASE  -
|  1> ! wB97X-D3 SP def2-SVP
|  2> %pal
|  3> nprocs 24
|  4> end
|  5>
|  6> * xyz 0 1
|  7> S 	 -55.679 	 3.1006 	 -20.0723
|  8> C 	 -57.0344 	 2.09322 	 -19.6578
|  9> C 	 -57.2701 	 2.09057 	 -18.2771
| 10> C 	 -56.4556 	 3.06048 	 -17.5842
| 11> C 	 -55.5612 	 3.71829 	 -18.3937
| 12> H 	 -56.3377 	 3.26154 	 -16.5681
| 13> C 	 -58.4453 	 1.46886 	 -17.5231
| 14> H 	 -58.26 	 1.4636 	 -16.4583
| 15> H 	 -58.6208 	 0.46389 	 -17.7991
| 16> C 	 -59.8415 	 2.23893 	 -17.664
| 17> H 	 -59.5816 	 3.27504 	 -17.302
| 18> H 	 -60.1344 	 2.47313 	 -18.6901
| 19> C 	 -60.993 	 1.6849 	 -16.9383
| 20> H 	 -61.2592 	 0.704843 	 -17.2775
| 21> H 	 -60.7021 	 1.60091 	 -15.9004
| 22> H 	 -61.8487 	 2.33943 	 -16.9749
| 23> S 	 -53.0047 	 4.95311 	 -18.4674
| 24> C 	 -52.8687 	 6.44091 	 -17.5875
| 25> C 	 -54.0169 	 6.91603 	 -16.9536
| 26> C 	 -55.047 	 6.01549 	 -17.1706
| 27> C 	 -54.7015 	 4.88638 	 -17.9548
| 28> H 	 -54.0993 	 7.93186 	 -16.4897
| 29> C 	 -56.4059 	 6.39495 	 -16.6926
| 30> H 	 -56.3656 	 7.21672 	 -15.9775
| 31> H 	 -56.9505 	 5.62551 	 -16.2716
| 32> C 	 -57.328 	 6.96699 	 -17.8142
| 33> H 	 -57.4089 	 6.26673 	 -18.6671
| 34> H 	 -57.0333 	 7.93242 	 -18.188
| 35> C 	 -58.7668 	 7.32311 	 -17.2633
| 36> H 	 -58.9554 	 6.63197 	 -16.4675
| 37> H 	 -59.5143 	 7.35883 	 -18.0648
| 38> H 	 -58.7959 	 8.3329 	 -16.8059
| 39> H 	 -57.6686 	 1.60559 	 -20.3456
| 40> H 	 -52.0032 	 7.11307 	 -17.7435
| 41> *
| 42>
| 43>                          ****END OF INPUT****

CARTESIAN COORDINATES (ANGSTROEM)
---------------------------------
  S    -55.679000    3.100600  -20.072300
  C    -57.034400    2.093220  -19.657800
  C    -57.270100    2.090570  -18.277100
  C    -56.455600    3.060480  -17.584200
  C    -55.561200    3.718290  -18.393700
  H    -56.337700    3.261540  -16.568100
  C    -58.445300    1.468860  -17.523100
  H    -58.260000    1.463600  -16.458300
  H    -58.620800    0.463890  -17.799100
  C    -59.841500    2.238930  -17.664000
  H    -59.581600    3.275040  -17.302000
  H    -60.134400    2.473130  -18.690100
  C    -60.993000    1.684900  -16.938300
  H    -61.259200    0.704843  -17.277500
  H    -60.702100    1.600910  -15.900400
  H    -61.848700    2.339430  -16.974900
  S    -53.004700    4.953110  -18.467400
  C    -52.868700    6.440910  -17.587500
  C    -54.016900    6.916030  -16.953600
  C    -55.047000    6.015490  -17.170600
  C    -54.701500    4.886380  -17.954800
  H    -54.099300    7.931860  -16.489700
  C    -56.405900    6.394950  -16.692600
  H    -56.365600    7.216720  -15.977500
  H    -56.950500    5.625510  -16.271600
  C    -57.328000    6.966990  -17.814200
  H    -57.408900    6.266730  -18.667100
  H    -57.033300    7.932420  -18.188000
  C    -58.766800    7.323110  -17.263300
  H    -58.955400    6.631970  -16.467500
  H    -59.514300    7.358830  -18.064800
  H    -58.795900    8.332900  -16.805900
  H    -57.668600    1.605590  -20.345600
  H    -52.003200    7.113070  -17.743500

 Total Charge           Charge          ....    0
 Multiplicity           Mult            ....    1
 Number of Electrons    NEL             ....  134
 Basis Dimension        Dim             ....  322

ORBITAL ENERGIES
----------------

  NO   OCC          E(Eh)            E(eV)
   0   2.0000     -88.973508     -2421.0922
   1   2.0000     -88.968880     -2420.9663
   2   2.0000     -10.334522      -281.2166
   3   2.0000     -10.334404      -281.2134
   4   2.0000     -10.319770      -280.8152
   5   2.0000     -10.316155      -280.7169
   6   2.0000     -10.307524      -280.4820
   7   2.0000     -10.303644      -280.3764
   8   2.0000     -10.297025      -280.1963
   9   2.0000     -10.292945      -280.0853
  10   2.0000     -10.289950      -280.0038
  11   2.0000     -10.287309      -279.9319
  12   2.0000     -10.285867      -279.8927
  13   2.0000     -10.284402      -279.8528
  14   2.0000     -10.277967      -279.6777
  15   2.0000     -10.272627      -279.5324
  16   2.0000      -8.087880      -220.0824
  17   2.0000      -8.082964      -219.9486
  18   2.0000      -6.046153      -164.5242
  19   2.0000      -6.042550      -164.4261
  20   2.0000      -6.041520      -164.3981
  21   2.0000      -6.038819      -164.3246
  22   2.0000      -6.037580      -164.2909
  23   2.0000      -6.033696      -164.1852
  24   2.0000      -1.002448       -27.2780
  25   2.0000      -0.983551       -26.7638
  26   2.0000      -0.908844       -24.7309
  27   2.0000      -0.907112       -24.6838
  28   2.0000      -0.865674       -23.5562
  29   2.0000      -0.854803       -23.2604
  30   2.0000      -0.851846       -23.1799
  31   2.0000      -0.812755       -22.1162
  32   2.0000      -0.781831       -21.2747
  33   2.0000      -0.768580       -20.9141
  34   2.0000      -0.701393       -19.0859
  35   2.0000      -0.697920       -18.9914
  36   2.0000      -0.687331       -18.7032
  37   2.0000      -0.663228       -18.0474
  38   2.0000      -0.649165       -17.6647
  39   2.0000      -0.619790       -16.8654
  40   2.0000      -0.600689       -16.3456
  41   2.0000      -0.570411       -15.5217
  42   2.0000      -0.563517       -15.3341
  43   2.0000      -0.556643       -15.1470
  44   2.0000      -0.526221       -14.3192
  45   2.0000      -0.524647       -14.2764
  46   2.0000      -0.516212       -14.0469
  47   2.0000      -0.512986       -13.9591
  48   2.0000      -0.504000       -13.7145
  49   2.0000      -0.494744       -13.4627
  50   2.0000      -0.489022       -13.3070
  51   2.0000      -0.484409       -13.1815
  52   2.0000      -0.475336       -12.9345
  53   2.0000      -0.469519       -12.7762
  54   2.0000      -0.458926       -12.4880
  55   2.0000      -0.454480       -12.3670
  56   2.0000      -0.444422       -12.0933
  57   2.0000      -0.437029       -11.8922
  58   2.0000      -0.430094       -11.7034
  59   2.0000      -0.428142       -11.6503
  60   2.0000      -0.420697       -11.4477
  61   2.0000      -0.411187       -11.1890
  62   2.0000      -0.410437       -11.1686
  63   2.0000      -0.348232        -9.4759
  64   2.0000      -0.339288        -9.2325
  65   2.0000      -0.328917        -8.9503
  66   2.0000      -0.286872        -7.8062
  67   0.0000       0.024406         0.6641
  68   0.0000       0.063164         1.7188
  69   0.0000       0.104538         2.8446
  70   0.0000       0.117942         3.2094
  71   0.0000       0.124851         3.3974

MULLIKEN ATOMIC CHARGES
-----------------------
   0 S :    0.107101
   1 C :   -0.104459
   2 C :   -0.056237
   3 C :    0.017774
   4 C :   -0.130844
   5 H :    0.004011
   6 C :    0.074253
   7 H :    0.018023
   8 H :    0.014532
   9 C :   -0.106050
  10 H :    0.019016
  11 H :    0.019961
  12 C :    0.003916
  13 H :    0.024791
  14 H :    0.017217
  15 H :    0.035755
  16 S :    0.123501
  17 C :   -0.102096
  18 C :   -0.056635
  19 C :   -0.019029
  20 C :   -0.172403
  21 H :    0.045160
  22 C :    0.103003
  23 H :    0.013684
  24 H :   -0.005562
  25 C :   -0.095230
  26 H :    0.047194
  27 H :    0.021317
  28 C :   -0.057517
  29 H :    0.021476
  30 H :    0.041982
  31 H :    0.029540
  32 H :    0.037866
  33 H :    0.064988
Sum of atomic charges:   -0.0000000

LOEWDIN ATOMIC CHARGES
----------------------
   0 S :    0.390054
   1 C :   -0.188920
   2 C :   -0.057527
   3 C :   -0.059784
   4 C :   -0.178528
   5 H :    0.025094
   6 C :   -0.026243
   7 H :    0.028662
   8 H :    0.019705
   9 C :   -0.045785
  10 H :    0.024843
  11 H :    0.018637
  12 C :   -0.061336
  13 H :    0.022076
  14 H :    0.024158
  15 H :    0.030516
  16 S :    0.414717
  17 C :   -0.190270
  18 C :   -0.075102
  19 C :   -0.052695
  20 C :   -0.198862
  21 H :    0.047185
  22 C :   -0.025281
  23 H :    0.030870
  24 H :    0.014619
  25 C :   -0.031739
  26 H :    0.026446
  27 H :    0.018335
  28 C :   -0.066919
  29 H :    0.015952
  30 H :    0.028981
  31 H :    0.025228
  32 H :    0.022702
  33 H :    0.030211

  Mayer bond orders larger than 0.100000
B(  0-S ,  1-C ) :   1.1428 B(  0-S ,  4-C ) :   1.1303 B(  1-C ,  2-C ) :   1.6065
B(  1-C , 32-H ) :   0.9755 B(  2-C ,  3-C ) :   1.2063 B(  2-C ,  6-C ) :   1.0460
B(  3-C ,  4-C ) :   1.6085 B(  3-C ,  5-H ) :   1.0014 B(  4-C , 20-C ) :   1.0288
B(  6-C ,  7-H ) :   0.9433 B(  6-C ,  8-H ) :   0.9395 B(  6-C ,  9-C ) :   1.0443
B(  9-C , 10-H ) :   0.9524 B(  9-C , 11-H ) :   0.9570 B(  9-C , 12-C ) :   1.0946
B( 12-C , 13-H ) :   0.9710 B( 12-C , 14-H ) :   0.9697 B( 12-C , 15-H ) :   0.9679
B( 16-S , 17-C ) :   1.1845 B( 16-S , 20-C ) :   1.1419 B( 17-C , 18-C ) :   1.5766
B( 17-C , 20-C ) :   0.1053 B( 17-C , 33-H ) :   0.9563 B( 18-C , 19-C ) :   1.2901
B( 18-C , 21-H ) :   0.9814 B( 19-C , 20-C ) :   1.5551 B( 19-C , 22-C ) :   1.0615
B( 22-C , 23-H ) :   0.9362 B( 22-C , 24-H ) :   0.9216 B( 22-C , 25-C ) :   1.0597
B( 25-C , 26-H ) :   0.9619 B( 25-C , 27-H ) :   0.9611 B( 25-C , 28-C ) :   1.0645
B( 28-C , 29-H ) :   0.9779 B( 28-C , 30-H ) :   0.9757 B( 28-C , 31-H ) :   0.9784

Dispersion correction           -0.014544293
FINAL SINGLE POINT ENERGY     -1339.865412452886

DIPOLE MOMENT
-------------
                                X             Y             Z
Electronic contribution:     30.67989      -3.65547     -12.05127
Nuclear contribution   :    -31.25093       3.95971      12.34532
                        -----------------------------------------
Total Dipole Moment    :     -0.57104       0.30424       0.29404
                        -----------------------------------------
Magnitude (a.u.)       :      0.71071
Magnitude (Debye)      :      1.80648

Rotational constants in cm-1:     0.018723     0.008965     0.006796
Rotational constants in MHz :   561.305396   268.768641   203.728601

                             ****ORCA TERMINATED NORMALLY****
TOTAL RUN TIME: 0 days 0 hours 0 minutes 22 seconds 148 msec
