                         Program Version 4.2.1 -  RELEASE  -
|  1> ! wB97X-D3 SP def2-SVP
|  2> %pal
|  3> nprocs 24
|  4> end
|  5>
|  6> * xyz 0 1
|  7> S 	 -52.5416 	 9.3412 	 -21.4568
|  8> C 	 -51.3843 	 10.7369 	 -21.6156
|  9> C 	 -51.9063 	 11.8553 	 -21.0754
| 10> C 	 -53.2443 	 11.5866 	 -20.6137
| 11> C 	 -53.6721 	 10.3048 	 -20.6526
| 12> H 	 -53.9569 	 12.2806 	 -20.1823
| 13> C 	 -51.2744 	 13.1957 	 -20.9803
| 14> H 	 -52.1871 	 13.7564 	 -21.2574
| 15> H 	 -50.4562 	 13.2815 	 -21.6864
| 16> C 	 -50.7528 	 13.5635 	 -19.5984
| 17> H 	 -50.0946 	 14.4844 	 -19.5556
| 18> H 	 -51.612 	 13.7807 	 -18.9734
| 19> C 	 -49.822 	 12.4388 	 -19.0883
| 20> H 	 -48.9145 	 12.5568 	 -19.5435
| 21> H 	 -49.6892 	 12.5307 	 -18.0393
| 22> H 	 -50.1104 	 11.4051 	 -19.251
| 23> S 	 -55.1726 	 8.89451 	 -18.8226
| 24> C 	 -56.9137 	 8.91349 	 -18.9104
| 25> C 	 -57.3352 	 9.55275 	 -20.0507
| 26> C 	 -56.2966 	 10.1297 	 -20.8287
| 27> C 	 -55.024 	 9.95377 	 -20.2007
| 28> H 	 -58.4047 	 9.81387 	 -20.2394
| 29> C 	 -56.6179 	 10.88 	 -22.12
| 30> H 	 -56.2694 	 10.2016 	 -22.9358
| 31> H 	 -55.9265 	 11.7724 	 -22.2093
| 32> C 	 -58.0722 	 11.1711 	 -22.4451
| 33> H 	 -58.5553 	 11.769 	 -21.7245
| 34> H 	 -58.6089 	 10.2307 	 -22.5147
| 35> C 	 -58.2461 	 11.9776 	 -23.7598
| 36> H 	 -57.4817 	 11.7089 	 -24.5576
| 37> H 	 -58.2617 	 13.0349 	 -23.5307
| 38> H 	 -59.2653 	 11.7282 	 -24.1009
| 39> H 	 -50.3865 	 10.5708 	 -21.9943
| 40> H 	 -57.5301 	 8.52339 	 -18.116
| 41> *
| 42>
| 43>                          ****END OF INPUT****

CARTESIAN COORDINATES (ANGSTROEM)
---------------------------------
  S    -52.541600    9.341200  -21.456800
  C    -51.384300   10.736900  -21.615600
  C    -51.906300   11.855300  -21.075400
  C    -53.244300   11.586600  -20.613700
  C    -53.672100   10.304800  -20.652600
  H    -53.956900   12.280600  -20.182300
  C    -51.274400   13.195700  -20.980300
  H    -52.187100   13.756400  -21.257400
  H    -50.456200   13.281500  -21.686400
  C    -50.752800   13.563500  -19.598400
  H    -50.094600   14.484400  -19.555600
  H    -51.612000   13.780700  -18.973400
  C    -49.822000   12.438800  -19.088300
  H    -48.914500   12.556800  -19.543500
  H    -49.689200   12.530700  -18.039300
  H    -50.110400   11.405100  -19.251000
  S    -55.172600    8.894510  -18.822600
  C    -56.913700    8.913490  -18.910400
  C    -57.335200    9.552750  -20.050700
  C    -56.296600   10.129700  -20.828700
  C    -55.024000    9.953770  -20.200700
  H    -58.404700    9.813870  -20.239400
  C    -56.617900   10.880000  -22.120000
  H    -56.269400   10.201600  -22.935800
  H    -55.926500   11.772400  -22.209300
  C    -58.072200   11.171100  -22.445100
  H    -58.555300   11.769000  -21.724500
  H    -58.608900   10.230700  -22.514700
  C    -58.246100   11.977600  -23.759800
  H    -57.481700   11.708900  -24.557600
  H    -58.261700   13.034900  -23.530700
  H    -59.265300   11.728200  -24.100900
  H    -50.386500   10.570800  -21.994300
  H    -57.530100    8.523390  -18.116000

 Total Charge           Charge          ....    0
 Multiplicity           Mult            ....    1
 Number of Electrons    NEL             ....  134
 Basis Dimension        Dim             ....  322

ORBITAL ENERGIES
----------------

  NO   OCC          E(Eh)            E(eV)
   0   2.0000     -88.965017     -2420.8612
   1   2.0000     -88.960376     -2420.7349
   2   2.0000     -10.327741      -281.0321
   3   2.0000     -10.319849      -280.8174
   4   2.0000     -10.316636      -280.7300
   5   2.0000     -10.313511      -280.6449
   6   2.0000     -10.307744      -280.4880
   7   2.0000     -10.298331      -280.2318
   8   2.0000     -10.297644      -280.2131
   9   2.0000     -10.293641      -280.1042
  10   2.0000     -10.291405      -280.0434
  11   2.0000     -10.290835      -280.0279
  12   2.0000     -10.285561      -279.8843
  13   2.0000     -10.285266      -279.8763
  14   2.0000     -10.285127      -279.8725
  15   2.0000     -10.262485      -279.2564
  16   2.0000      -8.079925      -219.8659
  17   2.0000      -8.075552      -219.7469
  18   2.0000      -6.038300      -164.3105
  19   2.0000      -6.034287      -164.2013
  20   2.0000      -6.034127      -164.1970
  21   2.0000      -6.030959      -164.1107
  22   2.0000      -6.030003      -164.0847
  23   2.0000      -6.026190      -163.9810
  24   2.0000      -1.008312       -27.4376
  25   2.0000      -0.985691       -26.8220
  26   2.0000      -0.919822       -25.0296
  27   2.0000      -0.910209       -24.7681
  28   2.0000      -0.868273       -23.6269
  29   2.0000      -0.849553       -23.1175
  30   2.0000      -0.843906       -22.9638
  31   2.0000      -0.811663       -22.0865
  32   2.0000      -0.787332       -21.4244
  33   2.0000      -0.772430       -21.0189
  34   2.0000      -0.706905       -19.2359
  35   2.0000      -0.702225       -19.1085
  36   2.0000      -0.696931       -18.9645
  37   2.0000      -0.646526       -17.5929
  38   2.0000      -0.641467       -17.4552
  39   2.0000      -0.618843       -16.8396
  40   2.0000      -0.600262       -16.3340
  41   2.0000      -0.572894       -15.5892
  42   2.0000      -0.565240       -15.3810
  43   2.0000      -0.553761       -15.0686
  44   2.0000      -0.546271       -14.8648
  45   2.0000      -0.527988       -14.3673
  46   2.0000      -0.519602       -14.1391
  47   2.0000      -0.506471       -13.7818
  48   2.0000      -0.500552       -13.6207
  49   2.0000      -0.499239       -13.5850
  50   2.0000      -0.486390       -13.2353
  51   2.0000      -0.477691       -12.9986
  52   2.0000      -0.471661       -12.8346
  53   2.0000      -0.465123       -12.6566
  54   2.0000      -0.460653       -12.5350
  55   2.0000      -0.447111       -12.1665
  56   2.0000      -0.442393       -12.0381
  57   2.0000      -0.436852       -11.8873
  58   2.0000      -0.432573       -11.7709
  59   2.0000      -0.426296       -11.6001
  60   2.0000      -0.423822       -11.5328
  61   2.0000      -0.414977       -11.2921
  62   2.0000      -0.409837       -11.1522
  63   2.0000      -0.335632        -9.1330
  64   2.0000      -0.332334        -9.0433
  65   2.0000      -0.323552        -8.8043
  66   2.0000      -0.302909        -8.2426
  67   0.0000       0.043478         1.1831
  68   0.0000       0.060046         1.6339
  69   0.0000       0.118133         3.2146
  70   0.0000       0.123479         3.3600
  71   0.0000       0.132053         3.5934

MULLIKEN ATOMIC CHARGES
-----------------------
   0 S :    0.096531
   1 C :   -0.157693
   2 C :   -0.051226
   3 C :   -0.001292
   4 C :   -0.128547
   5 H :    0.007312
   6 C :    0.092678
   7 H :    0.039168
   8 H :    0.018723
   9 C :   -0.076609
  10 H :    0.041953
  11 H :    0.029752
  12 C :   -0.028915
  13 H :    0.005563
  14 H :    0.024312
  15 H :    0.045370
  16 S :    0.110446
  17 C :   -0.087712
  18 C :   -0.053605
  19 C :   -0.034049
  20 C :   -0.207050
  21 H :    0.041009
  22 C :    0.053849
  23 H :    0.042732
  24 H :    0.037719
  25 C :   -0.092281
  26 H :    0.023758
  27 H :    0.037322
  28 C :   -0.052674
  29 H :    0.047828
  30 H :    0.039267
  31 H :    0.031908
  32 H :    0.045700
  33 H :    0.058750
Sum of atomic charges:    0.0000000

LOEWDIN ATOMIC CHARGES
----------------------
   0 S :    0.391434
   1 C :   -0.171380
   2 C :   -0.062361
   3 C :   -0.069770
   4 C :   -0.220309
   5 H :    0.028733
   6 C :   -0.031409
   7 H :    0.041096
   8 H :    0.028695
   9 C :   -0.037515
  10 H :    0.033814
  11 H :    0.020446
  12 C :   -0.058782
  13 H :    0.012689
  14 H :    0.024126
  15 H :    0.028036
  16 S :    0.418993
  17 C :   -0.185195
  18 C :   -0.084915
  19 C :   -0.050968
  20 C :   -0.208256
  21 H :    0.039580
  22 C :   -0.041277
  23 H :    0.042825
  24 H :    0.037118
  25 C :   -0.044179
  26 H :    0.017544
  27 H :    0.024110
  28 C :   -0.063485
  29 H :    0.032647
  30 H :    0.024876
  31 H :    0.029479
  32 H :    0.024679
  33 H :    0.028880

  Mayer bond orders larger than 0.100000
B(  0-S ,  1-C ) :   1.1149 B(  0-S ,  4-C ) :   1.1434 B(  1-C ,  2-C ) :   1.6234
B(  1-C , 32-H ) :   0.9734 B(  2-C ,  3-C ) :   1.1924 B(  2-C ,  6-C ) :   1.0065
B(  3-C ,  4-C ) :   1.6219 B(  3-C ,  5-H ) :   0.9916 B(  4-C , 20-C ) :   1.0178
B(  6-C ,  7-H ) :   0.9392 B(  6-C ,  8-H ) :   0.9395 B(  6-C ,  9-C ) :   1.0731
B(  9-C , 10-H ) :   0.9601 B(  9-C , 11-H ) :   0.9584 B(  9-C , 12-C ) :   1.0629
B( 12-C , 13-H ) :   0.9755 B( 12-C , 14-H ) :   0.9724 B( 12-C , 15-H ) :   0.9749
B( 16-S , 17-C ) :   1.1737 B( 16-S , 20-C ) :   1.1611 B( 17-C , 18-C ) :   1.5693
B( 17-C , 20-C ) :   0.1094 B( 17-C , 33-H ) :   0.9676 B( 18-C , 19-C ) :   1.2957
B( 18-C , 21-H ) :   0.9677 B( 19-C , 20-C ) :   1.5615 B( 19-C , 22-C ) :   1.0276
B( 22-C , 23-H ) :   0.9162 B( 22-C , 24-H ) :   0.9395 B( 22-C , 25-C ) :   1.0866
B( 25-C , 26-H ) :   0.9550 B( 25-C , 27-H ) :   0.9451 B( 25-C , 28-C ) :   1.0750
B( 28-C , 29-H ) :   0.9750 B( 28-C , 30-H ) :   0.9786 B( 28-C , 31-H ) :   0.9745

Dispersion correction           -0.014094902
FINAL SINGLE POINT ENERGY     -1339.870040395494

DIPOLE MOMENT
-------------
                                X             Y             Z
Electronic contribution:      1.69163     -19.24802       7.40900
Nuclear contribution   :     -1.91275      19.82594      -7.51963
                        -----------------------------------------
Total Dipole Moment    :     -0.22112       0.57792      -0.11063
                        -----------------------------------------
Magnitude (a.u.)       :      0.62859
Magnitude (Debye)      :      1.59776

Rotational constants in cm-1:     0.019113     0.007926     0.006674
Rotational constants in MHz :   572.985157   237.610887   200.073106

                             ****ORCA TERMINATED NORMALLY****
TOTAL RUN TIME: 0 days 0 hours 0 minutes 21 seconds 255 msec
