                         Program Version 4.2.1 -  RELEASE  -
|  1> ! wB97X-D3 SP def2-SVP
|  2> %pal
|  3> nprocs 24
|  4> end
|  5>
|  6> * xyz 0 1
|  7> S 	 -45.0392 	 16.9645 	 26.5168
|  8> C 	 -46.465 	 16.4107 	 25.7885
|  9> C 	 -47.4892 	 17.3239 	 25.9144
| 10> C 	 -46.9683 	 18.6301 	 26.2603
| 11> C 	 -45.6041 	 18.5783 	 26.3893
| 12> H 	 -47.3618 	 19.6173 	 26.4717
| 13> C 	 -48.9002 	 16.9823 	 25.551
| 14> H 	 -48.9355 	 16.5529 	 24.5632
| 15> H 	 -49.4096 	 17.9552 	 25.6209
| 16> C 	 -49.6879 	 15.9569 	 26.405
| 17> H 	 -49.2583 	 14.9911 	 26.2731
| 18> H 	 -49.6598 	 16.1143 	 27.4709
| 19> C 	 -51.0521 	 15.7647 	 25.9889
| 20> H 	 -51.0742 	 15.3585 	 24.9772
| 21> H 	 -51.599 	 15.0842 	 26.6219
| 22> H 	 -51.5316 	 16.6702 	 26.0425
| 23> S 	 -43.7179 	 19.8087 	 28.0684
| 24> C 	 -43.6619 	 21.5264 	 27.9271
| 25> C 	 -44.0823 	 21.9477 	 26.7281
| 26> C 	 -44.6771 	 20.9658 	 25.9003
| 27> C 	 -44.7435 	 19.7663 	 26.5948
| 28> H 	 -43.9169 	 22.9087 	 26.4351
| 29> C 	 -45.1907 	 21.2724 	 24.4664
| 30> H 	 -44.6865 	 22.1354 	 24.1891
| 31> H 	 -46.1795 	 21.5397 	 24.5303
| 32> C 	 -44.7253 	 20.275 	 23.4157
| 33> H 	 -45.181 	 20.6515 	 22.4722
| 34> H 	 -45.0666 	 19.2441 	 23.5848
| 35> C 	 -43.1499 	 20.1917 	 23.4033
| 36> H 	 -42.7126 	 21.093 	 22.9994
| 37> H 	 -42.8495 	 19.5253 	 22.6941
| 38> H 	 -42.6071 	 19.9001 	 24.3501
| 39> H 	 -46.6819 	 15.4517 	 25.395
| 40> H 	 -43.1144 	 22.164 	 28.5734
| 41> *
| 42>
| 43>                          ****END OF INPUT****

CARTESIAN COORDINATES (ANGSTROEM)
---------------------------------
  S    -45.039200   16.964500   26.516800
  C    -46.465000   16.410700   25.788500
  C    -47.489200   17.323900   25.914400
  C    -46.968300   18.630100   26.260300
  C    -45.604100   18.578300   26.389300
  H    -47.361800   19.617300   26.471700
  C    -48.900200   16.982300   25.551000
  H    -48.935500   16.552900   24.563200
  H    -49.409600   17.955200   25.620900
  C    -49.687900   15.956900   26.405000
  H    -49.258300   14.991100   26.273100
  H    -49.659800   16.114300   27.470900
  C    -51.052100   15.764700   25.988900
  H    -51.074200   15.358500   24.977200
  H    -51.599000   15.084200   26.621900
  H    -51.531600   16.670200   26.042500
  S    -43.717900   19.808700   28.068400
  C    -43.661900   21.526400   27.927100
  C    -44.082300   21.947700   26.728100
  C    -44.677100   20.965800   25.900300
  C    -44.743500   19.766300   26.594800
  H    -43.916900   22.908700   26.435100
  C    -45.190700   21.272400   24.466400
  H    -44.686500   22.135400   24.189100
  H    -46.179500   21.539700   24.530300
  C    -44.725300   20.275000   23.415700
  H    -45.181000   20.651500   22.472200
  H    -45.066600   19.244100   23.584800
  C    -43.149900   20.191700   23.403300
  H    -42.712600   21.093000   22.999400
  H    -42.849500   19.525300   22.694100
  H    -42.607100   19.900100   24.350100
  H    -46.681900   15.451700   25.395000
  H    -43.114400   22.164000   28.573400

 Total Charge           Charge          ....    0
 Multiplicity           Mult            ....    1
 Number of Electrons    NEL             ....  134
 Basis Dimension        Dim             ....  322

ORBITAL ENERGIES
----------------

  NO   OCC          E(Eh)            E(eV)
   0   2.0000     -88.962234     -2420.7855
   1   2.0000     -88.960374     -2420.7349
   2   2.0000     -10.325833      -280.9802
   3   2.0000     -10.321535      -280.8632
   4   2.0000     -10.306458      -280.4530
   5   2.0000     -10.302912      -280.3565
   6   2.0000     -10.300606      -280.2937
   7   2.0000     -10.299684      -280.2686
   8   2.0000     -10.292376      -280.0698
   9   2.0000     -10.290032      -280.0060
  10   2.0000     -10.289870      -280.0016
  11   2.0000     -10.281825      -279.7827
  12   2.0000     -10.278054      -279.6801
  13   2.0000     -10.272978      -279.5419
  14   2.0000     -10.269098      -279.4364
  15   2.0000     -10.262873      -279.2670
  16   2.0000      -8.078958      -219.8396
  17   2.0000      -8.075494      -219.7454
  18   2.0000      -6.037284      -164.2828
  19   2.0000      -6.033952      -164.1922
  20   2.0000      -6.033552      -164.1813
  21   2.0000      -6.030259      -164.0917
  22   2.0000      -6.029446      -164.0696
  23   2.0000      -6.025990      -163.9755
  24   2.0000      -1.012301       -27.5461
  25   2.0000      -0.990554       -26.9544
  26   2.0000      -0.921913       -25.0865
  27   2.0000      -0.908149       -24.7120
  28   2.0000      -0.873207       -23.7612
  29   2.0000      -0.857074       -23.3222
  30   2.0000      -0.843895       -22.9635
  31   2.0000      -0.817082       -22.2339
  32   2.0000      -0.788784       -21.4639
  33   2.0000      -0.773792       -21.0560
  34   2.0000      -0.709302       -19.3011
  35   2.0000      -0.700903       -19.0726
  36   2.0000      -0.688349       -18.7309
  37   2.0000      -0.662283       -18.0216
  38   2.0000      -0.645789       -17.5728
  39   2.0000      -0.613207       -16.6862
  40   2.0000      -0.597356       -16.2549
  41   2.0000      -0.577982       -15.7277
  42   2.0000      -0.570043       -15.5117
  43   2.0000      -0.562858       -15.3161
  44   2.0000      -0.542774       -14.7696
  45   2.0000      -0.526585       -14.3291
  46   2.0000      -0.520404       -14.1609
  47   2.0000      -0.510374       -13.8880
  48   2.0000      -0.502688       -13.6788
  49   2.0000      -0.499466       -13.5912
  50   2.0000      -0.484962       -13.1965
  51   2.0000      -0.480330       -13.0704
  52   2.0000      -0.473648       -12.8886
  53   2.0000      -0.465197       -12.6587
  54   2.0000      -0.458891       -12.4870
  55   2.0000      -0.451364       -12.2823
  56   2.0000      -0.444593       -12.0980
  57   2.0000      -0.438512       -11.9325
  58   2.0000      -0.431162       -11.7325
  59   2.0000      -0.427502       -11.6329
  60   2.0000      -0.421119       -11.4592
  61   2.0000      -0.415733       -11.3127
  62   2.0000      -0.412135       -11.2148
  63   2.0000      -0.344131        -9.3643
  64   2.0000      -0.330667        -8.9979
  65   2.0000      -0.324746        -8.8368
  66   2.0000      -0.285147        -7.7592
  67   0.0000       0.030494         0.8298
  68   0.0000       0.062177         1.6919
  69   0.0000       0.103740         2.8229
  70   0.0000       0.119591         3.2542
  71   0.0000       0.140889         3.8338

MULLIKEN ATOMIC CHARGES
-----------------------
   0 S :    0.123027
   1 C :   -0.088156
   2 C :   -0.076962
   3 C :    0.028737
   4 C :   -0.166139
   5 H :    0.016430
   6 C :    0.060894
   7 H :    0.027447
   8 H :    0.020021
   9 C :   -0.056718
  10 H :    0.004155
  11 H :    0.020707
  12 C :    0.005174
  13 H :    0.019361
  14 H :    0.026895
  15 H :    0.003330
  16 S :    0.090622
  17 C :   -0.053353
  18 C :   -0.008264
  19 C :   -0.082253
  20 C :   -0.179792
  21 H :   -0.028288
  22 C :    0.190010
  23 H :   -0.014963
  24 H :    0.015476
  25 C :   -0.086617
  26 H :    0.034907
  27 H :    0.051011
  28 C :   -0.043411
  29 H :    0.013917
  30 H :    0.004796
  31 H :    0.064149
  32 H :    0.025748
  33 H :    0.038103
Sum of atomic charges:    0.0000000

LOEWDIN ATOMIC CHARGES
----------------------
   0 S :    0.429014
   1 C :   -0.204012
   2 C :   -0.060927
   3 C :   -0.064729
   4 C :   -0.201700
   5 H :    0.036784
   6 C :   -0.030749
   7 H :    0.033769
   8 H :    0.031494
   9 C :   -0.042654
  10 H :    0.016840
  11 H :    0.022084
  12 C :   -0.053508
  13 H :    0.024986
  14 H :    0.028483
  15 H :    0.011659
  16 S :    0.379748
  17 C :   -0.178096
  18 C :   -0.065651
  19 C :   -0.049582
  20 C :   -0.180370
  21 H :    0.014022
  22 C :   -0.016655
  23 H :    0.023084
  24 H :    0.020118
  25 C :   -0.031574
  26 H :    0.030324
  27 H :    0.026528
  28 C :   -0.065490
  29 H :    0.020727
  30 H :    0.012600
  31 H :    0.040424
  32 H :    0.020471
  33 H :    0.022538

  Mayer bond orders larger than 0.100000
B(  0-S ,  1-C ) :   1.1423 B(  0-S ,  4-C ) :   1.1532 B(  1-C ,  2-C ) :   1.6104
B(  1-C , 32-H ) :   0.9775 B(  2-C ,  3-C ) :   1.1917 B(  2-C ,  6-C ) :   1.0337
B(  3-C ,  4-C ) :   1.5913 B(  3-C ,  5-H ) :   1.0030 B(  4-C , 20-C ) :   1.0241
B(  6-C ,  7-H ) :   0.9363 B(  6-C ,  8-H ) :   0.9418 B(  6-C ,  9-C ) :   1.0665
B(  9-C , 10-H ) :   0.9470 B(  9-C , 11-H ) :   0.9512 B(  9-C , 12-C ) :   1.1093
B( 12-C , 13-H ) :   0.9682 B( 12-C , 14-H ) :   0.9667 B( 12-C , 15-H ) :   0.9687
B( 16-S , 17-C ) :   1.1405 B( 16-S , 20-C ) :   1.1250 B( 17-C , 18-C ) :   1.6348
B( 17-C , 33-H ) :   0.9677 B( 18-C , 19-C ) :   1.2313 B( 18-C , 21-H ) :   1.0027
B( 19-C , 20-C ) :   1.6101 B( 19-C , 22-C ) :   1.0105 B( 22-C , 23-H ) :   0.9246
B( 22-C , 24-H ) :   0.9274 B( 22-C , 25-C ) :   1.0656 B( 25-C , 26-H ) :   0.9573
B( 25-C , 27-H ) :   0.9599 B( 25-C , 28-C ) :   1.0689 B( 28-C , 29-H ) :   0.9725
B( 28-C , 30-H ) :   0.9717 B( 28-C , 31-H ) :   0.9719

Dispersion correction           -0.014769429
FINAL SINGLE POINT ENERGY     -1339.830583296677

DIPOLE MOMENT
-------------
                                X             Y             Z
Electronic contribution:     16.78146       1.62512      15.43009
Nuclear contribution   :    -17.18017      -1.38149     -15.83377
                        -----------------------------------------
Total Dipole Moment    :     -0.39871       0.24363      -0.40368
                        -----------------------------------------
Magnitude (a.u.)       :      0.61748
Magnitude (Debye)      :      1.56951

Rotational constants in cm-1:     0.023026     0.007502     0.006856
Rotational constants in MHz :   690.307718   224.909716   205.531141

                             ****ORCA TERMINATED NORMALLY****
TOTAL RUN TIME: 0 days 0 hours 0 minutes 23 seconds 209 msec
