                         Program Version 4.2.1 -  RELEASE  -
|  1> ! wB97X-D3 SP def2-SVP
|  2> %pal
|  3> nprocs 24
|  4> end
|  5>
|  6> * xyz 0 1
|  7> S 	 -33.8038 	 -30.3158 	 -92.6858
|  8> C 	 -33.625 	 -30.1102 	 -94.4203
|  9> C 	 -33.0912 	 -31.2306 	 -94.995
| 10> C 	 -32.6948 	 -32.1822 	 -94.0233
| 11> C 	 -33.0287 	 -31.8289 	 -92.7482
| 12> H 	 -32.162 	 -33.0901 	 -94.1189
| 13> C 	 -32.7782 	 -31.2958 	 -96.4708
| 14> H 	 -31.8691 	 -32.0002 	 -96.7116
| 15> H 	 -32.4871 	 -30.246 	 -96.7585
| 16> C 	 -33.8948 	 -31.7853 	 -97.357
| 17> H 	 -34.5135 	 -30.8723 	 -97.6607
| 18> H 	 -33.5869 	 -32.0658 	 -98.361
| 19> C 	 -34.6829 	 -33.0185 	 -96.8042
| 20> H 	 -34.0433 	 -33.7306 	 -96.3694
| 21> H 	 -35.3384 	 -32.6226 	 -96.0233
| 22> H 	 -35.3164 	 -33.4784 	 -97.5686
| 23> S 	 -33.4595 	 -34.1716 	 -91.2501
| 24> C 	 -32.5727 	 -34.4659 	 -89.7839
| 25> C 	 -31.6124 	 -33.4959 	 -89.6103
| 26> C 	 -31.7424 	 -32.3656 	 -90.5033
| 27> C 	 -32.6631 	 -32.6498 	 -91.5301
| 28> H 	 -30.9105 	 -33.6925 	 -88.89
| 29> C 	 -30.9627 	 -31.1367 	 -90.505
| 30> H 	 -30.4718 	 -31.0694 	 -91.4184
| 31> H 	 -30.1978 	 -31.4306 	 -89.7609
| 32> C 	 -31.6784 	 -29.9059 	 -89.8496
| 33> H 	 -31.7824 	 -29.9495 	 -88.723
| 34> H 	 -32.687 	 -29.7782 	 -90.2203
| 35> C 	 -30.8149 	 -28.6738 	 -90.1187
| 36> H 	 -31.4671 	 -27.9044 	 -89.9552
| 37> H 	 -30.3801 	 -28.636 	 -91.1453
| 38> H 	 -30.0703 	 -28.4713 	 -89.3034
| 39> H 	 -33.9504 	 -29.2805 	 -95.0879
| 40> H 	 -32.6573 	 -35.3231 	 -89.1411
| 41> *
| 42>
| 43>                          ****END OF INPUT****

CARTESIAN COORDINATES (ANGSTROEM)
---------------------------------
  S    -33.803800  -30.315800  -92.685800
  C    -33.625000  -30.110200  -94.420300
  C    -33.091200  -31.230600  -94.995000
  C    -32.694800  -32.182200  -94.023300
  C    -33.028700  -31.828900  -92.748200
  H    -32.162000  -33.090100  -94.118900
  C    -32.778200  -31.295800  -96.470800
  H    -31.869100  -32.000200  -96.711600
  H    -32.487100  -30.246000  -96.758500
  C    -33.894800  -31.785300  -97.357000
  H    -34.513500  -30.872300  -97.660700
  H    -33.586900  -32.065800  -98.361000
  C    -34.682900  -33.018500  -96.804200
  H    -34.043300  -33.730600  -96.369400
  H    -35.338400  -32.622600  -96.023300
  H    -35.316400  -33.478400  -97.568600
  S    -33.459500  -34.171600  -91.250100
  C    -32.572700  -34.465900  -89.783900
  C    -31.612400  -33.495900  -89.610300
  C    -31.742400  -32.365600  -90.503300
  C    -32.663100  -32.649800  -91.530100
  H    -30.910500  -33.692500  -88.890000
  C    -30.962700  -31.136700  -90.505000
  H    -30.471800  -31.069400  -91.418400
  H    -30.197800  -31.430600  -89.760900
  C    -31.678400  -29.905900  -89.849600
  H    -31.782400  -29.949500  -88.723000
  H    -32.687000  -29.778200  -90.220300
  C    -30.814900  -28.673800  -90.118700
  H    -31.467100  -27.904400  -89.955200
  H    -30.380100  -28.636000  -91.145300
  H    -30.070300  -28.471300  -89.303400
  H    -33.950400  -29.280500  -95.087900
  H    -32.657300  -35.323100  -89.141100

 Total Charge           Charge          ....    0
 Multiplicity           Mult            ....    1
 Number of Electrons    NEL             ....  134
 Basis Dimension        Dim             ....  322

ORBITAL ENERGIES
----------------

  NO   OCC          E(Eh)            E(eV)
   0   2.0000     -88.970327     -2421.0057
   1   2.0000     -88.963533     -2420.8208
   2   2.0000     -10.326339      -280.9940
   3   2.0000     -10.324855      -280.9536
   4   2.0000     -10.314756      -280.6788
   5   2.0000     -10.313148      -280.6350
   6   2.0000     -10.301801      -280.3263
   7   2.0000     -10.299632      -280.2672
   8   2.0000     -10.298461      -280.2354
   9   2.0000     -10.289047      -279.9792
  10   2.0000     -10.288423      -279.9622
  11   2.0000     -10.287684      -279.9421
  12   2.0000     -10.287151      -279.9276
  13   2.0000     -10.281365      -279.7702
  14   2.0000     -10.273485      -279.5557
  15   2.0000     -10.270289      -279.4688
  16   2.0000      -8.085107      -220.0069
  17   2.0000      -8.078379      -219.8239
  18   2.0000      -6.043581      -164.4542
  19   2.0000      -6.039563      -164.3449
  20   2.0000      -6.036823      -164.2703
  21   2.0000      -6.035931      -164.2460
  22   2.0000      -6.032749      -164.1594
  23   2.0000      -6.029340      -164.0667
  24   2.0000      -1.010428       -27.4952
  25   2.0000      -0.987935       -26.8831
  26   2.0000      -0.912346       -24.8262
  27   2.0000      -0.909245       -24.7418
  28   2.0000      -0.864545       -23.5255
  29   2.0000      -0.852500       -23.1977
  30   2.0000      -0.847055       -23.0495
  31   2.0000      -0.818871       -22.2826
  32   2.0000      -0.783235       -21.3129
  33   2.0000      -0.768398       -20.9092
  34   2.0000      -0.702527       -19.1167
  35   2.0000      -0.696819       -18.9614
  36   2.0000      -0.692266       -18.8375
  37   2.0000      -0.662366       -18.0239
  38   2.0000      -0.640003       -17.4154
  39   2.0000      -0.612286       -16.6612
  40   2.0000      -0.592265       -16.1164
  41   2.0000      -0.572348       -15.5744
  42   2.0000      -0.561904       -15.2902
  43   2.0000      -0.550268       -14.9736
  44   2.0000      -0.544442       -14.8150
  45   2.0000      -0.532886       -14.5006
  46   2.0000      -0.515729       -14.0337
  47   2.0000      -0.509653       -13.8684
  48   2.0000      -0.502866       -13.6837
  49   2.0000      -0.499284       -13.5862
  50   2.0000      -0.485329       -13.2065
  51   2.0000      -0.478402       -13.0180
  52   2.0000      -0.473353       -12.8806
  53   2.0000      -0.464830       -12.6487
  54   2.0000      -0.459849       -12.5131
  55   2.0000      -0.449111       -12.2209
  56   2.0000      -0.446049       -12.1376
  57   2.0000      -0.442903       -12.0520
  58   2.0000      -0.433302       -11.7908
  59   2.0000      -0.423991       -11.5374
  60   2.0000      -0.415547       -11.3076
  61   2.0000      -0.400999       -10.9117
  62   2.0000      -0.397411       -10.8141
  63   2.0000      -0.336838        -9.1658
  64   2.0000      -0.335096        -9.1184
  65   2.0000      -0.323881        -8.8132
  66   2.0000      -0.302173        -8.2226
  67   0.0000       0.041567         1.1311
  68   0.0000       0.066401         1.8069
  69   0.0000       0.112738         3.0678
  70   0.0000       0.122922         3.3449
  71   0.0000       0.125915         3.4263

MULLIKEN ATOMIC CHARGES
-----------------------
   0 S :    0.125488
   1 C :   -0.133750
   2 C :   -0.058587
   3 C :    0.041719
   4 C :   -0.156580
   5 H :   -0.005968
   6 C :    0.016644
   7 H :    0.045393
   8 H :    0.038403
   9 C :   -0.096702
  10 H :    0.025012
  11 H :    0.020672
  12 C :   -0.029096
  13 H :    0.023746
  14 H :    0.045239
  15 H :    0.038257
  16 S :    0.114504
  17 C :   -0.094009
  18 C :   -0.010904
  19 C :   -0.043368
  20 C :   -0.179783
  21 H :   -0.014391
  22 C :    0.091842
  23 H :    0.031794
  24 H :    0.013174
  25 C :   -0.093454
  26 H :    0.037675
  27 H :    0.030729
  28 C :   -0.015742
  29 H :    0.003454
  30 H :    0.045418
  31 H :    0.034506
  32 H :    0.056463
  33 H :    0.052204
Sum of atomic charges:   -0.0000000

LOEWDIN ATOMIC CHARGES
----------------------
   0 S :    0.440156
   1 C :   -0.204419
   2 C :   -0.068057
   3 C :   -0.062077
   4 C :   -0.207414
   5 H :    0.026329
   6 C :   -0.041881
   7 H :    0.040858
   8 H :    0.036660
   9 C :   -0.054078
  10 H :    0.026105
  11 H :    0.019327
  12 C :   -0.060027
  13 H :    0.018383
  14 H :    0.030990
  15 H :    0.028621
  16 S :    0.415437
  17 C :   -0.188407
  18 C :   -0.065845
  19 C :   -0.054012
  20 C :   -0.208225
  21 H :    0.016785
  22 C :   -0.037676
  23 H :    0.027682
  24 H :    0.039526
  25 C :   -0.033439
  26 H :    0.034440
  27 H :    0.005943
  28 C :   -0.066033
  29 H :    0.013551
  30 H :    0.030957
  31 H :    0.031170
  32 H :    0.039336
  33 H :    0.029336

  Mayer bond orders larger than 0.100000
B(  0-S ,  1-C ) :   1.1384 B(  0-S ,  4-C ) :   1.1651 B(  1-C ,  2-C ) :   1.6197
B(  1-C , 32-H ) :   0.9591 B(  2-C ,  3-C ) :   1.2226 B(  2-C ,  6-C ) :   1.0101
B(  3-C ,  4-C ) :   1.5946 B(  3-C ,  5-H ) :   1.0032 B(  4-C , 20-C ) :   0.9873
B(  6-C ,  7-H ) :   0.9459 B(  6-C ,  8-H ) :   0.9497 B(  6-C ,  9-C ) :   1.0692
B(  9-C , 10-H ) :   0.9551 B(  9-C , 11-H ) :   0.9599 B(  9-C , 12-C ) :   1.0686
B( 12-C , 13-H ) :   0.9769 B( 12-C , 14-H ) :   0.9694 B( 12-C , 15-H ) :   0.9762
B( 16-S , 17-C ) :   1.1612 B( 16-S , 20-C ) :   1.1571 B( 17-C , 18-C ) :   1.6084
B( 17-C , 33-H ) :   0.9664 B( 18-C , 19-C ) :   1.2415 B( 18-C , 21-H ) :   1.0022
B( 19-C , 20-C ) :   1.5677 B( 19-C , 22-C ) :   1.0513 B( 22-C , 23-H ) :   0.9335
B( 22-C , 24-H ) :   0.9229 B( 22-C , 25-C ) :   1.0471 B( 25-C , 26-H ) :   0.9518
B( 25-C , 27-H ) :   0.9620 B( 25-C , 28-C ) :   1.0791 B( 28-C , 29-H ) :   0.9688
B( 28-C , 30-H ) :   0.9753 B( 28-C , 31-H ) :   0.9751

Dispersion correction           -0.015111707
FINAL SINGLE POINT ENERGY     -1339.855070956379

DIPOLE MOMENT
-------------
                                X             Y             Z
Electronic contribution:     -6.22464      -8.61541       9.83840
Nuclear contribution   :      6.58677       8.70985      -9.95550
                        -----------------------------------------
Total Dipole Moment    :      0.36213       0.09444      -0.11710
                        -----------------------------------------
Magnitude (a.u.)       :      0.39214
Magnitude (Debye)      :      0.99674

Rotational constants in cm-1:     0.020004     0.009146     0.006914
Rotational constants in MHz :   599.717333   274.185374   207.271974

                             ****ORCA TERMINATED NORMALLY****
TOTAL RUN TIME: 0 days 0 hours 0 minutes 21 seconds 910 msec
