                         Program Version 4.2.1 -  RELEASE  -
|  1> ! wB97X-D3 SP def2-SVP
|  2> %pal
|  3> nprocs 24
|  4> end
|  5>
|  6> * xyz 0 1
|  7> S 	 -90.5015 	 -6.01753 	 -112.993
|  8> C 	 -91.5634 	 -7.37852 	 -113.388
|  9> C 	 -92.5055 	 -7.00688 	 -114.26
| 10> C 	 -92.3786 	 -5.63579 	 -114.684
| 11> C 	 -91.2682 	 -4.96705 	 -114.229
| 12> H 	 -92.9774 	 -5.07212 	 -115.344
| 13> C 	 -93.7053 	 -7.819 	 -114.551
| 14> H 	 -93.5069 	 -8.7323 	 -114.095
| 15> H 	 -93.7088 	 -7.97881 	 -115.638
| 16> C 	 -95.0863 	 -7.19124 	 -114.041
| 17> H 	 -95.328 	 -6.14673 	 -114.481
| 18> H 	 -95.8854 	 -7.83269 	 -114.404
| 19> C 	 -95.3164 	 -7.05758 	 -112.572
| 20> H 	 -96.2299 	 -6.51031 	 -112.416
| 21> H 	 -95.4366 	 -8.02282 	 -112.077
| 22> H 	 -94.5693 	 -6.53652 	 -111.941
| 23> S 	 -91.8573 	 -2.75628 	 -115.845
| 24> C 	 -91.2683 	 -1.18608 	 -115.42
| 25> C 	 -90.4969 	 -1.20787 	 -114.317
| 26> C 	 -90.3961 	 -2.54884 	 -113.736
| 27> C 	 -91.1108 	 -3.51075 	 -114.475
| 28> H 	 -90.0405 	 -0.267983 	 -113.923
| 29> C 	 -89.6335 	 -2.79118 	 -112.452
| 30> H 	 -90.1532 	 -3.49125 	 -111.858
| 31> H 	 -89.5459 	 -1.91102 	 -111.827
| 32> C 	 -88.1987 	 -3.4246 	 -112.627
| 33> H 	 -88.3408 	 -4.29436 	 -113.315
| 34> H 	 -87.895 	 -3.78845 	 -111.616
| 35> C 	 -87.1156 	 -2.50927 	 -113.282
| 36> H 	 -87.4486 	 -1.98513 	 -114.184
| 37> H 	 -86.2999 	 -3.11332 	 -113.462
| 38> H 	 -86.8426 	 -1.77009 	 -112.561
| 39> H 	 -91.632 	 -8.30306 	 -112.838
| 40> H 	 -91.3339 	 -0.371187 	 -116.125
| 41> *
| 42>
| 43>                          ****END OF INPUT****

CARTESIAN COORDINATES (ANGSTROEM)
---------------------------------
  S    -90.501500   -6.017530  -112.993000
  C    -91.563400   -7.378520  -113.388000
  C    -92.505500   -7.006880  -114.260000
  C    -92.378600   -5.635790  -114.684000
  C    -91.268200   -4.967050  -114.229000
  H    -92.977400   -5.072120  -115.344000
  C    -93.705300   -7.819000  -114.551000
  H    -93.506900   -8.732300  -114.095000
  H    -93.708800   -7.978810  -115.638000
  C    -95.086300   -7.191240  -114.041000
  H    -95.328000   -6.146730  -114.481000
  H    -95.885400   -7.832690  -114.404000
  C    -95.316400   -7.057580  -112.572000
  H    -96.229900   -6.510310  -112.416000
  H    -95.436600   -8.022820  -112.077000
  H    -94.569300   -6.536520  -111.941000
  S    -91.857300   -2.756280  -115.845000
  C    -91.268300   -1.186080  -115.420000
  C    -90.496900   -1.207870  -114.317000
  C    -90.396100   -2.548840  -113.736000
  C    -91.110800   -3.510750  -114.475000
  H    -90.040500   -0.267983  -113.923000
  C    -89.633500   -2.791180  -112.452000
  H    -90.153200   -3.491250  -111.858000
  H    -89.545900   -1.911020  -111.827000
  C    -88.198700   -3.424600  -112.627000
  H    -88.340800   -4.294360  -113.315000
  H    -87.895000   -3.788450  -111.616000
  C    -87.115600   -2.509270  -113.282000
  H    -87.448600   -1.985130  -114.184000
  H    -86.299900   -3.113320  -113.462000
  H    -86.842600   -1.770090  -112.561000
  H    -91.632000   -8.303060  -112.838000
  H    -91.333900   -0.371187  -116.125000

 Total Charge           Charge          ....    0
 Multiplicity           Mult            ....    1
 Number of Electrons    NEL             ....  134
 Basis Dimension        Dim             ....  322

ORBITAL ENERGIES
----------------

  NO   OCC          E(Eh)            E(eV)
   0   2.0000     -88.967418     -2420.9265
   1   2.0000     -88.966832     -2420.9106
   2   2.0000     -10.335905      -281.2543
   3   2.0000     -10.333672      -281.1935
   4   2.0000     -10.314708      -280.6775
   5   2.0000     -10.311104      -280.5794
   6   2.0000     -10.307259      -280.4748
   7   2.0000     -10.298411      -280.2340
   8   2.0000     -10.297837      -280.2184
   9   2.0000     -10.294901      -280.1385
  10   2.0000     -10.290774      -280.0262
  11   2.0000     -10.289694      -279.9968
  12   2.0000     -10.288433      -279.9625
  13   2.0000     -10.285349      -279.8786
  14   2.0000     -10.274339      -279.5790
  15   2.0000     -10.266558      -279.3673
  16   2.0000      -8.082192      -219.9276
  17   2.0000      -8.080318      -219.8766
  18   2.0000      -6.040851      -164.3799
  19   2.0000      -6.039268      -164.3368
  20   2.0000      -6.036567      -164.2633
  21   2.0000      -6.035112      -164.2237
  22   2.0000      -6.032831      -164.1617
  23   2.0000      -6.030652      -164.1024
  24   2.0000      -1.007744       -27.4221
  25   2.0000      -0.987632       -26.8748
  26   2.0000      -0.910519       -24.7765
  27   2.0000      -0.900351       -24.4998
  28   2.0000      -0.875567       -23.8254
  29   2.0000      -0.850568       -23.1451
  30   2.0000      -0.841962       -22.9109
  31   2.0000      -0.820738       -22.3334
  32   2.0000      -0.784814       -21.3559
  33   2.0000      -0.776168       -21.1206
  34   2.0000      -0.710540       -19.3348
  35   2.0000      -0.694651       -18.9024
  36   2.0000      -0.685901       -18.6643
  37   2.0000      -0.668377       -18.1875
  38   2.0000      -0.632415       -17.2089
  39   2.0000      -0.616788       -16.7836
  40   2.0000      -0.596628       -16.2351
  41   2.0000      -0.567978       -15.4555
  42   2.0000      -0.552339       -15.0299
  43   2.0000      -0.548475       -14.9248
  44   2.0000      -0.540891       -14.7184
  45   2.0000      -0.535486       -14.5713
  46   2.0000      -0.524196       -14.2641
  47   2.0000      -0.516263       -14.0482
  48   2.0000      -0.504297       -13.7226
  49   2.0000      -0.497002       -13.5241
  50   2.0000      -0.485654       -13.2153
  51   2.0000      -0.479644       -13.0518
  52   2.0000      -0.478913       -13.0319
  53   2.0000      -0.474336       -12.9073
  54   2.0000      -0.456598       -12.4247
  55   2.0000      -0.447790       -12.1850
  56   2.0000      -0.441859       -12.0236
  57   2.0000      -0.433012       -11.7829
  58   2.0000      -0.430128       -11.7044
  59   2.0000      -0.419975       -11.4281
  60   2.0000      -0.419756       -11.4221
  61   2.0000      -0.414829       -11.2881
  62   2.0000      -0.408003       -11.1023
  63   2.0000      -0.368289       -10.0217
  64   2.0000      -0.330331        -8.9888
  65   2.0000      -0.325887        -8.8678
  66   2.0000      -0.288163        -7.8413
  67   0.0000       0.022174         0.6034
  68   0.0000       0.088356         2.4043
  69   0.0000       0.109674         2.9844
  70   0.0000       0.117528         3.1981
  71   0.0000       0.134774         3.6674

MULLIKEN ATOMIC CHARGES
-----------------------
   0 S :    0.075094
   1 C :   -0.112238
   2 C :   -0.074586
   3 C :   -0.033540
   4 C :   -0.058367
   5 H :    0.000094
   6 C :    0.128227
   7 H :   -0.010201
   8 H :    0.038479
   9 C :   -0.098282
  10 H :    0.045147
  11 H :    0.032799
  12 C :   -0.051503
  13 H :    0.029174
  14 H :    0.021707
  15 H :    0.041185
  16 S :    0.085323
  17 C :   -0.082157
  18 C :   -0.034211
  19 C :   -0.084637
  20 C :   -0.131262
  21 H :    0.037758
  22 C :    0.072957
  23 H :    0.015450
  24 H :    0.017161
  25 C :   -0.124449
  26 H :    0.037461
  27 H :    0.036944
  28 C :   -0.005212
  29 H :    0.039399
  30 H :    0.023074
  31 H :    0.016651
  32 H :    0.046434
  33 H :    0.060124
Sum of atomic charges:    0.0000000

LOEWDIN ATOMIC CHARGES
----------------------
   0 S :    0.384821
   1 C :   -0.188413
   2 C :   -0.067280
   3 C :   -0.062565
   4 C :   -0.164959
   5 H :    0.012475
   6 C :   -0.023308
   7 H :    0.018829
   8 H :    0.037896
   9 C :   -0.042164
  10 H :    0.034564
  11 H :    0.026712
  12 C :   -0.073157
  13 H :    0.028306
  14 H :    0.021911
  15 H :    0.028964
  16 S :    0.418025
  17 C :   -0.189513
  18 C :   -0.074015
  19 C :   -0.056330
  20 C :   -0.192666
  21 H :    0.041586
  22 C :   -0.038619
  23 H :    0.017398
  24 H :    0.027704
  25 C :   -0.037967
  26 H :    0.016235
  27 H :    0.026773
  28 C :   -0.058625
  29 H :    0.028819
  30 H :    0.017615
  31 H :    0.019483
  32 H :    0.031335
  33 H :    0.030130

  Mayer bond orders larger than 0.100000
B(  0-S ,  1-C ) :   1.1062 B(  0-S ,  4-C ) :   1.1180 B(  1-C ,  2-C ) :   1.6550
B(  1-C , 32-H ) :   0.9598 B(  2-C ,  3-C ) :   1.1909 B(  2-C ,  6-C ) :   1.0424
B(  3-C ,  4-C ) :   1.5915 B(  3-C ,  5-H ) :   1.0011 B(  4-C , 20-C ) :   1.0694
B(  6-C ,  7-H ) :   0.9340 B(  6-C ,  8-H ) :   0.9285 B(  6-C ,  9-C ) :   1.0571
B(  9-C , 10-H ) :   0.9590 B(  9-C , 11-H ) :   0.9543 B(  9-C , 12-C ) :   1.0808
B( 12-C , 13-H ) :   0.9698 B( 12-C , 14-H ) :   0.9728 B( 12-C , 15-H ) :   0.9748
B( 16-S , 17-C ) :   1.1482 B( 16-S , 20-C ) :   1.1427 B( 17-C , 18-C ) :   1.6275
B( 17-C , 33-H ) :   0.9648 B( 18-C , 19-C ) :   1.2316 B( 18-C , 21-H ) :   0.9853
B( 19-C , 20-C ) :   1.5731 B( 19-C , 22-C ) :   1.0512 B( 22-C , 23-H ) :   0.9274
B( 22-C , 24-H ) :   0.9381 B( 22-C , 25-C ) :   1.0631 B( 25-C , 26-H ) :   0.9554
B( 25-C , 27-H ) :   0.9573 B( 25-C , 28-C ) :   1.0729 B( 28-C , 29-H ) :   0.9755
B( 28-C , 30-H ) :   0.9745 B( 28-C , 31-H ) :   0.9753

Dispersion correction           -0.014778471
FINAL SINGLE POINT ENERGY     -1339.876803798604

DIPOLE MOMENT
-------------
                                X             Y             Z
Electronic contribution:      2.03914       3.99665      -8.67921
Nuclear contribution   :     -2.32415      -3.96100       8.85580
                        -----------------------------------------
Total Dipole Moment    :     -0.28500       0.03564       0.17659
                        -----------------------------------------
Magnitude (a.u.)       :      0.33717
Magnitude (Debye)      :      0.85702

Rotational constants in cm-1:     0.022046     0.008586     0.006883
Rotational constants in MHz :   660.931208   257.390902   206.347009

                             ****ORCA TERMINATED NORMALLY****
TOTAL RUN TIME: 0 days 0 hours 0 minutes 21 seconds 861 msec
