                         Program Version 4.2.1 -  RELEASE  -
|  1> ! wB97X-D3 SP def2-SVP
|  2> %pal
|  3> nprocs 24
|  4> end
|  5>
|  6> * xyz 0 1
|  7> S 	 -3.14073 	 -20.9715 	 -104.943
|  8> C 	 -2.83101 	 -22.5637 	 -105.597
|  9> C 	 -3.5963 	 -23.6216 	 -105.019
| 10> C 	 -4.61441 	 -23.0272 	 -104.224
| 11> C 	 -4.50161 	 -21.6055 	 -104.082
| 12> H 	 -5.52744 	 -23.4475 	 -103.738
| 13> C 	 -3.35843 	 -25.0958 	 -105.315
| 14> H 	 -2.28979 	 -25.3757 	 -105.323
| 15> H 	 -3.57 	 -25.4695 	 -106.312
| 16> C 	 -3.90968 	 -26.0026 	 -104.257
| 17> H 	 -3.56903 	 -25.7128 	 -103.321
| 18> H 	 -5.0159 	 -25.9349 	 -104.164
| 19> C 	 -3.49558 	 -27.4582 	 -104.56
| 20> H 	 -2.4978 	 -27.6185 	 -104.298
| 21> H 	 -4.07269 	 -28.0525 	 -103.906
| 22> H 	 -3.57159 	 -27.7552 	 -105.62
| 23> S 	 -6.11264 	 -19.5816 	 -104.217
| 24> C 	 -6.77158 	 -18.9113 	 -102.819
| 25> C 	 -6.34499 	 -19.5627 	 -101.678
| 26> C 	 -5.55968 	 -20.6777 	 -101.996
| 27> C 	 -5.25101 	 -20.6956 	 -103.322
| 28> H 	 -6.70028 	 -19.1729 	 -100.786
| 29> C 	 -4.99962 	 -21.5858 	 -101.007
| 30> H 	 -4.98807 	 -22.5573 	 -101.527
| 31> H 	 -5.63253 	 -21.4886 	 -100.136
| 32> C 	 -3.52078 	 -21.2277 	 -100.684
| 33> H 	 -2.94221 	 -21.0437 	 -101.543
| 34> H 	 -2.90086 	 -21.9575 	 -100.111
| 35> C 	 -3.42559 	 -19.9283 	 -99.9009
| 36> H 	 -2.35379 	 -19.7138 	 -99.7235
| 37> H 	 -3.9467 	 -19.8896 	 -98.951
| 38> H 	 -3.79403 	 -19.1546 	 -100.515
| 39> H 	 -2.05104 	 -22.6688 	 -106.337
| 40> H 	 -7.34169 	 -17.9745 	 -102.902
| 41> *
| 42>
| 43>                          ****END OF INPUT****

CARTESIAN COORDINATES (ANGSTROEM)
---------------------------------
  S     -3.140730  -20.971500  -104.943000
  C     -2.831010  -22.563700  -105.597000
  C     -3.596300  -23.621600  -105.019000
  C     -4.614410  -23.027200  -104.224000
  C     -4.501610  -21.605500  -104.082000
  H     -5.527440  -23.447500  -103.738000
  C     -3.358430  -25.095800  -105.315000
  H     -2.289790  -25.375700  -105.323000
  H     -3.570000  -25.469500  -106.312000
  C     -3.909680  -26.002600  -104.257000
  H     -3.569030  -25.712800  -103.321000
  H     -5.015900  -25.934900  -104.164000
  C     -3.495580  -27.458200  -104.560000
  H     -2.497800  -27.618500  -104.298000
  H     -4.072690  -28.052500  -103.906000
  H     -3.571590  -27.755200  -105.620000
  S     -6.112640  -19.581600  -104.217000
  C     -6.771580  -18.911300  -102.819000
  C     -6.344990  -19.562700  -101.678000
  C     -5.559680  -20.677700  -101.996000
  C     -5.251010  -20.695600  -103.322000
  H     -6.700280  -19.172900  -100.786000
  C     -4.999620  -21.585800  -101.007000
  H     -4.988070  -22.557300  -101.527000
  H     -5.632530  -21.488600  -100.136000
  C     -3.520780  -21.227700  -100.684000
  H     -2.942210  -21.043700  -101.543000
  H     -2.900860  -21.957500  -100.111000
  C     -3.425590  -19.928300  -99.900900
  H     -2.353790  -19.713800  -99.723500
  H     -3.946700  -19.889600  -98.951000
  H     -3.794030  -19.154600  -100.515000
  H     -2.051040  -22.668800  -106.337000
  H     -7.341690  -17.974500  -102.902000

 Total Charge           Charge          ....    0
 Multiplicity           Mult            ....    1
 Number of Electrons    NEL             ....  134
 Basis Dimension        Dim             ....  322

ORBITAL ENERGIES
----------------

  NO   OCC          E(Eh)            E(eV)
   0   2.0000     -88.969205     -2420.9752
   1   2.0000     -88.960265     -2420.7319
   2   2.0000     -10.322403      -280.8869
   3   2.0000     -10.314559      -280.6734
   4   2.0000     -10.311213      -280.5824
   5   2.0000     -10.308527      -280.5093
   6   2.0000     -10.304844      -280.4091
   7   2.0000     -10.303057      -280.3604
   8   2.0000     -10.292635      -280.0768
   9   2.0000     -10.290889      -280.0293
  10   2.0000     -10.284866      -279.8654
  11   2.0000     -10.284473      -279.8547
  12   2.0000     -10.280623      -279.7500
  13   2.0000     -10.278331      -279.6876
  14   2.0000     -10.272109      -279.5183
  15   2.0000     -10.264643      -279.3151
  16   2.0000      -8.084010      -219.9771
  17   2.0000      -8.078279      -219.8212
  18   2.0000      -6.042107      -164.4141
  19   2.0000      -6.038454      -164.3147
  20   2.0000      -6.036304      -164.2562
  21   2.0000      -6.035267      -164.2280
  22   2.0000      -6.032177      -164.1439
  23   2.0000      -6.029492      -164.0708
  24   2.0000      -1.025654       -27.9095
  25   2.0000      -0.985582       -26.8191
  26   2.0000      -0.920032       -25.0353
  27   2.0000      -0.917412       -24.9641
  28   2.0000      -0.876207       -23.8428
  29   2.0000      -0.854767       -23.2594
  30   2.0000      -0.848549       -23.0902
  31   2.0000      -0.810180       -22.0461
  32   2.0000      -0.787124       -21.4187
  33   2.0000      -0.770113       -20.9558
  34   2.0000      -0.714215       -19.4348
  35   2.0000      -0.699553       -19.0358
  36   2.0000      -0.685136       -18.6435
  37   2.0000      -0.673838       -18.3361
  38   2.0000      -0.649206       -17.6658
  39   2.0000      -0.615994       -16.7621
  40   2.0000      -0.593217       -16.1423
  41   2.0000      -0.573189       -15.5973
  42   2.0000      -0.568007       -15.4563
  43   2.0000      -0.552453       -15.0330
  44   2.0000      -0.549053       -14.9405
  45   2.0000      -0.528971       -14.3940
  46   2.0000      -0.521644       -14.1946
  47   2.0000      -0.510216       -13.8837
  48   2.0000      -0.497146       -13.5280
  49   2.0000      -0.492657       -13.4059
  50   2.0000      -0.489251       -13.3132
  51   2.0000      -0.480062       -13.0632
  52   2.0000      -0.474110       -12.9012
  53   2.0000      -0.472413       -12.8550
  54   2.0000      -0.456562       -12.4237
  55   2.0000      -0.452116       -12.3027
  56   2.0000      -0.448164       -12.1952
  57   2.0000      -0.442019       -12.0279
  58   2.0000      -0.434376       -11.8200
  59   2.0000      -0.427935       -11.6447
  60   2.0000      -0.422455       -11.4956
  61   2.0000      -0.415817       -11.3150
  62   2.0000      -0.410551       -11.1717
  63   2.0000      -0.340309        -9.2603
  64   2.0000      -0.331668        -9.0252
  65   2.0000      -0.325798        -8.8654
  66   2.0000      -0.289295        -7.8721
  67   0.0000       0.033398         0.9088
  68   0.0000       0.066468         1.8087
  69   0.0000       0.109833         2.9887
  70   0.0000       0.124186         3.3793
  71   0.0000       0.133262         3.6262

MULLIKEN ATOMIC CHARGES
-----------------------
   0 S :    0.128967
   1 C :   -0.120925
   2 C :   -0.039586
   3 C :    0.022679
   4 C :   -0.215515
   5 H :    0.036763
   6 C :    0.061220
   7 H :    0.018463
   8 H :    0.028164
   9 C :   -0.095829
  10 H :    0.014017
  11 H :    0.032806
  12 C :   -0.002336
  13 H :    0.016015
  14 H :    0.020930
  15 H :    0.032759
  16 S :    0.138933
  17 C :   -0.114134
  18 C :   -0.021625
  19 C :   -0.037050
  20 C :   -0.185544
  21 H :   -0.012457
  22 C :    0.137234
  23 H :    0.020884
  24 H :    0.019470
  25 C :   -0.053308
  26 H :    0.015593
  27 H :    0.030566
  28 C :   -0.061559
  29 H :    0.029099
  30 H :    0.023950
  31 H :    0.026334
  32 H :    0.042325
  33 H :    0.062694
Sum of atomic charges:   -0.0000000

LOEWDIN ATOMIC CHARGES
----------------------
   0 S :    0.428979
   1 C :   -0.195743
   2 C :   -0.056369
   3 C :   -0.069894
   4 C :   -0.210606
   5 H :    0.039186
   6 C :   -0.038618
   7 H :    0.036375
   8 H :    0.030865
   9 C :   -0.035456
  10 H :    0.015874
  11 H :    0.022649
  12 C :   -0.053007
  13 H :    0.017329
  14 H :    0.022996
  15 H :    0.028629
  16 S :    0.475880
  17 C :   -0.206636
  18 C :   -0.065973
  19 C :   -0.056806
  20 C :   -0.247769
  21 H :    0.021088
  22 C :   -0.027663
  23 H :    0.036640
  24 H :    0.030595
  25 C :   -0.033865
  26 H :    0.018195
  27 H :    0.025316
  28 C :   -0.064410
  29 H :    0.028755
  30 H :    0.018529
  31 H :    0.016954
  32 H :    0.018617
  33 H :    0.029366

  Mayer bond orders larger than 0.100000
B(  0-S ,  1-C ) :   1.1708 B(  0-S ,  4-C ) :   1.1768 B(  1-C ,  2-C ) :   1.5606
B(  1-C ,  4-C ) :   0.1213 B(  1-C , 32-H ) :   0.9744 B(  2-C ,  3-C ) :   1.2667
B(  2-C ,  6-C ) :   1.0034 B(  3-C ,  4-C ) :   1.5461 B(  3-C ,  5-H ) :   0.9775
B(  4-C , 20-C ) :   1.0242 B(  6-C ,  7-H ) :   0.9418 B(  6-C ,  8-H ) :   0.9374
B(  6-C ,  9-C ) :   1.0765 B(  9-C , 10-H ) :   0.9545 B(  9-C , 11-H ) :   0.9500
B(  9-C , 12-C ) :   1.0848 B( 12-C , 13-H ) :   0.9723 B( 12-C , 14-H ) :   0.9704
B( 12-C , 15-H ) :   0.9756 B( 16-S , 17-C ) :   1.1984 B( 16-S , 20-C ) :   1.1934
B( 17-C , 18-C ) :   1.5595 B( 17-C , 20-C ) :   0.1055 B( 17-C , 33-H ) :   0.9656
B( 18-C , 19-C ) :   1.2426 B( 18-C , 21-H ) :   1.0134 B( 19-C , 20-C ) :   1.5450
B( 19-C , 22-C ) :   1.0623 B( 22-C , 23-H ) :   0.9091 B( 22-C , 24-H ) :   0.9303
B( 22-C , 25-C ) :   1.0696 B( 25-C , 26-H ) :   0.9548 B( 25-C , 27-H ) :   0.9614
B( 25-C , 28-C ) :   1.0777 B( 28-C , 29-H ) :   0.9712 B( 28-C , 30-H ) :   0.9759
B( 28-C , 31-H ) :   0.9753

Dispersion correction           -0.014837384
FINAL SINGLE POINT ENERGY     -1339.858365178095

DIPOLE MOMENT
-------------
                                X             Y             Z
Electronic contribution:     -6.97930      20.49789     -12.85037
Nuclear contribution   :      7.05920     -20.85465      13.05273
                        -----------------------------------------
Total Dipole Moment    :      0.07990      -0.35676       0.20236
                        -----------------------------------------
Magnitude (a.u.)       :      0.41786
Magnitude (Debye)      :      1.06213

Rotational constants in cm-1:     0.021105     0.008284     0.007292
Rotational constants in MHz :   632.716252   248.353972   218.604335

                             ****ORCA TERMINATED NORMALLY****
TOTAL RUN TIME: 0 days 0 hours 0 minutes 21 seconds 163 msec
