                         Program Version 4.2.1 -  RELEASE  -
|  1> ! wB97X-D3 SP def2-SVP
|  2> %pal
|  3> nprocs 24
|  4> end
|  5>
|  6> * xyz 0 1
|  7> S 	 -138.328 	 15.3604 	 -5.89801
|  8> C 	 -139.521 	 14.6979 	 -4.77688
|  9> C 	 -138.885 	 14.314 	 -3.56877
| 10> C 	 -137.446 	 14.5034 	 -3.6495
| 11> C 	 -137.024 	 15.1231 	 -4.80945
| 12> H 	 -136.806 	 14.2354 	 -2.82782
| 13> C 	 -139.506 	 13.7973 	 -2.29323
| 14> H 	 -140.595 	 13.6963 	 -2.42645
| 15> H 	 -139.492 	 14.5686 	 -1.47097
| 16> C 	 -138.975 	 12.4341 	 -1.73447
| 17> H 	 -138.82 	 11.794 	 -2.63136
| 18> H 	 -138.003 	 12.6362 	 -1.38436
| 19> C 	 -139.816 	 11.776 	 -0.667845
| 20> H 	 -140.615 	 11.1248 	 -1.04287
| 21> H 	 -139.198 	 11.0835 	 -0.125412
| 22> H 	 -140.274 	 12.4892 	 0.0679132
| 23> S 	 -135.686 	 17.2929 	 -5.46765
| 24> C 	 -133.936 	 17.2956 	 -5.55779
| 25> C 	 -133.395 	 16.0836 	 -5.2063
| 26> C 	 -134.422 	 15.1238 	 -4.99547
| 27> C 	 -135.68 	 15.6048 	 -5.09052
| 28> H 	 -132.348 	 16.0131 	 -5.20109
| 29> C 	 -134.016 	 13.6639 	 -4.65038
| 30> H 	 -133.383 	 13.2912 	 -5.40177
| 31> H 	 -134.946 	 13.0624 	 -4.55612
| 32> C 	 -133.4 	 13.4191 	 -3.18246
| 33> H 	 -134.12 	 13.5163 	 -2.41286
| 34> H 	 -132.634 	 14.216 	 -3.12051
| 35> C 	 -132.692 	 12.0356 	 -3.01114
| 36> H 	 -131.964 	 11.6432 	 -3.66083
| 37> H 	 -133.498 	 11.2682 	 -2.99568
| 38> H 	 -132.255 	 12.0187 	 -1.97333
| 39> H 	 -140.541 	 14.702 	 -4.92528
| 40> H 	 -133.353 	 18.1743 	 -5.80842
| 41> *
| 42>
| 43>                          ****END OF INPUT****

CARTESIAN COORDINATES (ANGSTROEM)
---------------------------------
  S    -138.328000   15.360400   -5.898010
  C    -139.521000   14.697900   -4.776880
  C    -138.885000   14.314000   -3.568770
  C    -137.446000   14.503400   -3.649500
  C    -137.024000   15.123100   -4.809450
  H    -136.806000   14.235400   -2.827820
  C    -139.506000   13.797300   -2.293230
  H    -140.595000   13.696300   -2.426450
  H    -139.492000   14.568600   -1.470970
  C    -138.975000   12.434100   -1.734470
  H    -138.820000   11.794000   -2.631360
  H    -138.003000   12.636200   -1.384360
  C    -139.816000   11.776000   -0.667845
  H    -140.615000   11.124800   -1.042870
  H    -139.198000   11.083500   -0.125412
  H    -140.274000   12.489200    0.067913
  S    -135.686000   17.292900   -5.467650
  C    -133.936000   17.295600   -5.557790
  C    -133.395000   16.083600   -5.206300
  C    -134.422000   15.123800   -4.995470
  C    -135.680000   15.604800   -5.090520
  H    -132.348000   16.013100   -5.201090
  C    -134.016000   13.663900   -4.650380
  H    -133.383000   13.291200   -5.401770
  H    -134.946000   13.062400   -4.556120
  C    -133.400000   13.419100   -3.182460
  H    -134.120000   13.516300   -2.412860
  H    -132.634000   14.216000   -3.120510
  C    -132.692000   12.035600   -3.011140
  H    -131.964000   11.643200   -3.660830
  H    -133.498000   11.268200   -2.995680
  H    -132.255000   12.018700   -1.973330
  H    -140.541000   14.702000   -4.925280
  H    -133.353000   18.174300   -5.808420

 Total Charge           Charge          ....    0
 Multiplicity           Mult            ....    1
 Number of Electrons    NEL             ....  134
 Basis Dimension        Dim             ....  322

ORBITAL ENERGIES
----------------

  NO   OCC          E(Eh)            E(eV)
   0   2.0000     -88.968456     -2420.9548
   1   2.0000     -88.961765     -2420.7727
   2   2.0000     -10.328996      -281.0663
   3   2.0000     -10.321668      -280.8669
   4   2.0000     -10.315373      -280.6956
   5   2.0000     -10.315283      -280.6931
   6   2.0000     -10.307978      -280.4943
   7   2.0000     -10.302146      -280.3356
   8   2.0000     -10.297546      -280.2105
   9   2.0000     -10.294071      -280.1159
  10   2.0000     -10.293194      -280.0920
  11   2.0000     -10.292340      -280.0688
  12   2.0000     -10.289975      -280.0045
  13   2.0000     -10.288107      -279.9536
  14   2.0000     -10.283181      -279.8196
  15   2.0000     -10.283168      -279.8192
  16   2.0000      -8.083318      -219.9583
  17   2.0000      -8.077374      -219.7965
  18   2.0000      -6.041929      -164.4093
  19   2.0000      -6.037634      -164.2924
  20   2.0000      -6.035843      -164.2436
  21   2.0000      -6.034126      -164.1969
  22   2.0000      -6.031794      -164.1334
  23   2.0000      -6.028070      -164.0321
  24   2.0000      -1.012574       -27.5536
  25   2.0000      -0.984693       -26.7948
  26   2.0000      -0.910143       -24.7662
  27   2.0000      -0.896066       -24.3832
  28   2.0000      -0.873040       -23.7566
  29   2.0000      -0.850365       -23.1396
  30   2.0000      -0.846471       -23.0336
  31   2.0000      -0.816159       -22.2088
  32   2.0000      -0.780865       -21.2484
  33   2.0000      -0.772944       -21.0329
  34   2.0000      -0.710547       -19.3350
  35   2.0000      -0.700855       -19.0712
  36   2.0000      -0.694667       -18.9029
  37   2.0000      -0.668329       -18.1862
  38   2.0000      -0.643506       -17.5107
  39   2.0000      -0.624569       -16.9954
  40   2.0000      -0.591602       -16.0983
  41   2.0000      -0.572905       -15.5895
  42   2.0000      -0.564208       -15.3529
  43   2.0000      -0.557916       -15.1817
  44   2.0000      -0.529316       -14.4034
  45   2.0000      -0.520937       -14.1754
  46   2.0000      -0.518361       -14.1053
  47   2.0000      -0.511257       -13.9120
  48   2.0000      -0.507790       -13.8177
  49   2.0000      -0.504370       -13.7246
  50   2.0000      -0.490226       -13.3397
  51   2.0000      -0.482122       -13.1192
  52   2.0000      -0.472918       -12.8688
  53   2.0000      -0.466497       -12.6940
  54   2.0000      -0.458279       -12.4704
  55   2.0000      -0.454691       -12.3728
  56   2.0000      -0.446570       -12.1518
  57   2.0000      -0.443999       -12.0818
  58   2.0000      -0.430430       -11.7126
  59   2.0000      -0.427296       -11.6273
  60   2.0000      -0.418339       -11.3836
  61   2.0000      -0.411990       -11.2108
  62   2.0000      -0.403214       -10.9720
  63   2.0000      -0.347463        -9.4549
  64   2.0000      -0.331691        -9.0258
  65   2.0000      -0.327771        -8.9191
  66   2.0000      -0.296726        -8.0743
  67   0.0000       0.035280         0.9600
  68   0.0000       0.071762         1.9527
  69   0.0000       0.112972         3.0741
  70   0.0000       0.121243         3.2992
  71   0.0000       0.126690         3.4474

MULLIKEN ATOMIC CHARGES
-----------------------
   0 S :    0.119129
   1 C :   -0.090506
   2 C :   -0.089219
   3 C :    0.034941
   4 C :   -0.136049
   5 H :    0.003084
   6 C :    0.027652
   7 H :    0.012083
   8 H :    0.044580
   9 C :   -0.076615
  10 H :    0.040015
  11 H :    0.018115
  12 C :   -0.040315
  13 H :    0.036837
  14 H :    0.025977
  15 H :    0.039575
  16 S :    0.098276
  17 C :   -0.094562
  18 C :   -0.019289
  19 C :   -0.028848
  20 C :   -0.140009
  21 H :    0.005003
  22 C :    0.067171
  23 H :    0.025035
  24 H :    0.027132
  25 C :   -0.077227
  26 H :    0.030881
  27 H :    0.028508
  28 C :   -0.066318
  29 H :    0.032588
  30 H :    0.026568
  31 H :    0.039963
  32 H :    0.020679
  33 H :    0.055165
Sum of atomic charges:    0.0000000

LOEWDIN ATOMIC CHARGES
----------------------
   0 S :    0.420975
   1 C :   -0.185943
   2 C :   -0.054773
   3 C :   -0.063077
   4 C :   -0.207564
   5 H :    0.026585
   6 C :   -0.043187
   7 H :    0.026792
   8 H :    0.036550
   9 C :   -0.041738
  10 H :    0.032276
  11 H :    0.013526
  12 C :   -0.068818
  13 H :    0.029302
  14 H :    0.026865
  15 H :    0.032229
  16 S :    0.411014
  17 C :   -0.175449
  18 C :   -0.065420
  19 C :   -0.060564
  20 C :   -0.199628
  21 H :    0.026847
  22 C :   -0.024821
  23 H :    0.022746
  24 H :    0.030526
  25 C :   -0.030112
  26 H :    0.018451
  27 H :    0.019964
  28 C :   -0.071537
  29 H :    0.017271
  30 H :    0.026423
  31 H :    0.034513
  32 H :    0.012335
  33 H :    0.027439

  Mayer bond orders larger than 0.100000
B(  0-S ,  1-C ) :   1.1341 B(  0-S ,  4-C ) :   1.1669 B(  1-C ,  2-C ) :   1.5922
B(  1-C , 32-H ) :   0.9801 B(  2-C ,  3-C ) :   1.2421 B(  2-C ,  6-C ) :   1.0407
B(  3-C ,  4-C ) :   1.5612 B(  3-C ,  5-H ) :   0.9991 B(  4-C , 20-C ) :   1.0025
B(  6-C ,  7-H ) :   0.9437 B(  6-C ,  8-H ) :   0.9345 B(  6-C ,  9-C ) :   1.0472
B(  9-C , 10-H ) :   0.9581 B(  9-C , 11-H ) :   0.9544 B(  9-C , 12-C ) :   1.0884
B( 12-C , 13-H ) :   0.9737 B( 12-C , 14-H ) :   0.9719 B( 12-C , 15-H ) :   0.9732
B( 16-S , 17-C ) :   1.1534 B( 16-S , 20-C ) :   1.1410 B( 17-C , 18-C ) :   1.6277
B( 17-C , 33-H ) :   0.9672 B( 18-C , 19-C ) :   1.1978 B( 18-C , 21-H ) :   1.0046
B( 19-C , 20-C ) :   1.6565 B( 19-C , 22-C ) :   1.0387 B( 22-C , 23-H ) :   0.9442
B( 22-C , 24-H ) :   0.9394 B( 22-C , 25-C ) :   1.0487 B( 25-C , 26-H ) :   0.9592
B( 25-C , 27-H ) :   0.9640 B( 25-C , 28-C ) :   1.0711 B( 28-C , 29-H ) :   0.9809
B( 28-C , 30-H ) :   0.9760 B( 28-C , 31-H ) :   0.9738

Dispersion correction           -0.013645747
FINAL SINGLE POINT ENERGY     -1339.874119938354

DIPOLE MOMENT
-------------
                                X             Y             Z
Electronic contribution:     -3.77392      23.76008     -22.04307
Nuclear contribution   :      3.98551     -24.13761      22.58235
                        -----------------------------------------
Total Dipole Moment    :      0.21159      -0.37754       0.53927
                        -----------------------------------------
Magnitude (a.u.)       :      0.69146
Magnitude (Debye)      :      1.75756

Rotational constants in cm-1:     0.015856     0.009235     0.006304
Rotational constants in MHz :   475.340834   276.864536   188.987913

                             ****ORCA TERMINATED NORMALLY****
TOTAL RUN TIME: 0 days 0 hours 0 minutes 20 seconds 970 msec
