                         Program Version 4.2.1 -  RELEASE  -
|  1> ! wB97X-D3 SP def2-SVP
|  2> %pal
|  3> nprocs 24
|  4> end
|  5>
|  6> * xyz 0 1
|  7> S 	 -108.141 	 0.821839 	 -107.31
|  8> C 	 -108.181 	 2.57396 	 -106.929
|  9> C 	 -106.928 	 3.1462 	 -106.945
| 10> C 	 -105.945 	 2.14159 	 -107.222
| 11> C 	 -106.405 	 0.859525 	 -107.329
| 12> H 	 -104.945 	 2.41879 	 -107.354
| 13> C 	 -106.633 	 4.57915 	 -106.877
| 14> H 	 -107.578 	 5.09774 	 -107.088
| 15> H 	 -105.857 	 4.79908 	 -107.667
| 16> C 	 -106.156 	 5.05664 	 -105.53
| 17> H 	 -106.857 	 4.74547 	 -104.792
| 18> H 	 -105.271 	 4.58748 	 -105.208
| 19> C 	 -105.973 	 6.55867 	 -105.34
| 20> H 	 -105.612 	 7.00505 	 -106.268
| 21> H 	 -106.886 	 7.09947 	 -105.054
| 22> H 	 -105.276 	 6.81115 	 -104.529
| 23> S 	 -106.146 	 -1.58796 	 -108.491
| 24> C 	 -104.652 	 -2.39752 	 -108.614
| 25> C 	 -103.793 	 -1.89125 	 -107.688
| 26> C 	 -104.175 	 -0.577889 	 -107.183
| 27> C 	 -105.483 	 -0.29353 	 -107.573
| 28> H 	 -102.81 	 -2.37975 	 -107.665
| 29> C 	 -103.228 	 0.230854 	 -106.398
| 30> H 	 -103.703 	 0.277005 	 -105.386
| 31> H 	 -103.291 	 1.23471 	 -106.856
| 32> C 	 -101.663 	 -0.0593429 	 -106.485
| 33> H 	 -101.084 	 0.905415 	 -106.292
| 34> H 	 -101.362 	 -0.407912 	 -107.515
| 35> C 	 -101.149 	 -1.16815 	 -105.493
| 36> H 	 -101.684 	 -2.05791 	 -105.651
| 37> H 	 -101.269 	 -0.781415 	 -104.472
| 38> H 	 -100.093 	 -1.33447 	 -105.65
| 39> H 	 -109.128 	 3.08082 	 -106.721
| 40> H 	 -104.478 	 -3.46234 	 -108.964
| 41> *
| 42>
| 43>                          ****END OF INPUT****

CARTESIAN COORDINATES (ANGSTROEM)
---------------------------------
  S    -108.141000    0.821839  -107.310000
  C    -108.181000    2.573960  -106.929000
  C    -106.928000    3.146200  -106.945000
  C    -105.945000    2.141590  -107.222000
  C    -106.405000    0.859525  -107.329000
  H    -104.945000    2.418790  -107.354000
  C    -106.633000    4.579150  -106.877000
  H    -107.578000    5.097740  -107.088000
  H    -105.857000    4.799080  -107.667000
  C    -106.156000    5.056640  -105.530000
  H    -106.857000    4.745470  -104.792000
  H    -105.271000    4.587480  -105.208000
  C    -105.973000    6.558670  -105.340000
  H    -105.612000    7.005050  -106.268000
  H    -106.886000    7.099470  -105.054000
  H    -105.276000    6.811150  -104.529000
  S    -106.146000   -1.587960  -108.491000
  C    -104.652000   -2.397520  -108.614000
  C    -103.793000   -1.891250  -107.688000
  C    -104.175000   -0.577889  -107.183000
  C    -105.483000   -0.293530  -107.573000
  H    -102.810000   -2.379750  -107.665000
  C    -103.228000    0.230854  -106.398000
  H    -103.703000    0.277005  -105.386000
  H    -103.291000    1.234710  -106.856000
  C    -101.663000   -0.059343  -106.485000
  H    -101.084000    0.905415  -106.292000
  H    -101.362000   -0.407912  -107.515000
  C    -101.149000   -1.168150  -105.493000
  H    -101.684000   -2.057910  -105.651000
  H    -101.269000   -0.781415  -104.472000
  H    -100.093000   -1.334470  -105.650000
  H    -109.128000    3.080820  -106.721000
  H    -104.478000   -3.462340  -108.964000

 Total Charge           Charge          ....    0
 Multiplicity           Mult            ....    1
 Number of Electrons    NEL             ....  134
 Basis Dimension        Dim             ....  322

ORBITAL ENERGIES
----------------

  NO   OCC          E(Eh)            E(eV)
   0   2.0000     -88.968158     -2420.9467
   1   2.0000     -88.960934     -2420.7501
   2   2.0000     -10.331471      -281.1336
   3   2.0000     -10.328007      -281.0394
   4   2.0000     -10.317330      -280.7488
   5   2.0000     -10.312883      -280.6278
   6   2.0000     -10.306599      -280.4568
   7   2.0000     -10.306169      -280.4451
   8   2.0000     -10.299329      -280.2590
   9   2.0000     -10.298093      -280.2254
  10   2.0000     -10.295168      -280.1458
  11   2.0000     -10.291722      -280.0520
  12   2.0000     -10.285491      -279.8824
  13   2.0000     -10.279220      -279.7118
  14   2.0000     -10.277495      -279.6649
  15   2.0000     -10.277315      -279.6600
  16   2.0000      -8.082410      -219.9336
  17   2.0000      -8.077359      -219.7961
  18   2.0000      -6.041106      -164.3869
  19   2.0000      -6.037149      -164.2792
  20   2.0000      -6.035826      -164.2432
  21   2.0000      -6.032860      -164.1625
  22   2.0000      -6.031662      -164.1299
  23   2.0000      -6.028032      -164.0311
  24   2.0000      -1.011392       -27.5214
  25   2.0000      -0.988845       -26.9078
  26   2.0000      -0.921058       -25.0633
  27   2.0000      -0.905531       -24.6407
  28   2.0000      -0.870103       -23.6767
  29   2.0000      -0.853983       -23.2381
  30   2.0000      -0.844439       -22.9783
  31   2.0000      -0.818594       -22.2751
  32   2.0000      -0.784258       -21.3407
  33   2.0000      -0.774328       -21.0705
  34   2.0000      -0.708373       -19.2758
  35   2.0000      -0.702868       -19.1260
  36   2.0000      -0.692797       -18.8520
  37   2.0000      -0.655794       -17.8451
  38   2.0000      -0.635672       -17.2975
  39   2.0000      -0.629372       -17.1261
  40   2.0000      -0.590597       -16.0710
  41   2.0000      -0.575154       -15.6507
  42   2.0000      -0.561976       -15.2922
  43   2.0000      -0.547568       -14.9001
  44   2.0000      -0.537000       -14.6125
  45   2.0000      -0.526367       -14.3232
  46   2.0000      -0.521954       -14.2031
  47   2.0000      -0.516760       -14.0618
  48   2.0000      -0.509519       -13.8647
  49   2.0000      -0.499822       -13.6009
  50   2.0000      -0.491498       -13.3743
  51   2.0000      -0.483292       -13.1510
  52   2.0000      -0.472591       -12.8599
  53   2.0000      -0.465545       -12.6681
  54   2.0000      -0.463227       -12.6050
  55   2.0000      -0.448923       -12.2158
  56   2.0000      -0.444046       -12.0831
  57   2.0000      -0.437565       -11.9068
  58   2.0000      -0.433441       -11.7945
  59   2.0000      -0.429692       -11.6925
  60   2.0000      -0.419680       -11.4201
  61   2.0000      -0.414351       -11.2751
  62   2.0000      -0.412529       -11.2255
  63   2.0000      -0.357004        -9.7146
  64   2.0000      -0.332677        -9.0526
  65   2.0000      -0.323193        -8.7945
  66   2.0000      -0.287753        -7.8302
  67   0.0000       0.027744         0.7550
  68   0.0000       0.077403         2.1062
  69   0.0000       0.102399         2.7864
  70   0.0000       0.119470         3.2509
  71   0.0000       0.135372         3.6836

MULLIKEN ATOMIC CHARGES
-----------------------
   0 S :    0.103367
   1 C :   -0.149824
   2 C :   -0.055685
   3 C :   -0.007085
   4 C :   -0.068086
   5 H :   -0.023892
   6 C :    0.065376
   7 H :    0.021247
   8 H :    0.040793
   9 C :   -0.044881
  10 H :    0.013630
  11 H :    0.009735
  12 C :   -0.047000
  13 H :    0.024965
  14 H :    0.031563
  15 H :    0.034286
  16 S :    0.098728
  17 C :   -0.103326
  18 C :   -0.065279
  19 C :   -0.069430
  20 C :   -0.144061
  21 H :    0.031383
  22 C :    0.040067
  23 H :    0.061017
  24 H :    0.043218
  25 C :   -0.128383
  26 H :    0.046824
  27 H :    0.042122
  28 C :   -0.030730
  29 H :    0.026604
  30 H :    0.034805
  31 H :    0.034547
  32 H :    0.052826
  33 H :    0.080562
Sum of atomic charges:   -0.0000000

LOEWDIN ATOMIC CHARGES
----------------------
   0 S :    0.386847
   1 C :   -0.182705
   2 C :   -0.059902
   3 C :   -0.062743
   4 C :   -0.190256
   5 H :    0.016603
   6 C :   -0.032432
   7 H :    0.034876
   8 H :    0.039876
   9 C :   -0.042337
  10 H :    0.023352
  11 H :    0.017549
  12 C :   -0.067286
  13 H :    0.022833
  14 H :    0.025397
  15 H :    0.029810
  16 S :    0.427170
  17 C :   -0.216259
  18 C :   -0.082470
  19 C :   -0.059282
  20 C :   -0.201131
  21 H :    0.032856
  22 C :   -0.045077
  23 H :    0.047010
  24 H :    0.038418
  25 C :   -0.042177
  26 H :    0.032595
  27 H :    0.028295
  28 C :   -0.062536
  29 H :    0.014708
  30 H :    0.027250
  31 H :    0.025463
  32 H :    0.028569
  33 H :    0.047117

  Mayer bond orders larger than 0.100000
B(  0-S ,  1-C ) :   1.1196 B(  0-S ,  4-C ) :   1.1408 B(  1-C ,  2-C ) :   1.6152
B(  1-C , 32-H ) :   0.9654 B(  2-C ,  3-C ) :   1.2383 B(  2-C ,  6-C ) :   1.0382
B(  3-C ,  4-C ) :   1.5706 B(  3-C ,  5-H ) :   1.0032 B(  4-C , 20-C ) :   1.0434
B(  6-C ,  7-H ) :   0.9347 B(  6-C ,  8-H ) :   0.9306 B(  6-C ,  9-C ) :   1.0714
B(  9-C , 10-H ) :   0.9495 B(  9-C , 11-H ) :   0.9548 B(  9-C , 12-C ) :   1.0828
B( 12-C , 13-H ) :   0.9740 B( 12-C , 14-H ) :   0.9766 B( 12-C , 15-H ) :   0.9748
B( 16-S , 17-C ) :   1.1648 B( 16-S , 20-C ) :   1.1491 B( 17-C , 18-C ) :   1.6371
B( 17-C , 33-H ) :   0.9497 B( 18-C , 19-C ) :   1.2399 B( 18-C , 21-H ) :   0.9692
B( 19-C , 20-C ) :   1.5857 B( 19-C , 22-C ) :   1.0373 B( 22-C , 23-H ) :   0.9290
B( 22-C , 24-H ) :   0.9322 B( 22-C , 25-C ) :   1.0531 B( 25-C , 26-H ) :   0.9629
B( 25-C , 27-H ) :   0.9567 B( 25-C , 28-C ) :   1.0686 B( 28-C , 29-H ) :   0.9784
B( 28-C , 30-H ) :   0.9767 B( 28-C , 31-H ) :   0.9749

Dispersion correction           -0.013484771
FINAL SINGLE POINT ENERGY     -1339.866478512304

DIPOLE MOMENT
-------------
                                X             Y             Z
Electronic contribution:    -20.22063     -18.86823     -12.92265
Nuclear contribution   :     20.81011      19.29246      13.20086
                        -----------------------------------------
Total Dipole Moment    :      0.58948       0.42423       0.27821
                        -----------------------------------------
Magnitude (a.u.)       :      0.77772
Magnitude (Debye)      :      1.97681

Rotational constants in cm-1:     0.017806     0.008277     0.005861
Rotational constants in MHz :   533.820592   248.132909   175.720943

                             ****ORCA TERMINATED NORMALLY****
TOTAL RUN TIME: 0 days 0 hours 0 minutes 21 seconds 184 msec
