                         Program Version 4.2.1 -  RELEASE  -
|  1> ! wB97X-D3 SP def2-SVP
|  2> %pal
|  3> nprocs 24
|  4> end
|  5>
|  6> * xyz 0 1
|  7> S 	 -124.634 	 63.587 	 -59.4038
|  8> C 	 -126.294 	 63.5763 	 -59.7857
|  9> C 	 -127.059 	 63.3421 	 -58.6408
| 10> C 	 -126.308 	 63.4377 	 -57.4302
| 11> C 	 -124.952 	 63.4604 	 -57.6776
| 12> H 	 -126.667 	 63.3756 	 -56.4295
| 13> C 	 -128.583 	 63.1714 	 -58.7702
| 14> H 	 -128.944 	 63.8132 	 -59.6174
| 15> H 	 -128.934 	 63.5253 	 -57.8191
| 16> C 	 -128.912 	 61.6746 	 -59.1439
| 17> H 	 -130.05 	 61.6178 	 -59.1911
| 18> H 	 -128.437 	 61.3778 	 -60.0724
| 19> C 	 -128.359 	 60.7201 	 -58.1745
| 20> H 	 -128.844 	 60.8236 	 -57.1831
| 21> H 	 -128.585 	 59.7057 	 -58.3909
| 22> H 	 -127.322 	 60.9116 	 -58.0751
| 23> S 	 -122.498 	 64.6723 	 -57.1844
| 24> C 	 -121.835 	 64.6869 	 -55.6437
| 25> C 	 -122.57 	 63.8396 	 -54.7595
| 26> C 	 -123.698 	 63.2328 	 -55.3571
| 27> C 	 -123.841 	 63.6642 	 -56.6626
| 28> H 	 -122.34 	 63.7222 	 -53.6897
| 29> C 	 -124.551 	 62.2467 	 -54.6452
| 30> H 	 -125.547 	 62.7102 	 -54.4264
| 31> H 	 -124.031 	 62.0755 	 -53.6851
| 32> C 	 -124.811 	 60.8462 	 -55.3357
| 33> H 	 -125.027 	 61.0545 	 -56.3612
| 34> H 	 -125.674 	 60.4809 	 -54.7776
| 35> C 	 -123.594 	 59.8862 	 -55.3013
| 36> H 	 -122.844 	 60.1506 	 -55.9684
| 37> H 	 -123.943 	 58.9324 	 -55.6215
| 38> H 	 -123.195 	 59.6625 	 -54.3156
| 39> H 	 -126.743 	 63.6701 	 -60.7345
| 40> H 	 -121.064 	 65.3578 	 -55.4325
| 41> *
| 42>
| 43>                          ****END OF INPUT****

CARTESIAN COORDINATES (ANGSTROEM)
---------------------------------
  S    -124.634000   63.587000  -59.403800
  C    -126.294000   63.576300  -59.785700
  C    -127.059000   63.342100  -58.640800
  C    -126.308000   63.437700  -57.430200
  C    -124.952000   63.460400  -57.677600
  H    -126.667000   63.375600  -56.429500
  C    -128.583000   63.171400  -58.770200
  H    -128.944000   63.813200  -59.617400
  H    -128.934000   63.525300  -57.819100
  C    -128.912000   61.674600  -59.143900
  H    -130.050000   61.617800  -59.191100
  H    -128.437000   61.377800  -60.072400
  C    -128.359000   60.720100  -58.174500
  H    -128.844000   60.823600  -57.183100
  H    -128.585000   59.705700  -58.390900
  H    -127.322000   60.911600  -58.075100
  S    -122.498000   64.672300  -57.184400
  C    -121.835000   64.686900  -55.643700
  C    -122.570000   63.839600  -54.759500
  C    -123.698000   63.232800  -55.357100
  C    -123.841000   63.664200  -56.662600
  H    -122.340000   63.722200  -53.689700
  C    -124.551000   62.246700  -54.645200
  H    -125.547000   62.710200  -54.426400
  H    -124.031000   62.075500  -53.685100
  C    -124.811000   60.846200  -55.335700
  H    -125.027000   61.054500  -56.361200
  H    -125.674000   60.480900  -54.777600
  C    -123.594000   59.886200  -55.301300
  H    -122.844000   60.150600  -55.968400
  H    -123.943000   58.932400  -55.621500
  H    -123.195000   59.662500  -54.315600
  H    -126.743000   63.670100  -60.734500
  H    -121.064000   65.357800  -55.432500

 Total Charge           Charge          ....    0
 Multiplicity           Mult            ....    1
 Number of Electrons    NEL             ....  134
 Basis Dimension        Dim             ....  322

ORBITAL ENERGIES
----------------

  NO   OCC          E(Eh)            E(eV)
   0   2.0000     -88.967490     -2420.9285
   1   2.0000     -88.967310     -2420.9236
   2   2.0000     -10.333781      -281.1965
   3   2.0000     -10.328265      -281.0464
   4   2.0000     -10.313542      -280.6458
   5   2.0000     -10.306566      -280.4559
   6   2.0000     -10.299848      -280.2731
   7   2.0000     -10.299655      -280.2678
   8   2.0000     -10.297688      -280.2143
   9   2.0000     -10.295788      -280.1626
  10   2.0000     -10.295777      -280.1623
  11   2.0000     -10.293912      -280.1116
  12   2.0000     -10.288053      -279.9521
  13   2.0000     -10.286902      -279.9208
  14   2.0000     -10.267494      -279.3927
  15   2.0000     -10.263917      -279.2954
  16   2.0000      -8.083263      -219.9568
  17   2.0000      -8.082582      -219.9382
  18   2.0000      -6.041444      -164.3961
  19   2.0000      -6.041049      -164.3853
  20   2.0000      -6.037511      -164.2890
  21   2.0000      -6.036985      -164.2747
  22   2.0000      -6.034386      -164.2040
  23   2.0000      -6.033439      -164.1782
  24   2.0000      -1.009561       -27.4715
  25   2.0000      -0.990050       -26.9406
  26   2.0000      -0.912356       -24.8265
  27   2.0000      -0.908539       -24.7226
  28   2.0000      -0.862466       -23.4689
  29   2.0000      -0.856511       -23.3068
  30   2.0000      -0.849275       -23.1100
  31   2.0000      -0.812509       -22.1095
  32   2.0000      -0.786884       -21.4122
  33   2.0000      -0.768870       -20.9220
  34   2.0000      -0.709102       -19.2957
  35   2.0000      -0.696569       -18.9546
  36   2.0000      -0.685943       -18.6655
  37   2.0000      -0.668622       -18.1941
  38   2.0000      -0.644103       -17.5269
  39   2.0000      -0.611355       -16.6358
  40   2.0000      -0.594823       -16.1860
  41   2.0000      -0.574434       -15.6311
  42   2.0000      -0.554374       -15.0853
  43   2.0000      -0.550783       -14.9876
  44   2.0000      -0.547585       -14.9005
  45   2.0000      -0.537077       -14.6146
  46   2.0000      -0.518987       -14.1224
  47   2.0000      -0.512004       -13.9323
  48   2.0000      -0.504798       -13.7362
  49   2.0000      -0.497138       -13.5278
  50   2.0000      -0.489083       -13.3086
  51   2.0000      -0.481499       -13.1022
  52   2.0000      -0.475953       -12.9513
  53   2.0000      -0.469002       -12.7622
  54   2.0000      -0.462182       -12.5766
  55   2.0000      -0.447570       -12.1790
  56   2.0000      -0.442326       -12.0363
  57   2.0000      -0.435763       -11.8577
  58   2.0000      -0.435068       -11.8388
  59   2.0000      -0.424400       -11.5485
  60   2.0000      -0.421540       -11.4707
  61   2.0000      -0.416062       -11.3216
  62   2.0000      -0.408413       -11.1135
  63   2.0000      -0.353829        -9.6282
  64   2.0000      -0.333058        -9.0630
  65   2.0000      -0.329128        -8.9560
  66   2.0000      -0.282281        -7.6813
  67   0.0000       0.025069         0.6822
  68   0.0000       0.075937         2.0663
  69   0.0000       0.106968         2.9108
  70   0.0000       0.120574         3.2810
  71   0.0000       0.130548         3.5524

MULLIKEN ATOMIC CHARGES
-----------------------
   0 S :    0.110091
   1 C :   -0.090916
   2 C :   -0.156679
   3 C :    0.035231
   4 C :   -0.131676
   5 H :   -0.002903
   6 C :    0.075256
   7 H :    0.039898
   8 H :    0.020477
   9 C :   -0.069678
  10 H :    0.040046
  11 H :    0.027137
  12 C :   -0.036425
  13 H :    0.012798
  14 H :    0.023325
  15 H :    0.048265
  16 S :    0.121903
  17 C :   -0.079827
  18 C :   -0.047158
  19 C :   -0.037977
  20 C :   -0.161794
  21 H :    0.024272
  22 C :    0.024808
  23 H :    0.045659
  24 H :    0.014720
  25 C :   -0.065980
  26 H :    0.049374
  27 H :    0.030833
  28 C :   -0.008437
  29 H :    0.031756
  30 H :    0.016160
  31 H :    0.021350
  32 H :    0.031616
  33 H :    0.044478
Sum of atomic charges:    0.0000000

LOEWDIN ATOMIC CHARGES
----------------------
   0 S :    0.416816
   1 C :   -0.210909
   2 C :   -0.065319
   3 C :   -0.067978
   4 C :   -0.186176
   5 H :    0.027125
   6 C :   -0.027223
   7 H :    0.036504
   8 H :    0.024605
   9 C :   -0.039998
  10 H :    0.028664
  11 H :    0.024297
  12 C :   -0.065768
  13 H :    0.023699
  14 H :    0.022053
  15 H :    0.023199
  16 S :    0.442498
  17 C :   -0.201043
  18 C :   -0.072381
  19 C :   -0.067835
  20 C :   -0.197509
  21 H :    0.032651
  22 C :   -0.037022
  23 H :    0.034428
  24 H :    0.030390
  25 C :   -0.027452
  26 H :    0.023311
  27 H :    0.026214
  28 C :   -0.056557
  29 H :    0.020773
  30 H :    0.024837
  31 H :    0.023191
  32 H :    0.021341
  33 H :    0.016574

  Mayer bond orders larger than 0.100000
B(  0-S ,  1-C ) :   1.1493 B(  0-S ,  4-C ) :   1.1625 B(  1-C ,  2-C ) :   1.5867
B(  1-C , 32-H ) :   0.9722 B(  2-C ,  3-C ) :   1.2507 B(  2-C ,  6-C ) :   1.0105
B(  3-C ,  4-C ) :   1.5557 B(  3-C ,  5-H ) :   0.9959 B(  4-C , 20-C ) :   1.0245
B(  6-C ,  7-H ) :   0.9478 B(  6-C ,  8-H ) :   0.9459 B(  6-C ,  9-C ) :   1.0535
B(  9-C , 10-H ) :   0.9565 B(  9-C , 11-H ) :   0.9560 B(  9-C , 12-C ) :   1.0887
B( 12-C , 13-H ) :   0.9694 B( 12-C , 14-H ) :   0.9675 B( 12-C , 15-H ) :   0.9686
B( 16-S , 17-C ) :   1.2034 B( 16-S , 20-C ) :   1.1659 B( 17-C , 18-C ) :   1.5225
B( 17-C , 20-C ) :   0.1039 B( 17-C , 33-H ) :   0.9808 B( 18-C , 19-C ) :   1.3000
B( 18-C , 21-H ) :   0.9857 B( 19-C , 20-C ) :   1.5505 B( 19-C , 22-C ) :   1.0432
B( 22-C , 23-H ) :   0.9291 B( 22-C , 24-H ) :   0.9313 B( 22-C , 25-C ) :   1.0623
B( 25-C , 26-H ) :   0.9535 B( 25-C , 27-H ) :   0.9568 B( 25-C , 28-C ) :   1.0806
B( 28-C , 29-H ) :   0.9765 B( 28-C , 30-H ) :   0.9704 B( 28-C , 31-H ) :   0.9750

Dispersion correction           -0.015608483
FINAL SINGLE POINT ENERGY     -1339.875698039276

DIPOLE MOMENT
-------------
                                X             Y             Z
Electronic contribution:     17.38509      19.62252      -8.45290
Nuclear contribution   :    -17.76422     -19.83866       8.77255
                        -----------------------------------------
Total Dipole Moment    :     -0.37913      -0.21615       0.31966
                        -----------------------------------------
Magnitude (a.u.)       :      0.54096
Magnitude (Debye)      :      1.37502

Rotational constants in cm-1:     0.020206     0.009776     0.007429
Rotational constants in MHz :   605.755861   293.088079   222.710255

                             ****ORCA TERMINATED NORMALLY****
TOTAL RUN TIME: 0 days 0 hours 0 minutes 21 seconds 766 msec
