                         Program Version 4.2.1 -  RELEASE  -
|  1> ! wB97X-D3 SP def2-SVP
|  2> %pal
|  3> nprocs 24
|  4> end
|  5>
|  6> * xyz 0 1
|  7> S 	 -46.3189 	 -7.01631 	 -16.5308
|  8> C 	 -46.6811 	 -8.34767 	 -17.569
|  9> C 	 -47.7734 	 -8.0862 	 -18.3629
| 10> C 	 -48.1584 	 -6.68799 	 -18.3642
| 11> C 	 -47.2876 	 -5.93295 	 -17.5613
| 12> H 	 -48.948 	 -6.16563 	 -18.8778
| 13> C 	 -48.4295 	 -9.06877 	 -19.3197
| 14> H 	 -47.6455 	 -9.76309 	 -19.5951
| 15> H 	 -48.5997 	 -8.42026 	 -20.1754
| 16> C 	 -49.7374 	 -9.74335 	 -18.7809
| 17> H 	 -49.6265 	 -10.5041 	 -17.9745
| 18> H 	 -50.4539 	 -9.07205 	 -18.4154
| 19> C 	 -50.5441 	 -10.4913 	 -19.7627
| 20> H 	 -49.8325 	 -10.9939 	 -20.3329
| 21> H 	 -51.2062 	 -11.1925 	 -19.276
| 22> H 	 -51.0639 	 -9.72238 	 -20.4144
| 23> S 	 -46.5698 	 -3.74698 	 -18.8378
| 24> C 	 -46.4782 	 -2.25632 	 -18.0447
| 25> C 	 -46.8209 	 -2.38186 	 -16.6662
| 26> C 	 -46.9846 	 -3.74104 	 -16.2798
| 27> C 	 -47.2208 	 -4.51445 	 -17.3832
| 28> H 	 -46.7617 	 -1.52611 	 -16.0223
| 29> C 	 -47.3176 	 -4.18554 	 -14.8519
| 30> H 	 -46.4026 	 -4.60451 	 -14.4655
| 31> H 	 -48.0302 	 -5.01541 	 -14.9562
| 32> C 	 -47.9082 	 -3.20328 	 -13.8124
| 33> H 	 -48.9824 	 -3.13395 	 -13.8766
| 34> H 	 -47.5832 	 -2.24039 	 -14.047
| 35> C 	 -47.6665 	 -3.51862 	 -12.3013
| 36> H 	 -46.6627 	 -3.62835 	 -11.9786
| 37> H 	 -48.1395 	 -4.45848 	 -12.028
| 38> H 	 -48.1386 	 -2.81043 	 -11.5627
| 39> H 	 -46.2075 	 -9.34965 	 -17.4017
| 40> H 	 -46.319 	 -1.31055 	 -18.547
| 41> *
| 42>
| 43>                          ****END OF INPUT****

CARTESIAN COORDINATES (ANGSTROEM)
---------------------------------
  S    -46.318900   -7.016310  -16.530800
  C    -46.681100   -8.347670  -17.569000
  C    -47.773400   -8.086200  -18.362900
  C    -48.158400   -6.687990  -18.364200
  C    -47.287600   -5.932950  -17.561300
  H    -48.948000   -6.165630  -18.877800
  C    -48.429500   -9.068770  -19.319700
  H    -47.645500   -9.763090  -19.595100
  H    -48.599700   -8.420260  -20.175400
  C    -49.737400   -9.743350  -18.780900
  H    -49.626500  -10.504100  -17.974500
  H    -50.453900   -9.072050  -18.415400
  C    -50.544100  -10.491300  -19.762700
  H    -49.832500  -10.993900  -20.332900
  H    -51.206200  -11.192500  -19.276000
  H    -51.063900   -9.722380  -20.414400
  S    -46.569800   -3.746980  -18.837800
  C    -46.478200   -2.256320  -18.044700
  C    -46.820900   -2.381860  -16.666200
  C    -46.984600   -3.741040  -16.279800
  C    -47.220800   -4.514450  -17.383200
  H    -46.761700   -1.526110  -16.022300
  C    -47.317600   -4.185540  -14.851900
  H    -46.402600   -4.604510  -14.465500
  H    -48.030200   -5.015410  -14.956200
  C    -47.908200   -3.203280  -13.812400
  H    -48.982400   -3.133950  -13.876600
  H    -47.583200   -2.240390  -14.047000
  C    -47.666500   -3.518620  -12.301300
  H    -46.662700   -3.628350  -11.978600
  H    -48.139500   -4.458480  -12.028000
  H    -48.138600   -2.810430  -11.562700
  H    -46.207500   -9.349650  -17.401700
  H    -46.319000   -1.310550  -18.547000

 Total Charge           Charge          ....    0
 Multiplicity           Mult            ....    1
 Number of Electrons    NEL             ....  134
 Basis Dimension        Dim             ....  322

ORBITAL ENERGIES
----------------

  NO   OCC          E(Eh)            E(eV)
   0   2.0000     -88.964463     -2420.8461
   1   2.0000     -88.960370     -2420.7347
   2   2.0000     -10.327972      -281.0384
   3   2.0000     -10.318828      -280.7896
   4   2.0000     -10.315811      -280.7075
   5   2.0000     -10.313506      -280.6448
   6   2.0000     -10.304919      -280.4111
   7   2.0000     -10.301823      -280.3268
   8   2.0000     -10.297596      -280.2118
   9   2.0000     -10.295261      -280.1483
  10   2.0000     -10.294476      -280.1269
  11   2.0000     -10.293737      -280.1068
  12   2.0000     -10.286089      -279.8987
  13   2.0000     -10.280452      -279.7453
  14   2.0000     -10.279504      -279.7195
  15   2.0000     -10.269788      -279.4552
  16   2.0000      -8.080115      -219.8711
  17   2.0000      -8.075271      -219.7393
  18   2.0000      -6.038516      -164.3164
  19   2.0000      -6.034427      -164.2051
  20   2.0000      -6.033793      -164.1878
  21   2.0000      -6.030971      -164.1111
  22   2.0000      -6.029986      -164.0843
  23   2.0000      -6.025785      -163.9699
  24   2.0000      -1.010085       -27.4858
  25   2.0000      -0.983407       -26.7599
  26   2.0000      -0.913315       -24.8526
  27   2.0000      -0.906090       -24.6560
  28   2.0000      -0.873573       -23.7711
  29   2.0000      -0.854507       -23.2523
  30   2.0000      -0.851631       -23.1741
  31   2.0000      -0.810170       -22.0458
  32   2.0000      -0.785315       -21.3695
  33   2.0000      -0.766552       -20.8589
  34   2.0000      -0.714344       -19.4383
  35   2.0000      -0.696856       -18.9624
  36   2.0000      -0.691360       -18.8129
  37   2.0000      -0.661695       -18.0056
  38   2.0000      -0.640553       -17.4303
  39   2.0000      -0.612490       -16.6667
  40   2.0000      -0.597243       -16.2518
  41   2.0000      -0.568874       -15.4799
  42   2.0000      -0.563326       -15.3289
  43   2.0000      -0.558400       -15.1948
  44   2.0000      -0.537056       -14.6140
  45   2.0000      -0.522571       -14.2199
  46   2.0000      -0.520208       -14.1556
  47   2.0000      -0.514150       -13.9907
  48   2.0000      -0.508640       -13.8408
  49   2.0000      -0.501437       -13.6448
  50   2.0000      -0.490487       -13.3468
  51   2.0000      -0.477606       -12.9963
  52   2.0000      -0.468208       -12.7406
  53   2.0000      -0.462733       -12.5916
  54   2.0000      -0.457659       -12.4535
  55   2.0000      -0.453588       -12.3427
  56   2.0000      -0.447118       -12.1667
  57   2.0000      -0.435788       -11.8584
  58   2.0000      -0.427796       -11.6409
  59   2.0000      -0.422219       -11.4892
  60   2.0000      -0.418164       -11.3788
  61   2.0000      -0.417314       -11.3557
  62   2.0000      -0.412688       -11.2298
  63   2.0000      -0.342208        -9.3120
  64   2.0000      -0.332819        -9.0565
  65   2.0000      -0.324173        -8.8212
  66   2.0000      -0.287421        -7.8211
  67   0.0000       0.026868         0.7311
  68   0.0000       0.064542         1.7563
  69   0.0000       0.099178         2.6988
  70   0.0000       0.112850         3.0708
  71   0.0000       0.133545         3.6339

MULLIKEN ATOMIC CHARGES
-----------------------
   0 S :    0.098719
   1 C :   -0.132045
   2 C :   -0.084310
   3 C :    0.028284
   4 C :   -0.159194
   5 H :    0.015907
   6 C :    0.080409
   7 H :    0.023305
   8 H :    0.025003
   9 C :   -0.061983
  10 H :    0.026312
  11 H :    0.010911
  12 C :   -0.026590
  13 H :    0.007880
  14 H :    0.036363
  15 H :    0.032447
  16 S :    0.117392
  17 C :   -0.088758
  18 C :   -0.042192
  19 C :   -0.045677
  20 C :   -0.156180
  21 H :    0.016755
  22 C :    0.051438
  23 H :    0.034809
  24 H :    0.041702
  25 C :   -0.025464
  26 H :    0.028866
  27 H :    0.008504
  28 C :   -0.077240
  29 H :    0.026443
  30 H :    0.025713
  31 H :    0.038325
  32 H :    0.065366
  33 H :    0.058780
Sum of atomic charges:   -0.0000000

LOEWDIN ATOMIC CHARGES
----------------------
   0 S :    0.393500
   1 C :   -0.209244
   2 C :   -0.064133
   3 C :   -0.060948
   4 C :   -0.185839
   5 H :    0.032586
   6 C :   -0.026944
   7 H :    0.031247
   8 H :    0.032844
   9 C :   -0.044544
  10 H :    0.029241
  11 H :    0.016652
  12 C :   -0.058279
  13 H :    0.012370
  14 H :    0.026792
  15 H :    0.028377
  16 S :    0.438568
  17 C :   -0.203046
  18 C :   -0.070926
  19 C :   -0.052703
  20 C :   -0.202253
  21 H :    0.025508
  22 C :   -0.033139
  23 H :    0.031048
  24 H :    0.034059
  25 C :   -0.032848
  26 H :    0.028225
  27 H :    0.011415
  28 C :   -0.068428
  29 H :    0.016631
  30 H :    0.024424
  31 H :    0.034886
  32 H :    0.037190
  33 H :    0.027708

  Mayer bond orders larger than 0.100000
B(  0-S ,  1-C ) :   1.1362 B(  0-S ,  4-C ) :   1.1327 B(  1-C ,  2-C ) :   1.6278
B(  1-C , 32-H ) :   0.9633 B(  2-C ,  3-C ) :   1.2010 B(  2-C ,  6-C ) :   1.0174
B(  3-C ,  4-C ) :   1.5698 B(  3-C ,  5-H ) :   1.0014 B(  4-C , 20-C ) :   1.0553
B(  6-C ,  7-H ) :   0.9395 B(  6-C ,  8-H ) :   0.9469 B(  6-C ,  9-C ) :   1.0528
B(  9-C , 10-H ) :   0.9573 B(  9-C , 11-H ) :   0.9612 B(  9-C , 12-C ) :   1.0835
B( 12-C , 13-H ) :   0.9719 B( 12-C , 14-H ) :   0.9752 B( 12-C , 15-H ) :   0.9776
B( 16-S , 17-C ) :   1.1941 B( 16-S , 20-C ) :   1.1517 B( 17-C , 18-C ) :   1.5681
B( 17-C , 20-C ) :   0.1060 B( 17-C , 33-H ) :   0.9652 B( 18-C , 19-C ) :   1.2544
B( 18-C , 21-H ) :   0.9884 B( 19-C , 20-C ) :   1.5726 B( 19-C , 22-C ) :   1.0220
B( 22-C , 23-H ) :   0.9272 B( 22-C , 24-H ) :   0.9477 B( 22-C , 25-C ) :   1.0612
B( 25-C , 26-H ) :   0.9546 B( 25-C , 27-H ) :   0.9563 B( 25-C , 28-C ) :   1.0776
B( 28-C , 29-H ) :   0.9792 B( 28-C , 30-H ) :   0.9768 B( 28-C , 31-H ) :   0.9752

Dispersion correction           -0.013321328
FINAL SINGLE POINT ENERGY     -1339.843672074532

DIPOLE MOMENT
-------------
                                X             Y             Z
Electronic contribution:     14.68385       9.27011      -8.93846
Nuclear contribution   :    -14.95651      -9.33195       9.11282
                        -----------------------------------------
Total Dipole Moment    :     -0.27266      -0.06184       0.17436
                        -----------------------------------------
Magnitude (a.u.)       :      0.32950
Magnitude (Debye)      :      0.83753

Rotational constants in cm-1:     0.020490     0.007092     0.006024
Rotational constants in MHz :   614.284205   212.601128   180.582000

                             ****ORCA TERMINATED NORMALLY****
TOTAL RUN TIME: 0 days 0 hours 0 minutes 21 seconds 726 msec
