                         Program Version 4.2.1 -  RELEASE  -
|  1> ! wB97X-D3 SP def2-SVP
|  2> %pal
|  3> nprocs 24
|  4> end
|  5>
|  6> * xyz 0 1
|  7> S 	 -59.0392 	 17.1398 	 -93.3663
|  8> C 	 -57.3808 	 17.3351 	 -92.9783
|  9> C 	 -56.5771 	 16.4921 	 -93.8125
| 10> C 	 -57.3737 	 15.715 	 -94.7143
| 11> C 	 -58.7467 	 15.9805 	 -94.6488
| 12> H 	 -57.0202 	 14.9473 	 -95.4656
| 13> C 	 -55.0317 	 16.4979 	 -93.8453
| 14> H 	 -54.7603 	 15.786 	 -94.6158
| 15> H 	 -54.6222 	 16.146 	 -92.9176
| 16> C 	 -54.4315 	 17.8389 	 -94.2174
| 17> H 	 -54.8734 	 18.6858 	 -93.6081
| 18> H 	 -53.3934 	 17.6911 	 -93.8607
| 19> C 	 -54.4208 	 18.0742 	 -95.7296
| 20> H 	 -54.1618 	 19.1599 	 -95.9409
| 21> H 	 -53.6836 	 17.4856 	 -96.3322
| 22> H 	 -55.4383 	 17.9268 	 -96.1808
| 23> S 	 -61.2091 	 16.2012 	 -95.7683
| 24> C 	 -62.2187 	 14.8174 	 -96.1988
| 25> C 	 -61.5279 	 13.6775 	 -95.9655
| 26> C 	 -60.2378 	 13.852 	 -95.447
| 27> C 	 -59.8993 	 15.2494 	 -95.2031
| 28> H 	 -62.0135 	 12.6864 	 -96.1912
| 29> C 	 -59.323 	 12.6721 	 -95.0296
| 30> H 	 -58.2812 	 12.9003 	 -94.8783
| 31> H 	 -59.4576 	 11.9653 	 -95.842
| 32> C 	 -59.7971 	 11.9764 	 -93.7716
| 33> H 	 -60.8627 	 12.0752 	 -93.6428
| 34> H 	 -59.2914 	 12.4472 	 -92.9817
| 35> C 	 -59.4891 	 10.494 	 -93.7559
| 36> H 	 -59.8853 	 9.99935 	 -94.6184
| 37> H 	 -59.9842 	 10.0189 	 -92.8612
| 38> H 	 -58.4666 	 10.3318 	 -93.8459
| 39> H 	 -56.9938 	 17.8159 	 -92.0794
| 40> H 	 -63.206 	 14.9634 	 -96.558
| 41> *
| 42>
| 43>                          ****END OF INPUT****

CARTESIAN COORDINATES (ANGSTROEM)
---------------------------------
  S    -59.039200   17.139800  -93.366300
  C    -57.380800   17.335100  -92.978300
  C    -56.577100   16.492100  -93.812500
  C    -57.373700   15.715000  -94.714300
  C    -58.746700   15.980500  -94.648800
  H    -57.020200   14.947300  -95.465600
  C    -55.031700   16.497900  -93.845300
  H    -54.760300   15.786000  -94.615800
  H    -54.622200   16.146000  -92.917600
  C    -54.431500   17.838900  -94.217400
  H    -54.873400   18.685800  -93.608100
  H    -53.393400   17.691100  -93.860700
  C    -54.420800   18.074200  -95.729600
  H    -54.161800   19.159900  -95.940900
  H    -53.683600   17.485600  -96.332200
  H    -55.438300   17.926800  -96.180800
  S    -61.209100   16.201200  -95.768300
  C    -62.218700   14.817400  -96.198800
  C    -61.527900   13.677500  -95.965500
  C    -60.237800   13.852000  -95.447000
  C    -59.899300   15.249400  -95.203100
  H    -62.013500   12.686400  -96.191200
  C    -59.323000   12.672100  -95.029600
  H    -58.281200   12.900300  -94.878300
  H    -59.457600   11.965300  -95.842000
  C    -59.797100   11.976400  -93.771600
  H    -60.862700   12.075200  -93.642800
  H    -59.291400   12.447200  -92.981700
  C    -59.489100   10.494000  -93.755900
  H    -59.885300    9.999350  -94.618400
  H    -59.984200   10.018900  -92.861200
  H    -58.466600   10.331800  -93.845900
  H    -56.993800   17.815900  -92.079400
  H    -63.206000   14.963400  -96.558000

 Total Charge           Charge          ....    0
 Multiplicity           Mult            ....    1
 Number of Electrons    NEL             ....  134
 Basis Dimension        Dim             ....  322

ORBITAL ENERGIES
----------------

  NO   OCC          E(Eh)            E(eV)
   0   2.0000     -88.969522     -2420.9838
   1   2.0000     -88.962391     -2420.7897
   2   2.0000     -10.334414      -281.2137
   3   2.0000     -10.332987      -281.1749
   4   2.0000     -10.318961      -280.7932
   5   2.0000     -10.314590      -280.6743
   6   2.0000     -10.309814      -280.5443
   7   2.0000     -10.308490      -280.5083
   8   2.0000     -10.303862      -280.3823
   9   2.0000     -10.297226      -280.2018
  10   2.0000     -10.291952      -280.0583
  11   2.0000     -10.290818      -280.0274
  12   2.0000     -10.287273      -279.9309
  13   2.0000     -10.286345      -279.9057
  14   2.0000     -10.271013      -279.4885
  15   2.0000     -10.270216      -279.4668
  16   2.0000      -8.084459      -219.9893
  17   2.0000      -8.077669      -219.8046
  18   2.0000      -6.042792      -164.4327
  19   2.0000      -6.038692      -164.3212
  20   2.0000      -6.036020      -164.2484
  21   2.0000      -6.035597      -164.2369
  22   2.0000      -6.031879      -164.1358
  23   2.0000      -6.028783      -164.0515
  24   2.0000      -1.006271       -27.3820
  25   2.0000      -0.984861       -26.7994
  26   2.0000      -0.914178       -24.8760
  27   2.0000      -0.911820       -24.8119
  28   2.0000      -0.870154       -23.6781
  29   2.0000      -0.848901       -23.0998
  30   2.0000      -0.842417       -22.9233
  31   2.0000      -0.813619       -22.1397
  32   2.0000      -0.780333       -21.2339
  33   2.0000      -0.769069       -20.9274
  34   2.0000      -0.702803       -19.1243
  35   2.0000      -0.698581       -19.0094
  36   2.0000      -0.691650       -18.8207
  37   2.0000      -0.658452       -17.9174
  38   2.0000      -0.638698       -17.3799
  39   2.0000      -0.615845       -16.7580
  40   2.0000      -0.601395       -16.3648
  41   2.0000      -0.572983       -15.5917
  42   2.0000      -0.564181       -15.3521
  43   2.0000      -0.552408       -15.0318
  44   2.0000      -0.538597       -14.6560
  45   2.0000      -0.530365       -14.4320
  46   2.0000      -0.517352       -14.0779
  47   2.0000      -0.508249       -13.8302
  48   2.0000      -0.505603       -13.7582
  49   2.0000      -0.494490       -13.4558
  50   2.0000      -0.488753       -13.2996
  51   2.0000      -0.481667       -13.1068
  52   2.0000      -0.473550       -12.8859
  53   2.0000      -0.468104       -12.7378
  54   2.0000      -0.460478       -12.5302
  55   2.0000      -0.445029       -12.1098
  56   2.0000      -0.439004       -11.9459
  57   2.0000      -0.432139       -11.7591
  58   2.0000      -0.431240       -11.7346
  59   2.0000      -0.426715       -11.6115
  60   2.0000      -0.424897       -11.5620
  61   2.0000      -0.410543       -11.1714
  62   2.0000      -0.406184       -11.0528
  63   2.0000      -0.353653        -9.6234
  64   2.0000      -0.334659        -9.1065
  65   2.0000      -0.327122        -8.9014
  66   2.0000      -0.284376        -7.7383
  67   0.0000       0.024385         0.6635
  68   0.0000       0.066139         1.7997
  69   0.0000       0.116473         3.1694
  70   0.0000       0.119508         3.2520
  71   0.0000       0.135147         3.6775

MULLIKEN ATOMIC CHARGES
-----------------------
   0 S :    0.125847
   1 C :   -0.116526
   2 C :   -0.134679
   3 C :    0.004858
   4 C :   -0.135894
   5 H :    0.044155
   6 C :    0.079594
   7 H :    0.012625
   8 H :    0.029346
   9 C :   -0.076289
  10 H :    0.046528
  11 H :    0.029159
  12 C :   -0.093633
  13 H :    0.039533
  14 H :    0.042691
  15 H :    0.049991
  16 S :    0.091018
  17 C :   -0.091907
  18 C :   -0.043693
  19 C :   -0.041195
  20 C :   -0.162159
  21 H :    0.039947
  22 C :    0.076218
  23 H :    0.019433
  24 H :    0.012377
  25 C :   -0.041305
  26 H :    0.023443
  27 H :    0.020687
  28 C :   -0.038467
  29 H :    0.013229
  30 H :    0.044683
  31 H :    0.014713
  32 H :    0.064721
  33 H :    0.050951
Sum of atomic charges:    0.0000000

LOEWDIN ATOMIC CHARGES
----------------------
   0 S :    0.438152
   1 C :   -0.218686
   2 C :   -0.063278
   3 C :   -0.075805
   4 C :   -0.205133
   5 H :    0.042868
   6 C :   -0.030237
   7 H :    0.028795
   8 H :    0.027367
   9 C :   -0.047806
  10 H :    0.031088
  11 H :    0.027714
  12 C :   -0.079512
  13 H :    0.032573
  14 H :    0.029247
  15 H :    0.031661
  16 S :    0.418152
  17 C :   -0.178320
  18 C :   -0.080448
  19 C :   -0.056323
  20 C :   -0.215141
  21 H :    0.044232
  22 C :   -0.026672
  23 H :    0.026676
  24 H :    0.026522
  25 C :   -0.035255
  26 H :    0.021560
  27 H :    0.020087
  28 C :   -0.059680
  29 H :    0.018034
  30 H :    0.035491
  31 H :    0.014074
  32 H :    0.033789
  33 H :    0.024214

  Mayer bond orders larger than 0.100000
B(  0-S ,  1-C ) :   1.1756 B(  0-S ,  4-C ) :   1.1778 B(  1-C ,  2-C ) :   1.5443
B(  1-C ,  4-C ) :   0.1116 B(  1-C , 32-H ) :   0.9675 B(  2-C ,  3-C ) :   1.2907
B(  2-C ,  6-C ) :   1.0181 B(  3-C ,  4-C ) :   1.5427 B(  3-C ,  5-H ) :   0.9804
B(  4-C , 20-C ) :   1.0253 B(  6-C ,  7-H ) :   0.9428 B(  6-C ,  8-H ) :   0.9395
B(  6-C ,  9-C ) :   1.0694 B(  9-C , 10-H ) :   0.9583 B(  9-C , 11-H ) :   0.9529
B(  9-C , 12-C ) :   1.0714 B( 12-C , 13-H ) :   0.9733 B( 12-C , 14-H ) :   0.9730
B( 12-C , 15-H ) :   0.9773 B( 16-S , 17-C ) :   1.1626 B( 16-S , 20-C ) :   1.1791
B( 17-C , 18-C ) :   1.5643 B( 17-C , 20-C ) :   0.1124 B( 17-C , 33-H ) :   0.9780
B( 18-C , 19-C ) :   1.2944 B( 18-C , 21-H ) :   0.9802 B( 19-C , 20-C ) :   1.5120
B( 19-C , 22-C ) :   1.0391 B( 22-C , 23-H ) :   0.9423 B( 22-C , 24-H ) :   0.9365
B( 22-C , 25-C ) :   1.0607 B( 25-C , 26-H ) :   0.9608 B( 25-C , 27-H ) :   0.9534
B( 25-C , 28-C ) :   1.0844 B( 28-C , 29-H ) :   0.9733 B( 28-C , 30-H ) :   0.9731
B( 28-C , 31-H ) :   0.9743

Dispersion correction           -0.013828996
FINAL SINGLE POINT ENERGY     -1339.874774592583

DIPOLE MOMENT
-------------
                                X             Y             Z
Electronic contribution:    -19.10113      13.43969      -0.82660
Nuclear contribution   :     19.49174     -13.90299       0.92820
                        -----------------------------------------
Total Dipole Moment    :      0.39061      -0.46330       0.10160
                        -----------------------------------------
Magnitude (a.u.)       :      0.61444
Magnitude (Debye)      :      1.56179

Rotational constants in cm-1:     0.019422     0.007896     0.006530
Rotational constants in MHz :   582.261645   236.718522   195.752793

                             ****ORCA TERMINATED NORMALLY****
TOTAL RUN TIME: 0 days 0 hours 0 minutes 20 seconds 987 msec
