                         Program Version 4.2.1 -  RELEASE  -
|  1> ! wB97X-D3 SP def2-SVP
|  2> %pal
|  3> nprocs 24
|  4> end
|  5>
|  6> * xyz 0 1
|  7> S 	 -59.2155 	 17.5773 	 19.2036
|  8> C 	 -60.3973 	 16.7496 	 20.1311
|  9> C 	 -61.6323 	 17.3907 	 20.2288
| 10> C 	 -61.4536 	 18.7561 	 19.6787
| 11> C 	 -60.25 	 19.027 	 19.1165
| 12> H 	 -62.2624 	 19.5217 	 19.767
| 13> C 	 -62.97 	 16.8893 	 20.8308
| 14> H 	 -63.5778 	 16.3141 	 20.0894
| 15> H 	 -63.5672 	 17.8144 	 21.0816
| 16> C 	 -62.7632 	 16.2217 	 22.228
| 17> H 	 -61.8476 	 15.6446 	 22.3629
| 18> H 	 -62.7169 	 17.0945 	 22.9266
| 19> C 	 -63.9445 	 15.3893 	 22.6527
| 20> H 	 -63.8532 	 14.9964 	 23.7245
| 21> H 	 -64.9264 	 15.8839 	 22.7174
| 22> H 	 -63.9507 	 14.5537 	 21.965
| 23> S 	 -58.7093 	 20.1804 	 17.1233
| 24> C 	 -58.3 	 21.8761 	 17.1556
| 25> C 	 -59.0356 	 22.4792 	 18.1888
| 26> C 	 -59.7392 	 21.5286 	 19.0686
| 27> C 	 -59.7124 	 20.2573 	 18.5725
| 28> H 	 -59.0237 	 23.5052 	 18.2556
| 29> C 	 -60.4364 	 22.0247 	 20.331
| 30> H 	 -61.3251 	 21.4653 	 20.4665
| 31> H 	 -60.849 	 23.0026 	 20.222
| 32> C 	 -59.3682 	 22.0965 	 21.4917
| 33> H 	 -58.6478 	 22.8389 	 21.2517
| 34> H 	 -58.9264 	 21.1017 	 21.7251
| 35> C 	 -59.9966 	 22.5879 	 22.8166
| 36> H 	 -60.5901 	 23.4983 	 22.6704
| 37> H 	 -59.1625 	 22.7873 	 23.5151
| 38> H 	 -60.6924 	 21.9379 	 23.3388
| 39> H 	 -60.2593 	 15.7602 	 20.5285
| 40> H 	 -57.7654 	 22.5408 	 16.473
| 41> *
| 42>
| 43>                          ****END OF INPUT****

CARTESIAN COORDINATES (ANGSTROEM)
---------------------------------
  S    -59.215500   17.577300   19.203600
  C    -60.397300   16.749600   20.131100
  C    -61.632300   17.390700   20.228800
  C    -61.453600   18.756100   19.678700
  C    -60.250000   19.027000   19.116500
  H    -62.262400   19.521700   19.767000
  C    -62.970000   16.889300   20.830800
  H    -63.577800   16.314100   20.089400
  H    -63.567200   17.814400   21.081600
  C    -62.763200   16.221700   22.228000
  H    -61.847600   15.644600   22.362900
  H    -62.716900   17.094500   22.926600
  C    -63.944500   15.389300   22.652700
  H    -63.853200   14.996400   23.724500
  H    -64.926400   15.883900   22.717400
  H    -63.950700   14.553700   21.965000
  S    -58.709300   20.180400   17.123300
  C    -58.300000   21.876100   17.155600
  C    -59.035600   22.479200   18.188800
  C    -59.739200   21.528600   19.068600
  C    -59.712400   20.257300   18.572500
  H    -59.023700   23.505200   18.255600
  C    -60.436400   22.024700   20.331000
  H    -61.325100   21.465300   20.466500
  H    -60.849000   23.002600   20.222000
  C    -59.368200   22.096500   21.491700
  H    -58.647800   22.838900   21.251700
  H    -58.926400   21.101700   21.725100
  C    -59.996600   22.587900   22.816600
  H    -60.590100   23.498300   22.670400
  H    -59.162500   22.787300   23.515100
  H    -60.692400   21.937900   23.338800
  H    -60.259300   15.760200   20.528500
  H    -57.765400   22.540800   16.473000

 Total Charge           Charge          ....    0
 Multiplicity           Mult            ....    1
 Number of Electrons    NEL             ....  134
 Basis Dimension        Dim             ....  322

ORBITAL ENERGIES
----------------

  NO   OCC          E(Eh)            E(eV)
   0   2.0000     -88.965405     -2420.8717
   1   2.0000     -88.964780     -2420.8547
   2   2.0000     -10.329197      -281.0717
   3   2.0000     -10.326095      -280.9873
   4   2.0000     -10.319809      -280.8163
   5   2.0000     -10.314357      -280.6679
   6   2.0000     -10.309215      -280.5280
   7   2.0000     -10.308856      -280.5182
   8   2.0000     -10.304206      -280.3917
   9   2.0000     -10.300698      -280.2962
  10   2.0000     -10.293472      -280.0996
  11   2.0000     -10.291344      -280.0417
  12   2.0000     -10.289650      -279.9956
  13   2.0000     -10.289372      -279.9880
  14   2.0000     -10.283919      -279.8397
  15   2.0000     -10.276763      -279.6449
  16   2.0000      -8.080371      -219.8781
  17   2.0000      -8.079146      -219.8447
  18   2.0000      -6.038951      -164.3282
  19   2.0000      -6.037890      -164.2993
  20   2.0000      -6.034942      -164.2191
  21   2.0000      -6.033635      -164.1836
  22   2.0000      -6.030932      -164.1100
  23   2.0000      -6.029729      -164.0773
  24   2.0000      -1.004461       -27.3328
  25   2.0000      -0.979955       -26.6659
  26   2.0000      -0.909305       -24.7435
  27   2.0000      -0.903782       -24.5931
  28   2.0000      -0.870792       -23.6955
  29   2.0000      -0.849946       -23.1282
  30   2.0000      -0.841967       -22.9111
  31   2.0000      -0.815038       -22.1783
  32   2.0000      -0.779909       -21.2224
  33   2.0000      -0.770434       -20.9646
  34   2.0000      -0.704021       -19.1574
  35   2.0000      -0.700430       -19.0597
  36   2.0000      -0.692805       -18.8522
  37   2.0000      -0.665092       -18.0981
  38   2.0000      -0.638885       -17.3849
  39   2.0000      -0.616187       -16.7673
  40   2.0000      -0.588828       -16.0228
  41   2.0000      -0.574999       -15.6465
  42   2.0000      -0.566061       -15.4033
  43   2.0000      -0.560182       -15.2433
  44   2.0000      -0.529793       -14.4164
  45   2.0000      -0.522063       -14.2060
  46   2.0000      -0.518686       -14.1142
  47   2.0000      -0.511404       -13.9160
  48   2.0000      -0.504076       -13.7166
  49   2.0000      -0.499658       -13.5964
  50   2.0000      -0.492508       -13.4018
  51   2.0000      -0.480923       -13.0866
  52   2.0000      -0.470282       -12.7970
  53   2.0000      -0.459948       -12.5158
  54   2.0000      -0.458915       -12.4877
  55   2.0000      -0.449640       -12.2353
  56   2.0000      -0.440543       -11.9878
  57   2.0000      -0.435204       -11.8425
  58   2.0000      -0.428531       -11.6609
  59   2.0000      -0.423279       -11.5180
  60   2.0000      -0.420037       -11.4298
  61   2.0000      -0.416766       -11.3408
  62   2.0000      -0.411610       -11.2005
  63   2.0000      -0.354759        -9.6535
  64   2.0000      -0.328515        -8.9394
  65   2.0000      -0.324751        -8.8369
  66   2.0000      -0.291539        -7.9332
  67   0.0000       0.033163         0.9024
  68   0.0000       0.069165         1.8821
  69   0.0000       0.106937         2.9099
  70   0.0000       0.117552         3.1988
  71   0.0000       0.133142         3.6230

MULLIKEN ATOMIC CHARGES
-----------------------
   0 S :    0.116705
   1 C :   -0.120809
   2 C :   -0.091473
   3 C :   -0.006431
   4 C :   -0.126510
   5 H :    0.029092
   6 C :    0.036260
   7 H :    0.060060
   8 H :    0.035483
   9 C :   -0.094381
  10 H :    0.041144
  11 H :    0.036396
  12 C :   -0.073692
  13 H :    0.039870
  14 H :    0.035502
  15 H :    0.034265
  16 S :    0.099744
  17 C :   -0.084806
  18 C :   -0.025245
  19 C :   -0.059828
  20 C :   -0.137154
  21 H :   -0.010943
  22 C :    0.118064
  23 H :   -0.005542
  24 H :    0.004645
  25 C :   -0.067396
  26 H :    0.030980
  27 H :    0.053023
  28 C :   -0.060225
  29 H :    0.020113
  30 H :    0.037695
  31 H :    0.029279
  32 H :    0.042602
  33 H :    0.063515
Sum of atomic charges:   -0.0000000

LOEWDIN ATOMIC CHARGES
----------------------
   0 S :    0.403115
   1 C :   -0.199519
   2 C :   -0.064164
   3 C :   -0.062937
   4 C :   -0.186426
   5 H :    0.033797
   6 C :   -0.034604
   7 H :    0.036160
   8 H :    0.038169
   9 C :   -0.045645
  10 H :    0.023361
  11 H :    0.030191
  12 C :   -0.075008
  13 H :    0.034214
  14 H :    0.025801
  15 H :    0.022571
  16 S :    0.396616
  17 C :   -0.194370
  18 C :   -0.060588
  19 C :   -0.050198
  20 C :   -0.196404
  21 H :    0.012996
  22 C :   -0.025728
  23 H :    0.020266
  24 H :    0.026576
  25 C :   -0.026020
  26 H :    0.023427
  27 H :    0.034303
  28 C :   -0.073231
  29 H :    0.020711
  30 H :    0.029156
  31 H :    0.021006
  32 H :    0.022718
  33 H :    0.039688

  Mayer bond orders larger than 0.100000
B(  0-S ,  1-C ) :   1.1493 B(  0-S ,  4-C ) :   1.1152 B(  1-C ,  2-C ) :   1.6361
B(  1-C , 32-H ) :   0.9636 B(  2-C ,  3-C ) :   1.2201 B(  2-C ,  6-C ) :   1.0038
B(  3-C ,  4-C ) :   1.6330 B(  3-C ,  5-H ) :   0.9786 B(  4-C , 20-C ) :   1.0439
B(  6-C ,  7-H ) :   0.9480 B(  6-C ,  8-H ) :   0.9497 B(  6-C ,  9-C ) :   1.0350
B(  9-C , 10-H ) :   0.9655 B(  9-C , 11-H ) :   0.9588 B(  9-C , 12-C ) :   1.0823
B( 12-C , 13-H ) :   0.9712 B( 12-C , 14-H ) :   0.9731 B( 12-C , 15-H ) :   0.9781
B( 16-S , 17-C ) :   1.1391 B( 16-S , 20-C ) :   1.1184 B( 17-C , 18-C ) :   1.6351
B( 17-C , 33-H ) :   0.9642 B( 18-C , 19-C ) :   1.2093 B( 18-C , 21-H ) :   0.9955
B( 19-C , 20-C ) :   1.6301 B( 19-C , 22-C ) :   1.0501 B( 22-C , 23-H ) :   0.9365
B( 22-C , 24-H ) :   0.9285 B( 22-C , 25-C ) :   1.0511 B( 25-C , 26-H ) :   0.9573
B( 25-C , 27-H ) :   0.9601 B( 25-C , 28-C ) :   1.0820 B( 28-C , 29-H ) :   0.9717
B( 28-C , 30-H ) :   0.9755 B( 28-C , 31-H ) :   0.9775

Dispersion correction           -0.013542696
FINAL SINGLE POINT ENERGY     -1339.870229565727

DIPOLE MOMENT
-------------
                                X             Y             Z
Electronic contribution:     16.80139      -1.56121     -25.55346
Nuclear contribution   :    -17.30146       1.84862      26.09986
                        -----------------------------------------
Total Dipole Moment    :     -0.50006       0.28740       0.54640
                        -----------------------------------------
Magnitude (a.u.)       :      0.79449
Magnitude (Debye)      :      2.01943

Rotational constants in cm-1:     0.019634     0.007864     0.006150
Rotational constants in MHz :   588.608342   235.768727   184.382564

                             ****ORCA TERMINATED NORMALLY****
TOTAL RUN TIME: 0 days 0 hours 0 minutes 20 seconds 991 msec
