                         Program Version 4.2.1 -  RELEASE  -
|  1> ! wB97X-D3 SP def2-SVP
|  2> %pal
|  3> nprocs 24
|  4> end
|  5>
|  6> * xyz 0 1
|  7> S 	 -57.0108 	 14.0927 	 -96.3849
|  8> C 	 -56.1791 	 15.008 	 -97.6956
|  9> C 	 -56.5509 	 16.3483 	 -97.7982
| 10> C 	 -57.5294 	 16.6008 	 -96.7825
| 11> C 	 -57.8984 	 15.5314 	 -96.0054
| 12> H 	 -58.0099 	 17.5586 	 -96.5613
| 13> C 	 -56.1205 	 17.3388 	 -98.8415
| 14> H 	 -55.3745 	 17.8364 	 -98.3003
| 15> H 	 -56.9204 	 17.9674 	 -99.1299
| 16> C 	 -55.324 	 16.699 	 -99.9606
| 17> H 	 -54.5165 	 16.1586 	 -99.4454
| 18> H 	 -55.9913 	 16.0734 	 -100.558
| 19> C 	 -54.6755 	 17.7424 	 -100.9
| 20> H 	 -53.9588 	 18.4206 	 -100.388
| 21> H 	 -54.1072 	 17.1902 	 -101.674
| 22> H 	 -55.3967 	 18.308 	 -101.509
| 23> S 	 -60.3626 	 14.4191 	 -95.2712
| 24> C 	 -61.0354 	 15.0045 	 -93.7142
| 25> C 	 -60.3119 	 16.0203 	 -93.1024
| 26> C 	 -59.1269 	 16.3096 	 -93.8442
| 27> C 	 -58.9852 	 15.5073 	 -94.9942
| 28> H 	 -60.5613 	 16.4317 	 -92.1212
| 29> C 	 -58.1371 	 17.3134 	 -93.4214
| 30> H 	 -57.1051 	 17.2233 	 -93.9825
| 31> H 	 -57.9347 	 17.1607 	 -92.3563
| 32> C 	 -58.5598 	 18.8393 	 -93.6203
| 33> H 	 -58.7109 	 18.9895 	 -94.6645
| 34> H 	 -57.6917 	 19.5061 	 -93.4172
| 35> C 	 -59.985 	 19.1427 	 -93.0266
| 36> H 	 -59.9707 	 19.0575 	 -91.9517
| 37> H 	 -60.839 	 18.5343 	 -93.3959
| 38> H 	 -60.1917 	 20.1406 	 -93.3029
| 39> H 	 -55.4573 	 14.4504 	 -98.281
| 40> H 	 -61.9873 	 14.7028 	 -93.2932
| 41> *
| 42>
| 43>                          ****END OF INPUT****

CARTESIAN COORDINATES (ANGSTROEM)
---------------------------------
  S    -57.010800   14.092700  -96.384900
  C    -56.179100   15.008000  -97.695600
  C    -56.550900   16.348300  -97.798200
  C    -57.529400   16.600800  -96.782500
  C    -57.898400   15.531400  -96.005400
  H    -58.009900   17.558600  -96.561300
  C    -56.120500   17.338800  -98.841500
  H    -55.374500   17.836400  -98.300300
  H    -56.920400   17.967400  -99.129900
  C    -55.324000   16.699000  -99.960600
  H    -54.516500   16.158600  -99.445400
  H    -55.991300   16.073400  -100.558000
  C    -54.675500   17.742400  -100.900000
  H    -53.958800   18.420600  -100.388000
  H    -54.107200   17.190200  -101.674000
  H    -55.396700   18.308000  -101.509000
  S    -60.362600   14.419100  -95.271200
  C    -61.035400   15.004500  -93.714200
  C    -60.311900   16.020300  -93.102400
  C    -59.126900   16.309600  -93.844200
  C    -58.985200   15.507300  -94.994200
  H    -60.561300   16.431700  -92.121200
  C    -58.137100   17.313400  -93.421400
  H    -57.105100   17.223300  -93.982500
  H    -57.934700   17.160700  -92.356300
  C    -58.559800   18.839300  -93.620300
  H    -58.710900   18.989500  -94.664500
  H    -57.691700   19.506100  -93.417200
  C    -59.985000   19.142700  -93.026600
  H    -59.970700   19.057500  -91.951700
  H    -60.839000   18.534300  -93.395900
  H    -60.191700   20.140600  -93.302900
  H    -55.457300   14.450400  -98.281000
  H    -61.987300   14.702800  -93.293200

 Total Charge           Charge          ....    0
 Multiplicity           Mult            ....    1
 Number of Electrons    NEL             ....  134
 Basis Dimension        Dim             ....  322

ORBITAL ENERGIES
----------------

  NO   OCC          E(Eh)            E(eV)
   0   2.0000     -88.969616     -2420.9863
   1   2.0000     -88.963232     -2420.8126
   2   2.0000     -10.327904      -281.0366
   3   2.0000     -10.324362      -280.9402
   4   2.0000     -10.320840      -280.8443
   5   2.0000     -10.315769      -280.7063
   6   2.0000     -10.304975      -280.4126
   7   2.0000     -10.301596      -280.3207
   8   2.0000     -10.297431      -280.2073
   9   2.0000     -10.295443      -280.1533
  10   2.0000     -10.292511      -280.0735
  11   2.0000     -10.291571      -280.0479
  12   2.0000     -10.291120      -280.0356
  13   2.0000     -10.285968      -279.8954
  14   2.0000     -10.285853      -279.8923
  15   2.0000     -10.277460      -279.6639
  16   2.0000      -8.082964      -219.9486
  17   2.0000      -8.077702      -219.8055
  18   2.0000      -6.041513      -164.3979
  19   2.0000      -6.037823      -164.2975
  20   2.0000      -6.036096      -164.2505
  21   2.0000      -6.033602      -164.1827
  22   2.0000      -6.032402      -164.1500
  23   2.0000      -6.028457      -164.0427
  24   2.0000      -0.998991       -27.1839
  25   2.0000      -0.976671       -26.5766
  26   2.0000      -0.921003       -25.0618
  27   2.0000      -0.900149       -24.4943
  28   2.0000      -0.862289       -23.4641
  29   2.0000      -0.846290       -23.0287
  30   2.0000      -0.843987       -22.9660
  31   2.0000      -0.811150       -22.0725
  32   2.0000      -0.785676       -21.3793
  33   2.0000      -0.767110       -20.8741
  34   2.0000      -0.711853       -19.3705
  35   2.0000      -0.702700       -19.1214
  36   2.0000      -0.681956       -18.5570
  37   2.0000      -0.659443       -17.9443
  38   2.0000      -0.640475       -17.4282
  39   2.0000      -0.608536       -16.5591
  40   2.0000      -0.591047       -16.0832
  41   2.0000      -0.587424       -15.9846
  42   2.0000      -0.562884       -15.3168
  43   2.0000      -0.540825       -14.7166
  44   2.0000      -0.537290       -14.6204
  45   2.0000      -0.524362       -14.2686
  46   2.0000      -0.517245       -14.0750
  47   2.0000      -0.510040       -13.8789
  48   2.0000      -0.504256       -13.7215
  49   2.0000      -0.488179       -13.2840
  50   2.0000      -0.486465       -13.2374
  51   2.0000      -0.482546       -13.1307
  52   2.0000      -0.470788       -12.8108
  53   2.0000      -0.460571       -12.5328
  54   2.0000      -0.453758       -12.3474
  55   2.0000      -0.447687       -12.1822
  56   2.0000      -0.444002       -12.0819
  57   2.0000      -0.438455       -11.9310
  58   2.0000      -0.435510       -11.8508
  59   2.0000      -0.427957       -11.6453
  60   2.0000      -0.424603       -11.5540
  61   2.0000      -0.423210       -11.5161
  62   2.0000      -0.405843       -11.0436
  63   2.0000      -0.339901        -9.2492
  64   2.0000      -0.330083        -8.9820
  65   2.0000      -0.326520        -8.8851
  66   2.0000      -0.291829        -7.9411
  67   0.0000       0.035275         0.9599
  68   0.0000       0.066947         1.8217
  69   0.0000       0.107767         2.9325
  70   0.0000       0.118215         3.2168
  71   0.0000       0.123007         3.3472

MULLIKEN ATOMIC CHARGES
-----------------------
   0 S :    0.107255
   1 C :   -0.163011
   2 C :   -0.082714
   3 C :    0.018668
   4 C :   -0.166866
   5 H :    0.004287
   6 C :    0.156321
   7 H :    0.016838
   8 H :    0.030392
   9 C :   -0.122069
  10 H :    0.040651
  11 H :    0.039871
  12 C :   -0.053509
  13 H :    0.038412
  14 H :    0.032167
  15 H :    0.033855
  16 S :    0.112872
  17 C :   -0.087432
  18 C :   -0.039006
  19 C :   -0.006137
  20 C :   -0.160893
  21 H :    0.030915
  22 C :   -0.007169
  23 H :    0.054003
  24 H :    0.033715
  25 C :   -0.070237
  26 H :    0.014222
  27 H :    0.044341
  28 C :   -0.060409
  29 H :    0.027099
  30 H :    0.059018
  31 H :    0.024216
  32 H :    0.048972
  33 H :    0.051360
Sum of atomic charges:    0.0000000

LOEWDIN ATOMIC CHARGES
----------------------
   0 S :    0.387834
   1 C :   -0.186630
   2 C :   -0.054218
   3 C :   -0.066235
   4 C :   -0.200326
   5 H :    0.030180
   6 C :   -0.024217
   7 H :    0.034988
   8 H :    0.027832
   9 C :   -0.037128
  10 H :    0.029526
  11 H :    0.025817
  12 C :   -0.070241
  13 H :    0.026840
  14 H :    0.029193
  15 H :    0.025653
  16 S :    0.381023
  17 C :   -0.171068
  18 C :   -0.066756
  19 C :   -0.058178
  20 C :   -0.191816
  21 H :    0.037193
  22 C :   -0.045454
  23 H :    0.044494
  24 H :    0.028642
  25 C :   -0.038089
  26 H :    0.015100
  27 H :    0.031820
  28 C :   -0.066316
  29 H :    0.018146
  30 H :    0.036399
  31 H :    0.020892
  32 H :    0.019013
  33 H :    0.026087

  Mayer bond orders larger than 0.100000
B(  0-S ,  1-C ) :   1.1261 B(  0-S ,  4-C ) :   1.1511 B(  1-C ,  2-C ) :   1.6151
B(  1-C , 32-H ) :   0.9650 B(  2-C ,  3-C ) :   1.2230 B(  2-C ,  6-C ) :   0.9992
B(  3-C ,  4-C ) :   1.6047 B(  3-C ,  5-H ) :   0.9938 B(  4-C , 20-C ) :   1.0125
B(  6-C ,  7-H ) :   0.9111 B(  6-C ,  8-H ) :   0.9470 B(  6-C ,  9-C ) :   1.0884
B(  9-C , 10-H ) :   0.9435 B(  9-C , 11-H ) :   0.9565 B(  9-C , 12-C ) :   1.0915
B( 12-C , 13-H ) :   0.9749 B( 12-C , 14-H ) :   0.9731 B( 12-C , 15-H ) :   0.9736
B( 16-S , 17-C ) :   1.1393 B( 16-S , 20-C ) :   1.1309 B( 17-C , 18-C ) :   1.6297
B( 17-C , 33-H ) :   0.9624 B( 18-C , 19-C ) :   1.2223 B( 18-C , 21-H ) :   0.9806
B( 19-C , 20-C ) :   1.6103 B( 19-C , 22-C ) :   1.0543 B( 22-C , 23-H ) :   0.9329
B( 22-C , 24-H ) :   0.9381 B( 22-C , 25-C ) :   1.0589 B( 25-C , 26-H ) :   0.9521
B( 25-C , 27-H ) :   0.9594 B( 25-C , 28-C ) :   1.0700 B( 28-C , 29-H ) :   0.9791
B( 28-C , 30-H ) :   0.9644 B( 28-C , 31-H ) :   0.9726

Dispersion correction           -0.014380641
FINAL SINGLE POINT ENERGY     -1339.873120360767

DIPOLE MOMENT
-------------
                                X             Y             Z
Electronic contribution:     -9.63869     -23.44473       6.40101
Nuclear contribution   :      9.79604      24.14409      -6.49919
                        -----------------------------------------
Total Dipole Moment    :      0.15735       0.69936      -0.09819
                        -----------------------------------------
Magnitude (a.u.)       :      0.72354
Magnitude (Debye)      :      1.83909

Rotational constants in cm-1:     0.021947     0.007476     0.006102
Rotational constants in MHz :   657.954628   224.134945   182.930265

                             ****ORCA TERMINATED NORMALLY****
TOTAL RUN TIME: 0 days 0 hours 0 minutes 21 seconds 498 msec
