                         Program Version 4.2.1 -  RELEASE  -
|  1> ! wB97X-D3 SP def2-SVP
|  2> %pal
|  3> nprocs 24
|  4> end
|  5>
|  6> * xyz 0 1
|  7> S 	 -103.721 	 61.0131 	 -3.96259
|  8> C 	 -102.996 	 62.5409 	 -4.34461
|  9> C 	 -103.643 	 63.2379 	 -5.30156
| 10> C 	 -104.623 	 62.3787 	 -5.90842
| 11> C 	 -104.923 	 61.315 	 -5.09779
| 12> H 	 -105.361 	 62.7639 	 -6.65725
| 13> C 	 -103.339 	 64.6903 	 -5.85942
| 14> H 	 -102.894 	 65.3162 	 -5.08712
| 15> H 	 -104.336 	 65.1602 	 -6.10222
| 16> C 	 -102.407 	 64.62 	 -7.13727
| 17> H 	 -101.47 	 64.1257 	 -6.99956
| 18> H 	 -102.994 	 64.184 	 -8.0009
| 19> C 	 -102.138 	 66.0772 	 -7.64506
| 20> H 	 -101.964 	 66.1086 	 -8.74614
| 21> H 	 -102.968 	 66.7655 	 -7.72641
| 22> H 	 -101.355 	 66.7139 	 -7.23717
| 23> S 	 -106.125 	 58.8277 	 -4.7432
| 24> C 	 -107.825 	 58.7381 	 -5.03576
| 25> C 	 -108.419 	 59.9632 	 -5.11429
| 26> C 	 -107.484 	 61.0518 	 -5.22981
| 27> C 	 -106.167 	 60.5893 	 -5.16075
| 28> H 	 -109.464 	 59.9908 	 -5.23336
| 29> C 	 -107.908 	 62.5222 	 -5.39382
| 30> H 	 -107.146 	 63.1954 	 -4.9212
| 31> H 	 -108.766 	 62.7731 	 -4.7808
| 32> C 	 -108.307 	 62.8594 	 -6.87357
| 33> H 	 -109.353 	 62.665 	 -7.00929
| 34> H 	 -107.769 	 62.1832 	 -7.52788
| 35> C 	 -108.183 	 64.3043 	 -7.33101
| 36> H 	 -107.125 	 64.6474 	 -7.34191
| 37> H 	 -108.674 	 64.7807 	 -6.49031
| 38> H 	 -108.641 	 64.4946 	 -8.32072
| 39> H 	 -102.042 	 62.8631 	 -3.93908
| 40> H 	 -108.374 	 57.793 	 -4.87579
| 41> *
| 42>
| 43>                          ****END OF INPUT****

CARTESIAN COORDINATES (ANGSTROEM)
---------------------------------
  S    -103.721000   61.013100   -3.962590
  C    -102.996000   62.540900   -4.344610
  C    -103.643000   63.237900   -5.301560
  C    -104.623000   62.378700   -5.908420
  C    -104.923000   61.315000   -5.097790
  H    -105.361000   62.763900   -6.657250
  C    -103.339000   64.690300   -5.859420
  H    -102.894000   65.316200   -5.087120
  H    -104.336000   65.160200   -6.102220
  C    -102.407000   64.620000   -7.137270
  H    -101.470000   64.125700   -6.999560
  H    -102.994000   64.184000   -8.000900
  C    -102.138000   66.077200   -7.645060
  H    -101.964000   66.108600   -8.746140
  H    -102.968000   66.765500   -7.726410
  H    -101.355000   66.713900   -7.237170
  S    -106.125000   58.827700   -4.743200
  C    -107.825000   58.738100   -5.035760
  C    -108.419000   59.963200   -5.114290
  C    -107.484000   61.051800   -5.229810
  C    -106.167000   60.589300   -5.160750
  H    -109.464000   59.990800   -5.233360
  C    -107.908000   62.522200   -5.393820
  H    -107.146000   63.195400   -4.921200
  H    -108.766000   62.773100   -4.780800
  C    -108.307000   62.859400   -6.873570
  H    -109.353000   62.665000   -7.009290
  H    -107.769000   62.183200   -7.527880
  C    -108.183000   64.304300   -7.331010
  H    -107.125000   64.647400   -7.341910
  H    -108.674000   64.780700   -6.490310
  H    -108.641000   64.494600   -8.320720
  H    -102.042000   62.863100   -3.939080
  H    -108.374000   57.793000   -4.875790

 Total Charge           Charge          ....    0
 Multiplicity           Mult            ....    1
 Number of Electrons    NEL             ....  134
 Basis Dimension        Dim             ....  322

ORBITAL ENERGIES
----------------

  NO   OCC          E(Eh)            E(eV)
   0   2.0000     -88.964018     -2420.8340
   1   2.0000     -88.962674     -2420.7974
   2   2.0000     -10.329432      -281.0781
   3   2.0000     -10.320078      -280.8236
   4   2.0000     -10.317340      -280.7491
   5   2.0000     -10.311825      -280.5990
   6   2.0000     -10.307768      -280.4886
   7   2.0000     -10.305567      -280.4287
   8   2.0000     -10.300924      -280.3024
   9   2.0000     -10.300016      -280.2777
  10   2.0000     -10.299476      -280.2630
  11   2.0000     -10.291284      -280.0401
  12   2.0000     -10.289694      -279.9968
  13   2.0000     -10.285392      -279.8797
  14   2.0000     -10.283773      -279.8357
  15   2.0000     -10.278920      -279.7036
  16   2.0000      -8.080727      -219.8878
  17   2.0000      -8.077545      -219.8012
  18   2.0000      -6.039101      -164.3323
  19   2.0000      -6.035969      -164.2471
  20   2.0000      -6.035163      -164.2251
  21   2.0000      -6.032323      -164.1479
  22   2.0000      -6.031304      -164.1201
  23   2.0000      -6.028117      -164.0334
  24   2.0000      -1.015100       -27.6223
  25   2.0000      -0.986008       -26.8306
  26   2.0000      -0.907817       -24.7030
  27   2.0000      -0.901554       -24.5325
  28   2.0000      -0.869885       -23.6708
  29   2.0000      -0.855248       -23.2725
  30   2.0000      -0.844621       -22.9833
  31   2.0000      -0.810481       -22.0543
  32   2.0000      -0.783800       -21.3283
  33   2.0000      -0.773343       -21.0437
  34   2.0000      -0.706877       -19.2351
  35   2.0000      -0.700625       -19.0650
  36   2.0000      -0.692673       -18.8486
  37   2.0000      -0.661849       -18.0098
  38   2.0000      -0.635061       -17.2809
  39   2.0000      -0.618360       -16.8264
  40   2.0000      -0.598936       -16.2979
  41   2.0000      -0.565539       -15.3891
  42   2.0000      -0.564821       -15.3696
  43   2.0000      -0.556209       -15.1352
  44   2.0000      -0.533476       -14.5166
  45   2.0000      -0.522373       -14.2145
  46   2.0000      -0.511495       -13.9185
  47   2.0000      -0.507874       -13.8200
  48   2.0000      -0.500457       -13.6181
  49   2.0000      -0.498688       -13.5700
  50   2.0000      -0.490418       -13.3449
  51   2.0000      -0.476795       -12.9742
  52   2.0000      -0.471856       -12.8399
  53   2.0000      -0.462424       -12.5832
  54   2.0000      -0.461109       -12.5474
  55   2.0000      -0.453777       -12.3479
  56   2.0000      -0.441683       -12.0188
  57   2.0000      -0.437886       -11.9155
  58   2.0000      -0.431421       -11.7396
  59   2.0000      -0.427361       -11.6291
  60   2.0000      -0.423915       -11.5353
  61   2.0000      -0.416253       -11.3268
  62   2.0000      -0.414473       -11.2784
  63   2.0000      -0.348263        -9.4767
  64   2.0000      -0.333007        -9.0616
  65   2.0000      -0.330202        -8.9852
  66   2.0000      -0.287913        -7.8345
  67   0.0000       0.026842         0.7304
  68   0.0000       0.078083         2.1248
  69   0.0000       0.097531         2.6540
  70   0.0000       0.116000         3.1565
  71   0.0000       0.125566         3.4168

MULLIKEN ATOMIC CHARGES
-----------------------
   0 S :    0.121871
   1 C :   -0.111909
   2 C :   -0.110383
   3 C :    0.010822
   4 C :   -0.132492
   5 H :    0.020961
   6 C :    0.043615
   7 H :    0.033582
   8 H :    0.040003
   9 C :   -0.049076
  10 H :    0.044517
  11 H :    0.047458
  12 C :   -0.078277
  13 H :    0.019856
  14 H :    0.011573
  15 H :    0.035872
  16 S :    0.082205
  17 C :   -0.090030
  18 C :   -0.011719
  19 C :   -0.033664
  20 C :   -0.150518
  21 H :    0.004499
  22 C :    0.035655
  23 H :    0.045583
  24 H :    0.023608
  25 C :   -0.073786
  26 H :    0.023969
  27 H :    0.035099
  28 C :   -0.059658
  29 H :    0.032681
  30 H :    0.029614
  31 H :    0.052250
  32 H :    0.037536
  33 H :    0.068684
Sum of atomic charges:    0.0000000

LOEWDIN ATOMIC CHARGES
----------------------
   0 S :    0.430598
   1 C :   -0.205303
   2 C :   -0.064275
   3 C :   -0.073886
   4 C :   -0.212082
   5 H :    0.034429
   6 C :   -0.025846
   7 H :    0.028544
   8 H :    0.036144
   9 C :   -0.029905
  10 H :    0.025993
  11 H :    0.037561
  12 C :   -0.090499
  13 H :    0.030096
  14 H :    0.022577
  15 H :    0.022849
  16 S :    0.375025
  17 C :   -0.183511
  18 C :   -0.069395
  19 C :   -0.042100
  20 C :   -0.173597
  21 H :    0.025080
  22 C :   -0.037258
  23 H :    0.036908
  24 H :    0.029894
  25 C :   -0.042792
  26 H :    0.023314
  27 H :    0.017518
  28 C :   -0.066392
  29 H :    0.021522
  30 H :    0.026331
  31 H :    0.032876
  32 H :    0.024867
  33 H :    0.034716

  Mayer bond orders larger than 0.100000
B(  0-S ,  1-C ) :   1.1241 B(  0-S ,  4-C ) :   1.1612 B(  1-C ,  2-C ) :   1.6545
B(  1-C , 32-H ) :   0.9649 B(  2-C ,  3-C ) :   1.2343 B(  2-C ,  6-C ) :   1.0119
B(  3-C ,  4-C ) :   1.5679 B(  3-C ,  5-H ) :   0.9777 B(  4-C , 20-C ) :   1.0724
B(  6-C ,  7-H ) :   0.9510 B(  6-C ,  8-H ) :   0.9442 B(  6-C ,  9-C ) :   1.0570
B(  9-C , 10-H ) :   0.9634 B(  9-C , 11-H ) :   0.9581 B(  9-C , 12-C ) :   1.0599
B( 12-C , 13-H ) :   0.9733 B( 12-C , 14-H ) :   0.9713 B( 12-C , 15-H ) :   0.9800
B( 16-S , 17-C ) :   1.1524 B( 16-S , 20-C ) :   1.1177 B( 17-C , 18-C ) :   1.6362
B( 17-C , 33-H ) :   0.9605 B( 18-C , 19-C ) :   1.2142 B( 18-C , 21-H ) :   0.9980
B( 19-C , 20-C ) :   1.5999 B( 19-C , 22-C ) :   1.0535 B( 22-C , 23-H ) :   0.9420
B( 22-C , 24-H ) :   0.9332 B( 22-C , 25-C ) :   1.0317 B( 25-C , 26-H ) :   0.9538
B( 25-C , 27-H ) :   0.9632 B( 25-C , 28-C ) :   1.0772 B( 28-C , 29-H ) :   0.9782
B( 28-C , 30-H ) :   0.9725 B( 28-C , 31-H ) :   0.9722

Dispersion correction           -0.014607423
FINAL SINGLE POINT ENERGY     -1339.857898483975

DIPOLE MOMENT
-------------
                                X             Y             Z
Electronic contribution:      2.49722     -29.46453      16.87795
Nuclear contribution   :     -2.89665      30.09093     -17.09637
                        -----------------------------------------
Total Dipole Moment    :     -0.39944       0.62640      -0.21842
                        -----------------------------------------
Magnitude (a.u.)       :      0.77436
Magnitude (Debye)      :      1.96828

Rotational constants in cm-1:     0.018654     0.009055     0.006480
Rotational constants in MHz :   559.219241   271.451360   194.265762

                             ****ORCA TERMINATED NORMALLY****
TOTAL RUN TIME: 0 days 0 hours 0 minutes 22 seconds 60 msec
