                         Program Version 4.2.1 -  RELEASE  -
|  1> ! wB97X-D3 SP def2-SVP
|  2> %pal
|  3> nprocs 24
|  4> end
|  5>
|  6> * xyz 0 1
|  7> S 	 -81.4067 	 -26.4972 	 -56.5457
|  8> C 	 -79.7487 	 -26.2863 	 -55.9733
|  9> C 	 -79.5189 	 -27.042 	 -54.8004
| 10> C 	 -80.6691 	 -27.8525 	 -54.4618
| 11> C 	 -81.7577 	 -27.7072 	 -55.3071
| 12> H 	 -80.8125 	 -28.4564 	 -53.521
| 13> C 	 -78.2516 	 -27.0451 	 -54.0132
| 14> H 	 -77.4797 	 -26.7295 	 -54.7436
| 15> H 	 -77.9448 	 -28.0621 	 -53.6314
| 16> C 	 -78.2954 	 -25.9885 	 -52.9236
| 17> H 	 -78.7759 	 -25.1303 	 -53.2363
| 18> H 	 -78.8255 	 -26.3134 	 -52.0125
| 19> C 	 -76.8898 	 -25.5611 	 -52.4496
| 20> H 	 -76.4117 	 -24.8839 	 -53.1362
| 21> H 	 -76.8383 	 -25.2035 	 -51.3733
| 22> H 	 -76.1821 	 -26.3558 	 -52.4656
| 23> S 	 -84.3558 	 -27.2671 	 -55.7427
| 24> C 	 -85.5037 	 -28.5747 	 -55.662
| 25> C 	 -84.9531 	 -29.6261 	 -55.0262
| 26> C 	 -83.5708 	 -29.4898 	 -54.6619
| 27> C 	 -83.0295 	 -28.3447 	 -55.2244
| 28> H 	 -85.6247 	 -30.4201 	 -54.7652
| 29> C 	 -82.7549 	 -30.7502 	 -54.1334
| 30> H 	 -83.2965 	 -31.2284 	 -53.3953
| 31> H 	 -81.8906 	 -30.3525 	 -53.6246
| 32> C 	 -82.351 	 -31.7632 	 -55.1908
| 33> H 	 -83.1023 	 -32.0095 	 -55.8437
| 34> H 	 -81.9523 	 -32.6606 	 -54.6986
| 35> C 	 -81.1113 	 -31.2216 	 -55.9778
| 36> H 	 -80.4192 	 -30.6575 	 -55.3046
| 37> H 	 -81.4178 	 -30.5551 	 -56.8122
| 38> H 	 -80.5934 	 -32.1395 	 -56.3667
| 39> H 	 -79.0299 	 -25.5979 	 -56.3407
| 40> H 	 -86.4757 	 -28.7128 	 -56.0848
| 41> *
| 42>
| 43>                          ****END OF INPUT****

CARTESIAN COORDINATES (ANGSTROEM)
---------------------------------
  S    -81.406700  -26.497200  -56.545700
  C    -79.748700  -26.286300  -55.973300
  C    -79.518900  -27.042000  -54.800400
  C    -80.669100  -27.852500  -54.461800
  C    -81.757700  -27.707200  -55.307100
  H    -80.812500  -28.456400  -53.521000
  C    -78.251600  -27.045100  -54.013200
  H    -77.479700  -26.729500  -54.743600
  H    -77.944800  -28.062100  -53.631400
  C    -78.295400  -25.988500  -52.923600
  H    -78.775900  -25.130300  -53.236300
  H    -78.825500  -26.313400  -52.012500
  C    -76.889800  -25.561100  -52.449600
  H    -76.411700  -24.883900  -53.136200
  H    -76.838300  -25.203500  -51.373300
  H    -76.182100  -26.355800  -52.465600
  S    -84.355800  -27.267100  -55.742700
  C    -85.503700  -28.574700  -55.662000
  C    -84.953100  -29.626100  -55.026200
  C    -83.570800  -29.489800  -54.661900
  C    -83.029500  -28.344700  -55.224400
  H    -85.624700  -30.420100  -54.765200
  C    -82.754900  -30.750200  -54.133400
  H    -83.296500  -31.228400  -53.395300
  H    -81.890600  -30.352500  -53.624600
  C    -82.351000  -31.763200  -55.190800
  H    -83.102300  -32.009500  -55.843700
  H    -81.952300  -32.660600  -54.698600
  C    -81.111300  -31.221600  -55.977800
  H    -80.419200  -30.657500  -55.304600
  H    -81.417800  -30.555100  -56.812200
  H    -80.593400  -32.139500  -56.366700
  H    -79.029900  -25.597900  -56.340700
  H    -86.475700  -28.712800  -56.084800

 Total Charge           Charge          ....    0
 Multiplicity           Mult            ....    1
 Number of Electrons    NEL             ....  134
 Basis Dimension        Dim             ....  322

ORBITAL ENERGIES
----------------

  NO   OCC          E(Eh)            E(eV)
   0   2.0000     -88.970535     -2421.0113
   1   2.0000     -88.961383     -2420.7623
   2   2.0000     -10.331669      -281.1390
   3   2.0000     -10.330687      -281.1123
   4   2.0000     -10.318201      -280.7725
   5   2.0000     -10.308997      -280.5221
   6   2.0000     -10.308772      -280.5160
   7   2.0000     -10.307780      -280.4889
   8   2.0000     -10.300501      -280.2909
   9   2.0000     -10.298769      -280.2437
  10   2.0000     -10.288565      -279.9661
  11   2.0000     -10.287644      -279.9410
  12   2.0000     -10.282192      -279.7927
  13   2.0000     -10.279034      -279.7067
  14   2.0000     -10.277360      -279.6612
  15   2.0000     -10.277106      -279.6543
  16   2.0000      -8.084245      -219.9835
  17   2.0000      -8.076098      -219.7618
  18   2.0000      -6.042888      -164.4353
  19   2.0000      -6.038853      -164.3255
  20   2.0000      -6.034934      -164.2189
  21   2.0000      -6.034850      -164.2166
  22   2.0000      -6.030695      -164.1036
  23   2.0000      -6.026497      -163.9893
  24   2.0000      -1.007290       -27.4098
  25   2.0000      -0.981073       -26.6964
  26   2.0000      -0.917789       -24.9743
  27   2.0000      -0.906180       -24.6584
  28   2.0000      -0.874160       -23.7871
  29   2.0000      -0.848703       -23.0944
  30   2.0000      -0.838114       -22.8062
  31   2.0000      -0.816174       -22.2092
  32   2.0000      -0.779223       -21.2037
  33   2.0000      -0.772021       -21.0078
  34   2.0000      -0.712907       -19.3992
  35   2.0000      -0.705449       -19.1962
  36   2.0000      -0.695041       -18.9130
  37   2.0000      -0.659830       -17.9549
  38   2.0000      -0.640344       -17.4246
  39   2.0000      -0.617500       -16.8030
  40   2.0000      -0.595033       -16.1917
  41   2.0000      -0.575070       -15.6485
  42   2.0000      -0.559778       -15.2323
  43   2.0000      -0.548584       -14.9277
  44   2.0000      -0.542471       -14.7614
  45   2.0000      -0.522750       -14.2247
  46   2.0000      -0.520047       -14.1512
  47   2.0000      -0.511842       -13.9279
  48   2.0000      -0.507549       -13.8111
  49   2.0000      -0.502701       -13.6792
  50   2.0000      -0.492929       -13.4133
  51   2.0000      -0.476224       -12.9587
  52   2.0000      -0.467838       -12.7305
  53   2.0000      -0.461539       -12.5591
  54   2.0000      -0.454871       -12.3777
  55   2.0000      -0.449573       -12.2335
  56   2.0000      -0.441504       -12.0139
  57   2.0000      -0.437351       -11.9009
  58   2.0000      -0.436233       -11.8705
  59   2.0000      -0.422696       -11.5021
  60   2.0000      -0.420625       -11.4458
  61   2.0000      -0.415265       -11.2999
  62   2.0000      -0.406453       -11.0602
  63   2.0000      -0.357992        -9.7414
  64   2.0000      -0.330461        -8.9923
  65   2.0000      -0.329547        -8.9674
  66   2.0000      -0.284739        -7.7481
  67   0.0000       0.014307         0.3893
  68   0.0000       0.076689         2.0868
  69   0.0000       0.100516         2.7352
  70   0.0000       0.114230         3.1084
  71   0.0000       0.138751         3.7756

MULLIKEN ATOMIC CHARGES
-----------------------
   0 S :    0.114800
   1 C :   -0.093706
   2 C :   -0.113612
   3 C :   -0.008166
   4 C :   -0.123811
   5 H :    0.043281
   6 C :    0.043262
   7 H :    0.022828
   8 H :    0.045430
   9 C :   -0.029209
  10 H :    0.016763
  11 H :    0.031273
  12 C :   -0.062061
  13 H :    0.026081
  14 H :    0.043934
  15 H :    0.009672
  16 S :    0.075071
  17 C :   -0.052470
  18 C :   -0.058036
  19 C :   -0.039688
  20 C :   -0.135873
  21 H :    0.013350
  22 C :    0.101057
  23 H :    0.000721
  24 H :   -0.003849
  25 C :   -0.021495
  26 H :    0.015821
  27 H :    0.028594
  28 C :   -0.101072
  29 H :    0.036093
  30 H :    0.055944
  31 H :    0.036468
  32 H :    0.036800
  33 H :    0.045804
Sum of atomic charges:    0.0000000

LOEWDIN ATOMIC CHARGES
----------------------
   0 S :    0.399823
   1 C :   -0.192691
   2 C :   -0.055956
   3 C :   -0.069685
   4 C :   -0.193864
   5 H :    0.039866
   6 C :   -0.036261
   7 H :    0.034287
   8 H :    0.038695
   9 C :   -0.034708
  10 H :    0.016138
  11 H :    0.028457
  12 C :   -0.071373
  13 H :    0.021498
  14 H :    0.035065
  15 H :    0.016964
  16 S :    0.381283
  17 C :   -0.186152
  18 C :   -0.072462
  19 C :   -0.056156
  20 C :   -0.172179
  21 H :    0.029291
  22 C :   -0.018570
  23 H :    0.017906
  24 H :    0.021557
  25 C :   -0.028838
  26 H :    0.013432
  27 H :    0.027690
  28 C :   -0.070015
  29 H :    0.024779
  30 H :    0.029726
  31 H :    0.027594
  32 H :    0.022699
  33 H :    0.032160

  Mayer bond orders larger than 0.100000
B(  0-S ,  1-C ) :   1.1282 B(  0-S ,  4-C ) :   1.1372 B(  1-C ,  2-C ) :   1.5997
B(  1-C ,  4-C ) :   0.1006 B(  1-C , 32-H ) :   0.9700 B(  2-C ,  3-C ) :   1.2470
B(  2-C ,  6-C ) :   1.0338 B(  3-C ,  4-C ) :   1.5719 B(  3-C ,  5-H ) :   0.9750
B(  4-C , 20-C ) :   1.0949 B(  6-C ,  7-H ) :   0.9420 B(  6-C ,  8-H ) :   0.9390
B(  6-C ,  9-C ) :   1.0590 B(  9-C , 10-H ) :   0.9595 B(  9-C , 11-H ) :   0.9551
B(  9-C , 12-C ) :   1.0746 B( 12-C , 13-H ) :   0.9763 B( 12-C , 14-H ) :   0.9760
B( 12-C , 15-H ) :   0.9725 B( 16-S , 17-C ) :   1.1162 B( 16-S , 20-C ) :   1.1235
B( 17-C , 18-C ) :   1.6734 B( 17-C , 33-H ) :   0.9645 B( 18-C , 19-C ) :   1.1957
B( 18-C , 21-H ) :   0.9873 B( 19-C , 20-C ) :   1.5976 B( 19-C , 22-C ) :   1.0431
B( 22-C , 23-H ) :   0.9273 B( 22-C , 24-H ) :   0.9416 B( 22-C , 25-C ) :   1.0782
B( 25-C , 26-H ) :   0.9556 B( 25-C , 27-H ) :   0.9556 B( 25-C , 28-C ) :   1.0695
B( 28-C , 29-H ) :   0.9751 B( 28-C , 30-H ) :   0.9766 B( 28-C , 31-H ) :   0.9772

Dispersion correction           -0.014889788
FINAL SINGLE POINT ENERGY     -1339.860100864288

DIPOLE MOMENT
-------------
                                X             Y             Z
Electronic contribution:    -20.96469      10.19844     -12.21925
Nuclear contribution   :     21.28297     -10.62436      12.61652
                        -----------------------------------------
Total Dipole Moment    :      0.31828      -0.42592       0.39727
                        -----------------------------------------
Magnitude (a.u.)       :      0.66372
Magnitude (Debye)      :      1.68705

Rotational constants in cm-1:     0.021392     0.008135     0.006863
Rotational constants in MHz :   641.321496   243.878149   205.752746

                             ****ORCA TERMINATED NORMALLY****
TOTAL RUN TIME: 0 days 0 hours 0 minutes 21 seconds 7 msec
