                         Program Version 4.2.1 -  RELEASE  -
|  1> ! wB97X-D3 SP def2-SVP
|  2> %pal
|  3> nprocs 24
|  4> end
|  5>
|  6> * xyz 0 1
|  7> S 	 -65.8252 	 -50.3833 	 -86.7019
|  8> C 	 -64.5939 	 -50.8212 	 -85.5403
|  9> C 	 -65.1159 	 -50.9011 	 -84.2486
| 10> C 	 -66.5354 	 -50.8057 	 -84.1543
| 11> C 	 -67.0115 	 -50.5066 	 -85.3826
| 12> H 	 -67.225 	 -50.9277 	 -83.3654
| 13> C 	 -64.2246 	 -51.2749 	 -83.062
| 14> H 	 -63.8514 	 -52.2605 	 -83.122
| 15> H 	 -64.8393 	 -51.1411 	 -82.1342
| 16> C 	 -63.0581 	 -50.3081 	 -82.8221
| 17> H 	 -62.2407 	 -50.4304 	 -83.5622
| 18> H 	 -63.5347 	 -49.3607 	 -83.0534
| 19> C 	 -62.5575 	 -50.2329 	 -81.391
| 20> H 	 -62.1087 	 -51.1673 	 -81.1531
| 21> H 	 -61.7387 	 -49.548 	 -81.2843
| 22> H 	 -63.385 	 -50.2058 	 -80.6892
| 23> S 	 -68.7053 	 -48.432 	 -85.5366
| 24> C 	 -70.3794 	 -48.7968 	 -86.0549
| 25> C 	 -70.604 	 -50.1746 	 -86.0733
| 26> C 	 -69.492 	 -50.9599 	 -85.7852
| 27> C 	 -68.3932 	 -50.1343 	 -85.6332
| 28> H 	 -71.5977 	 -50.5472 	 -86.3057
| 29> C 	 -69.5181 	 -52.4861 	 -85.4894
| 30> H 	 -68.7949 	 -52.6843 	 -84.6908
| 31> H 	 -69.1799 	 -53.0747 	 -86.2994
| 32> C 	 -70.8482 	 -53.1241 	 -85.141
| 33> H 	 -71.5289 	 -53.2456 	 -86.0356
| 34> H 	 -71.2476 	 -52.2798 	 -84.4967
| 35> C 	 -70.8571 	 -54.4188 	 -84.2888
| 36> H 	 -71.8377 	 -54.5607 	 -83.9164
| 37> H 	 -70.3037 	 -54.2245 	 -83.3785
| 38> H 	 -70.4434 	 -55.2571 	 -84.7855
| 39> H 	 -63.5605 	 -50.9712 	 -85.7335
| 40> H 	 -71.2617 	 -48.1347 	 -86.2249
| 41> *
| 42>
| 43>                          ****END OF INPUT****

CARTESIAN COORDINATES (ANGSTROEM)
---------------------------------
  S    -65.825200  -50.383300  -86.701900
  C    -64.593900  -50.821200  -85.540300
  C    -65.115900  -50.901100  -84.248600
  C    -66.535400  -50.805700  -84.154300
  C    -67.011500  -50.506600  -85.382600
  H    -67.225000  -50.927700  -83.365400
  C    -64.224600  -51.274900  -83.062000
  H    -63.851400  -52.260500  -83.122000
  H    -64.839300  -51.141100  -82.134200
  C    -63.058100  -50.308100  -82.822100
  H    -62.240700  -50.430400  -83.562200
  H    -63.534700  -49.360700  -83.053400
  C    -62.557500  -50.232900  -81.391000
  H    -62.108700  -51.167300  -81.153100
  H    -61.738700  -49.548000  -81.284300
  H    -63.385000  -50.205800  -80.689200
  S    -68.705300  -48.432000  -85.536600
  C    -70.379400  -48.796800  -86.054900
  C    -70.604000  -50.174600  -86.073300
  C    -69.492000  -50.959900  -85.785200
  C    -68.393200  -50.134300  -85.633200
  H    -71.597700  -50.547200  -86.305700
  C    -69.518100  -52.486100  -85.489400
  H    -68.794900  -52.684300  -84.690800
  H    -69.179900  -53.074700  -86.299400
  C    -70.848200  -53.124100  -85.141000
  H    -71.528900  -53.245600  -86.035600
  H    -71.247600  -52.279800  -84.496700
  C    -70.857100  -54.418800  -84.288800
  H    -71.837700  -54.560700  -83.916400
  H    -70.303700  -54.224500  -83.378500
  H    -70.443400  -55.257100  -84.785500
  H    -63.560500  -50.971200  -85.733500
  H    -71.261700  -48.134700  -86.224900

 Total Charge           Charge          ....    0
 Multiplicity           Mult            ....    1
 Number of Electrons    NEL             ....  134
 Basis Dimension        Dim             ....  322

ORBITAL ENERGIES
----------------

  NO   OCC          E(Eh)            E(eV)
   0   2.0000     -88.970524     -2421.0110
   1   2.0000     -88.967488     -2420.9284
   2   2.0000     -10.321794      -280.8703
   3   2.0000     -10.318792      -280.7886
   4   2.0000     -10.318014      -280.7674
   5   2.0000     -10.310504      -280.5631
   6   2.0000     -10.301090      -280.3069
   7   2.0000     -10.300851      -280.3004
   8   2.0000     -10.293567      -280.1022
   9   2.0000     -10.291103      -280.0351
  10   2.0000     -10.290196      -280.0105
  11   2.0000     -10.289511      -279.9918
  12   2.0000     -10.287516      -279.9375
  13   2.0000     -10.281035      -279.7612
  14   2.0000     -10.276022      -279.6248
  15   2.0000     -10.272315      -279.5239
  16   2.0000      -8.084530      -219.9912
  17   2.0000      -8.081791      -219.9167
  18   2.0000      -6.043014      -164.4388
  19   2.0000      -6.040254      -164.3637
  20   2.0000      -6.039293      -164.3375
  21   2.0000      -6.036492      -164.2613
  22   2.0000      -6.035201      -164.2262
  23   2.0000      -6.032488      -164.1523
  24   2.0000      -1.008258       -27.4361
  25   2.0000      -0.982073       -26.7236
  26   2.0000      -0.911005       -24.7897
  27   2.0000      -0.907602       -24.6971
  28   2.0000      -0.868054       -23.6210
  29   2.0000      -0.854194       -23.2438
  30   2.0000      -0.850673       -23.1480
  31   2.0000      -0.814403       -22.1610
  32   2.0000      -0.788617       -21.4594
  33   2.0000      -0.768345       -20.9077
  34   2.0000      -0.702496       -19.1159
  35   2.0000      -0.695523       -18.9262
  36   2.0000      -0.692717       -18.8498
  37   2.0000      -0.651175       -17.7194
  38   2.0000      -0.649435       -17.6720
  39   2.0000      -0.613913       -16.7054
  40   2.0000      -0.596226       -16.2241
  41   2.0000      -0.574724       -15.6390
  42   2.0000      -0.570657       -15.5284
  43   2.0000      -0.557536       -15.1713
  44   2.0000      -0.525250       -14.2928
  45   2.0000      -0.521883       -14.2012
  46   2.0000      -0.521365       -14.1871
  47   2.0000      -0.516444       -14.0532
  48   2.0000      -0.502816       -13.6823
  49   2.0000      -0.496830       -13.5194
  50   2.0000      -0.488020       -13.2797
  51   2.0000      -0.483549       -13.1580
  52   2.0000      -0.471854       -12.8398
  53   2.0000      -0.464393       -12.6368
  54   2.0000      -0.459409       -12.5011
  55   2.0000      -0.452500       -12.3132
  56   2.0000      -0.450033       -12.2460
  57   2.0000      -0.435969       -11.8633
  58   2.0000      -0.429947       -11.6995
  59   2.0000      -0.425168       -11.5694
  60   2.0000      -0.421091       -11.4585
  61   2.0000      -0.408476       -11.1152
  62   2.0000      -0.407565       -11.0904
  63   2.0000      -0.344895        -9.3851
  64   2.0000      -0.334127        -9.0921
  65   2.0000      -0.314660        -8.5623
  66   2.0000      -0.301692        -8.2094
  67   0.0000       0.043291         1.1780
  68   0.0000       0.051328         1.3967
  69   0.0000       0.105935         2.8827
  70   0.0000       0.114457         3.1145
  71   0.0000       0.128905         3.5077

MULLIKEN ATOMIC CHARGES
-----------------------
   0 S :    0.126788
   1 C :   -0.100039
   2 C :   -0.083747
   3 C :    0.066658
   4 C :   -0.180204
   5 H :    0.006860
   6 C :    0.070575
   7 H :    0.034343
   8 H :    0.012703
   9 C :   -0.114148
  10 H :    0.029706
  11 H :    0.026330
  12 C :    0.002554
  13 H :    0.004299
  14 H :    0.035331
  15 H :    0.026038
  16 S :    0.138780
  17 C :   -0.098524
  18 C :   -0.066915
  19 C :    0.008971
  20 C :   -0.231820
  21 H :    0.017421
  22 C :    0.139472
  23 H :    0.015432
  24 H :    0.019598
  25 C :   -0.180787
  26 H :    0.046622
  27 H :    0.034300
  28 C :    0.014682
  29 H :    0.026893
  30 H :    0.018127
  31 H :    0.036207
  32 H :    0.034890
  33 H :    0.062604
Sum of atomic charges:    0.0000000

LOEWDIN ATOMIC CHARGES
----------------------
   0 S :    0.399135
   1 C :   -0.194263
   2 C :   -0.057657
   3 C :   -0.052884
   4 C :   -0.182710
   5 H :    0.032389
   6 C :   -0.030273
   7 H :    0.022810
   8 H :    0.031002
   9 C :   -0.046852
  10 H :    0.021166
  11 H :    0.022367
  12 C :   -0.061736
  13 H :    0.019510
  14 H :    0.028243
  15 H :    0.025871
  16 S :    0.412331
  17 C :   -0.195141
  18 C :   -0.071011
  19 C :   -0.057413
  20 C :   -0.206929
  21 H :    0.030906
  22 C :   -0.030554
  23 H :    0.031641
  24 H :    0.026901
  25 C :   -0.053107
  26 H :    0.026769
  27 H :    0.028912
  28 C :   -0.053225
  29 H :    0.026676
  30 H :    0.026053
  31 H :    0.020846
  32 H :    0.021301
  33 H :    0.038929

  Mayer bond orders larger than 0.100000
B(  0-S ,  1-C ) :   1.1258 B(  0-S ,  4-C ) :   1.1491 B(  1-C ,  2-C ) :   1.6245
B(  1-C , 32-H ) :   0.9763 B(  2-C ,  3-C ) :   1.2041 B(  2-C ,  6-C ) :   1.0235
B(  3-C ,  4-C ) :   1.6130 B(  3-C ,  5-H ) :   0.9999 B(  4-C , 20-C ) :   1.0097
B(  6-C ,  7-H ) :   0.9416 B(  6-C ,  8-H ) :   0.9442 B(  6-C ,  9-C ) :   1.0519
B(  9-C , 10-H ) :   0.9506 B(  9-C , 11-H ) :   0.9618 B(  9-C , 12-C ) :   1.0964
B( 12-C , 13-H ) :   0.9679 B( 12-C , 14-H ) :   0.9717 B( 12-C , 15-H ) :   0.9696
B( 16-S , 17-C ) :   1.1304 B( 16-S , 20-C ) :   1.1742 B( 17-C , 18-C ) :   1.6194
B( 17-C , 20-C ) :   0.1084 B( 17-C , 33-H ) :   0.9581 B( 18-C , 19-C ) :   1.2620
B( 18-C , 21-H ) :   0.9789 B( 19-C , 20-C ) :   1.5956 B( 19-C , 22-C ) :   1.0254
B( 22-C , 23-H ) :   0.9362 B( 22-C , 24-H ) :   0.9140 B( 22-C , 25-C ) :   1.0649
B( 25-C , 26-H ) :   0.9487 B( 25-C , 27-H ) :   0.9591 B( 25-C , 28-C ) :   1.0878
B( 28-C , 29-H ) :   0.9709 B( 28-C , 30-H ) :   0.9690 B( 28-C , 31-H ) :   0.9772

Dispersion correction           -0.013642404
FINAL SINGLE POINT ENERGY     -1339.853723997393

DIPOLE MOMENT
-------------
                                X             Y             Z
Electronic contribution:     -3.09469      16.19669     -17.66610
Nuclear contribution   :      3.01450     -16.65477      18.11348
                        -----------------------------------------
Total Dipole Moment    :     -0.08020      -0.45808       0.44738
                        -----------------------------------------
Magnitude (a.u.)       :      0.64530
Magnitude (Debye)      :      1.64023

Rotational constants in cm-1:     0.018968     0.007420     0.006300
Rotational constants in MHz :   568.658224   222.453244   188.868162

                             ****ORCA TERMINATED NORMALLY****
TOTAL RUN TIME: 0 days 0 hours 0 minutes 20 seconds 966 msec
