                         Program Version 4.2.1 -  RELEASE  -
|  1> ! wB97X-D3 SP def2-SVP
|  2> %pal
|  3> nprocs 24
|  4> end
|  5>
|  6> * xyz 0 1
|  7> S 	 -55.6171 	 16.2322 	 28.2207
|  8> C 	 -56.9655 	 15.2301 	 27.8721
|  9> C 	 -56.7326 	 13.9122 	 28.3304
| 10> C 	 -55.4469 	 13.783 	 28.911
| 11> C 	 -54.7141 	 14.967 	 28.8892
| 12> H 	 -55.0535 	 12.8448 	 29.2557
| 13> C 	 -57.7931 	 12.7275 	 28.1569
| 14> H 	 -57.2348 	 11.8102 	 28.2298
| 15> H 	 -58.1464 	 12.743 	 27.1508
| 16> C 	 -58.9129 	 12.6143 	 29.1016
| 17> H 	 -58.5991 	 12.1419 	 30.0434
| 18> H 	 -59.1823 	 13.6514 	 29.3715
| 19> C 	 -60.0409 	 11.6652 	 28.6123
| 20> H 	 -60.7887 	 11.5804 	 29.3646
| 21> H 	 -60.5903 	 11.9733 	 27.7232
| 22> H 	 -59.5962 	 10.7272 	 28.3756
| 23> S 	 -53.1658 	 14.7798 	 31.1637
| 24> C 	 -51.4643 	 15.0254 	 30.9956
| 25> C 	 -51.0918 	 15.4741 	 29.7223
| 26> C 	 -52.2418 	 15.638 	 28.8341
| 27> C 	 -53.3877 	 15.2125 	 29.4661
| 28> H 	 -49.9848 	 15.6146 	 29.5224
| 29> C 	 -52.0932 	 16.1335 	 27.3882
| 30> H 	 -52.7594 	 15.68 	 26.6916
| 31> H 	 -50.9941 	 15.8281 	 27.1318
| 32> C 	 -52.2695 	 17.7311 	 27.3486
| 33> H 	 -53.3125 	 17.9455 	 27.6667
| 34> H 	 -52.1319 	 17.9615 	 26.3013
| 35> C 	 -51.2516 	 18.583 	 28.1578
| 36> H 	 -51.462 	 19.6603 	 28.102
| 37> H 	 -50.1714 	 18.5189 	 27.8901
| 38> H 	 -51.4232 	 18.2531 	 29.2584
| 39> H 	 -57.8985 	 15.5144 	 27.5369
| 40> H 	 -50.747 	 14.748 	 31.8035
| 41> *
| 42>
| 43>                          ****END OF INPUT****

CARTESIAN COORDINATES (ANGSTROEM)
---------------------------------
  S    -55.617100   16.232200   28.220700
  C    -56.965500   15.230100   27.872100
  C    -56.732600   13.912200   28.330400
  C    -55.446900   13.783000   28.911000
  C    -54.714100   14.967000   28.889200
  H    -55.053500   12.844800   29.255700
  C    -57.793100   12.727500   28.156900
  H    -57.234800   11.810200   28.229800
  H    -58.146400   12.743000   27.150800
  C    -58.912900   12.614300   29.101600
  H    -58.599100   12.141900   30.043400
  H    -59.182300   13.651400   29.371500
  C    -60.040900   11.665200   28.612300
  H    -60.788700   11.580400   29.364600
  H    -60.590300   11.973300   27.723200
  H    -59.596200   10.727200   28.375600
  S    -53.165800   14.779800   31.163700
  C    -51.464300   15.025400   30.995600
  C    -51.091800   15.474100   29.722300
  C    -52.241800   15.638000   28.834100
  C    -53.387700   15.212500   29.466100
  H    -49.984800   15.614600   29.522400
  C    -52.093200   16.133500   27.388200
  H    -52.759400   15.680000   26.691600
  H    -50.994100   15.828100   27.131800
  C    -52.269500   17.731100   27.348600
  H    -53.312500   17.945500   27.666700
  H    -52.131900   17.961500   26.301300
  C    -51.251600   18.583000   28.157800
  H    -51.462000   19.660300   28.102000
  H    -50.171400   18.518900   27.890100
  H    -51.423200   18.253100   29.258400
  H    -57.898500   15.514400   27.536900
  H    -50.747000   14.748000   31.803500

 Total Charge           Charge          ....    0
 Multiplicity           Mult            ....    1
 Number of Electrons    NEL             ....  134
 Basis Dimension        Dim             ....  322

ORBITAL ENERGIES
----------------

  NO   OCC          E(Eh)            E(eV)
   0   2.0000     -88.970928     -2421.0220
   1   2.0000     -88.966161     -2420.8923
   2   2.0000     -10.324889      -280.9545
   3   2.0000     -10.324493      -280.9437
   4   2.0000     -10.319334      -280.8033
   5   2.0000     -10.307522      -280.4819
   6   2.0000     -10.307407      -280.4788
   7   2.0000     -10.305166      -280.4178
   8   2.0000     -10.303359      -280.3687
   9   2.0000     -10.303130      -280.3624
  10   2.0000     -10.292626      -280.0766
  11   2.0000     -10.291966      -280.0586
  12   2.0000     -10.287633      -279.9407
  13   2.0000     -10.285709      -279.8884
  14   2.0000     -10.284143      -279.8458
  15   2.0000     -10.276080      -279.6264
  16   2.0000      -8.086381      -220.0416
  17   2.0000      -8.081029      -219.8960
  18   2.0000      -6.044680      -164.4841
  19   2.0000      -6.040540      -164.3714
  20   2.0000      -6.039456      -164.3419
  21   2.0000      -6.037591      -164.2912
  22   2.0000      -6.035633      -164.2379
  23   2.0000      -6.031755      -164.1324
  24   2.0000      -1.010376       -27.4937
  25   2.0000      -0.984161       -26.7804
  26   2.0000      -0.913948       -24.8698
  27   2.0000      -0.897130       -24.4122
  28   2.0000      -0.865217       -23.5438
  29   2.0000      -0.850196       -23.1350
  30   2.0000      -0.841202       -22.8903
  31   2.0000      -0.808572       -22.0024
  32   2.0000      -0.785540       -21.3756
  33   2.0000      -0.772421       -21.0186
  34   2.0000      -0.701387       -19.0857
  35   2.0000      -0.698724       -19.0133
  36   2.0000      -0.684430       -18.6243
  37   2.0000      -0.660243       -17.9661
  38   2.0000      -0.641252       -17.4493
  39   2.0000      -0.615411       -16.7462
  40   2.0000      -0.592138       -16.1129
  41   2.0000      -0.572538       -15.5795
  42   2.0000      -0.558211       -15.1897
  43   2.0000      -0.547238       -14.8911
  44   2.0000      -0.537228       -14.6187
  45   2.0000      -0.527436       -14.3523
  46   2.0000      -0.516381       -14.0514
  47   2.0000      -0.511001       -13.9050
  48   2.0000      -0.499643       -13.5960
  49   2.0000      -0.493883       -13.4392
  50   2.0000      -0.484293       -13.1783
  51   2.0000      -0.472735       -12.8638
  52   2.0000      -0.472671       -12.8620
  53   2.0000      -0.467191       -12.7129
  54   2.0000      -0.463800       -12.6206
  55   2.0000      -0.448367       -12.2007
  56   2.0000      -0.443982       -12.0814
  57   2.0000      -0.442030       -12.0282
  58   2.0000      -0.431449       -11.7403
  59   2.0000      -0.425073       -11.5668
  60   2.0000      -0.417890       -11.3714
  61   2.0000      -0.409396       -11.1402
  62   2.0000      -0.408898       -11.1267
  63   2.0000      -0.340467        -9.2646
  64   2.0000      -0.335818        -9.1381
  65   2.0000      -0.328761        -8.9460
  66   2.0000      -0.294737        -8.0202
  67   0.0000       0.035371         0.9625
  68   0.0000       0.071249         1.9388
  69   0.0000       0.108828         2.9614
  70   0.0000       0.118358         3.2207
  71   0.0000       0.130495         3.5510

MULLIKEN ATOMIC CHARGES
-----------------------
   0 S :    0.132884
   1 C :   -0.081314
   2 C :   -0.122694
   3 C :    0.035871
   4 C :   -0.170087
   5 H :    0.003884
   6 C :    0.085789
   7 H :    0.005556
   8 H :    0.021024
   9 C :   -0.066749
  10 H :    0.025922
  11 H :    0.026067
  12 C :   -0.031414
  13 H :    0.030517
  14 H :    0.027105
  15 H :    0.024346
  16 S :    0.124528
  17 C :   -0.123964
  18 C :   -0.059970
  19 C :   -0.031520
  20 C :   -0.162593
  21 H :    0.045278
  22 C :    0.053786
  23 H :    0.036023
  24 H :    0.038612
  25 C :   -0.066947
  26 H :    0.041427
  27 H :    0.030839
  28 C :   -0.101911
  29 H :    0.041212
  30 H :    0.040554
  31 H :    0.058620
  32 H :    0.015804
  33 H :    0.073513
Sum of atomic charges:   -0.0000000

LOEWDIN ATOMIC CHARGES
----------------------
   0 S :    0.467693
   1 C :   -0.207989
   2 C :   -0.053693
   3 C :   -0.068077
   4 C :   -0.217806
   5 H :    0.028709
   6 C :   -0.029517
   7 H :    0.025883
   8 H :    0.026612
   9 C :   -0.045253
  10 H :    0.026987
  11 H :    0.023063
  12 C :   -0.056508
  13 H :    0.024351
  14 H :    0.023204
  15 H :    0.022657
  16 S :    0.409829
  17 C :   -0.203630
  18 C :   -0.081132
  19 C :   -0.055865
  20 C :   -0.202381
  21 H :    0.043111
  22 C :   -0.028933
  23 H :    0.025503
  24 H :    0.040721
  25 C :   -0.036868
  26 H :    0.020873
  27 H :    0.019938
  28 C :   -0.083379
  29 H :    0.028184
  30 H :    0.026788
  31 H :    0.038513
  32 H :    0.011678
  33 H :    0.036733

  Mayer bond orders larger than 0.100000
B(  0-S ,  1-C ) :   1.1677 B(  0-S ,  4-C ) :   1.2003 B(  1-C ,  2-C ) :   1.5582
B(  1-C ,  4-C ) :   0.1043 B(  1-C , 32-H ) :   0.9797 B(  2-C ,  3-C ) :   1.3093
B(  2-C ,  6-C ) :   1.0038 B(  3-C ,  4-C ) :   1.5165 B(  3-C ,  5-H ) :   1.0011
B(  4-C , 20-C ) :   1.0075 B(  6-C ,  7-H ) :   0.9349 B(  6-C ,  8-H ) :   0.9491
B(  6-C ,  9-C ) :   1.0696 B(  9-C , 10-H ) :   0.9524 B(  9-C , 11-H ) :   0.9594
B(  9-C , 12-C ) :   1.0714 B( 12-C , 13-H ) :   0.9753 B( 12-C , 14-H ) :   0.9766
B( 12-C , 15-H ) :   0.9739 B( 16-S , 17-C ) :   1.1546 B( 16-S , 20-C ) :   1.1404
B( 17-C , 18-C ) :   1.6301 B( 17-C , 33-H ) :   0.9605 B( 18-C , 19-C ) :   1.2154
B( 18-C , 21-H ) :   0.9784 B( 19-C , 20-C ) :   1.6128 B( 19-C , 22-C ) :   1.0318
B( 22-C , 23-H ) :   0.9373 B( 22-C , 24-H ) :   0.9418 B( 22-C , 25-C ) :   1.0532
B( 25-C , 26-H ) :   0.9533 B( 25-C , 27-H ) :   0.9598 B( 25-C , 28-C ) :   1.0715
B( 28-C , 29-H ) :   0.9736 B( 28-C , 30-H ) :   0.9757 B( 28-C , 31-H ) :   0.9697

Dispersion correction           -0.014459195
FINAL SINGLE POINT ENERGY     -1339.877134103896

DIPOLE MOMENT
-------------
                                X             Y             Z
Electronic contribution:      7.23289       3.35235       8.62316
Nuclear contribution   :     -7.23935      -3.59805      -8.83132
                        -----------------------------------------
Total Dipole Moment    :     -0.00647      -0.24570      -0.20816
                        -----------------------------------------
Magnitude (a.u.)       :      0.32209
Magnitude (Debye)      :      0.81870

Rotational constants in cm-1:     0.026767     0.006997     0.005933
Rotational constants in MHz :   802.443890   209.761891   177.857334

                             ****ORCA TERMINATED NORMALLY****
TOTAL RUN TIME: 0 days 0 hours 0 minutes 20 seconds 42 msec
