                         Program Version 4.2.1 -  RELEASE  -
|  1> ! wB97X-D3 SP def2-SVP
|  2> %pal
|  3> nprocs 24
|  4> end
|  5>
|  6> * xyz 0 1
|  7> S 	 -122.807 	 62.5228 	 -35.1649
|  8> C 	 -122.957 	 64.2789 	 -34.9046
|  9> C 	 -122.106 	 64.9004 	 -35.7882
| 10> C 	 -121.345 	 64.0517 	 -36.5663
| 11> C 	 -121.514 	 62.7503 	 -36.3414
| 12> H 	 -120.539 	 64.2818 	 -37.2698
| 13> C 	 -122.024 	 66.3569 	 -36.0066
| 14> H 	 -121.13 	 66.698 	 -35.4207
| 15> H 	 -122.884 	 66.7947 	 -35.5191
| 16> C 	 -122.191 	 66.8792 	 -37.5014
| 17> H 	 -122.453 	 67.9548 	 -37.4065
| 18> H 	 -121.253 	 66.6453 	 -37.9262
| 19> C 	 -123.19 	 66.1572 	 -38.4671
| 20> H 	 -122.896 	 65.2207 	 -38.8636
| 21> H 	 -124.051 	 66.068 	 -37.9114
| 22> H 	 -123.416 	 66.7432 	 -39.4098
| 23> S 	 -121.969 	 60.4169 	 -37.5829
| 24> C 	 -120.677 	 59.7884 	 -38.6348
| 25> C 	 -119.46 	 60.3459 	 -38.3893
| 26> C 	 -119.523 	 61.4377 	 -37.4289
| 27> C 	 -120.861 	 61.6878 	 -37.0503
| 28> H 	 -118.636 	 59.911 	 -38.9172
| 29> C 	 -118.28 	 62.2935 	 -37.1781
| 30> H 	 -118.371 	 62.9615 	 -36.2959
| 31> H 	 -118.226 	 62.9516 	 -38.0582
| 32> C 	 -116.98 	 61.5349 	 -36.9379
| 33> H 	 -116.851 	 61.084 	 -37.9481
| 34> H 	 -117.13 	 60.7077 	 -36.1812
| 35> C 	 -115.783 	 62.4462 	 -36.7529
| 36> H 	 -115.824 	 63.0213 	 -35.7992
| 37> H 	 -115.772 	 63.13 	 -37.5698
| 38> H 	 -114.726 	 62.0268 	 -36.7901
| 39> H 	 -123.685 	 64.7663 	 -34.2869
| 40> H 	 -120.88 	 59.0115 	 -39.3333
| 41> *
| 42>
| 43>                          ****END OF INPUT****

CARTESIAN COORDINATES (ANGSTROEM)
---------------------------------
  S    -122.807000   62.522800  -35.164900
  C    -122.957000   64.278900  -34.904600
  C    -122.106000   64.900400  -35.788200
  C    -121.345000   64.051700  -36.566300
  C    -121.514000   62.750300  -36.341400
  H    -120.539000   64.281800  -37.269800
  C    -122.024000   66.356900  -36.006600
  H    -121.130000   66.698000  -35.420700
  H    -122.884000   66.794700  -35.519100
  C    -122.191000   66.879200  -37.501400
  H    -122.453000   67.954800  -37.406500
  H    -121.253000   66.645300  -37.926200
  C    -123.190000   66.157200  -38.467100
  H    -122.896000   65.220700  -38.863600
  H    -124.051000   66.068000  -37.911400
  H    -123.416000   66.743200  -39.409800
  S    -121.969000   60.416900  -37.582900
  C    -120.677000   59.788400  -38.634800
  C    -119.460000   60.345900  -38.389300
  C    -119.523000   61.437700  -37.428900
  C    -120.861000   61.687800  -37.050300
  H    -118.636000   59.911000  -38.917200
  C    -118.280000   62.293500  -37.178100
  H    -118.371000   62.961500  -36.295900
  H    -118.226000   62.951600  -38.058200
  C    -116.980000   61.534900  -36.937900
  H    -116.851000   61.084000  -37.948100
  H    -117.130000   60.707700  -36.181200
  C    -115.783000   62.446200  -36.752900
  H    -115.824000   63.021300  -35.799200
  H    -115.772000   63.130000  -37.569800
  H    -114.726000   62.026800  -36.790100
  H    -123.685000   64.766300  -34.286900
  H    -120.880000   59.011500  -39.333300

 Total Charge           Charge          ....    0
 Multiplicity           Mult            ....    1
 Number of Electrons    NEL             ....  134
 Basis Dimension        Dim             ....  322

ORBITAL ENERGIES
----------------

  NO   OCC          E(Eh)            E(eV)
   0   2.0000     -88.963756     -2420.8269
   1   2.0000     -88.961738     -2420.7720
   2   2.0000     -10.331165      -281.1253
   3   2.0000     -10.322147      -280.8799
   4   2.0000     -10.316657      -280.7305
   5   2.0000     -10.315654      -280.7032
   6   2.0000     -10.312749      -280.6242
   7   2.0000     -10.298771      -280.2438
   8   2.0000     -10.296690      -280.1872
   9   2.0000     -10.295151      -280.1453
  10   2.0000     -10.291625      -280.0493
  11   2.0000     -10.291021      -280.0329
  12   2.0000     -10.290383      -280.0156
  13   2.0000     -10.286025      -279.8970
  14   2.0000     -10.280840      -279.7559
  15   2.0000     -10.272063      -279.5170
  16   2.0000      -8.078315      -219.8221
  17   2.0000      -8.075989      -219.7588
  18   2.0000      -6.036833      -164.2706
  19   2.0000      -6.034612      -164.2101
  20   2.0000      -6.033071      -164.1682
  21   2.0000      -6.030651      -164.1024
  22   2.0000      -6.028840      -164.0531
  23   2.0000      -6.026560      -163.9910
  24   2.0000      -1.009855       -27.4796
  25   2.0000      -0.983134       -26.7524
  26   2.0000      -0.914489       -24.8845
  27   2.0000      -0.907271       -24.6881
  28   2.0000      -0.872151       -23.7324
  29   2.0000      -0.851772       -23.1779
  30   2.0000      -0.842215       -22.9178
  31   2.0000      -0.821308       -22.3489
  32   2.0000      -0.782972       -21.3057
  33   2.0000      -0.771929       -21.0052
  34   2.0000      -0.712008       -19.3747
  35   2.0000      -0.698769       -19.0145
  36   2.0000      -0.696271       -18.9465
  37   2.0000      -0.656031       -17.8515
  38   2.0000      -0.641274       -17.4499
  39   2.0000      -0.624595       -16.9961
  40   2.0000      -0.600245       -16.3335
  41   2.0000      -0.574399       -15.6302
  42   2.0000      -0.565132       -15.3780
  43   2.0000      -0.554767       -15.0960
  44   2.0000      -0.534351       -14.5404
  45   2.0000      -0.522735       -14.2243
  46   2.0000      -0.520668       -14.1681
  47   2.0000      -0.514018       -13.9871
  48   2.0000      -0.506859       -13.7923
  49   2.0000      -0.503283       -13.6950
  50   2.0000      -0.485942       -13.2231
  51   2.0000      -0.481994       -13.1157
  52   2.0000      -0.476064       -12.9544
  53   2.0000      -0.462469       -12.5844
  54   2.0000      -0.458288       -12.4707
  55   2.0000      -0.456220       -12.4144
  56   2.0000      -0.440471       -11.9858
  57   2.0000      -0.438760       -11.9393
  58   2.0000      -0.435460       -11.8495
  59   2.0000      -0.427485       -11.6325
  60   2.0000      -0.420508       -11.4426
  61   2.0000      -0.404981       -11.0201
  62   2.0000      -0.395599       -10.7648
  63   2.0000      -0.353914        -9.6305
  64   2.0000      -0.333311        -9.0699
  65   2.0000      -0.326817        -8.8931
  66   2.0000      -0.287951        -7.8355
  67   0.0000       0.026563         0.7228
  68   0.0000       0.069654         1.8954
  69   0.0000       0.102241         2.7821
  70   0.0000       0.123151         3.3511
  71   0.0000       0.134854         3.6696

MULLIKEN ATOMIC CHARGES
-----------------------
   0 S :    0.087904
   1 C :   -0.116088
   2 C :   -0.081095
   3 C :   -0.002748
   4 C :   -0.117230
   5 H :    0.011783
   6 C :    0.062243
   7 H :    0.057328
   8 H :    0.002725
   9 C :   -0.095925
  10 H :    0.051418
  11 H :    0.025682
  12 C :   -0.022488
  13 H :    0.030716
  14 H :    0.013825
  15 H :    0.039742
  16 S :    0.089163
  17 C :   -0.084029
  18 C :   -0.038058
  19 C :    0.001770
  20 C :   -0.162217
  21 H :    0.024135
  22 C :    0.011681
  23 H :    0.031292
  24 H :    0.047645
  25 C :   -0.097041
  26 H :    0.028264
  27 H :    0.056319
  28 C :   -0.045712
  29 H :    0.038048
  30 H :    0.016496
  31 H :    0.045740
  32 H :    0.041719
  33 H :    0.046993
Sum of atomic charges:   -0.0000000

LOEWDIN ATOMIC CHARGES
----------------------
   0 S :    0.374590
   1 C :   -0.184791
   2 C :   -0.071305
   3 C :   -0.072906
   4 C :   -0.184139
   5 H :    0.036269
   6 C :   -0.037717
   7 H :    0.043786
   8 H :    0.022012
   9 C :   -0.033627
  10 H :    0.033310
  11 H :    0.013967
  12 C :   -0.058836
  13 H :    0.021778
  14 H :    0.013122
  15 H :    0.037365
  16 S :    0.378143
  17 C :   -0.160972
  18 C :   -0.069931
  19 C :   -0.049614
  20 C :   -0.180578
  21 H :    0.032867
  22 C :   -0.039124
  23 H :    0.029547
  24 H :    0.034157
  25 C :   -0.049646
  26 H :    0.025860
  27 H :    0.034429
  28 C :   -0.072493
  29 H :    0.027720
  30 H :    0.021244
  31 H :    0.036449
  32 H :    0.027682
  33 H :    0.021382

  Mayer bond orders larger than 0.100000
B(  0-S ,  1-C ) :   1.1134 B(  0-S ,  4-C ) :   1.1286 B(  1-C ,  2-C ) :   1.6092
B(  1-C , 32-H ) :   0.9733 B(  2-C ,  3-C ) :   1.2218 B(  2-C ,  6-C ) :   1.0303
B(  3-C ,  4-C ) :   1.6055 B(  3-C ,  5-H ) :   0.9979 B(  4-C , 20-C ) :   1.0633
B(  6-C ,  7-H ) :   0.9391 B(  6-C ,  8-H ) :   0.9371 B(  6-C ,  9-C ) :   1.0455
B(  9-C , 10-H ) :   0.9634 B(  9-C , 11-H ) :   0.9587 B(  9-C , 12-C ) :   1.0786
B( 12-C , 13-H ) :   0.9718 B( 12-C , 14-H ) :   0.9769 B( 12-C , 15-H ) :   0.9736
B( 16-S , 17-C ) :   1.1315 B( 16-S , 20-C ) :   1.1263 B( 17-C , 18-C ) :   1.6659
B( 17-C , 33-H ) :   0.9710 B( 18-C , 19-C ) :   1.1686 B( 18-C , 21-H ) :   0.9913
B( 19-C , 20-C ) :   1.6075 B( 19-C , 22-C ) :   1.0445 B( 22-C , 23-H ) :   0.9391
B( 22-C , 24-H ) :   0.9355 B( 22-C , 25-C ) :   1.0474 B( 25-C , 26-H ) :   0.9477
B( 25-C , 27-H ) :   0.9617 B( 25-C , 28-C ) :   1.0797 B( 28-C , 29-H ) :   0.9743
B( 28-C , 30-H ) :   0.9686 B( 28-C , 31-H ) :   0.9743

Dispersion correction           -0.014152667
FINAL SINGLE POINT ENERGY     -1339.852612115730

DIPOLE MOMENT
-------------
                                X             Y             Z
Electronic contribution:    -16.58650     -17.83072       6.64938
Nuclear contribution   :     17.10249      18.24210      -7.04758
                        -----------------------------------------
Total Dipole Moment    :      0.51599       0.41138      -0.39820
                        -----------------------------------------
Magnitude (a.u.)       :      0.77074
Magnitude (Debye)      :      1.95906

Rotational constants in cm-1:     0.016717     0.008910     0.007237
Rotational constants in MHz :   501.149855   267.121649   216.959353

                             ****ORCA TERMINATED NORMALLY****
TOTAL RUN TIME: 0 days 0 hours 0 minutes 20 seconds 522 msec
