                         Program Version 4.2.1 -  RELEASE  -
|  1> ! wB97X-D3 SP def2-SVP
|  2> %pal
|  3> nprocs 24
|  4> end
|  5>
|  6> * xyz 0 1
|  7> S 	 -128.988 	 27.7396 	 -20.2561
|  8> C 	 -129.603 	 29.3401 	 -20.5971
|  9> C 	 -130.163 	 29.3289 	 -21.8742
| 10> C 	 -129.83 	 28.1728 	 -22.6501
| 11> C 	 -129.099 	 27.2211 	 -21.958
| 12> H 	 -130.226 	 27.9659 	 -23.6262
| 13> C 	 -131.127 	 30.3542 	 -22.3867
| 14> H 	 -131.371 	 30.1862 	 -23.4869
| 15> H 	 -130.631 	 31.3189 	 -22.4229
| 16> C 	 -132.401 	 30.3921 	 -21.6955
| 17> H 	 -132.321 	 30.7077 	 -20.6286
| 18> H 	 -132.953 	 31.1635 	 -22.1787
| 19> C 	 -133.231 	 29.0847 	 -21.6484
| 20> H 	 -134.244 	 29.4588 	 -21.5678
| 21> H 	 -133.097 	 28.4594 	 -22.5431
| 22> H 	 -132.949 	 28.3867 	 -20.7904
| 23> S 	 -127.586 	 25.9643 	 -23.7978
| 24> C 	 -127.385 	 24.251 	 -23.8043
| 25> C 	 -128.13 	 23.7048 	 -22.7233
| 26> C 	 -128.769 	 24.678 	 -21.8613
| 27> C 	 -128.641 	 25.9585 	 -22.4136
| 28> H 	 -128.201 	 22.5862 	 -22.6732
| 29> C 	 -129.694 	 24.315 	 -20.6427
| 30> H 	 -130.664 	 24.3203 	 -21.0525
| 31> H 	 -129.639 	 24.9503 	 -19.8356
| 32> C 	 -129.513 	 22.9106 	 -20.1585
| 33> H 	 -128.507 	 22.7462 	 -19.8022
| 34> H 	 -129.649 	 22.1272 	 -20.9175
| 35> C 	 -130.575 	 22.6601 	 -19.0583
| 36> H 	 -131.646 	 22.7834 	 -19.2639
| 37> H 	 -130.44 	 23.3744 	 -18.2558
| 38> H 	 -130.623 	 21.6693 	 -18.5348
| 39> H 	 -129.849 	 30.1592 	 -19.9497
| 40> H 	 -126.96 	 23.6571 	 -24.5479
| 41> *
| 42>
| 43>                          ****END OF INPUT****

CARTESIAN COORDINATES (ANGSTROEM)
---------------------------------
  S    -128.988000   27.739600  -20.256100
  C    -129.603000   29.340100  -20.597100
  C    -130.163000   29.328900  -21.874200
  C    -129.830000   28.172800  -22.650100
  C    -129.099000   27.221100  -21.958000
  H    -130.226000   27.965900  -23.626200
  C    -131.127000   30.354200  -22.386700
  H    -131.371000   30.186200  -23.486900
  H    -130.631000   31.318900  -22.422900
  C    -132.401000   30.392100  -21.695500
  H    -132.321000   30.707700  -20.628600
  H    -132.953000   31.163500  -22.178700
  C    -133.231000   29.084700  -21.648400
  H    -134.244000   29.458800  -21.567800
  H    -133.097000   28.459400  -22.543100
  H    -132.949000   28.386700  -20.790400
  S    -127.586000   25.964300  -23.797800
  C    -127.385000   24.251000  -23.804300
  C    -128.130000   23.704800  -22.723300
  C    -128.769000   24.678000  -21.861300
  C    -128.641000   25.958500  -22.413600
  H    -128.201000   22.586200  -22.673200
  C    -129.694000   24.315000  -20.642700
  H    -130.664000   24.320300  -21.052500
  H    -129.639000   24.950300  -19.835600
  C    -129.513000   22.910600  -20.158500
  H    -128.507000   22.746200  -19.802200
  H    -129.649000   22.127200  -20.917500
  C    -130.575000   22.660100  -19.058300
  H    -131.646000   22.783400  -19.263900
  H    -130.440000   23.374400  -18.255800
  H    -130.623000   21.669300  -18.534800
  H    -129.849000   30.159200  -19.949700
  H    -126.960000   23.657100  -24.547900

 Total Charge           Charge          ....    0
 Multiplicity           Mult            ....    1
 Number of Electrons    NEL             ....  134
 Basis Dimension        Dim             ....  322

ORBITAL ENERGIES
----------------

  NO   OCC          E(Eh)            E(eV)
   0   2.0000     -88.967875     -2420.9390
   1   2.0000     -88.967753     -2420.9356
   2   2.0000     -10.330525      -281.1079
   3   2.0000     -10.325072      -280.9595
   4   2.0000     -10.314959      -280.6843
   5   2.0000     -10.313789      -280.6525
   6   2.0000     -10.311068      -280.5784
   7   2.0000     -10.303508      -280.3727
   8   2.0000     -10.298495      -280.2363
   9   2.0000     -10.293569      -280.1023
  10   2.0000     -10.288045      -279.9519
  11   2.0000     -10.287449      -279.9357
  12   2.0000     -10.286334      -279.9054
  13   2.0000     -10.281335      -279.7694
  14   2.0000     -10.281155      -279.7644
  15   2.0000     -10.280156      -279.7373
  16   2.0000      -8.082740      -219.9425
  17   2.0000      -8.081393      -219.9059
  18   2.0000      -6.041198      -164.3894
  19   2.0000      -6.040127      -164.3602
  20   2.0000      -6.036992      -164.2749
  21   2.0000      -6.036072      -164.2499
  22   2.0000      -6.033772      -164.1873
  23   2.0000      -6.031960      -164.1380
  24   2.0000      -1.006848       -27.3977
  25   2.0000      -0.982498       -26.7351
  26   2.0000      -0.920866       -25.0580
  27   2.0000      -0.916418       -24.9370
  28   2.0000      -0.872137       -23.7321
  29   2.0000      -0.847751       -23.0685
  30   2.0000      -0.840950       -22.8834
  31   2.0000      -0.811264       -22.0756
  32   2.0000      -0.784440       -21.3457
  33   2.0000      -0.775060       -21.0905
  34   2.0000      -0.712791       -19.3960
  35   2.0000      -0.706290       -19.2191
  36   2.0000      -0.697566       -18.9817
  37   2.0000      -0.654658       -17.8141
  38   2.0000      -0.634984       -17.2788
  39   2.0000      -0.613098       -16.6832
  40   2.0000      -0.598714       -16.2918
  41   2.0000      -0.581875       -15.8336
  42   2.0000      -0.574745       -15.6396
  43   2.0000      -0.559307       -15.2195
  44   2.0000      -0.545770       -14.8512
  45   2.0000      -0.526249       -14.3200
  46   2.0000      -0.512657       -13.9501
  47   2.0000      -0.509471       -13.8634
  48   2.0000      -0.504906       -13.7392
  49   2.0000      -0.498979       -13.5779
  50   2.0000      -0.487059       -13.2536
  51   2.0000      -0.480562       -13.0768
  52   2.0000      -0.471718       -12.8361
  53   2.0000      -0.465171       -12.6580
  54   2.0000      -0.463443       -12.6109
  55   2.0000      -0.445822       -12.1314
  56   2.0000      -0.443901       -12.0792
  57   2.0000      -0.439493       -11.9592
  58   2.0000      -0.433105       -11.7854
  59   2.0000      -0.425980       -11.5915
  60   2.0000      -0.418598       -11.3906
  61   2.0000      -0.413164       -11.2428
  62   2.0000      -0.403652       -10.9839
  63   2.0000      -0.348478        -9.4826
  64   2.0000      -0.331474        -9.0199
  65   2.0000      -0.327268        -8.9054
  66   2.0000      -0.288341        -7.8462
  67   0.0000       0.022692         0.6175
  68   0.0000       0.068440         1.8624
  69   0.0000       0.103400         2.8136
  70   0.0000       0.119644         3.2557
  71   0.0000       0.129039         3.5113

MULLIKEN ATOMIC CHARGES
-----------------------
   0 S :    0.105828
   1 C :   -0.092341
   2 C :   -0.107287
   3 C :    0.028635
   4 C :   -0.140026
   5 H :    0.010126
   6 C :    0.046972
   7 H :    0.024522
   8 H :    0.032581
   9 C :   -0.066387
  10 H :    0.024797
  11 H :    0.019264
  12 C :   -0.067932
  13 H :    0.039818
  14 H :    0.027454
  15 H :    0.053727
  16 S :    0.130129
  17 C :   -0.070410
  18 C :   -0.089340
  19 C :   -0.030004
  20 C :   -0.165376
  21 H :    0.039483
  22 C :    0.128538
  23 H :    0.030129
  24 H :    0.009389
  25 C :   -0.077186
  26 H :    0.031945
  27 H :    0.032741
  28 C :   -0.069959
  29 H :    0.025765
  30 H :    0.017784
  31 H :    0.034257
  32 H :    0.043021
  33 H :    0.039346
Sum of atomic charges:    0.0000000

LOEWDIN ATOMIC CHARGES
----------------------
   0 S :    0.402735
   1 C :   -0.200440
   2 C :   -0.060844
   3 C :   -0.061368
   4 C :   -0.184443
   5 H :    0.029106
   6 C :   -0.044444
   7 H :    0.035805
   8 H :    0.033993
   9 C :   -0.047151
  10 H :    0.024736
  11 H :    0.021042
  12 C :   -0.069265
  13 H :    0.028648
  14 H :    0.022276
  15 H :    0.036622
  16 S :    0.438401
  17 C :   -0.198242
  18 C :   -0.075979
  19 C :   -0.052712
  20 C :   -0.208411
  21 H :    0.036770
  22 C :   -0.016225
  23 H :    0.035589
  24 H :    0.013086
  25 C :   -0.037193
  26 H :    0.024580
  27 H :    0.023885
  28 C :   -0.078215
  29 H :    0.026461
  30 H :    0.021624
  31 H :    0.030262
  32 H :    0.029439
  33 H :    0.019873

  Mayer bond orders larger than 0.100000
B(  0-S ,  1-C ) :   1.1347 B(  0-S ,  4-C ) :   1.1323 B(  1-C ,  2-C ) :   1.5980
B(  1-C , 32-H ) :   0.9689 B(  2-C ,  3-C ) :   1.2579 B(  2-C ,  6-C ) :   1.0195
B(  3-C ,  4-C ) :   1.5406 B(  3-C ,  5-H ) :   0.9959 B(  4-C , 20-C ) :   1.0799
B(  6-C ,  7-H ) :   0.9405 B(  6-C ,  8-H ) :   0.9303 B(  6-C ,  9-C ) :   1.1001
B(  9-C , 10-H ) :   0.9479 B(  9-C , 11-H ) :   0.9554 B(  9-C , 12-C ) :   1.0605
B( 12-C , 13-H ) :   0.9762 B( 12-C , 14-H ) :   0.9786 B( 12-C , 15-H ) :   0.9731
B( 16-S , 17-C ) :   1.1657 B( 16-S , 20-C ) :   1.1653 B( 17-C , 18-C ) :   1.5811
B( 17-C , 20-C ) :   0.1094 B( 17-C , 33-H ) :   0.9732 B( 18-C , 19-C ) :   1.2655
B( 18-C , 21-H ) :   0.9763 B( 19-C , 20-C ) :   1.5506 B( 19-C , 22-C ) :   1.0131
B( 22-C , 23-H ) :   0.9298 B( 22-C , 24-H ) :   0.9391 B( 22-C , 25-C ) :   1.0811
B( 25-C , 26-H ) :   0.9580 B( 25-C , 27-H ) :   0.9473 B( 25-C , 28-C ) :   1.0686
B( 28-C , 29-H ) :   0.9760 B( 28-C , 30-H ) :   0.9737 B( 28-C , 31-H ) :   0.9744

Dispersion correction           -0.014348717
FINAL SINGLE POINT ENERGY     -1339.861857935044

DIPOLE MOMENT
-------------
                                X             Y             Z
Electronic contribution:     20.48891       3.42714      -8.62537
Nuclear contribution   :    -21.12518      -3.49680       8.58115
                        -----------------------------------------
Total Dipole Moment    :     -0.63627      -0.06966      -0.04422
                        -----------------------------------------
Magnitude (a.u.)       :      0.64160
Magnitude (Debye)      :      1.63081

Rotational constants in cm-1:     0.018681     0.008572     0.006870
Rotational constants in MHz :   560.055557   256.975600   205.957861

                             ****ORCA TERMINATED NORMALLY****
TOTAL RUN TIME: 0 days 0 hours 0 minutes 20 seconds 320 msec
