                         Program Version 4.2.1 -  RELEASE  -
|  1> ! wB97X-D3 SP def2-SVP
|  2> %pal
|  3> nprocs 24
|  4> end
|  5>
|  6> * xyz 0 1
|  7> S 	 -133.553 	 64.8368 	 -63.9005
|  8> C 	 -132.327 	 65.8287 	 -64.6293
|  9> C 	 -131.905 	 66.7865 	 -63.7182
| 10> C 	 -132.728 	 66.9169 	 -62.575
| 11> C 	 -133.631 	 65.8668 	 -62.4921
| 12> H 	 -132.604 	 67.7051 	 -61.7477
| 13> C 	 -130.693 	 67.6078 	 -63.883
| 14> H 	 -130.02 	 67.2656 	 -64.682
| 15> H 	 -130.154 	 67.4785 	 -62.9966
| 16> C 	 -130.956 	 69.086 	 -63.8546
| 17> H 	 -131.636 	 69.3017 	 -63.0612
| 18> H 	 -130.014 	 69.6122 	 -63.6926
| 19> C 	 -131.714 	 69.4316 	 -65.1638
| 20> H 	 -131.926 	 70.511 	 -65.4471
| 21> H 	 -131.151 	 68.8254 	 -65.9622
| 22> H 	 -132.62 	 68.9272 	 -65.2291
| 23> S 	 -136.337 	 65.9614 	 -62.2332
| 24> C 	 -137.089 	 65.9641 	 -60.7109
| 25> C 	 -136.156 	 65.8862 	 -59.6814
| 26> C 	 -134.798 	 65.7612 	 -60.1741
| 27> C 	 -134.733 	 65.7707 	 -61.5427
| 28> H 	 -136.503 	 66.1207 	 -58.7069
| 29> C 	 -133.677 	 65.7628 	 -59.1853
| 30> H 	 -133.821 	 66.6477 	 -58.4725
| 31> H 	 -132.683 	 65.9208 	 -59.6566
| 32> C 	 -133.64 	 64.5649 	 -58.2527
| 33> H 	 -132.715 	 64.7404 	 -57.6305
| 34> H 	 -133.525 	 63.6211 	 -58.7536
| 35> C 	 -134.776 	 64.5515 	 -57.2152
| 36> H 	 -135.649 	 64.1533 	 -57.7381
| 37> H 	 -135.026 	 65.5167 	 -56.88
| 38> H 	 -134.406 	 63.9081 	 -56.4117
| 39> H 	 -131.819 	 65.494 	 -65.558
| 40> H 	 -138.122 	 66.4123 	 -60.5383
| 41> *
| 42>
| 43>                          ****END OF INPUT****

CARTESIAN COORDINATES (ANGSTROEM)
---------------------------------
  S    -133.553000   64.836800  -63.900500
  C    -132.327000   65.828700  -64.629300
  C    -131.905000   66.786500  -63.718200
  C    -132.728000   66.916900  -62.575000
  C    -133.631000   65.866800  -62.492100
  H    -132.604000   67.705100  -61.747700
  C    -130.693000   67.607800  -63.883000
  H    -130.020000   67.265600  -64.682000
  H    -130.154000   67.478500  -62.996600
  C    -130.956000   69.086000  -63.854600
  H    -131.636000   69.301700  -63.061200
  H    -130.014000   69.612200  -63.692600
  C    -131.714000   69.431600  -65.163800
  H    -131.926000   70.511000  -65.447100
  H    -131.151000   68.825400  -65.962200
  H    -132.620000   68.927200  -65.229100
  S    -136.337000   65.961400  -62.233200
  C    -137.089000   65.964100  -60.710900
  C    -136.156000   65.886200  -59.681400
  C    -134.798000   65.761200  -60.174100
  C    -134.733000   65.770700  -61.542700
  H    -136.503000   66.120700  -58.706900
  C    -133.677000   65.762800  -59.185300
  H    -133.821000   66.647700  -58.472500
  H    -132.683000   65.920800  -59.656600
  C    -133.640000   64.564900  -58.252700
  H    -132.715000   64.740400  -57.630500
  H    -133.525000   63.621100  -58.753600
  C    -134.776000   64.551500  -57.215200
  H    -135.649000   64.153300  -57.738100
  H    -135.026000   65.516700  -56.880000
  H    -134.406000   63.908100  -56.411700
  H    -131.819000   65.494000  -65.558000
  H    -138.122000   66.412300  -60.538300

 Total Charge           Charge          ....    0
 Multiplicity           Mult            ....    1
 Number of Electrons    NEL             ....  134
 Basis Dimension        Dim             ....  322

ORBITAL ENERGIES
----------------

  NO   OCC          E(Eh)            E(eV)
   0   2.0000     -88.966139     -2420.8917
   1   2.0000     -88.961975     -2420.7784
   2   2.0000     -10.331312      -281.1293
   3   2.0000     -10.324976      -280.9569
   4   2.0000     -10.318116      -280.7702
   5   2.0000     -10.315422      -280.6969
   6   2.0000     -10.303997      -280.3860
   7   2.0000     -10.301611      -280.3211
   8   2.0000     -10.299566      -280.2654
   9   2.0000     -10.295663      -280.1592
  10   2.0000     -10.292538      -280.0742
  11   2.0000     -10.284654      -279.8597
  12   2.0000     -10.283866      -279.8382
  13   2.0000     -10.281701      -279.7793
  14   2.0000     -10.276196      -279.6295
  15   2.0000     -10.272976      -279.5419
  16   2.0000      -8.081214      -219.9010
  17   2.0000      -8.077871      -219.8100
  18   2.0000      -6.039640      -164.3470
  19   2.0000      -6.036334      -164.2570
  20   2.0000      -6.035623      -164.2376
  21   2.0000      -6.032150      -164.1431
  22   2.0000      -6.032093      -164.1416
  23   2.0000      -6.028637      -164.0475
  24   2.0000      -1.011737       -27.5308
  25   2.0000      -0.989879       -26.9360
  26   2.0000      -0.924816       -25.1655
  27   2.0000      -0.914188       -24.8763
  28   2.0000      -0.869963       -23.6729
  29   2.0000      -0.849974       -23.1290
  30   2.0000      -0.843766       -22.9601
  31   2.0000      -0.812571       -22.1112
  32   2.0000      -0.784699       -21.3528
  33   2.0000      -0.773820       -21.0567
  34   2.0000      -0.710919       -19.3451
  35   2.0000      -0.695711       -18.9313
  36   2.0000      -0.685979       -18.6664
  37   2.0000      -0.661500       -18.0003
  38   2.0000      -0.638410       -17.3720
  39   2.0000      -0.627076       -17.0636
  40   2.0000      -0.598222       -16.2785
  41   2.0000      -0.570630       -15.5276
  42   2.0000      -0.556378       -15.1398
  43   2.0000      -0.548909       -14.9366
  44   2.0000      -0.543822       -14.7982
  45   2.0000      -0.536646       -14.6029
  46   2.0000      -0.523501       -14.2452
  47   2.0000      -0.515397       -14.0247
  48   2.0000      -0.499287       -13.5863
  49   2.0000      -0.495778       -13.4908
  50   2.0000      -0.485492       -13.2109
  51   2.0000      -0.483911       -13.1679
  52   2.0000      -0.469839       -12.7850
  53   2.0000      -0.468180       -12.7398
  54   2.0000      -0.459378       -12.5003
  55   2.0000      -0.450995       -12.2722
  56   2.0000      -0.440629       -11.9901
  57   2.0000      -0.437686       -11.9100
  58   2.0000      -0.434440       -11.8217
  59   2.0000      -0.420987       -11.4556
  60   2.0000      -0.418500       -11.3880
  61   2.0000      -0.414757       -11.2861
  62   2.0000      -0.408493       -11.1157
  63   2.0000      -0.347157        -9.4466
  64   2.0000      -0.329741        -8.9727
  65   2.0000      -0.323565        -8.8046
  66   2.0000      -0.297665        -8.0999
  67   0.0000       0.036600         0.9959
  68   0.0000       0.061446         1.6720
  69   0.0000       0.108052         2.9403
  70   0.0000       0.114611         3.1187
  71   0.0000       0.134083         3.6486

MULLIKEN ATOMIC CHARGES
-----------------------
   0 S :    0.111191
   1 C :   -0.145920
   2 C :   -0.092214
   3 C :    0.001149
   4 C :   -0.167013
   5 H :    0.057603
   6 C :    0.080012
   7 H :    0.027269
   8 H :    0.011766
   9 C :   -0.055590
  10 H :    0.022006
  11 H :    0.035149
  12 C :   -0.061130
  13 H :    0.051860
  14 H :    0.014746
  15 H :    0.023664
  16 S :    0.113300
  17 C :   -0.110351
  18 C :   -0.056918
  19 C :   -0.005194
  20 C :   -0.157841
  21 H :    0.012689
  22 C :    0.030258
  23 H :    0.034939
  24 H :    0.027924
  25 C :   -0.093282
  26 H :    0.028072
  27 H :    0.035888
  28 C :   -0.026889
  29 H :    0.044318
  30 H :    0.011022
  31 H :    0.042628
  32 H :    0.067145
  33 H :    0.087744
Sum of atomic charges:   -0.0000000

LOEWDIN ATOMIC CHARGES
----------------------
   0 S :    0.413647
   1 C :   -0.212110
   2 C :   -0.062541
   3 C :   -0.069094
   4 C :   -0.195928
   5 H :    0.048778
   6 C :   -0.033209
   7 H :    0.031318
   8 H :    0.028799
   9 C :   -0.032502
  10 H :    0.018509
  11 H :    0.025353
  12 C :   -0.074450
  13 H :    0.031069
  14 H :    0.029167
  15 H :    0.016183
  16 S :    0.425339
  17 C :   -0.214146
  18 C :   -0.073457
  19 C :   -0.057472
  20 C :   -0.201374
  21 H :    0.025665
  22 C :   -0.040601
  23 H :    0.038445
  24 H :    0.030088
  25 C :   -0.038253
  26 H :    0.027716
  27 H :    0.022599
  28 C :   -0.060875
  29 H :    0.027334
  30 H :    0.011986
  31 H :    0.031171
  32 H :    0.035393
  33 H :    0.047450

  Mayer bond orders larger than 0.100000
B(  0-S ,  1-C ) :   1.1359 B(  0-S ,  4-C ) :   1.1762 B(  1-C ,  2-C ) :   1.5802
B(  1-C , 32-H ) :   0.9669 B(  2-C ,  3-C ) :   1.2482 B(  2-C ,  6-C ) :   1.0345
B(  3-C ,  4-C ) :   1.5671 B(  3-C ,  5-H ) :   0.9719 B(  4-C , 20-C ) :   1.0126
B(  6-C ,  7-H ) :   0.9453 B(  6-C ,  8-H ) :   0.9209 B(  6-C ,  9-C ) :   1.0771
B(  9-C , 10-H ) :   0.9532 B(  9-C , 11-H ) :   0.9561 B(  9-C , 12-C ) :   1.0565
B( 12-C , 13-H ) :   0.9754 B( 12-C , 14-H ) :   0.9723 B( 12-C , 15-H ) :   0.9700
B( 16-S , 17-C ) :   1.1750 B( 16-S , 20-C ) :   1.1448 B( 17-C , 18-C ) :   1.6106
B( 17-C , 33-H ) :   0.9508 B( 18-C , 19-C ) :   1.2235 B( 18-C , 21-H ) :   0.9880
B( 19-C , 20-C ) :   1.6220 B( 19-C , 22-C ) :   1.0475 B( 22-C , 23-H ) :   0.9384
B( 22-C , 24-H ) :   0.9335 B( 22-C , 25-C ) :   1.0763 B( 25-C , 26-H ) :   0.9573
B( 25-C , 27-H ) :   0.9541 B( 25-C , 28-C ) :   1.0827 B( 28-C , 29-H ) :   0.9670
B( 28-C , 30-H ) :   0.9701 B( 28-C , 31-H ) :   0.9718

Dispersion correction           -0.014333234
FINAL SINGLE POINT ENERGY     -1339.864463867474

DIPOLE MOMENT
-------------
                                X             Y             Z
Electronic contribution:    -13.26298      -9.88073     -11.38066
Nuclear contribution   :     13.65849      10.28089      11.85851
                        -----------------------------------------
Total Dipole Moment    :      0.39551       0.40016       0.47785
                        -----------------------------------------
Magnitude (a.u.)       :      0.73817
Magnitude (Debye)      :      1.87627

Rotational constants in cm-1:     0.022188     0.007751     0.006971
Rotational constants in MHz :   665.182915   232.366257   208.996727

                             ****ORCA TERMINATED NORMALLY****
TOTAL RUN TIME: 0 days 0 hours 0 minutes 21 seconds 902 msec
