                         Program Version 4.2.1 -  RELEASE  -
|  1> ! wB97X-D3 SP def2-SVP
|  2> %pal
|  3> nprocs 24
|  4> end
|  5>
|  6> * xyz 0 1
|  7> S 	 -54.2293 	 7.33424 	 -17.9274
|  8> C 	 -53.0147 	 6.08388 	 -18.2391
|  9> C 	 -51.7683 	 6.65363 	 -18.4709
| 10> C 	 -51.8378 	 8.11459 	 -18.4204
| 11> C 	 -53.0769 	 8.64189 	 -18.196
| 12> H 	 -50.9901 	 8.79901 	 -18.4509
| 13> C 	 -50.4351 	 5.95198 	 -18.7856
| 14> H 	 -49.9601 	 5.64205 	 -17.9045
| 15> H 	 -49.8297 	 6.70511 	 -19.2951
| 16> C 	 -50.5808 	 4.74106 	 -19.7922
| 17> H 	 -51.4568 	 4.136 	 -19.7118
| 18> H 	 -50.7827 	 5.06429 	 -20.8181
| 19> C 	 -49.3112 	 3.86848 	 -19.8296
| 20> H 	 -48.3878 	 4.42459 	 -20.0402
| 21> H 	 -49.0776 	 3.39966 	 -18.8654
| 22> H 	 -49.3698 	 3.03261 	 -20.5455
| 23> S 	 -54.0408 	 10.5435 	 -19.9456
| 24> C 	 -54.4764 	 12.0991 	 -19.3287
| 25> C 	 -54.0824 	 12.2726 	 -17.9999
| 26> C 	 -53.5422 	 11.0452 	 -17.4633
| 27> C 	 -53.4723 	 10.0552 	 -18.4136
| 28> H 	 -54.1898 	 13.2789 	 -17.4899
| 29> C 	 -53.2045 	 10.8698 	 -15.987
| 30> H 	 -52.5804 	 11.6503 	 -15.745
| 31> H 	 -52.4745 	 10.0562 	 -15.9354
| 32> C 	 -54.3867 	 10.7115 	 -15.112
| 33> H 	 -54.82 	 9.72692 	 -15.3352
| 34> H 	 -55.1831 	 11.4532 	 -15.3827
| 35> C 	 -54.1649 	 10.7769 	 -13.6345
| 36> H 	 -54.914 	 10.2168 	 -13.1305
| 37> H 	 -54.1604 	 11.7994 	 -13.153
| 38> H 	 -53.1885 	 10.3328 	 -13.5122
| 39> H 	 -53.289 	 5.00779 	 -18.2694
| 40> H 	 -54.7043 	 12.9491 	 -19.9461
| 41> *
| 42>
| 43>                          ****END OF INPUT****

CARTESIAN COORDINATES (ANGSTROEM)
---------------------------------
  S    -54.229300    7.334240  -17.927400
  C    -53.014700    6.083880  -18.239100
  C    -51.768300    6.653630  -18.470900
  C    -51.837800    8.114590  -18.420400
  C    -53.076900    8.641890  -18.196000
  H    -50.990100    8.799010  -18.450900
  C    -50.435100    5.951980  -18.785600
  H    -49.960100    5.642050  -17.904500
  H    -49.829700    6.705110  -19.295100
  C    -50.580800    4.741060  -19.792200
  H    -51.456800    4.136000  -19.711800
  H    -50.782700    5.064290  -20.818100
  C    -49.311200    3.868480  -19.829600
  H    -48.387800    4.424590  -20.040200
  H    -49.077600    3.399660  -18.865400
  H    -49.369800    3.032610  -20.545500
  S    -54.040800   10.543500  -19.945600
  C    -54.476400   12.099100  -19.328700
  C    -54.082400   12.272600  -17.999900
  C    -53.542200   11.045200  -17.463300
  C    -53.472300   10.055200  -18.413600
  H    -54.189800   13.278900  -17.489900
  C    -53.204500   10.869800  -15.987000
  H    -52.580400   11.650300  -15.745000
  H    -52.474500   10.056200  -15.935400
  C    -54.386700   10.711500  -15.112000
  H    -54.820000    9.726920  -15.335200
  H    -55.183100   11.453200  -15.382700
  C    -54.164900   10.776900  -13.634500
  H    -54.914000   10.216800  -13.130500
  H    -54.160400   11.799400  -13.153000
  H    -53.188500   10.332800  -13.512200
  H    -53.289000    5.007790  -18.269400
  H    -54.704300   12.949100  -19.946100

 Total Charge           Charge          ....    0
 Multiplicity           Mult            ....    1
 Number of Electrons    NEL             ....  134
 Basis Dimension        Dim             ....  322

ORBITAL ENERGIES
----------------

  NO   OCC          E(Eh)            E(eV)
   0   2.0000     -88.966587     -2420.9039
   1   2.0000     -88.963352     -2420.8159
   2   2.0000     -10.327726      -281.0317
   3   2.0000     -10.321474      -280.8616
   4   2.0000     -10.321304      -280.8570
   5   2.0000     -10.314677      -280.6766
   6   2.0000     -10.307761      -280.4884
   7   2.0000     -10.301058      -280.3060
   8   2.0000     -10.300262      -280.2844
   9   2.0000     -10.296918      -280.1934
  10   2.0000     -10.295082      -280.1434
  11   2.0000     -10.289349      -279.9874
  12   2.0000     -10.281335      -279.7693
  13   2.0000     -10.279038      -279.7069
  14   2.0000     -10.278832      -279.7012
  15   2.0000     -10.271747      -279.5084
  16   2.0000      -8.082340      -219.9316
  17   2.0000      -8.077587      -219.8023
  18   2.0000      -6.040672      -164.3750
  19   2.0000      -6.036686      -164.2666
  20   2.0000      -6.036281      -164.2555
  21   2.0000      -6.033243      -164.1729
  22   2.0000      -6.032055      -164.1406
  23   2.0000      -6.028278      -164.0378
  24   2.0000      -1.007636       -27.4192
  25   2.0000      -0.981545       -26.7092
  26   2.0000      -0.916825       -24.9481
  27   2.0000      -0.904063       -24.6008
  28   2.0000      -0.864864       -23.5342
  29   2.0000      -0.852979       -23.2107
  30   2.0000      -0.844007       -22.9666
  31   2.0000      -0.813399       -22.1337
  32   2.0000      -0.783443       -21.3186
  33   2.0000      -0.770912       -20.9776
  34   2.0000      -0.712876       -19.3983
  35   2.0000      -0.696516       -18.9532
  36   2.0000      -0.690323       -18.7846
  37   2.0000      -0.657865       -17.9014
  38   2.0000      -0.643501       -17.5105
  39   2.0000      -0.612951       -16.6792
  40   2.0000      -0.595966       -16.2171
  41   2.0000      -0.566680       -15.4201
  42   2.0000      -0.560349       -15.2479
  43   2.0000      -0.554697       -15.0941
  44   2.0000      -0.533724       -14.5234
  45   2.0000      -0.522683       -14.2229
  46   2.0000      -0.519505       -14.1364
  47   2.0000      -0.513482       -13.9725
  48   2.0000      -0.506093       -13.7715
  49   2.0000      -0.501970       -13.6593
  50   2.0000      -0.492012       -13.3883
  51   2.0000      -0.473213       -12.8768
  52   2.0000      -0.469765       -12.7830
  53   2.0000      -0.462870       -12.5953
  54   2.0000      -0.456509       -12.4222
  55   2.0000      -0.451750       -12.2927
  56   2.0000      -0.449325       -12.2268
  57   2.0000      -0.436878       -11.8880
  58   2.0000      -0.430136       -11.7046
  59   2.0000      -0.421917       -11.4809
  60   2.0000      -0.420369       -11.4388
  61   2.0000      -0.414500       -11.2791
  62   2.0000      -0.404651       -11.0111
  63   2.0000      -0.336043        -9.1442
  64   2.0000      -0.327936        -8.9236
  65   2.0000      -0.320357        -8.7173
  66   2.0000      -0.316283        -8.6065
  67   0.0000       0.048535         1.3207
  68   0.0000       0.054534         1.4839
  69   0.0000       0.113679         3.0934
  70   0.0000       0.124901         3.3987
  71   0.0000       0.133007         3.6193

MULLIKEN ATOMIC CHARGES
-----------------------
   0 S :    0.100791
   1 C :   -0.158251
   2 C :   -0.080919
   3 C :    0.030622
   4 C :   -0.171255
   5 H :    0.018160
   6 C :    0.109241
   7 H :    0.035063
   8 H :    0.032691
   9 C :   -0.075915
  10 H :    0.016441
  11 H :    0.025043
  12 C :   -0.068882
  13 H :    0.029844
  14 H :    0.025528
  15 H :    0.035795
  16 S :    0.137172
  17 C :   -0.100110
  18 C :   -0.062610
  19 C :   -0.072188
  20 C :   -0.174922
  21 H :    0.046373
  22 C :    0.149474
  23 H :   -0.008404
  24 H :    0.012756
  25 C :   -0.084224
  26 H :    0.023155
  27 H :    0.031020
  28 C :   -0.017169
  29 H :    0.028668
  30 H :    0.038599
  31 H :    0.020403
  32 H :    0.070653
  33 H :    0.057359
Sum of atomic charges:   -0.0000000

LOEWDIN ATOMIC CHARGES
----------------------
   0 S :    0.386552
   1 C :   -0.194437
   2 C :   -0.063432
   3 C :   -0.063197
   4 C :   -0.194676
   5 H :    0.032939
   6 C :   -0.017448
   7 H :    0.025643
   8 H :    0.035156
   9 C :   -0.042588
  10 H :    0.018184
  11 H :    0.028466
  12 C :   -0.072252
  13 H :    0.025302
  14 H :    0.022417
  15 H :    0.028085
  16 S :    0.440520
  17 C :   -0.196446
  18 C :   -0.075764
  19 C :   -0.048540
  20 C :   -0.222274
  21 H :    0.043769
  22 C :   -0.031995
  23 H :    0.018422
  24 H :    0.031683
  25 C :   -0.047132
  26 H :    0.027904
  27 H :    0.027842
  28 C :   -0.063871
  29 H :    0.023964
  30 H :    0.030198
  31 H :    0.023956
  32 H :    0.036284
  33 H :    0.026765

  Mayer bond orders larger than 0.100000
B(  0-S ,  1-C ) :   1.1364 B(  0-S ,  4-C ) :   1.1382 B(  1-C ,  2-C ) :   1.6193
B(  1-C , 32-H ) :   0.9664 B(  2-C ,  3-C ) :   1.2262 B(  2-C ,  6-C ) :   1.0040
B(  3-C ,  4-C ) :   1.6261 B(  3-C ,  5-H ) :   0.9870 B(  4-C , 20-C ) :   0.9896
B(  6-C ,  7-H ) :   0.9461 B(  6-C ,  8-H ) :   0.9456 B(  6-C ,  9-C ) :   1.0447
B(  9-C , 10-H ) :   0.9617 B(  9-C , 11-H ) :   0.9548 B(  9-C , 12-C ) :   1.0801
B( 12-C , 13-H ) :   0.9750 B( 12-C , 14-H ) :   0.9768 B( 12-C , 15-H ) :   0.9746
B( 16-S , 17-C ) :   1.1704 B( 16-S , 20-C ) :   1.1595 B( 17-C , 18-C ) :   1.6067
B( 17-C , 33-H ) :   0.9639 B( 18-C , 19-C ) :   1.2487 B( 18-C , 21-H ) :   0.9793
B( 19-C , 20-C ) :   1.6149 B( 19-C , 22-C ) :   1.0384 B( 22-C , 23-H ) :   0.9202
B( 22-C , 24-H ) :   0.9064 B( 22-C , 25-C ) :   1.0749 B( 25-C , 26-H ) :   0.9448
B( 25-C , 27-H ) :   0.9567 B( 25-C , 28-C ) :   1.0859 B( 28-C , 29-H ) :   0.9728
B( 28-C , 30-H ) :   0.9734 B( 28-C , 31-H ) :   0.9713

Dispersion correction           -0.013891919
FINAL SINGLE POINT ENERGY     -1339.879262215318

DIPOLE MOMENT
-------------
                                X             Y             Z
Electronic contribution:    -13.49811       8.90037     -11.19171
Nuclear contribution   :     13.95114      -8.88129      11.32391
                        -----------------------------------------
Total Dipole Moment    :      0.45303       0.01908       0.13220
                        -----------------------------------------
Magnitude (a.u.)       :      0.47231
Magnitude (Debye)      :      1.20051

Rotational constants in cm-1:     0.021724     0.007072     0.006073
Rotational constants in MHz :   651.255654   212.020174   182.052169

                             ****ORCA TERMINATED NORMALLY****
TOTAL RUN TIME: 0 days 0 hours 0 minutes 19 seconds 745 msec
