                         Program Version 4.2.1 -  RELEASE  -
|  1> ! wB97X-D3 SP def2-SVP
|  2> %pal
|  3> nprocs 24
|  4> end
|  5>
|  6> * xyz 0 1
|  7> S 	 -107.457 	 18.1751 	 -114.014
|  8> C 	 -106.029 	 17.6372 	 -114.945
|  9> C 	 -105.322 	 18.7401 	 -115.442
| 10> C 	 -106.138 	 19.862 	 -115.507
| 11> C 	 -107.301 	 19.7247 	 -114.786
| 12> H 	 -105.873 	 20.7017 	 -116.013
| 13> C 	 -104.042 	 18.6282 	 -116.246
| 14> H 	 -104.155 	 17.8264 	 -116.935
| 15> H 	 -103.368 	 18.3411 	 -115.492
| 16> C 	 -103.441 	 20.0078 	 -116.807
| 17> H 	 -102.518 	 19.9495 	 -117.388
| 18> H 	 -104.107 	 20.5432 	 -117.45
| 19> C 	 -102.883 	 20.8836 	 -115.643
| 20> H 	 -102.223 	 20.3694 	 -115.039
| 21> H 	 -102.528 	 21.8332 	 -115.972
| 22> H 	 -103.759 	 21.1314 	 -115.043
| 23> S 	 -108.408 	 21.4221 	 -112.949
| 24> C 	 -109.734 	 22.4189 	 -113.438
| 25> C 	 -110.011 	 22.2873 	 -114.768
| 26> C 	 -109.234 	 21.3185 	 -115.442
| 27> C 	 -108.35 	 20.7422 	 -114.555
| 28> H 	 -110.908 	 22.7154 	 -115.236
| 29> C 	 -109.392 	 20.9881 	 -116.964
| 30> H 	 -110.395 	 21.1018 	 -117.242
| 31> H 	 -109.159 	 19.9928 	 -116.945
| 32> C 	 -108.52 	 21.8618 	 -117.881
| 33> H 	 -107.615 	 22.1441 	 -117.306
| 34> H 	 -109.036 	 22.7577 	 -118.075
| 35> C 	 -108.226 	 21.2994 	 -119.292
| 36> H 	 -107.551 	 21.9627 	 -119.905
| 37> H 	 -109.15 	 21.1541 	 -119.905
| 38> H 	 -107.743 	 20.3053 	 -119.282
| 39> H 	 -105.617 	 16.639 	 -114.938
| 40> H 	 -110.356 	 23.0335 	 -112.71
| 41> *
| 42>
| 43>                          ****END OF INPUT****

CARTESIAN COORDINATES (ANGSTROEM)
---------------------------------
  S    -107.457000   18.175100  -114.014000
  C    -106.029000   17.637200  -114.945000
  C    -105.322000   18.740100  -115.442000
  C    -106.138000   19.862000  -115.507000
  C    -107.301000   19.724700  -114.786000
  H    -105.873000   20.701700  -116.013000
  C    -104.042000   18.628200  -116.246000
  H    -104.155000   17.826400  -116.935000
  H    -103.368000   18.341100  -115.492000
  C    -103.441000   20.007800  -116.807000
  H    -102.518000   19.949500  -117.388000
  H    -104.107000   20.543200  -117.450000
  C    -102.883000   20.883600  -115.643000
  H    -102.223000   20.369400  -115.039000
  H    -102.528000   21.833200  -115.972000
  H    -103.759000   21.131400  -115.043000
  S    -108.408000   21.422100  -112.949000
  C    -109.734000   22.418900  -113.438000
  C    -110.011000   22.287300  -114.768000
  C    -109.234000   21.318500  -115.442000
  C    -108.350000   20.742200  -114.555000
  H    -110.908000   22.715400  -115.236000
  C    -109.392000   20.988100  -116.964000
  H    -110.395000   21.101800  -117.242000
  H    -109.159000   19.992800  -116.945000
  C    -108.520000   21.861800  -117.881000
  H    -107.615000   22.144100  -117.306000
  H    -109.036000   22.757700  -118.075000
  C    -108.226000   21.299400  -119.292000
  H    -107.551000   21.962700  -119.905000
  H    -109.150000   21.154100  -119.905000
  H    -107.743000   20.305300  -119.282000
  H    -105.617000   16.639000  -114.938000
  H    -110.356000   23.033500  -112.710000

 Total Charge           Charge          ....    0
 Multiplicity           Mult            ....    1
 Number of Electrons    NEL             ....  134
 Basis Dimension        Dim             ....  322

ORBITAL ENERGIES
----------------

  NO   OCC          E(Eh)            E(eV)
   0   2.0000     -88.968111     -2420.9454
   1   2.0000     -88.964425     -2420.8451
   2   2.0000     -10.324352      -280.9399
   3   2.0000     -10.321075      -280.8507
   4   2.0000     -10.315536      -280.7000
   5   2.0000     -10.314148      -280.6622
   6   2.0000     -10.298787      -280.2442
   7   2.0000     -10.298404      -280.2338
   8   2.0000     -10.293763      -280.1075
   9   2.0000     -10.292731      -280.0794
  10   2.0000     -10.287580      -279.9393
  11   2.0000     -10.286936      -279.9218
  12   2.0000     -10.285785      -279.8904
  13   2.0000     -10.283247      -279.8214
  14   2.0000     -10.282364      -279.7974
  15   2.0000     -10.271112      -279.4912
  16   2.0000      -8.082285      -219.9301
  17   2.0000      -8.079753      -219.8613
  18   2.0000      -6.040679      -164.3752
  19   2.0000      -6.038112      -164.3054
  20   2.0000      -6.037015      -164.2755
  21   2.0000      -6.034287      -164.2013
  22   2.0000      -6.033061      -164.1679
  23   2.0000      -6.030533      -164.0992
  24   2.0000      -1.008109       -27.4320
  25   2.0000      -0.986303       -26.8387
  26   2.0000      -0.909789       -24.7566
  27   2.0000      -0.906110       -24.6565
  28   2.0000      -0.864616       -23.5274
  29   2.0000      -0.849243       -23.1091
  30   2.0000      -0.847279       -23.0556
  31   2.0000      -0.816020       -22.2050
  32   2.0000      -0.786131       -21.3917
  33   2.0000      -0.770132       -20.9564
  34   2.0000      -0.712578       -19.3902
  35   2.0000      -0.702672       -19.1207
  36   2.0000      -0.690797       -18.7975
  37   2.0000      -0.657703       -17.8970
  38   2.0000      -0.641027       -17.4432
  39   2.0000      -0.628925       -17.1139
  40   2.0000      -0.592240       -16.1157
  41   2.0000      -0.568505       -15.4698
  42   2.0000      -0.565750       -15.3948
  43   2.0000      -0.548923       -14.9369
  44   2.0000      -0.535465       -14.5707
  45   2.0000      -0.524842       -14.2817
  46   2.0000      -0.518902       -14.1200
  47   2.0000      -0.513955       -13.9854
  48   2.0000      -0.502693       -13.6790
  49   2.0000      -0.495878       -13.4935
  50   2.0000      -0.485726       -13.2173
  51   2.0000      -0.483579       -13.1589
  52   2.0000      -0.472490       -12.8571
  53   2.0000      -0.464405       -12.6371
  54   2.0000      -0.456656       -12.4262
  55   2.0000      -0.455288       -12.3890
  56   2.0000      -0.446381       -12.1466
  57   2.0000      -0.435366       -11.8469
  58   2.0000      -0.434643       -11.8272
  59   2.0000      -0.430984       -11.7277
  60   2.0000      -0.422391       -11.4938
  61   2.0000      -0.420084       -11.4311
  62   2.0000      -0.410805       -11.1786
  63   2.0000      -0.338903        -9.2220
  64   2.0000      -0.331420        -9.0184
  65   2.0000      -0.326630        -8.8881
  66   2.0000      -0.296551        -8.0696
  67   0.0000       0.037362         1.0167
  68   0.0000       0.060475         1.6456
  69   0.0000       0.110720         3.0128
  70   0.0000       0.123170         3.3516
  71   0.0000       0.130426         3.5491

MULLIKEN ATOMIC CHARGES
-----------------------
   0 S :    0.122101
   1 C :   -0.134905
   2 C :   -0.103438
   3 C :    0.086619
   4 C :   -0.159146
   5 H :   -0.035336
   6 C :    0.104038
   7 H :    0.042240
   8 H :    0.018678
   9 C :   -0.099214
  10 H :    0.031810
  11 H :    0.031411
  12 C :   -0.032903
  13 H :    0.024356
  14 H :    0.029993
  15 H :    0.019879
  16 S :    0.119392
  17 C :   -0.114796
  18 C :   -0.033203
  19 C :   -0.071976
  20 C :   -0.201538
  21 H :    0.020139
  22 C :    0.173276
  23 H :    0.003728
  24 H :    0.009128
  25 C :   -0.050717
  26 H :    0.036831
  27 H :    0.016632
  28 C :   -0.088234
  29 H :    0.042223
  30 H :    0.035703
  31 H :    0.036865
  32 H :    0.043096
  33 H :    0.077268
Sum of atomic charges:   -0.0000000

LOEWDIN ATOMIC CHARGES
----------------------
   0 S :    0.403753
   1 C :   -0.189388
   2 C :   -0.055939
   3 C :   -0.051394
   4 C :   -0.196325
   5 H :    0.013278
   6 C :   -0.021826
   7 H :    0.031321
   8 H :    0.030077
   9 C :   -0.039377
  10 H :    0.029051
  11 H :    0.016619
  12 C :   -0.054066
  13 H :    0.015038
  14 H :    0.024093
  15 H :    0.023576
  16 S :    0.414863
  17 C :   -0.204040
  18 C :   -0.080346
  19 C :   -0.053458
  20 C :   -0.206130
  21 H :    0.033194
  22 C :   -0.008333
  23 H :    0.022854
  24 H :    0.020230
  25 C :   -0.037499
  26 H :    0.026520
  27 H :    0.019928
  28 C :   -0.075596
  29 H :    0.031606
  30 H :    0.028451
  31 H :    0.024425
  32 H :    0.022605
  33 H :    0.042235

  Mayer bond orders larger than 0.100000
B(  0-S ,  1-C ) :   1.1390 B(  0-S ,  4-C ) :   1.1629 B(  1-C ,  2-C ) :   1.6014
B(  1-C ,  4-C ) :   0.1134 B(  1-C , 32-H ) :   0.9737 B(  2-C ,  3-C ) :   1.2575
B(  2-C ,  6-C ) :   0.9886 B(  3-C ,  4-C ) :   1.5626 B(  3-C ,  5-H ) :   1.0041
B(  4-C , 20-C ) :   0.9892 B(  6-C ,  7-H ) :   0.9518 B(  6-C ,  8-H ) :   0.9301
B(  6-C ,  9-C ) :   1.0650 B(  9-C , 10-H ) :   0.9611 B(  9-C , 11-H ) :   0.9568
B(  9-C , 12-C ) :   1.0656 B( 12-C , 13-H ) :   0.9761 B( 12-C , 14-H ) :   0.9735
B( 12-C , 15-H ) :   0.9772 B( 16-S , 17-C ) :   1.1481 B( 16-S , 20-C ) :   1.1643
B( 17-C , 18-C ) :   1.6164 B( 17-C , 33-H ) :   0.9574 B( 18-C , 19-C ) :   1.2523
B( 18-C , 21-H ) :   0.9808 B( 19-C , 20-C ) :   1.6217 B( 19-C , 22-C ) :   1.0275
B( 22-C , 23-H ) :   0.9305 B( 22-C , 24-H ) :   0.9289 B( 22-C , 25-C ) :   1.0574
B( 25-C , 26-H ) :   0.9608 B( 25-C , 27-H ) :   0.9505 B( 25-C , 28-C ) :   1.0767
B( 28-C , 29-H ) :   0.9750 B( 28-C , 30-H ) :   0.9737 B( 28-C , 31-H ) :   0.9780

Dispersion correction           -0.014880605
FINAL SINGLE POINT ENERGY     -1339.851405151997

DIPOLE MOMENT
-------------
                                X             Y             Z
Electronic contribution:    -13.00397      -6.47787      23.49955
Nuclear contribution   :     13.22642       6.59606     -24.04980
                        -----------------------------------------
Total Dipole Moment    :      0.22245       0.11819      -0.55025
                        -----------------------------------------
Magnitude (a.u.)       :      0.60517
Magnitude (Debye)      :      1.53822

Rotational constants in cm-1:     0.016037     0.010056     0.007989
Rotational constants in MHz :   480.784302   301.464685   239.514857

                             ****ORCA TERMINATED NORMALLY****
TOTAL RUN TIME: 0 days 0 hours 0 minutes 22 seconds 340 msec
