                         Program Version 4.2.1 -  RELEASE  -
|  1> ! wB97X-D3 SP def2-SVP
|  2> %pal
|  3> nprocs 24
|  4> end
|  5>
|  6> * xyz 0 1
|  7> S 	 46.2726 	 -34.384 	 -119.887
|  8> C 	 46.2314 	 -32.7264 	 -120.374
|  9> C 	 45.8188 	 -31.9163 	 -119.319
| 10> C 	 45.6662 	 -32.6833 	 -118.132
| 11> C 	 45.9138 	 -34.0613 	 -118.294
| 12> H 	 45.441 	 -32.2544 	 -117.174
| 13> C 	 45.5555 	 -30.44 	 -119.266
| 14> H 	 45.9693 	 -30.1638 	 -118.319
| 15> H 	 44.5131 	 -30.1443 	 -119.379
| 16> C 	 46.2901 	 -29.6082 	 -120.261
| 17> H 	 47.3164 	 -29.9769 	 -120.399
| 18> H 	 45.8389 	 -29.7166 	 -121.254
| 19> C 	 46.3075 	 -28.1085 	 -119.976
| 20> H 	 46.7503 	 -27.8563 	 -119.033
| 21> H 	 46.9483 	 -27.6117 	 -120.738
| 22> H 	 45.2459 	 -27.7256 	 -120.192
| 23> S 	 47.4702 	 -35.9874 	 -117.245
| 24> C 	 47.0657 	 -36.8189 	 -115.836
| 25> C 	 45.8756 	 -36.4054 	 -115.327
| 26> C 	 45.2337 	 -35.4181 	 -116.158
| 27> C 	 46.0029 	 -35.0298 	 -117.211
| 28> H 	 45.5677 	 -36.8745 	 -114.398
| 29> C 	 43.8323 	 -34.9057 	 -115.883
| 30> H 	 43.8926 	 -33.7953 	 -115.781
| 31> H 	 43.4996 	 -35.4123 	 -114.998
| 32> C 	 42.8094 	 -35.1175 	 -117.007
| 33> H 	 42.7452 	 -36.1968 	 -117.219
| 34> H 	 43.1975 	 -34.6513 	 -117.982
| 35> C 	 41.4071 	 -34.5458 	 -116.711
| 36> H 	 41.3362 	 -33.4304 	 -116.699
| 37> H 	 41.2132 	 -34.7715 	 -115.671
| 38> H 	 40.6324 	 -34.95 	 -117.397
| 39> H 	 46.2352 	 -32.3254 	 -121.37
| 40> H 	 47.7362 	 -37.5917 	 -115.477
| 41> *
| 42>
| 43>                          ****END OF INPUT****

CARTESIAN COORDINATES (ANGSTROEM)
---------------------------------
  S     46.272600  -34.384000  -119.887000
  C     46.231400  -32.726400  -120.374000
  C     45.818800  -31.916300  -119.319000
  C     45.666200  -32.683300  -118.132000
  C     45.913800  -34.061300  -118.294000
  H     45.441000  -32.254400  -117.174000
  C     45.555500  -30.440000  -119.266000
  H     45.969300  -30.163800  -118.319000
  H     44.513100  -30.144300  -119.379000
  C     46.290100  -29.608200  -120.261000
  H     47.316400  -29.976900  -120.399000
  H     45.838900  -29.716600  -121.254000
  C     46.307500  -28.108500  -119.976000
  H     46.750300  -27.856300  -119.033000
  H     46.948300  -27.611700  -120.738000
  H     45.245900  -27.725600  -120.192000
  S     47.470200  -35.987400  -117.245000
  C     47.065700  -36.818900  -115.836000
  C     45.875600  -36.405400  -115.327000
  C     45.233700  -35.418100  -116.158000
  C     46.002900  -35.029800  -117.211000
  H     45.567700  -36.874500  -114.398000
  C     43.832300  -34.905700  -115.883000
  H     43.892600  -33.795300  -115.781000
  H     43.499600  -35.412300  -114.998000
  C     42.809400  -35.117500  -117.007000
  H     42.745200  -36.196800  -117.219000
  H     43.197500  -34.651300  -117.982000
  C     41.407100  -34.545800  -116.711000
  H     41.336200  -33.430400  -116.699000
  H     41.213200  -34.771500  -115.671000
  H     40.632400  -34.950000  -117.397000
  H     46.235200  -32.325400  -121.370000
  H     47.736200  -37.591700  -115.477000

 Total Charge           Charge          ....    0
 Multiplicity           Mult            ....    1
 Number of Electrons    NEL             ....  134
 Basis Dimension        Dim             ....  322

ORBITAL ENERGIES
----------------

  NO   OCC          E(Eh)            E(eV)
   0   2.0000     -88.970062     -2420.9985
   1   2.0000     -88.957981     -2420.6697
   2   2.0000     -10.326553      -280.9998
   3   2.0000     -10.322629      -280.8930
   4   2.0000     -10.310417      -280.5607
   5   2.0000     -10.310068      -280.5512
   6   2.0000     -10.302970      -280.3581
   7   2.0000     -10.299108      -280.2530
   8   2.0000     -10.292390      -280.0702
   9   2.0000     -10.291559      -280.0475
  10   2.0000     -10.289419      -279.9893
  11   2.0000     -10.287547      -279.9384
  12   2.0000     -10.287160      -279.9279
  13   2.0000     -10.285680      -279.8876
  14   2.0000     -10.281987      -279.7871
  15   2.0000     -10.280503      -279.7467
  16   2.0000      -8.086202      -220.0367
  17   2.0000      -8.074685      -219.7233
  18   2.0000      -6.044575      -164.4812
  19   2.0000      -6.040287      -164.3646
  20   2.0000      -6.037234      -164.2815
  21   2.0000      -6.033002      -164.1663
  22   2.0000      -6.028809      -164.0522
  23   2.0000      -6.025615      -163.9653
  24   2.0000      -1.018490       -27.7145
  25   2.0000      -0.995225       -27.0814
  26   2.0000      -0.923012       -25.1164
  27   2.0000      -0.907272       -24.6881
  28   2.0000      -0.872719       -23.7479
  29   2.0000      -0.854334       -23.2476
  30   2.0000      -0.847185       -23.0531
  31   2.0000      -0.812078       -22.0978
  32   2.0000      -0.784846       -21.3567
  33   2.0000      -0.774905       -21.0862
  34   2.0000      -0.709775       -19.3140
  35   2.0000      -0.695635       -18.9292
  36   2.0000      -0.683565       -18.6007
  37   2.0000      -0.667032       -18.1509
  38   2.0000      -0.639759       -17.4087
  39   2.0000      -0.617289       -16.7973
  40   2.0000      -0.596540       -16.2327
  41   2.0000      -0.581608       -15.8263
  42   2.0000      -0.575124       -15.6499
  43   2.0000      -0.562604       -15.3092
  44   2.0000      -0.524487       -14.2720
  45   2.0000      -0.522421       -14.2158
  46   2.0000      -0.515824       -14.0363
  47   2.0000      -0.512819       -13.9545
  48   2.0000      -0.506555       -13.7841
  49   2.0000      -0.504116       -13.7177
  50   2.0000      -0.495311       -13.4781
  51   2.0000      -0.485573       -13.2131
  52   2.0000      -0.476389       -12.9632
  53   2.0000      -0.467630       -12.7249
  54   2.0000      -0.458032       -12.4637
  55   2.0000      -0.447688       -12.1822
  56   2.0000      -0.442595       -12.0436
  57   2.0000      -0.431254       -11.7350
  58   2.0000      -0.430742       -11.7211
  59   2.0000      -0.423536       -11.5250
  60   2.0000      -0.420733       -11.4487
  61   2.0000      -0.415310       -11.3012
  62   2.0000      -0.409899       -11.1539
  63   2.0000      -0.348221        -9.4756
  64   2.0000      -0.332659        -9.0521
  65   2.0000      -0.327974        -8.9246
  66   2.0000      -0.293588        -7.9889
  67   0.0000       0.034342         0.9345
  68   0.0000       0.077040         2.0964
  69   0.0000       0.118889         3.2351
  70   0.0000       0.124392         3.3849
  71   0.0000       0.139843         3.8053

MULLIKEN ATOMIC CHARGES
-----------------------
   0 S :    0.141267
   1 C :   -0.116693
   2 C :   -0.105014
   3 C :    0.017655
   4 C :   -0.145660
   5 H :    0.001728
   6 C :    0.126812
   7 H :    0.014730
   8 H :    0.042344
   9 C :   -0.139415
  10 H :    0.027368
  11 H :    0.022351
  12 C :   -0.049627
  13 H :    0.035734
  14 H :    0.034922
  15 H :    0.041077
  16 S :    0.097225
  17 C :   -0.093292
  18 C :   -0.042607
  19 C :   -0.033607
  20 C :   -0.154028
  21 H :    0.017742
  22 C :    0.093059
  23 H :    0.033862
  24 H :    0.009449
  25 C :   -0.116578
  26 H :    0.031669
  27 H :    0.051497
  28 C :   -0.044814
  29 H :    0.031402
  30 H :    0.016016
  31 H :    0.050152
  32 H :    0.042663
  33 H :    0.060610
Sum of atomic charges:    0.0000000

LOEWDIN ATOMIC CHARGES
----------------------
   0 S :    0.465052
   1 C :   -0.216742
   2 C :   -0.059303
   3 C :   -0.064379
   4 C :   -0.228734
   5 H :    0.024381
   6 C :   -0.031184
   7 H :    0.030823
   8 H :    0.037311
   9 C :   -0.053135
  10 H :    0.022092
  11 H :    0.020713
  12 C :   -0.065542
  13 H :    0.019972
  14 H :    0.031499
  15 H :    0.034391
  16 S :    0.424656
  17 C :   -0.197718
  18 C :   -0.079844
  19 C :   -0.057913
  20 C :   -0.193989
  21 H :    0.033767
  22 C :   -0.030549
  23 H :    0.035983
  24 H :    0.024724
  25 C :   -0.048567
  26 H :    0.023864
  27 H :    0.031589
  28 C :   -0.072022
  29 H :    0.027504
  30 H :    0.020335
  31 H :    0.033390
  32 H :    0.027646
  33 H :    0.029929

  Mayer bond orders larger than 0.100000
B(  0-S ,  1-C ) :   1.1491 B(  0-S ,  4-C ) :   1.1972 B(  1-C ,  2-C ) :   1.5703
B(  1-C , 32-H ) :   0.9674 B(  2-C ,  3-C ) :   1.3031 B(  2-C ,  6-C ) :   1.0111
B(  3-C ,  4-C ) :   1.5036 B(  3-C ,  5-H ) :   0.9979 B(  4-C , 20-C ) :   1.0255
B(  6-C ,  7-H ) :   0.9400 B(  6-C ,  8-H ) :   0.9268 B(  6-C ,  9-C ) :   1.0826
B(  9-C , 10-H ) :   0.9566 B(  9-C , 11-H ) :   0.9453 B(  9-C , 12-C ) :   1.0960
B( 12-C , 13-H ) :   0.9757 B( 12-C , 14-H ) :   0.9718 B( 12-C , 15-H ) :   0.9723
B( 16-S , 17-C ) :   1.1803 B( 16-S , 20-C ) :   1.1431 B( 17-C , 18-C ) :   1.5988
B( 17-C , 33-H ) :   0.9675 B( 18-C , 19-C ) :   1.2218 B( 18-C , 21-H ) :   0.9994
B( 19-C , 20-C ) :   1.6139 B( 19-C , 22-C ) :   1.0487 B( 22-C , 23-H ) :   0.9306
B( 22-C , 24-H ) :   0.9265 B( 22-C , 25-C ) :   1.0701 B( 25-C , 26-H ) :   0.9544
B( 25-C , 27-H ) :   0.9519 B( 25-C , 28-C ) :   1.0772 B( 28-C , 29-H ) :   0.9738
B( 28-C , 30-H ) :   0.9721 B( 28-C , 31-H ) :   0.9747

Dispersion correction           -0.013875437
FINAL SINGLE POINT ENERGY     -1339.887375060459

DIPOLE MOMENT
-------------
                                X             Y             Z
Electronic contribution:     16.26320     -21.31390      -0.92100
Nuclear contribution   :    -16.56322      21.65814       1.11223
                        -----------------------------------------
Total Dipole Moment    :     -0.30003       0.34425       0.19123
                        -----------------------------------------
Magnitude (a.u.)       :      0.49507
Magnitude (Debye)      :      1.25836

Rotational constants in cm-1:     0.019669     0.007899     0.006512
Rotational constants in MHz :   589.666554   236.817303   195.222055

                             ****ORCA TERMINATED NORMALLY****
TOTAL RUN TIME: 0 days 0 hours 0 minutes 21 seconds 418 msec
