                         Program Version 4.2.1 -  RELEASE  -
|  1> ! wB97X-D3 SP def2-SVP
|  2> %pal
|  3> nprocs 24
|  4> end
|  5>
|  6> * xyz 0 1
|  7> S 	 30.6908 	 -28.5913 	 -130.352
|  8> C 	 29.9055 	 -28.0038 	 -131.848
|  9> C 	 29.1339 	 -28.9733 	 -132.48
| 10> C 	 29.1263 	 -30.2193 	 -131.727
| 11> C 	 29.9567 	 -30.2035 	 -130.599
| 12> H 	 28.617 	 -31.0973 	 -131.986
| 13> C 	 28.1794 	 -28.734 	 -133.651
| 14> H 	 27.2336 	 -28.4344 	 -133.204
| 15> H 	 28.0282 	 -29.7032 	 -134.178
| 16> C 	 28.6101 	 -27.6081 	 -134.633
| 17> H 	 28.968 	 -26.7478 	 -134.09
| 18> H 	 29.4405 	 -28.0288 	 -135.189
| 19> C 	 27.5851 	 -27.2482 	 -135.692
| 20> H 	 26.834 	 -26.58 	 -135.246
| 21> H 	 28.11 	 -26.5995 	 -136.41
| 22> H 	 27.0886 	 -28.1077 	 -136.08
| 23> S 	 30.1662 	 -32.9608 	 -130.191
| 24> C 	 29.9928 	 -33.5976 	 -128.628
| 25> C 	 30.0272 	 -32.695 	 -127.617
| 26> C 	 30.1416 	 -31.3722 	 -128.164
| 27> C 	 30.0678 	 -31.3141 	 -129.615
| 28> H 	 30.0416 	 -33.0321 	 -126.606
| 29> C 	 30.01 	 -30.1387 	 -127.302
| 30> H 	 29.3931 	 -30.3077 	 -126.392
| 31> H 	 29.4226 	 -29.4092 	 -127.81
| 32> C 	 31.3862 	 -29.5836 	 -126.878
| 33> H 	 31.2109 	 -28.6243 	 -126.388
| 34> H 	 32.0267 	 -29.2896 	 -127.756
| 35> C 	 32.0986 	 -30.506 	 -125.903
| 36> H 	 31.4878 	 -30.638 	 -125.043
| 37> H 	 33.0292 	 -30.0608 	 -125.542
| 38> H 	 32.3834 	 -31.5102 	 -126.204
| 39> H 	 29.8647 	 -26.959 	 -132.176
| 40> H 	 29.8588 	 -34.6131 	 -128.384
| 41> *
| 42>
| 43>                          ****END OF INPUT****

CARTESIAN COORDINATES (ANGSTROEM)
---------------------------------
  S     30.690800  -28.591300  -130.352000
  C     29.905500  -28.003800  -131.848000
  C     29.133900  -28.973300  -132.480000
  C     29.126300  -30.219300  -131.727000
  C     29.956700  -30.203500  -130.599000
  H     28.617000  -31.097300  -131.986000
  C     28.179400  -28.734000  -133.651000
  H     27.233600  -28.434400  -133.204000
  H     28.028200  -29.703200  -134.178000
  C     28.610100  -27.608100  -134.633000
  H     28.968000  -26.747800  -134.090000
  H     29.440500  -28.028800  -135.189000
  C     27.585100  -27.248200  -135.692000
  H     26.834000  -26.580000  -135.246000
  H     28.110000  -26.599500  -136.410000
  H     27.088600  -28.107700  -136.080000
  S     30.166200  -32.960800  -130.191000
  C     29.992800  -33.597600  -128.628000
  C     30.027200  -32.695000  -127.617000
  C     30.141600  -31.372200  -128.164000
  C     30.067800  -31.314100  -129.615000
  H     30.041600  -33.032100  -126.606000
  C     30.010000  -30.138700  -127.302000
  H     29.393100  -30.307700  -126.392000
  H     29.422600  -29.409200  -127.810000
  C     31.386200  -29.583600  -126.878000
  H     31.210900  -28.624300  -126.388000
  H     32.026700  -29.289600  -127.756000
  C     32.098600  -30.506000  -125.903000
  H     31.487800  -30.638000  -125.043000
  H     33.029200  -30.060800  -125.542000
  H     32.383400  -31.510200  -126.204000
  H     29.864700  -26.959000  -132.176000
  H     29.858800  -34.613100  -128.384000

 Total Charge           Charge          ....    0
 Multiplicity           Mult            ....    1
 Number of Electrons    NEL             ....  134
 Basis Dimension        Dim             ....  322

ORBITAL ENERGIES
----------------

  NO   OCC          E(Eh)            E(eV)
   0   2.0000     -88.971145     -2421.0279
   1   2.0000     -88.967382     -2420.9255
   2   2.0000     -10.339898      -281.3629
   3   2.0000     -10.333596      -281.1914
   4   2.0000     -10.318137      -280.7708
   5   2.0000     -10.308147      -280.4989
   6   2.0000     -10.306744      -280.4608
   7   2.0000     -10.306717      -280.4600
   8   2.0000     -10.298276      -280.2303
   9   2.0000     -10.295936      -280.1667
  10   2.0000     -10.289952      -280.0038
  11   2.0000     -10.285742      -279.8893
  12   2.0000     -10.285370      -279.8792
  13   2.0000     -10.284651      -279.8596
  14   2.0000     -10.279324      -279.7146
  15   2.0000     -10.269275      -279.4412
  16   2.0000      -8.083770      -219.9706
  17   2.0000      -8.082775      -219.9435
  18   2.0000      -6.042503      -164.4249
  19   2.0000      -6.041191      -164.3892
  20   2.0000      -6.038647      -164.3199
  21   2.0000      -6.037126      -164.2785
  22   2.0000      -6.034354      -164.2031
  23   2.0000      -6.033682      -164.1848
  24   2.0000      -1.002255       -27.2728
  25   2.0000      -0.978246       -26.6194
  26   2.0000      -0.910849       -24.7855
  27   2.0000      -0.906583       -24.6694
  28   2.0000      -0.868135       -23.6232
  29   2.0000      -0.851401       -23.1678
  30   2.0000      -0.842694       -22.9309
  31   2.0000      -0.815673       -22.1956
  32   2.0000      -0.781980       -21.2788
  33   2.0000      -0.769219       -20.9315
  34   2.0000      -0.710420       -19.3315
  35   2.0000      -0.700350       -19.0575
  36   2.0000      -0.686897       -18.6914
  37   2.0000      -0.658907       -17.9298
  38   2.0000      -0.635172       -17.2839
  39   2.0000      -0.612816       -16.6756
  40   2.0000      -0.596234       -16.2244
  41   2.0000      -0.579123       -15.7587
  42   2.0000      -0.564737       -15.3673
  43   2.0000      -0.548835       -14.9346
  44   2.0000      -0.539233       -14.6733
  45   2.0000      -0.529208       -14.4005
  46   2.0000      -0.516093       -14.0436
  47   2.0000      -0.508326       -13.8322
  48   2.0000      -0.503185       -13.6923
  49   2.0000      -0.491883       -13.3848
  50   2.0000      -0.489209       -13.3121
  51   2.0000      -0.480899       -13.0859
  52   2.0000      -0.476568       -12.9681
  53   2.0000      -0.471695       -12.8355
  54   2.0000      -0.457373       -12.4458
  55   2.0000      -0.452270       -12.3069
  56   2.0000      -0.438708       -11.9379
  57   2.0000      -0.434862       -11.8332
  58   2.0000      -0.430703       -11.7200
  59   2.0000      -0.423514       -11.5244
  60   2.0000      -0.423079       -11.5126
  61   2.0000      -0.416948       -11.3457
  62   2.0000      -0.407905       -11.0997
  63   2.0000      -0.350830        -9.5466
  64   2.0000      -0.332818        -9.0564
  65   2.0000      -0.327902        -8.9227
  66   2.0000      -0.284899        -7.7525
  67   0.0000       0.022039         0.5997
  68   0.0000       0.081395         2.2149
  69   0.0000       0.102527         2.7899
  70   0.0000       0.116210         3.1622
  71   0.0000       0.126765         3.4494

MULLIKEN ATOMIC CHARGES
-----------------------
   0 S :    0.101294
   1 C :   -0.140425
   2 C :   -0.068459
   3 C :    0.019352
   4 C :   -0.113369
   5 H :   -0.003211
   6 C :    0.048616
   7 H :    0.042615
   8 H :    0.035276
   9 C :   -0.106107
  10 H :    0.024890
  11 H :    0.031919
  12 C :   -0.021765
  13 H :    0.026219
  14 H :    0.038062
  15 H :    0.033381
  16 S :    0.120634
  17 C :   -0.066668
  18 C :   -0.025657
  19 C :   -0.030689
  20 C :   -0.156666
  21 H :    0.013722
  22 C :    0.025340
  23 H :    0.026953
  24 H :    0.019732
  25 C :   -0.067522
  26 H :    0.024770
  27 H :    0.036992
  28 C :   -0.030554
  29 H :    0.009324
  30 H :    0.026472
  31 H :    0.033344
  32 H :    0.057715
  33 H :    0.034471
Sum of atomic charges:    0.0000000

LOEWDIN ATOMIC CHARGES
----------------------
   0 S :    0.386066
   1 C :   -0.197263
   2 C :   -0.057626
   3 C :   -0.056409
   4 C :   -0.175186
   5 H :    0.019257
   6 C :   -0.031281
   7 H :    0.033529
   8 H :    0.033743
   9 C :   -0.042003
  10 H :    0.019365
  11 H :    0.025675
  12 C :   -0.060410
  13 H :    0.024810
  14 H :    0.032540
  15 H :    0.022766
  16 S :    0.435570
  17 C :   -0.193709
  18 C :   -0.069873
  19 C :   -0.047389
  20 C :   -0.204979
  21 H :    0.032393
  22 C :   -0.041307
  23 H :    0.032509
  24 H :    0.020434
  25 C :   -0.041832
  26 H :    0.024568
  27 H :    0.022078
  28 C :   -0.066590
  29 H :    0.018215
  30 H :    0.027744
  31 H :    0.023693
  32 H :    0.029575
  33 H :    0.021327

  Mayer bond orders larger than 0.100000
B(  0-S ,  1-C ) :   1.1153 B(  0-S ,  4-C ) :   1.1286 B(  1-C ,  2-C ) :   1.6396
B(  1-C , 32-H ) :   0.9602 B(  2-C ,  3-C ) :   1.2223 B(  2-C ,  6-C ) :   1.0159
B(  3-C ,  4-C ) :   1.5777 B(  3-C ,  5-H ) :   0.9963 B(  4-C , 20-C ) :   1.0560
B(  6-C ,  7-H ) :   0.9393 B(  6-C ,  8-H ) :   0.9424 B(  6-C ,  9-C ) :   1.0649
B(  9-C , 10-H ) :   0.9530 B(  9-C , 11-H ) :   0.9599 B(  9-C , 12-C ) :   1.0919
B( 12-C , 13-H ) :   0.9739 B( 12-C , 14-H ) :   0.9726 B( 12-C , 15-H ) :   0.9732
B( 16-S , 17-C ) :   1.1757 B( 16-S , 20-C ) :   1.1508 B( 17-C , 18-C ) :   1.5988
B( 17-C , 33-H ) :   0.9648 B( 18-C , 19-C ) :   1.2572 B( 18-C , 21-H ) :   0.9993
B( 19-C , 20-C ) :   1.5328 B( 19-C , 22-C ) :   1.0368 B( 22-C , 23-H ) :   0.9477
B( 22-C , 24-H ) :   0.9372 B( 22-C , 25-C ) :   1.0702 B( 25-C , 26-H ) :   0.9518
B( 25-C , 27-H ) :   0.9536 B( 25-C , 28-C ) :   1.0778 B( 28-C , 29-H ) :   0.9718
B( 28-C , 30-H ) :   0.9710 B( 28-C , 31-H ) :   0.9741

Dispersion correction           -0.014101846
FINAL SINGLE POINT ENERGY     -1339.881989720645

DIPOLE MOMENT
-------------
                                X             Y             Z
Electronic contribution:      4.45517     -12.36146       2.57068
Nuclear contribution   :     -4.88041      12.47671      -2.54950
                        -----------------------------------------
Total Dipole Moment    :     -0.42523       0.11525       0.02118
                        -----------------------------------------
Magnitude (a.u.)       :      0.44108
Magnitude (Debye)      :      1.12114

Rotational constants in cm-1:     0.026887     0.006808     0.005668
Rotational constants in MHz :   806.066218   204.105334   169.930614

                             ****ORCA TERMINATED NORMALLY****
TOTAL RUN TIME: 0 days 0 hours 0 minutes 22 seconds 256 msec
