                         Program Version 4.2.1 -  RELEASE  -
|  1> ! wB97X-D3 SP def2-SVP
|  2> %pal
|  3> nprocs 24
|  4> end
|  5>
|  6> * xyz 0 1
|  7> S 	 -40.7525 	 -9.22733 	 10.1467
|  8> C 	 -41.0349 	 -9.88353 	 8.631
|  9> C 	 -40.284 	 -9.27851 	 7.65994
| 10> C 	 -39.3562 	 -8.31114 	 8.25271
| 11> C 	 -39.4065 	 -8.27085 	 9.63349
| 12> H 	 -38.715 	 -7.61481 	 7.74894
| 13> C 	 -40.491 	 -9.49737 	 6.18335
| 14> H 	 -40.8086 	 -10.4766 	 6.02574
| 15> H 	 -39.524 	 -9.45838 	 5.74878
| 16> C 	 -41.4853 	 -8.5052 	 5.4703
| 17> H 	 -41.5863 	 -8.83313 	 4.4025
| 18> H 	 -42.5081 	 -8.58937 	 5.96318
| 19> C 	 -40.9579 	 -7.00261 	 5.49006
| 20> H 	 -40.935 	 -6.56725 	 6.48368
| 21> H 	 -39.9167 	 -6.84818 	 5.18946
| 22> H 	 -41.4076 	 -6.39133 	 4.74555
| 23> S 	 -37.9184 	 -8.34194 	 11.9113
| 24> C 	 -37.2889 	 -6.84877 	 12.6122
| 25> C 	 -37.7407 	 -5.76164 	 11.8867
| 26> C 	 -38.5269 	 -6.11899 	 10.7449
| 27> C 	 -38.7045 	 -7.46008 	 10.6332
| 28> H 	 -37.402 	 -4.76955 	 12.1657
| 29> C 	 -39.145 	 -5.08132 	 9.81587
| 30> H 	 -39.4894 	 -4.30628 	 10.4449
| 31> H 	 -40.1016 	 -5.45063 	 9.33222
| 32> C 	 -38.1165 	 -4.45116 	 8.8262
| 33> H 	 -37.5963 	 -5.15039 	 8.19384
| 34> H 	 -37.3531 	 -4.17053 	 9.49195
| 35> C 	 -38.5008 	 -3.11923 	 8.25322
| 36> H 	 -37.7505 	 -2.73528 	 7.62217
| 37> H 	 -38.6091 	 -2.39449 	 9.08901
| 38> H 	 -39.4362 	 -3.19611 	 7.62733
| 39> H 	 -41.6836 	 -10.7028 	 8.44829
| 40> H 	 -36.4836 	 -6.80462 	 13.3475
| 41> *
| 42>
| 43>                          ****END OF INPUT****

CARTESIAN COORDINATES (ANGSTROEM)
---------------------------------
  S    -40.752500   -9.227330   10.146700
  C    -41.034900   -9.883530    8.631000
  C    -40.284000   -9.278510    7.659940
  C    -39.356200   -8.311140    8.252710
  C    -39.406500   -8.270850    9.633490
  H    -38.715000   -7.614810    7.748940
  C    -40.491000   -9.497370    6.183350
  H    -40.808600  -10.476600    6.025740
  H    -39.524000   -9.458380    5.748780
  C    -41.485300   -8.505200    5.470300
  H    -41.586300   -8.833130    4.402500
  H    -42.508100   -8.589370    5.963180
  C    -40.957900   -7.002610    5.490060
  H    -40.935000   -6.567250    6.483680
  H    -39.916700   -6.848180    5.189460
  H    -41.407600   -6.391330    4.745550
  S    -37.918400   -8.341940   11.911300
  C    -37.288900   -6.848770   12.612200
  C    -37.740700   -5.761640   11.886700
  C    -38.526900   -6.118990   10.744900
  C    -38.704500   -7.460080   10.633200
  H    -37.402000   -4.769550   12.165700
  C    -39.145000   -5.081320    9.815870
  H    -39.489400   -4.306280   10.444900
  H    -40.101600   -5.450630    9.332220
  C    -38.116500   -4.451160    8.826200
  H    -37.596300   -5.150390    8.193840
  H    -37.353100   -4.170530    9.491950
  C    -38.500800   -3.119230    8.253220
  H    -37.750500   -2.735280    7.622170
  H    -38.609100   -2.394490    9.089010
  H    -39.436200   -3.196110    7.627330
  H    -41.683600  -10.702800    8.448290
  H    -36.483600   -6.804620   13.347500

 Total Charge           Charge          ....    0
 Multiplicity           Mult            ....    1
 Number of Electrons    NEL             ....  134
 Basis Dimension        Dim             ....  322

ORBITAL ENERGIES
----------------

  NO   OCC          E(Eh)            E(eV)
   0   2.0000     -88.964101     -2420.8363
   1   2.0000     -88.958993     -2420.6973
   2   2.0000     -10.325339      -280.9667
   3   2.0000     -10.323958      -280.9292
   4   2.0000     -10.321085      -280.8510
   5   2.0000     -10.303381      -280.3693
   6   2.0000     -10.302919      -280.3567
   7   2.0000     -10.302382      -280.3421
   8   2.0000     -10.298672      -280.2411
   9   2.0000     -10.297196      -280.2009
  10   2.0000     -10.295085      -280.1435
  11   2.0000     -10.293863      -280.1102
  12   2.0000     -10.284514      -279.8558
  13   2.0000     -10.281083      -279.7625
  14   2.0000     -10.280722      -279.7527
  15   2.0000     -10.277272      -279.6588
  16   2.0000      -8.079001      -219.8408
  17   2.0000      -8.075816      -219.7541
  18   2.0000      -6.037511      -164.2890
  19   2.0000      -6.034138      -164.1973
  20   2.0000      -6.033428      -164.1779
  21   2.0000      -6.029960      -164.0835
  22   2.0000      -6.029785      -164.0788
  23   2.0000      -6.026708      -163.9951
  24   2.0000      -1.012428       -27.5496
  25   2.0000      -0.989748       -26.9324
  26   2.0000      -0.912146       -24.8208
  27   2.0000      -0.904398       -24.6099
  28   2.0000      -0.869453       -23.6590
  29   2.0000      -0.854579       -23.2543
  30   2.0000      -0.838937       -22.8286
  31   2.0000      -0.819466       -22.2988
  32   2.0000      -0.784737       -21.3538
  33   2.0000      -0.773902       -21.0589
  34   2.0000      -0.706565       -19.2266
  35   2.0000      -0.702768       -19.1233
  36   2.0000      -0.695163       -18.9163
  37   2.0000      -0.666563       -18.1381
  38   2.0000      -0.647425       -17.6173
  39   2.0000      -0.614807       -16.7298
  40   2.0000      -0.595406       -16.2018
  41   2.0000      -0.571163       -15.5421
  42   2.0000      -0.566201       -15.4071
  43   2.0000      -0.543421       -14.7872
  44   2.0000      -0.539237       -14.6734
  45   2.0000      -0.526962       -14.3394
  46   2.0000      -0.517966       -14.0946
  47   2.0000      -0.513207       -13.9651
  48   2.0000      -0.509709       -13.8699
  49   2.0000      -0.498615       -13.5680
  50   2.0000      -0.489816       -13.3286
  51   2.0000      -0.479839       -13.0571
  52   2.0000      -0.471059       -12.8182
  53   2.0000      -0.466858       -12.7039
  54   2.0000      -0.462197       -12.5770
  55   2.0000      -0.452310       -12.3080
  56   2.0000      -0.441781       -12.0215
  57   2.0000      -0.436804       -11.8860
  58   2.0000      -0.434088       -11.8121
  59   2.0000      -0.424428       -11.5493
  60   2.0000      -0.422078       -11.4853
  61   2.0000      -0.416831       -11.3426
  62   2.0000      -0.411623       -11.2008
  63   2.0000      -0.344293        -9.3687
  64   2.0000      -0.331999        -9.0341
  65   2.0000      -0.323699        -8.8083
  66   2.0000      -0.300791        -8.1849
  67   0.0000       0.038573         1.0496
  68   0.0000       0.068717         1.8699
  69   0.0000       0.115772         3.1503
  70   0.0000       0.120630         3.2825
  71   0.0000       0.127501         3.4695

MULLIKEN ATOMIC CHARGES
-----------------------
   0 S :    0.116917
   1 C :   -0.095268
   2 C :   -0.124868
   3 C :    0.042024
   4 C :   -0.160160
   5 H :   -0.004399
   6 C :    0.121770
   7 H :    0.000716
   8 H :    0.013346
   9 C :   -0.083107
  10 H :    0.041982
  11 H :    0.046965
  12 C :   -0.060765
  13 H :    0.045117
  14 H :    0.013312
  15 H :    0.028148
  16 S :    0.108212
  17 C :   -0.095582
  18 C :   -0.040941
  19 C :   -0.015353
  20 C :   -0.175983
  21 H :    0.019881
  22 C :    0.076597
  23 H :    0.002110
  24 H :    0.043509
  25 C :   -0.054371
  26 H :    0.025561
  27 H :    0.000575
  28 C :   -0.034262
  29 H :    0.025556
  30 H :    0.033716
  31 H :    0.038001
  32 H :    0.035036
  33 H :    0.066009
Sum of atomic charges:    0.0000000

LOEWDIN ATOMIC CHARGES
----------------------
   0 S :    0.441249
   1 C :   -0.212615
   2 C :   -0.064786
   3 C :   -0.061427
   4 C :   -0.203330
   5 H :    0.025563
   6 C :   -0.028016
   7 H :    0.021665
   8 H :    0.025992
   9 C :   -0.033056
  10 H :    0.028556
  11 H :    0.032338
  12 C :   -0.076791
  13 H :    0.026411
  14 H :    0.024807
  15 H :    0.022878
  16 S :    0.405344
  17 C :   -0.179912
  18 C :   -0.069049
  19 C :   -0.057327
  20 C :   -0.204467
  21 H :    0.030672
  22 C :   -0.025764
  23 H :    0.024353
  24 H :    0.034651
  25 C :   -0.044957
  26 H :    0.020495
  27 H :    0.021238
  28 C :   -0.061537
  29 H :    0.021209
  30 H :    0.030212
  31 H :    0.028177
  32 H :    0.023574
  33 H :    0.033648

  Mayer bond orders larger than 0.100000
B(  0-S ,  1-C ) :   1.1606 B(  0-S ,  4-C ) :   1.1774 B(  1-C ,  2-C ) :   1.5970
B(  1-C , 32-H ) :   0.9730 B(  2-C ,  3-C ) :   1.2298 B(  2-C ,  6-C ) :   1.0334
B(  3-C ,  4-C ) :   1.5779 B(  3-C ,  5-H ) :   1.0079 B(  4-C , 20-C ) :   0.9934
B(  6-C ,  7-H ) :   0.9339 B(  6-C ,  8-H ) :   0.9355 B(  6-C ,  9-C ) :   1.0634
B(  9-C , 10-H ) :   0.9585 B(  9-C , 11-H ) :   0.9577 B(  9-C , 12-C ) :   1.0624
B( 12-C , 13-H ) :   0.9752 B( 12-C , 14-H ) :   0.9726 B( 12-C , 15-H ) :   0.9750
B( 16-S , 17-C ) :   1.1485 B( 16-S , 20-C ) :   1.1469 B( 17-C , 18-C ) :   1.6205
B( 17-C , 33-H ) :   0.9662 B( 18-C , 19-C ) :   1.2224 B( 18-C , 21-H ) :   0.9872
B( 19-C , 20-C ) :   1.6292 B( 19-C , 22-C ) :   1.0412 B( 22-C , 23-H ) :   0.9283
B( 22-C , 24-H ) :   0.9346 B( 22-C , 25-C ) :   1.0518 B( 25-C , 26-H ) :   0.9553
B( 25-C , 27-H ) :   0.9489 B( 25-C , 28-C ) :   1.0852 B( 28-C , 29-H ) :   0.9712
B( 28-C , 30-H ) :   0.9737 B( 28-C , 31-H ) :   0.9745

Dispersion correction           -0.015037945
FINAL SINGLE POINT ENERGY     -1339.877463338076

DIPOLE MOMENT
-------------
                                X             Y             Z
Electronic contribution:      2.73319     -18.62428      24.19653
Nuclear contribution   :     -2.56839      19.12243     -24.66867
                        -----------------------------------------
Total Dipole Moment    :      0.16480       0.49815      -0.47214
                        -----------------------------------------
Magnitude (a.u.)       :      0.70586
Magnitude (Debye)      :      1.79414

Rotational constants in cm-1:     0.017189     0.010214     0.006856
Rotational constants in MHz :   515.313325   306.199696   205.543830

                             ****ORCA TERMINATED NORMALLY****
TOTAL RUN TIME: 0 days 0 hours 0 minutes 22 seconds 44 msec
