                         Program Version 4.2.1 -  RELEASE  -
|  1> ! wB97X-D3 SP def2-SVP
|  2> %pal
|  3> nprocs 24
|  4> end
|  5>
|  6> * xyz 0 1
|  7> S 	 -88.4727 	 -7.53705 	 -113.823
|  8> C 	 -89.9043 	 -8.56051 	 -113.527
|  9> C 	 -90.9704 	 -7.88386 	 -112.992
| 10> C 	 -90.7457 	 -6.49792 	 -113.004
| 11> C 	 -89.4566 	 -6.10035 	 -113.464
| 12> H 	 -91.473 	 -5.75167 	 -112.789
| 13> C 	 -92.2934 	 -8.48394 	 -112.47
| 14> H 	 -92.883 	 -8.69596 	 -113.346
| 15> H 	 -92.7455 	 -7.73211 	 -111.834
| 16> C 	 -92.3748 	 -9.74841 	 -111.653
| 17> H 	 -91.7583 	 -9.90332 	 -110.735
| 18> H 	 -93.396 	 -9.99388 	 -111.375
| 19> C 	 -92.0076 	 -10.9541 	 -112.525
| 20> H 	 -92.4492 	 -11.8572 	 -112.177
| 21> H 	 -92.2613 	 -10.9504 	 -113.559
| 22> H 	 -90.9301 	 -11.1543 	 -112.625
| 23> S 	 -88.0345 	 -4.57518 	 -115.173
| 24> C 	 -87.6753 	 -2.90848 	 -114.732
| 25> C 	 -88.5077 	 -2.53221 	 -113.694
| 26> C 	 -89.1457 	 -3.57456 	 -112.969
| 27> C 	 -88.9403 	 -4.76742 	 -113.679
| 28> H 	 -88.4641 	 -1.50385 	 -113.333
| 29> C 	 -89.7074 	 -3.43292 	 -111.584
| 30> H 	 -90.8157 	 -3.68274 	 -111.667
| 31> H 	 -89.7184 	 -2.3775 	 -111.223
| 32> C 	 -89.041 	 -4.24752 	 -110.482
| 33> H 	 -88.7998 	 -5.31737 	 -110.658
| 34> H 	 -89.8014 	 -4.28969 	 -109.623
| 35> C 	 -87.8443 	 -3.41466 	 -109.946
| 36> H 	 -87.0848 	 -3.31979 	 -110.686
| 37> H 	 -87.4036 	 -3.93068 	 -109.094
| 38> H 	 -88.2226 	 -2.47754 	 -109.607
| 39> H 	 -89.9772 	 -9.55789 	 -113.752
| 40> H 	 -87.0541 	 -2.2389 	 -115.25
| 41> *
| 42>
| 43>                          ****END OF INPUT****

CARTESIAN COORDINATES (ANGSTROEM)
---------------------------------
  S    -88.472700   -7.537050  -113.823000
  C    -89.904300   -8.560510  -113.527000
  C    -90.970400   -7.883860  -112.992000
  C    -90.745700   -6.497920  -113.004000
  C    -89.456600   -6.100350  -113.464000
  H    -91.473000   -5.751670  -112.789000
  C    -92.293400   -8.483940  -112.470000
  H    -92.883000   -8.695960  -113.346000
  H    -92.745500   -7.732110  -111.834000
  C    -92.374800   -9.748410  -111.653000
  H    -91.758300   -9.903320  -110.735000
  H    -93.396000   -9.993880  -111.375000
  C    -92.007600  -10.954100  -112.525000
  H    -92.449200  -11.857200  -112.177000
  H    -92.261300  -10.950400  -113.559000
  H    -90.930100  -11.154300  -112.625000
  S    -88.034500   -4.575180  -115.173000
  C    -87.675300   -2.908480  -114.732000
  C    -88.507700   -2.532210  -113.694000
  C    -89.145700   -3.574560  -112.969000
  C    -88.940300   -4.767420  -113.679000
  H    -88.464100   -1.503850  -113.333000
  C    -89.707400   -3.432920  -111.584000
  H    -90.815700   -3.682740  -111.667000
  H    -89.718400   -2.377500  -111.223000
  C    -89.041000   -4.247520  -110.482000
  H    -88.799800   -5.317370  -110.658000
  H    -89.801400   -4.289690  -109.623000
  C    -87.844300   -3.414660  -109.946000
  H    -87.084800   -3.319790  -110.686000
  H    -87.403600   -3.930680  -109.094000
  H    -88.222600   -2.477540  -109.607000
  H    -89.977200   -9.557890  -113.752000
  H    -87.054100   -2.238900  -115.250000

 Total Charge           Charge          ....    0
 Multiplicity           Mult            ....    1
 Number of Electrons    NEL             ....  134
 Basis Dimension        Dim             ....  322

ORBITAL ENERGIES
----------------

  NO   OCC          E(Eh)            E(eV)
   0   2.0000     -88.968415     -2420.9536
   1   2.0000     -88.965993     -2420.8877
   2   2.0000     -10.331675      -281.1392
   3   2.0000     -10.326219      -280.9907
   4   2.0000     -10.314103      -280.6610
   5   2.0000     -10.307396      -280.4785
   6   2.0000     -10.304223      -280.3922
   7   2.0000     -10.300936      -280.3027
   8   2.0000     -10.300705      -280.2964
   9   2.0000     -10.295026      -280.1419
  10   2.0000     -10.293416      -280.0981
  11   2.0000     -10.293111      -280.0898
  12   2.0000     -10.292031      -280.0604
  13   2.0000     -10.291177      -280.0372
  14   2.0000     -10.270333      -279.4700
  15   2.0000     -10.270318      -279.4696
  16   2.0000      -8.081878      -219.9191
  17   2.0000      -8.080443      -219.8800
  18   2.0000      -6.040411      -164.3679
  19   2.0000      -6.038898      -164.3268
  20   2.0000      -6.036655      -164.2657
  21   2.0000      -6.035061      -164.2224
  22   2.0000      -6.032608      -164.1556
  23   2.0000      -6.031177      -164.1167
  24   2.0000      -1.003237       -27.2995
  25   2.0000      -0.979373       -26.6501
  26   2.0000      -0.915720       -24.9180
  27   2.0000      -0.909682       -24.7537
  28   2.0000      -0.868967       -23.6458
  29   2.0000      -0.850872       -23.1534
  30   2.0000      -0.845148       -22.9977
  31   2.0000      -0.807141       -21.9634
  32   2.0000      -0.788250       -21.4494
  33   2.0000      -0.775311       -21.0973
  34   2.0000      -0.710961       -19.3462
  35   2.0000      -0.705979       -19.2107
  36   2.0000      -0.688902       -18.7460
  37   2.0000      -0.663106       -18.0440
  38   2.0000      -0.640553       -17.4303
  39   2.0000      -0.615706       -16.7542
  40   2.0000      -0.596467       -16.2307
  41   2.0000      -0.570113       -15.5136
  42   2.0000      -0.556514       -15.1435
  43   2.0000      -0.552079       -15.0228
  44   2.0000      -0.547151       -14.8887
  45   2.0000      -0.539589       -14.6830
  46   2.0000      -0.515882       -14.0379
  47   2.0000      -0.511470       -13.9178
  48   2.0000      -0.500724       -13.6254
  49   2.0000      -0.491580       -13.3766
  50   2.0000      -0.486443       -13.2368
  51   2.0000      -0.482987       -13.1427
  52   2.0000      -0.473401       -12.8819
  53   2.0000      -0.465745       -12.6736
  54   2.0000      -0.455870       -12.4048
  55   2.0000      -0.447659       -12.1814
  56   2.0000      -0.442301       -12.0356
  57   2.0000      -0.439555       -11.9609
  58   2.0000      -0.432563       -11.7706
  59   2.0000      -0.426231       -11.5983
  60   2.0000      -0.423707       -11.5296
  61   2.0000      -0.412115       -11.2142
  62   2.0000      -0.410464       -11.1693
  63   2.0000      -0.343233        -9.3399
  64   2.0000      -0.334987        -9.1154
  65   2.0000      -0.329189        -8.9577
  66   2.0000      -0.281734        -7.6664
  67   0.0000       0.015892         0.4324
  68   0.0000       0.076398         2.0789
  69   0.0000       0.101106         2.7512
  70   0.0000       0.113323         3.0837
  71   0.0000       0.135074         3.6756

MULLIKEN ATOMIC CHARGES
-----------------------
   0 S :    0.109339
   1 C :   -0.098640
   2 C :   -0.057165
   3 C :    0.020752
   4 C :   -0.160456
   5 H :   -0.002583
   6 C :    0.079708
   7 H :    0.041949
   8 H :    0.028252
   9 C :   -0.040025
  10 H :    0.045238
  11 H :    0.028960
  12 C :   -0.086775
  13 H :    0.017423
  14 H :    0.010888
  15 H :    0.031477
  16 S :    0.108669
  17 C :   -0.073247
  18 C :   -0.039080
  19 C :   -0.013791
  20 C :   -0.156972
  21 H :    0.016620
  22 C :    0.036556
  23 H :    0.040667
  24 H :    0.020908
  25 C :   -0.102343
  26 H :    0.058699
  27 H :    0.029442
  28 C :   -0.019026
  29 H :    0.036099
  30 H :    0.028759
  31 H :    0.016998
  32 H :    0.003791
  33 H :    0.038910
Sum of atomic charges:    0.0000000

LOEWDIN ATOMIC CHARGES
----------------------
   0 S :    0.383091
   1 C :   -0.174279
   2 C :   -0.058015
   3 C :   -0.058042
   4 C :   -0.186868
   5 H :    0.024497
   6 C :   -0.026555
   7 H :    0.037844
   8 H :    0.031537
   9 C :   -0.039673
  10 H :    0.034328
  11 H :    0.029734
  12 C :   -0.075150
  13 H :    0.020772
  14 H :    0.016708
  15 H :    0.023030
  16 S :    0.401619
  17 C :   -0.178107
  18 C :   -0.066667
  19 C :   -0.059689
  20 C :   -0.193852
  21 H :    0.028803
  22 C :   -0.039555
  23 H :    0.036469
  24 H :    0.034946
  25 C :   -0.043304
  26 H :    0.030907
  27 H :    0.030141
  28 C :   -0.055953
  29 H :    0.021989
  30 H :    0.025619
  31 H :    0.017971
  32 H :    0.005793
  33 H :    0.019910

  Mayer bond orders larger than 0.100000
B(  0-S ,  1-C ) :   1.1283 B(  0-S ,  4-C ) :   1.1421 B(  1-C ,  2-C ) :   1.6147
B(  1-C ,  4-C ) :   0.1035 B(  1-C , 32-H ) :   0.9691 B(  2-C ,  3-C ) :   1.2693
B(  2-C ,  6-C ) :   0.9959 B(  3-C ,  4-C ) :   1.5443 B(  3-C ,  5-H ) :   0.9959
B(  4-C , 20-C ) :   1.0827 B(  6-C ,  7-H ) :   0.9348 B(  6-C ,  8-H ) :   0.9457
B(  6-C ,  9-C ) :   1.0847 B(  9-C , 10-H ) :   0.9555 B(  9-C , 11-H ) :   0.9544
B(  9-C , 12-C ) :   1.0634 B( 12-C , 13-H ) :   0.9712 B( 12-C , 14-H ) :   0.9757
B( 12-C , 15-H ) :   0.9712 B( 16-S , 17-C ) :   1.1342 B( 16-S , 20-C ) :   1.1546
B( 17-C , 18-C ) :   1.6128 B( 17-C , 20-C ) :   0.1031 B( 17-C , 33-H ) :   0.9765
B( 18-C , 19-C ) :   1.2517 B( 18-C , 21-H ) :   0.9780 B( 19-C , 20-C ) :   1.5507
B( 19-C , 22-C ) :   1.0502 B( 22-C , 23-H ) :   0.9240 B( 22-C , 24-H ) :   0.9366
B( 22-C , 25-C ) :   1.0642 B( 25-C , 26-H ) :   0.9597 B( 25-C , 27-H ) :   0.9528
B( 25-C , 28-C ) :   1.0679 B( 28-C , 29-H ) :   0.9810 B( 28-C , 30-H ) :   0.9734
B( 28-C , 31-H ) :   0.9743

Dispersion correction           -0.014584219
FINAL SINGLE POINT ENERGY     -1339.859864907783

DIPOLE MOMENT
-------------
                                X             Y             Z
Electronic contribution:     12.82156       6.41253     -19.82161
Nuclear contribution   :    -13.30444      -6.33807      20.26994
                        -----------------------------------------
Total Dipole Moment    :     -0.48288       0.07445       0.44833
                        -----------------------------------------
Magnitude (a.u.)       :      0.66311
Magnitude (Debye)      :      1.68549

Rotational constants in cm-1:     0.022741     0.007957     0.006621
Rotational constants in MHz :   681.765195   238.551101   198.479089

                             ****ORCA TERMINATED NORMALLY****
TOTAL RUN TIME: 0 days 0 hours 0 minutes 21 seconds 758 msec
