                         Program Version 4.2.1 -  RELEASE  -
|  1> ! wB97X-D3 SP def2-SVP
|  2> %pal
|  3> nprocs 24
|  4> end
|  5>
|  6> * xyz 0 1
|  7> S 	 -98.1187 	 49.5481 	 -92.5596
|  8> C 	 -97.5523 	 48.1266 	 -91.7552
|  9> C 	 -96.5308 	 47.5787 	 -92.4972
| 10> C 	 -96.25 	 48.3001 	 -93.6579
| 11> C 	 -97.1793 	 49.2844 	 -93.9226
| 12> H 	 -95.4781 	 48.0631 	 -94.2849
| 13> C 	 -95.7511 	 46.2895 	 -92.1665
| 14> H 	 -95.7081 	 46.2806 	 -91.0398
| 15> H 	 -94.7472 	 46.3956 	 -92.4693
| 16> C 	 -96.3178 	 44.9587 	 -92.6559
| 17> H 	 -97.319 	 44.8046 	 -92.239
| 18> H 	 -96.4197 	 44.9644 	 -93.7806
| 19> C 	 -95.4596 	 43.7563 	 -92.326
| 20> H 	 -94.4641 	 43.9391 	 -92.6487
| 21> H 	 -95.5316 	 43.577 	 -91.2268
| 22> H 	 -95.8087 	 42.8163 	 -92.689
| 23> S 	 -97.3132 	 51.9623 	 -94.8233
| 24> C 	 -96.5756 	 52.291 	 -96.3833
| 25> C 	 -96.3069 	 51.1591 	 -97.1009
| 26> C 	 -96.6936 	 49.9855 	 -96.3693
| 27> C 	 -97.1252 	 50.2471 	 -95.0418
| 28> H 	 -95.8255 	 51.236 	 -98.0559
| 29> C 	 -96.4092 	 48.5537 	 -96.9652
| 30> H 	 -95.7331 	 48.0482 	 -96.2571
| 31> H 	 -95.7695 	 48.6315 	 -97.8656
| 32> C 	 -97.5005 	 47.7599 	 -97.4235
| 33> H 	 -98.0334 	 48.2111 	 -98.1972
| 34> H 	 -98.1195 	 47.5683 	 -96.5286
| 35> C 	 -97.0906 	 46.359 	 -97.9942
| 36> H 	 -96.215 	 46.3848 	 -98.5321
| 37> H 	 -97.9425 	 45.9544 	 -98.5472
| 38> H 	 -96.8318 	 45.7082 	 -97.2182
| 39> H 	 -97.8701 	 47.7285 	 -90.8781
| 40> H 	 -96.3748 	 53.2339 	 -96.7622
| 41> *
| 42>
| 43>                          ****END OF INPUT****

CARTESIAN COORDINATES (ANGSTROEM)
---------------------------------
  S    -98.118700   49.548100  -92.559600
  C    -97.552300   48.126600  -91.755200
  C    -96.530800   47.578700  -92.497200
  C    -96.250000   48.300100  -93.657900
  C    -97.179300   49.284400  -93.922600
  H    -95.478100   48.063100  -94.284900
  C    -95.751100   46.289500  -92.166500
  H    -95.708100   46.280600  -91.039800
  H    -94.747200   46.395600  -92.469300
  C    -96.317800   44.958700  -92.655900
  H    -97.319000   44.804600  -92.239000
  H    -96.419700   44.964400  -93.780600
  C    -95.459600   43.756300  -92.326000
  H    -94.464100   43.939100  -92.648700
  H    -95.531600   43.577000  -91.226800
  H    -95.808700   42.816300  -92.689000
  S    -97.313200   51.962300  -94.823300
  C    -96.575600   52.291000  -96.383300
  C    -96.306900   51.159100  -97.100900
  C    -96.693600   49.985500  -96.369300
  C    -97.125200   50.247100  -95.041800
  H    -95.825500   51.236000  -98.055900
  C    -96.409200   48.553700  -96.965200
  H    -95.733100   48.048200  -96.257100
  H    -95.769500   48.631500  -97.865600
  C    -97.500500   47.759900  -97.423500
  H    -98.033400   48.211100  -98.197200
  H    -98.119500   47.568300  -96.528600
  C    -97.090600   46.359000  -97.994200
  H    -96.215000   46.384800  -98.532100
  H    -97.942500   45.954400  -98.547200
  H    -96.831800   45.708200  -97.218200
  H    -97.870100   47.728500  -90.878100
  H    -96.374800   53.233900  -96.762200

 Total Charge           Charge          ....    0
 Multiplicity           Mult            ....    1
 Number of Electrons    NEL             ....  134
 Basis Dimension        Dim             ....  322

ORBITAL ENERGIES
----------------

  NO   OCC          E(Eh)            E(eV)
   0   2.0000     -88.968652     -2420.9601
   1   2.0000     -88.967176     -2420.9199
   2   2.0000     -10.331869      -281.1444
   3   2.0000     -10.327539      -281.0266
   4   2.0000     -10.312511      -280.6177
   5   2.0000     -10.308996      -280.5220
   6   2.0000     -10.305227      -280.4195
   7   2.0000     -10.296879      -280.1923
   8   2.0000     -10.294008      -280.1142
   9   2.0000     -10.293964      -280.1130
  10   2.0000     -10.290148      -280.0092
  11   2.0000     -10.287941      -279.9491
  12   2.0000     -10.282157      -279.7917
  13   2.0000     -10.275991      -279.6239
  14   2.0000     -10.272336      -279.5245
  15   2.0000     -10.266371      -279.3621
  16   2.0000      -8.083611      -219.9662
  17   2.0000      -8.083373      -219.9598
  18   2.0000      -6.042004      -164.4113
  19   2.0000      -6.041910      -164.4087
  20   2.0000      -6.037899      -164.2996
  21   2.0000      -6.037765      -164.2959
  22   2.0000      -6.034517      -164.2075
  23   2.0000      -6.034095      -164.1961
  24   2.0000      -1.017917       -27.6989
  25   2.0000      -0.989147       -26.9161
  26   2.0000      -0.917548       -24.9678
  27   2.0000      -0.913612       -24.8606
  28   2.0000      -0.873816       -23.7777
  29   2.0000      -0.856474       -23.3058
  30   2.0000      -0.847036       -23.0490
  31   2.0000      -0.818729       -22.2788
  32   2.0000      -0.787469       -21.4281
  33   2.0000      -0.778236       -21.1769
  34   2.0000      -0.710241       -19.3266
  35   2.0000      -0.699416       -19.0321
  36   2.0000      -0.692477       -18.8433
  37   2.0000      -0.664425       -18.0799
  38   2.0000      -0.647803       -17.6276
  39   2.0000      -0.627384       -17.0720
  40   2.0000      -0.596794       -16.2396
  41   2.0000      -0.581095       -15.8124
  42   2.0000      -0.575442       -15.6586
  43   2.0000      -0.565071       -15.3764
  44   2.0000      -0.533411       -14.5149
  45   2.0000      -0.526117       -14.3164
  46   2.0000      -0.521613       -14.1938
  47   2.0000      -0.515604       -14.0303
  48   2.0000      -0.507948       -13.8220
  49   2.0000      -0.504045       -13.7158
  50   2.0000      -0.495332       -13.4787
  51   2.0000      -0.488831       -13.3018
  52   2.0000      -0.477930       -13.0051
  53   2.0000      -0.464380       -12.6364
  54   2.0000      -0.463220       -12.6048
  55   2.0000      -0.454058       -12.3556
  56   2.0000      -0.451713       -12.2917
  57   2.0000      -0.439603       -11.9622
  58   2.0000      -0.436652       -11.8819
  59   2.0000      -0.423023       -11.5110
  60   2.0000      -0.412794       -11.2327
  61   2.0000      -0.407821       -11.0974
  62   2.0000      -0.404971       -11.0198
  63   2.0000      -0.355289        -9.6679
  64   2.0000      -0.337103        -9.1730
  65   2.0000      -0.330675        -8.9981
  66   2.0000      -0.286901        -7.8070
  67   0.0000       0.023886         0.6500
  68   0.0000       0.078285         2.1302
  69   0.0000       0.105651         2.8749
  70   0.0000       0.122485         3.3330
  71   0.0000       0.128142         3.4869

MULLIKEN ATOMIC CHARGES
-----------------------
   0 S :    0.112787
   1 C :   -0.063414
   2 C :   -0.090657
   3 C :    0.042696
   4 C :   -0.119317
   5 H :   -0.030052
   6 C :    0.064440
   7 H :    0.022828
   8 H :    0.007692
   9 C :   -0.073622
  10 H :    0.026524
  11 H :    0.032064
  12 C :   -0.023016
  13 H :    0.026389
  14 H :    0.025885
  15 H :    0.026447
  16 S :    0.110246
  17 C :   -0.064708
  18 C :   -0.024866
  19 C :   -0.051838
  20 C :   -0.114479
  21 H :    0.020334
  22 C :    0.040891
  23 H :    0.014308
  24 H :    0.001564
  25 C :   -0.038234
  26 H :    0.016561
  27 H :    0.034367
  28 C :   -0.005698
  29 H :    0.001632
  30 H :    0.041040
  31 H :    0.008854
  32 H :   -0.004786
  33 H :    0.027138
Sum of atomic charges:   -0.0000000

LOEWDIN ATOMIC CHARGES
----------------------
   0 S :    0.450370
   1 C :   -0.189338
   2 C :   -0.057642
   3 C :   -0.057260
   4 C :   -0.208103
   5 H :    0.012583
   6 C :   -0.029243
   7 H :    0.033717
   8 H :    0.021020
   9 C :   -0.043816
  10 H :    0.023967
  11 H :    0.026285
  12 C :   -0.062208
  13 H :    0.019673
  14 H :    0.028991
  15 H :    0.023688
  16 S :    0.406455
  17 C :   -0.169269
  18 C :   -0.066558
  19 C :   -0.048946
  20 C :   -0.204679
  21 H :    0.033893
  22 C :   -0.038926
  23 H :    0.026403
  24 H :    0.026463
  25 C :   -0.037315
  26 H :    0.017631
  27 H :    0.029474
  28 C :   -0.051162
  29 H :    0.010883
  30 H :    0.032066
  31 H :    0.017993
  32 H :    0.007940
  33 H :    0.014970

  Mayer bond orders larger than 0.100000
B(  0-S ,  1-C ) :   1.1495 B(  0-S ,  4-C ) :   1.1887 B(  1-C ,  2-C ) :   1.5733
B(  1-C ,  4-C ) :   0.1000 B(  1-C , 32-H ) :   0.9866 B(  2-C ,  3-C ) :   1.3013
B(  2-C ,  6-C ) :   1.0174 B(  3-C ,  4-C ) :   1.5003 B(  3-C ,  5-H ) :   1.0076
B(  4-C , 20-C ) :   1.0454 B(  6-C ,  7-H ) :   0.9390 B(  6-C ,  8-H ) :   0.9385
B(  6-C ,  9-C ) :   1.0673 B(  9-C , 10-H ) :   0.9532 B(  9-C , 11-H ) :   0.9540
B(  9-C , 12-C ) :   1.0880 B( 12-C , 13-H ) :   0.9742 B( 12-C , 14-H ) :   0.9733
B( 12-C , 15-H ) :   0.9720 B( 16-S , 17-C ) :   1.1535 B( 16-S , 20-C ) :   1.1379
B( 17-C , 18-C ) :   1.6113 B( 17-C , 33-H ) :   0.9736 B( 18-C , 19-C ) :   1.2566
B( 18-C , 21-H ) :   0.9953 B( 19-C , 20-C ) :   1.5757 B( 19-C , 22-C ) :   1.0173
B( 22-C , 23-H ) :   0.9387 B( 22-C , 24-H ) :   0.9290 B( 22-C , 25-C ) :   1.0898
B( 25-C , 26-H ) :   0.9519 B( 25-C , 27-H ) :   0.9507 B( 25-C , 28-C ) :   1.0803
B( 28-C , 29-H ) :   0.9716 B( 28-C , 30-H ) :   0.9768 B( 28-C , 31-H ) :   0.9714

Dispersion correction           -0.013896495
FINAL SINGLE POINT ENERGY     -1339.853942155624

DIPOLE MOMENT
-------------
                                X             Y             Z
Electronic contribution:     -8.71315      31.46366       7.81356
Nuclear contribution   :      9.16111     -31.97509      -8.05516
                        -----------------------------------------
Total Dipole Moment    :      0.44796      -0.51144      -0.24161
                        -----------------------------------------
Magnitude (a.u.)       :      0.72154
Magnitude (Debye)      :      1.83400

Rotational constants in cm-1:     0.018031     0.009092     0.006580
Rotational constants in MHz :   540.551222   272.566965   197.258205

                             ****ORCA TERMINATED NORMALLY****
TOTAL RUN TIME: 0 days 0 hours 0 minutes 22 seconds 42 msec
