                         Program Version 4.2.1 -  RELEASE  -
|  1> ! wB97X-D3 SP def2-SVP
|  2> %pal
|  3> nprocs 24
|  4> end
|  5>
|  6> * xyz 0 1
|  7> S 	 -103.908 	 62.3899 	 -11.0408
|  8> C 	 -104.585 	 63.9733 	 -11.5695
|  9> C 	 -104.759 	 63.9924 	 -12.9285
| 10> C 	 -104.399 	 62.7502 	 -13.5163
| 11> C 	 -103.753 	 61.8671 	 -12.695
| 12> H 	 -104.386 	 62.393 	 -14.5549
| 13> C 	 -105.16 	 65.1469 	 -13.746
| 14> H 	 -104.705 	 64.9555 	 -14.7618
| 15> H 	 -104.6 	 66.0101 	 -13.3569
| 16> C 	 -106.672 	 65.5027 	 -13.9184
| 17> H 	 -107.078 	 64.6349 	 -14.3531
| 18> H 	 -107.051 	 65.5559 	 -12.9193
| 19> C 	 -106.952 	 66.7218 	 -14.8036
| 20> H 	 -106.413 	 67.5836 	 -14.4734
| 21> H 	 -106.618 	 66.5191 	 -15.7774
| 22> H 	 -108.048 	 67.1164 	 -14.8509
| 23> S 	 -103.945 	 59.1134 	 -12.8293
| 24> C 	 -102.958 	 58.2624 	 -13.9823
| 25> C 	 -102.051 	 59.1228 	 -14.5619
| 26> C 	 -102.168 	 60.5183 	 -14.1682
| 27> C 	 -103.084 	 60.6647 	 -13.124
| 28> H 	 -101.39 	 58.6906 	 -15.3636
| 29> C 	 -101.262 	 61.4398 	 -14.9803
| 30> H 	 -101.069 	 62.3713 	 -14.4689
| 31> H 	 -101.859 	 61.7629 	 -15.8505
| 32> C 	 -99.912 	 60.9272 	 -15.3435
| 33> H 	 -99.4693 	 61.7219 	 -15.9099
| 34> H 	 -100.055 	 60.0822 	 -15.9953
| 35> C 	 -98.9757 	 60.7509 	 -14.1611
| 36> H 	 -99.3356 	 59.7918 	 -13.6397
| 37> H 	 -99.0918 	 61.6413 	 -13.414
| 38> H 	 -97.8945 	 60.5887 	 -14.3453
| 39> H 	 -104.892 	 64.8347 	 -10.9482
| 40> H 	 -103.33 	 57.3095 	 -14.4385
| 41> *
| 42>
| 43>                          ****END OF INPUT****

CARTESIAN COORDINATES (ANGSTROEM)
---------------------------------
  S    -103.908000   62.389900  -11.040800
  C    -104.585000   63.973300  -11.569500
  C    -104.759000   63.992400  -12.928500
  C    -104.399000   62.750200  -13.516300
  C    -103.753000   61.867100  -12.695000
  H    -104.386000   62.393000  -14.554900
  C    -105.160000   65.146900  -13.746000
  H    -104.705000   64.955500  -14.761800
  H    -104.600000   66.010100  -13.356900
  C    -106.672000   65.502700  -13.918400
  H    -107.078000   64.634900  -14.353100
  H    -107.051000   65.555900  -12.919300
  C    -106.952000   66.721800  -14.803600
  H    -106.413000   67.583600  -14.473400
  H    -106.618000   66.519100  -15.777400
  H    -108.048000   67.116400  -14.850900
  S    -103.945000   59.113400  -12.829300
  C    -102.958000   58.262400  -13.982300
  C    -102.051000   59.122800  -14.561900
  C    -102.168000   60.518300  -14.168200
  C    -103.084000   60.664700  -13.124000
  H    -101.390000   58.690600  -15.363600
  C    -101.262000   61.439800  -14.980300
  H    -101.069000   62.371300  -14.468900
  H    -101.859000   61.762900  -15.850500
  C    -99.912000   60.927200  -15.343500
  H    -99.469300   61.721900  -15.909900
  H    -100.055000   60.082200  -15.995300
  C    -98.975700   60.750900  -14.161100
  H    -99.335600   59.791800  -13.639700
  H    -99.091800   61.641300  -13.414000
  H    -97.894500   60.588700  -14.345300
  H    -104.892000   64.834700  -10.948200
  H    -103.330000   57.309500  -14.438500

 Total Charge           Charge          ....    0
 Multiplicity           Mult            ....    1
 Number of Electrons    NEL             ....  134
 Basis Dimension        Dim             ....  322

ORBITAL ENERGIES
----------------

  NO   OCC          E(Eh)            E(eV)
   0   2.0000     -88.963561     -2420.8216
   1   2.0000     -88.963019     -2420.8068
   2   2.0000     -10.331373      -281.1310
   3   2.0000     -10.323288      -280.9110
   4   2.0000     -10.322752      -280.8964
   5   2.0000     -10.317245      -280.7465
   6   2.0000     -10.314144      -280.6621
   7   2.0000     -10.299220      -280.2560
   8   2.0000     -10.298127      -280.2263
   9   2.0000     -10.294515      -280.1280
  10   2.0000     -10.293697      -280.1057
  11   2.0000     -10.291417      -280.0437
  12   2.0000     -10.289282      -279.9856
  13   2.0000     -10.284118      -279.8451
  14   2.0000     -10.284053      -279.8433
  15   2.0000     -10.282145      -279.7914
  16   2.0000      -8.077707      -219.8056
  17   2.0000      -8.077666      -219.8045
  18   2.0000      -6.036339      -164.2571
  19   2.0000      -6.036205      -164.2535
  20   2.0000      -6.032324      -164.1479
  21   2.0000      -6.032156      -164.1433
  22   2.0000      -6.028401      -164.0411
  23   2.0000      -6.028327      -164.0391
  24   2.0000      -1.005009       -27.3477
  25   2.0000      -0.982018       -26.7221
  26   2.0000      -0.921534       -25.0762
  27   2.0000      -0.912299       -24.8249
  28   2.0000      -0.871751       -23.7216
  29   2.0000      -0.849937       -23.1280
  30   2.0000      -0.841987       -22.9116
  31   2.0000      -0.810579       -22.0570
  32   2.0000      -0.783593       -21.3226
  33   2.0000      -0.774054       -21.0631
  34   2.0000      -0.710916       -19.3450
  35   2.0000      -0.707497       -19.2520
  36   2.0000      -0.692721       -18.8499
  37   2.0000      -0.652902       -17.7664
  38   2.0000      -0.640274       -17.4227
  39   2.0000      -0.614289       -16.7157
  40   2.0000      -0.603520       -16.4226
  41   2.0000      -0.570278       -15.5181
  42   2.0000      -0.562552       -15.3078
  43   2.0000      -0.557914       -15.1816
  44   2.0000      -0.536244       -14.5920
  45   2.0000      -0.521785       -14.1985
  46   2.0000      -0.514240       -13.9932
  47   2.0000      -0.509847       -13.8736
  48   2.0000      -0.506802       -13.7908
  49   2.0000      -0.498581       -13.5671
  50   2.0000      -0.491346       -13.3702
  51   2.0000      -0.474012       -12.8985
  52   2.0000      -0.468702       -12.7540
  53   2.0000      -0.462640       -12.5891
  54   2.0000      -0.459472       -12.5029
  55   2.0000      -0.454115       -12.3571
  56   2.0000      -0.444327       -12.0907
  57   2.0000      -0.434437       -11.8216
  58   2.0000      -0.428997       -11.6736
  59   2.0000      -0.427252       -11.6261
  60   2.0000      -0.423403       -11.5214
  61   2.0000      -0.417216       -11.3530
  62   2.0000      -0.406419       -11.0592
  63   2.0000      -0.339734        -9.2446
  64   2.0000      -0.330424        -8.9913
  65   2.0000      -0.326297        -8.8790
  66   2.0000      -0.299273        -8.1436
  67   0.0000       0.033674         0.9163
  68   0.0000       0.053435         1.4540
  69   0.0000       0.112907         3.0723
  70   0.0000       0.116197         3.1619
  71   0.0000       0.127459         3.4683

MULLIKEN ATOMIC CHARGES
-----------------------
   0 S :    0.103341
   1 C :   -0.122595
   2 C :   -0.066189
   3 C :    0.026722
   4 C :   -0.174871
   5 H :    0.014923
   6 C :    0.002746
   7 H :    0.023917
   8 H :    0.028638
   9 C :   -0.009178
  10 H :    0.016246
  11 H :    0.018874
  12 C :   -0.038087
  13 H :    0.019759
  14 H :    0.020206
  15 H :    0.051541
  16 S :    0.088322
  17 C :   -0.105386
  18 C :   -0.084840
  19 C :   -0.033886
  20 C :   -0.146659
  21 H :    0.045652
  22 C :    0.063974
  23 H :    0.017507
  24 H :    0.043081
  25 C :   -0.038939
  26 H :    0.022814
  27 H :    0.026152
  28 C :   -0.101902
  29 H :    0.046345
  30 H :    0.050041
  31 H :    0.050799
  32 H :    0.053877
  33 H :    0.087058
Sum of atomic charges:    0.0000000

LOEWDIN ATOMIC CHARGES
----------------------
   0 S :    0.384568
   1 C :   -0.184640
   2 C :   -0.071325
   3 C :   -0.065522
   4 C :   -0.201569
   5 H :    0.034925
   6 C :   -0.037836
   7 H :    0.033422
   8 H :    0.031482
   9 C :   -0.030996
  10 H :    0.019609
  11 H :    0.019856
  12 C :   -0.065600
  13 H :    0.020327
  14 H :    0.018386
  15 H :    0.041467
  16 S :    0.389787
  17 C :   -0.193661
  18 C :   -0.086218
  19 C :   -0.042470
  20 C :   -0.195239
  21 H :    0.039671
  22 C :   -0.031637
  23 H :    0.028837
  24 H :    0.040098
  25 C :   -0.045765
  26 H :    0.027074
  27 H :    0.018127
  28 C :   -0.077856
  29 H :    0.034163
  30 H :    0.038930
  31 H :    0.028769
  32 H :    0.036559
  33 H :    0.044278

  Mayer bond orders larger than 0.100000
B(  0-S ,  1-C ) :   1.1199 B(  0-S ,  4-C ) :   1.1335 B(  1-C ,  2-C ) :   1.6316
B(  1-C , 32-H ) :   0.9655 B(  2-C ,  3-C ) :   1.2074 B(  2-C ,  6-C ) :   1.0253
B(  3-C ,  4-C ) :   1.6145 B(  3-C ,  5-H ) :   0.9905 B(  4-C , 20-C ) :   1.0185
B(  6-C ,  7-H ) :   0.9411 B(  6-C ,  8-H ) :   0.9388 B(  6-C ,  9-C ) :   1.0520
B(  9-C , 10-H ) :   0.9544 B(  9-C , 11-H ) :   0.9575 B(  9-C , 12-C ) :   1.0755
B( 12-C , 13-H ) :   0.9754 B( 12-C , 14-H ) :   0.9740 B( 12-C , 15-H ) :   0.9742
B( 16-S , 17-C ) :   1.1651 B( 16-S , 20-C ) :   1.1303 B( 17-C , 18-C ) :   1.6265
B( 17-C , 33-H ) :   0.9547 B( 18-C , 19-C ) :   1.2207 B( 18-C , 21-H ) :   0.9753
B( 19-C , 20-C ) :   1.6160 B( 19-C , 22-C ) :   1.0192 B( 22-C , 23-H ) :   0.9340
B( 22-C , 24-H ) :   0.9258 B( 22-C , 25-C ) :   1.0921 B( 25-C , 26-H ) :   0.9444
B( 25-C , 27-H ) :   0.9440 B( 25-C , 28-C ) :   1.0704 B( 28-C , 29-H ) :   0.9707
B( 28-C , 30-H ) :   0.9691 B( 28-C , 31-H ) :   0.9762

Dispersion correction           -0.013893677
FINAL SINGLE POINT ENERGY     -1339.854701594718

DIPOLE MOMENT
-------------
                                X             Y             Z
Electronic contribution:     -4.84602     -17.43627      16.60406
Nuclear contribution   :      4.97285      17.80081     -17.49691
                        -----------------------------------------
Total Dipole Moment    :      0.12683       0.36454      -0.89284
                        -----------------------------------------
Magnitude (a.u.)       :      0.97270
Magnitude (Debye)      :      2.47241

Rotational constants in cm-1:     0.019887     0.007220     0.006435
Rotational constants in MHz :   596.194586   216.436862   192.918152

                             ****ORCA TERMINATED NORMALLY****
TOTAL RUN TIME: 0 days 0 hours 0 minutes 21 seconds 259 msec
