                         Program Version 4.2.1 -  RELEASE  -
|  1> ! wB97X-D3 SP def2-SVP
|  2> %pal
|  3> nprocs 24
|  4> end
|  5>
|  6> * xyz 0 1
|  7> S 	 1.06946 	 -25.5208 	 -113.833
|  8> C 	 1.94085 	 -25.2928 	 -115.369
|  9> C 	 3.08237 	 -26.0443 	 -115.38
| 10> C 	 3.28412 	 -26.7282 	 -114.152
| 11> C 	 2.14499 	 -26.7283 	 -113.311
| 12> H 	 4.17359 	 -27.3467 	 -113.941
| 13> C 	 4.16509 	 -25.7545 	 -116.442
| 14> H 	 4.71402 	 -24.8256 	 -116.204
| 15> H 	 3.6316 	 -25.5884 	 -117.334
| 16> C 	 5.12115 	 -26.9383 	 -116.642
| 17> H 	 5.6648 	 -27.0598 	 -115.716
| 18> H 	 4.58734 	 -27.9296 	 -116.82
| 19> C 	 6.10143 	 -26.7782 	 -117.783
| 20> H 	 6.78698 	 -25.8369 	 -117.733
| 21> H 	 6.74608 	 -27.6354 	 -117.922
| 22> H 	 5.64556 	 -26.74 	 -118.769
| 23> S 	 1.82423 	 -26.2036 	 -110.571
| 24> C 	 2.00612 	 -27.532 	 -109.481
| 25> C 	 2.2546 	 -28.6605 	 -110.16
| 26> C 	 2.38857 	 -28.524 	 -111.572
| 27> C 	 2.15619 	 -27.2271 	 -111.966
| 28> H 	 2.23261 	 -29.6482 	 -109.595
| 29> C 	 2.82182 	 -29.6272 	 -112.522
| 30> H 	 2.78997 	 -29.2916 	 -113.574
| 31> H 	 2.02425 	 -30.3586 	 -112.468
| 32> C 	 4.16086 	 -30.2723 	 -112.318
| 33> H 	 4.2399 	 -30.5699 	 -111.292
| 34> H 	 4.96633 	 -29.5253 	 -112.462
| 35> C 	 4.36772 	 -31.4778 	 -113.247
| 36> H 	 5.45212 	 -31.6798 	 -113.148
| 37> H 	 4.14289 	 -31.1732 	 -114.28
| 38> H 	 3.77688 	 -32.3061 	 -113.05
| 39> H 	 1.74835 	 -24.6112 	 -116.193
| 40> H 	 1.91074 	 -27.5288 	 -108.433
| 41> *
| 42>
| 43>                          ****END OF INPUT****

CARTESIAN COORDINATES (ANGSTROEM)
---------------------------------
  S      1.069460  -25.520800  -113.833000
  C      1.940850  -25.292800  -115.369000
  C      3.082370  -26.044300  -115.380000
  C      3.284120  -26.728200  -114.152000
  C      2.144990  -26.728300  -113.311000
  H      4.173590  -27.346700  -113.941000
  C      4.165090  -25.754500  -116.442000
  H      4.714020  -24.825600  -116.204000
  H      3.631600  -25.588400  -117.334000
  C      5.121150  -26.938300  -116.642000
  H      5.664800  -27.059800  -115.716000
  H      4.587340  -27.929600  -116.820000
  C      6.101430  -26.778200  -117.783000
  H      6.786980  -25.836900  -117.733000
  H      6.746080  -27.635400  -117.922000
  H      5.645560  -26.740000  -118.769000
  S      1.824230  -26.203600  -110.571000
  C      2.006120  -27.532000  -109.481000
  C      2.254600  -28.660500  -110.160000
  C      2.388570  -28.524000  -111.572000
  C      2.156190  -27.227100  -111.966000
  H      2.232610  -29.648200  -109.595000
  C      2.821820  -29.627200  -112.522000
  H      2.789970  -29.291600  -113.574000
  H      2.024250  -30.358600  -112.468000
  C      4.160860  -30.272300  -112.318000
  H      4.239900  -30.569900  -111.292000
  H      4.966330  -29.525300  -112.462000
  C      4.367720  -31.477800  -113.247000
  H      5.452120  -31.679800  -113.148000
  H      4.142890  -31.173200  -114.280000
  H      3.776880  -32.306100  -113.050000
  H      1.748350  -24.611200  -116.193000
  H      1.910740  -27.528800  -108.433000

 Total Charge           Charge          ....    0
 Multiplicity           Mult            ....    1
 Number of Electrons    NEL             ....  134
 Basis Dimension        Dim             ....  322

ORBITAL ENERGIES
----------------

  NO   OCC          E(Eh)            E(eV)
   0   2.0000     -88.969550     -2420.9845
   1   2.0000     -88.963629     -2420.8234
   2   2.0000     -10.326977      -281.0113
   3   2.0000     -10.322558      -280.8911
   4   2.0000     -10.313260      -280.6381
   5   2.0000     -10.308994      -280.5220
   6   2.0000     -10.298316      -280.2314
   7   2.0000     -10.297923      -280.2207
   8   2.0000     -10.297365      -280.2055
   9   2.0000     -10.293705      -280.1060
  10   2.0000     -10.292304      -280.0678
  11   2.0000     -10.292157      -280.0638
  12   2.0000     -10.285198      -279.8745
  13   2.0000     -10.284068      -279.8437
  14   2.0000     -10.283542      -279.8294
  15   2.0000     -10.276590      -279.6402
  16   2.0000      -8.084377      -219.9871
  17   2.0000      -8.078671      -219.8318
  18   2.0000      -6.042883      -164.4352
  19   2.0000      -6.038828      -164.3249
  20   2.0000      -6.037291      -164.2830
  21   2.0000      -6.035159      -164.2250
  22   2.0000      -6.033168      -164.1708
  23   2.0000      -6.029253      -164.0643
  24   2.0000      -1.012751       -27.5583
  25   2.0000      -0.988932       -26.9102
  26   2.0000      -0.914490       -24.8845
  27   2.0000      -0.913483       -24.8571
  28   2.0000      -0.875670       -23.8282
  29   2.0000      -0.853632       -23.2285
  30   2.0000      -0.842364       -22.9219
  31   2.0000      -0.814565       -22.1654
  32   2.0000      -0.785284       -21.3687
  33   2.0000      -0.775362       -21.0987
  34   2.0000      -0.716142       -19.4872
  35   2.0000      -0.700901       -19.0725
  36   2.0000      -0.691138       -18.8068
  37   2.0000      -0.652632       -17.7590
  38   2.0000      -0.635443       -17.2913
  39   2.0000      -0.618891       -16.8409
  40   2.0000      -0.600677       -16.3453
  41   2.0000      -0.573446       -15.6043
  42   2.0000      -0.565567       -15.3899
  43   2.0000      -0.563133       -15.3236
  44   2.0000      -0.531736       -14.4693
  45   2.0000      -0.521517       -14.1912
  46   2.0000      -0.517520       -14.0824
  47   2.0000      -0.513780       -13.9807
  48   2.0000      -0.506362       -13.7788
  49   2.0000      -0.501591       -13.6490
  50   2.0000      -0.495931       -13.4950
  51   2.0000      -0.481819       -13.1110
  52   2.0000      -0.473229       -12.8772
  53   2.0000      -0.467027       -12.7084
  54   2.0000      -0.461567       -12.5599
  55   2.0000      -0.446277       -12.1438
  56   2.0000      -0.443937       -12.0801
  57   2.0000      -0.441489       -12.0135
  58   2.0000      -0.431122       -11.7314
  59   2.0000      -0.425377       -11.5751
  60   2.0000      -0.421403       -11.4670
  61   2.0000      -0.414359       -11.2753
  62   2.0000      -0.413046       -11.2395
  63   2.0000      -0.349761        -9.5175
  64   2.0000      -0.333011        -9.0617
  65   2.0000      -0.329931        -8.9779
  66   2.0000      -0.290598        -7.9076
  67   0.0000       0.027981         0.7614
  68   0.0000       0.075047         2.0421
  69   0.0000       0.113159         3.0792
  70   0.0000       0.125044         3.4026
  71   0.0000       0.128136         3.4868

MULLIKEN ATOMIC CHARGES
-----------------------
   0 S :    0.115342
   1 C :   -0.118910
   2 C :   -0.080720
   3 C :   -0.011962
   4 C :   -0.148672
   5 H :    0.030677
   6 C :    0.083413
   7 H :    0.053344
   8 H :    0.007631
   9 C :   -0.111130
  10 H :    0.034100
  11 H :    0.041921
  12 C :   -0.054323
  13 H :    0.038759
  14 H :    0.027835
  15 H :    0.024090
  16 S :    0.108516
  17 C :   -0.069503
  18 C :   -0.056636
  19 C :   -0.028418
  20 C :   -0.146312
  21 H :    0.038445
  22 C :    0.051963
  23 H :    0.023475
  24 H :    0.018566
  25 C :   -0.068417
  26 H :    0.016953
  27 H :    0.027807
  28 C :   -0.018287
  29 H :    0.040288
  30 H :    0.023664
  31 H :    0.024025
  32 H :    0.044776
  33 H :    0.037700
Sum of atomic charges:   -0.0000000

LOEWDIN ATOMIC CHARGES
----------------------
   0 S :    0.426982
   1 C :   -0.191906
   2 C :   -0.068689
   3 C :   -0.061472
   4 C :   -0.210377
   5 H :    0.031587
   6 C :   -0.023021
   7 H :    0.039250
   8 H :    0.021781
   9 C :   -0.050560
  10 H :    0.021029
  11 H :    0.035160
  12 C :   -0.076536
  13 H :    0.032934
  14 H :    0.025063
  15 H :    0.022649
  16 S :    0.399681
  17 C :   -0.185100
  18 C :   -0.080672
  19 C :   -0.056161
  20 C :   -0.195794
  21 H :    0.041555
  22 C :   -0.038215
  23 H :    0.030029
  24 H :    0.029585
  25 C :   -0.038847
  26 H :    0.017812
  27 H :    0.024674
  28 C :   -0.054494
  29 H :    0.033879
  30 H :    0.025811
  31 H :    0.015093
  32 H :    0.031838
  33 H :    0.025451

  Mayer bond orders larger than 0.100000
B(  0-S ,  1-C ) :   1.1401 B(  0-S ,  4-C ) :   1.1674 B(  1-C ,  2-C ) :   1.5982
B(  1-C , 32-H ) :   0.9671 B(  2-C ,  3-C ) :   1.2783 B(  2-C ,  6-C ) :   1.0192
B(  3-C ,  4-C ) :   1.5089 B(  3-C ,  5-H ) :   0.9821 B(  4-C , 20-C ) :   1.0677
B(  6-C ,  7-H ) :   0.9412 B(  6-C ,  8-H ) :   0.9366 B(  6-C ,  9-C ) :   1.0657
B(  9-C , 10-H ) :   0.9479 B(  9-C , 11-H ) :   0.9572 B(  9-C , 12-C ) :   1.0927
B( 12-C , 13-H ) :   0.9713 B( 12-C , 14-H ) :   0.9714 B( 12-C , 15-H ) :   0.9724
B( 16-S , 17-C ) :   1.1382 B( 16-S , 20-C ) :   1.1248 B( 17-C , 18-C ) :   1.6442
B( 17-C , 33-H ) :   0.9699 B( 18-C , 19-C ) :   1.2330 B( 18-C , 21-H ) :   0.9759
B( 19-C , 20-C ) :   1.6169 B( 19-C , 22-C ) :   1.0435 B( 22-C , 23-H ) :   0.9255
B( 22-C , 24-H ) :   0.9256 B( 22-C , 25-C ) :   1.0735 B( 25-C , 26-H ) :   0.9499
B( 25-C , 27-H ) :   0.9524 B( 25-C , 28-C ) :   1.0783 B( 28-C , 29-H ) :   0.9750
B( 28-C , 30-H ) :   0.9738 B( 28-C , 31-H ) :   0.9768

Dispersion correction           -0.013919029
FINAL SINGLE POINT ENERGY     -1339.878321574933

DIPOLE MOMENT
-------------
                                X             Y             Z
Electronic contribution:    -21.54371      17.44852      18.19712
Nuclear contribution   :     22.04008     -17.82167     -18.45227
                        -----------------------------------------
Total Dipole Moment    :      0.49636      -0.37315      -0.25515
                        -----------------------------------------
Magnitude (a.u.)       :      0.67136
Magnitude (Debye)      :      1.70645

Rotational constants in cm-1:     0.016568     0.009500     0.006545
Rotational constants in MHz :   496.684982   284.803074   196.224109

                             ****ORCA TERMINATED NORMALLY****
TOTAL RUN TIME: 0 days 0 hours 0 minutes 21 seconds 812 msec
