                         Program Version 4.2.1 -  RELEASE  -
|  1> ! wB97X-D3 SP def2-SVP
|  2> %pal
|  3> nprocs 24
|  4> end
|  5>
|  6> * xyz 0 1
|  7> S 	 -79.3609 	 -8.00103 	 -57.5396
|  8> C 	 -80.047 	 -8.68123 	 -56.0778
|  9> C 	 -81.3205 	 -8.14728 	 -55.7042
| 10> C 	 -81.6977 	 -7.13068 	 -56.685
| 11> C 	 -80.7884 	 -7.08574 	 -57.7426
| 12> H 	 -82.6756 	 -6.60389 	 -56.6903
| 13> C 	 -82.1378 	 -8.37388 	 -54.408
| 14> H 	 -82.7173 	 -7.43389 	 -54.2846
| 15> H 	 -81.449 	 -8.59391 	 -53.567
| 16> C 	 -83.1038 	 -9.55772 	 -54.5504
| 17> H 	 -83.8512 	 -9.40648 	 -55.3613
| 18> H 	 -82.3537 	 -10.3616 	 -54.7441
| 19> C 	 -83.8884 	 -9.77332 	 -53.2197
| 20> H 	 -83.2177 	 -9.6987 	 -52.3826
| 21> H 	 -84.6692 	 -8.9923 	 -53.1262
| 22> H 	 -84.2989 	 -10.7494 	 -53.1397
| 23> S 	 -79.3896 	 -5.13292 	 -59.1591
| 24> C 	 -80.204 	 -4.34104 	 -60.5213
| 25> C 	 -81.342 	 -5.06694 	 -60.8856
| 26> C 	 -81.6981 	 -6.11044 	 -59.9977
| 27> C 	 -80.7434 	 -6.23533 	 -58.9583
| 28> H 	 -81.8346 	 -4.87505 	 -61.835
| 29> C 	 -83.0035 	 -6.98694 	 -60.0416
| 30> H 	 -82.8544 	 -7.95557 	 -59.562
| 31> H 	 -83.1364 	 -7.24675 	 -61.1093
| 32> C 	 -84.3148 	 -6.33635 	 -59.5655
| 33> H 	 -84.333 	 -5.35022 	 -59.9825
| 34> H 	 -84.3224 	 -6.15984 	 -58.4343
| 35> C 	 -85.5954 	 -7.06974 	 -60.0591
| 36> H 	 -86.4404 	 -6.45293 	 -60.292
| 37> H 	 -85.9174 	 -7.84838 	 -59.2474
| 38> H 	 -85.4203 	 -7.515 	 -61.047
| 39> H 	 -79.4543 	 -9.44382 	 -55.5435
| 40> H 	 -79.7689 	 -3.57144 	 -61.0871
| 41> *
| 42>
| 43>                          ****END OF INPUT****

CARTESIAN COORDINATES (ANGSTROEM)
---------------------------------
  S    -79.360900   -8.001030  -57.539600
  C    -80.047000   -8.681230  -56.077800
  C    -81.320500   -8.147280  -55.704200
  C    -81.697700   -7.130680  -56.685000
  C    -80.788400   -7.085740  -57.742600
  H    -82.675600   -6.603890  -56.690300
  C    -82.137800   -8.373880  -54.408000
  H    -82.717300   -7.433890  -54.284600
  H    -81.449000   -8.593910  -53.567000
  C    -83.103800   -9.557720  -54.550400
  H    -83.851200   -9.406480  -55.361300
  H    -82.353700  -10.361600  -54.744100
  C    -83.888400   -9.773320  -53.219700
  H    -83.217700   -9.698700  -52.382600
  H    -84.669200   -8.992300  -53.126200
  H    -84.298900  -10.749400  -53.139700
  S    -79.389600   -5.132920  -59.159100
  C    -80.204000   -4.341040  -60.521300
  C    -81.342000   -5.066940  -60.885600
  C    -81.698100   -6.110440  -59.997700
  C    -80.743400   -6.235330  -58.958300
  H    -81.834600   -4.875050  -61.835000
  C    -83.003500   -6.986940  -60.041600
  H    -82.854400   -7.955570  -59.562000
  H    -83.136400   -7.246750  -61.109300
  C    -84.314800   -6.336350  -59.565500
  H    -84.333000   -5.350220  -59.982500
  H    -84.322400   -6.159840  -58.434300
  C    -85.595400   -7.069740  -60.059100
  H    -86.440400   -6.452930  -60.292000
  H    -85.917400   -7.848380  -59.247400
  H    -85.420300   -7.515000  -61.047000
  H    -79.454300   -9.443820  -55.543500
  H    -79.768900   -3.571440  -61.087100

 Total Charge           Charge          ....    0
 Multiplicity           Mult            ....    1
 Number of Electrons    NEL             ....  134
 Basis Dimension        Dim             ....  322

ORBITAL ENERGIES
----------------

  NO   OCC          E(Eh)            E(eV)
   0   2.0000     -88.968220     -2420.9484
   1   2.0000     -88.967392     -2420.9258
   2   2.0000     -10.328048      -281.0405
   3   2.0000     -10.327914      -281.0368
   4   2.0000     -10.319463      -280.8069
   5   2.0000     -10.317425      -280.7514
   6   2.0000     -10.312137      -280.6075
   7   2.0000     -10.306782      -280.4618
   8   2.0000     -10.302312      -280.3402
   9   2.0000     -10.301305      -280.3128
  10   2.0000     -10.297319      -280.2043
  11   2.0000     -10.296967      -280.1947
  12   2.0000     -10.293744      -280.1070
  13   2.0000     -10.292048      -280.0609
  14   2.0000     -10.287355      -279.9332
  15   2.0000     -10.278572      -279.6942
  16   2.0000      -8.083821      -219.9720
  17   2.0000      -8.081469      -219.9080
  18   2.0000      -6.042066      -164.4130
  19   2.0000      -6.039923      -164.3546
  20   2.0000      -6.038281      -164.3100
  21   2.0000      -6.036056      -164.2494
  22   2.0000      -6.034724      -164.2132
  23   2.0000      -6.032336      -164.1482
  24   2.0000      -1.003251       -27.2999
  25   2.0000      -0.977030       -26.5863
  26   2.0000      -0.911008       -24.7898
  27   2.0000      -0.900212       -24.4960
  28   2.0000      -0.861660       -23.4470
  29   2.0000      -0.847521       -23.0622
  30   2.0000      -0.843789       -22.9607
  31   2.0000      -0.807206       -21.9652
  32   2.0000      -0.781358       -21.2618
  33   2.0000      -0.767689       -20.8899
  34   2.0000      -0.697743       -18.9866
  35   2.0000      -0.695101       -18.9147
  36   2.0000      -0.690977       -18.8024
  37   2.0000      -0.658353       -17.9147
  38   2.0000      -0.638811       -17.3829
  39   2.0000      -0.617841       -16.8123
  40   2.0000      -0.594708       -16.1828
  41   2.0000      -0.574028       -15.6201
  42   2.0000      -0.559111       -15.2142
  43   2.0000      -0.552460       -15.0332
  44   2.0000      -0.521973       -14.2036
  45   2.0000      -0.520088       -14.1523
  46   2.0000      -0.512791       -13.9538
  47   2.0000      -0.507950       -13.8220
  48   2.0000      -0.504592       -13.7306
  49   2.0000      -0.495565       -13.4850
  50   2.0000      -0.485163       -13.2020
  51   2.0000      -0.475067       -12.9272
  52   2.0000      -0.471856       -12.8399
  53   2.0000      -0.462150       -12.5757
  54   2.0000      -0.455545       -12.3960
  55   2.0000      -0.450114       -12.2482
  56   2.0000      -0.447790       -12.1850
  57   2.0000      -0.437535       -11.9059
  58   2.0000      -0.433952       -11.8084
  59   2.0000      -0.424924       -11.5628
  60   2.0000      -0.421711       -11.4753
  61   2.0000      -0.417608       -11.3637
  62   2.0000      -0.414563       -11.2808
  63   2.0000      -0.340494        -9.2653
  64   2.0000      -0.332255        -9.0411
  65   2.0000      -0.329183        -8.9575
  66   2.0000      -0.289930        -7.8894
  67   0.0000       0.033225         0.9041
  68   0.0000       0.060482         1.6458
  69   0.0000       0.100457         2.7336
  70   0.0000       0.118669         3.2292
  71   0.0000       0.125006         3.4016

MULLIKEN ATOMIC CHARGES
-----------------------
   0 S :    0.117739
   1 C :   -0.139854
   2 C :   -0.092442
   3 C :    0.033546
   4 C :   -0.165960
   5 H :    0.027120
   6 C :    0.039385
   7 H :    0.031710
   8 H :    0.041350
   9 C :   -0.111116
  10 H :    0.043253
  11 H :    0.036679
  12 C :   -0.012823
  13 H :    0.015028
  14 H :    0.036704
  15 H :    0.031766
  16 S :    0.109301
  17 C :   -0.086606
  18 C :   -0.038396
  19 C :   -0.018204
  20 C :   -0.167709
  21 H :    0.022349
  22 C :    0.060079
  23 H :    0.038600
  24 H :    0.018249
  25 C :   -0.068971
  26 H :    0.018990
  27 H :    0.037701
  28 C :   -0.069918
  29 H :    0.030986
  30 H :    0.054357
  31 H :    0.027435
  32 H :    0.055405
  33 H :    0.044265
Sum of atomic charges:   -0.0000000

LOEWDIN ATOMIC CHARGES
----------------------
   0 S :    0.429970
   1 C :   -0.208971
   2 C :   -0.054804
   3 C :   -0.066986
   4 C :   -0.203175
   5 H :    0.036986
   6 C :   -0.031577
   7 H :    0.031304
   8 H :    0.035110
   9 C :   -0.042917
  10 H :    0.027859
  11 H :    0.028574
  12 C :   -0.063391
  13 H :    0.020052
  14 H :    0.029317
  15 H :    0.022265
  16 S :    0.396236
  17 C :   -0.175836
  18 C :   -0.068297
  19 C :   -0.059249
  20 C :   -0.203741
  21 H :    0.032265
  22 C :   -0.030606
  23 H :    0.031480
  24 H :    0.031002
  25 C :   -0.047210
  26 H :    0.020021
  27 H :    0.027876
  28 C :   -0.074780
  29 H :    0.023051
  30 H :    0.038949
  31 H :    0.025929
  32 H :    0.024451
  33 H :    0.018845

  Mayer bond orders larger than 0.100000
B(  0-S ,  1-C ) :   1.1497 B(  0-S ,  4-C ) :   1.1809 B(  1-C ,  2-C ) :   1.5950
B(  1-C , 32-H ) :   0.9683 B(  2-C ,  3-C ) :   1.2427 B(  2-C ,  6-C ) :   1.0135
B(  3-C ,  4-C ) :   1.5811 B(  3-C ,  5-H ) :   0.9809 B(  4-C , 20-C ) :   0.9955
B(  6-C ,  7-H ) :   0.9435 B(  6-C ,  8-H ) :   0.9466 B(  6-C ,  9-C ) :   1.0551
B(  9-C , 10-H ) :   0.9595 B(  9-C , 11-H ) :   0.9593 B(  9-C , 12-C ) :   1.0758
B( 12-C , 13-H ) :   0.9723 B( 12-C , 14-H ) :   0.9753 B( 12-C , 15-H ) :   0.9752
B( 16-S , 17-C ) :   1.1504 B( 16-S , 20-C ) :   1.1564 B( 17-C , 18-C ) :   1.5878
B( 17-C , 20-C ) :   0.1112 B( 17-C , 33-H ) :   0.9765 B( 18-C , 19-C ) :   1.2642
B( 18-C , 21-H ) :   0.9848 B( 19-C , 20-C ) :   1.5772 B( 19-C , 22-C ) :   1.0412
B( 22-C , 23-H ) :   0.9361 B( 22-C , 24-H ) :   0.9329 B( 22-C , 25-C ) :   1.0628
B( 25-C , 26-H ) :   0.9553 B( 25-C , 27-H ) :   0.9529 B( 25-C , 28-C ) :   1.0684
B( 28-C , 29-H ) :   0.9770 B( 28-C , 30-H ) :   0.9776 B( 28-C , 31-H ) :   0.9735

Dispersion correction           -0.013761980
FINAL SINGLE POINT ENERGY     -1339.872781769513

DIPOLE MOMENT
-------------
                                X             Y             Z
Electronic contribution:     29.15609      10.09860      -9.50889
Nuclear contribution   :    -29.71270     -10.22370       9.56951
                        -----------------------------------------
Total Dipole Moment    :     -0.55661      -0.12510       0.06062
                        -----------------------------------------
Magnitude (a.u.)       :      0.57371
Magnitude (Debye)      :      1.45825

Rotational constants in cm-1:     0.017367     0.008664     0.006209
Rotational constants in MHz :   520.635116   259.748545   186.127766

                             ****ORCA TERMINATED NORMALLY****
TOTAL RUN TIME: 0 days 0 hours 0 minutes 21 seconds 42 msec
