                         Program Version 4.2.1 -  RELEASE  -
|  1> ! wB97X-D3 SP def2-SVP
|  2> %pal
|  3> nprocs 24
|  4> end
|  5>
|  6> * xyz 0 1
|  7> S 	 -117.06 	 42.1911 	 -112.155
|  8> C 	 -117.278 	 41.2642 	 -113.631
|  9> C 	 -116.168 	 40.4156 	 -113.784
| 10> C 	 -115.294 	 40.3778 	 -112.65
| 11> C 	 -115.533 	 41.3978 	 -111.813
| 12> H 	 -114.318 	 39.8759 	 -112.571
| 13> C 	 -115.987 	 39.5182 	 -114.999
| 14> H 	 -115.428 	 40.0405 	 -115.768
| 15> H 	 -117.003 	 39.3388 	 -115.34
| 16> C 	 -115.401 	 38.1198 	 -114.66
| 17> H 	 -114.473 	 38.3473 	 -114.158
| 18> H 	 -115.949 	 37.6062 	 -113.936
| 19> C 	 -115.224 	 37.263 	 -115.902
| 20> H 	 -114.324 	 37.6317 	 -116.31
| 21> H 	 -115.175 	 36.2369 	 -115.634
| 22> H 	 -116.035 	 37.4657 	 -116.624
| 23> S 	 -114.17 	 43.5464 	 -110.528
| 24> C 	 -112.836 	 43.0193 	 -109.419
| 25> C 	 -112.929 	 41.6818 	 -109.112
| 26> C 	 -113.946 	 40.9766 	 -109.795
| 27> C 	 -114.637 	 41.8231 	 -110.703
| 28> H 	 -112.301 	 41.2049 	 -108.32
| 29> C 	 -114.115 	 39.5021 	 -109.643
| 30> H 	 -113.353 	 39.1984 	 -108.988
| 31> H 	 -113.8 	 38.9591 	 -110.561
| 32> C 	 -115.5 	 38.999 	 -109.088
| 33> H 	 -116.255 	 39.2027 	 -109.834
| 34> H 	 -115.815 	 39.5655 	 -108.153
| 35> C 	 -115.598 	 37.4715 	 -108.973
| 36> H 	 -114.92 	 37.0643 	 -108.226
| 37> H 	 -115.371 	 37.0242 	 -109.916
| 38> H 	 -116.654 	 37.1626 	 -108.818
| 39> H 	 -118.121 	 41.3682 	 -114.34
| 40> H 	 -112.094 	 43.5904 	 -108.926
| 41> *
| 42>
| 43>                          ****END OF INPUT****

CARTESIAN COORDINATES (ANGSTROEM)
---------------------------------
  S    -117.060000   42.191100  -112.155000
  C    -117.278000   41.264200  -113.631000
  C    -116.168000   40.415600  -113.784000
  C    -115.294000   40.377800  -112.650000
  C    -115.533000   41.397800  -111.813000
  H    -114.318000   39.875900  -112.571000
  C    -115.987000   39.518200  -114.999000
  H    -115.428000   40.040500  -115.768000
  H    -117.003000   39.338800  -115.340000
  C    -115.401000   38.119800  -114.660000
  H    -114.473000   38.347300  -114.158000
  H    -115.949000   37.606200  -113.936000
  C    -115.224000   37.263000  -115.902000
  H    -114.324000   37.631700  -116.310000
  H    -115.175000   36.236900  -115.634000
  H    -116.035000   37.465700  -116.624000
  S    -114.170000   43.546400  -110.528000
  C    -112.836000   43.019300  -109.419000
  C    -112.929000   41.681800  -109.112000
  C    -113.946000   40.976600  -109.795000
  C    -114.637000   41.823100  -110.703000
  H    -112.301000   41.204900  -108.320000
  C    -114.115000   39.502100  -109.643000
  H    -113.353000   39.198400  -108.988000
  H    -113.800000   38.959100  -110.561000
  C    -115.500000   38.999000  -109.088000
  H    -116.255000   39.202700  -109.834000
  H    -115.815000   39.565500  -108.153000
  C    -115.598000   37.471500  -108.973000
  H    -114.920000   37.064300  -108.226000
  H    -115.371000   37.024200  -109.916000
  H    -116.654000   37.162600  -108.818000
  H    -118.121000   41.368200  -114.340000
  H    -112.094000   43.590400  -108.926000

 Total Charge           Charge          ....    0
 Multiplicity           Mult            ....    1
 Number of Electrons    NEL             ....  134
 Basis Dimension        Dim             ....  322

ORBITAL ENERGIES
----------------

  NO   OCC          E(Eh)            E(eV)
   0   2.0000     -88.972909     -2421.0759
   1   2.0000     -88.964623     -2420.8505
   2   2.0000     -10.334853      -281.2257
   3   2.0000     -10.329171      -281.0710
   4   2.0000     -10.319146      -280.7982
   5   2.0000     -10.317239      -280.7463
   6   2.0000     -10.303912      -280.3837
   7   2.0000     -10.303744      -280.3791
   8   2.0000     -10.296350      -280.1779
   9   2.0000     -10.291688      -280.0511
  10   2.0000     -10.291119      -280.0356
  11   2.0000     -10.289979      -280.0046
  12   2.0000     -10.289402      -279.9889
  13   2.0000     -10.278579      -279.6943
  14   2.0000     -10.276836      -279.6469
  15   2.0000     -10.272845      -279.5383
  16   2.0000      -8.085491      -220.0174
  17   2.0000      -8.079207      -219.8464
  18   2.0000      -6.044151      -164.4697
  19   2.0000      -6.040482      -164.3699
  20   2.0000      -6.037751      -164.2956
  21   2.0000      -6.036034      -164.2488
  22   2.0000      -6.033725      -164.1860
  23   2.0000      -6.029960      -164.0835
  24   2.0000      -1.002999       -27.2930
  25   2.0000      -0.978303       -26.6210
  26   2.0000      -0.912765       -24.8376
  27   2.0000      -0.903514       -24.5859
  28   2.0000      -0.867193       -23.5975
  29   2.0000      -0.853043       -23.2125
  30   2.0000      -0.847409       -23.0592
  31   2.0000      -0.818109       -22.2619
  32   2.0000      -0.780540       -21.2396
  33   2.0000      -0.766314       -20.8525
  34   2.0000      -0.713020       -19.4023
  35   2.0000      -0.700153       -19.0521
  36   2.0000      -0.687610       -18.7108
  37   2.0000      -0.655202       -17.8289
  38   2.0000      -0.641995       -17.4696
  39   2.0000      -0.618272       -16.8240
  40   2.0000      -0.592897       -16.1335
  41   2.0000      -0.575851       -15.6697
  42   2.0000      -0.560773       -15.2594
  43   2.0000      -0.557945       -15.1824
  44   2.0000      -0.530468       -14.4348
  45   2.0000      -0.524121       -14.2620
  46   2.0000      -0.515001       -14.0139
  47   2.0000      -0.508924       -13.8485
  48   2.0000      -0.502728       -13.6799
  49   2.0000      -0.497347       -13.5335
  50   2.0000      -0.491889       -13.3850
  51   2.0000      -0.485431       -13.2092
  52   2.0000      -0.471347       -12.8260
  53   2.0000      -0.468557       -12.7501
  54   2.0000      -0.455405       -12.3922
  55   2.0000      -0.449896       -12.2423
  56   2.0000      -0.443803       -12.0765
  57   2.0000      -0.440658       -11.9909
  58   2.0000      -0.434404       -11.8207
  59   2.0000      -0.427585       -11.6352
  60   2.0000      -0.420227       -11.4349
  61   2.0000      -0.413335       -11.2474
  62   2.0000      -0.408239       -11.1087
  63   2.0000      -0.350594        -9.5402
  64   2.0000      -0.335817        -9.1381
  65   2.0000      -0.326910        -8.8957
  66   2.0000      -0.287074        -7.8117
  67   0.0000       0.023046         0.6271
  68   0.0000       0.067402         1.8341
  69   0.0000       0.103343         2.8121
  70   0.0000       0.119900         3.2626
  71   0.0000       0.131173         3.5694

MULLIKEN ATOMIC CHARGES
-----------------------
   0 S :    0.099563
   1 C :   -0.132866
   2 C :   -0.103545
   3 C :   -0.000773
   4 C :   -0.132262
   5 H :    0.033498
   6 C :    0.060317
   7 H :    0.045572
   8 H :    0.017117
   9 C :   -0.101496
  10 H :    0.020422
  11 H :    0.013625
  12 C :    0.009770
  13 H :    0.020654
  14 H :    0.033163
  15 H :    0.031754
  16 S :    0.112213
  17 C :   -0.072934
  18 C :   -0.050626
  19 C :   -0.040454
  20 C :   -0.149728
  21 H :    0.036106
  22 C :    0.086004
  23 H :   -0.011925
  24 H :    0.025308
  25 C :   -0.088679
  26 H :    0.036407
  27 H :    0.046986
  28 C :   -0.034424
  29 H :    0.032576
  30 H :    0.015915
  31 H :    0.038389
  32 H :    0.063969
  33 H :    0.040384
Sum of atomic charges:    0.0000000

LOEWDIN ATOMIC CHARGES
----------------------
   0 S :    0.393331
   1 C :   -0.209442
   2 C :   -0.056487
   3 C :   -0.077904
   4 C :   -0.180164
   5 H :    0.038543
   6 C :   -0.028992
   7 H :    0.032275
   8 H :    0.028044
   9 C :   -0.036678
  10 H :    0.017238
  11 H :    0.014088
  12 C :   -0.053471
  13 H :    0.022599
  14 H :    0.023859
  15 H :    0.028948
  16 S :    0.372713
  17 C :   -0.167021
  18 C :   -0.071553
  19 C :   -0.057959
  20 C :   -0.180291
  21 H :    0.040031
  22 C :   -0.035749
  23 H :    0.020264
  24 H :    0.034435
  25 C :   -0.039870
  26 H :    0.025257
  27 H :    0.033061
  28 C :   -0.064985
  29 H :    0.021041
  30 H :    0.020351
  31 H :    0.032925
  32 H :    0.036970
  33 H :    0.024592

  Mayer bond orders larger than 0.100000
B(  0-S ,  1-C ) :   1.1183 B(  0-S ,  4-C ) :   1.1485 B(  1-C ,  2-C ) :   1.6226
B(  1-C , 32-H ) :   0.9687 B(  2-C ,  3-C ) :   1.2280 B(  2-C ,  6-C ) :   1.0139
B(  3-C ,  4-C ) :   1.6087 B(  3-C ,  5-H ) :   0.9759 B(  4-C , 20-C ) :   1.0305
B(  6-C ,  7-H ) :   0.9386 B(  6-C ,  8-H ) :   0.9399 B(  6-C ,  9-C ) :   1.0734
B(  9-C , 10-H ) :   0.9505 B(  9-C , 11-H ) :   0.9616 B(  9-C , 12-C ) :   1.0740
B( 12-C , 13-H ) :   0.9766 B( 12-C , 14-H ) :   0.9740 B( 12-C , 15-H ) :   0.9751
B( 16-S , 17-C ) :   1.1262 B( 16-S , 20-C ) :   1.1324 B( 17-C , 18-C ) :   1.6324
B( 17-C , 20-C ) :   0.1034 B( 17-C , 33-H ) :   0.9671 B( 18-C , 19-C ) :   1.2623
B( 18-C , 21-H ) :   0.9717 B( 19-C , 20-C ) :   1.5637 B( 19-C , 22-C ) :   1.0508
B( 22-C , 23-H ) :   0.9217 B( 22-C , 24-H ) :   0.9243 B( 22-C , 25-C ) :   1.0505
B( 25-C , 26-H ) :   0.9549 B( 25-C , 27-H ) :   0.9579 B( 25-C , 28-C ) :   1.0835
B( 28-C , 29-H ) :   0.9772 B( 28-C , 30-H ) :   0.9703 B( 28-C , 31-H ) :   0.9739

Dispersion correction           -0.014320942
FINAL SINGLE POINT ENERGY     -1339.868047962194

DIPOLE MOMENT
-------------
                                X             Y             Z
Electronic contribution:     -1.54456      29.97941       6.20922
Nuclear contribution   :      1.83672     -30.64486      -6.33385
                        -----------------------------------------
Total Dipole Moment    :      0.29216      -0.66545      -0.12464
                        -----------------------------------------
Magnitude (a.u.)       :      0.73737
Magnitude (Debye)      :      1.87424

Rotational constants in cm-1:     0.016720     0.009057     0.007232
Rotational constants in MHz :   501.264680   271.536868   216.813216

                             ****ORCA TERMINATED NORMALLY****
TOTAL RUN TIME: 0 days 0 hours 0 minutes 20 seconds 786 msec
