                         Program Version 4.2.1 -  RELEASE  -
|  1> ! wB97X-D3 SP def2-SVP
|  2> %pal
|  3> nprocs 24
|  4> end
|  5>
|  6> * xyz 0 1
|  7> S 	 -104.662 	 51.2605 	 -11.2679
|  8> C 	 -105.93 	 52.4744 	 -11.4241
|  9> C 	 -106.062 	 52.8183 	 -12.7669
| 10> C 	 -105.079 	 52.2471 	 -13.6327
| 11> C 	 -104.374 	 51.1707 	 -13.0281
| 12> H 	 -104.985 	 52.4704 	 -14.6963
| 13> C 	 -107.15 	 53.7901 	 -13.2856
| 14> H 	 -106.635 	 54.6076 	 -13.6911
| 15> H 	 -107.807 	 54.1161 	 -12.4618
| 16> C 	 -108.057 	 53.1544 	 -14.37
| 17> H 	 -108.703 	 53.9714 	 -14.6944
| 18> H 	 -107.58 	 52.7636 	 -15.2519
| 19> C 	 -109.06 	 52.0579 	 -13.8295
| 20> H 	 -109.71 	 51.7474 	 -14.6774
| 21> H 	 -108.492 	 51.1175 	 -13.5557
| 22> H 	 -109.607 	 52.386 	 -13.0161
| 23> S 	 -101.782 	 50.6094 	 -13.0861
| 24> C 	 -101.249 	 49.2168 	 -13.9413
| 25> C 	 -102.242 	 48.7011 	 -14.7704
| 26> C 	 -103.526 	 49.2977 	 -14.54
| 27> C 	 -103.409 	 50.3329 	 -13.6304
| 28> H 	 -101.906 	 47.8786 	 -15.4735
| 29> C 	 -104.773 	 48.754 	 -15.2033
| 30> H 	 -104.5 	 48.2399 	 -16.1138
| 31> H 	 -105.363 	 49.6277 	 -15.4586
| 32> C 	 -105.689 	 47.7566 	 -14.3487
| 33> H 	 -105.094 	 46.8053 	 -14.2463
| 34> H 	 -106.519 	 47.4365 	 -14.9151
| 35> C 	 -106.089 	 48.2214 	 -12.9143
| 36> H 	 -106.761 	 47.4848 	 -12.384
| 37> H 	 -106.576 	 49.1975 	 -13.0149
| 38> H 	 -105.174 	 48.2354 	 -12.2686
| 39> H 	 -106.462 	 52.9862 	 -10.5914
| 40> H 	 -100.238 	 48.878 	 -13.8633
| 41> *
| 42>
| 43>                          ****END OF INPUT****

CARTESIAN COORDINATES (ANGSTROEM)
---------------------------------
  S    -104.662000   51.260500  -11.267900
  C    -105.930000   52.474400  -11.424100
  C    -106.062000   52.818300  -12.766900
  C    -105.079000   52.247100  -13.632700
  C    -104.374000   51.170700  -13.028100
  H    -104.985000   52.470400  -14.696300
  C    -107.150000   53.790100  -13.285600
  H    -106.635000   54.607600  -13.691100
  H    -107.807000   54.116100  -12.461800
  C    -108.057000   53.154400  -14.370000
  H    -108.703000   53.971400  -14.694400
  H    -107.580000   52.763600  -15.251900
  C    -109.060000   52.057900  -13.829500
  H    -109.710000   51.747400  -14.677400
  H    -108.492000   51.117500  -13.555700
  H    -109.607000   52.386000  -13.016100
  S    -101.782000   50.609400  -13.086100
  C    -101.249000   49.216800  -13.941300
  C    -102.242000   48.701100  -14.770400
  C    -103.526000   49.297700  -14.540000
  C    -103.409000   50.332900  -13.630400
  H    -101.906000   47.878600  -15.473500
  C    -104.773000   48.754000  -15.203300
  H    -104.500000   48.239900  -16.113800
  H    -105.363000   49.627700  -15.458600
  C    -105.689000   47.756600  -14.348700
  H    -105.094000   46.805300  -14.246300
  H    -106.519000   47.436500  -14.915100
  C    -106.089000   48.221400  -12.914300
  H    -106.761000   47.484800  -12.384000
  H    -106.576000   49.197500  -13.014900
  H    -105.174000   48.235400  -12.268600
  H    -106.462000   52.986200  -10.591400
  H    -100.238000   48.878000  -13.863300

 Total Charge           Charge          ....    0
 Multiplicity           Mult            ....    1
 Number of Electrons    NEL             ....  134
 Basis Dimension        Dim             ....  322

ORBITAL ENERGIES
----------------

  NO   OCC          E(Eh)            E(eV)
   0   2.0000     -88.964319     -2420.8422
   1   2.0000     -88.963886     -2420.8304
   2   2.0000     -10.330810      -281.1156
   3   2.0000     -10.319817      -280.8165
   4   2.0000     -10.317903      -280.7644
   5   2.0000     -10.313776      -280.6521
   6   2.0000     -10.307422      -280.4792
   7   2.0000     -10.301636      -280.3218
   8   2.0000     -10.299271      -280.2574
   9   2.0000     -10.298630      -280.2400
  10   2.0000     -10.294648      -280.1316
  11   2.0000     -10.292804      -280.0814
  12   2.0000     -10.288437      -279.9626
  13   2.0000     -10.288181      -279.9556
  14   2.0000     -10.279231      -279.7121
  15   2.0000     -10.278226      -279.6847
  16   2.0000      -8.080146      -219.8719
  17   2.0000      -8.077492      -219.7997
  18   2.0000      -6.038449      -164.3145
  19   2.0000      -6.036045      -164.2491
  20   2.0000      -6.034512      -164.2074
  21   2.0000      -6.032065      -164.1408
  22   2.0000      -6.031038      -164.1129
  23   2.0000      -6.028330      -164.0392
  24   2.0000      -1.007979       -27.4285
  25   2.0000      -0.978455       -26.6251
  26   2.0000      -0.904035       -24.6000
  27   2.0000      -0.899176       -24.4678
  28   2.0000      -0.868797       -23.6412
  29   2.0000      -0.845606       -23.0101
  30   2.0000      -0.837515       -22.7899
  31   2.0000      -0.807417       -21.9709
  32   2.0000      -0.782240       -21.2858
  33   2.0000      -0.770479       -20.9658
  34   2.0000      -0.709088       -19.2953
  35   2.0000      -0.694720       -18.9043
  36   2.0000      -0.689903       -18.7732
  37   2.0000      -0.659320       -17.9410
  38   2.0000      -0.635093       -17.2818
  39   2.0000      -0.616433       -16.7740
  40   2.0000      -0.589740       -16.0476
  41   2.0000      -0.561578       -15.2813
  42   2.0000      -0.552347       -15.0301
  43   2.0000      -0.547179       -14.8895
  44   2.0000      -0.540271       -14.7015
  45   2.0000      -0.530278       -14.4296
  46   2.0000      -0.518014       -14.0959
  47   2.0000      -0.508768       -13.8443
  48   2.0000      -0.503361       -13.6971
  49   2.0000      -0.497418       -13.5354
  50   2.0000      -0.484284       -13.1780
  51   2.0000      -0.480685       -13.0801
  52   2.0000      -0.463243       -12.6055
  53   2.0000      -0.460530       -12.5317
  54   2.0000      -0.458551       -12.4778
  55   2.0000      -0.445518       -12.1232
  56   2.0000      -0.440631       -11.9902
  57   2.0000      -0.434176       -11.8145
  58   2.0000      -0.431683       -11.7467
  59   2.0000      -0.428624       -11.6635
  60   2.0000      -0.423290       -11.5183
  61   2.0000      -0.412996       -11.2382
  62   2.0000      -0.403316       -10.9748
  63   2.0000      -0.334762        -9.1093
  64   2.0000      -0.330982        -9.0065
  65   2.0000      -0.320800        -8.7294
  66   2.0000      -0.297476        -8.0947
  67   0.0000       0.028928         0.7872
  68   0.0000       0.062163         1.6915
  69   0.0000       0.111035         3.0214
  70   0.0000       0.124296         3.3823
  71   0.0000       0.128049         3.4844

MULLIKEN ATOMIC CHARGES
-----------------------
   0 S :    0.108502
   1 C :   -0.137633
   2 C :   -0.108477
   3 C :    0.049100
   4 C :   -0.183610
   5 H :    0.023988
   6 C :    0.104618
   7 H :    0.026004
   8 H :    0.019581
   9 C :   -0.096247
  10 H :    0.028773
  11 H :    0.029660
  12 C :   -0.069209
  13 H :    0.038853
  14 H :    0.049138
  15 H :    0.022516
  16 S :    0.127302
  17 C :   -0.099250
  18 C :   -0.068049
  19 C :   -0.013613
  20 C :   -0.196253
  21 H :    0.043312
  22 C :    0.104389
  23 H :    0.020856
  24 H :    0.020843
  25 C :   -0.074507
  26 H :    0.023753
  27 H :    0.023166
  28 C :   -0.082608
  29 H :    0.041570
  30 H :    0.057685
  31 H :    0.047163
  32 H :    0.067981
  33 H :    0.050703
Sum of atomic charges:    0.0000000

LOEWDIN ATOMIC CHARGES
----------------------
   0 S :    0.392009
   1 C :   -0.207646
   2 C :   -0.067933
   3 C :   -0.058275
   4 C :   -0.189486
   5 H :    0.032316
   6 C :   -0.022994
   7 H :    0.025018
   8 H :    0.031327
   9 C :   -0.039065
  10 H :    0.024311
  11 H :    0.019019
  12 C :   -0.063578
  13 H :    0.030677
  14 H :    0.031276
  15 H :    0.010697
  16 S :    0.430893
  17 C :   -0.190379
  18 C :   -0.080243
  19 C :   -0.048743
  20 C :   -0.214520
  21 H :    0.043622
  22 C :   -0.026644
  23 H :    0.031661
  24 H :    0.028120
  25 C :   -0.036961
  26 H :    0.025176
  27 H :    0.015387
  28 C :   -0.074844
  29 H :    0.032332
  30 H :    0.024998
  31 H :    0.029408
  32 H :    0.040611
  33 H :    0.022451

  Mayer bond orders larger than 0.100000
B(  0-S ,  1-C ) :   1.1338 B(  0-S ,  4-C ) :   1.1448 B(  1-C ,  2-C ) :   1.6002
B(  1-C ,  4-C ) :   0.1076 B(  1-C , 32-H ) :   0.9639 B(  2-C ,  3-C ) :   1.2504
B(  2-C ,  6-C ) :   1.0192 B(  3-C ,  4-C ) :   1.5533 B(  3-C ,  5-H ) :   0.9855
B(  4-C , 20-C ) :   1.0684 B(  6-C ,  7-H ) :   0.9373 B(  6-C ,  8-H ) :   0.9453
B(  6-C ,  9-C ) :   1.0716 B(  9-C , 10-H ) :   0.9570 B(  9-C , 11-H ) :   0.9604
B(  9-C , 12-C ) :   1.0702 B( 12-C , 13-H ) :   0.9744 B( 12-C , 14-H ) :   0.9766
B( 12-C , 15-H ) :   0.9771 B( 16-S , 17-C ) :   1.1675 B( 16-S , 20-C ) :   1.1632
B( 17-C , 18-C ) :   1.6060 B( 17-C , 20-C ) :   0.1019 B( 17-C , 33-H ) :   0.9712
B( 18-C , 19-C ) :   1.2291 B( 18-C , 21-H ) :   0.9819 B( 19-C , 20-C ) :   1.5829
B( 19-C , 22-C ) :   1.0431 B( 22-C , 23-H ) :   0.9328 B( 22-C , 24-H ) :   0.9280
B( 22-C , 25-C ) :   1.0642 B( 25-C , 26-H ) :   0.9558 B( 25-C , 27-H ) :   0.9591
B( 25-C , 28-C ) :   1.0770 B( 28-C , 29-H ) :   0.9724 B( 28-C , 30-H ) :   0.9723
B( 28-C , 31-H ) :   0.9696

Dispersion correction           -0.016418545
FINAL SINGLE POINT ENERGY     -1339.877691135129

DIPOLE MOMENT
-------------
                                X             Y             Z
Electronic contribution:     24.51575       3.49902       9.57887
Nuclear contribution   :    -24.84113      -3.48889     -10.02882
                        -----------------------------------------
Total Dipole Moment    :     -0.32538       0.01013      -0.44995
                        -----------------------------------------
Magnitude (a.u.)       :      0.55536
Magnitude (Debye)      :      1.41163

Rotational constants in cm-1:     0.020574     0.009715     0.008114
Rotational constants in MHz :   616.779302   291.237703   243.257756

                             ****ORCA TERMINATED NORMALLY****
TOTAL RUN TIME: 0 days 0 hours 0 minutes 22 seconds 867 msec
