                         Program Version 4.2.1 -  RELEASE  -
|  1> ! wB97X-D3 SP def2-SVP
|  2> %pal
|  3> nprocs 24
|  4> end
|  5>
|  6> * xyz 0 1
|  7> S 	 -121.974 	 63.0909 	 -35.2399
|  8> C 	 -122.394 	 61.3987 	 -35.3513
|  9> C 	 -121.254 	 60.6376 	 -35.7287
| 10> C 	 -120.1 	 61.4248 	 -35.9874
| 11> C 	 -120.377 	 62.7943 	 -35.7949
| 12> H 	 -119.094 	 61.1352 	 -36.3609
| 13> C 	 -121.116 	 59.1101 	 -35.8996
| 14> H 	 -121.072 	 58.7242 	 -36.9796
| 15> H 	 -122.018 	 58.6651 	 -35.4624
| 16> C 	 -119.888 	 58.5656 	 -35.0681
| 17> H 	 -119.671 	 57.5772 	 -35.5239
| 18> H 	 -118.999 	 59.1237 	 -35.2718
| 19> C 	 -119.918 	 58.5899 	 -33.5622
| 20> H 	 -120.01 	 59.6414 	 -33.3433
| 21> H 	 -120.918 	 58.1489 	 -33.2651
| 22> H 	 -119.03 	 58.1466 	 -32.9585
| 23> S 	 -118.887 	 64.3559 	 -37.4823
| 24> C 	 -118.033 	 65.7985 	 -36.8546
| 25> C 	 -118.208 	 65.7969 	 -35.4769
| 26> C 	 -118.937 	 64.7274 	 -34.9032
| 27> C 	 -119.401 	 63.8805 	 -35.9117
| 28> H 	 -117.738 	 66.6368 	 -34.9077
| 29> C 	 -119.296 	 64.8104 	 -33.3881
| 30> H 	 -120.235 	 64.2661 	 -33.2524
| 31> H 	 -119.473 	 65.87 	 -33.3395
| 32> C 	 -118.154 	 64.4713 	 -32.3664
| 33> H 	 -118.489 	 64.8319 	 -31.4277
| 34> H 	 -117.25 	 65.0222 	 -32.4263
| 35> C 	 -117.921 	 62.9083 	 -32.3955
| 36> H 	 -117.175 	 62.6902 	 -31.6438
| 37> H 	 -117.515 	 62.7292 	 -33.3996
| 38> H 	 -118.769 	 62.2845 	 -32.1657
| 39> H 	 -123.317 	 60.9958 	 -35.0876
| 40> H 	 -117.333 	 66.4529 	 -37.4367
| 41> *
| 42>
| 43>                          ****END OF INPUT****

CARTESIAN COORDINATES (ANGSTROEM)
---------------------------------
  S    -121.974000   63.090900  -35.239900
  C    -122.394000   61.398700  -35.351300
  C    -121.254000   60.637600  -35.728700
  C    -120.100000   61.424800  -35.987400
  C    -120.377000   62.794300  -35.794900
  H    -119.094000   61.135200  -36.360900
  C    -121.116000   59.110100  -35.899600
  H    -121.072000   58.724200  -36.979600
  H    -122.018000   58.665100  -35.462400
  C    -119.888000   58.565600  -35.068100
  H    -119.671000   57.577200  -35.523900
  H    -118.999000   59.123700  -35.271800
  C    -119.918000   58.589900  -33.562200
  H    -120.010000   59.641400  -33.343300
  H    -120.918000   58.148900  -33.265100
  H    -119.030000   58.146600  -32.958500
  S    -118.887000   64.355900  -37.482300
  C    -118.033000   65.798500  -36.854600
  C    -118.208000   65.796900  -35.476900
  C    -118.937000   64.727400  -34.903200
  C    -119.401000   63.880500  -35.911700
  H    -117.738000   66.636800  -34.907700
  C    -119.296000   64.810400  -33.388100
  H    -120.235000   64.266100  -33.252400
  H    -119.473000   65.870000  -33.339500
  C    -118.154000   64.471300  -32.366400
  H    -118.489000   64.831900  -31.427700
  H    -117.250000   65.022200  -32.426300
  C    -117.921000   62.908300  -32.395500
  H    -117.175000   62.690200  -31.643800
  H    -117.515000   62.729200  -33.399600
  H    -118.769000   62.284500  -32.165700
  H    -123.317000   60.995800  -35.087600
  H    -117.333000   66.452900  -37.436700

 Total Charge           Charge          ....    0
 Multiplicity           Mult            ....    1
 Number of Electrons    NEL             ....  134
 Basis Dimension        Dim             ....  322

ORBITAL ENERGIES
----------------

  NO   OCC          E(Eh)            E(eV)
   0   2.0000     -88.973369     -2421.0884
   1   2.0000     -88.964706     -2420.8527
   2   2.0000     -10.328333      -281.0482
   3   2.0000     -10.325013      -280.9579
   4   2.0000     -10.323213      -280.9089
   5   2.0000     -10.316891      -280.7369
   6   2.0000     -10.308703      -280.5141
   7   2.0000     -10.305094      -280.4159
   8   2.0000     -10.302553      -280.3467
   9   2.0000     -10.298173      -280.2275
  10   2.0000     -10.295386      -280.1517
  11   2.0000     -10.294998      -280.1411
  12   2.0000     -10.286018      -279.8968
  13   2.0000     -10.285073      -279.8711
  14   2.0000     -10.284556      -279.8570
  15   2.0000     -10.274710      -279.5891
  16   2.0000      -8.087926      -220.0837
  17   2.0000      -8.079263      -219.8479
  18   2.0000      -6.046310      -164.5285
  19   2.0000      -6.042274      -164.4186
  20   2.0000      -6.039025      -164.3302
  21   2.0000      -6.037788      -164.2966
  22   2.0000      -6.033657      -164.1841
  23   2.0000      -6.030144      -164.0886
  24   2.0000      -1.006961       -27.4008
  25   2.0000      -0.982673       -26.7399
  26   2.0000      -0.907367       -24.6907
  27   2.0000      -0.899950       -24.4889
  28   2.0000      -0.865706       -23.5571
  29   2.0000      -0.849420       -23.1139
  30   2.0000      -0.842480       -22.9250
  31   2.0000      -0.808714       -22.0062
  32   2.0000      -0.779437       -21.2096
  33   2.0000      -0.770243       -20.9594
  34   2.0000      -0.710531       -19.3345
  35   2.0000      -0.698268       -19.0008
  36   2.0000      -0.688868       -18.7450
  37   2.0000      -0.659305       -17.9406
  38   2.0000      -0.638103       -17.3637
  39   2.0000      -0.617571       -16.8050
  40   2.0000      -0.589804       -16.0494
  41   2.0000      -0.565288       -15.3823
  42   2.0000      -0.549875       -14.9629
  43   2.0000      -0.544872       -14.8267
  44   2.0000      -0.532784       -14.4978
  45   2.0000      -0.531500       -14.4629
  46   2.0000      -0.520632       -14.1671
  47   2.0000      -0.516923       -14.0662
  48   2.0000      -0.497797       -13.5457
  49   2.0000      -0.492830       -13.4106
  50   2.0000      -0.485808       -13.2195
  51   2.0000      -0.476460       -12.9651
  52   2.0000      -0.472616       -12.8605
  53   2.0000      -0.463826       -12.6213
  54   2.0000      -0.454430       -12.3657
  55   2.0000      -0.452612       -12.3162
  56   2.0000      -0.444521       -12.0960
  57   2.0000      -0.442857       -12.0508
  58   2.0000      -0.432631       -11.7725
  59   2.0000      -0.419523       -11.4158
  60   2.0000      -0.413118       -11.2415
  61   2.0000      -0.412033       -11.2120
  62   2.0000      -0.407834       -11.0977
  63   2.0000      -0.337017        -9.1707
  64   2.0000      -0.335453        -9.1281
  65   2.0000      -0.323762        -8.8100
  66   2.0000      -0.300847        -8.1865
  67   0.0000       0.035684         0.9710
  68   0.0000       0.061441         1.6719
  69   0.0000       0.111855         3.0437
  70   0.0000       0.117634         3.2010
  71   0.0000       0.127211         3.4616

MULLIKEN ATOMIC CHARGES
-----------------------
   0 S :    0.135311
   1 C :   -0.100445
   2 C :   -0.088419
   3 C :    0.016278
   4 C :   -0.168983
   5 H :    0.039213
   6 C :    0.053042
   7 H :    0.065677
   8 H :    0.014860
   9 C :   -0.097778
  10 H :    0.025422
  11 H :    0.019638
  12 C :   -0.065229
  13 H :    0.033773
  14 H :    0.026088
  15 H :    0.066327
  16 S :    0.108542
  17 C :   -0.124235
  18 C :   -0.061587
  19 C :   -0.027079
  20 C :   -0.186887
  21 H :    0.033145
  22 C :    0.071201
  23 H :    0.024856
  24 H :    0.025171
  25 C :   -0.028411
  26 H :    0.010475
  27 H :    0.016898
  28 C :   -0.053357
  29 H :    0.027082
  30 H :    0.045187
  31 H :    0.041015
  32 H :    0.023920
  33 H :    0.079289
Sum of atomic charges:   -0.0000000

LOEWDIN ATOMIC CHARGES
----------------------
   0 S :    0.442984
   1 C :   -0.199364
   2 C :   -0.062446
   3 C :   -0.065561
   4 C :   -0.206908
   5 H :    0.041360
   6 C :   -0.031409
   7 H :    0.046277
   8 H :    0.025153
   9 C :   -0.050117
  10 H :    0.022255
  11 H :    0.016914
  12 C :   -0.075242
  13 H :    0.024560
  14 H :    0.025353
  15 H :    0.043771
  16 S :    0.406647
  17 C :   -0.193437
  18 C :   -0.076355
  19 C :   -0.066431
  20 C :   -0.216637
  21 H :    0.035336
  22 C :   -0.021691
  23 H :    0.023675
  24 H :    0.030481
  25 C :   -0.031527
  26 H :    0.017494
  27 H :    0.021027
  28 C :   -0.060611
  29 H :    0.021984
  30 H :    0.030280
  31 H :    0.024289
  32 H :    0.014753
  33 H :    0.043142

  Mayer bond orders larger than 0.100000
B(  0-S ,  1-C ) :   1.1505 B(  0-S ,  4-C ) :   1.1857 B(  1-C ,  2-C ) :   1.5702
B(  1-C ,  4-C ) :   0.1032 B(  1-C , 32-H ) :   0.9802 B(  2-C ,  3-C ) :   1.2569
B(  2-C ,  6-C ) :   1.0182 B(  3-C ,  4-C ) :   1.5531 B(  3-C ,  5-H ) :   0.9840
B(  4-C , 20-C ) :   1.0000 B(  6-C ,  7-H ) :   0.9465 B(  6-C ,  8-H ) :   0.9428
B(  6-C ,  9-C ) :   1.0571 B(  9-C , 10-H ) :   0.9560 B(  9-C , 11-H ) :   0.9579
B(  9-C , 12-C ) :   1.0598 B( 12-C , 13-H ) :   0.9726 B( 12-C , 14-H ) :   0.9731
B( 12-C , 15-H ) :   0.9721 B( 16-S , 17-C ) :   1.1371 B( 16-S , 20-C ) :   1.1717
B( 17-C , 18-C ) :   1.6092 B( 17-C , 20-C ) :   0.1037 B( 17-C , 33-H ) :   0.9636
B( 18-C , 19-C ) :   1.2597 B( 18-C , 21-H ) :   0.9747 B( 19-C , 20-C ) :   1.5578
B( 19-C , 22-C ) :   1.0106 B( 22-C , 23-H ) :   0.9372 B( 22-C , 24-H ) :   0.9388
B( 22-C , 25-C ) :   1.0735 B( 25-C , 26-H ) :   0.9529 B( 25-C , 27-H ) :   0.9571
B( 25-C , 28-C ) :   1.0622 B( 28-C , 29-H ) :   0.9754 B( 28-C , 30-H ) :   0.9792
B( 28-C , 31-H ) :   0.9789

Dispersion correction           -0.015427299
FINAL SINGLE POINT ENERGY     -1339.864980794512

DIPOLE MOMENT
-------------
                                X             Y             Z
Electronic contribution:     -7.96733      15.68127     -18.20823
Nuclear contribution   :      8.19456     -15.76927      18.59262
                        -----------------------------------------
Total Dipole Moment    :      0.22723      -0.08801       0.38439
                        -----------------------------------------
Magnitude (a.u.)       :      0.45512
Magnitude (Debye)      :      1.15682

Rotational constants in cm-1:     0.018607     0.009406     0.007978
Rotational constants in MHz :   557.821559   281.976742   239.182328

                             ****ORCA TERMINATED NORMALLY****
TOTAL RUN TIME: 0 days 0 hours 0 minutes 22 seconds 211 msec
