                         Program Version 4.2.1 -  RELEASE  -
|  1> ! wB97X-D3 SP def2-SVP
|  2> %pal
|  3> nprocs 24
|  4> end
|  5>
|  6> * xyz 0 1
|  7> S 	 -39.2996 	 13.2118 	 -8.38901
|  8> C 	 -39.1376 	 11.951 	 -9.64261
|  9> C 	 -39.4507 	 10.6782 	 -9.18646
| 10> C 	 -39.8902 	 10.7609 	 -7.84146
| 11> C 	 -39.7185 	 12.0222 	 -7.21856
| 12> H 	 -40.2793 	 9.90391 	 -7.1901
| 13> C 	 -39.4217 	 9.41202 	 -9.99178
| 14> H 	 -38.3717 	 9.05414 	 -10.0968
| 15> H 	 -39.705 	 9.77153 	 -10.9596
| 16> C 	 -40.2757 	 8.24832 	 -9.42825
| 17> H 	 -39.907 	 8.03302 	 -8.38591
| 18> H 	 -41.3271 	 8.5786 	 -9.34292
| 19> C 	 -40.4144 	 6.95317 	 -10.3707
| 20> H 	 -39.6513 	 7.05473 	 -11.2072
| 21> H 	 -40.2749 	 6.02973 	 -9.81874
| 22> H 	 -41.412 	 6.89431 	 -10.8222
| 23> S 	 -41.7194 	 13.1186 	 -5.80062
| 24> C 	 -41.7849 	 12.8402 	 -4.07573
| 25> C 	 -40.8398 	 11.9452 	 -3.72734
| 26> C 	 -39.8756 	 11.6643 	 -4.72541
| 27> C 	 -40.2154 	 12.2669 	 -5.91073
| 28> H 	 -40.8938 	 11.6657 	 -2.70316
| 29> C 	 -38.7392 	 10.6487 	 -4.56338
| 30> H 	 -38.0544 	 10.8246 	 -5.40871
| 31> H 	 -39.1287 	 9.61823 	 -4.65949
| 32> C 	 -37.984 	 10.7647 	 -3.22174
| 33> H 	 -38.7822 	 10.5137 	 -2.45242
| 34> H 	 -37.6815 	 11.7471 	 -3.13885
| 35> C 	 -36.8646 	 9.78268 	 -3.10802
| 36> H 	 -37.1811 	 8.71674 	 -3.0405
| 37> H 	 -36.3852 	 10.0624 	 -2.17086
| 38> H 	 -36.3125 	 9.71185 	 -4.02104
| 39> H 	 -38.7439 	 12.0727 	 -10.6788
| 40> H 	 -42.6823 	 12.8676 	 -3.43845
| 41> *
| 42>
| 43>                          ****END OF INPUT****

CARTESIAN COORDINATES (ANGSTROEM)
---------------------------------
  S    -39.299600   13.211800   -8.389010
  C    -39.137600   11.951000   -9.642610
  C    -39.450700   10.678200   -9.186460
  C    -39.890200   10.760900   -7.841460
  C    -39.718500   12.022200   -7.218560
  H    -40.279300    9.903910   -7.190100
  C    -39.421700    9.412020   -9.991780
  H    -38.371700    9.054140  -10.096800
  H    -39.705000    9.771530  -10.959600
  C    -40.275700    8.248320   -9.428250
  H    -39.907000    8.033020   -8.385910
  H    -41.327100    8.578600   -9.342920
  C    -40.414400    6.953170  -10.370700
  H    -39.651300    7.054730  -11.207200
  H    -40.274900    6.029730   -9.818740
  H    -41.412000    6.894310  -10.822200
  S    -41.719400   13.118600   -5.800620
  C    -41.784900   12.840200   -4.075730
  C    -40.839800   11.945200   -3.727340
  C    -39.875600   11.664300   -4.725410
  C    -40.215400   12.266900   -5.910730
  H    -40.893800   11.665700   -2.703160
  C    -38.739200   10.648700   -4.563380
  H    -38.054400   10.824600   -5.408710
  H    -39.128700    9.618230   -4.659490
  C    -37.984000   10.764700   -3.221740
  H    -38.782200   10.513700   -2.452420
  H    -37.681500   11.747100   -3.138850
  C    -36.864600    9.782680   -3.108020
  H    -37.181100    8.716740   -3.040500
  H    -36.385200   10.062400   -2.170860
  H    -36.312500    9.711850   -4.021040
  H    -38.743900   12.072700  -10.678800
  H    -42.682300   12.867600   -3.438450

 Total Charge           Charge          ....    0
 Multiplicity           Mult            ....    1
 Number of Electrons    NEL             ....  134
 Basis Dimension        Dim             ....  322

ORBITAL ENERGIES
----------------

  NO   OCC          E(Eh)            E(eV)
   0   2.0000     -88.972289     -2421.0591
   1   2.0000     -88.960323     -2420.7335
   2   2.0000     -10.324168      -280.9349
   3   2.0000     -10.318321      -280.7758
   4   2.0000     -10.318216      -280.7729
   5   2.0000     -10.308037      -280.4959
   6   2.0000     -10.301480      -280.3175
   7   2.0000     -10.300791      -280.2988
   8   2.0000     -10.298242      -280.2294
   9   2.0000     -10.298088      -280.2252
  10   2.0000     -10.297407      -280.2067
  11   2.0000     -10.291125      -280.0357
  12   2.0000     -10.290618      -280.0220
  13   2.0000     -10.284235      -279.8483
  14   2.0000     -10.280142      -279.7369
  15   2.0000     -10.275132      -279.6006
  16   2.0000      -8.086348      -220.0407
  17   2.0000      -8.075780      -219.7531
  18   2.0000      -6.044868      -164.4892
  19   2.0000      -6.040904      -164.3814
  20   2.0000      -6.037185      -164.2802
  21   2.0000      -6.034267      -164.2008
  22   2.0000      -6.030306      -164.0930
  23   2.0000      -6.026367      -163.9858
  24   2.0000      -1.012180       -27.5428
  25   2.0000      -0.985170       -26.8078
  26   2.0000      -0.911712       -24.8089
  27   2.0000      -0.910487       -24.7756
  28   2.0000      -0.872532       -23.7428
  29   2.0000      -0.852031       -23.1850
  30   2.0000      -0.843572       -22.9548
  31   2.0000      -0.810479       -22.0543
  32   2.0000      -0.783578       -21.3222
  33   2.0000      -0.771075       -20.9820
  34   2.0000      -0.715668       -19.4743
  35   2.0000      -0.697869       -18.9900
  36   2.0000      -0.690334       -18.7850
  37   2.0000      -0.651281       -17.7223
  38   2.0000      -0.633812       -17.2469
  39   2.0000      -0.613428       -16.6922
  40   2.0000      -0.592063       -16.1109
  41   2.0000      -0.572082       -15.5671
  42   2.0000      -0.568201       -15.4615
  43   2.0000      -0.562575       -15.3084
  44   2.0000      -0.536482       -14.5984
  45   2.0000      -0.523426       -14.2431
  46   2.0000      -0.517988       -14.0952
  47   2.0000      -0.504254       -13.7215
  48   2.0000      -0.500175       -13.6105
  49   2.0000      -0.497159       -13.5284
  50   2.0000      -0.494466       -13.4551
  51   2.0000      -0.479447       -13.0464
  52   2.0000      -0.469981       -12.7888
  53   2.0000      -0.463132       -12.6025
  54   2.0000      -0.457492       -12.4490
  55   2.0000      -0.450871       -12.2688
  56   2.0000      -0.443385       -12.0651
  57   2.0000      -0.433640       -11.7999
  58   2.0000      -0.429994       -11.7007
  59   2.0000      -0.428571       -11.6620
  60   2.0000      -0.418147       -11.3783
  61   2.0000      -0.417565       -11.3625
  62   2.0000      -0.413372       -11.2484
  63   2.0000      -0.342225        -9.3124
  64   2.0000      -0.332644        -9.0517
  65   2.0000      -0.324468        -8.8292
  66   2.0000      -0.295526        -8.0417
  67   0.0000       0.032548         0.8857
  68   0.0000       0.061926         1.6851
  69   0.0000       0.116106         3.1594
  70   0.0000       0.119250         3.2450
  71   0.0000       0.130640         3.5549

MULLIKEN ATOMIC CHARGES
-----------------------
   0 S :    0.131020
   1 C :   -0.148552
   2 C :   -0.083147
   3 C :   -0.023863
   4 C :   -0.180005
   5 H :    0.044181
   6 C :    0.097759
   7 H :    0.048718
   8 H :    0.018150
   9 C :   -0.146700
  10 H :    0.051738
  11 H :    0.043778
  12 C :   -0.050264
  13 H :    0.041207
  14 H :    0.040254
  15 H :    0.042449
  16 S :    0.102877
  17 C :   -0.087341
  18 C :   -0.068191
  19 C :   -0.019034
  20 C :   -0.148734
  21 H :    0.012691
  22 C :    0.043832
  23 H :    0.032860
  24 H :    0.034618
  25 C :   -0.093583
  26 H :    0.036954
  27 H :    0.021789
  28 C :   -0.001278
  29 H :    0.019727
  30 H :    0.043622
  31 H :    0.021000
  32 H :    0.055383
  33 H :    0.066082
Sum of atomic charges:   -0.0000000

LOEWDIN ATOMIC CHARGES
----------------------
   0 S :    0.418875
   1 C :   -0.201101
   2 C :   -0.065690
   3 C :   -0.064634
   4 C :   -0.220883
   5 H :    0.041491
   6 C :   -0.034936
   7 H :    0.039868
   8 H :    0.028518
   9 C :   -0.048770
  10 H :    0.028756
  11 H :    0.028881
  12 C :   -0.068607
  13 H :    0.031630
  14 H :    0.026663
  15 H :    0.028713
  16 S :    0.410480
  17 C :   -0.198827
  18 C :   -0.070534
  19 C :   -0.060533
  20 C :   -0.202737
  21 H :    0.027034
  22 C :   -0.032178
  23 H :    0.029561
  24 H :    0.030138
  25 C :   -0.038318
  26 H :    0.030155
  27 H :    0.015085
  28 C :   -0.066577
  29 H :    0.028475
  30 H :    0.032825
  31 H :    0.022972
  32 H :    0.035362
  33 H :    0.038843

  Mayer bond orders larger than 0.100000
B(  0-S ,  1-C ) :   1.1439 B(  0-S ,  4-C ) :   1.1584 B(  1-C ,  2-C ) :   1.6028
B(  1-C ,  4-C ) :   0.1032 B(  1-C , 32-H ) :   0.9600 B(  2-C ,  3-C ) :   1.2747
B(  2-C ,  6-C ) :   1.0038 B(  3-C ,  4-C ) :   1.5290 B(  3-C ,  5-H ) :   0.9740
B(  4-C , 20-C ) :   1.0462 B(  6-C ,  7-H ) :   0.9235 B(  6-C ,  8-H ) :   0.9358
B(  6-C ,  9-C ) :   1.0871 B(  9-C , 10-H ) :   0.9500 B(  9-C , 11-H ) :   0.9658
B(  9-C , 12-C ) :   1.0482 B( 12-C , 13-H ) :   0.9808 B( 12-C , 14-H ) :   0.9780
B( 12-C , 15-H ) :   0.9815 B( 16-S , 17-C ) :   1.1368 B( 16-S , 20-C ) :   1.1591
B( 17-C , 18-C ) :   1.6635 B( 17-C , 33-H ) :   0.9529 B( 18-C , 19-C ) :   1.2167
B( 18-C , 21-H ) :   0.9880 B( 19-C , 20-C ) :   1.6053 B( 19-C , 22-C ) :   1.0436
B( 22-C , 23-H ) :   0.9279 B( 22-C , 24-H ) :   0.9368 B( 22-C , 25-C ) :   1.0652
B( 25-C , 26-H ) :   0.9483 B( 25-C , 27-H ) :   0.9625 B( 25-C , 28-C ) :   1.0905
B( 28-C , 29-H ) :   0.9679 B( 28-C , 30-H ) :   0.9713 B( 28-C , 31-H ) :   0.9694

Dispersion correction           -0.013594020
FINAL SINGLE POINT ENERGY     -1339.858890982018

DIPOLE MOMENT
-------------
                                X             Y             Z
Electronic contribution:     -9.35336      26.96006      -2.01642
Nuclear contribution   :      9.38854     -27.83302       2.01461
                        -----------------------------------------
Total Dipole Moment    :      0.03518      -0.87296      -0.00181
                        -----------------------------------------
Magnitude (a.u.)       :      0.87367
Magnitude (Debye)      :      2.22069

Rotational constants in cm-1:     0.015554     0.008545     0.006963
Rotational constants in MHz :   466.284397   256.166474   208.756284

                             ****ORCA TERMINATED NORMALLY****
TOTAL RUN TIME: 0 days 0 hours 0 minutes 20 seconds 245 msec
