                         Program Version 4.2.1 -  RELEASE  -
|  1> ! wB97X-D3 SP def2-SVP
|  2> %pal
|  3> nprocs 24
|  4> end
|  5>
|  6> * xyz 0 1
|  7> S 	 -65.4078 	 20.8286 	 -71.792
|  8> C 	 -64.0754 	 20.4645 	 -72.9412
|  9> C 	 -64.4732 	 19.4653 	 -73.8198
| 10> C 	 -65.8235 	 19.1015 	 -73.6921
| 11> C 	 -66.4641 	 19.7347 	 -72.6527
| 12> H 	 -66.429 	 18.55 	 -74.3964
| 13> C 	 -63.6261 	 18.921 	 -74.9837
| 14> H 	 -62.5712 	 18.878 	 -74.6209
| 15> H 	 -63.7483 	 19.7437 	 -75.7537
| 16> C 	 -64.069 	 17.5345 	 -75.518
| 17> H 	 -63.9515 	 16.7621 	 -74.7572
| 18> H 	 -65.1724 	 17.5186 	 -75.7834
| 19> C 	 -63.2275 	 17.0796 	 -76.6445
| 20> H 	 -63.4522 	 16.0115 	 -76.8994
| 21> H 	 -63.4164 	 17.7 	 -77.5014
| 22> H 	 -62.2541 	 17.2421 	 -76.2995
| 23> S 	 -68.3242 	 18.0477 	 -71.549
| 24> C 	 -70.052 	 18.4421 	 -71.5206
| 25> C 	 -70.2416 	 19.6872 	 -72.0798
| 26> C 	 -69.048 	 20.238 	 -72.6638
| 27> C 	 -67.8909 	 19.5308 	 -72.3342
| 28> H 	 -71.2035 	 20.1222 	 -72.1922
| 29> C 	 -69.187 	 21.4043 	 -73.5263
| 30> H 	 -68.2379 	 21.9875 	 -73.526
| 31> H 	 -69.9788 	 22.0125 	 -73.0795
| 32> C 	 -69.6571 	 21.1004 	 -74.9899
| 33> H 	 -69.7087 	 22.0844 	 -75.4913
| 34> H 	 -70.6545 	 20.5823 	 -75.0099
| 35> C 	 -68.6341 	 20.2419 	 -75.7795
| 36> H 	 -67.6555 	 20.8091 	 -75.7778
| 37> H 	 -68.9542 	 20.157 	 -76.8562
| 38> H 	 -68.4724 	 19.2863 	 -75.2087
| 39> H 	 -63.0816 	 20.9402 	 -72.8186
| 40> H 	 -70.7417 	 17.782 	 -71.0068
| 41> *
| 42>
| 43>                          ****END OF INPUT****

CARTESIAN COORDINATES (ANGSTROEM)
---------------------------------
  S    -65.407800   20.828600  -71.792000
  C    -64.075400   20.464500  -72.941200
  C    -64.473200   19.465300  -73.819800
  C    -65.823500   19.101500  -73.692100
  C    -66.464100   19.734700  -72.652700
  H    -66.429000   18.550000  -74.396400
  C    -63.626100   18.921000  -74.983700
  H    -62.571200   18.878000  -74.620900
  H    -63.748300   19.743700  -75.753700
  C    -64.069000   17.534500  -75.518000
  H    -63.951500   16.762100  -74.757200
  H    -65.172400   17.518600  -75.783400
  C    -63.227500   17.079600  -76.644500
  H    -63.452200   16.011500  -76.899400
  H    -63.416400   17.700000  -77.501400
  H    -62.254100   17.242100  -76.299500
  S    -68.324200   18.047700  -71.549000
  C    -70.052000   18.442100  -71.520600
  C    -70.241600   19.687200  -72.079800
  C    -69.048000   20.238000  -72.663800
  C    -67.890900   19.530800  -72.334200
  H    -71.203500   20.122200  -72.192200
  C    -69.187000   21.404300  -73.526300
  H    -68.237900   21.987500  -73.526000
  H    -69.978800   22.012500  -73.079500
  C    -69.657100   21.100400  -74.989900
  H    -69.708700   22.084400  -75.491300
  H    -70.654500   20.582300  -75.009900
  C    -68.634100   20.241900  -75.779500
  H    -67.655500   20.809100  -75.777800
  H    -68.954200   20.157000  -76.856200
  H    -68.472400   19.286300  -75.208700
  H    -63.081600   20.940200  -72.818600
  H    -70.741700   17.782000  -71.006800

 Total Charge           Charge          ....    0
 Multiplicity           Mult            ....    1
 Number of Electrons    NEL             ....  134
 Basis Dimension        Dim             ....  322

ORBITAL ENERGIES
----------------

  NO   OCC          E(Eh)            E(eV)
   0   2.0000     -88.967273     -2420.9226
   1   2.0000     -88.960730     -2420.7445
   2   2.0000     -10.328149      -281.0432
   3   2.0000     -10.324731      -280.9502
   4   2.0000     -10.320468      -280.8342
   5   2.0000     -10.320085      -280.8238
   6   2.0000     -10.302867      -280.3553
   7   2.0000     -10.302566      -280.3471
   8   2.0000     -10.299167      -280.2546
   9   2.0000     -10.293340      -280.0960
  10   2.0000     -10.292696      -280.0785
  11   2.0000     -10.288919      -279.9757
  12   2.0000     -10.288915      -279.9756
  13   2.0000     -10.287999      -279.9507
  14   2.0000     -10.285943      -279.8947
  15   2.0000     -10.271728      -279.5079
  16   2.0000      -8.081134      -219.8988
  17   2.0000      -8.075658      -219.7498
  18   2.0000      -6.039671      -164.3478
  19   2.0000      -6.035675      -164.2391
  20   2.0000      -6.034152      -164.1976
  21   2.0000      -6.032004      -164.1392
  22   2.0000      -6.030019      -164.0852
  23   2.0000      -6.026538      -163.9904
  24   2.0000      -1.004249       -27.3270
  25   2.0000      -0.982594       -26.7377
  26   2.0000      -0.914438       -24.8831
  27   2.0000      -0.906825       -24.6759
  28   2.0000      -0.870602       -23.6903
  29   2.0000      -0.851713       -23.1763
  30   2.0000      -0.842011       -22.9123
  31   2.0000      -0.813981       -22.1495
  32   2.0000      -0.777219       -21.1492
  33   2.0000      -0.765935       -20.8422
  34   2.0000      -0.705554       -19.1991
  35   2.0000      -0.690143       -18.7797
  36   2.0000      -0.684059       -18.6142
  37   2.0000      -0.664341       -18.0776
  38   2.0000      -0.639112       -17.3911
  39   2.0000      -0.617375       -16.7996
  40   2.0000      -0.595001       -16.1908
  41   2.0000      -0.572480       -15.5780
  42   2.0000      -0.565012       -15.3747
  43   2.0000      -0.551575       -15.0091
  44   2.0000      -0.541406       -14.7324
  45   2.0000      -0.529101       -14.3976
  46   2.0000      -0.516277       -14.0486
  47   2.0000      -0.513008       -13.9596
  48   2.0000      -0.507236       -13.8026
  49   2.0000      -0.498292       -13.5592
  50   2.0000      -0.488361       -13.2890
  51   2.0000      -0.476068       -12.9545
  52   2.0000      -0.471037       -12.8176
  53   2.0000      -0.459583       -12.5059
  54   2.0000      -0.454721       -12.3736
  55   2.0000      -0.449920       -12.2429
  56   2.0000      -0.438568       -11.9340
  57   2.0000      -0.429696       -11.6926
  58   2.0000      -0.429571       -11.6892
  59   2.0000      -0.422434       -11.4950
  60   2.0000      -0.420778       -11.4499
  61   2.0000      -0.417864       -11.3707
  62   2.0000      -0.413614       -11.2550
  63   2.0000      -0.335490        -9.1292
  64   2.0000      -0.331197        -9.0123
  65   2.0000      -0.320123        -8.7110
  66   2.0000      -0.305056        -8.3010
  67   0.0000       0.041533         1.1302
  68   0.0000       0.055842         1.5195
  69   0.0000       0.114730         3.1220
  70   0.0000       0.119001         3.2382
  71   0.0000       0.125314         3.4100

MULLIKEN ATOMIC CHARGES
-----------------------
   0 S :    0.112470
   1 C :   -0.166733
   2 C :   -0.043513
   3 C :    0.034796
   4 C :   -0.159228
   5 H :    0.009193
   6 C :    0.018111
   7 H :    0.037592
   8 H :    0.059868
   9 C :   -0.122602
  10 H :    0.032291
  11 H :    0.041174
  12 C :    0.010685
  13 H :    0.043151
  14 H :    0.022127
  15 H :    0.012419
  16 S :    0.098526
  17 C :   -0.103894
  18 C :   -0.003526
  19 C :   -0.043827
  20 C :   -0.181590
  21 H :    0.011427
  22 C :    0.052103
  23 H :    0.033331
  24 H :    0.025230
  25 C :   -0.083268
  26 H :    0.038056
  27 H :    0.038979
  28 C :   -0.100880
  29 H :    0.037813
  30 H :    0.050658
  31 H :    0.059666
  32 H :    0.063850
  33 H :    0.065545
Sum of atomic charges:    0.0000000

LOEWDIN ATOMIC CHARGES
----------------------
   0 S :    0.393303
   1 C :   -0.194672
   2 C :   -0.063609
   3 C :   -0.064028
   4 C :   -0.197136
   5 H :    0.030168
   6 C :   -0.035130
   7 H :    0.034279
   8 H :    0.043648
   9 C :   -0.050261
  10 H :    0.026289
  11 H :    0.026652
  12 C :   -0.056709
  13 H :    0.034246
  14 H :    0.021283
  15 H :    0.017674
  16 S :    0.405116
  17 C :   -0.173741
  18 C :   -0.065978
  19 C :   -0.061461
  20 C :   -0.211325
  21 H :    0.026511
  22 C :   -0.039497
  23 H :    0.034275
  24 H :    0.033618
  25 C :   -0.040331
  26 H :    0.026732
  27 H :    0.026213
  28 C :   -0.079058
  29 H :    0.028523
  30 H :    0.032024
  31 H :    0.028586
  32 H :    0.034565
  33 H :    0.029230

  Mayer bond orders larger than 0.100000
B(  0-S ,  1-C ) :   1.1294 B(  0-S ,  4-C ) :   1.1588 B(  1-C ,  2-C ) :   1.6011
B(  1-C ,  4-C ) :   0.1036 B(  1-C , 32-H ) :   0.9718 B(  2-C ,  3-C ) :   1.2446
B(  2-C ,  6-C ) :   1.0012 B(  3-C ,  4-C ) :   1.5829 B(  3-C ,  5-H ) :   0.9884
B(  4-C , 20-C ) :   1.0023 B(  6-C ,  7-H ) :   0.9404 B(  6-C ,  8-H ) :   0.9407
B(  6-C ,  9-C ) :   1.0764 B(  9-C , 10-H ) :   0.9558 B(  9-C , 11-H ) :   0.9447
B(  9-C , 12-C ) :   1.0891 B( 12-C , 13-H ) :   0.9711 B( 12-C , 14-H ) :   0.9743
B( 12-C , 15-H ) :   0.9686 B( 16-S , 17-C ) :   1.1614 B( 16-S , 20-C ) :   1.1484
B( 17-C , 18-C ) :   1.5849 B( 17-C , 33-H ) :   0.9707 B( 18-C , 19-C ) :   1.2421
B( 18-C , 21-H ) :   0.9934 B( 19-C , 20-C ) :   1.5823 B( 19-C , 22-C ) :   1.0726
B( 22-C , 23-H ) :   0.9290 B( 22-C , 24-H ) :   0.9246 B( 22-C , 25-C ) :   1.0691
B( 25-C , 26-H ) :   0.9560 B( 25-C , 27-H ) :   0.9546 B( 25-C , 28-C ) :   1.0712
B( 28-C , 29-H ) :   0.9728 B( 28-C , 30-H ) :   0.9708 B( 28-C , 31-H ) :   0.9697

Dispersion correction           -0.015463280
FINAL SINGLE POINT ENERGY     -1339.886180630004

DIPOLE MOMENT
-------------
                                X             Y             Z
Electronic contribution:     -3.75262       2.20924      24.94244
Nuclear contribution   :      3.67715      -2.14991     -25.51488
                        -----------------------------------------
Total Dipole Moment    :     -0.07547       0.05933      -0.57244
                        -----------------------------------------
Magnitude (a.u.)       :      0.58044
Magnitude (Debye)      :      1.47536

Rotational constants in cm-1:     0.018821     0.008508     0.007942
Rotational constants in MHz :   564.237201   255.055738   238.094175

                             ****ORCA TERMINATED NORMALLY****
TOTAL RUN TIME: 0 days 0 hours 0 minutes 22 seconds 416 msec
