                         Program Version 4.2.1 -  RELEASE  -
|  1> ! wB97X-D3 SP def2-SVP
|  2> %pal
|  3> nprocs 24
|  4> end
|  5>
|  6> * xyz 0 1
|  7> S 	 -116.545 	 36.3261 	 -116.958
|  8> C 	 -114.925 	 36.3543 	 -117.651
|  9> C 	 -113.99 	 36.4742 	 -116.647
| 10> C 	 -114.552 	 36.6269 	 -115.332
| 11> C 	 -115.936 	 36.4383 	 -115.297
| 12> H 	 -114.023 	 36.743 	 -114.432
| 13> C 	 -112.563 	 36.7539 	 -116.894
| 14> H 	 -112.37 	 36.7059 	 -117.919
| 15> H 	 -111.956 	 35.9538 	 -116.46
| 16> C 	 -112.043 	 38.0924 	 -116.447
| 17> H 	 -112.562 	 38.8511 	 -117.031
| 18> H 	 -112.312 	 38.2597 	 -115.397
| 19> C 	 -110.499 	 38.2893 	 -116.411
| 20> H 	 -109.862 	 37.4253 	 -116.041
| 21> H 	 -110.038 	 38.4139 	 -117.41
| 22> H 	 -110.167 	 39.1951 	 -115.827
| 23> S 	 -118.07 	 37.7316 	 -114.181
| 24> C 	 -118.459 	 37.3919 	 -112.471
| 25> C 	 -117.703 	 36.3707 	 -111.933
| 26> C 	 -116.768 	 35.8587 	 -112.87
| 27> C 	 -116.839 	 36.4837 	 -114.148
| 28> H 	 -117.767 	 36.1859 	 -110.905
| 29> C 	 -115.754 	 34.8101 	 -112.47
| 30> H 	 -115.039 	 34.5549 	 -113.203
| 31> H 	 -116.265 	 33.8532 	 -112.326
| 32> C 	 -114.992 	 35.1463 	 -111.167
| 33> H 	 -115.76 	 35.5366 	 -110.621
| 34> H 	 -114.386 	 36.0109 	 -111.398
| 35> C 	 -114.115 	 34.0841 	 -110.537
| 36> H 	 -113.721 	 34.468 	 -109.561
| 37> H 	 -113.188 	 33.8442 	 -111.031
| 38> H 	 -114.576 	 33.112 	 -110.224
| 39> H 	 -114.812 	 36.1499 	 -118.697
| 40> H 	 -119.218 	 37.8304 	 -111.887
| 41> *
| 42>
| 43>                          ****END OF INPUT****

CARTESIAN COORDINATES (ANGSTROEM)
---------------------------------
  S    -116.545000   36.326100  -116.958000
  C    -114.925000   36.354300  -117.651000
  C    -113.990000   36.474200  -116.647000
  C    -114.552000   36.626900  -115.332000
  C    -115.936000   36.438300  -115.297000
  H    -114.023000   36.743000  -114.432000
  C    -112.563000   36.753900  -116.894000
  H    -112.370000   36.705900  -117.919000
  H    -111.956000   35.953800  -116.460000
  C    -112.043000   38.092400  -116.447000
  H    -112.562000   38.851100  -117.031000
  H    -112.312000   38.259700  -115.397000
  C    -110.499000   38.289300  -116.411000
  H    -109.862000   37.425300  -116.041000
  H    -110.038000   38.413900  -117.410000
  H    -110.167000   39.195100  -115.827000
  S    -118.070000   37.731600  -114.181000
  C    -118.459000   37.391900  -112.471000
  C    -117.703000   36.370700  -111.933000
  C    -116.768000   35.858700  -112.870000
  C    -116.839000   36.483700  -114.148000
  H    -117.767000   36.185900  -110.905000
  C    -115.754000   34.810100  -112.470000
  H    -115.039000   34.554900  -113.203000
  H    -116.265000   33.853200  -112.326000
  C    -114.992000   35.146300  -111.167000
  H    -115.760000   35.536600  -110.621000
  H    -114.386000   36.010900  -111.398000
  C    -114.115000   34.084100  -110.537000
  H    -113.721000   34.468000  -109.561000
  H    -113.188000   33.844200  -111.031000
  H    -114.576000   33.112000  -110.224000
  H    -114.812000   36.149900  -118.697000
  H    -119.218000   37.830400  -111.887000

 Total Charge           Charge          ....    0
 Multiplicity           Mult            ....    1
 Number of Electrons    NEL             ....  134
 Basis Dimension        Dim             ....  322

ORBITAL ENERGIES
----------------

  NO   OCC          E(Eh)            E(eV)
   0   2.0000     -88.969825     -2420.9920
   1   2.0000     -88.962169     -2420.7837
   2   2.0000     -10.334249      -281.2092
   3   2.0000     -10.331739      -281.1409
   4   2.0000     -10.319240      -280.8008
   5   2.0000     -10.315932      -280.7108
   6   2.0000     -10.309941      -280.5478
   7   2.0000     -10.300949      -280.3031
   8   2.0000     -10.293816      -280.1090
   9   2.0000     -10.293504      -280.1005
  10   2.0000     -10.289792      -279.9995
  11   2.0000     -10.288207      -279.9564
  12   2.0000     -10.285517      -279.8832
  13   2.0000     -10.283849      -279.8378
  14   2.0000     -10.281217      -279.7661
  15   2.0000     -10.280032      -279.7339
  16   2.0000      -8.083805      -219.9715
  17   2.0000      -8.076790      -219.7806
  18   2.0000      -6.042332      -164.4202
  19   2.0000      -6.038381      -164.3127
  20   2.0000      -6.035345      -164.2301
  21   2.0000      -6.034615      -164.2102
  22   2.0000      -6.031264      -164.1190
  23   2.0000      -6.027558      -164.0182
  24   2.0000      -1.002508       -27.2796
  25   2.0000      -0.981661       -26.7124
  26   2.0000      -0.916255       -24.9326
  27   2.0000      -0.911028       -24.7903
  28   2.0000      -0.871052       -23.7025
  29   2.0000      -0.850432       -23.1414
  30   2.0000      -0.842943       -22.9377
  31   2.0000      -0.819262       -22.2932
  32   2.0000      -0.783641       -21.3239
  33   2.0000      -0.771456       -20.9924
  34   2.0000      -0.713705       -19.4209
  35   2.0000      -0.706419       -19.2226
  36   2.0000      -0.696069       -18.9410
  37   2.0000      -0.662052       -18.0153
  38   2.0000      -0.649267       -17.6674
  39   2.0000      -0.626358       -17.0441
  40   2.0000      -0.602616       -16.3980
  41   2.0000      -0.570478       -15.5235
  42   2.0000      -0.565991       -15.4014
  43   2.0000      -0.560004       -15.2385
  44   2.0000      -0.525735       -14.3060
  45   2.0000      -0.521491       -14.1905
  46   2.0000      -0.515805       -14.0358
  47   2.0000      -0.510687       -13.8965
  48   2.0000      -0.508930       -13.8487
  49   2.0000      -0.504036       -13.7155
  50   2.0000      -0.493911       -13.4400
  51   2.0000      -0.481853       -13.1119
  52   2.0000      -0.470447       -12.8015
  53   2.0000      -0.464394       -12.6368
  54   2.0000      -0.461594       -12.5606
  55   2.0000      -0.455753       -12.4017
  56   2.0000      -0.450312       -12.2536
  57   2.0000      -0.436042       -11.8653
  58   2.0000      -0.430783       -11.7222
  59   2.0000      -0.425056       -11.5664
  60   2.0000      -0.418940       -11.3999
  61   2.0000      -0.412782       -11.2324
  62   2.0000      -0.410692       -11.1755
  63   2.0000      -0.349085        -9.4991
  64   2.0000      -0.331727        -9.0267
  65   2.0000      -0.327849        -8.9212
  66   2.0000      -0.292115        -7.9488
  67   0.0000       0.027518         0.7488
  68   0.0000       0.064577         1.7572
  69   0.0000       0.107527         2.9259
  70   0.0000       0.122777         3.3409
  71   0.0000       0.128175         3.4878

MULLIKEN ATOMIC CHARGES
-----------------------
   0 S :    0.086755
   1 C :   -0.123405
   2 C :   -0.074213
   3 C :    0.051290
   4 C :   -0.161069
   5 H :   -0.000125
   6 C :    0.113981
   7 H :   -0.005391
   8 H :    0.020508
   9 C :   -0.069073
  10 H :    0.035121
  11 H :    0.028286
  12 C :   -0.098186
  13 H :    0.036408
  14 H :    0.028193
  15 H :    0.047721
  16 S :    0.112778
  17 C :   -0.070516
  18 C :   -0.035400
  19 C :   -0.031266
  20 C :   -0.142215
  21 H :    0.017037
  22 C :    0.088598
  23 H :    0.004251
  24 H :    0.026412
  25 C :   -0.041124
  26 H :   -0.009501
  27 H :    0.020213
  28 C :   -0.045518
  29 H :    0.027539
  30 H :    0.031873
  31 H :    0.036087
  32 H :    0.055482
  33 H :    0.038469
Sum of atomic charges:   -0.0000000

LOEWDIN ATOMIC CHARGES
----------------------
   0 S :    0.384730
   1 C :   -0.185082
   2 C :   -0.062197
   3 C :   -0.052827
   4 C :   -0.182604
   5 H :    0.023434
   6 C :   -0.033776
   7 H :    0.021005
   8 H :    0.031155
   9 C :   -0.038569
  10 H :    0.028980
  11 H :    0.023978
  12 C :   -0.082648
  13 H :    0.031155
  14 H :    0.022357
  15 H :    0.033873
  16 S :    0.400697
  17 C :   -0.161677
  18 C :   -0.065804
  19 C :   -0.046300
  20 C :   -0.202882
  21 H :    0.026876
  22 C :   -0.030055
  23 H :    0.018848
  24 H :    0.032970
  25 C :   -0.036253
  26 H :    0.008276
  27 H :    0.027154
  28 C :   -0.072096
  29 H :    0.034386
  30 H :    0.025109
  31 H :    0.029606
  32 H :    0.027186
  33 H :    0.020992

  Mayer bond orders larger than 0.100000
B(  0-S ,  1-C ) :   1.1318 B(  0-S ,  4-C ) :   1.1545 B(  1-C ,  2-C ) :   1.5987
B(  1-C , 32-H ) :   0.9733 B(  2-C ,  3-C ) :   1.2206 B(  2-C ,  6-C ) :   1.0538
B(  3-C ,  4-C ) :   1.5744 B(  3-C ,  5-H ) :   0.9990 B(  4-C , 20-C ) :   1.0296
B(  6-C ,  7-H ) :   0.9371 B(  6-C ,  8-H ) :   0.9198 B(  6-C ,  9-C ) :   1.0674
B(  9-C , 10-H ) :   0.9540 B(  9-C , 11-H ) :   0.9563 B(  9-C , 12-C ) :   1.0667
B( 12-C , 13-H ) :   0.9741 B( 12-C , 14-H ) :   0.9759 B( 12-C , 15-H ) :   0.9771
B( 16-S , 17-C ) :   1.1528 B( 16-S , 20-C ) :   1.1433 B( 17-C , 18-C ) :   1.6254
B( 17-C , 20-C ) :   0.1017 B( 17-C , 33-H ) :   0.9672 B( 18-C , 19-C ) :   1.2364
B( 18-C , 21-H ) :   0.9903 B( 19-C , 20-C ) :   1.5827 B( 19-C , 22-C ) :   1.0528
B( 22-C , 23-H ) :   0.9354 B( 22-C , 24-H ) :   0.9294 B( 22-C , 25-C ) :   1.0497
B( 25-C , 26-H ) :   0.9598 B( 25-C , 27-H ) :   0.9473 B( 25-C , 28-C ) :   1.0862
B( 28-C , 29-H ) :   0.9687 B( 28-C , 30-H ) :   0.9739 B( 28-C , 31-H ) :   0.9740

Dispersion correction           -0.013578434
FINAL SINGLE POINT ENERGY     -1339.869132011663

DIPOLE MOMENT
-------------
                                X             Y             Z
Electronic contribution:    -27.93196       4.16473     -11.28632
Nuclear contribution   :     28.51160      -4.23632      11.72368
                        -----------------------------------------
Total Dipole Moment    :      0.57965      -0.07158       0.43736
                        -----------------------------------------
Magnitude (a.u.)       :      0.72966
Magnitude (Debye)      :      1.85464

Rotational constants in cm-1:     0.015814     0.008715     0.006533
Rotational constants in MHz :   474.077329   261.277934   195.863519

                             ****ORCA TERMINATED NORMALLY****
TOTAL RUN TIME: 0 days 0 hours 0 minutes 21 seconds 201 msec
