                         Program Version 4.2.1 -  RELEASE  -
|  1> ! wB97X-D3 SP def2-SVP
|  2> %pal
|  3> nprocs 24
|  4> end
|  5>
|  6> * xyz 0 1
|  7> S 	 -61.658 	 -57.7947 	 -78.4403
|  8> C 	 -63.304 	 -57.8773 	 -77.9074
|  9> C 	 -64.1564 	 -58.5562 	 -78.7375
| 10> C 	 -63.4854 	 -58.8815 	 -79.9709
| 11> C 	 -62.1789 	 -58.4898 	 -80.0156
| 12> H 	 -63.9003 	 -59.4039 	 -80.8011
| 13> C 	 -65.5879 	 -59.0617 	 -78.4435
| 14> H 	 -65.6169 	 -59.3477 	 -77.3692
| 15> H 	 -65.6837 	 -60.0061 	 -79.0431
| 16> C 	 -66.743 	 -58.0925 	 -78.8296
| 17> H 	 -66.5591 	 -57.8209 	 -79.8814
| 18> H 	 -67.7041 	 -58.5693 	 -78.9001
| 19> C 	 -66.8077 	 -56.8346 	 -77.8562
| 20> H 	 -65.9973 	 -56.0616 	 -77.9938
| 21> H 	 -67.6912 	 -56.2418 	 -78.1026
| 22> H 	 -66.7894 	 -57.0364 	 -76.7902
| 23> S 	 -59.8214 	 -59.5628 	 -80.775
| 24> C 	 -59.2198 	 -59.2863 	 -82.3583
| 25> C 	 -59.9919 	 -58.4423 	 -83.0693
| 26> C 	 -61.2191 	 -58.0942 	 -82.3841
| 27> C 	 -61.3169 	 -58.6758 	 -81.1213
| 28> H 	 -59.6677 	 -58.1814 	 -84.069
| 29> C 	 -62.2505 	 -57.1246 	 -82.9674
| 30> H 	 -63.2907 	 -57.3729 	 -82.6
| 31> H 	 -62.2505 	 -57.2358 	 -84.078
| 32> C 	 -61.9194 	 -55.648 	 -82.7361
| 33> H 	 -62.8444 	 -55.1838 	 -83.0551
| 34> H 	 -61.0721 	 -55.2346 	 -83.305
| 35> C 	 -61.4878 	 -55.3637 	 -81.2444
| 36> H 	 -62.294 	 -55.6847 	 -80.5311
| 37> H 	 -61.4504 	 -54.2418 	 -81.0643
| 38> H 	 -60.6297 	 -55.9227 	 -80.9442
| 39> H 	 -63.5095 	 -57.5509 	 -76.8949
| 40> H 	 -58.3017 	 -59.7264 	 -82.715
| 41> *
| 42>
| 43>                          ****END OF INPUT****

CARTESIAN COORDINATES (ANGSTROEM)
---------------------------------
  S    -61.658000  -57.794700  -78.440300
  C    -63.304000  -57.877300  -77.907400
  C    -64.156400  -58.556200  -78.737500
  C    -63.485400  -58.881500  -79.970900
  C    -62.178900  -58.489800  -80.015600
  H    -63.900300  -59.403900  -80.801100
  C    -65.587900  -59.061700  -78.443500
  H    -65.616900  -59.347700  -77.369200
  H    -65.683700  -60.006100  -79.043100
  C    -66.743000  -58.092500  -78.829600
  H    -66.559100  -57.820900  -79.881400
  H    -67.704100  -58.569300  -78.900100
  C    -66.807700  -56.834600  -77.856200
  H    -65.997300  -56.061600  -77.993800
  H    -67.691200  -56.241800  -78.102600
  H    -66.789400  -57.036400  -76.790200
  S    -59.821400  -59.562800  -80.775000
  C    -59.219800  -59.286300  -82.358300
  C    -59.991900  -58.442300  -83.069300
  C    -61.219100  -58.094200  -82.384100
  C    -61.316900  -58.675800  -81.121300
  H    -59.667700  -58.181400  -84.069000
  C    -62.250500  -57.124600  -82.967400
  H    -63.290700  -57.372900  -82.600000
  H    -62.250500  -57.235800  -84.078000
  C    -61.919400  -55.648000  -82.736100
  H    -62.844400  -55.183800  -83.055100
  H    -61.072100  -55.234600  -83.305000
  C    -61.487800  -55.363700  -81.244400
  H    -62.294000  -55.684700  -80.531100
  H    -61.450400  -54.241800  -81.064300
  H    -60.629700  -55.922700  -80.944200
  H    -63.509500  -57.550900  -76.894900
  H    -58.301700  -59.726400  -82.715000

 Total Charge           Charge          ....    0
 Multiplicity           Mult            ....    1
 Number of Electrons    NEL             ....  134
 Basis Dimension        Dim             ....  322

ORBITAL ENERGIES
----------------

  NO   OCC          E(Eh)            E(eV)
   0   2.0000     -88.966343     -2420.8973
   1   2.0000     -88.959385     -2420.7079
   2   2.0000     -10.325482      -280.9706
   3   2.0000     -10.322171      -280.8805
   4   2.0000     -10.312692      -280.6226
   5   2.0000     -10.311707      -280.5958
   6   2.0000     -10.307814      -280.4899
   7   2.0000     -10.302907      -280.3563
   8   2.0000     -10.302599      -280.3480
   9   2.0000     -10.297043      -280.1968
  10   2.0000     -10.295946      -280.1669
  11   2.0000     -10.291864      -280.0559
  12   2.0000     -10.291168      -280.0369
  13   2.0000     -10.285303      -279.8773
  14   2.0000     -10.284772      -279.8629
  15   2.0000     -10.273357      -279.5522
  16   2.0000      -8.080652      -219.8857
  17   2.0000      -8.074986      -219.7315
  18   2.0000      -6.039233      -164.3359
  19   2.0000      -6.035400      -164.2316
  20   2.0000      -6.033467      -164.1790
  21   2.0000      -6.031173      -164.1166
  22   2.0000      -6.029359      -164.0672
  23   2.0000      -6.025745      -163.9689
  24   2.0000      -1.007797       -27.4236
  25   2.0000      -0.984116       -26.7792
  26   2.0000      -0.903589       -24.5879
  27   2.0000      -0.901489       -24.5308
  28   2.0000      -0.873846       -23.7785
  29   2.0000      -0.846535       -23.0354
  30   2.0000      -0.836092       -22.7512
  31   2.0000      -0.811093       -22.0710
  32   2.0000      -0.780208       -21.2305
  33   2.0000      -0.770091       -20.9552
  34   2.0000      -0.710515       -19.3341
  35   2.0000      -0.701507       -19.0890
  36   2.0000      -0.687281       -18.7019
  37   2.0000      -0.657504       -17.8916
  38   2.0000      -0.645294       -17.5593
  39   2.0000      -0.617545       -16.8043
  40   2.0000      -0.593456       -16.1488
  41   2.0000      -0.562557       -15.3080
  42   2.0000      -0.547194       -14.8899
  43   2.0000      -0.540915       -14.7191
  44   2.0000      -0.539633       -14.6842
  45   2.0000      -0.532929       -14.5017
  46   2.0000      -0.515574       -14.0295
  47   2.0000      -0.506578       -13.7847
  48   2.0000      -0.500170       -13.6103
  49   2.0000      -0.496187       -13.5019
  50   2.0000      -0.487012       -13.2523
  51   2.0000      -0.481237       -13.0951
  52   2.0000      -0.467808       -12.7297
  53   2.0000      -0.464076       -12.6282
  54   2.0000      -0.454077       -12.3561
  55   2.0000      -0.448055       -12.1922
  56   2.0000      -0.444044       -12.0831
  57   2.0000      -0.439462       -11.9584
  58   2.0000      -0.425722       -11.5845
  59   2.0000      -0.422553       -11.4982
  60   2.0000      -0.417233       -11.3535
  61   2.0000      -0.414628       -11.2826
  62   2.0000      -0.405158       -11.0249
  63   2.0000      -0.347273        -9.4498
  64   2.0000      -0.330364        -8.9897
  65   2.0000      -0.328797        -8.9470
  66   2.0000      -0.293709        -7.9922
  67   0.0000       0.035294         0.9604
  68   0.0000       0.059718         1.6250
  69   0.0000       0.111913         3.0453
  70   0.0000       0.125906         3.4261
  71   0.0000       0.128313         3.4916

MULLIKEN ATOMIC CHARGES
-----------------------
   0 S :    0.114662
   1 C :   -0.138470
   2 C :   -0.052413
   3 C :    0.028099
   4 C :   -0.142257
   5 H :    0.006196
   6 C :    0.034399
   7 H :    0.037159
   8 H :    0.035478
   9 C :   -0.035635
  10 H :    0.025617
  11 H :    0.032240
  12 C :   -0.084137
  13 H :    0.042075
  14 H :    0.033806
  15 H :    0.035009
  16 S :    0.087228
  17 C :   -0.076757
  18 C :   -0.031885
  19 C :   -0.038691
  20 C :   -0.188567
  21 H :    0.016561
  22 C :    0.051209
  23 H :    0.037613
  24 H :    0.027819
  25 C :   -0.064895
  26 H :    0.031833
  27 H :    0.037812
  28 C :   -0.087560
  29 H :    0.036329
  30 H :    0.041418
  31 H :    0.049918
  32 H :    0.045522
  33 H :    0.053266
Sum of atomic charges:   -0.0000000

LOEWDIN ATOMIC CHARGES
----------------------
   0 S :    0.391838
   1 C :   -0.193705
   2 C :   -0.065078
   3 C :   -0.051327
   4 C :   -0.184509
   5 H :    0.028611
   6 C :   -0.032115
   7 H :    0.031715
   8 H :    0.036332
   9 C :   -0.037415
  10 H :    0.027683
  11 H :    0.022551
  12 C :   -0.077253
  13 H :    0.032584
  14 H :    0.026935
  15 H :    0.022866
  16 S :    0.399205
  17 C :   -0.183232
  18 C :   -0.077477
  19 C :   -0.048818
  20 C :   -0.196829
  21 H :    0.032972
  22 C :   -0.037568
  23 H :    0.035542
  24 H :    0.034279
  25 C :   -0.040915
  26 H :    0.025207
  27 H :    0.025304
  28 C :   -0.075664
  29 H :    0.024740
  30 H :    0.031542
  31 H :    0.019929
  32 H :    0.023291
  33 H :    0.028778

  Mayer bond orders larger than 0.100000
B(  0-S ,  1-C ) :   1.1387 B(  0-S ,  4-C ) :   1.1105 B(  1-C ,  2-C ) :   1.6331
B(  1-C , 32-H ) :   0.9665 B(  2-C ,  3-C ) :   1.2077 B(  2-C ,  6-C ) :   1.0050
B(  3-C ,  4-C ) :   1.6179 B(  3-C ,  5-H ) :   0.9959 B(  4-C , 20-C ) :   1.0760
B(  6-C ,  7-H ) :   0.9495 B(  6-C ,  8-H ) :   0.9445 B(  6-C ,  9-C ) :   1.0662
B(  9-C , 10-H ) :   0.9547 B(  9-C , 11-H ) :   0.9613 B(  9-C , 12-C ) :   1.0584
B( 12-C , 13-H ) :   0.9761 B( 12-C , 14-H ) :   0.9762 B( 12-C , 15-H ) :   0.9800
B( 16-S , 17-C ) :   1.1564 B( 16-S , 20-C ) :   1.1245 B( 17-C , 18-C ) :   1.6294
B( 17-C , 33-H ) :   0.9661 B( 18-C , 19-C ) :   1.2109 B( 18-C , 21-H ) :   0.9950
B( 19-C , 20-C ) :   1.5998 B( 19-C , 22-C ) :   1.0460 B( 22-C , 23-H ) :   0.9389
B( 22-C , 24-H ) :   0.9308 B( 22-C , 25-C ) :   1.0690 B( 25-C , 26-H ) :   0.9570
B( 25-C , 27-H ) :   0.9575 B( 25-C , 28-C ) :   1.0723 B( 28-C , 29-H ) :   0.9723
B( 28-C , 30-H ) :   0.9746 B( 28-C , 31-H ) :   0.9700

Dispersion correction           -0.016018575
FINAL SINGLE POINT ENERGY     -1339.885282658886

DIPOLE MOMENT
-------------
                                X             Y             Z
Electronic contribution:     21.08382     -13.07329       2.33437
Nuclear contribution   :    -21.54743      13.16561      -2.62883
                        -----------------------------------------
Total Dipole Moment    :     -0.46361       0.09232      -0.29445
                        -----------------------------------------
Magnitude (a.u.)       :      0.55692
Magnitude (Debye)      :      1.41558

Rotational constants in cm-1:     0.022966     0.008516     0.007527
Rotational constants in MHz :   688.511383   255.306247   225.639446

                             ****ORCA TERMINATED NORMALLY****
TOTAL RUN TIME: 0 days 0 hours 0 minutes 21 seconds 570 msec
