                         Program Version 4.2.1 -  RELEASE  -
|  1> ! wB97X-D3 SP def2-SVP
|  2> %pal
|  3> nprocs 24
|  4> end
|  5>
|  6> * xyz 0 1
|  7> S 	 -112.629 	 21.7191 	 -117.318
|  8> C 	 -112.96 	 20.0817 	 -116.666
|  9> C 	 -112.4 	 19.8346 	 -115.409
| 10> C 	 -111.643 	 20.9909 	 -114.961
| 11> C 	 -111.657 	 22.047 	 -115.859
| 12> H 	 -110.926 	 21.1193 	 -114.189
| 13> C 	 -112.403 	 18.456 	 -114.683
| 14> H 	 -111.468 	 18.376 	 -114.111
| 15> H 	 -112.414 	 17.6205 	 -115.448
| 16> C 	 -113.45 	 18.2468 	 -113.534
| 17> H 	 -113.231 	 17.3196 	 -112.95
| 18> H 	 -113.413 	 19.0776 	 -112.86
| 19> C 	 -114.805 	 17.9773 	 -114.241
| 20> H 	 -114.827 	 17.4265 	 -115.217
| 21> H 	 -115.567 	 17.5755 	 -113.588
| 22> H 	 -115.328 	 18.9404 	 -114.351
| 23> S 	 -111.766 	 24.6977 	 -115.238
| 24> C 	 -110.362 	 25.6521 	 -115.114
| 25> C 	 -109.242 	 24.8847 	 -115.171
| 26> C 	 -109.483 	 23.4846 	 -115.446
| 27> C 	 -110.855 	 23.2321 	 -115.626
| 28> H 	 -108.314 	 25.3492 	 -114.958
| 29> C 	 -108.359 	 22.4811 	 -115.61
| 30> H 	 -108.77 	 21.6294 	 -116.051
| 31> H 	 -108.236 	 22.2184 	 -114.543
| 32> C 	 -107.004 	 22.9329 	 -116.229
| 33> H 	 -106.773 	 23.9022 	 -115.81
| 34> H 	 -107.091 	 22.9089 	 -117.307
| 35> C 	 -105.733 	 22.2013 	 -115.789
| 36> H 	 -105.701 	 22.1378 	 -114.705
| 37> H 	 -104.851 	 22.6039 	 -116.253
| 38> H 	 -105.827 	 21.1984 	 -116.196
| 39> H 	 -113.427 	 19.2656 	 -117.212
| 40> H 	 -110.263 	 26.7266 	 -114.85
| 41> *
| 42>
| 43>                          ****END OF INPUT****

CARTESIAN COORDINATES (ANGSTROEM)
---------------------------------
  S    -112.629000   21.719100  -117.318000
  C    -112.960000   20.081700  -116.666000
  C    -112.400000   19.834600  -115.409000
  C    -111.643000   20.990900  -114.961000
  C    -111.657000   22.047000  -115.859000
  H    -110.926000   21.119300  -114.189000
  C    -112.403000   18.456000  -114.683000
  H    -111.468000   18.376000  -114.111000
  H    -112.414000   17.620500  -115.448000
  C    -113.450000   18.246800  -113.534000
  H    -113.231000   17.319600  -112.950000
  H    -113.413000   19.077600  -112.860000
  C    -114.805000   17.977300  -114.241000
  H    -114.827000   17.426500  -115.217000
  H    -115.567000   17.575500  -113.588000
  H    -115.328000   18.940400  -114.351000
  S    -111.766000   24.697700  -115.238000
  C    -110.362000   25.652100  -115.114000
  C    -109.242000   24.884700  -115.171000
  C    -109.483000   23.484600  -115.446000
  C    -110.855000   23.232100  -115.626000
  H    -108.314000   25.349200  -114.958000
  C    -108.359000   22.481100  -115.610000
  H    -108.770000   21.629400  -116.051000
  H    -108.236000   22.218400  -114.543000
  C    -107.004000   22.932900  -116.229000
  H    -106.773000   23.902200  -115.810000
  H    -107.091000   22.908900  -117.307000
  C    -105.733000   22.201300  -115.789000
  H    -105.701000   22.137800  -114.705000
  H    -104.851000   22.603900  -116.253000
  H    -105.827000   21.198400  -116.196000
  H    -113.427000   19.265600  -117.212000
  H    -110.263000   26.726600  -114.850000

 Total Charge           Charge          ....    0
 Multiplicity           Mult            ....    1
 Number of Electrons    NEL             ....  134
 Basis Dimension        Dim             ....  322

ORBITAL ENERGIES
----------------

  NO   OCC          E(Eh)            E(eV)
   0   2.0000     -88.971760     -2421.0447
   1   2.0000     -88.958718     -2420.6898
   2   2.0000     -10.329735      -281.0864
   3   2.0000     -10.324220      -280.9363
   4   2.0000     -10.321144      -280.8526
   5   2.0000     -10.311814      -280.5987
   6   2.0000     -10.311604      -280.5930
   7   2.0000     -10.308721      -280.5146
   8   2.0000     -10.304193      -280.3914
   9   2.0000     -10.296532      -280.1829
  10   2.0000     -10.294421      -280.1254
  11   2.0000     -10.290585      -280.0211
  12   2.0000     -10.287279      -279.9311
  13   2.0000     -10.285408      -279.8802
  14   2.0000     -10.277367      -279.6614
  15   2.0000     -10.277091      -279.6539
  16   2.0000      -8.084959      -220.0029
  17   2.0000      -8.074290      -219.7126
  18   2.0000      -6.043548      -164.4533
  19   2.0000      -6.039848      -164.3526
  20   2.0000      -6.035547      -164.2356
  21   2.0000      -6.032801      -164.1609
  22   2.0000      -6.028632      -164.0474
  23   2.0000      -6.025038      -163.9496
  24   2.0000      -1.002249       -27.2726
  25   2.0000      -0.977172       -26.5902
  26   2.0000      -0.909270       -24.7425
  27   2.0000      -0.903533       -24.5864
  28   2.0000      -0.869121       -23.6500
  29   2.0000      -0.852657       -23.2020
  30   2.0000      -0.843692       -22.9580
  31   2.0000      -0.811851       -22.0916
  32   2.0000      -0.781629       -21.2692
  33   2.0000      -0.771789       -21.0014
  34   2.0000      -0.707941       -19.2640
  35   2.0000      -0.698780       -19.0148
  36   2.0000      -0.694556       -18.8998
  37   2.0000      -0.650775       -17.7085
  38   2.0000      -0.642367       -17.4797
  39   2.0000      -0.612817       -16.6756
  40   2.0000      -0.593171       -16.1410
  41   2.0000      -0.572364       -15.5748
  42   2.0000      -0.565369       -15.3845
  43   2.0000      -0.547528       -14.8990
  44   2.0000      -0.537957       -14.6386
  45   2.0000      -0.527753       -14.3609
  46   2.0000      -0.518174       -14.1002
  47   2.0000      -0.515936       -14.0393
  48   2.0000      -0.500488       -13.6190
  49   2.0000      -0.495436       -13.4815
  50   2.0000      -0.482778       -13.1370
  51   2.0000      -0.480933       -13.0868
  52   2.0000      -0.466546       -12.6954
  53   2.0000      -0.462760       -12.5923
  54   2.0000      -0.460585       -12.5332
  55   2.0000      -0.454331       -12.3630
  56   2.0000      -0.448090       -12.1931
  57   2.0000      -0.440068       -11.9749
  58   2.0000      -0.437227       -11.8975
  59   2.0000      -0.422659       -11.5011
  60   2.0000      -0.418015       -11.3748
  61   2.0000      -0.408670       -11.1205
  62   2.0000      -0.405342       -11.0299
  63   2.0000      -0.337687        -9.1889
  64   2.0000      -0.329857        -8.9759
  65   2.0000      -0.322913        -8.7869
  66   2.0000      -0.299565        -8.1516
  67   0.0000       0.036909         1.0043
  68   0.0000       0.061038         1.6609
  69   0.0000       0.107137         2.9153
  70   0.0000       0.122574         3.3354
  71   0.0000       0.127631         3.4730

MULLIKEN ATOMIC CHARGES
-----------------------
   0 S :    0.121894
   1 C :   -0.117717
   2 C :   -0.055571
   3 C :    0.051164
   4 C :   -0.174326
   5 H :    0.006627
   6 C :    0.012899
   7 H :    0.026821
   8 H :    0.043979
   9 C :   -0.049970
  10 H :    0.041599
  11 H :    0.034545
  12 C :   -0.078597
  13 H :    0.046119
  14 H :    0.019818
  15 H :    0.031150
  16 S :    0.103419
  17 C :   -0.081569
  18 C :   -0.057640
  19 C :   -0.029274
  20 C :   -0.204680
  21 H :    0.003609
  22 C :    0.101614
  23 H :    0.012340
  24 H :    0.030002
  25 C :   -0.067916
  26 H :    0.025638
  27 H :    0.043148
  28 C :   -0.046412
  29 H :    0.033463
  30 H :    0.037734
  31 H :    0.021763
  32 H :    0.048425
  33 H :    0.065901
Sum of atomic charges:   -0.0000000

LOEWDIN ATOMIC CHARGES
----------------------
   0 S :    0.380005
   1 C :   -0.181582
   2 C :   -0.059593
   3 C :   -0.050552
   4 C :   -0.194790
   5 H :    0.028166
   6 C :   -0.032239
   7 H :    0.030282
   8 H :    0.034955
   9 C :   -0.034417
  10 H :    0.028581
  11 H :    0.024216
  12 C :   -0.085842
  13 H :    0.030520
  14 H :    0.021730
  15 H :    0.031702
  16 S :    0.413534
  17 C :   -0.203280
  18 C :   -0.081237
  19 C :   -0.046148
  20 C :   -0.205467
  21 H :    0.022741
  22 C :   -0.030030
  23 H :    0.021756
  24 H :    0.039351
  25 C :   -0.036144
  26 H :    0.022530
  27 H :    0.027502
  28 C :   -0.059066
  29 H :    0.024300
  30 H :    0.026816
  31 H :    0.021541
  32 H :    0.028313
  33 H :    0.041846

  Mayer bond orders larger than 0.100000
B(  0-S ,  1-C ) :   1.1259 B(  0-S ,  4-C ) :   1.1237 B(  1-C ,  2-C ) :   1.6481
B(  1-C , 32-H ) :   0.9629 B(  2-C ,  3-C ) :   1.1950 B(  2-C ,  6-C ) :   1.0077
B(  3-C ,  4-C ) :   1.6196 B(  3-C ,  5-H ) :   0.9937 B(  4-C , 20-C ) :   1.0377
B(  6-C ,  7-H ) :   0.9450 B(  6-C ,  8-H ) :   0.9541 B(  6-C ,  9-C ) :   1.0652
B(  9-C , 10-H ) :   0.9621 B(  9-C , 11-H ) :   0.9575 B(  9-C , 12-C ) :   1.0608
B( 12-C , 13-H ) :   0.9787 B( 12-C , 14-H ) :   0.9723 B( 12-C , 15-H ) :   0.9716
B( 16-S , 17-C ) :   1.1585 B( 16-S , 20-C ) :   1.1430 B( 17-C , 18-C ) :   1.6307
B( 17-C , 33-H ) :   0.9570 B( 18-C , 19-C ) :   1.2249 B( 18-C , 21-H ) :   0.9923
B( 19-C , 20-C ) :   1.5903 B( 19-C , 22-C ) :   1.0315 B( 22-C , 23-H ) :   0.9333
B( 22-C , 24-H ) :   0.9229 B( 22-C , 25-C ) :   1.0593 B( 25-C , 26-H ) :   0.9546
B( 25-C , 27-H ) :   0.9585 B( 25-C , 28-C ) :   1.0852 B( 28-C , 29-H ) :   0.9755
B( 28-C , 30-H ) :   0.9739 B( 28-C , 31-H ) :   0.9762

Dispersion correction           -0.013717863
FINAL SINGLE POINT ENERGY     -1339.857299451553

DIPOLE MOMENT
-------------
                                X             Y             Z
Electronic contribution:    -11.80643      18.35286      -8.21143
Nuclear contribution   :     12.36167     -18.77468       8.56134
                        -----------------------------------------
Total Dipole Moment    :      0.55524      -0.42183       0.34991
                        -----------------------------------------
Magnitude (a.u.)       :      0.78017
Magnitude (Debye)      :      1.98304

Rotational constants in cm-1:     0.018985     0.007394     0.006216
Rotational constants in MHz :   569.162838   221.675692   186.352257

                             ****ORCA TERMINATED NORMALLY****
TOTAL RUN TIME: 0 days 0 hours 0 minutes 20 seconds 823 msec
