                         Program Version 4.2.1 -  RELEASE  -
|  1> ! wB97X-D3 SP def2-SVP
|  2> %pal
|  3> nprocs 24
|  4> end
|  5>
|  6> * xyz 0 1
|  7> S 	 -105.863 	 58.929 	 -98.802
|  8> C 	 -106.664 	 58.158 	 -100.164
|  9> C 	 -105.77 	 57.5794 	 -101.016
| 10> C 	 -104.418 	 57.5659 	 -100.506
| 11> C 	 -104.282 	 58.3863 	 -99.4253
| 12> H 	 -103.581 	 57.0652 	 -100.929
| 13> C 	 -106.102 	 56.7626 	 -102.25
| 14> H 	 -107.043 	 57.109 	 -102.697
| 15> H 	 -106.243 	 55.7728 	 -101.847
| 16> C 	 -105.182 	 56.7865 	 -103.505
| 17> H 	 -104.282 	 56.2417 	 -103.19
| 18> H 	 -105.538 	 56.2269 	 -104.406
| 19> C 	 -104.957 	 58.2174 	 -104.093
| 20> H 	 -105.836 	 58.3897 	 -104.712
| 21> H 	 -104.904 	 58.9742 	 -103.298
| 22> H 	 -104.09 	 58.2201 	 -104.801
| 23> S 	 -103.181 	 58.2163 	 -96.9053
| 24> C 	 -101.638 	 58.8843 	 -96.6186
| 25> C 	 -100.992 	 59.2903 	 -97.7663
| 26> C 	 -101.783 	 59.0007 	 -98.947
| 27> C 	 -103.054 	 58.4987 	 -98.6224
| 28> H 	 -100.006 	 59.6769 	 -97.8397
| 29> C 	 -101.404 	 59.6823 	 -100.287
| 30> H 	 -101.283 	 60.6721 	 -99.982
| 31> H 	 -102.151 	 59.7071 	 -101.083
| 32> C 	 -100.081 	 59.174 	 -100.952
| 33> H 	 -100.135 	 58.1198 	 -101.044
| 34> H 	 -99.2217 	 59.4812 	 -100.338
| 35> C 	 -99.8261 	 59.6634 	 -102.398
| 36> H 	 -99.0947 	 59.0431 	 -102.903
| 37> H 	 -99.4712 	 60.7083 	 -102.309
| 38> H 	 -100.761 	 59.5952 	 -103.002
| 39> H 	 -107.749 	 58.1777 	 -100.259
| 40> H 	 -101.306 	 59.0891 	 -95.6856
| 41> *
| 42>
| 43>                          ****END OF INPUT****

CARTESIAN COORDINATES (ANGSTROEM)
---------------------------------
  S    -105.863000   58.929000  -98.802000
  C    -106.664000   58.158000  -100.164000
  C    -105.770000   57.579400  -101.016000
  C    -104.418000   57.565900  -100.506000
  C    -104.282000   58.386300  -99.425300
  H    -103.581000   57.065200  -100.929000
  C    -106.102000   56.762600  -102.250000
  H    -107.043000   57.109000  -102.697000
  H    -106.243000   55.772800  -101.847000
  C    -105.182000   56.786500  -103.505000
  H    -104.282000   56.241700  -103.190000
  H    -105.538000   56.226900  -104.406000
  C    -104.957000   58.217400  -104.093000
  H    -105.836000   58.389700  -104.712000
  H    -104.904000   58.974200  -103.298000
  H    -104.090000   58.220100  -104.801000
  S    -103.181000   58.216300  -96.905300
  C    -101.638000   58.884300  -96.618600
  C    -100.992000   59.290300  -97.766300
  C    -101.783000   59.000700  -98.947000
  C    -103.054000   58.498700  -98.622400
  H    -100.006000   59.676900  -97.839700
  C    -101.404000   59.682300  -100.287000
  H    -101.283000   60.672100  -99.982000
  H    -102.151000   59.707100  -101.083000
  C    -100.081000   59.174000  -100.952000
  H    -100.135000   58.119800  -101.044000
  H    -99.221700   59.481200  -100.338000
  C    -99.826100   59.663400  -102.398000
  H    -99.094700   59.043100  -102.903000
  H    -99.471200   60.708300  -102.309000
  H    -100.761000   59.595200  -103.002000
  H    -107.749000   58.177700  -100.259000
  H    -101.306000   59.089100  -95.685600

 Total Charge           Charge          ....    0
 Multiplicity           Mult            ....    1
 Number of Electrons    NEL             ....  134
 Basis Dimension        Dim             ....  322

ORBITAL ENERGIES
----------------

  NO   OCC          E(Eh)            E(eV)
   0   2.0000     -88.965342     -2420.8700
   1   2.0000     -88.964129     -2420.8370
   2   2.0000     -10.329828      -281.0889
   3   2.0000     -10.325431      -280.9692
   4   2.0000     -10.315300      -280.6936
   5   2.0000     -10.308494      -280.5084
   6   2.0000     -10.307099      -280.4704
   7   2.0000     -10.302990      -280.3586
   8   2.0000     -10.294377      -280.1242
   9   2.0000     -10.293321      -280.0955
  10   2.0000     -10.292525      -280.0738
  11   2.0000     -10.291638      -280.0497
  12   2.0000     -10.288938      -279.9762
  13   2.0000     -10.284389      -279.8525
  14   2.0000     -10.284073      -279.8439
  15   2.0000     -10.282040      -279.7885
  16   2.0000      -8.079964      -219.8670
  17   2.0000      -8.079634      -219.8580
  18   2.0000      -6.038341      -164.3116
  19   2.0000      -6.038308      -164.3107
  20   2.0000      -6.034295      -164.2015
  21   2.0000      -6.034278      -164.2011
  22   2.0000      -6.030837      -164.1074
  23   2.0000      -6.030136      -164.0883
  24   2.0000      -1.006215       -27.3805
  25   2.0000      -0.984758       -26.7966
  26   2.0000      -0.906465       -24.6662
  27   2.0000      -0.903769       -24.5928
  28   2.0000      -0.869144       -23.6506
  29   2.0000      -0.851587       -23.1729
  30   2.0000      -0.843753       -22.9597
  31   2.0000      -0.816316       -22.2131
  32   2.0000      -0.781301       -21.2603
  33   2.0000      -0.771573       -20.9956
  34   2.0000      -0.703804       -19.1515
  35   2.0000      -0.694991       -18.9117
  36   2.0000      -0.692869       -18.8539
  37   2.0000      -0.662730       -18.0338
  38   2.0000      -0.642146       -17.4737
  39   2.0000      -0.621451       -16.9106
  40   2.0000      -0.601241       -16.3606
  41   2.0000      -0.570194       -15.5158
  42   2.0000      -0.560471       -15.2512
  43   2.0000      -0.557371       -15.1668
  44   2.0000      -0.545764       -14.8510
  45   2.0000      -0.524274       -14.2662
  46   2.0000      -0.515255       -14.0208
  47   2.0000      -0.510593       -13.8939
  48   2.0000      -0.500543       -13.6205
  49   2.0000      -0.497184       -13.5291
  50   2.0000      -0.487227       -13.2581
  51   2.0000      -0.482340       -13.1251
  52   2.0000      -0.470258       -12.7964
  53   2.0000      -0.464261       -12.6332
  54   2.0000      -0.459173       -12.4947
  55   2.0000      -0.451223       -12.2784
  56   2.0000      -0.449217       -12.2238
  57   2.0000      -0.440491       -11.9864
  58   2.0000      -0.435043       -11.8381
  59   2.0000      -0.423368       -11.5204
  60   2.0000      -0.420412       -11.4400
  61   2.0000      -0.413610       -11.2549
  62   2.0000      -0.401851       -10.9349
  63   2.0000      -0.347984        -9.4691
  64   2.0000      -0.331632        -9.0242
  65   2.0000      -0.326032        -8.8718
  66   2.0000      -0.294659        -8.0181
  67   0.0000       0.030210         0.8221
  68   0.0000       0.074708         2.0329
  69   0.0000       0.112595         3.0639
  70   0.0000       0.116388         3.1671
  71   0.0000       0.129931         3.5356

MULLIKEN ATOMIC CHARGES
-----------------------
   0 S :    0.097220
   1 C :   -0.136989
   2 C :   -0.068932
   3 C :    0.030466
   4 C :   -0.125151
   5 H :    0.012713
   6 C :    0.059010
   7 H :    0.016533
   8 H :    0.048656
   9 C :   -0.108201
  10 H :    0.027031
  11 H :    0.040723
  12 C :   -0.071119
  13 H :    0.030275
  14 H :    0.053902
  15 H :    0.045210
  16 S :    0.112533
  17 C :   -0.041623
  18 C :   -0.023229
  19 C :   -0.019272
  20 C :   -0.175681
  21 H :    0.013161
  22 C :    0.055954
  23 H :    0.022783
  24 H :    0.021256
  25 C :   -0.094035
  26 H :    0.023681
  27 H :    0.031386
  28 C :   -0.064080
  29 H :    0.038219
  30 H :    0.039026
  31 H :    0.035296
  32 H :    0.054177
  33 H :    0.019102
Sum of atomic charges:   -0.0000000

LOEWDIN ATOMIC CHARGES
----------------------
   0 S :    0.379791
   1 C :   -0.190419
   2 C :   -0.065241
   3 C :   -0.051785
   4 C :   -0.177575
   5 H :    0.029664
   6 C :   -0.035578
   7 H :    0.028014
   8 H :    0.036420
   9 C :   -0.049754
  10 H :    0.014714
  11 H :    0.032679
  12 C :   -0.067925
  13 H :    0.025619
  14 H :    0.026838
  15 H :    0.032507
  16 S :    0.425288
  17 C :   -0.176538
  18 C :   -0.063357
  19 C :   -0.050261
  20 C :   -0.205329
  21 H :    0.026538
  22 C :   -0.025518
  23 H :    0.024999
  24 H :    0.027005
  25 C :   -0.040112
  26 H :    0.017227
  27 H :    0.022188
  28 C :   -0.067423
  29 H :    0.025704
  30 H :    0.027419
  31 H :    0.027059
  32 H :    0.030537
  33 H :    0.006604

  Mayer bond orders larger than 0.100000
B(  0-S ,  1-C ) :   1.1210 B(  0-S ,  4-C ) :   1.1326 B(  1-C ,  2-C ) :   1.6448
B(  1-C , 32-H ) :   0.9697 B(  2-C ,  3-C ) :   1.1905 B(  2-C ,  6-C ) :   1.0151
B(  3-C ,  4-C ) :   1.6113 B(  3-C ,  5-H ) :   0.9971 B(  4-C , 20-C ) :   1.0346
B(  6-C ,  7-H ) :   0.9457 B(  6-C ,  8-H ) :   0.9416 B(  6-C ,  9-C ) :   1.0637
B(  9-C , 10-H ) :   0.9582 B(  9-C , 11-H ) :   0.9623 B(  9-C , 12-C ) :   1.0547
B( 12-C , 13-H ) :   0.9772 B( 12-C , 14-H ) :   0.9795 B( 12-C , 15-H ) :   0.9755
B( 16-S , 17-C ) :   1.1670 B( 16-S , 20-C ) :   1.1483 B( 17-C , 18-C ) :   1.5925
B( 17-C , 33-H ) :   0.9815 B( 18-C , 19-C ) :   1.2503 B( 18-C , 21-H ) :   0.9937
B( 19-C , 20-C ) :   1.5873 B( 19-C , 22-C ) :   1.0338 B( 22-C , 23-H ) :   0.9425
B( 22-C , 24-H ) :   0.9463 B( 22-C , 25-C ) :   1.0487 B( 25-C , 26-H ) :   0.9626
B( 25-C , 27-H ) :   0.9581 B( 25-C , 28-C ) :   1.0880 B( 28-C , 29-H ) :   0.9766
B( 28-C , 30-H ) :   0.9774 B( 28-C , 31-H ) :   0.9732

Dispersion correction           -0.014108880
FINAL SINGLE POINT ENERGY     -1339.871110549243

DIPOLE MOMENT
-------------
                                X             Y             Z
Electronic contribution:    -10.91902      -0.17700      29.95985
Nuclear contribution   :     11.13444       0.13728     -30.48181
                        -----------------------------------------
Total Dipole Moment    :      0.21542      -0.03972      -0.52196
                        -----------------------------------------
Magnitude (a.u.)       :      0.56606
Magnitude (Debye)      :      1.43881

Rotational constants in cm-1:     0.015562     0.010381     0.006702
Rotational constants in MHz :   466.531134   311.223391   200.927112

                             ****ORCA TERMINATED NORMALLY****
TOTAL RUN TIME: 0 days 0 hours 0 minutes 21 seconds 863 msec
