                         Program Version 4.2.1 -  RELEASE  -
|  1> ! wB97X-D3 SP def2-SVP
|  2> %pal
|  3> nprocs 24
|  4> end
|  5>
|  6> * xyz 0 1
|  7> S 	 -50.1811 	 26.1138 	 25.012
|  8> C 	 -49.964 	 27.5091 	 23.9854
|  9> C 	 -48.7161 	 28.1071 	 24.2364
| 10> C 	 -47.9619 	 27.4286 	 25.2645
| 11> C 	 -48.5932 	 26.3015 	 25.7542
| 12> H 	 -46.9911 	 27.7048 	 25.6115
| 13> C 	 -48.222 	 29.3571 	 23.5824
| 14> H 	 -48.9924 	 29.7621 	 22.9134
| 15> H 	 -47.4864 	 29.1465 	 22.8054
| 16> C 	 -47.7788 	 30.513 	 24.5127
| 17> H 	 -48.6484 	 30.7872 	 25.0692
| 18> H 	 -47.065 	 30.1559 	 25.2485
| 19> C 	 -47.2661 	 31.6886 	 23.7184
| 20> H 	 -46.595 	 32.2804 	 24.3311
| 21> H 	 -46.6697 	 31.4646 	 22.8694
| 22> H 	 -48.1959 	 32.2123 	 23.3161
| 23> S 	 -48.6476 	 23.6941 	 26.4057
| 24> C 	 -47.7083 	 23.0668 	 27.6474
| 25> C 	 -47.1839 	 24.0998 	 28.4222
| 26> C 	 -47.3507 	 25.3966 	 27.8874
| 27> C 	 -48.0818 	 25.3005 	 26.7033
| 28> H 	 -46.5464 	 23.8223 	 29.2862
| 29> C 	 -46.6285 	 26.5764 	 28.4495
| 30> H 	 -46.1875 	 27.1211 	 27.5887
| 31> H 	 -45.8239 	 26.2038 	 29.1536
| 32> C 	 -47.4129 	 27.6101 	 29.2803
| 33> H 	 -46.766 	 28.3809 	 29.6311
| 34> H 	 -47.9021 	 27.0679 	 30.1015
| 35> C 	 -48.6596 	 28.3276 	 28.6265
| 36> H 	 -48.2152 	 28.8123 	 27.8432
| 37> H 	 -49.0343 	 29.1209 	 29.2526
| 38> H 	 -49.3629 	 27.5857 	 28.3375
| 39> H 	 -50.7738 	 27.9237 	 23.4326
| 40> H 	 -47.6278 	 22.074 	 27.9559
| 41> *
| 42>
| 43>                          ****END OF INPUT****

CARTESIAN COORDINATES (ANGSTROEM)
---------------------------------
  S    -50.181100   26.113800   25.012000
  C    -49.964000   27.509100   23.985400
  C    -48.716100   28.107100   24.236400
  C    -47.961900   27.428600   25.264500
  C    -48.593200   26.301500   25.754200
  H    -46.991100   27.704800   25.611500
  C    -48.222000   29.357100   23.582400
  H    -48.992400   29.762100   22.913400
  H    -47.486400   29.146500   22.805400
  C    -47.778800   30.513000   24.512700
  H    -48.648400   30.787200   25.069200
  H    -47.065000   30.155900   25.248500
  C    -47.266100   31.688600   23.718400
  H    -46.595000   32.280400   24.331100
  H    -46.669700   31.464600   22.869400
  H    -48.195900   32.212300   23.316100
  S    -48.647600   23.694100   26.405700
  C    -47.708300   23.066800   27.647400
  C    -47.183900   24.099800   28.422200
  C    -47.350700   25.396600   27.887400
  C    -48.081800   25.300500   26.703300
  H    -46.546400   23.822300   29.286200
  C    -46.628500   26.576400   28.449500
  H    -46.187500   27.121100   27.588700
  H    -45.823900   26.203800   29.153600
  C    -47.412900   27.610100   29.280300
  H    -46.766000   28.380900   29.631100
  H    -47.902100   27.067900   30.101500
  C    -48.659600   28.327600   28.626500
  H    -48.215200   28.812300   27.843200
  H    -49.034300   29.120900   29.252600
  H    -49.362900   27.585700   28.337500
  H    -50.773800   27.923700   23.432600
  H    -47.627800   22.074000   27.955900

 Total Charge           Charge          ....    0
 Multiplicity           Mult            ....    1
 Number of Electrons    NEL             ....  134
 Basis Dimension        Dim             ....  322

ORBITAL ENERGIES
----------------

  NO   OCC          E(Eh)            E(eV)
   0   2.0000     -88.968260     -2420.9494
   1   2.0000     -88.965564     -2420.8761
   2   2.0000     -10.332360      -281.1578
   3   2.0000     -10.327773      -281.0330
   4   2.0000     -10.313514      -280.6450
   5   2.0000     -10.307540      -280.4824
   6   2.0000     -10.304965      -280.4123
   7   2.0000     -10.304046      -280.3874
   8   2.0000     -10.300248      -280.2840
   9   2.0000     -10.293174      -280.0915
  10   2.0000     -10.292931      -280.0849
  11   2.0000     -10.289147      -279.9819
  12   2.0000     -10.284103      -279.8447
  13   2.0000     -10.282549      -279.8024
  14   2.0000     -10.280114      -279.7361
  15   2.0000     -10.260836      -279.2115
  16   2.0000      -8.084528      -219.9912
  17   2.0000      -8.080098      -219.8706
  18   2.0000      -6.042800      -164.4330
  19   2.0000      -6.038734      -164.3223
  20   2.0000      -6.038620      -164.3192
  21   2.0000      -6.035522      -164.2349
  22   2.0000      -6.034596      -164.2097
  23   2.0000      -6.030904      -164.1092
  24   2.0000      -1.014468       -27.6051
  25   2.0000      -0.985564       -26.8186
  26   2.0000      -0.913533       -24.8585
  27   2.0000      -0.910118       -24.7656
  28   2.0000      -0.869733       -23.6666
  29   2.0000      -0.855034       -23.2666
  30   2.0000      -0.847271       -23.0554
  31   2.0000      -0.815804       -22.1992
  32   2.0000      -0.786314       -21.3967
  33   2.0000      -0.770230       -20.9590
  34   2.0000      -0.711563       -19.3626
  35   2.0000      -0.698490       -19.0069
  36   2.0000      -0.692297       -18.8384
  37   2.0000      -0.662380       -18.0243
  38   2.0000      -0.644593       -17.5403
  39   2.0000      -0.625674       -17.0254
  40   2.0000      -0.597536       -16.2598
  41   2.0000      -0.565305       -15.3827
  42   2.0000      -0.563869       -15.3437
  43   2.0000      -0.557373       -15.1669
  44   2.0000      -0.542443       -14.7606
  45   2.0000      -0.527559       -14.3556
  46   2.0000      -0.516256       -14.0480
  47   2.0000      -0.510081       -13.8800
  48   2.0000      -0.506331       -13.7780
  49   2.0000      -0.501756       -13.6535
  50   2.0000      -0.497994       -13.5511
  51   2.0000      -0.486698       -13.2437
  52   2.0000      -0.474090       -12.9006
  53   2.0000      -0.469225       -12.7683
  54   2.0000      -0.458643       -12.4803
  55   2.0000      -0.452454       -12.3119
  56   2.0000      -0.445825       -12.1315
  57   2.0000      -0.437672       -11.9097
  58   2.0000      -0.433950       -11.8084
  59   2.0000      -0.428527       -11.6608
  60   2.0000      -0.418628       -11.3914
  61   2.0000      -0.412747       -11.2314
  62   2.0000      -0.399075       -10.8594
  63   2.0000      -0.355955        -9.6860
  64   2.0000      -0.334422        -9.1001
  65   2.0000      -0.327310        -8.9066
  66   2.0000      -0.283792        -7.7224
  67   0.0000       0.025773         0.7013
  68   0.0000       0.072595         1.9754
  69   0.0000       0.109202         2.9715
  70   0.0000       0.116542         3.1713
  71   0.0000       0.131052         3.5661

MULLIKEN ATOMIC CHARGES
-----------------------
   0 S :    0.094225
   1 C :   -0.113450
   2 C :   -0.072279
   3 C :    0.027144
   4 C :   -0.119169
   5 H :   -0.004656
   6 C :    0.045474
   7 H :    0.000070
   8 H :    0.031354
   9 C :   -0.075452
  10 H :    0.032078
  11 H :    0.028191
  12 C :   -0.034378
  13 H :    0.033288
  14 H :    0.019130
  15 H :    0.042908
  16 S :    0.126231
  17 C :   -0.059987
  18 C :   -0.077252
  19 C :   -0.006415
  20 C :   -0.166531
  21 H :    0.026965
  22 C :    0.044332
  23 H :    0.030948
  24 H :    0.038714
  25 C :   -0.094270
  26 H :    0.027494
  27 H :    0.025628
  28 C :   -0.006506
  29 H :   -0.002115
  30 H :    0.029770
  31 H :    0.049109
  32 H :    0.046546
  33 H :    0.032862
Sum of atomic charges:    0.0000000

LOEWDIN ATOMIC CHARGES
----------------------
   0 S :    0.395494
   1 C :   -0.199552
   2 C :   -0.055325
   3 C :   -0.064957
   4 C :   -0.180944
   5 H :    0.021926
   6 C :   -0.040655
   7 H :    0.028219
   8 H :    0.031396
   9 C :   -0.038162
  10 H :    0.025293
  11 H :    0.017846
  12 C :   -0.064949
  13 H :    0.028211
  14 H :    0.018510
  15 H :    0.037507
  16 S :    0.454868
  17 C :   -0.205906
  18 C :   -0.073262
  19 C :   -0.063567
  20 C :   -0.201480
  21 H :    0.034063
  22 C :   -0.035230
  23 H :    0.031598
  24 H :    0.043290
  25 C :   -0.035354
  26 H :    0.018748
  27 H :    0.022052
  28 C :   -0.052594
  29 H :    0.007568
  30 H :    0.026836
  31 H :    0.024826
  32 H :    0.024003
  33 H :    0.019684

  Mayer bond orders larger than 0.100000
B(  0-S ,  1-C ) :   1.1307 B(  0-S ,  4-C ) :   1.1503 B(  1-C ,  2-C ) :   1.5934
B(  1-C , 32-H ) :   0.9730 B(  2-C ,  3-C ) :   1.2404 B(  2-C ,  6-C ) :   1.0388
B(  3-C ,  4-C ) :   1.5744 B(  3-C ,  5-H ) :   0.9970 B(  4-C , 20-C ) :   1.0476
B(  6-C ,  7-H ) :   0.9380 B(  6-C ,  8-H ) :   0.9331 B(  6-C ,  9-C ) :   1.0518
B(  9-C , 10-H ) :   0.9571 B(  9-C , 11-H ) :   0.9584 B(  9-C , 12-C ) :   1.0816
B( 12-C , 13-H ) :   0.9726 B( 12-C , 14-H ) :   0.9756 B( 12-C , 15-H ) :   0.9743
B( 16-S , 17-C ) :   1.1784 B( 16-S , 20-C ) :   1.1724 B( 17-C , 18-C ) :   1.5788
B( 17-C , 20-C ) :   0.1054 B( 17-C , 33-H ) :   0.9756 B( 18-C , 19-C ) :   1.2814
B( 18-C , 21-H ) :   0.9809 B( 19-C , 20-C ) :   1.5340 B( 19-C , 22-C ) :   1.0306
B( 22-C , 23-H ) :   0.9364 B( 22-C , 24-H ) :   0.9321 B( 22-C , 25-C ) :   1.0761
B( 25-C , 26-H ) :   0.9584 B( 25-C , 27-H ) :   0.9565 B( 25-C , 28-C ) :   1.0771
B( 28-C , 29-H ) :   0.9743 B( 28-C , 30-H ) :   0.9715 B( 28-C , 31-H ) :   0.9733

Dispersion correction           -0.015335978
FINAL SINGLE POINT ENERGY     -1339.875242342507

DIPOLE MOMENT
-------------
                                X             Y             Z
Electronic contribution:     -9.86343     -28.33926      -3.69264
Nuclear contribution   :     10.24872      28.80982       3.85895
                        -----------------------------------------
Total Dipole Moment    :      0.38529       0.47056       0.16632
                        -----------------------------------------
Magnitude (a.u.)       :      0.63051
Magnitude (Debye)      :      1.60262

Rotational constants in cm-1:     0.020939     0.009026     0.007081
Rotational constants in MHz :   627.748788   270.594713   212.278946

                             ****ORCA TERMINATED NORMALLY****
TOTAL RUN TIME: 0 days 0 hours 0 minutes 21 seconds 162 msec
