                         Program Version 4.2.1 -  RELEASE  -
|  1> ! wB97X-D3 SP def2-SVP
|  2> %pal
|  3> nprocs 24
|  4> end
|  5>
|  6> * xyz 0 1
|  7> S 	 -106.504 	 57.7077 	 -100.843
|  8> C 	 -107.797 	 57.51 	 -102.046
|  9> C 	 -108.985 	 57.983 	 -101.498
| 10> C 	 -108.898 	 58.3722 	 -100.128
| 11> C 	 -107.611 	 58.2625 	 -99.5922
| 12> H 	 -109.67 	 58.8507 	 -99.6405
| 13> C 	 -110.228 	 58.1205 	 -102.338
| 14> H 	 -111.065 	 57.7901 	 -101.734
| 15> H 	 -110.189 	 57.4773 	 -103.229
| 16> C 	 -110.494 	 59.5624 	 -102.992
| 17> H 	 -111.222 	 59.4282 	 -103.809
| 18> H 	 -110.979 	 60.2292 	 -102.297
| 19> C 	 -109.201 	 60.0455 	 -103.695
| 20> H 	 -108.758 	 59.2945 	 -104.339
| 21> H 	 -109.515 	 60.959 	 -104.312
| 22> H 	 -108.453 	 60.2833 	 -102.924
| 23> S 	 -106.677 	 57.1487 	 -97.2524
| 24> C 	 -106.752 	 58.0325 	 -95.7599
| 25> C 	 -106.874 	 59.3856 	 -96.058
| 26> C 	 -107.134 	 59.6818 	 -97.4673
| 27> C 	 -107.184 	 58.5576 	 -98.2552
| 28> H 	 -106.796 	 60.1849 	 -95.3596
| 29> C 	 -107.318 	 61.1057 	 -97.945
| 30> H 	 -107.465 	 61.103 	 -98.9584
| 31> H 	 -106.312 	 61.5535 	 -97.9242
| 32> C 	 -108.432 	 61.999 	 -97.2355
| 33> H 	 -108.04 	 63.0435 	 -97.3586
| 34> H 	 -108.531 	 61.8079 	 -96.1792
| 35> C 	 -109.792 	 61.7998 	 -97.9642
| 36> H 	 -110.639 	 62.2741 	 -97.4954
| 37> H 	 -110.016 	 60.7885 	 -98.0323
| 38> H 	 -109.771 	 62.2058 	 -98.9595
| 39> H 	 -107.538 	 57.1083 	 -103.004
| 40> H 	 -106.437 	 57.7866 	 -94.7975
| 41> *
| 42>
| 43>                          ****END OF INPUT****

CARTESIAN COORDINATES (ANGSTROEM)
---------------------------------
  S    -106.504000   57.707700  -100.843000
  C    -107.797000   57.510000  -102.046000
  C    -108.985000   57.983000  -101.498000
  C    -108.898000   58.372200  -100.128000
  C    -107.611000   58.262500  -99.592200
  H    -109.670000   58.850700  -99.640500
  C    -110.228000   58.120500  -102.338000
  H    -111.065000   57.790100  -101.734000
  H    -110.189000   57.477300  -103.229000
  C    -110.494000   59.562400  -102.992000
  H    -111.222000   59.428200  -103.809000
  H    -110.979000   60.229200  -102.297000
  C    -109.201000   60.045500  -103.695000
  H    -108.758000   59.294500  -104.339000
  H    -109.515000   60.959000  -104.312000
  H    -108.453000   60.283300  -102.924000
  S    -106.677000   57.148700  -97.252400
  C    -106.752000   58.032500  -95.759900
  C    -106.874000   59.385600  -96.058000
  C    -107.134000   59.681800  -97.467300
  C    -107.184000   58.557600  -98.255200
  H    -106.796000   60.184900  -95.359600
  C    -107.318000   61.105700  -97.945000
  H    -107.465000   61.103000  -98.958400
  H    -106.312000   61.553500  -97.924200
  C    -108.432000   61.999000  -97.235500
  H    -108.040000   63.043500  -97.358600
  H    -108.531000   61.807900  -96.179200
  C    -109.792000   61.799800  -97.964200
  H    -110.639000   62.274100  -97.495400
  H    -110.016000   60.788500  -98.032300
  H    -109.771000   62.205800  -98.959500
  H    -107.538000   57.108300  -103.004000
  H    -106.437000   57.786600  -94.797500

 Total Charge           Charge          ....    0
 Multiplicity           Mult            ....    1
 Number of Electrons    NEL             ....  134
 Basis Dimension        Dim             ....  322

ORBITAL ENERGIES
----------------

  NO   OCC          E(Eh)            E(eV)
   0   2.0000     -88.964315     -2420.8421
   1   2.0000     -88.960622     -2420.7416
   2   2.0000     -10.333557      -281.1904
   3   2.0000     -10.327454      -281.0243
   4   2.0000     -10.318621      -280.7840
   5   2.0000     -10.317036      -280.7408
   6   2.0000     -10.306560      -280.4558
   7   2.0000     -10.303390      -280.3695
   8   2.0000     -10.297744      -280.2159
   9   2.0000     -10.293917      -280.1117
  10   2.0000     -10.293413      -280.0980
  11   2.0000     -10.293159      -280.0911
  12   2.0000     -10.291995      -280.0594
  13   2.0000     -10.289033      -279.9788
  14   2.0000     -10.283420      -279.8261
  15   2.0000     -10.272863      -279.5388
  16   2.0000      -8.078704      -219.8327
  17   2.0000      -8.075117      -219.7351
  18   2.0000      -6.037210      -164.2808
  19   2.0000      -6.033892      -164.1905
  20   2.0000      -6.033104      -164.1691
  21   2.0000      -6.029652      -164.0752
  22   2.0000      -6.029637      -164.0748
  23   2.0000      -6.025569      -163.9641
  24   2.0000      -1.002390       -27.2764
  25   2.0000      -0.979746       -26.6603
  26   2.0000      -0.905344       -24.6357
  27   2.0000      -0.903959       -24.5980
  28   2.0000      -0.868905       -23.6441
  29   2.0000      -0.847178       -23.0529
  30   2.0000      -0.843694       -22.9581
  31   2.0000      -0.813804       -22.1447
  32   2.0000      -0.782466       -21.2920
  33   2.0000      -0.771740       -21.0001
  34   2.0000      -0.714974       -19.4554
  35   2.0000      -0.706855       -19.2345
  36   2.0000      -0.695026       -18.9126
  37   2.0000      -0.660487       -17.9728
  38   2.0000      -0.649088       -17.6626
  39   2.0000      -0.620943       -16.8967
  40   2.0000      -0.599040       -16.3007
  41   2.0000      -0.563357       -15.3297
  42   2.0000      -0.552361       -15.0305
  43   2.0000      -0.550988       -14.9932
  44   2.0000      -0.544087       -14.8054
  45   2.0000      -0.533740       -14.5238
  46   2.0000      -0.520552       -14.1649
  47   2.0000      -0.517824       -14.0907
  48   2.0000      -0.508434       -13.8352
  49   2.0000      -0.497646       -13.5416
  50   2.0000      -0.488618       -13.2960
  51   2.0000      -0.477548       -12.9948
  52   2.0000      -0.468336       -12.7441
  53   2.0000      -0.465133       -12.6569
  54   2.0000      -0.462276       -12.5792
  55   2.0000      -0.448105       -12.1936
  56   2.0000      -0.443003       -12.0547
  57   2.0000      -0.437590       -11.9074
  58   2.0000      -0.433074       -11.7845
  59   2.0000      -0.431467       -11.7408
  60   2.0000      -0.416990       -11.3469
  61   2.0000      -0.413922       -11.2634
  62   2.0000      -0.409323       -11.1383
  63   2.0000      -0.336856        -9.1663
  64   2.0000      -0.329094        -8.9551
  65   2.0000      -0.322743        -8.7823
  66   2.0000      -0.303190        -8.2502
  67   0.0000       0.032108         0.8737
  68   0.0000       0.055008         1.4968
  69   0.0000       0.114040         3.1032
  70   0.0000       0.116680         3.1750
  71   0.0000       0.125197         3.4068

MULLIKEN ATOMIC CHARGES
-----------------------
   0 S :    0.098208
   1 C :   -0.136110
   2 C :   -0.084356
   3 C :    0.098043
   4 C :   -0.165614
   5 H :   -0.026987
   6 C :    0.050069
   7 H :    0.028890
   8 H :    0.023091
   9 C :   -0.079919
  10 H :    0.030799
  11 H :    0.032261
  12 C :   -0.077475
  13 H :    0.028960
  14 H :    0.048451
  15 H :    0.056235
  16 S :    0.095232
  17 C :   -0.037077
  18 C :   -0.043461
  19 C :   -0.036513
  20 C :   -0.165987
  21 H :    0.008107
  22 C :    0.081780
  23 H :   -0.010006
  24 H :    0.038652
  25 C :   -0.075833
  26 H :    0.039075
  27 H :    0.035906
  28 C :   -0.024717
  29 H :    0.028294
  30 H :    0.022973
  31 H :    0.026299
  32 H :    0.052312
  33 H :    0.040418
Sum of atomic charges:   -0.0000000

LOEWDIN ATOMIC CHARGES
----------------------
   0 S :    0.392756
   1 C :   -0.180699
   2 C :   -0.065065
   3 C :   -0.046764
   4 C :   -0.192523
   5 H :    0.018179
   6 C :   -0.034035
   7 H :    0.027463
   8 H :    0.031119
   9 C :   -0.037799
  10 H :    0.024894
  11 H :    0.018085
  12 C :   -0.069821
  13 H :    0.021376
  14 H :    0.035123
  15 H :    0.028690
  16 S :    0.389055
  17 C :   -0.176646
  18 C :   -0.067365
  19 C :   -0.048916
  20 C :   -0.191651
  21 H :    0.021628
  22 C :   -0.029528
  23 H :    0.017240
  24 H :    0.041159
  25 C :   -0.030729
  26 H :    0.030606
  27 H :    0.020093
  28 C :   -0.058825
  29 H :    0.025441
  30 H :    0.015287
  31 H :    0.024946
  32 H :    0.024044
  33 H :    0.023182

  Mayer bond orders larger than 0.100000
B(  0-S ,  1-C ) :   1.1405 B(  0-S ,  4-C ) :   1.1633 B(  1-C ,  2-C ) :   1.5593
B(  1-C ,  4-C ) :   0.1025 B(  1-C , 32-H ) :   0.9804 B(  2-C ,  3-C ) :   1.2581
B(  2-C ,  6-C ) :   1.0410 B(  3-C ,  4-C ) :   1.5438 B(  3-C ,  5-H ) :   1.0099
B(  4-C , 20-C ) :   1.0349 B(  6-C ,  7-H ) :   0.9423 B(  6-C ,  8-H ) :   0.9454
B(  6-C ,  9-C ) :   1.0551 B(  9-C , 10-H ) :   0.9623 B(  9-C , 11-H ) :   0.9618
B(  9-C , 12-C ) :   1.0668 B( 12-C , 13-H ) :   0.9745 B( 12-C , 14-H ) :   0.9738
B( 12-C , 15-H ) :   0.9718 B( 16-S , 17-C ) :   1.1513 B( 16-S , 20-C ) :   1.1077
B( 17-C , 18-C ) :   1.6109 B( 17-C , 33-H ) :   0.9706 B( 18-C , 19-C ) :   1.2237
B( 18-C , 21-H ) :   0.9875 B( 19-C , 20-C ) :   1.6192 B( 19-C , 22-C ) :   1.0517
B( 22-C , 23-H ) :   0.9273 B( 22-C , 24-H ) :   0.9314 B( 22-C , 25-C ) :   1.0425
B( 25-C , 26-H ) :   0.9587 B( 25-C , 27-H ) :   0.9668 B( 25-C , 28-C ) :   1.0692
B( 28-C , 29-H ) :   0.9717 B( 28-C , 30-H ) :   0.9782 B( 28-C , 31-H ) :   0.9753

Dispersion correction           -0.015250935
FINAL SINGLE POINT ENERGY     -1339.868493462737

DIPOLE MOMENT
-------------
                                X             Y             Z
Electronic contribution:     17.12418     -20.21231      10.02595
Nuclear contribution   :    -17.50363      20.85314     -10.13731
                        -----------------------------------------
Total Dipole Moment    :     -0.37945       0.64084      -0.11136
                        -----------------------------------------
Magnitude (a.u.)       :      0.75303
Magnitude (Debye)      :      1.91405

Rotational constants in cm-1:     0.019190     0.009353     0.007061
Rotational constants in MHz :   575.311458   280.391029   211.672582

                             ****ORCA TERMINATED NORMALLY****
TOTAL RUN TIME: 0 days 0 hours 0 minutes 22 seconds 236 msec
