                         Program Version 4.2.1 -  RELEASE  -
|  1> ! wB97X-D3 SP def2-SVP
|  2> %pal
|  3> nprocs 24
|  4> end
|  5>
|  6> * xyz 0 1
|  7> S 	 -64.5719 	 16.4222 	 -74.8986
|  8> C 	 -65.453 	 16.1759 	 -73.431
|  9> C 	 -64.6395 	 15.9153 	 -72.3265
| 10> C 	 -63.2622 	 16.041 	 -72.6705
| 11> C 	 -63.0197 	 16.3964 	 -73.9934
| 12> H 	 -62.3929 	 15.8272 	 -71.9082
| 13> C 	 -65.1767 	 15.549 	 -70.9249
| 14> H 	 -66.0826 	 16.0729 	 -70.7673
| 15> H 	 -64.4137 	 15.9114 	 -70.2005
| 16> C 	 -65.3672 	 14.0236 	 -70.6944
| 17> H 	 -65.8732 	 13.8992 	 -69.6428
| 18> H 	 -66.105 	 13.6285 	 -71.4163
| 19> C 	 -64.1543 	 13.0885 	 -70.7806
| 20> H 	 -64.5886 	 12.0779 	 -70.6888
| 21> H 	 -63.7832 	 13.0785 	 -71.8137
| 22> H 	 -63.4071 	 13.3064 	 -69.9302
| 23> S 	 -61.5603 	 15.4496 	 -76.1423
| 24> C 	 -60.0573 	 16.2674 	 -76.5451
| 25> C 	 -59.632 	 17.2638 	 -75.6599
| 26> C 	 -60.6495 	 17.4062 	 -74.6824
| 27> C 	 -61.7405 	 16.5095 	 -74.7227
| 28> H 	 -58.7197 	 17.8224 	 -75.7715
| 29> C 	 -60.5635 	 18.5286 	 -73.671
| 30> H 	 -59.6191 	 18.9683 	 -73.6621
| 31> H 	 -60.7957 	 17.9746 	 -72.717
| 32> C 	 -61.6347 	 19.6251 	 -73.8033
| 33> H 	 -62.6012 	 19.2256 	 -73.4487
| 34> H 	 -61.7951 	 19.9704 	 -74.8223
| 35> C 	 -61.4828 	 20.9139 	 -73.0721
| 36> H 	 -60.6537 	 21.5335 	 -73.3625
| 37> H 	 -61.2088 	 20.5754 	 -72.1052
| 38> H 	 -62.3599 	 21.4972 	 -73.0646
| 39> H 	 -66.5088 	 16.335 	 -73.3494
| 40> H 	 -59.4074 	 16.0013 	 -77.395
| 41> *
| 42>
| 43>                          ****END OF INPUT****

CARTESIAN COORDINATES (ANGSTROEM)
---------------------------------
  S    -64.571900   16.422200  -74.898600
  C    -65.453000   16.175900  -73.431000
  C    -64.639500   15.915300  -72.326500
  C    -63.262200   16.041000  -72.670500
  C    -63.019700   16.396400  -73.993400
  H    -62.392900   15.827200  -71.908200
  C    -65.176700   15.549000  -70.924900
  H    -66.082600   16.072900  -70.767300
  H    -64.413700   15.911400  -70.200500
  C    -65.367200   14.023600  -70.694400
  H    -65.873200   13.899200  -69.642800
  H    -66.105000   13.628500  -71.416300
  C    -64.154300   13.088500  -70.780600
  H    -64.588600   12.077900  -70.688800
  H    -63.783200   13.078500  -71.813700
  H    -63.407100   13.306400  -69.930200
  S    -61.560300   15.449600  -76.142300
  C    -60.057300   16.267400  -76.545100
  C    -59.632000   17.263800  -75.659900
  C    -60.649500   17.406200  -74.682400
  C    -61.740500   16.509500  -74.722700
  H    -58.719700   17.822400  -75.771500
  C    -60.563500   18.528600  -73.671000
  H    -59.619100   18.968300  -73.662100
  H    -60.795700   17.974600  -72.717000
  C    -61.634700   19.625100  -73.803300
  H    -62.601200   19.225600  -73.448700
  H    -61.795100   19.970400  -74.822300
  C    -61.482800   20.913900  -73.072100
  H    -60.653700   21.533500  -73.362500
  H    -61.208800   20.575400  -72.105200
  H    -62.359900   21.497200  -73.064600
  H    -66.508800   16.335000  -73.349400
  H    -59.407400   16.001300  -77.395000

 Total Charge           Charge          ....    0
 Multiplicity           Mult            ....    1
 Number of Electrons    NEL             ....  134
 Basis Dimension        Dim             ....  322

ORBITAL ENERGIES
----------------

  NO   OCC          E(Eh)            E(eV)
   0   2.0000     -88.969568     -2420.9850
   1   2.0000     -88.968745     -2420.9626
   2   2.0000     -10.337153      -281.2882
   3   2.0000     -10.329039      -281.0674
   4   2.0000     -10.322160      -280.8802
   5   2.0000     -10.314099      -280.6609
   6   2.0000     -10.306770      -280.4615
   7   2.0000     -10.305938      -280.4388
   8   2.0000     -10.303958      -280.3849
   9   2.0000     -10.296877      -280.1923
  10   2.0000     -10.296738      -280.1885
  11   2.0000     -10.296454      -280.1808
  12   2.0000     -10.286608      -279.9128
  13   2.0000     -10.286563      -279.9116
  14   2.0000     -10.274192      -279.5750
  15   2.0000     -10.260741      -279.2090
  16   2.0000      -8.083385      -219.9601
  17   2.0000      -8.082988      -219.9493
  18   2.0000      -6.041844      -164.4069
  19   2.0000      -6.041488      -164.3972
  20   2.0000      -6.038029      -164.3031
  21   2.0000      -6.037608      -164.2917
  22   2.0000      -6.034254      -164.2004
  23   2.0000      -6.033733      -164.1862
  24   2.0000      -1.000412       -27.2226
  25   2.0000      -0.980110       -26.6702
  26   2.0000      -0.908210       -24.7136
  27   2.0000      -0.904112       -24.6021
  28   2.0000      -0.865484       -23.5510
  29   2.0000      -0.854795       -23.2602
  30   2.0000      -0.844759       -22.9871
  31   2.0000      -0.815002       -22.1773
  32   2.0000      -0.783929       -21.3318
  33   2.0000      -0.766579       -20.8597
  34   2.0000      -0.702079       -19.1045
  35   2.0000      -0.687809       -18.7162
  36   2.0000      -0.683002       -18.5854
  37   2.0000      -0.663699       -18.0602
  38   2.0000      -0.636368       -17.3165
  39   2.0000      -0.613565       -16.6960
  40   2.0000      -0.590317       -16.0634
  41   2.0000      -0.571993       -15.5647
  42   2.0000      -0.564919       -15.3722
  43   2.0000      -0.547794       -14.9062
  44   2.0000      -0.538774       -14.6608
  45   2.0000      -0.528528       -14.3820
  46   2.0000      -0.516269       -14.0484
  47   2.0000      -0.511628       -13.9221
  48   2.0000      -0.502508       -13.6739
  49   2.0000      -0.496998       -13.5240
  50   2.0000      -0.490984       -13.3603
  51   2.0000      -0.478095       -13.0096
  52   2.0000      -0.468130       -12.7385
  53   2.0000      -0.463500       -12.6125
  54   2.0000      -0.453970       -12.3532
  55   2.0000      -0.449485       -12.2311
  56   2.0000      -0.440483       -11.9861
  57   2.0000      -0.439312       -11.9543
  58   2.0000      -0.430968       -11.7272
  59   2.0000      -0.422387       -11.4937
  60   2.0000      -0.417477       -11.3601
  61   2.0000      -0.411579       -11.1996
  62   2.0000      -0.397126       -10.8064
  63   2.0000      -0.345268        -9.3952
  64   2.0000      -0.333477        -9.0744
  65   2.0000      -0.329688        -8.9713
  66   2.0000      -0.287685        -7.8283
  67   0.0000       0.029282         0.7968
  68   0.0000       0.053794         1.4638
  69   0.0000       0.106542         2.8991
  70   0.0000       0.119071         3.2401
  71   0.0000       0.129992         3.5372

MULLIKEN ATOMIC CHARGES
-----------------------
   0 S :    0.116211
   1 C :   -0.117220
   2 C :   -0.122267
   3 C :    0.011180
   4 C :   -0.166237
   5 H :    0.057320
   6 C :    0.111843
   7 H :    0.019774
   8 H :    0.025608
   9 C :   -0.129080
  10 H :    0.041121
  11 H :    0.029574
  12 C :   -0.065125
  13 H :    0.036840
  14 H :    0.049917
  15 H :    0.052855
  16 S :    0.108950
  17 C :   -0.096981
  18 C :   -0.028553
  19 C :   -0.052624
  20 C :   -0.162643
  21 H :    0.024039
  22 C :    0.111381
  23 H :   -0.004310
  24 H :    0.033042
  25 C :   -0.094072
  26 H :    0.035316
  27 H :    0.021708
  28 C :   -0.002680
  29 H :    0.016469
  30 H :    0.000730
  31 H :    0.031627
  32 H :    0.045244
  33 H :    0.061043
Sum of atomic charges:   -0.0000000

LOEWDIN ATOMIC CHARGES
----------------------
   0 S :    0.399816
   1 C :   -0.199149
   2 C :   -0.069892
   3 C :   -0.073016
   4 C :   -0.188415
   5 H :    0.051078
   6 C :   -0.028526
   7 H :    0.026585
   8 H :    0.032210
   9 C :   -0.051686
  10 H :    0.030926
  11 H :    0.023497
  12 C :   -0.076774
  13 H :    0.032403
  14 H :    0.030669
  15 H :    0.034598
  16 S :    0.398382
  17 C :   -0.176685
  18 C :   -0.072417
  19 C :   -0.045174
  20 C :   -0.205580
  21 H :    0.036325
  22 C :   -0.028743
  23 H :    0.016222
  24 H :    0.041392
  25 C :   -0.043624
  26 H :    0.028889
  27 H :    0.019912
  28 C :   -0.058333
  29 H :    0.018477
  30 H :    0.017435
  31 H :    0.024528
  32 H :    0.024075
  33 H :    0.030597

  Mayer bond orders larger than 0.100000
B(  0-S ,  1-C ) :   1.1526 B(  0-S ,  4-C ) :   1.1401 B(  1-C ,  2-C ) :   1.5992
B(  1-C ,  4-C ) :   0.1038 B(  1-C , 32-H ) :   0.9660 B(  2-C ,  3-C ) :   1.2641
B(  2-C ,  6-C ) :   1.0124 B(  3-C ,  4-C ) :   1.5795 B(  3-C ,  5-H ) :   0.9674
B(  4-C , 20-C ) :   1.0391 B(  6-C ,  7-H ) :   0.9389 B(  6-C ,  8-H ) :   0.9426
B(  6-C ,  9-C ) :   1.0623 B(  9-C , 10-H ) :   0.9556 B(  9-C , 11-H ) :   0.9560
B(  9-C , 12-C ) :   1.0829 B( 12-C , 13-H ) :   0.9702 B( 12-C , 14-H ) :   0.9689
B( 12-C , 15-H ) :   0.9734 B( 16-S , 17-C ) :   1.1761 B( 16-S , 20-C ) :   1.1231
B( 17-C , 18-C ) :   1.5889 B( 17-C , 20-C ) :   0.1010 B( 17-C , 33-H ) :   0.9578
B( 18-C , 19-C ) :   1.2610 B( 18-C , 21-H ) :   0.9939 B( 19-C , 20-C ) :   1.5829
B( 19-C , 22-C ) :   1.0452 B( 22-C , 23-H ) :   0.9371 B( 22-C , 24-H ) :   0.9251
B( 22-C , 25-C ) :   1.0614 B( 25-C , 26-H ) :   0.9502 B( 25-C , 27-H ) :   0.9604
B( 25-C , 28-C ) :   1.0962 B( 28-C , 29-H ) :   0.9713 B( 28-C , 30-H ) :   0.9690
B( 28-C , 31-H ) :   0.9722

Dispersion correction           -0.014497874
FINAL SINGLE POINT ENERGY     -1339.865234107149

DIPOLE MOMENT
-------------
                                X             Y             Z
Electronic contribution:      0.74040      -5.98770     -21.51153
Nuclear contribution   :     -0.67526       6.11751      21.93097
                        -----------------------------------------
Total Dipole Moment    :      0.06514       0.12981       0.41944
                        -----------------------------------------
Magnitude (a.u.)       :      0.44388
Magnitude (Debye)      :      1.12825

Rotational constants in cm-1:     0.018285     0.008565     0.007233
Rotational constants in MHz :   548.160720   256.782773   216.832121

                             ****ORCA TERMINATED NORMALLY****
TOTAL RUN TIME: 0 days 0 hours 0 minutes 21 seconds 544 msec
