                         Program Version 4.2.1 -  RELEASE  -
|  1> ! wB97X-D3 SP def2-SVP
|  2> %pal
|  3> nprocs 24
|  4> end
|  5>
|  6> * xyz 0 1
|  7> S 	 -47.0872 	 -49.6736 	 -71.0729
|  8> C 	 -47.4277 	 -51.2354 	 -71.7162
|  9> C 	 -46.8184 	 -52.2099 	 -70.9838
| 10> C 	 -46.1525 	 -51.7475 	 -69.8026
| 11> C 	 -46.2008 	 -50.3656 	 -69.792
| 12> H 	 -45.6806 	 -52.2222 	 -68.936
| 13> C 	 -46.7357 	 -53.6757 	 -71.276
| 14> H 	 -45.7568 	 -54.1567 	 -71.0267
| 15> H 	 -46.8619 	 -53.6905 	 -72.368
| 16> C 	 -47.8641 	 -54.5228 	 -70.7385
| 17> H 	 -48.8062 	 -54.2825 	 -71.1898
| 18> H 	 -47.6448 	 -55.5565 	 -70.9501
| 19> C 	 -48.0634 	 -54.422 	 -69.2299
| 20> H 	 -48.8622 	 -54.9361 	 -68.8221
| 21> H 	 -47.1541 	 -54.712 	 -68.6885
| 22> H 	 -48.3124 	 -53.4152 	 -68.9605
| 23> S 	 -46.7105 	 -48.0375 	 -68.4685
| 24> C 	 -45.6321 	 -47.4888 	 -67.2448
| 25> C 	 -44.5704 	 -48.337 	 -67.071
| 26> C 	 -44.592 	 -49.4647 	 -67.8961
| 27> C 	 -45.7543 	 -49.4769 	 -68.6942
| 28> H 	 -43.8468 	 -48.0276 	 -66.3106
| 29> C 	 -43.4499 	 -50.3651 	 -67.9114
| 30> H 	 -43.7222 	 -51.2729 	 -68.4192
| 31> H 	 -43.1981 	 -50.4714 	 -66.8727
| 32> C 	 -42.0915 	 -49.8494 	 -68.497
| 33> H 	 -41.8116 	 -48.9728 	 -67.8126
| 34> H 	 -42.2726 	 -49.51 	 -69.5025
| 35> C 	 -41.0109 	 -50.9346 	 -68.5285
| 36> H 	 -41.422 	 -51.8007 	 -69.045
| 37> H 	 -40.7189 	 -51.2631 	 -67.4968
| 38> H 	 -40.102 	 -50.5536 	 -68.9781
| 39> H 	 -47.9073 	 -51.4764 	 -72.7129
| 40> H 	 -45.8273 	 -46.7219 	 -66.552
| 41> *
| 42>
| 43>                          ****END OF INPUT****

CARTESIAN COORDINATES (ANGSTROEM)
---------------------------------
  S    -47.087200  -49.673600  -71.072900
  C    -47.427700  -51.235400  -71.716200
  C    -46.818400  -52.209900  -70.983800
  C    -46.152500  -51.747500  -69.802600
  C    -46.200800  -50.365600  -69.792000
  H    -45.680600  -52.222200  -68.936000
  C    -46.735700  -53.675700  -71.276000
  H    -45.756800  -54.156700  -71.026700
  H    -46.861900  -53.690500  -72.368000
  C    -47.864100  -54.522800  -70.738500
  H    -48.806200  -54.282500  -71.189800
  H    -47.644800  -55.556500  -70.950100
  C    -48.063400  -54.422000  -69.229900
  H    -48.862200  -54.936100  -68.822100
  H    -47.154100  -54.712000  -68.688500
  H    -48.312400  -53.415200  -68.960500
  S    -46.710500  -48.037500  -68.468500
  C    -45.632100  -47.488800  -67.244800
  C    -44.570400  -48.337000  -67.071000
  C    -44.592000  -49.464700  -67.896100
  C    -45.754300  -49.476900  -68.694200
  H    -43.846800  -48.027600  -66.310600
  C    -43.449900  -50.365100  -67.911400
  H    -43.722200  -51.272900  -68.419200
  H    -43.198100  -50.471400  -66.872700
  C    -42.091500  -49.849400  -68.497000
  H    -41.811600  -48.972800  -67.812600
  H    -42.272600  -49.510000  -69.502500
  C    -41.010900  -50.934600  -68.528500
  H    -41.422000  -51.800700  -69.045000
  H    -40.718900  -51.263100  -67.496800
  H    -40.102000  -50.553600  -68.978100
  H    -47.907300  -51.476400  -72.712900
  H    -45.827300  -46.721900  -66.552000

 Total Charge           Charge          ....    0
 Multiplicity           Mult            ....    1
 Number of Electrons    NEL             ....  134
 Basis Dimension        Dim             ....  322

ORBITAL ENERGIES
----------------

  NO   OCC          E(Eh)            E(eV)
   0   2.0000     -88.967598     -2420.9314
   1   2.0000     -88.966019     -2420.8884
   2   2.0000     -10.326966      -281.0110
   3   2.0000     -10.325390      -280.9682
   4   2.0000     -10.312729      -280.6236
   5   2.0000     -10.307170      -280.4724
   6   2.0000     -10.298891      -280.2471
   7   2.0000     -10.298020      -280.2234
   8   2.0000     -10.291810      -280.0544
   9   2.0000     -10.290831      -280.0277
  10   2.0000     -10.289712      -279.9973
  11   2.0000     -10.288056      -279.9522
  12   2.0000     -10.284634      -279.8591
  13   2.0000     -10.282630      -279.8046
  14   2.0000     -10.278588      -279.6946
  15   2.0000     -10.262941      -279.2688
  16   2.0000      -8.083563      -219.9649
  17   2.0000      -8.081410      -219.9063
  18   2.0000      -6.042021      -164.4117
  19   2.0000      -6.039807      -164.3515
  20   2.0000      -6.037919      -164.3001
  21   2.0000      -6.035786      -164.2421
  22   2.0000      -6.034273      -164.2009
  23   2.0000      -6.032287      -164.1469
  24   2.0000      -1.015808       -27.6415
  25   2.0000      -0.992580       -27.0095
  26   2.0000      -0.918184       -24.9851
  27   2.0000      -0.913641       -24.8614
  28   2.0000      -0.869337       -23.6559
  29   2.0000      -0.857850       -23.3433
  30   2.0000      -0.847975       -23.0746
  31   2.0000      -0.816963       -22.2307
  32   2.0000      -0.785457       -21.3734
  33   2.0000      -0.773293       -21.0424
  34   2.0000      -0.703843       -19.1525
  35   2.0000      -0.701342       -19.0845
  36   2.0000      -0.692377       -18.8405
  37   2.0000      -0.663813       -18.0633
  38   2.0000      -0.637649       -17.3513
  39   2.0000      -0.614583       -16.7236
  40   2.0000      -0.595936       -16.2162
  41   2.0000      -0.578954       -15.7541
  42   2.0000      -0.572911       -15.5897
  43   2.0000      -0.548060       -14.9135
  44   2.0000      -0.543755       -14.7963
  45   2.0000      -0.525012       -14.2863
  46   2.0000      -0.520088       -14.1523
  47   2.0000      -0.514167       -13.9912
  48   2.0000      -0.505457       -13.7542
  49   2.0000      -0.496259       -13.5039
  50   2.0000      -0.486171       -13.2294
  51   2.0000      -0.484489       -13.1836
  52   2.0000      -0.472639       -12.8611
  53   2.0000      -0.462658       -12.5896
  54   2.0000      -0.460921       -12.5423
  55   2.0000      -0.454745       -12.3743
  56   2.0000      -0.446220       -12.1423
  57   2.0000      -0.440986       -11.9998
  58   2.0000      -0.430431       -11.7126
  59   2.0000      -0.425216       -11.5707
  60   2.0000      -0.423072       -11.5124
  61   2.0000      -0.418636       -11.3917
  62   2.0000      -0.407881       -11.0990
  63   2.0000      -0.356395        -9.6980
  64   2.0000      -0.333059        -9.0630
  65   2.0000      -0.329612        -8.9692
  66   2.0000      -0.283336        -7.7100
  67   0.0000       0.029190         0.7943
  68   0.0000       0.080440         2.1889
  69   0.0000       0.103534         2.8173
  70   0.0000       0.116201         3.1620
  71   0.0000       0.141125         3.8402

MULLIKEN ATOMIC CHARGES
-----------------------
   0 S :    0.115408
   1 C :   -0.134276
   2 C :   -0.087512
   3 C :   -0.005373
   4 C :   -0.130136
   5 H :    0.033004
   6 C :    0.052613
   7 H :    0.039976
   8 H :    0.017109
   9 C :   -0.035411
  10 H :    0.017120
  11 H :    0.023849
  12 C :   -0.038787
  13 H :    0.013458
  14 H :    0.021102
  15 H :    0.029905
  16 S :    0.105415
  17 C :   -0.070806
  18 C :   -0.068381
  19 C :   -0.007539
  20 C :   -0.155944
  21 H :    0.023197
  22 C :    0.082340
  23 H :   -0.002782
  24 H :    0.018376
  25 C :   -0.097733
  26 H :    0.034958
  27 H :    0.034059
  28 C :   -0.031793
  29 H :    0.033716
  30 H :    0.027042
  31 H :    0.041415
  32 H :    0.064434
  33 H :    0.037975
Sum of atomic charges:    0.0000000

LOEWDIN ATOMIC CHARGES
----------------------
   0 S :    0.431029
   1 C :   -0.226356
   2 C :   -0.062145
   3 C :   -0.073628
   4 C :   -0.196408
   5 H :    0.037903
   6 C :   -0.035801
   7 H :    0.035966
   8 H :    0.032610
   9 C :   -0.033549
  10 H :    0.020508
  11 H :    0.022163
  12 C :   -0.063456
  13 H :    0.016006
  14 H :    0.022779
  15 H :    0.024237
  16 S :    0.419178
  17 C :   -0.190106
  18 C :   -0.072057
  19 C :   -0.061675
  20 C :   -0.198258
  21 H :    0.035107
  22 C :   -0.034442
  23 H :    0.021499
  24 H :    0.033092
  25 C :   -0.034246
  26 H :    0.027863
  27 H :    0.021202
  28 C :   -0.064607
  29 H :    0.026197
  30 H :    0.027273
  31 H :    0.028015
  32 H :    0.043491
  33 H :    0.020614

  Mayer bond orders larger than 0.100000
B(  0-S ,  1-C ) :   1.1175 B(  0-S ,  4-C ) :   1.1734 B(  1-C ,  2-C ) :   1.6430
B(  1-C , 32-H ) :   0.9546 B(  2-C ,  3-C ) :   1.2065 B(  2-C ,  6-C ) :   1.0161
B(  3-C ,  4-C ) :   1.5796 B(  3-C ,  5-H ) :   0.9884 B(  4-C , 20-C ) :   1.0337
B(  6-C ,  7-H ) :   0.9478 B(  6-C ,  8-H ) :   0.9314 B(  6-C ,  9-C ) :   1.0878
B(  9-C , 10-H ) :   0.9522 B(  9-C , 11-H ) :   0.9548 B(  9-C , 12-C ) :   1.0895
B( 12-C , 13-H ) :   0.9711 B( 12-C , 14-H ) :   0.9732 B( 12-C , 15-H ) :   0.9677
B( 16-S , 17-C ) :   1.1564 B( 16-S , 20-C ) :   1.1555 B( 17-C , 18-C ) :   1.6130
B( 17-C , 33-H ) :   0.9675 B( 18-C , 19-C ) :   1.2475 B( 18-C , 21-H ) :   0.9881
B( 19-C , 20-C ) :   1.5482 B( 19-C , 22-C ) :   1.0731 B( 22-C , 23-H ) :   0.9231
B( 22-C , 24-H ) :   0.9211 B( 22-C , 25-C ) :   1.0648 B( 25-C , 26-H ) :   0.9527
B( 25-C , 27-H ) :   0.9557 B( 25-C , 28-C ) :   1.0856 B( 28-C , 29-H ) :   0.9726
B( 28-C , 30-H ) :   0.9735 B( 28-C , 31-H ) :   0.9735

Dispersion correction           -0.014050768
FINAL SINGLE POINT ENERGY     -1339.877181763786

DIPOLE MOMENT
-------------
                                X             Y             Z
Electronic contribution:    -13.14698      22.00434      -3.61356
Nuclear contribution   :     13.50941     -22.38111       3.79412
                        -----------------------------------------
Total Dipole Moment    :      0.36243      -0.37677       0.18056
                        -----------------------------------------
Magnitude (a.u.)       :      0.55309
Magnitude (Debye)      :      1.40585

Rotational constants in cm-1:     0.017583     0.008995     0.007074
Rotational constants in MHz :   527.137494   269.675016   212.069800

                             ****ORCA TERMINATED NORMALLY****
TOTAL RUN TIME: 0 days 0 hours 0 minutes 21 seconds 569 msec
