                         Program Version 4.2.1 -  RELEASE  -
|  1> ! wB97X-D3 SP def2-SVP
|  2> %pal
|  3> nprocs 24
|  4> end
|  5>
|  6> * xyz 0 1
|  7> S 	 39.9998 	 -28.1471 	 -124.848
|  8> C 	 39.3167 	 -26.5731 	 -124.58
|  9> C 	 39.6857 	 -25.6596 	 -125.556
| 10> C 	 40.5834 	 -26.2531 	 -126.519
| 11> C 	 40.9352 	 -27.5423 	 -126.274
| 12> H 	 40.9707 	 -25.7582 	 -127.399
| 13> C 	 39.1563 	 -24.2252 	 -125.689
| 14> H 	 38.2099 	 -24.0058 	 -126.262
| 15> H 	 39.9216 	 -23.9732 	 -126.467
| 16> C 	 39.3976 	 -23.3893 	 -124.484
| 17> H 	 38.7517 	 -23.5607 	 -123.594
| 18> H 	 40.4286 	 -23.5727 	 -124.037
| 19> C 	 39.4504 	 -21.9349 	 -124.928
| 20> H 	 39.8073 	 -21.3676 	 -124.03
| 21> H 	 40.2744 	 -21.8127 	 -125.624
| 22> H 	 38.5607 	 -21.5384 	 -125.422
| 23> S 	 40.6893 	 -29.3392 	 -128.281
| 24> C 	 42.0685 	 -30.0222 	 -129.06
| 25> C 	 43.2539 	 -29.5626 	 -128.428
| 26> C 	 43.0025 	 -28.6402 	 -127.343
| 27> C 	 41.6627 	 -28.4469 	 -127.171
| 28> H 	 44.3038 	 -29.7744 	 -128.753
| 29> C 	 44.0982 	 -27.9101 	 -126.467
| 30> H 	 43.893 	 -26.8413 	 -126.538
| 31> H 	 45.1215 	 -28.1032 	 -126.858
| 32> C 	 43.974 	 -28.3716 	 -124.979
| 33> H 	 43.7845 	 -29.4674 	 -124.954
| 34> H 	 43.0177 	 -27.9984 	 -124.571
| 35> C 	 45.1055 	 -27.9478 	 -124.044
| 36> H 	 46.1334 	 -28.2727 	 -124.367
| 37> H 	 44.9392 	 -28.4109 	 -123.026
| 38> H 	 45.1399 	 -26.83 	 -123.866
| 39> H 	 38.5825 	 -26.3262 	 -123.827
| 40> H 	 42.0646 	 -30.7263 	 -129.925
| 41> *
| 42>
| 43>                          ****END OF INPUT****

CARTESIAN COORDINATES (ANGSTROEM)
---------------------------------
  S     39.999800  -28.147100  -124.848000
  C     39.316700  -26.573100  -124.580000
  C     39.685700  -25.659600  -125.556000
  C     40.583400  -26.253100  -126.519000
  C     40.935200  -27.542300  -126.274000
  H     40.970700  -25.758200  -127.399000
  C     39.156300  -24.225200  -125.689000
  H     38.209900  -24.005800  -126.262000
  H     39.921600  -23.973200  -126.467000
  C     39.397600  -23.389300  -124.484000
  H     38.751700  -23.560700  -123.594000
  H     40.428600  -23.572700  -124.037000
  C     39.450400  -21.934900  -124.928000
  H     39.807300  -21.367600  -124.030000
  H     40.274400  -21.812700  -125.624000
  H     38.560700  -21.538400  -125.422000
  S     40.689300  -29.339200  -128.281000
  C     42.068500  -30.022200  -129.060000
  C     43.253900  -29.562600  -128.428000
  C     43.002500  -28.640200  -127.343000
  C     41.662700  -28.446900  -127.171000
  H     44.303800  -29.774400  -128.753000
  C     44.098200  -27.910100  -126.467000
  H     43.893000  -26.841300  -126.538000
  H     45.121500  -28.103200  -126.858000
  C     43.974000  -28.371600  -124.979000
  H     43.784500  -29.467400  -124.954000
  H     43.017700  -27.998400  -124.571000
  C     45.105500  -27.947800  -124.044000
  H     46.133400  -28.272700  -124.367000
  H     44.939200  -28.410900  -123.026000
  H     45.139900  -26.830000  -123.866000
  H     38.582500  -26.326200  -123.827000
  H     42.064600  -30.726300  -129.925000

 Total Charge           Charge          ....    0
 Multiplicity           Mult            ....    1
 Number of Electrons    NEL             ....  134
 Basis Dimension        Dim             ....  322

ORBITAL ENERGIES
----------------

  NO   OCC          E(Eh)            E(eV)
   0   2.0000     -88.967124     -2420.9185
   1   2.0000     -88.966142     -2420.8918
   2   2.0000     -10.330087      -281.0960
   3   2.0000     -10.324136      -280.9340
   4   2.0000     -10.320460      -280.8340
   5   2.0000     -10.313990      -280.6579
   6   2.0000     -10.304863      -280.4096
   7   2.0000     -10.302283      -280.3394
   8   2.0000     -10.302071      -280.3336
   9   2.0000     -10.300033      -280.2782
  10   2.0000     -10.297501      -280.2093
  11   2.0000     -10.295918      -280.1662
  12   2.0000     -10.291659      -280.0503
  13   2.0000     -10.286423      -279.9078
  14   2.0000     -10.285259      -279.8761
  15   2.0000     -10.279633      -279.7230
  16   2.0000      -8.082564      -219.9377
  17   2.0000      -8.079923      -219.8659
  18   2.0000      -6.041009      -164.3842
  19   2.0000      -6.038467      -164.3150
  20   2.0000      -6.036793      -164.2695
  21   2.0000      -6.034550      -164.2084
  22   2.0000      -6.033516      -164.1803
  23   2.0000      -6.030703      -164.1038
  24   2.0000      -1.006735       -27.3947
  25   2.0000      -0.982579       -26.7373
  26   2.0000      -0.916835       -24.9484
  27   2.0000      -0.897715       -24.4281
  28   2.0000      -0.866963       -23.5913
  29   2.0000      -0.849145       -23.1064
  30   2.0000      -0.844701       -22.9855
  31   2.0000      -0.810322       -22.0500
  32   2.0000      -0.776422       -21.1275
  33   2.0000      -0.766246       -20.8506
  34   2.0000      -0.705844       -19.2070
  35   2.0000      -0.694913       -18.9096
  36   2.0000      -0.683659       -18.6033
  37   2.0000      -0.661116       -17.9899
  38   2.0000      -0.644563       -17.5395
  39   2.0000      -0.615774       -16.7561
  40   2.0000      -0.590827       -16.0772
  41   2.0000      -0.564583       -15.3631
  42   2.0000      -0.558684       -15.2026
  43   2.0000      -0.554107       -15.0780
  44   2.0000      -0.530414       -14.4333
  45   2.0000      -0.517018       -14.0688
  46   2.0000      -0.512189       -13.9374
  47   2.0000      -0.508265       -13.8306
  48   2.0000      -0.501124       -13.6363
  49   2.0000      -0.498850       -13.5744
  50   2.0000      -0.488198       -13.2845
  51   2.0000      -0.480785       -13.0828
  52   2.0000      -0.466518       -12.6946
  53   2.0000      -0.463900       -12.6234
  54   2.0000      -0.458491       -12.4762
  55   2.0000      -0.449955       -12.2439
  56   2.0000      -0.446774       -12.1573
  57   2.0000      -0.438190       -11.9238
  58   2.0000      -0.427217       -11.6252
  59   2.0000      -0.422461       -11.4958
  60   2.0000      -0.414254       -11.2724
  61   2.0000      -0.409954       -11.1554
  62   2.0000      -0.404794       -11.0150
  63   2.0000      -0.341113        -9.2822
  64   2.0000      -0.330245        -8.9864
  65   2.0000      -0.318619        -8.6701
  66   2.0000      -0.310399        -8.4464
  67   0.0000       0.044568         1.2127
  68   0.0000       0.052252         1.4219
  69   0.0000       0.116117         3.1597
  70   0.0000       0.122870         3.3435
  71   0.0000       0.129541         3.5250

MULLIKEN ATOMIC CHARGES
-----------------------
   0 S :    0.105441
   1 C :   -0.107074
   2 C :   -0.102224
   3 C :    0.060724
   4 C :   -0.187232
   5 H :    0.018545
   6 C :    0.050028
   7 H :    0.059510
   8 H :    0.015263
   9 C :   -0.100110
  10 H :    0.042307
  11 H :    0.037744
  12 C :   -0.056976
  13 H :    0.036069
  14 H :    0.023602
  15 H :    0.039538
  16 S :    0.138124
  17 C :   -0.112277
  18 C :   -0.056310
  19 C :   -0.040818
  20 C :   -0.198456
  21 H :    0.031100
  22 C :    0.107043
  23 H :    0.034813
  24 H :    0.022306
  25 C :   -0.105618
  26 H :    0.038137
  27 H :    0.036478
  28 C :   -0.074422
  29 H :    0.035450
  30 H :    0.043235
  31 H :    0.040878
  32 H :    0.047794
  33 H :    0.077390
Sum of atomic charges:   -0.0000000

LOEWDIN ATOMIC CHARGES
----------------------
   0 S :    0.387117
   1 C :   -0.191903
   2 C :   -0.070091
   3 C :   -0.056302
   4 C :   -0.184442
   5 H :    0.033624
   6 C :   -0.046485
   7 H :    0.041077
   8 H :    0.037056
   9 C :   -0.053461
  10 H :    0.024772
  11 H :    0.036130
  12 C :   -0.067179
  13 H :    0.031818
  14 H :    0.022550
  15 H :    0.023479
  16 S :    0.439159
  17 C :   -0.206429
  18 C :   -0.079196
  19 C :   -0.053106
  20 C :   -0.219755
  21 H :    0.036015
  22 C :   -0.023343
  23 H :    0.031992
  24 H :    0.028566
  25 C :   -0.053213
  26 H :    0.028272
  27 H :    0.023872
  28 C :   -0.079248
  29 H :    0.024660
  30 H :    0.034371
  31 H :    0.029969
  32 H :    0.028982
  33 H :    0.040672

  Mayer bond orders larger than 0.100000
B(  0-S ,  1-C ) :   1.1463 B(  0-S ,  4-C ) :   1.1210 B(  1-C ,  2-C ) :   1.6213
B(  1-C , 32-H ) :   0.9683 B(  2-C ,  3-C ) :   1.2385 B(  2-C ,  6-C ) :   0.9851
B(  3-C ,  4-C ) :   1.6311 B(  3-C ,  5-H ) :   0.9837 B(  4-C , 20-C ) :   0.9939
B(  6-C ,  7-H ) :   0.9375 B(  6-C ,  8-H ) :   0.9480 B(  6-C ,  9-C ) :   1.0605
B(  9-C , 10-H ) :   0.9531 B(  9-C , 11-H ) :   0.9548 B(  9-C , 12-C ) :   1.0789
B( 12-C , 13-H ) :   0.9731 B( 12-C , 14-H ) :   0.9765 B( 12-C , 15-H ) :   0.9745
B( 16-S , 17-C ) :   1.1715 B( 16-S , 20-C ) :   1.1671 B( 17-C , 18-C ) :   1.5737
B( 17-C , 20-C ) :   0.1003 B( 17-C , 33-H ) :   0.9651 B( 18-C , 19-C ) :   1.2760
B( 18-C , 21-H ) :   0.9788 B( 19-C , 20-C ) :   1.6000 B( 19-C , 22-C ) :   1.0301
B( 22-C , 23-H ) :   0.9322 B( 22-C , 24-H ) :   0.9429 B( 22-C , 25-C ) :   1.0529
B( 25-C , 26-H ) :   0.9591 B( 25-C , 27-H ) :   0.9461 B( 25-C , 28-C ) :   1.0885
B( 28-C , 29-H ) :   0.9746 B( 28-C , 30-H ) :   0.9723 B( 28-C , 31-H ) :   0.9727

Dispersion correction           -0.014279607
FINAL SINGLE POINT ENERGY     -1339.877912658021

DIPOLE MOMENT
-------------
                                X             Y             Z
Electronic contribution:    -10.32708     -21.27052     -11.16942
Nuclear contribution   :     10.49882      21.75640      11.07504
                        -----------------------------------------
Total Dipole Moment    :      0.17174       0.48588      -0.09438
                        -----------------------------------------
Magnitude (a.u.)       :      0.52391
Magnitude (Debye)      :      1.33168

Rotational constants in cm-1:     0.018856     0.008040     0.006837
Rotational constants in MHz :   565.298474   241.022174   204.956581

                             ****ORCA TERMINATED NORMALLY****
TOTAL RUN TIME: 0 days 0 hours 0 minutes 20 seconds 168 msec
