                         Program Version 4.2.1 -  RELEASE  -
|  1> ! wB97X-D3 SP def2-SVP
|  2> %pal
|  3> nprocs 24
|  4> end
|  5>
|  6> * xyz 0 1
|  7> S 	 -111.485 	 17.8213 	 -116.916
|  8> C 	 -111.994 	 18.4739 	 -115.354
|  9> C 	 -112.699 	 19.6368 	 -115.482
| 10> C 	 -113.061 	 19.9245 	 -116.85
| 11> C 	 -112.557 	 18.9363 	 -117.709
| 12> H 	 -113.719 	 20.7231 	 -117.282
| 13> C 	 -113.223 	 20.5246 	 -114.432
| 14> H 	 -112.955 	 20.1512 	 -113.424
| 15> H 	 -114.248 	 20.5084 	 -114.345
| 16> C 	 -112.556 	 21.9578 	 -114.534
| 17> H 	 -112.578 	 22.3618 	 -115.562
| 18> H 	 -113.336 	 22.552 	 -114.043
| 19> C 	 -111.09 	 22.0182 	 -113.892
| 20> H 	 -110.777 	 23.0655 	 -113.786
| 21> H 	 -111.203 	 21.621 	 -112.851
| 22> H 	 -110.366 	 21.4339 	 -114.43
| 23> S 	 -114.363 	 18.5215 	 -119.758
| 24> C 	 -113.717 	 18.5194 	 -121.385
| 25> C 	 -112.383 	 18.6893 	 -121.429
| 26> C 	 -111.777 	 18.9609 	 -120.149
| 27> C 	 -112.728 	 18.8855 	 -119.161
| 28> H 	 -111.944 	 18.745 	 -122.443
| 29> C 	 -110.245 	 19.301 	 -119.99
| 30> H 	 -109.788 	 18.3115 	 -119.839
| 31> H 	 -110.115 	 19.9554 	 -119.131
| 32> C 	 -109.574 	 19.9989 	 -121.198
| 33> H 	 -110.115 	 20.8532 	 -121.4
| 34> H 	 -109.676 	 19.3641 	 -122.087
| 35> C 	 -108.146 	 20.2956 	 -120.873
| 36> H 	 -107.684 	 19.3445 	 -120.803
| 37> H 	 -107.869 	 20.8148 	 -119.918
| 38> H 	 -107.583 	 20.8342 	 -121.66
| 39> H 	 -111.628 	 18.125 	 -114.419
| 40> H 	 -114.32 	 18.2942 	 -122.268
| 41> *
| 42>
| 43>                          ****END OF INPUT****

CARTESIAN COORDINATES (ANGSTROEM)
---------------------------------
  S    -111.485000   17.821300  -116.916000
  C    -111.994000   18.473900  -115.354000
  C    -112.699000   19.636800  -115.482000
  C    -113.061000   19.924500  -116.850000
  C    -112.557000   18.936300  -117.709000
  H    -113.719000   20.723100  -117.282000
  C    -113.223000   20.524600  -114.432000
  H    -112.955000   20.151200  -113.424000
  H    -114.248000   20.508400  -114.345000
  C    -112.556000   21.957800  -114.534000
  H    -112.578000   22.361800  -115.562000
  H    -113.336000   22.552000  -114.043000
  C    -111.090000   22.018200  -113.892000
  H    -110.777000   23.065500  -113.786000
  H    -111.203000   21.621000  -112.851000
  H    -110.366000   21.433900  -114.430000
  S    -114.363000   18.521500  -119.758000
  C    -113.717000   18.519400  -121.385000
  C    -112.383000   18.689300  -121.429000
  C    -111.777000   18.960900  -120.149000
  C    -112.728000   18.885500  -119.161000
  H    -111.944000   18.745000  -122.443000
  C    -110.245000   19.301000  -119.990000
  H    -109.788000   18.311500  -119.839000
  H    -110.115000   19.955400  -119.131000
  C    -109.574000   19.998900  -121.198000
  H    -110.115000   20.853200  -121.400000
  H    -109.676000   19.364100  -122.087000
  C    -108.146000   20.295600  -120.873000
  H    -107.684000   19.344500  -120.803000
  H    -107.869000   20.814800  -119.918000
  H    -107.583000   20.834200  -121.660000
  H    -111.628000   18.125000  -114.419000
  H    -114.320000   18.294200  -122.268000

 Total Charge           Charge          ....    0
 Multiplicity           Mult            ....    1
 Number of Electrons    NEL             ....  134
 Basis Dimension        Dim             ....  322

ORBITAL ENERGIES
----------------

  NO   OCC          E(Eh)            E(eV)
   0   2.0000     -88.964495     -2420.8470
   1   2.0000     -88.962577     -2420.7948
   2   2.0000     -10.325702      -280.9766
   3   2.0000     -10.322379      -280.8862
   4   2.0000     -10.311460      -280.5891
   5   2.0000     -10.309003      -280.5222
   6   2.0000     -10.304919      -280.4111
   7   2.0000     -10.297284      -280.2033
   8   2.0000     -10.296713      -280.1878
   9   2.0000     -10.296694      -280.1873
  10   2.0000     -10.295634      -280.1584
  11   2.0000     -10.290688      -280.0238
  12   2.0000     -10.287010      -279.9238
  13   2.0000     -10.286103      -279.8991
  14   2.0000     -10.281506      -279.7740
  15   2.0000     -10.277155      -279.6556
  16   2.0000      -8.079043      -219.8419
  17   2.0000      -8.077142      -219.7902
  18   2.0000      -6.037526      -164.2894
  19   2.0000      -6.035696      -164.2396
  20   2.0000      -6.033750      -164.1867
  21   2.0000      -6.031852      -164.1350
  22   2.0000      -6.029684      -164.0760
  23   2.0000      -6.027694      -164.0219
  24   2.0000      -1.002812       -27.2879
  25   2.0000      -0.981262       -26.7015
  26   2.0000      -0.910392       -24.7730
  27   2.0000      -0.907846       -24.7037
  28   2.0000      -0.863793       -23.5050
  29   2.0000      -0.848775       -23.0963
  30   2.0000      -0.839376       -22.8406
  31   2.0000      -0.809697       -22.0330
  32   2.0000      -0.783025       -21.3072
  33   2.0000      -0.771964       -21.0062
  34   2.0000      -0.708428       -19.2773
  35   2.0000      -0.704266       -19.1641
  36   2.0000      -0.692258       -18.8373
  37   2.0000      -0.653109       -17.7720
  38   2.0000      -0.635037       -17.2802
  39   2.0000      -0.616193       -16.7675
  40   2.0000      -0.595761       -16.2115
  41   2.0000      -0.574869       -15.6430
  42   2.0000      -0.567207       -15.4345
  43   2.0000      -0.547404       -14.8956
  44   2.0000      -0.528124       -14.3710
  45   2.0000      -0.520633       -14.1671
  46   2.0000      -0.514638       -14.0040
  47   2.0000      -0.509938       -13.8761
  48   2.0000      -0.501140       -13.6367
  49   2.0000      -0.492402       -13.3989
  50   2.0000      -0.483222       -13.1491
  51   2.0000      -0.480750       -13.0819
  52   2.0000      -0.468990       -12.7619
  53   2.0000      -0.462974       -12.5982
  54   2.0000      -0.453136       -12.3304
  55   2.0000      -0.451184       -12.2773
  56   2.0000      -0.447746       -12.1838
  57   2.0000      -0.442772       -12.0484
  58   2.0000      -0.429122       -11.6770
  59   2.0000      -0.427119       -11.6225
  60   2.0000      -0.421714       -11.4754
  61   2.0000      -0.417958       -11.3732
  62   2.0000      -0.411530       -11.1983
  63   2.0000      -0.337471        -9.1831
  64   2.0000      -0.331681        -9.0255
  65   2.0000      -0.325757        -8.8643
  66   2.0000      -0.297598        -8.0981
  67   0.0000       0.040428         1.1001
  68   0.0000       0.069288         1.8854
  69   0.0000       0.106809         2.9064
  70   0.0000       0.116538         3.1712
  71   0.0000       0.132803         3.6137

MULLIKEN ATOMIC CHARGES
-----------------------
   0 S :    0.112036
   1 C :   -0.101780
   2 C :   -0.060829
   3 C :    0.008116
   4 C :   -0.173834
   5 H :    0.040132
   6 C :    0.075256
   7 H :    0.001240
   8 H :    0.022288
   9 C :   -0.107628
  10 H :    0.040011
  11 H :    0.026826
  12 C :   -0.049887
  13 H :    0.044990
  14 H :    0.033082
  15 H :    0.049105
  16 S :    0.105773
  17 C :   -0.095842
  18 C :   -0.053136
  19 C :   -0.022275
  20 C :   -0.187762
  21 H :    0.029211
  22 C :    0.054589
  23 H :    0.043086
  24 H :    0.038774
  25 C :   -0.047399
  26 H :    0.015041
  27 H :    0.032669
  28 C :   -0.043672
  29 H :    0.013672
  30 H :    0.038594
  31 H :    0.035524
  32 H :    0.027244
  33 H :    0.056786
Sum of atomic charges:   -0.0000000

LOEWDIN ATOMIC CHARGES
----------------------
   0 S :    0.401262
   1 C :   -0.189491
   2 C :   -0.061760
   3 C :   -0.065396
   4 C :   -0.196022
   5 H :    0.042543
   6 C :   -0.029815
   7 H :    0.028899
   8 H :    0.021277
   9 C :   -0.037474
  10 H :    0.022916
  11 H :    0.024354
  12 C :   -0.062175
  13 H :    0.029655
  14 H :    0.029207
  15 H :    0.025696
  16 S :    0.387086
  17 C :   -0.184034
  18 C :   -0.081772
  19 C :   -0.056097
  20 C :   -0.195892
  21 H :    0.037150
  22 C :   -0.023277
  23 H :    0.034209
  24 H :    0.031213
  25 C :   -0.036334
  26 H :    0.013184
  27 H :    0.026433
  28 C :   -0.069404
  29 H :    0.021485
  30 H :    0.032069
  31 H :    0.029328
  32 H :    0.019619
  33 H :    0.031356

  Mayer bond orders larger than 0.100000
B(  0-S ,  1-C ) :   1.1169 B(  0-S ,  4-C ) :   1.1520 B(  1-C ,  2-C ) :   1.6420
B(  1-C , 32-H ) :   0.9696 B(  2-C ,  3-C ) :   1.1938 B(  2-C ,  6-C ) :   1.0382
B(  3-C ,  4-C ) :   1.5996 B(  3-C ,  5-H ) :   0.9839 B(  4-C , 20-C ) :   1.0188
B(  6-C ,  7-H ) :   0.9363 B(  6-C ,  8-H ) :   0.9437 B(  6-C ,  9-C ) :   1.0497
B(  9-C , 10-H ) :   0.9638 B(  9-C , 11-H ) :   0.9593 B(  9-C , 12-C ) :   1.0545
B( 12-C , 13-H ) :   0.9777 B( 12-C , 14-H ) :   0.9761 B( 12-C , 15-H ) :   0.9791
B( 16-S , 17-C ) :   1.1312 B( 16-S , 20-C ) :   1.1345 B( 17-C , 18-C ) :   1.6760
B( 17-C , 33-H ) :   0.9600 B( 18-C , 19-C ) :   1.1940 B( 18-C , 21-H ) :   0.9791
B( 19-C , 20-C ) :   1.6515 B( 19-C , 22-C ) :   1.0107 B( 22-C , 23-H ) :   0.9331
B( 22-C , 24-H ) :   0.9428 B( 22-C , 25-C ) :   1.0749 B( 25-C , 26-H ) :   0.9589
B( 25-C , 27-H ) :   0.9442 B( 25-C , 28-C ) :   1.0856 B( 28-C , 29-H ) :   0.9705
B( 28-C , 30-H ) :   0.9742 B( 28-C , 31-H ) :   0.9718

Dispersion correction           -0.014156112
FINAL SINGLE POINT ENERGY     -1339.873458631011

DIPOLE MOMENT
-------------
                                X             Y             Z
Electronic contribution:    -15.97865     -16.84056      -5.55437
Nuclear contribution   :     16.22948      17.25958       5.57595
                        -----------------------------------------
Total Dipole Moment    :      0.25084       0.41902       0.02158
                        -----------------------------------------
Magnitude (a.u.)       :      0.48884
Magnitude (Debye)      :      1.24252

Rotational constants in cm-1:     0.017683     0.008443     0.006823
Rotational constants in MHz :   530.114119   253.111879   204.545498

                             ****ORCA TERMINATED NORMALLY****
TOTAL RUN TIME: 0 days 0 hours 0 minutes 21 seconds 111 msec
