                         Program Version 4.2.1 -  RELEASE  -
|  1> ! wB97X-D3 SP def2-SVP
|  2> %pal
|  3> nprocs 24
|  4> end
|  5>
|  6> * xyz 0 1
|  7> S 	 -126.177 	 14.2961 	 -9.47595
|  8> C 	 -124.544 	 13.7093 	 -9.12743
|  9> C 	 -124.27 	 12.4784 	 -9.62313
| 10> C 	 -125.359 	 11.959 	 -10.4288
| 11> C 	 -126.371 	 12.9171 	 -10.6087
| 12> H 	 -125.263 	 11.0985 	 -11.097
| 13> C 	 -122.966 	 11.7378 	 -9.49213
| 14> H 	 -122.284 	 11.9327 	 -10.2857
| 15> H 	 -123.198 	 10.6719 	 -9.68486
| 16> C 	 -122.223 	 11.9322 	 -8.12064
| 17> H 	 -121.913 	 13.0346 	 -8.06616
| 18> H 	 -122.807 	 11.6398 	 -7.26736
| 19> C 	 -120.788 	 11.3268 	 -8.23437
| 20> H 	 -120.224 	 11.7473 	 -9.1112
| 21> H 	 -120.234 	 11.6997 	 -7.37462
| 22> H 	 -120.818 	 10.2161 	 -8.22908
| 23> S 	 -128.333 	 14.1027 	 -12.0651
| 24> C 	 -129.822 	 13.2291 	 -12.316
| 25> C 	 -129.738 	 11.9595 	 -11.823
| 26> C 	 -128.455 	 11.6199 	 -11.2605
| 27> C 	 -127.595 	 12.6944 	 -11.3205
| 28> H 	 -130.584 	 11.3092 	 -11.9647
| 29> C 	 -128.277 	 10.2571 	 -10.5064
| 30> H 	 -129.226 	 10.0421 	 -9.98034
| 31> H 	 -127.604 	 10.346 	 -9.69614
| 32> C 	 -127.851 	 9.06666 	 -11.3705
| 33> H 	 -127.017 	 9.28296 	 -12.0007
| 34> H 	 -128.638 	 8.8635 	 -12.1507
| 35> C 	 -127.302 	 7.82689 	 -10.5804
| 36> H 	 -126.797 	 8.09793 	 -9.64818
| 37> H 	 -126.586 	 7.33668 	 -11.2184
| 38> H 	 -128.139 	 7.16161 	 -10.3384
| 39> H 	 -123.825 	 14.242 	 -8.58906
| 40> H 	 -130.713 	 13.663 	 -12.7262
| 41> *
| 42>
| 43>                          ****END OF INPUT****

CARTESIAN COORDINATES (ANGSTROEM)
---------------------------------
  S    -126.177000   14.296100   -9.475950
  C    -124.544000   13.709300   -9.127430
  C    -124.270000   12.478400   -9.623130
  C    -125.359000   11.959000  -10.428800
  C    -126.371000   12.917100  -10.608700
  H    -125.263000   11.098500  -11.097000
  C    -122.966000   11.737800   -9.492130
  H    -122.284000   11.932700  -10.285700
  H    -123.198000   10.671900   -9.684860
  C    -122.223000   11.932200   -8.120640
  H    -121.913000   13.034600   -8.066160
  H    -122.807000   11.639800   -7.267360
  C    -120.788000   11.326800   -8.234370
  H    -120.224000   11.747300   -9.111200
  H    -120.234000   11.699700   -7.374620
  H    -120.818000   10.216100   -8.229080
  S    -128.333000   14.102700  -12.065100
  C    -129.822000   13.229100  -12.316000
  C    -129.738000   11.959500  -11.823000
  C    -128.455000   11.619900  -11.260500
  C    -127.595000   12.694400  -11.320500
  H    -130.584000   11.309200  -11.964700
  C    -128.277000   10.257100  -10.506400
  H    -129.226000   10.042100   -9.980340
  H    -127.604000   10.346000   -9.696140
  C    -127.851000    9.066660  -11.370500
  H    -127.017000    9.282960  -12.000700
  H    -128.638000    8.863500  -12.150700
  C    -127.302000    7.826890  -10.580400
  H    -126.797000    8.097930   -9.648180
  H    -126.586000    7.336680  -11.218400
  H    -128.139000    7.161610  -10.338400
  H    -123.825000   14.242000   -8.589060
  H    -130.713000   13.663000  -12.726200

 Total Charge           Charge          ....    0
 Multiplicity           Mult            ....    1
 Number of Electrons    NEL             ....  134
 Basis Dimension        Dim             ....  322

ORBITAL ENERGIES
----------------

  NO   OCC          E(Eh)            E(eV)
   0   2.0000     -88.966042     -2420.8891
   1   2.0000     -88.963706     -2420.8255
   2   2.0000     -10.330874      -281.1174
   3   2.0000     -10.323610      -280.9197
   4   2.0000     -10.314981      -280.6849
   5   2.0000     -10.308000      -280.4949
   6   2.0000     -10.304295      -280.3941
   7   2.0000     -10.297486      -280.2088
   8   2.0000     -10.296785      -280.1898
   9   2.0000     -10.295914      -280.1661
  10   2.0000     -10.293486      -280.1000
  11   2.0000     -10.292382      -280.0699
  12   2.0000     -10.292217      -280.0655
  13   2.0000     -10.288502      -279.9644
  14   2.0000     -10.287497      -279.9370
  15   2.0000     -10.281909      -279.7850
  16   2.0000      -8.079682      -219.8593
  17   2.0000      -8.078818      -219.8358
  18   2.0000      -6.038304      -164.3106
  19   2.0000      -6.037342      -164.2844
  20   2.0000      -6.034588      -164.2095
  21   2.0000      -6.033280      -164.1739
  22   2.0000      -6.030138      -164.0884
  23   2.0000      -6.029532      -164.0719
  24   2.0000      -1.004848       -27.3433
  25   2.0000      -0.978594       -26.6289
  26   2.0000      -0.907128       -24.6842
  27   2.0000      -0.902817       -24.5669
  28   2.0000      -0.869680       -23.6652
  29   2.0000      -0.850307       -23.1380
  30   2.0000      -0.843466       -22.9519
  31   2.0000      -0.811006       -22.0686
  32   2.0000      -0.782237       -21.2858
  33   2.0000      -0.771000       -20.9800
  34   2.0000      -0.711164       -19.3518
  35   2.0000      -0.700389       -19.0586
  36   2.0000      -0.692585       -18.8462
  37   2.0000      -0.663498       -18.0547
  38   2.0000      -0.635665       -17.2973
  39   2.0000      -0.613947       -16.7063
  40   2.0000      -0.597279       -16.2528
  41   2.0000      -0.567326       -15.4377
  42   2.0000      -0.564491       -15.3606
  43   2.0000      -0.556494       -15.1430
  44   2.0000      -0.527304       -14.3487
  45   2.0000      -0.518985       -14.1223
  46   2.0000      -0.517469       -14.0810
  47   2.0000      -0.508039       -13.8244
  48   2.0000      -0.502127       -13.6636
  49   2.0000      -0.497978       -13.5507
  50   2.0000      -0.491965       -13.3871
  51   2.0000      -0.477393       -12.9905
  52   2.0000      -0.475083       -12.9277
  53   2.0000      -0.466004       -12.6806
  54   2.0000      -0.458391       -12.4734
  55   2.0000      -0.450081       -12.2473
  56   2.0000      -0.445299       -12.1172
  57   2.0000      -0.443683       -12.0732
  58   2.0000      -0.434212       -11.8155
  59   2.0000      -0.426339       -11.6013
  60   2.0000      -0.417251       -11.3540
  61   2.0000      -0.413503       -11.2520
  62   2.0000      -0.405850       -11.0437
  63   2.0000      -0.349039        -9.4978
  64   2.0000      -0.334011        -9.0889
  65   2.0000      -0.328231        -8.9316
  66   2.0000      -0.289570        -7.8796
  67   0.0000       0.025146         0.6843
  68   0.0000       0.072944         1.9849
  69   0.0000       0.109065         2.9678
  70   0.0000       0.119232         3.2445
  71   0.0000       0.128384         3.4935

MULLIKEN ATOMIC CHARGES
-----------------------
   0 S :    0.104123
   1 C :   -0.102626
   2 C :   -0.057392
   3 C :   -0.007027
   4 C :   -0.116862
   5 H :    0.026716
   6 C :    0.077256
   7 H :    0.026034
   8 H :    0.018102
   9 C :   -0.122313
  10 H :    0.042107
  11 H :    0.047009
  12 C :   -0.069907
  13 H :    0.041648
  14 H :    0.033836
  15 H :    0.043606
  16 S :    0.097979
  17 C :   -0.084924
  18 C :   -0.031626
  19 C :   -0.022288
  20 C :   -0.174370
  21 H :    0.016757
  22 C :    0.090766
  23 H :    0.029234
  24 H :    0.008118
  25 C :   -0.090660
  26 H :    0.015656
  27 H :    0.031608
  28 C :   -0.048298
  29 H :    0.035326
  30 H :    0.034094
  31 H :    0.041071
  32 H :    0.014347
  33 H :    0.052900
Sum of atomic charges:   -0.0000000

LOEWDIN ATOMIC CHARGES
----------------------
   0 S :    0.374396
   1 C :   -0.182632
   2 C :   -0.062029
   3 C :   -0.065537
   4 C :   -0.171190
   5 H :    0.033317
   6 C :   -0.034930
   7 H :    0.029052
   8 H :    0.031113
   9 C :   -0.038493
  10 H :    0.032420
  11 H :    0.024107
  12 C :   -0.071080
  13 H :    0.031561
  14 H :    0.024730
  15 H :    0.024674
  16 S :    0.399749
  17 C :   -0.179186
  18 C :   -0.070631
  19 C :   -0.043947
  20 C :   -0.201545
  21 H :    0.030014
  22 C :   -0.025897
  23 H :    0.034417
  24 H :    0.020896
  25 C :   -0.047320
  26 H :    0.017022
  27 H :    0.028957
  28 C :   -0.061900
  29 H :    0.027237
  30 H :    0.025485
  31 H :    0.026872
  32 H :    0.012531
  33 H :    0.027767

  Mayer bond orders larger than 0.100000
B(  0-S ,  1-C ) :   1.1057 B(  0-S ,  4-C ) :   1.1298 B(  1-C ,  2-C ) :   1.6652
B(  1-C , 32-H ) :   0.9697 B(  2-C ,  3-C ) :   1.2119 B(  2-C ,  6-C ) :   1.0153
B(  3-C ,  4-C ) :   1.5936 B(  3-C ,  5-H ) :   0.9882 B(  4-C , 20-C ) :   1.0751
B(  6-C ,  7-H ) :   0.9342 B(  6-C ,  8-H ) :   0.9384 B(  6-C ,  9-C ) :   1.0607
B(  9-C , 10-H ) :   0.9528 B(  9-C , 11-H ) :   0.9657 B(  9-C , 12-C ) :   1.0681
B( 12-C , 13-H ) :   0.9741 B( 12-C , 14-H ) :   0.9769 B( 12-C , 15-H ) :   0.9760
B( 16-S , 17-C ) :   1.1441 B( 16-S , 20-C ) :   1.1289 B( 17-C , 18-C ) :   1.6310
B( 17-C , 33-H ) :   0.9697 B( 18-C , 19-C ) :   1.2297 B( 18-C , 21-H ) :   0.9908
B( 19-C , 20-C ) :   1.5948 B( 19-C , 22-C ) :   1.0283 B( 22-C , 23-H ) :   0.9407
B( 22-C , 24-H ) :   0.9315 B( 22-C , 25-C ) :   1.0589 B( 25-C , 26-H ) :   0.9625
B( 25-C , 27-H ) :   0.9542 B( 25-C , 28-C ) :   1.0648 B( 28-C , 29-H ) :   0.9750
B( 28-C , 30-H ) :   0.9819 B( 28-C , 31-H ) :   0.9786

Dispersion correction           -0.013819006
FINAL SINGLE POINT ENERGY     -1339.874849626259

DIPOLE MOMENT
-------------
                                X             Y             Z
Electronic contribution:    -17.11792      25.28691      -7.64355
Nuclear contribution   :     17.29907     -25.89300       7.74676
                        -----------------------------------------
Total Dipole Moment    :      0.18115      -0.60610       0.10321
                        -----------------------------------------
Magnitude (a.u.)       :      0.64095
Magnitude (Debye)      :      1.62917

Rotational constants in cm-1:     0.018742     0.008291     0.006044
Rotational constants in MHz :   561.867884   248.551884   181.187608

                             ****ORCA TERMINATED NORMALLY****
TOTAL RUN TIME: 0 days 0 hours 0 minutes 21 seconds 103 msec
