                         Program Version 4.2.1 -  RELEASE  -
|  1> ! wB97X-D3 SP def2-SVP
|  2> %pal
|  3> nprocs 24
|  4> end
|  5>
|  6> * xyz 0 1
|  7> S 	 38.8379 	 -6.85703 	 -115.852
|  8> C 	 38.2523 	 -8.07456 	 -114.793
|  9> C 	 37.8514 	 -7.54652 	 -113.619
| 10> C 	 37.5459 	 -6.18424 	 -113.743
| 11> C 	 37.971 	 -5.58586 	 -114.894
| 12> H 	 36.9821 	 -5.64089 	 -112.991
| 13> C 	 37.3253 	 -8.34536 	 -112.403
| 14> H 	 36.3493 	 -8.7683 	 -112.914
| 15> H 	 37.1284 	 -7.70324 	 -111.582
| 16> C 	 38.3082 	 -9.4809 	 -111.979
| 17> H 	 38.7308 	 -10.1004 	 -112.81
| 18> H 	 39.1737 	 -9.09927 	 -111.505
| 19> C 	 37.6178 	 -10.4896 	 -111.024
| 20> H 	 36.8193 	 -11.0706 	 -111.473
| 21> H 	 38.2609 	 -11.2704 	 -110.595
| 22> H 	 37.2119 	 -10.0137 	 -110.175
| 23> S 	 38.5193 	 -3.00027 	 -114.163
| 24> C 	 37.6928 	 -1.67197 	 -114.983
| 25> C 	 37.1181 	 -2.06122 	 -116.186
| 26> C 	 37.253 	 -3.50066 	 -116.332
| 27> C 	 37.8339 	 -4.17756 	 -115.298
| 28> H 	 36.6034 	 -1.35672 	 -116.834
| 29> C 	 36.5446 	 -4.19195 	 -117.494
| 30> H 	 37.0127 	 -5.14744 	 -117.778
| 31> H 	 36.7846 	 -3.47339 	 -118.311
| 32> C 	 35.0618 	 -4.34788 	 -117.46
| 33> H 	 34.7212 	 -4.63714 	 -118.469
| 34> H 	 34.6219 	 -3.34854 	 -117.153
| 35> C 	 34.6713 	 -5.38837 	 -116.476
| 36> H 	 33.5692 	 -5.43789 	 -116.347
| 37> H 	 35.1688 	 -5.20624 	 -115.568
| 38> H 	 34.9925 	 -6.36167 	 -116.931
| 39> H 	 38.4288 	 -9.08564 	 -114.934
| 40> H 	 37.8543 	 -0.61724 	 -114.642
| 41> *
| 42>
| 43>                          ****END OF INPUT****

CARTESIAN COORDINATES (ANGSTROEM)
---------------------------------
  S     38.837900   -6.857030  -115.852000
  C     38.252300   -8.074560  -114.793000
  C     37.851400   -7.546520  -113.619000
  C     37.545900   -6.184240  -113.743000
  C     37.971000   -5.585860  -114.894000
  H     36.982100   -5.640890  -112.991000
  C     37.325300   -8.345360  -112.403000
  H     36.349300   -8.768300  -112.914000
  H     37.128400   -7.703240  -111.582000
  C     38.308200   -9.480900  -111.979000
  H     38.730800  -10.100400  -112.810000
  H     39.173700   -9.099270  -111.505000
  C     37.617800  -10.489600  -111.024000
  H     36.819300  -11.070600  -111.473000
  H     38.260900  -11.270400  -110.595000
  H     37.211900  -10.013700  -110.175000
  S     38.519300   -3.000270  -114.163000
  C     37.692800   -1.671970  -114.983000
  C     37.118100   -2.061220  -116.186000
  C     37.253000   -3.500660  -116.332000
  C     37.833900   -4.177560  -115.298000
  H     36.603400   -1.356720  -116.834000
  C     36.544600   -4.191950  -117.494000
  H     37.012700   -5.147440  -117.778000
  H     36.784600   -3.473390  -118.311000
  C     35.061800   -4.347880  -117.460000
  H     34.721200   -4.637140  -118.469000
  H     34.621900   -3.348540  -117.153000
  C     34.671300   -5.388370  -116.476000
  H     33.569200   -5.437890  -116.347000
  H     35.168800   -5.206240  -115.568000
  H     34.992500   -6.361670  -116.931000
  H     38.428800   -9.085640  -114.934000
  H     37.854300   -0.617240  -114.642000

 Total Charge           Charge          ....    0
 Multiplicity           Mult            ....    1
 Number of Electrons    NEL             ....  134
 Basis Dimension        Dim             ....  322

ORBITAL ENERGIES
----------------

  NO   OCC          E(Eh)            E(eV)
   0   2.0000     -88.962860     -2420.8025
   1   2.0000     -88.962386     -2420.7896
   2   2.0000     -10.332976      -281.1746
   3   2.0000     -10.328266      -281.0464
   4   2.0000     -10.326446      -280.9969
   5   2.0000     -10.306752      -280.4610
   6   2.0000     -10.304669      -280.4043
   7   2.0000     -10.303733      -280.3788
   8   2.0000     -10.302303      -280.3399
   9   2.0000     -10.294355      -280.1237
  10   2.0000     -10.292269      -280.0669
  11   2.0000     -10.291195      -280.0377
  12   2.0000     -10.284767      -279.8627
  13   2.0000     -10.280958      -279.7591
  14   2.0000     -10.274284      -279.5775
  15   2.0000     -10.266148      -279.3561
  16   2.0000      -8.077322      -219.7951
  17   2.0000      -8.076878      -219.7830
  18   2.0000      -6.035923      -164.2458
  19   2.0000      -6.035459      -164.2332
  20   2.0000      -6.031991      -164.1388
  21   2.0000      -6.031416      -164.1232
  22   2.0000      -6.027876      -164.0268
  23   2.0000      -6.027575      -164.0186
  24   2.0000      -1.007084       -27.4041
  25   2.0000      -0.986928       -26.8557
  26   2.0000      -0.914401       -24.8821
  27   2.0000      -0.904842       -24.6220
  28   2.0000      -0.870522       -23.6881
  29   2.0000      -0.851134       -23.1605
  30   2.0000      -0.844874       -22.9902
  31   2.0000      -0.816452       -22.2168
  32   2.0000      -0.779035       -21.1986
  33   2.0000      -0.769103       -20.9283
  34   2.0000      -0.711888       -19.3715
  35   2.0000      -0.700068       -19.0498
  36   2.0000      -0.682331       -18.5672
  37   2.0000      -0.663379       -18.0515
  38   2.0000      -0.643342       -17.5062
  39   2.0000      -0.614259       -16.7148
  40   2.0000      -0.595116       -16.1939
  41   2.0000      -0.576736       -15.6938
  42   2.0000      -0.559244       -15.2178
  43   2.0000      -0.555766       -15.1232
  44   2.0000      -0.541389       -14.7319
  45   2.0000      -0.518881       -14.1195
  46   2.0000      -0.515034       -14.0148
  47   2.0000      -0.513762       -13.9802
  48   2.0000      -0.509591       -13.8667
  49   2.0000      -0.498768       -13.5722
  50   2.0000      -0.491323       -13.3696
  51   2.0000      -0.481139       -13.0925
  52   2.0000      -0.469934       -12.7876
  53   2.0000      -0.460091       -12.5197
  54   2.0000      -0.459005       -12.4902
  55   2.0000      -0.444883       -12.1059
  56   2.0000      -0.439892       -11.9701
  57   2.0000      -0.435857       -11.8603
  58   2.0000      -0.430997       -11.7280
  59   2.0000      -0.427419       -11.6307
  60   2.0000      -0.417350       -11.3567
  61   2.0000      -0.412678       -11.2295
  62   2.0000      -0.404238       -10.9999
  63   2.0000      -0.342766        -9.3272
  64   2.0000      -0.332281        -9.0418
  65   2.0000      -0.324722        -8.8361
  66   2.0000      -0.299793        -8.1578
  67   0.0000       0.027749         0.7551
  68   0.0000       0.067844         1.8461
  69   0.0000       0.099819         2.7162
  70   0.0000       0.119118         3.2414
  71   0.0000       0.124111         3.3772

MULLIKEN ATOMIC CHARGES
-----------------------
   0 S :    0.104292
   1 C :   -0.098279
   2 C :   -0.067613
   3 C :    0.022068
   4 C :   -0.131818
   5 H :    0.012950
   6 C :    0.027640
   7 H :    0.071250
   8 H :    0.026719
   9 C :   -0.068407
  10 H :    0.032529
  11 H :    0.027107
  12 C :   -0.045471
  13 H :    0.026417
  14 H :    0.027579
  15 H :    0.015715
  16 S :    0.093960
  17 C :   -0.112632
  18 C :   -0.030133
  19 C :   -0.040669
  20 C :   -0.161115
  21 H :    0.032743
  22 C :    0.032965
  23 H :    0.018588
  24 H :    0.022506
  25 C :   -0.049785
  26 H :    0.030763
  27 H :    0.022114
  28 C :   -0.030928
  29 H :    0.034594
  30 H :    0.028208
  31 H :    0.025292
  32 H :    0.022773
  33 H :    0.078078
Sum of atomic charges:   -0.0000000

LOEWDIN ATOMIC CHARGES
----------------------
   0 S :    0.388997
   1 C :   -0.186079
   2 C :   -0.071649
   3 C :   -0.059614
   4 C :   -0.178196
   5 H :    0.031960
   6 C :   -0.025566
   7 H :    0.054674
   8 H :    0.024106
   9 C :   -0.038838
  10 H :    0.027607
  11 H :    0.021714
  12 C :   -0.069310
  13 H :    0.023260
  14 H :    0.027411
  15 H :    0.016265
  16 S :    0.386603
  17 C :   -0.175905
  18 C :   -0.072577
  19 C :   -0.052424
  20 C :   -0.195415
  21 H :    0.037083
  22 C :   -0.039458
  23 H :    0.023994
  24 H :    0.034162
  25 C :   -0.044723
  26 H :    0.026179
  27 H :    0.023988
  28 C :   -0.061558
  29 H :    0.026857
  30 H :    0.018056
  31 H :    0.029517
  32 H :    0.011998
  33 H :    0.036881

  Mayer bond orders larger than 0.100000
B(  0-S ,  1-C ) :   1.1480 B(  0-S ,  4-C ) :   1.1165 B(  1-C ,  2-C ) :   1.6091
B(  1-C , 32-H ) :   0.9744 B(  2-C ,  3-C ) :   1.2342 B(  2-C ,  6-C ) :   1.0094
B(  3-C ,  4-C ) :   1.5960 B(  3-C ,  5-H ) :   0.9943 B(  4-C , 20-C ) :   1.0416
B(  6-C ,  7-H ) :   0.9510 B(  6-C ,  8-H ) :   0.9462 B(  6-C ,  9-C ) :   1.0464
B(  9-C , 10-H ) :   0.9614 B(  9-C , 11-H ) :   0.9571 B(  9-C , 12-C ) :   1.0778
B( 12-C , 13-H ) :   0.9784 B( 12-C , 14-H ) :   0.9742 B( 12-C , 15-H ) :   0.9739
B( 16-S , 17-C ) :   1.1608 B( 16-S , 20-C ) :   1.1181 B( 17-C , 18-C ) :   1.6123
B( 17-C , 33-H ) :   0.9593 B( 18-C , 19-C ) :   1.2100 B( 18-C , 21-H ) :   0.9928
B( 19-C , 20-C ) :   1.6233 B( 19-C , 22-C ) :   1.0453 B( 22-C , 23-H ) :   0.9338
B( 22-C , 24-H ) :   0.9241 B( 22-C , 25-C ) :   1.0861 B( 25-C , 26-H ) :   0.9496
B( 25-C , 27-H ) :   0.9470 B( 25-C , 28-C ) :   1.0842 B( 28-C , 29-H ) :   0.9710
B( 28-C , 30-H ) :   0.9754 B( 28-C , 31-H ) :   0.9713

Dispersion correction           -0.014977918
FINAL SINGLE POINT ENERGY     -1339.866563720703

DIPOLE MOMENT
-------------
                                X             Y             Z
Electronic contribution:     14.27493      15.93963      -5.01874
Nuclear contribution   :    -14.65283     -16.06175       5.17955
                        -----------------------------------------
Total Dipole Moment    :     -0.37789      -0.12212       0.16081
                        -----------------------------------------
Magnitude (a.u.)       :      0.42846
Magnitude (Debye)      :      1.08906

Rotational constants in cm-1:     0.023409     0.007448     0.006660
Rotational constants in MHz :   701.793232   223.292865   199.665617

                             ****ORCA TERMINATED NORMALLY****
TOTAL RUN TIME: 0 days 0 hours 0 minutes 21 seconds 950 msec
