                         Program Version 4.2.1 -  RELEASE  -
|  1> ! wB97X-D3 SP def2-SVP
|  2> %pal
|  3> nprocs 24
|  4> end
|  5>
|  6> * xyz 0 1
|  7> S 	 -65.7242 	 -55.9945 	 -82.6885
|  8> C 	 -64.0411 	 -56.5026 	 -82.9075
|  9> C 	 -63.4273 	 -56.7227 	 -81.6757
| 10> C 	 -64.2873 	 -56.4211 	 -80.5817
| 11> C 	 -65.5461 	 -55.9437 	 -80.9309
| 12> H 	 -63.9848 	 -56.4381 	 -79.5941
| 13> C 	 -61.9031 	 -56.9892 	 -81.4718
| 14> H 	 -61.5199 	 -57.7346 	 -82.2435
| 15> H 	 -61.8258 	 -57.5057 	 -80.5295
| 16> C 	 -61.0789 	 -55.6754 	 -81.4118
| 17> H 	 -60.0116 	 -55.8469 	 -81.3283
| 18> H 	 -61.1047 	 -55.1529 	 -82.4526
| 19> C 	 -61.4681 	 -54.7233 	 -80.2728
| 20> H 	 -60.7365 	 -53.9332 	 -80.1314
| 21> H 	 -62.4082 	 -54.3845 	 -80.549
| 22> H 	 -61.5434 	 -55.2646 	 -79.3473
| 23> S 	 -66.9246 	 -53.6366 	 -80.0552
| 24> C 	 -67.8975 	 -53.7109 	 -78.6297
| 25> C 	 -67.8076 	 -54.9169 	 -78.0089
| 26> C 	 -67.1454 	 -55.845 	 -78.8664
| 27> C 	 -66.5915 	 -55.3568 	 -80.0465
| 28> H 	 -68.3212 	 -55.1947 	 -77.0464
| 29> C 	 -66.8443 	 -57.1704 	 -78.2093
| 30> H 	 -66.4396 	 -57.7928 	 -79.0634
| 31> H 	 -67.822 	 -57.6239 	 -78.0085
| 32> C 	 -65.7371 	 -57.1403 	 -77.0122
| 33> H 	 -64.9121 	 -56.5869 	 -77.38
| 34> H 	 -65.2791 	 -58.1176 	 -76.8439
| 35> C 	 -66.1703 	 -56.5004 	 -75.7473
| 36> H 	 -67.0538 	 -56.8613 	 -75.3139
| 37> H 	 -66.3099 	 -55.4598 	 -75.7489
| 38> H 	 -65.3814 	 -56.5809 	 -75.058
| 39> H 	 -63.5071 	 -56.6107 	 -83.8233
| 40> H 	 -68.5952 	 -53.0231 	 -78.2568
| 41> *
| 42>
| 43>                          ****END OF INPUT****

CARTESIAN COORDINATES (ANGSTROEM)
---------------------------------
  S    -65.724200  -55.994500  -82.688500
  C    -64.041100  -56.502600  -82.907500
  C    -63.427300  -56.722700  -81.675700
  C    -64.287300  -56.421100  -80.581700
  C    -65.546100  -55.943700  -80.930900
  H    -63.984800  -56.438100  -79.594100
  C    -61.903100  -56.989200  -81.471800
  H    -61.519900  -57.734600  -82.243500
  H    -61.825800  -57.505700  -80.529500
  C    -61.078900  -55.675400  -81.411800
  H    -60.011600  -55.846900  -81.328300
  H    -61.104700  -55.152900  -82.452600
  C    -61.468100  -54.723300  -80.272800
  H    -60.736500  -53.933200  -80.131400
  H    -62.408200  -54.384500  -80.549000
  H    -61.543400  -55.264600  -79.347300
  S    -66.924600  -53.636600  -80.055200
  C    -67.897500  -53.710900  -78.629700
  C    -67.807600  -54.916900  -78.008900
  C    -67.145400  -55.845000  -78.866400
  C    -66.591500  -55.356800  -80.046500
  H    -68.321200  -55.194700  -77.046400
  C    -66.844300  -57.170400  -78.209300
  H    -66.439600  -57.792800  -79.063400
  H    -67.822000  -57.623900  -78.008500
  C    -65.737100  -57.140300  -77.012200
  H    -64.912100  -56.586900  -77.380000
  H    -65.279100  -58.117600  -76.843900
  C    -66.170300  -56.500400  -75.747300
  H    -67.053800  -56.861300  -75.313900
  H    -66.309900  -55.459800  -75.748900
  H    -65.381400  -56.580900  -75.058000
  H    -63.507100  -56.610700  -83.823300
  H    -68.595200  -53.023100  -78.256800

 Total Charge           Charge          ....    0
 Multiplicity           Mult            ....    1
 Number of Electrons    NEL             ....  134
 Basis Dimension        Dim             ....  322

ORBITAL ENERGIES
----------------

  NO   OCC          E(Eh)            E(eV)
   0   2.0000     -88.969026     -2420.9703
   1   2.0000     -88.964928     -2420.8588
   2   2.0000     -10.336735      -281.2769
   3   2.0000     -10.329334      -281.0755
   4   2.0000     -10.317685      -280.7585
   5   2.0000     -10.312112      -280.6068
   6   2.0000     -10.304637      -280.4034
   7   2.0000     -10.303222      -280.3649
   8   2.0000     -10.298796      -280.2445
   9   2.0000     -10.293756      -280.1074
  10   2.0000     -10.293630      -280.1039
  11   2.0000     -10.293211      -280.0925
  12   2.0000     -10.292097      -280.0622
  13   2.0000     -10.290914      -280.0300
  14   2.0000     -10.269857      -279.4570
  15   2.0000     -10.262984      -279.2700
  16   2.0000      -8.082860      -219.9458
  17   2.0000      -8.079946      -219.8665
  18   2.0000      -6.041373      -164.3941
  19   2.0000      -6.038536      -164.3169
  20   2.0000      -6.037418      -164.2865
  21   2.0000      -6.034377      -164.2037
  22   2.0000      -6.033734      -164.1862
  23   2.0000      -6.030614      -164.1013
  24   2.0000      -1.005905       -27.3721
  25   2.0000      -0.984861       -26.7994
  26   2.0000      -0.906786       -24.6749
  27   2.0000      -0.904172       -24.6038
  28   2.0000      -0.868550       -23.6344
  29   2.0000      -0.854937       -23.2640
  30   2.0000      -0.844705       -22.9856
  31   2.0000      -0.819087       -22.2885
  32   2.0000      -0.784060       -21.3353
  33   2.0000      -0.771124       -20.9834
  34   2.0000      -0.713884       -19.4258
  35   2.0000      -0.700135       -19.0517
  36   2.0000      -0.695910       -18.9367
  37   2.0000      -0.660006       -17.9597
  38   2.0000      -0.644382       -17.5345
  39   2.0000      -0.617130       -16.7930
  40   2.0000      -0.585605       -15.9351
  41   2.0000      -0.573210       -15.5978
  42   2.0000      -0.553703       -15.0670
  43   2.0000      -0.549329       -14.9480
  44   2.0000      -0.543256       -14.7827
  45   2.0000      -0.542296       -14.7566
  46   2.0000      -0.521724       -14.1968
  47   2.0000      -0.511753       -13.9255
  48   2.0000      -0.509040       -13.8517
  49   2.0000      -0.498134       -13.5549
  50   2.0000      -0.490528       -13.3479
  51   2.0000      -0.480432       -13.0732
  52   2.0000      -0.477150       -12.9839
  53   2.0000      -0.465748       -12.6737
  54   2.0000      -0.462696       -12.5906
  55   2.0000      -0.445419       -12.1205
  56   2.0000      -0.440015       -11.9734
  57   2.0000      -0.434980       -11.8364
  58   2.0000      -0.432189       -11.7605
  59   2.0000      -0.428379       -11.6568
  60   2.0000      -0.416193       -11.3252
  61   2.0000      -0.410300       -11.1648
  62   2.0000      -0.408030       -11.1031
  63   2.0000      -0.342626        -9.3233
  64   2.0000      -0.332704        -9.0533
  65   2.0000      -0.324724        -8.8362
  66   2.0000      -0.303249        -8.2518
  67   0.0000       0.028080         0.7641
  68   0.0000       0.066453         1.8083
  69   0.0000       0.116766         3.1774
  70   0.0000       0.117718         3.2033
  71   0.0000       0.128791         3.5046

MULLIKEN ATOMIC CHARGES
-----------------------
   0 S :    0.115252
   1 C :   -0.103176
   2 C :   -0.109096
   3 C :    0.082879
   4 C :   -0.176827
   5 H :   -0.035799
   6 C :    0.052603
   7 H :    0.044423
   8 H :    0.020642
   9 C :   -0.098915
  10 H :    0.025005
  11 H :    0.034144
  12 C :   -0.016632
  13 H :    0.037973
  14 H :    0.039253
  15 H :    0.019223
  16 S :    0.109399
  17 C :   -0.057368
  18 C :   -0.052359
  19 C :   -0.088325
  20 C :   -0.106112
  21 H :    0.045148
  22 C :    0.011133
  23 H :    0.030882
  24 H :    0.034706
  25 C :   -0.033066
  26 H :    0.014334
  27 H :    0.032595
  28 C :    0.008051
  29 H :    0.013837
  30 H :    0.017232
  31 H :    0.011933
  32 H :    0.039391
  33 H :    0.037638
Sum of atomic charges:    0.0000000

LOEWDIN ATOMIC CHARGES
----------------------
   0 S :    0.399228
   1 C :   -0.183143
   2 C :   -0.065518
   3 C :   -0.048462
   4 C :   -0.189369
   5 H :    0.015256
   6 C :   -0.032000
   7 H :    0.039210
   8 H :    0.024852
   9 C :   -0.045473
  10 H :    0.018304
  11 H :    0.030244
  12 C :   -0.054934
  13 H :    0.029594
  14 H :    0.019421
  15 H :    0.020937
  16 S :    0.416656
  17 C :   -0.179681
  18 C :   -0.079079
  19 C :   -0.061387
  20 C :   -0.213391
  21 H :    0.043813
  22 C :   -0.042189
  23 H :    0.032911
  24 H :    0.029275
  25 C :   -0.026558
  26 H :    0.020653
  27 H :    0.028877
  28 C :   -0.061932
  29 H :    0.017203
  30 H :    0.021533
  31 H :    0.025938
  32 H :    0.025378
  33 H :    0.023835

  Mayer bond orders larger than 0.100000
B(  0-S ,  1-C ) :   1.1464 B(  0-S ,  4-C ) :   1.1540 B(  1-C ,  2-C ) :   1.6016
B(  1-C ,  4-C ) :   0.1006 B(  1-C , 32-H ) :   0.9719 B(  2-C ,  3-C ) :   1.2564
B(  2-C ,  6-C ) :   1.0179 B(  3-C ,  4-C ) :   1.5593 B(  3-C ,  5-H ) :   1.0060
B(  4-C , 20-C ) :   1.0138 B(  6-C ,  7-H ) :   0.9456 B(  6-C ,  8-H ) :   0.9424
B(  6-C ,  9-C ) :   1.0632 B(  9-C , 10-H ) :   0.9587 B(  9-C , 11-H ) :   0.9566
B(  9-C , 12-C ) :   1.0717 B( 12-C , 13-H ) :   0.9713 B( 12-C , 14-H ) :   0.9733
B( 12-C , 15-H ) :   0.9733 B( 16-S , 17-C ) :   1.1732 B( 16-S , 20-C ) :   1.1253
B( 17-C , 18-C ) :   1.5853 B( 17-C , 33-H ) :   0.9667 B( 18-C , 19-C ) :   1.2718
B( 18-C , 21-H ) :   0.9744 B( 19-C , 20-C ) :   1.5865 B( 19-C , 22-C ) :   1.0515
B( 22-C , 23-H ) :   0.9367 B( 22-C , 24-H ) :   0.9436 B( 22-C , 25-C ) :   1.0406
B( 25-C , 26-H ) :   0.9476 B( 25-C , 27-H ) :   0.9600 B( 25-C , 28-C ) :   1.0989
B( 28-C , 29-H ) :   0.9731 B( 28-C , 30-H ) :   0.9602 B( 28-C , 31-H ) :   0.9601

Dispersion correction           -0.015617499
FINAL SINGLE POINT ENERGY     -1339.856306559663

DIPOLE MOMENT
-------------
                                X             Y             Z
Electronic contribution:    -16.79330       7.17046     -17.03075
Nuclear contribution   :     17.26760      -7.31889      17.62068
                        -----------------------------------------
Total Dipole Moment    :      0.47430      -0.14843       0.58993
                        -----------------------------------------
Magnitude (a.u.)       :      0.77137
Magnitude (Debye)      :      1.96067

Rotational constants in cm-1:     0.018592     0.009187     0.007717
Rotational constants in MHz :   557.388602   275.423740   231.339769

                             ****ORCA TERMINATED NORMALLY****
TOTAL RUN TIME: 0 days 0 hours 0 minutes 22 seconds 413 msec
