                         Program Version 4.2.1 -  RELEASE  -
|  1> ! wB97X-D3 SP def2-SVP
|  2> %pal
|  3> nprocs 24
|  4> end
|  5>
|  6> * xyz 0 1
|  7> S 	 -113.972 	 63.0963 	 -27.8201
|  8> C 	 -113.932 	 62.1711 	 -26.295
|  9> C 	 -115.074 	 61.4646 	 -26.038
| 10> C 	 -115.919 	 61.5164 	 -27.1769
| 11> C 	 -115.477 	 62.272 	 -28.2066
| 12> H 	 -116.875 	 61.0251 	 -27.2065
| 13> C 	 -115.29 	 60.6254 	 -24.8329
| 14> H 	 -116.333 	 60.6494 	 -24.5216
| 15> H 	 -114.798 	 61.1856 	 -23.9778
| 16> C 	 -114.809 	 59.2136 	 -24.8576
| 17> H 	 -115.5 	 58.7441 	 -25.5364
| 18> H 	 -113.836 	 59.0774 	 -25.34
| 19> C 	 -115.037 	 58.552 	 -23.4802
| 20> H 	 -116.019 	 58.3544 	 -23.1913
| 21> H 	 -114.555 	 57.5939 	 -23.6128
| 22> H 	 -114.563 	 59.0786 	 -22.7079
| 23> S 	 -116.282 	 64.1892 	 -29.9873
| 24> C 	 -117.104 	 63.7014 	 -31.4825
| 25> C 	 -117.566 	 62.4089 	 -31.3516
| 26> C 	 -116.941 	 61.6885 	 -30.2783
| 27> C 	 -116.275 	 62.5402 	 -29.397
| 28> H 	 -118.19 	 62.0202 	 -32.1071
| 29> C 	 -117.138 	 60.2296 	 -30.1347
| 30> H 	 -117.96 	 59.8284 	 -30.7755
| 31> H 	 -117.687 	 60.1227 	 -29.1695
| 32> C 	 -115.826 	 59.4382 	 -30.2156
| 33> H 	 -115.346 	 59.537 	 -29.2746
| 34> H 	 -115.207 	 59.8986 	 -30.9018
| 35> C 	 -116.124 	 57.9731 	 -30.6395
| 36> H 	 -116.951 	 57.8843 	 -31.3877
| 37> H 	 -116.333 	 57.3731 	 -29.7912
| 38> H 	 -115.127 	 57.565 	 -30.9583
| 39> H 	 -113.214 	 62.3511 	 -25.5158
| 40> H 	 -117.498 	 64.5012 	 -32.1159
| 41> *
| 42>
| 43>                          ****END OF INPUT****

CARTESIAN COORDINATES (ANGSTROEM)
---------------------------------
  S    -113.972000   63.096300  -27.820100
  C    -113.932000   62.171100  -26.295000
  C    -115.074000   61.464600  -26.038000
  C    -115.919000   61.516400  -27.176900
  C    -115.477000   62.272000  -28.206600
  H    -116.875000   61.025100  -27.206500
  C    -115.290000   60.625400  -24.832900
  H    -116.333000   60.649400  -24.521600
  H    -114.798000   61.185600  -23.977800
  C    -114.809000   59.213600  -24.857600
  H    -115.500000   58.744100  -25.536400
  H    -113.836000   59.077400  -25.340000
  C    -115.037000   58.552000  -23.480200
  H    -116.019000   58.354400  -23.191300
  H    -114.555000   57.593900  -23.612800
  H    -114.563000   59.078600  -22.707900
  S    -116.282000   64.189200  -29.987300
  C    -117.104000   63.701400  -31.482500
  C    -117.566000   62.408900  -31.351600
  C    -116.941000   61.688500  -30.278300
  C    -116.275000   62.540200  -29.397000
  H    -118.190000   62.020200  -32.107100
  C    -117.138000   60.229600  -30.134700
  H    -117.960000   59.828400  -30.775500
  H    -117.687000   60.122700  -29.169500
  C    -115.826000   59.438200  -30.215600
  H    -115.346000   59.537000  -29.274600
  H    -115.207000   59.898600  -30.901800
  C    -116.124000   57.973100  -30.639500
  H    -116.951000   57.884300  -31.387700
  H    -116.333000   57.373100  -29.791200
  H    -115.127000   57.565000  -30.958300
  H    -113.214000   62.351100  -25.515800
  H    -117.498000   64.501200  -32.115900

 Total Charge           Charge          ....    0
 Multiplicity           Mult            ....    1
 Number of Electrons    NEL             ....  134
 Basis Dimension        Dim             ....  322

ORBITAL ENERGIES
----------------

  NO   OCC          E(Eh)            E(eV)
   0   2.0000     -88.968511     -2420.9563
   1   2.0000     -88.960398     -2420.7355
   2   2.0000     -10.325898      -280.9820
   3   2.0000     -10.324877      -280.9542
   4   2.0000     -10.316635      -280.7299
   5   2.0000     -10.311639      -280.5940
   6   2.0000     -10.300794      -280.2989
   7   2.0000     -10.296102      -280.1712
   8   2.0000     -10.292186      -280.0646
   9   2.0000     -10.291131      -280.0359
  10   2.0000     -10.289897      -280.0023
  11   2.0000     -10.287255      -279.9304
  12   2.0000     -10.285856      -279.8924
  13   2.0000     -10.280621      -279.7499
  14   2.0000     -10.274986      -279.5966
  15   2.0000     -10.271889      -279.5123
  16   2.0000      -8.082484      -219.9356
  17   2.0000      -8.075140      -219.7357
  18   2.0000      -6.041044      -164.3852
  19   2.0000      -6.037321      -164.2838
  20   2.0000      -6.033663      -164.1843
  21   2.0000      -6.033006      -164.1664
  22   2.0000      -6.029672      -164.0757
  23   2.0000      -6.025873      -163.9723
  24   2.0000      -1.006869       -27.3983
  25   2.0000      -0.983047       -26.7501
  26   2.0000      -0.920774       -25.0555
  27   2.0000      -0.909606       -24.7516
  28   2.0000      -0.871663       -23.7191
  29   2.0000      -0.852173       -23.1888
  30   2.0000      -0.846128       -23.0243
  31   2.0000      -0.816338       -22.2137
  32   2.0000      -0.783970       -21.3329
  33   2.0000      -0.769070       -20.9275
  34   2.0000      -0.712787       -19.3959
  35   2.0000      -0.708466       -19.2783
  36   2.0000      -0.694101       -18.8875
  37   2.0000      -0.664796       -18.0900
  38   2.0000      -0.638918       -17.3859
  39   2.0000      -0.623384       -16.9631
  40   2.0000      -0.595374       -16.2009
  41   2.0000      -0.576298       -15.6819
  42   2.0000      -0.565612       -15.3911
  43   2.0000      -0.557436       -15.1686
  44   2.0000      -0.531427       -14.4609
  45   2.0000      -0.525861       -14.3094
  46   2.0000      -0.521415       -14.1884
  47   2.0000      -0.515487       -14.0271
  48   2.0000      -0.503170       -13.6919
  49   2.0000      -0.494166       -13.4470
  50   2.0000      -0.489924       -13.3315
  51   2.0000      -0.483854       -13.1663
  52   2.0000      -0.471007       -12.8167
  53   2.0000      -0.464005       -12.6262
  54   2.0000      -0.459477       -12.5030
  55   2.0000      -0.452533       -12.3140
  56   2.0000      -0.448601       -12.2071
  57   2.0000      -0.442243       -12.0340
  58   2.0000      -0.432940       -11.7809
  59   2.0000      -0.425987       -11.5917
  60   2.0000      -0.418122       -11.3777
  61   2.0000      -0.412969       -11.2375
  62   2.0000      -0.409240       -11.1360
  63   2.0000      -0.349864        -9.5203
  64   2.0000      -0.333933        -9.0868
  65   2.0000      -0.327057        -8.8997
  66   2.0000      -0.288055        -7.8384
  67   0.0000       0.025524         0.6945
  68   0.0000       0.072094         1.9618
  69   0.0000       0.098767         2.6876
  70   0.0000       0.122100         3.3225
  71   0.0000       0.133210         3.6248

MULLIKEN ATOMIC CHARGES
-----------------------
   0 S :    0.111777
   1 C :   -0.118173
   2 C :   -0.058684
   3 C :    0.004849
   4 C :   -0.107527
   5 H :   -0.000625
   6 C :    0.029254
   7 H :    0.019156
   8 H :    0.018223
   9 C :   -0.052504
  10 H :    0.013741
  11 H :    0.036345
  12 C :    0.004720
  13 H :    0.022035
  14 H :    0.028432
  15 H :    0.019492
  16 S :    0.078830
  17 C :   -0.110137
  18 C :   -0.005160
  19 C :   -0.059673
  20 C :   -0.141211
  21 H :    0.010350
  22 C :    0.015011
  23 H :    0.013860
  24 H :    0.029027
  25 C :   -0.018446
  26 H :    0.033236
  27 H :    0.021647
  28 C :   -0.049910
  29 H :    0.045528
  30 H :    0.021835
  31 H :    0.034980
  32 H :    0.038638
  33 H :    0.071086
Sum of atomic charges:   -0.0000000

LOEWDIN ATOMIC CHARGES
----------------------
   0 S :    0.386348
   1 C :   -0.178764
   2 C :   -0.063515
   3 C :   -0.060090
   4 C :   -0.190749
   5 H :    0.027829
   6 C :   -0.041214
   7 H :    0.030533
   8 H :    0.031194
   9 C :   -0.036969
  10 H :    0.023543
  11 H :    0.028225
  12 C :   -0.049984
  13 H :    0.019538
  14 H :    0.031467
  15 H :    0.017389
  16 S :    0.385806
  17 C :   -0.180390
  18 C :   -0.060618
  19 C :   -0.058391
  20 C :   -0.191465
  21 H :    0.025285
  22 C :   -0.042589
  23 H :    0.030152
  24 H :    0.033063
  25 C :   -0.026461
  26 H :    0.025385
  27 H :    0.016671
  28 C :   -0.065184
  29 H :    0.029475
  30 H :    0.018914
  31 H :    0.032970
  32 H :    0.022630
  33 H :    0.029964

  Mayer bond orders larger than 0.100000
B(  0-S ,  1-C ) :   1.1224 B(  0-S ,  4-C ) :   1.1257 B(  1-C ,  2-C ) :   1.6363
B(  1-C , 32-H ) :   0.9622 B(  2-C ,  3-C ) :   1.2299 B(  2-C ,  6-C ) :   1.0343
B(  3-C ,  4-C ) :   1.5780 B(  3-C ,  5-H ) :   0.9990 B(  4-C , 20-C ) :   1.0549
B(  6-C ,  7-H ) :   0.9343 B(  6-C ,  8-H ) :   0.9337 B(  6-C ,  9-C ) :   1.0687
B(  9-C , 10-H ) :   0.9460 B(  9-C , 11-H ) :   0.9583 B(  9-C , 12-C ) :   1.0736
B( 12-C , 13-H ) :   0.9742 B( 12-C , 14-H ) :   0.9716 B( 12-C , 15-H ) :   0.9779
B( 16-S , 17-C ) :   1.1477 B( 16-S , 20-C ) :   1.1389 B( 17-C , 18-C ) :   1.6091
B( 17-C , 33-H ) :   0.9621 B( 18-C , 19-C ) :   1.2387 B( 18-C , 21-H ) :   0.9917
B( 19-C , 20-C ) :   1.5864 B( 19-C , 22-C ) :   1.0491 B( 22-C , 23-H ) :   0.9405
B( 22-C , 24-H ) :   0.9288 B( 22-C , 25-C ) :   1.0348 B( 25-C , 26-H ) :   0.9460
B( 25-C , 27-H ) :   0.9666 B( 25-C , 28-C ) :   1.0808 B( 28-C , 29-H ) :   0.9776
B( 28-C , 30-H ) :   0.9749 B( 28-C , 31-H ) :   0.9753

Dispersion correction           -0.014295119
FINAL SINGLE POINT ENERGY     -1339.865791356833

DIPOLE MOMENT
-------------
                                X             Y             Z
Electronic contribution:      2.91256      29.17999     -10.71418
Nuclear contribution   :     -3.26573     -29.83741      11.01560
                        -----------------------------------------
Total Dipole Moment    :     -0.35317      -0.65742       0.30141
                        -----------------------------------------
Magnitude (a.u.)       :      0.80484
Magnitude (Debye)      :      2.04575

Rotational constants in cm-1:     0.018975     0.008801     0.006647
Rotational constants in MHz :   568.850508   263.850352   199.269434

                             ****ORCA TERMINATED NORMALLY****
TOTAL RUN TIME: 0 days 0 hours 0 minutes 20 seconds 931 msec
