                         Program Version 4.2.1 -  RELEASE  -
|  1> ! wB97X-D3 SP def2-SVP
|  2> %pal
|  3> nprocs 24
|  4> end
|  5>
|  6> * xyz 0 1
|  7> S 	 -115.375 	 16.6788 	 -116.389
|  8> C 	 -115.051 	 17.9969 	 -117.509
|  9> C 	 -115.243 	 19.18 	 -116.859
| 10> C 	 -115.791 	 19.0255 	 -115.552
| 11> C 	 -115.943 	 17.7209 	 -115.111
| 12> H 	 -116.03 	 19.8501 	 -114.946
| 13> C 	 -114.905 	 20.5756 	 -117.443
| 14> H 	 -115.823 	 21.1441 	 -117.281
| 15> H 	 -114.805 	 20.3876 	 -118.544
| 16> C 	 -113.698 	 21.3377 	 -116.84
| 17> H 	 -113.773 	 22.3668 	 -117.262
| 18> H 	 -113.785 	 21.3037 	 -115.798
| 19> C 	 -112.483 	 20.614 	 -117.192
| 20> H 	 -112.276 	 20.4516 	 -118.243
| 21> H 	 -111.691 	 21.2011 	 -116.865
| 22> H 	 -112.376 	 19.6059 	 -116.699
| 23> S 	 -117.589 	 16.0252 	 -113.764
| 24> C 	 -117.687 	 15.9904 	 -111.971
| 25> C 	 -116.815 	 16.9531 	 -111.499
| 26> C 	 -116.204 	 17.7708 	 -112.528
| 27> C 	 -116.383 	 17.2559 	 -113.793
| 28> H 	 -116.873 	 16.9948 	 -110.377
| 29> C 	 -115.325 	 18.9035 	 -112.173
| 30> H 	 -115.064 	 19.5115 	 -112.971
| 31> H 	 -114.325 	 18.3819 	 -111.815
| 32> C 	 -115.72 	 19.8611 	 -111.05
| 33> H 	 -115.58 	 19.3062 	 -110.1
| 34> H 	 -116.737 	 20.1684 	 -111.031
| 35> C 	 -114.791 	 21.0448 	 -111.088
| 36> H 	 -115.038 	 21.5808 	 -112.014
| 37> H 	 -113.744 	 20.5815 	 -111.074
| 38> H 	 -114.844 	 21.7654 	 -110.293
| 39> H 	 -114.728 	 17.8702 	 -118.554
| 40> H 	 -118.265 	 15.2962 	 -111.347
| 41> *
| 42>
| 43>                          ****END OF INPUT****

CARTESIAN COORDINATES (ANGSTROEM)
---------------------------------
  S    -115.375000   16.678800  -116.389000
  C    -115.051000   17.996900  -117.509000
  C    -115.243000   19.180000  -116.859000
  C    -115.791000   19.025500  -115.552000
  C    -115.943000   17.720900  -115.111000
  H    -116.030000   19.850100  -114.946000
  C    -114.905000   20.575600  -117.443000
  H    -115.823000   21.144100  -117.281000
  H    -114.805000   20.387600  -118.544000
  C    -113.698000   21.337700  -116.840000
  H    -113.773000   22.366800  -117.262000
  H    -113.785000   21.303700  -115.798000
  C    -112.483000   20.614000  -117.192000
  H    -112.276000   20.451600  -118.243000
  H    -111.691000   21.201100  -116.865000
  H    -112.376000   19.605900  -116.699000
  S    -117.589000   16.025200  -113.764000
  C    -117.687000   15.990400  -111.971000
  C    -116.815000   16.953100  -111.499000
  C    -116.204000   17.770800  -112.528000
  C    -116.383000   17.255900  -113.793000
  H    -116.873000   16.994800  -110.377000
  C    -115.325000   18.903500  -112.173000
  H    -115.064000   19.511500  -112.971000
  H    -114.325000   18.381900  -111.815000
  C    -115.720000   19.861100  -111.050000
  H    -115.580000   19.306200  -110.100000
  H    -116.737000   20.168400  -111.031000
  C    -114.791000   21.044800  -111.088000
  H    -115.038000   21.580800  -112.014000
  H    -113.744000   20.581500  -111.074000
  H    -114.844000   21.765400  -110.293000
  H    -114.728000   17.870200  -118.554000
  H    -118.265000   15.296200  -111.347000

 Total Charge           Charge          ....    0
 Multiplicity           Mult            ....    1
 Number of Electrons    NEL             ....  134
 Basis Dimension        Dim             ....  322

ORBITAL ENERGIES
----------------

  NO   OCC          E(Eh)            E(eV)
   0   2.0000     -88.964219     -2420.8395
   1   2.0000     -88.961196     -2420.7572
   2   2.0000     -10.333055      -281.1767
   3   2.0000     -10.328514      -281.0532
   4   2.0000     -10.323835      -280.9258
   5   2.0000     -10.315924      -280.7106
   6   2.0000     -10.307984      -280.4945
   7   2.0000     -10.302055      -280.3332
   8   2.0000     -10.298946      -280.2486
   9   2.0000     -10.294141      -280.1178
  10   2.0000     -10.291912      -280.0572
  11   2.0000     -10.289793      -279.9995
  12   2.0000     -10.284745      -279.8621
  13   2.0000     -10.283974      -279.8412
  14   2.0000     -10.283768      -279.8355
  15   2.0000     -10.267119      -279.3825
  16   2.0000      -8.078944      -219.8392
  17   2.0000      -8.075944      -219.7576
  18   2.0000      -6.037562      -164.2904
  19   2.0000      -6.034572      -164.2091
  20   2.0000      -6.033334      -164.1754
  21   2.0000      -6.030343      -164.0940
  22   2.0000      -6.029672      -164.0757
  23   2.0000      -6.026663      -163.9938
  24   2.0000      -1.008702       -27.4482
  25   2.0000      -0.985839       -26.8260
  26   2.0000      -0.919033       -25.0081
  27   2.0000      -0.916768       -24.9465
  28   2.0000      -0.874680       -23.8012
  29   2.0000      -0.854008       -23.2387
  30   2.0000      -0.844979       -22.9930
  31   2.0000      -0.819150       -22.2902
  32   2.0000      -0.779629       -21.2148
  33   2.0000      -0.769645       -20.9431
  34   2.0000      -0.710565       -19.3355
  35   2.0000      -0.701472       -19.0880
  36   2.0000      -0.694441       -18.8967
  37   2.0000      -0.654084       -17.7985
  38   2.0000      -0.638658       -17.3788
  39   2.0000      -0.626956       -17.0603
  40   2.0000      -0.602864       -16.4048
  41   2.0000      -0.575609       -15.6631
  42   2.0000      -0.574002       -15.6194
  43   2.0000      -0.554280       -15.0827
  44   2.0000      -0.546079       -14.8596
  45   2.0000      -0.528523       -14.3819
  46   2.0000      -0.522396       -14.2151
  47   2.0000      -0.513902       -13.9840
  48   2.0000      -0.510183       -13.8828
  49   2.0000      -0.500515       -13.6197
  50   2.0000      -0.490791       -13.3551
  51   2.0000      -0.477694       -12.9987
  52   2.0000      -0.470735       -12.8093
  53   2.0000      -0.466310       -12.6889
  54   2.0000      -0.452981       -12.3262
  55   2.0000      -0.451520       -12.2865
  56   2.0000      -0.443635       -12.0719
  57   2.0000      -0.433458       -11.7950
  58   2.0000      -0.433269       -11.7899
  59   2.0000      -0.424133       -11.5412
  60   2.0000      -0.420173       -11.4335
  61   2.0000      -0.414680       -11.2840
  62   2.0000      -0.409361       -11.1393
  63   2.0000      -0.352579        -9.5942
  64   2.0000      -0.328093        -8.9279
  65   2.0000      -0.324532        -8.8310
  66   2.0000      -0.295582        -8.0432
  67   0.0000       0.026806         0.7294
  68   0.0000       0.078315         2.1311
  69   0.0000       0.109654         2.9838
  70   0.0000       0.120248         3.2721
  71   0.0000       0.124074         3.3762

MULLIKEN ATOMIC CHARGES
-----------------------
   0 S :    0.104565
   1 C :   -0.140133
   2 C :   -0.102292
   3 C :    0.035588
   4 C :   -0.134368
   5 H :   -0.010154
   6 C :    0.028973
   7 H :    0.028826
   8 H :    0.024102
   9 C :   -0.012808
  10 H :    0.044035
  11 H :    0.016319
  12 C :   -0.041541
  13 H :    0.018273
  14 H :    0.011380
  15 H :    0.049995
  16 S :    0.088340
  17 C :   -0.113695
  18 C :   -0.052169
  19 C :   -0.017760
  20 C :   -0.106373
  21 H :    0.044498
  22 C :    0.028320
  23 H :   -0.016778
  24 H :    0.058078
  25 C :   -0.065882
  26 H :    0.027003
  27 H :    0.025078
  28 C :   -0.055299
  29 H :    0.034928
  30 H :    0.038148
  31 H :    0.032451
  32 H :    0.061122
  33 H :    0.069230
Sum of atomic charges:   -0.0000000

LOEWDIN ATOMIC CHARGES
----------------------
   0 S :    0.404997
   1 C :   -0.198524
   2 C :   -0.069544
   3 C :   -0.063830
   4 C :   -0.192674
   5 H :    0.018828
   6 C :   -0.031216
   7 H :    0.027016
   8 H :    0.030380
   9 C :   -0.034329
  10 H :    0.034566
  11 H :    0.020164
  12 C :   -0.066323
  13 H :    0.021719
  14 H :    0.017049
  15 H :    0.037772
  16 S :    0.394685
  17 C :   -0.175438
  18 C :   -0.078386
  19 C :   -0.058778
  20 C :   -0.203431
  21 H :    0.044239
  22 C :   -0.034481
  23 H :    0.011748
  24 H :    0.052915
  25 C :   -0.042979
  26 H :    0.023355
  27 H :    0.017621
  28 C :   -0.064355
  29 H :    0.025857
  30 H :    0.035392
  31 H :    0.021323
  32 H :    0.037215
  33 H :    0.037448

  Mayer bond orders larger than 0.100000
B(  0-S ,  1-C ) :   1.1325 B(  0-S ,  4-C ) :   1.1597 B(  1-C ,  2-C ) :   1.6035
B(  1-C , 32-H ) :   0.9671 B(  2-C ,  3-C ) :   1.2596 B(  2-C ,  6-C ) :   1.0077
B(  3-C ,  4-C ) :   1.5527 B(  3-C ,  5-H ) :   1.0003 B(  4-C , 20-C ) :   1.0276
B(  6-C ,  7-H ) :   0.9411 B(  6-C ,  8-H ) :   0.9471 B(  6-C ,  9-C ) :   1.0689
B(  9-C , 10-H ) :   0.9511 B(  9-C , 11-H ) :   0.9490 B(  9-C , 12-C ) :   1.0906
B( 12-C , 13-H ) :   0.9740 B( 12-C , 14-H ) :   0.9664 B( 12-C , 15-H ) :   0.9688
B( 16-S , 17-C ) :   1.1386 B( 16-S , 20-C ) :   1.1407 B( 17-C , 18-C ) :   1.6436
B( 17-C , 33-H ) :   0.9658 B( 18-C , 19-C ) :   1.1916 B( 18-C , 21-H ) :   0.9797
B( 19-C , 20-C ) :   1.5979 B( 19-C , 22-C ) :   1.0678 B( 22-C , 23-H ) :   0.9434
B( 22-C , 24-H ) :   0.9194 B( 22-C , 25-C ) :   1.0503 B( 25-C , 26-H ) :   0.9450
B( 25-C , 27-H ) :   0.9614 B( 25-C , 28-C ) :   1.0880 B( 28-C , 29-H ) :   0.9731
B( 28-C , 30-H ) :   0.9696 B( 28-C , 31-H ) :   0.9738

Dispersion correction           -0.014149991
FINAL SINGLE POINT ENERGY     -1339.864751602065

DIPOLE MOMENT
-------------
                                X             Y             Z
Electronic contribution:    -14.80349     -26.02482      -5.26721
Nuclear contribution   :     15.03990      26.71740       5.62313
                        -----------------------------------------
Total Dipole Moment    :      0.23641       0.69258       0.35593
                        -----------------------------------------
Magnitude (a.u.)       :      0.81378
Magnitude (Debye)      :      2.06846

Rotational constants in cm-1:     0.017329     0.009676     0.006595
Rotational constants in MHz :   519.496844   290.067229   197.713189

                             ****ORCA TERMINATED NORMALLY****
TOTAL RUN TIME: 0 days 0 hours 0 minutes 21 seconds 971 msec
