                         Program Version 4.2.1 -  RELEASE  -
|  1> ! wB97X-D3 SP def2-SVP
|  2> %pal
|  3> nprocs 24
|  4> end
|  5>
|  6> * xyz 0 1
|  7> S 	 -139.102 	 9.33252 	 4.28235
|  8> C 	 -138.718 	 9.87146 	 2.64044
|  9> C 	 -139.79 	 9.64945 	 1.81257
| 10> C 	 -140.871 	 8.9531 	 2.41887
| 11> C 	 -140.674 	 8.70405 	 3.76788
| 12> H 	 -141.701 	 8.78276 	 1.82247
| 13> C 	 -139.835 	 10.1934 	 0.394439
| 14> H 	 -139.356 	 11.1901 	 0.422943
| 15> H 	 -140.844 	 10.4579 	 0.134484
| 16> C 	 -139.451 	 9.24437 	 -0.70273
| 17> H 	 -138.521 	 8.78494 	 -0.498016
| 18> H 	 -140.253 	 8.53569 	 -0.778129
| 19> C 	 -139.466 	 10.0083 	 -2.12199
| 20> H 	 -140.438 	 10.4899 	 -2.18686
| 21> H 	 -138.772 	 10.7901 	 -2.08674
| 22> H 	 -139.274 	 9.32433 	 -2.97822
| 23> S 	 -141.247 	 7.70556 	 6.18877
| 24> C 	 -142.777 	 7.21293 	 6.62419
| 25> C 	 -143.711 	 7.84438 	 5.87941
| 26> C 	 -143.141 	 8.41366 	 4.66697
| 27> C 	 -141.732 	 8.34809 	 4.64713
| 28> H 	 -144.747 	 7.74441 	 6.17207
| 29> C 	 -144.01 	 9.01519 	 3.60992
| 30> H 	 -143.639 	 9.77753 	 2.9568
| 31> H 	 -144.861 	 9.51583 	 4.12544
| 32> C 	 -144.604 	 7.98425 	 2.64497
| 33> H 	 -145.264 	 7.2846 	 3.12994
| 34> H 	 -143.761 	 7.38627 	 2.40295
| 35> C 	 -145.198 	 8.4961 	 1.33335
| 36> H 	 -144.428 	 9.14098 	 0.819319
| 37> H 	 -146.053 	 9.13412 	 1.46141
| 38> H 	 -145.492 	 7.69115 	 0.672595
| 39> H 	 -137.815 	 10.4503 	 2.34128
| 40> H 	 -143.032 	 6.89507 	 7.64472
| 41> *
| 42>
| 43>                          ****END OF INPUT****

CARTESIAN COORDINATES (ANGSTROEM)
---------------------------------
  S    -139.102000    9.332520    4.282350
  C    -138.718000    9.871460    2.640440
  C    -139.790000    9.649450    1.812570
  C    -140.871000    8.953100    2.418870
  C    -140.674000    8.704050    3.767880
  H    -141.701000    8.782760    1.822470
  C    -139.835000   10.193400    0.394439
  H    -139.356000   11.190100    0.422943
  H    -140.844000   10.457900    0.134484
  C    -139.451000    9.244370   -0.702730
  H    -138.521000    8.784940   -0.498016
  H    -140.253000    8.535690   -0.778129
  C    -139.466000   10.008300   -2.121990
  H    -140.438000   10.489900   -2.186860
  H    -138.772000   10.790100   -2.086740
  H    -139.274000    9.324330   -2.978220
  S    -141.247000    7.705560    6.188770
  C    -142.777000    7.212930    6.624190
  C    -143.711000    7.844380    5.879410
  C    -143.141000    8.413660    4.666970
  C    -141.732000    8.348090    4.647130
  H    -144.747000    7.744410    6.172070
  C    -144.010000    9.015190    3.609920
  H    -143.639000    9.777530    2.956800
  H    -144.861000    9.515830    4.125440
  C    -144.604000    7.984250    2.644970
  H    -145.264000    7.284600    3.129940
  H    -143.761000    7.386270    2.402950
  C    -145.198000    8.496100    1.333350
  H    -144.428000    9.140980    0.819319
  H    -146.053000    9.134120    1.461410
  H    -145.492000    7.691150    0.672595
  H    -137.815000   10.450300    2.341280
  H    -143.032000    6.895070    7.644720

 Total Charge           Charge          ....    0
 Multiplicity           Mult            ....    1
 Number of Electrons    NEL             ....  134
 Basis Dimension        Dim             ....  322

ORBITAL ENERGIES
----------------

  NO   OCC          E(Eh)            E(eV)
   0   2.0000     -88.970103     -2420.9996
   1   2.0000     -88.957892     -2420.6673
   2   2.0000     -10.334154      -281.2066
   3   2.0000     -10.328322      -281.0479
   4   2.0000     -10.318308      -280.7754
   5   2.0000     -10.311359      -280.5864
   6   2.0000     -10.309503      -280.5358
   7   2.0000     -10.297836      -280.2184
   8   2.0000     -10.294063      -280.1157
   9   2.0000     -10.290380      -280.0155
  10   2.0000     -10.289714      -279.9974
  11   2.0000     -10.289427      -279.9895
  12   2.0000     -10.284764      -279.8627
  13   2.0000     -10.282351      -279.7970
  14   2.0000     -10.281314      -279.7688
  15   2.0000     -10.279114      -279.7089
  16   2.0000      -8.084047      -219.9781
  17   2.0000      -8.075294      -219.7399
  18   2.0000      -6.042795      -164.4328
  19   2.0000      -6.038696      -164.3213
  20   2.0000      -6.034556      -164.2086
  21   2.0000      -6.033622      -164.1832
  22   2.0000      -6.029441      -164.0694
  23   2.0000      -6.026063      -163.9775
  24   2.0000      -1.016418       -27.6581
  25   2.0000      -0.989814       -26.9342
  26   2.0000      -0.915772       -24.9194
  27   2.0000      -0.915149       -24.9025
  28   2.0000      -0.877441       -23.8764
  29   2.0000      -0.854044       -23.2397
  30   2.0000      -0.845397       -23.0044
  31   2.0000      -0.818053       -22.2604
  32   2.0000      -0.783944       -21.3322
  33   2.0000      -0.773550       -21.0494
  34   2.0000      -0.714870       -19.4526
  35   2.0000      -0.704273       -19.1642
  36   2.0000      -0.697987       -18.9932
  37   2.0000      -0.664451       -18.0806
  38   2.0000      -0.636389       -17.3170
  39   2.0000      -0.630310       -17.1516
  40   2.0000      -0.604992       -16.4627
  41   2.0000      -0.580290       -15.7905
  42   2.0000      -0.565919       -15.3994
  43   2.0000      -0.557666       -15.1749
  44   2.0000      -0.529777       -14.4160
  45   2.0000      -0.524182       -14.2637
  46   2.0000      -0.517858       -14.0916
  47   2.0000      -0.512534       -13.9468
  48   2.0000      -0.508612       -13.8400
  49   2.0000      -0.504962       -13.7407
  50   2.0000      -0.498657       -13.5691
  51   2.0000      -0.479780       -13.0555
  52   2.0000      -0.475635       -12.9427
  53   2.0000      -0.464374       -12.6363
  54   2.0000      -0.457865       -12.4591
  55   2.0000      -0.456109       -12.4114
  56   2.0000      -0.449034       -12.2188
  57   2.0000      -0.445963       -12.1353
  58   2.0000      -0.434026       -11.8104
  59   2.0000      -0.430064       -11.7026
  60   2.0000      -0.419849       -11.4247
  61   2.0000      -0.414529       -11.2799
  62   2.0000      -0.406364       -11.0577
  63   2.0000      -0.365898        -9.9566
  64   2.0000      -0.335207        -9.1215
  65   2.0000      -0.324001        -8.8165
  66   2.0000      -0.284353        -7.7376
  67   0.0000       0.017700         0.4816
  68   0.0000       0.077737         2.1153
  69   0.0000       0.097556         2.6546
  70   0.0000       0.117924         3.2089
  71   0.0000       0.125703         3.4205

MULLIKEN ATOMIC CHARGES
-----------------------
   0 S :    0.102846
   1 C :   -0.132552
   2 C :   -0.097874
   3 C :    0.032835
   4 C :   -0.042223
   5 H :   -0.036755
   6 C :    0.034600
   7 H :    0.026361
   8 H :   -0.000703
   9 C :   -0.035260
  10 H :    0.027066
  11 H :    0.024969
  12 C :   -0.040873
  13 H :    0.021508
  14 H :    0.017747
  15 H :    0.051427
  16 S :    0.087708
  17 C :   -0.070088
  18 C :   -0.044606
  19 C :   -0.053993
  20 C :   -0.136862
  21 H :    0.022630
  22 C :    0.059246
  23 H :    0.008850
  24 H :    0.023910
  25 C :   -0.070929
  26 H :    0.017785
  27 H :    0.015615
  28 C :   -0.037109
  29 H :    0.025145
  30 H :    0.026659
  31 H :    0.040655
  32 H :    0.064622
  33 H :    0.067644
Sum of atomic charges:   -0.0000000

LOEWDIN ATOMIC CHARGES
----------------------
   0 S :    0.390764
   1 C :   -0.196594
   2 C :   -0.061912
   3 C :   -0.053109
   4 C :   -0.183114
   5 H :    0.018066
   6 C :   -0.037739
   7 H :    0.031401
   8 H :    0.024122
   9 C :   -0.025918
  10 H :    0.015817
  11 H :    0.022685
  12 C :   -0.057660
  13 H :    0.023334
  14 H :    0.013620
  15 H :    0.031802
  16 S :    0.433860
  17 C :   -0.212018
  18 C :   -0.071875
  19 C :   -0.050386
  20 C :   -0.193020
  21 H :    0.032948
  22 C :   -0.036418
  23 H :    0.022764
  24 H :    0.034336
  25 C :   -0.042570
  26 H :    0.019667
  27 H :    0.018331
  28 C :   -0.063901
  29 H :    0.026241
  30 H :    0.020432
  31 H :    0.029281
  32 H :    0.040140
  33 H :    0.036623

  Mayer bond orders larger than 0.100000
B(  0-S ,  1-C ) :   1.1176 B(  0-S ,  4-C ) :   1.1386 B(  1-C ,  2-C ) :   1.6160
B(  1-C , 32-H ) :   0.9637 B(  2-C ,  3-C ) :   1.2704 B(  2-C ,  6-C ) :   1.0218
B(  3-C ,  4-C ) :   1.5130 B(  3-C ,  5-H ) :   1.0111 B(  4-C , 20-C ) :   1.1085
B(  6-C ,  7-H ) :   0.9468 B(  6-C ,  8-H ) :   0.9354 B(  6-C ,  9-C ) :   1.0572
B(  9-C , 10-H ) :   0.9628 B(  9-C , 11-H ) :   0.9561 B(  9-C , 12-C ) :   1.0680
B( 12-C , 13-H ) :   0.9746 B( 12-C , 14-H ) :   0.9800 B( 12-C , 15-H ) :   0.9771
B( 16-S , 17-C ) :   1.1862 B( 16-S , 20-C ) :   1.1384 B( 17-C , 18-C ) :   1.6051
B( 17-C , 33-H ) :   0.9554 B( 18-C , 19-C ) :   1.2465 B( 18-C , 21-H ) :   0.9912
B( 19-C , 20-C ) :   1.5391 B( 19-C , 22-C ) :   1.0623 B( 22-C , 23-H ) :   0.9417
B( 22-C , 24-H ) :   0.9246 B( 22-C , 25-C ) :   1.0512 B( 25-C , 26-H ) :   0.9509
B( 25-C , 27-H ) :   0.9526 B( 25-C , 28-C ) :   1.0904 B( 28-C , 29-H ) :   0.9704
B( 28-C , 30-H ) :   0.9742 B( 28-C , 31-H ) :   0.9726

Dispersion correction           -0.013954143
FINAL SINGLE POINT ENERGY     -1339.864033862152

DIPOLE MOMENT
-------------
                                X             Y             Z
Electronic contribution:     12.66307      -4.66861      30.47661
Nuclear contribution   :    -13.17797       4.96193     -30.96270
                        -----------------------------------------
Total Dipole Moment    :     -0.51490       0.29332      -0.48609
                        -----------------------------------------
Magnitude (a.u.)       :      0.76645
Magnitude (Debye)      :      1.94816

Rotational constants in cm-1:     0.018194     0.008970     0.006238
Rotational constants in MHz :   545.443800   268.914385   187.017316

                             ****ORCA TERMINATED NORMALLY****
TOTAL RUN TIME: 0 days 0 hours 0 minutes 21 seconds 633 msec
