                         Program Version 4.2.1 -  RELEASE  -
|  1> ! wB97X-D3 SP def2-SVP
|  2> %pal
|  3> nprocs 24
|  4> end
|  5>
|  6> * xyz 0 1
|  7> S 	 -106.495 	 64.6789 	 -11.6206
|  8> C 	 -105.651 	 66.1961 	 -11.6185
|  9> C 	 -105.366 	 66.6246 	 -10.3421
| 10> C 	 -105.567 	 65.5736 	 -9.38725
| 11> C 	 -106.177 	 64.4507 	 -9.93173
| 12> H 	 -105.164 	 65.5527 	 -8.36201
| 13> C 	 -104.507 	 67.8205 	 -10.0528
| 14> H 	 -104.107 	 67.6843 	 -9.02153
| 15> H 	 -105.264 	 68.6579 	 -9.94185
| 16> C 	 -103.221 	 68.047 	 -10.9445
| 17> H 	 -102.312 	 67.4833 	 -10.6189
| 18> H 	 -103.502 	 67.9516 	 -11.9769
| 19> C 	 -102.675 	 69.3973 	 -10.9997
| 20> H 	 -101.991 	 69.5099 	 -11.8972
| 21> H 	 -103.542 	 70.0318 	 -11.1466
| 22> H 	 -102.207 	 69.7084 	 -10.085
| 23> S 	 -105.6 	 61.6481 	 -10.0823
| 24> C 	 -106.273 	 60.5954 	 -8.77263
| 25> C 	 -106.819 	 61.3954 	 -7.74076
| 26> C 	 -106.713 	 62.8132 	 -8.00619
| 27> C 	 -106.262 	 63.1329 	 -9.28249
| 28> H 	 -107.28 	 60.9396 	 -6.86618
| 29> C 	 -107.331 	 63.7938 	 -7.04211
| 30> H 	 -107.099 	 64.8431 	 -7.25611
| 31> H 	 -106.896 	 63.5987 	 -6.0798
| 32> C 	 -108.847 	 63.5325 	 -6.77408
| 33> H 	 -109.229 	 64.1701 	 -5.94856
| 34> H 	 -109.008 	 62.5425 	 -6.39634
| 35> C 	 -109.733 	 63.6174 	 -7.98737
| 36> H 	 -110.74 	 63.3375 	 -7.77703
| 37> H 	 -109.433 	 62.8825 	 -8.65531
| 38> H 	 -109.609 	 64.62 	 -8.52161
| 39> H 	 -105.425 	 66.7436 	 -12.4897
| 40> H 	 -106.117 	 59.5976 	 -8.54987
| 41> *
| 42>
| 43>                          ****END OF INPUT****

CARTESIAN COORDINATES (ANGSTROEM)
---------------------------------
  S    -106.495000   64.678900  -11.620600
  C    -105.651000   66.196100  -11.618500
  C    -105.366000   66.624600  -10.342100
  C    -105.567000   65.573600   -9.387250
  C    -106.177000   64.450700   -9.931730
  H    -105.164000   65.552700   -8.362010
  C    -104.507000   67.820500  -10.052800
  H    -104.107000   67.684300   -9.021530
  H    -105.264000   68.657900   -9.941850
  C    -103.221000   68.047000  -10.944500
  H    -102.312000   67.483300  -10.618900
  H    -103.502000   67.951600  -11.976900
  C    -102.675000   69.397300  -10.999700
  H    -101.991000   69.509900  -11.897200
  H    -103.542000   70.031800  -11.146600
  H    -102.207000   69.708400  -10.085000
  S    -105.600000   61.648100  -10.082300
  C    -106.273000   60.595400   -8.772630
  C    -106.819000   61.395400   -7.740760
  C    -106.713000   62.813200   -8.006190
  C    -106.262000   63.132900   -9.282490
  H    -107.280000   60.939600   -6.866180
  C    -107.331000   63.793800   -7.042110
  H    -107.099000   64.843100   -7.256110
  H    -106.896000   63.598700   -6.079800
  C    -108.847000   63.532500   -6.774080
  H    -109.229000   64.170100   -5.948560
  H    -109.008000   62.542500   -6.396340
  C    -109.733000   63.617400   -7.987370
  H    -110.740000   63.337500   -7.777030
  H    -109.433000   62.882500   -8.655310
  H    -109.609000   64.620000   -8.521610
  H    -105.425000   66.743600  -12.489700
  H    -106.117000   59.597600   -8.549870

 Total Charge           Charge          ....    0
 Multiplicity           Mult            ....    1
 Number of Electrons    NEL             ....  134
 Basis Dimension        Dim             ....  322

ORBITAL ENERGIES
----------------

  NO   OCC          E(Eh)            E(eV)
   0   2.0000     -88.968185     -2420.9474
   1   2.0000     -88.967605     -2420.9316
   2   2.0000     -10.333963      -281.2014
   3   2.0000     -10.329906      -281.0910
   4   2.0000     -10.321817      -280.8709
   5   2.0000     -10.310415      -280.5607
   6   2.0000     -10.305233      -280.4196
   7   2.0000     -10.302358      -280.3414
   8   2.0000     -10.301081      -280.3067
   9   2.0000     -10.300629      -280.2944
  10   2.0000     -10.298488      -280.2361
  11   2.0000     -10.289375      -279.9881
  12   2.0000     -10.288951      -279.9766
  13   2.0000     -10.282848      -279.8105
  14   2.0000     -10.275304      -279.6052
  15   2.0000     -10.263629      -279.2875
  16   2.0000      -8.082852      -219.9456
  17   2.0000      -8.080659      -219.8859
  18   2.0000      -6.041285      -164.3917
  19   2.0000      -6.039508      -164.3434
  20   2.0000      -6.037285      -164.2829
  21   2.0000      -6.035534      -164.2352
  22   2.0000      -6.033653      -164.1840
  23   2.0000      -6.031112      -164.1149
  24   2.0000      -1.005092       -27.3499
  25   2.0000      -0.975901       -26.5556
  26   2.0000      -0.916929       -24.9509
  27   2.0000      -0.905586       -24.6423
  28   2.0000      -0.873353       -23.7651
  29   2.0000      -0.857327       -23.3290
  30   2.0000      -0.842153       -22.9162
  31   2.0000      -0.814727       -22.1699
  32   2.0000      -0.781860       -21.2755
  33   2.0000      -0.771655       -20.9978
  34   2.0000      -0.707166       -19.2430
  35   2.0000      -0.695695       -18.9308
  36   2.0000      -0.691052       -18.8045
  37   2.0000      -0.658199       -17.9105
  38   2.0000      -0.643077       -17.4990
  39   2.0000      -0.612288       -16.6612
  40   2.0000      -0.591398       -16.0928
  41   2.0000      -0.585068       -15.9205
  42   2.0000      -0.564128       -15.3507
  43   2.0000      -0.551587       -15.0095
  44   2.0000      -0.538467       -14.6524
  45   2.0000      -0.531669       -14.4675
  46   2.0000      -0.523141       -14.2354
  47   2.0000      -0.512452       -13.9445
  48   2.0000      -0.507452       -13.8085
  49   2.0000      -0.502549       -13.6751
  50   2.0000      -0.491393       -13.3715
  51   2.0000      -0.479013       -13.0346
  52   2.0000      -0.464650       -12.6438
  53   2.0000      -0.461780       -12.5657
  54   2.0000      -0.458088       -12.4652
  55   2.0000      -0.446682       -12.1548
  56   2.0000      -0.439941       -11.9714
  57   2.0000      -0.431474       -11.7410
  58   2.0000      -0.431179       -11.7330
  59   2.0000      -0.420609       -11.4454
  60   2.0000      -0.418298       -11.3825
  61   2.0000      -0.411997       -11.2110
  62   2.0000      -0.409882       -11.1534
  63   2.0000      -0.348323        -9.4784
  64   2.0000      -0.332676        -9.0526
  65   2.0000      -0.327300        -8.9063
  66   2.0000      -0.289199        -7.8695
  67   0.0000       0.022320         0.6074
  68   0.0000       0.069817         1.8998
  69   0.0000       0.105578         2.8729
  70   0.0000       0.115280         3.1369
  71   0.0000       0.124826         3.3967

MULLIKEN ATOMIC CHARGES
-----------------------
   0 S :    0.122343
   1 C :   -0.129486
   2 C :   -0.053657
   3 C :    0.002484
   4 C :   -0.160397
   5 H :    0.035875
   6 C :    0.020162
   7 H :    0.024255
   8 H :    0.051574
   9 C :   -0.055054
  10 H :    0.049764
  11 H :    0.020947
  12 C :   -0.064057
  13 H :    0.047920
  14 H :    0.014905
  15 H :    0.025891
  16 S :    0.097709
  17 C :   -0.058567
  18 C :   -0.064153
  19 C :   -0.044830
  20 C :   -0.136122
  21 H :    0.032251
  22 C :    0.091653
  23 H :    0.025024
  24 H :    0.019595
  25 C :   -0.093681
  26 H :    0.029349
  27 H :    0.009940
  28 C :   -0.018085
  29 H :    0.023055
  30 H :    0.017048
  31 H :    0.042353
  32 H :    0.036769
  33 H :    0.037224
Sum of atomic charges:   -0.0000000

LOEWDIN ATOMIC CHARGES
----------------------
   0 S :    0.421318
   1 C :   -0.187828
   2 C :   -0.070774
   3 C :   -0.060324
   4 C :   -0.201933
   5 H :    0.036546
   6 C :   -0.041858
   7 H :    0.032568
   8 H :    0.042243
   9 C :   -0.044226
  10 H :    0.037600
  11 H :    0.022046
  12 C :   -0.065531
  13 H :    0.036347
  14 H :    0.019831
  15 H :    0.015927
  16 S :    0.359405
  17 C :   -0.161892
  18 C :   -0.063678
  19 C :   -0.056242
  20 C :   -0.179381
  21 H :    0.032766
  22 C :   -0.031196
  23 H :    0.028613
  24 H :    0.032060
  25 C :   -0.039595
  26 H :    0.024998
  27 H :    0.016734
  28 C :   -0.064577
  29 H :    0.022690
  30 H :    0.017287
  31 H :    0.034109
  32 H :    0.017517
  33 H :    0.018428

  Mayer bond orders larger than 0.100000
B(  0-S ,  1-C ) :   1.1476 B(  0-S ,  4-C ) :   1.1551 B(  1-C ,  2-C ) :   1.5971
B(  1-C , 32-H ) :   0.9750 B(  2-C ,  3-C ) :   1.2517 B(  2-C ,  6-C ) :   1.0280
B(  3-C ,  4-C ) :   1.5709 B(  3-C ,  5-H ) :   0.9768 B(  4-C , 20-C ) :   1.0564
B(  6-C ,  7-H ) :   0.9491 B(  6-C ,  8-H ) :   0.9303 B(  6-C ,  9-C ) :   1.0576
B(  9-C , 10-H ) :   0.9580 B(  9-C , 11-H ) :   0.9582 B(  9-C , 12-C ) :   1.0776
B( 12-C , 13-H ) :   0.9735 B( 12-C , 14-H ) :   0.9743 B( 12-C , 15-H ) :   0.9754
B( 16-S , 17-C ) :   1.1278 B( 16-S , 20-C ) :   1.1111 B( 17-C , 18-C ) :   1.6339
B( 17-C , 33-H ) :   0.9713 B( 18-C , 19-C ) :   1.2190 B( 18-C , 21-H ) :   0.9834
B( 19-C , 20-C ) :   1.5985 B( 19-C , 22-C ) :   1.0553 B( 22-C , 23-H ) :   0.9385
B( 22-C , 24-H ) :   0.9214 B( 22-C , 25-C ) :   1.0716 B( 25-C , 26-H ) :   0.9551
B( 25-C , 27-H ) :   0.9507 B( 25-C , 28-C ) :   1.0838 B( 28-C , 29-H ) :   0.9698
B( 28-C , 30-H ) :   0.9678 B( 28-C , 31-H ) :   0.9744

Dispersion correction           -0.014327402
FINAL SINGLE POINT ENERGY     -1339.850591120867

DIPOLE MOMENT
-------------
                                X             Y             Z
Electronic contribution:     -0.13274     -18.69594     -10.28021
Nuclear contribution   :      0.32410      19.02767      10.76836
                        -----------------------------------------
Total Dipole Moment    :      0.19136       0.33173       0.48815
                        -----------------------------------------
Magnitude (a.u.)       :      0.62044
Magnitude (Debye)      :      1.57704

Rotational constants in cm-1:     0.023044     0.007245     0.006527
Rotational constants in MHz :   690.844294   217.203399   195.685730

                             ****ORCA TERMINATED NORMALLY****
TOTAL RUN TIME: 0 days 0 hours 0 minutes 21 seconds 592 msec
