                         Program Version 4.2.1 -  RELEASE  -
|  1> ! wB97X-D3 SP def2-SVP
|  2> %pal
|  3> nprocs 24
|  4> end
|  5>
|  6> * xyz 0 1
|  7> S 	 -64.8976 	 7.14576 	 -86.297
|  8> C 	 -66.1954 	 6.1491 	 -85.7228
|  9> C 	 -66.2724 	 6.23145 	 -84.2827
| 10> C 	 -65.1889 	 6.9501 	 -83.7435
| 11> C 	 -64.4808 	 7.57219 	 -84.6645
| 12> H 	 -64.9088 	 7.0127 	 -82.6638
| 13> C 	 -67.4396 	 5.75794 	 -83.4157
| 14> H 	 -67.0344 	 4.95141 	 -82.7496
| 15> H 	 -68.1331 	 5.28513 	 -84.1297
| 16> C 	 -68.129 	 6.783 	 -82.5016
| 17> H 	 -68.8577 	 6.20547 	 -81.8664
| 18> H 	 -67.4503 	 7.30736 	 -81.8485
| 19> C 	 -69.0699 	 7.74091 	 -83.2355
| 20> H 	 -69.4463 	 8.51341 	 -82.5681
| 21> H 	 -68.5989 	 8.15924 	 -84.1215
| 22> H 	 -69.8892 	 7.34857 	 -83.7639
| 23> S 	 -63.2507 	 9.88333 	 -85.6249
| 24> C 	 -62.0465 	 10.651 	 -84.6448
| 25> C 	 -61.7546 	 9.92555 	 -83.4831
| 26> C 	 -62.3578 	 8.64244 	 -83.4579
| 27> C 	 -63.335 	 8.47987 	 -84.4691
| 28> H 	 -61.077 	 10.3983 	 -82.7754
| 29> C 	 -62.1905 	 7.75837 	 -82.221
| 30> H 	 -61.1114 	 7.56269 	 -82.0176
| 31> H 	 -62.4813 	 6.73565 	 -82.6008
| 32> C 	 -62.925 	 8.37331 	 -80.9182
| 33> H 	 -63.9087 	 8.76843 	 -81.0358
| 34> H 	 -62.4019 	 9.22116 	 -80.7189
| 35> C 	 -63.0781 	 7.3793 	 -79.6959
| 36> H 	 -63.434 	 6.32408 	 -79.8233
| 37> H 	 -63.6706 	 7.96703 	 -79.0561
| 38> H 	 -62.1068 	 7.26595 	 -79.1939
| 39> H 	 -66.9427 	 5.6914 	 -86.341
| 40> H 	 -61.8516 	 11.7339 	 -84.6779
| 41> *
| 42>
| 43>                          ****END OF INPUT****

CARTESIAN COORDINATES (ANGSTROEM)
---------------------------------
  S    -64.897600    7.145760  -86.297000
  C    -66.195400    6.149100  -85.722800
  C    -66.272400    6.231450  -84.282700
  C    -65.188900    6.950100  -83.743500
  C    -64.480800    7.572190  -84.664500
  H    -64.908800    7.012700  -82.663800
  C    -67.439600    5.757940  -83.415700
  H    -67.034400    4.951410  -82.749600
  H    -68.133100    5.285130  -84.129700
  C    -68.129000    6.783000  -82.501600
  H    -68.857700    6.205470  -81.866400
  H    -67.450300    7.307360  -81.848500
  C    -69.069900    7.740910  -83.235500
  H    -69.446300    8.513410  -82.568100
  H    -68.598900    8.159240  -84.121500
  H    -69.889200    7.348570  -83.763900
  S    -63.250700    9.883330  -85.624900
  C    -62.046500   10.651000  -84.644800
  C    -61.754600    9.925550  -83.483100
  C    -62.357800    8.642440  -83.457900
  C    -63.335000    8.479870  -84.469100
  H    -61.077000   10.398300  -82.775400
  C    -62.190500    7.758370  -82.221000
  H    -61.111400    7.562690  -82.017600
  H    -62.481300    6.735650  -82.600800
  C    -62.925000    8.373310  -80.918200
  H    -63.908700    8.768430  -81.035800
  H    -62.401900    9.221160  -80.718900
  C    -63.078100    7.379300  -79.695900
  H    -63.434000    6.324080  -79.823300
  H    -63.670600    7.967030  -79.056100
  H    -62.106800    7.265950  -79.193900
  H    -66.942700    5.691400  -86.341000
  H    -61.851600   11.733900  -84.677900

 Total Charge           Charge          ....    0
 Multiplicity           Mult            ....    1
 Number of Electrons    NEL             ....  134
 Basis Dimension        Dim             ....  322

ORBITAL ENERGIES
----------------

  NO   OCC          E(Eh)            E(eV)
   0   2.0000     -88.966723     -2420.9076
   1   2.0000     -88.966003     -2420.8880
   2   2.0000     -10.335136      -281.2334
   3   2.0000     -10.324768      -280.9512
   4   2.0000     -10.316300      -280.7208
   5   2.0000     -10.316203      -280.7182
   6   2.0000     -10.308111      -280.4980
   7   2.0000     -10.305238      -280.4198
   8   2.0000     -10.305101      -280.4160
   9   2.0000     -10.297839      -280.2184
  10   2.0000     -10.295075      -280.1432
  11   2.0000     -10.293394      -280.0975
  12   2.0000     -10.292269      -280.0669
  13   2.0000     -10.288264      -279.9579
  14   2.0000     -10.285737      -279.8891
  15   2.0000     -10.267993      -279.4063
  16   2.0000      -8.081883      -219.9192
  17   2.0000      -8.079976      -219.8673
  18   2.0000      -6.040347      -164.3662
  19   2.0000      -6.038415      -164.3136
  20   2.0000      -6.036409      -164.2591
  21   2.0000      -6.034591      -164.2096
  22   2.0000      -6.032590      -164.1551
  23   2.0000      -6.030861      -164.1081
  24   2.0000      -1.008429       -27.4407
  25   2.0000      -0.979908       -26.6646
  26   2.0000      -0.908737       -24.7280
  27   2.0000      -0.899417       -24.4744
  28   2.0000      -0.864321       -23.5194
  29   2.0000      -0.855538       -23.2804
  30   2.0000      -0.848272       -23.0827
  31   2.0000      -0.813230       -22.1291
  32   2.0000      -0.782371       -21.2894
  33   2.0000      -0.768522       -20.9125
  34   2.0000      -0.716968       -19.5097
  35   2.0000      -0.704760       -19.1775
  36   2.0000      -0.692293       -18.8383
  37   2.0000      -0.655762       -17.8442
  38   2.0000      -0.640106       -17.4182
  39   2.0000      -0.623284       -16.9604
  40   2.0000      -0.587273       -15.9805
  41   2.0000      -0.562284       -15.3005
  42   2.0000      -0.553561       -15.0632
  43   2.0000      -0.548777       -14.9330
  44   2.0000      -0.536344       -14.5947
  45   2.0000      -0.535126       -14.5615
  46   2.0000      -0.525380       -14.2963
  47   2.0000      -0.509708       -13.8699
  48   2.0000      -0.502729       -13.6800
  49   2.0000      -0.493648       -13.4328
  50   2.0000      -0.484535       -13.1849
  51   2.0000      -0.482757       -13.1365
  52   2.0000      -0.473399       -12.8818
  53   2.0000      -0.467868       -12.7313
  54   2.0000      -0.454824       -12.3764
  55   2.0000      -0.451023       -12.2730
  56   2.0000      -0.443646       -12.0722
  57   2.0000      -0.440026       -11.9737
  58   2.0000      -0.436205       -11.8697
  59   2.0000      -0.429291       -11.6816
  60   2.0000      -0.421130       -11.4595
  61   2.0000      -0.413454       -11.2507
  62   2.0000      -0.403046       -10.9675
  63   2.0000      -0.353636        -9.6229
  64   2.0000      -0.332633        -9.0514
  65   2.0000      -0.328945        -8.9510
  66   2.0000      -0.280815        -7.6414
  67   0.0000       0.023501         0.6395
  68   0.0000       0.068573         1.8660
  69   0.0000       0.104999         2.8572
  70   0.0000       0.114614         3.1188
  71   0.0000       0.127164         3.4603

MULLIKEN ATOMIC CHARGES
-----------------------
   0 S :    0.113480
   1 C :   -0.109930
   2 C :   -0.110016
   3 C :   -0.027544
   4 C :   -0.092321
   5 H :    0.031823
   6 C :    0.048971
   7 H :    0.041803
   8 H :    0.017738
   9 C :   -0.056751
  10 H :    0.035099
  11 H :    0.032997
  12 C :   -0.037153
  13 H :    0.037898
  14 H :    0.021487
  15 H :    0.007455
  16 S :    0.087936
  17 C :   -0.093137
  18 C :   -0.074767
  19 C :   -0.030803
  20 C :   -0.135353
  21 H :    0.030647
  22 C :    0.017494
  23 H :    0.037365
  24 H :    0.035062
  25 C :   -0.031979
  26 H :    0.025238
  27 H :    0.002453
  28 C :   -0.051296
  29 H :    0.054809
  30 H :    0.025602
  31 H :    0.029084
  32 H :    0.044409
  33 H :    0.072200
Sum of atomic charges:   -0.0000000

LOEWDIN ATOMIC CHARGES
----------------------
   0 S :    0.415586
   1 C :   -0.210679
   2 C :   -0.057486
   3 C :   -0.075701
   4 C :   -0.189114
   5 H :    0.045047
   6 C :   -0.036715
   7 H :    0.038452
   8 H :    0.030450
   9 C :   -0.038757
  10 H :    0.033440
  11 H :    0.022554
  12 C :   -0.071460
  13 H :    0.028310
  14 H :    0.026362
  15 H :    0.018412
  16 S :    0.384010
  17 C :   -0.201287
  18 C :   -0.073823
  19 C :   -0.061860
  20 C :   -0.171115
  21 H :    0.033442
  22 C :   -0.040620
  23 H :    0.035780
  24 H :    0.033127
  25 C :   -0.024807
  26 H :    0.022506
  27 H :    0.013565
  28 C :   -0.067512
  29 H :    0.034809
  30 H :    0.021314
  31 H :    0.025605
  32 H :    0.022703
  33 H :    0.035462

  Mayer bond orders larger than 0.100000
B(  0-S ,  1-C ) :   1.1407 B(  0-S ,  4-C ) :   1.1461 B(  1-C ,  2-C ) :   1.5892
B(  1-C ,  4-C ) :   0.1003 B(  1-C , 32-H ) :   0.9695 B(  2-C ,  3-C ) :   1.2288
B(  2-C ,  6-C ) :   1.0302 B(  3-C ,  4-C ) :   1.6139 B(  3-C ,  5-H ) :   0.9861
B(  4-C , 20-C ) :   1.0194 B(  6-C ,  7-H ) :   0.9325 B(  6-C ,  8-H ) :   0.9433
B(  6-C ,  9-C ) :   1.0747 B(  9-C , 10-H ) :   0.9542 B(  9-C , 11-H ) :   0.9557
B(  9-C , 12-C ) :   1.0710 B( 12-C , 13-H ) :   0.9747 B( 12-C , 14-H ) :   0.9741
B( 12-C , 15-H ) :   0.9708 B( 16-S , 17-C ) :   1.1597 B( 16-S , 20-C ) :   1.1365
B( 17-C , 18-C ) :   1.6207 B( 17-C , 20-C ) :   0.1047 B( 17-C , 33-H ) :   0.9574
B( 18-C , 19-C ) :   1.2304 B( 18-C , 21-H ) :   0.9874 B( 19-C , 20-C ) :   1.5838
B( 19-C , 22-C ) :   1.0535 B( 22-C , 23-H ) :   0.9371 B( 22-C , 24-H ) :   0.9458
B( 22-C , 25-C ) :   1.0207 B( 25-C , 26-H ) :   0.9695 B( 25-C , 27-H ) :   0.9505
B( 25-C , 28-C ) :   1.0645 B( 28-C , 29-H ) :   0.9796 B( 28-C , 30-H ) :   0.9769
B( 28-C , 31-H ) :   0.9769

Dispersion correction           -0.014569417
FINAL SINGLE POINT ENERGY     -1339.845955534714

DIPOLE MOMENT
-------------
                                X             Y             Z
Electronic contribution:     11.16860       5.93961     -26.15991
Nuclear contribution   :    -11.38881      -5.90687      27.01459
                        -----------------------------------------
Total Dipole Moment    :     -0.22021       0.03274       0.85468
                        -----------------------------------------
Magnitude (a.u.)       :      0.88320
Magnitude (Debye)      :      2.24492

Rotational constants in cm-1:     0.015959     0.010135     0.007310
Rotational constants in MHz :   478.441907   303.845811   219.149309

                             ****ORCA TERMINATED NORMALLY****
TOTAL RUN TIME: 0 days 0 hours 0 minutes 20 seconds 740 msec
