                         Program Version 4.2.1 -  RELEASE  -
|  1> ! wB97X-D3 SP def2-SVP
|  2> %pal
|  3> nprocs 24
|  4> end
|  5>
|  6> * xyz 0 1
|  7> S 	 -101.207 	 -2.32398 	 -108.671
|  8> C 	 -101.1 	 -3.76779 	 -109.756
|  9> C 	 -101.438 	 -4.95535 	 -109.068
| 10> C 	 -102.016 	 -4.5994 	 -107.787
| 11> C 	 -101.894 	 -3.24562 	 -107.4
| 12> H 	 -102.449 	 -5.32754 	 -107.062
| 13> C 	 -101.466 	 -6.3846 	 -109.604
| 14> H 	 -101.058 	 -6.3482 	 -110.62
| 15> H 	 -102.524 	 -6.62922 	 -109.501
| 16> C 	 -100.634 	 -7.43024 	 -108.843
| 17> H 	 -101.232 	 -7.88183 	 -108.019
| 18> H 	 -100.296 	 -8.24688 	 -109.457
| 19> C 	 -99.2772 	 -6.81354 	 -108.198
| 20> H 	 -98.799 	 -7.54005 	 -107.608
| 21> H 	 -98.5841 	 -6.52284 	 -108.975
| 22> H 	 -99.4763 	 -5.90839 	 -107.589
| 23> S 	 -102.975 	 -1.02192 	 -106.176
| 24> C 	 -103.382 	 -1.08705 	 -104.538
| 25> C 	 -102.936 	 -2.2716 	 -103.92
| 26> C 	 -102.356 	 -3.15481 	 -104.835
| 27> C 	 -102.313 	 -2.65631 	 -106.141
| 28> H 	 -103.114 	 -2.39609 	 -102.841
| 29> C 	 -101.916 	 -4.53176 	 -104.436
| 30> H 	 -101.391 	 -4.42035 	 -103.438
| 31> H 	 -101.09 	 -4.83116 	 -105.097
| 32> C 	 -102.961 	 -5.60317 	 -104.175
| 33> H 	 -103.599 	 -5.77434 	 -105.054
| 34> H 	 -103.605 	 -5.09793 	 -103.524
| 35> C 	 -102.312 	 -6.94318 	 -103.714
| 36> H 	 -101.721 	 -6.83027 	 -102.827
| 37> H 	 -101.669 	 -7.29982 	 -104.525
| 38> H 	 -103.022 	 -7.78875 	 -103.668
| 39> H 	 -100.887 	 -3.64442 	 -110.854
| 40> H 	 -103.993 	 -0.352312 	 -104.071
| 41> *
| 42>
| 43>                          ****END OF INPUT****

CARTESIAN COORDINATES (ANGSTROEM)
---------------------------------
  S    -101.207000   -2.323980  -108.671000
  C    -101.100000   -3.767790  -109.756000
  C    -101.438000   -4.955350  -109.068000
  C    -102.016000   -4.599400  -107.787000
  C    -101.894000   -3.245620  -107.400000
  H    -102.449000   -5.327540  -107.062000
  C    -101.466000   -6.384600  -109.604000
  H    -101.058000   -6.348200  -110.620000
  H    -102.524000   -6.629220  -109.501000
  C    -100.634000   -7.430240  -108.843000
  H    -101.232000   -7.881830  -108.019000
  H    -100.296000   -8.246880  -109.457000
  C    -99.277200   -6.813540  -108.198000
  H    -98.799000   -7.540050  -107.608000
  H    -98.584100   -6.522840  -108.975000
  H    -99.476300   -5.908390  -107.589000
  S    -102.975000   -1.021920  -106.176000
  C    -103.382000   -1.087050  -104.538000
  C    -102.936000   -2.271600  -103.920000
  C    -102.356000   -3.154810  -104.835000
  C    -102.313000   -2.656310  -106.141000
  H    -103.114000   -2.396090  -102.841000
  C    -101.916000   -4.531760  -104.436000
  H    -101.391000   -4.420350  -103.438000
  H    -101.090000   -4.831160  -105.097000
  C    -102.961000   -5.603170  -104.175000
  H    -103.599000   -5.774340  -105.054000
  H    -103.605000   -5.097930  -103.524000
  C    -102.312000   -6.943180  -103.714000
  H    -101.721000   -6.830270  -102.827000
  H    -101.669000   -7.299820  -104.525000
  H    -103.022000   -7.788750  -103.668000
  H    -100.887000   -3.644420  -110.854000
  H    -103.993000   -0.352312  -104.071000

 Total Charge           Charge          ....    0
 Multiplicity           Mult            ....    1
 Number of Electrons    NEL             ....  134
 Basis Dimension        Dim             ....  322

ORBITAL ENERGIES
----------------

  NO   OCC          E(Eh)            E(eV)
   0   2.0000     -88.968898     -2420.9668
   1   2.0000     -88.966159     -2420.8923
   2   2.0000     -10.331073      -281.1228
   3   2.0000     -10.328229      -281.0454
   4   2.0000     -10.324546      -280.9452
   5   2.0000     -10.316243      -280.7192
   6   2.0000     -10.311093      -280.5791
   7   2.0000     -10.303946      -280.3846
   8   2.0000     -10.298336      -280.2320
   9   2.0000     -10.297696      -280.2145
  10   2.0000     -10.296756      -280.1890
  11   2.0000     -10.294513      -280.1279
  12   2.0000     -10.292072      -280.0615
  13   2.0000     -10.287241      -279.9301
  14   2.0000     -10.284968      -279.8682
  15   2.0000     -10.274665      -279.5879
  16   2.0000      -8.084550      -219.9918
  17   2.0000      -8.080595      -219.8842
  18   2.0000      -6.042797      -164.4329
  19   2.0000      -6.039179      -164.3344
  20   2.0000      -6.038813      -164.3245
  21   2.0000      -6.035650      -164.2384
  22   2.0000      -6.035167      -164.2252
  23   2.0000      -6.031281      -164.1195
  24   2.0000      -1.009365       -27.4662
  25   2.0000      -0.980930       -26.6925
  26   2.0000      -0.914908       -24.8959
  27   2.0000      -0.908054       -24.7094
  28   2.0000      -0.863042       -23.4846
  29   2.0000      -0.857060       -23.3218
  30   2.0000      -0.835633       -22.7387
  31   2.0000      -0.805265       -21.9124
  32   2.0000      -0.785611       -21.3776
  33   2.0000      -0.775218       -21.0947
  34   2.0000      -0.712147       -19.3785
  35   2.0000      -0.702623       -19.1194
  36   2.0000      -0.695431       -18.9236
  37   2.0000      -0.662353       -18.0235
  38   2.0000      -0.630523       -17.1574
  39   2.0000      -0.618058       -16.8182
  40   2.0000      -0.598748       -16.2928
  41   2.0000      -0.569047       -15.4846
  42   2.0000      -0.558566       -15.1994
  43   2.0000      -0.553707       -15.0671
  44   2.0000      -0.541859       -14.7447
  45   2.0000      -0.520665       -14.1680
  46   2.0000      -0.516700       -14.0601
  47   2.0000      -0.513684       -13.9781
  48   2.0000      -0.502067       -13.6619
  49   2.0000      -0.497232       -13.5304
  50   2.0000      -0.489662       -13.3244
  51   2.0000      -0.481550       -13.1037
  52   2.0000      -0.469509       -12.7760
  53   2.0000      -0.463924       -12.6240
  54   2.0000      -0.460556       -12.5324
  55   2.0000      -0.452055       -12.3010
  56   2.0000      -0.446452       -12.1486
  57   2.0000      -0.437575       -11.9070
  58   2.0000      -0.434838       -11.8325
  59   2.0000      -0.429518       -11.6878
  60   2.0000      -0.421364       -11.4659
  61   2.0000      -0.414786       -11.2869
  62   2.0000      -0.411681       -11.2024
  63   2.0000      -0.348947        -9.4953
  64   2.0000      -0.337061        -9.1719
  65   2.0000      -0.328081        -8.9276
  66   2.0000      -0.281784        -7.6677
  67   0.0000       0.021765         0.5923
  68   0.0000       0.075601         2.0572
  69   0.0000       0.102266         2.7828
  70   0.0000       0.113013         3.0752
  71   0.0000       0.122887         3.3439

MULLIKEN ATOMIC CHARGES
-----------------------
   0 S :    0.097981
   1 C :   -0.161663
   2 C :   -0.105490
   3 C :   -0.011184
   4 C :   -0.126496
   5 H :    0.010684
   6 C :    0.104753
   7 H :    0.026045
   8 H :    0.049873
   9 C :   -0.105167
  10 H :    0.032083
  11 H :    0.036707
  12 C :   -0.063668
  13 H :    0.024827
  14 H :    0.029481
  15 H :    0.056887
  16 S :    0.121869
  17 C :   -0.089229
  18 C :   -0.054484
  19 C :   -0.011686
  20 C :   -0.144680
  21 H :    0.030079
  22 C :   -0.003288
  23 H :    0.022417
  24 H :    0.028866
  25 C :   -0.020792
  26 H :    0.024566
  27 H :    0.004073
  28 C :   -0.030197
  29 H :    0.036694
  30 H :    0.025693
  31 H :    0.037799
  32 H :    0.074547
  33 H :    0.052099
Sum of atomic charges:    0.0000000

LOEWDIN ATOMIC CHARGES
----------------------
   0 S :    0.393253
   1 C :   -0.198601
   2 C :   -0.055783
   3 C :   -0.078629
   4 C :   -0.202849
   5 H :    0.031913
   6 C :   -0.031338
   7 H :    0.034164
   8 H :    0.040954
   9 C :   -0.039351
  10 H :    0.023384
  11 H :    0.024336
  12 C :   -0.063978
  13 H :    0.016164
  14 H :    0.023249
  15 H :    0.030733
  16 S :    0.435691
  17 C :   -0.195462
  18 C :   -0.076596
  19 C :   -0.055981
  20 C :   -0.198486
  21 H :    0.037362
  22 C :   -0.041405
  23 H :    0.036199
  24 H :    0.027030
  25 C :   -0.037131
  26 H :    0.022047
  27 H :    0.015745
  28 C :   -0.061741
  29 H :    0.023357
  30 H :    0.028981
  31 H :    0.030956
  32 H :    0.037972
  33 H :    0.023841

  Mayer bond orders larger than 0.100000
B(  0-S ,  1-C ) :   1.1254 B(  0-S ,  4-C ) :   1.1575 B(  1-C ,  2-C ) :   1.5954
B(  1-C , 32-H ) :   0.9612 B(  2-C ,  3-C ) :   1.2330 B(  2-C ,  6-C ) :   1.0267
B(  3-C ,  4-C ) :   1.5533 B(  3-C ,  5-H ) :   0.9807 B(  4-C , 20-C ) :   1.0721
B(  6-C ,  7-H ) :   0.9366 B(  6-C ,  8-H ) :   0.9452 B(  6-C ,  9-C ) :   1.0602
B(  9-C , 10-H ) :   0.9564 B(  9-C , 11-H ) :   0.9631 B(  9-C , 12-C ) :   1.0801
B( 12-C , 13-H ) :   0.9776 B( 12-C , 14-H ) :   0.9779 B( 12-C , 15-H ) :   0.9679
B( 16-S , 17-C ) :   1.2009 B( 16-S , 20-C ) :   1.1473 B( 17-C , 18-C ) :   1.5455
B( 17-C , 20-C ) :   0.1078 B( 17-C , 33-H ) :   0.9717 B( 18-C , 19-C ) :   1.2804
B( 18-C , 21-H ) :   0.9928 B( 19-C , 20-C ) :   1.5453 B( 19-C , 22-C ) :   1.0518
B( 22-C , 23-H ) :   0.9293 B( 22-C , 24-H ) :   0.9329 B( 22-C , 25-C ) :   1.0524
B( 25-C , 26-H ) :   0.9500 B( 25-C , 27-H ) :   0.9487 B( 25-C , 28-C ) :   1.0709
B( 28-C , 29-H ) :   0.9771 B( 28-C , 30-H ) :   0.9723 B( 28-C , 31-H ) :   0.9741

Dispersion correction           -0.015128608
FINAL SINGLE POINT ENERGY     -1339.878629339763

DIPOLE MOMENT
-------------
                                X             Y             Z
Electronic contribution:     -5.43339      30.37520      -6.89440
Nuclear contribution   :      5.30405     -30.99780       7.15105
                        -----------------------------------------
Total Dipole Moment    :     -0.12934      -0.62260       0.25666
                        -----------------------------------------
Magnitude (a.u.)       :      0.68574
Magnitude (Debye)      :      1.74301

Rotational constants in cm-1:     0.016990     0.010665     0.006996
Rotational constants in MHz :   509.359829   319.722266   209.744850

                             ****ORCA TERMINATED NORMALLY****
TOTAL RUN TIME: 0 days 0 hours 0 minutes 22 seconds 639 msec
