                         Program Version 4.2.1 -  RELEASE  -
|  1> ! wB97X-D3 SP def2-SVP
|  2> %pal
|  3> nprocs 24
|  4> end
|  5>
|  6> * xyz 0 1
|  7> S 	 -36.3819 	 5.88895 	 17.8306
|  8> C 	 -35.9808 	 7.51854 	 17.5152
|  9> C 	 -36.1076 	 7.83291 	 16.1514
| 10> C 	 -36.6231 	 6.73038 	 15.4065
| 11> C 	 -36.8852 	 5.62398 	 16.212
| 12> H 	 -36.7839 	 6.69269 	 14.3596
| 13> C 	 -35.5834 	 9.18515 	 15.5271
| 14> H 	 -35.4372 	 9.88727 	 16.3747
| 15> H 	 -36.2717 	 9.5024 	 14.8216
| 16> C 	 -34.2127 	 9.10411 	 14.8768
| 17> H 	 -33.8964 	 10.2001 	 14.6663
| 18> H 	 -33.4038 	 8.72351 	 15.5496
| 19> C 	 -34.1197 	 8.22096 	 13.5468
| 20> H 	 -34.8802 	 8.55069 	 12.8283
| 21> H 	 -33.1236 	 8.26928 	 13.1859
| 22> H 	 -34.4088 	 7.20499 	 13.726
| 23> S 	 -38.0585 	 3.33013 	 17.1807
| 24> C 	 -38.5385 	 2.12797 	 16.0248
| 25> C 	 -38.0522 	 2.43833 	 14.7853
| 26> C 	 -37.3584 	 3.68054 	 14.6002
| 27> C 	 -37.4129 	 4.33678 	 15.8074
| 28> H 	 -38.0695 	 1.7248 	 13.9958
| 29> C 	 -36.9315 	 4.1165 	 13.2164
| 30> H 	 -36.2485 	 3.41908 	 12.657
| 31> H 	 -36.2595 	 4.88251 	 13.3788
| 32> C 	 -38.1891 	 4.53148 	 12.3467
| 33> H 	 -38.8073 	 5.32077 	 12.9913
| 34> H 	 -38.8261 	 3.64746 	 12.2243
| 35> C 	 -37.7336 	 4.98704 	 11.0104
| 36> H 	 -37.2386 	 5.98389 	 10.9953
| 37> H 	 -38.6882 	 5.17486 	 10.5144
| 38> H 	 -37.0576 	 4.27139 	 10.5192
| 39> H 	 -35.7208 	 8.21889 	 18.3684
| 40> H 	 -39.0524 	 1.14051 	 16.2797
| 41> *
| 42>
| 43>                          ****END OF INPUT****

CARTESIAN COORDINATES (ANGSTROEM)
---------------------------------
  S    -36.381900    5.888950   17.830600
  C    -35.980800    7.518540   17.515200
  C    -36.107600    7.832910   16.151400
  C    -36.623100    6.730380   15.406500
  C    -36.885200    5.623980   16.212000
  H    -36.783900    6.692690   14.359600
  C    -35.583400    9.185150   15.527100
  H    -35.437200    9.887270   16.374700
  H    -36.271700    9.502400   14.821600
  C    -34.212700    9.104110   14.876800
  H    -33.896400   10.200100   14.666300
  H    -33.403800    8.723510   15.549600
  C    -34.119700    8.220960   13.546800
  H    -34.880200    8.550690   12.828300
  H    -33.123600    8.269280   13.185900
  H    -34.408800    7.204990   13.726000
  S    -38.058500    3.330130   17.180700
  C    -38.538500    2.127970   16.024800
  C    -38.052200    2.438330   14.785300
  C    -37.358400    3.680540   14.600200
  C    -37.412900    4.336780   15.807400
  H    -38.069500    1.724800   13.995800
  C    -36.931500    4.116500   13.216400
  H    -36.248500    3.419080   12.657000
  H    -36.259500    4.882510   13.378800
  C    -38.189100    4.531480   12.346700
  H    -38.807300    5.320770   12.991300
  H    -38.826100    3.647460   12.224300
  C    -37.733600    4.987040   11.010400
  H    -37.238600    5.983890   10.995300
  H    -38.688200    5.174860   10.514400
  H    -37.057600    4.271390   10.519200
  H    -35.720800    8.218890   18.368400
  H    -39.052400    1.140510   16.279700

 Total Charge           Charge          ....    0
 Multiplicity           Mult            ....    1
 Number of Electrons    NEL             ....  134
 Basis Dimension        Dim             ....  322

ORBITAL ENERGIES
----------------

  NO   OCC          E(Eh)            E(eV)
   0   2.0000     -88.965346     -2420.8701
   1   2.0000     -88.963890     -2420.8305
   2   2.0000     -10.330510      -281.1075
   3   2.0000     -10.324464      -280.9429
   4   2.0000     -10.319270      -280.8016
   5   2.0000     -10.315181      -280.6903
   6   2.0000     -10.305138      -280.4171
   7   2.0000     -10.303148      -280.3629
   8   2.0000     -10.302993      -280.3587
   9   2.0000     -10.297816      -280.2178
  10   2.0000     -10.296844      -280.1914
  11   2.0000     -10.293770      -280.1077
  12   2.0000     -10.291343      -280.0417
  13   2.0000     -10.286472      -279.9091
  14   2.0000     -10.283877      -279.8385
  15   2.0000     -10.277357      -279.6611
  16   2.0000      -8.081501      -219.9088
  17   2.0000      -8.078214      -219.8194
  18   2.0000      -6.039801      -164.3513
  19   2.0000      -6.036899      -164.2724
  20   2.0000      -6.035790      -164.2422
  21   2.0000      -6.033041      -164.1674
  22   2.0000      -6.032435      -164.1509
  23   2.0000      -6.028551      -164.0452
  24   2.0000      -1.009525       -27.4706
  25   2.0000      -0.983449       -26.7610
  26   2.0000      -0.914182       -24.8761
  27   2.0000      -0.904324       -24.6079
  28   2.0000      -0.867366       -23.6022
  29   2.0000      -0.857438       -23.3321
  30   2.0000      -0.842668       -22.9302
  31   2.0000      -0.809146       -22.0180
  32   2.0000      -0.788900       -21.4671
  33   2.0000      -0.773659       -21.0523
  34   2.0000      -0.700347       -19.0574
  35   2.0000      -0.694517       -18.8988
  36   2.0000      -0.692419       -18.8417
  37   2.0000      -0.663569       -18.0566
  38   2.0000      -0.637018       -17.3342
  39   2.0000      -0.617789       -16.8109
  40   2.0000      -0.597490       -16.2585
  41   2.0000      -0.566719       -15.4212
  42   2.0000      -0.563745       -15.3403
  43   2.0000      -0.539913       -14.6918
  44   2.0000      -0.539037       -14.6680
  45   2.0000      -0.534702       -14.5500
  46   2.0000      -0.518290       -14.1034
  47   2.0000      -0.514579       -14.0024
  48   2.0000      -0.505406       -13.7528
  49   2.0000      -0.494245       -13.4491
  50   2.0000      -0.491602       -13.3772
  51   2.0000      -0.482423       -13.1274
  52   2.0000      -0.473172       -12.8757
  53   2.0000      -0.467510       -12.7216
  54   2.0000      -0.458150       -12.4669
  55   2.0000      -0.454373       -12.3641
  56   2.0000      -0.445044       -12.1103
  57   2.0000      -0.440869       -11.9966
  58   2.0000      -0.429343       -11.6830
  59   2.0000      -0.421926       -11.4812
  60   2.0000      -0.419463       -11.4142
  61   2.0000      -0.416111       -11.3230
  62   2.0000      -0.407800       -11.0968
  63   2.0000      -0.358314        -9.7502
  64   2.0000      -0.334516        -9.1026
  65   2.0000      -0.328217        -8.9312
  66   2.0000      -0.278971        -7.5912
  67   0.0000       0.022015         0.5991
  68   0.0000       0.079133         2.1533
  69   0.0000       0.099537         2.7085
  70   0.0000       0.120298         3.2735
  71   0.0000       0.124872         3.3979

MULLIKEN ATOMIC CHARGES
-----------------------
   0 S :    0.114736
   1 C :   -0.158080
   2 C :   -0.091970
   3 C :    0.002495
   4 C :   -0.118853
   5 H :   -0.012799
   6 C :    0.118028
   7 H :    0.028804
   8 H :    0.014108
   9 C :   -0.127745
  10 H :    0.041672
  11 H :    0.038331
  12 C :   -0.045034
  13 H :    0.023827
  14 H :    0.038897
  15 H :    0.032186
  16 S :    0.084222
  17 C :   -0.095104
  18 C :   -0.023056
  19 C :   -0.047937
  20 C :   -0.139843
  21 H :   -0.001599
  22 C :    0.080715
  23 H :    0.030816
  24 H :   -0.012879
  25 C :   -0.123644
  26 H :    0.059801
  27 H :    0.039418
  28 C :   -0.019786
  29 H :    0.032993
  30 H :    0.037120
  31 H :    0.041971
  32 H :    0.076098
  33 H :    0.082091
Sum of atomic charges:    0.0000000

LOEWDIN ATOMIC CHARGES
----------------------
   0 S :    0.436303
   1 C :   -0.227925
   2 C :   -0.059084
   3 C :   -0.072842
   4 C :   -0.199304
   5 H :    0.021273
   6 C :   -0.023150
   7 H :    0.037335
   8 H :    0.018789
   9 C :   -0.045148
  10 H :    0.030824
  11 H :    0.027095
  12 C :   -0.065379
  13 H :    0.022933
  14 H :    0.023863
  15 H :    0.020138
  16 S :    0.367976
  17 C :   -0.199968
  18 C :   -0.069886
  19 C :   -0.052190
  20 C :   -0.164587
  21 H :    0.020714
  22 C :   -0.033913
  23 H :    0.038621
  24 H :    0.013692
  25 C :   -0.041332
  26 H :    0.042093
  27 H :    0.026407
  28 C :   -0.072578
  29 H :    0.028355
  30 H :    0.032393
  31 H :    0.029853
  32 H :    0.040783
  33 H :    0.047845

  Mayer bond orders larger than 0.100000
B(  0-S ,  1-C ) :   1.1587 B(  0-S ,  4-C ) :   1.1740 B(  1-C ,  2-C ) :   1.5803
B(  1-C , 32-H ) :   0.9603 B(  2-C ,  3-C ) :   1.2701 B(  2-C ,  6-C ) :   1.0179
B(  3-C ,  4-C ) :   1.5313 B(  3-C ,  5-H ) :   1.0000 B(  4-C , 20-C ) :   1.0789
B(  6-C ,  7-H ) :   0.9401 B(  6-C ,  8-H ) :   0.9394 B(  6-C ,  9-C ) :   1.0711
B(  9-C , 10-H ) :   0.9564 B(  9-C , 11-H ) :   0.9557 B(  9-C , 12-C ) :   1.0686
B( 12-C , 13-H ) :   0.9762 B( 12-C , 14-H ) :   0.9745 B( 12-C , 15-H ) :   0.9740
B( 16-S , 17-C ) :   1.1221 B( 16-S , 20-C ) :   1.1204 B( 17-C , 18-C ) :   1.6420
B( 17-C , 33-H ) :   0.9577 B( 18-C , 19-C ) :   1.2085 B( 18-C , 21-H ) :   0.9858
B( 19-C , 20-C ) :   1.6191 B( 19-C , 22-C ) :   1.0514 B( 22-C , 23-H ) :   0.9275
B( 22-C , 24-H ) :   0.9239 B( 22-C , 25-C ) :   1.0434 B( 25-C , 26-H ) :   0.9510
B( 25-C , 27-H ) :   0.9547 B( 25-C , 28-C ) :   1.0810 B( 28-C , 29-H ) :   0.9723
B( 28-C , 30-H ) :   0.9695 B( 28-C , 31-H ) :   0.9679

Dispersion correction           -0.014748766
FINAL SINGLE POINT ENERGY     -1339.865385042813

DIPOLE MOMENT
-------------
                                X             Y             Z
Electronic contribution:     -7.63285     -13.01836      27.49001
Nuclear contribution   :      7.80752      13.14137     -28.18285
                        -----------------------------------------
Total Dipole Moment    :      0.17467       0.12301      -0.69284
                        -----------------------------------------
Magnitude (a.u.)       :      0.72503
Magnitude (Debye)      :      1.84287

Rotational constants in cm-1:     0.016603     0.010539     0.006803
Rotational constants in MHz :   497.748241   315.961049   203.939753

                             ****ORCA TERMINATED NORMALLY****
TOTAL RUN TIME: 0 days 0 hours 0 minutes 21 seconds 44 msec
