                         Program Version 4.2.1 -  RELEASE  -
|  1> ! wB97X-D3 SP def2-SVP
|  2> %pal
|  3> nprocs 24
|  4> end
|  5>
|  6> * xyz 0 1
|  7> S 	 30.695 	 -30.2736 	 -133.452
|  8> C 	 30.9697 	 -28.5501 	 -133.694
|  9> C 	 31.873 	 -28.0911 	 -132.768
| 10> C 	 32.3009 	 -29.0506 	 -131.805
| 11> C 	 31.547 	 -30.1729 	 -131.841
| 12> H 	 32.9918 	 -28.9043 	 -131.049
| 13> C 	 32.4171 	 -26.6883 	 -132.814
| 14> H 	 31.9746 	 -26.0735 	 -132.035
| 15> H 	 32.0379 	 -26.1376 	 -133.734
| 16> C 	 33.9256 	 -26.6378 	 -132.658
| 17> H 	 34.2815 	 -27.3095 	 -131.852
| 18> H 	 34.3683 	 -26.9178 	 -133.629
| 19> C 	 34.5562 	 -25.2084 	 -132.444
| 20> H 	 34.0887 	 -24.6681 	 -133.219
| 21> H 	 34.3962 	 -24.8195 	 -131.458
| 22> H 	 35.585 	 -25.2635 	 -132.578
| 23> S 	 31.98 	 -32.7901 	 -131.424
| 24> C 	 31.9015 	 -33.534 	 -129.889
| 25> C 	 31.7013 	 -32.5556 	 -128.96
| 26> C 	 31.6321 	 -31.2348 	 -129.519
| 27> C 	 31.5947 	 -31.2591 	 -130.881
| 28> H 	 31.67 	 -32.8303 	 -127.882
| 29> C 	 31.5585 	 -30.0242 	 -128.625
| 30> H 	 30.7429 	 -30.2291 	 -127.92
| 31> H 	 31.2083 	 -29.091 	 -129.011
| 32> C 	 32.7477 	 -29.7293 	 -127.789
| 33> H 	 33.3446 	 -29.0112 	 -128.282
| 34> H 	 33.4102 	 -30.637 	 -127.753
| 35> C 	 32.3838 	 -29.3621 	 -126.401
| 36> H 	 33.3013 	 -29.289 	 -125.864
| 37> H 	 31.7457 	 -30.1425 	 -125.983
| 38> H 	 32.0349 	 -28.3407 	 -126.191
| 39> H 	 30.5582 	 -27.8383 	 -134.479
| 40> H 	 31.9875 	 -34.6071 	 -129.754
| 41> *
| 42>
| 43>                          ****END OF INPUT****

CARTESIAN COORDINATES (ANGSTROEM)
---------------------------------
  S     30.695000  -30.273600  -133.452000
  C     30.969700  -28.550100  -133.694000
  C     31.873000  -28.091100  -132.768000
  C     32.300900  -29.050600  -131.805000
  C     31.547000  -30.172900  -131.841000
  H     32.991800  -28.904300  -131.049000
  C     32.417100  -26.688300  -132.814000
  H     31.974600  -26.073500  -132.035000
  H     32.037900  -26.137600  -133.734000
  C     33.925600  -26.637800  -132.658000
  H     34.281500  -27.309500  -131.852000
  H     34.368300  -26.917800  -133.629000
  C     34.556200  -25.208400  -132.444000
  H     34.088700  -24.668100  -133.219000
  H     34.396200  -24.819500  -131.458000
  H     35.585000  -25.263500  -132.578000
  S     31.980000  -32.790100  -131.424000
  C     31.901500  -33.534000  -129.889000
  C     31.701300  -32.555600  -128.960000
  C     31.632100  -31.234800  -129.519000
  C     31.594700  -31.259100  -130.881000
  H     31.670000  -32.830300  -127.882000
  C     31.558500  -30.024200  -128.625000
  H     30.742900  -30.229100  -127.920000
  H     31.208300  -29.091000  -129.011000
  C     32.747700  -29.729300  -127.789000
  H     33.344600  -29.011200  -128.282000
  H     33.410200  -30.637000  -127.753000
  C     32.383800  -29.362100  -126.401000
  H     33.301300  -29.289000  -125.864000
  H     31.745700  -30.142500  -125.983000
  H     32.034900  -28.340700  -126.191000
  H     30.558200  -27.838300  -134.479000
  H     31.987500  -34.607100  -129.754000

 Total Charge           Charge          ....    0
 Multiplicity           Mult            ....    1
 Number of Electrons    NEL             ....  134
 Basis Dimension        Dim             ....  322

ORBITAL ENERGIES
----------------

  NO   OCC          E(Eh)            E(eV)
   0   2.0000     -88.964278     -2420.8411
   1   2.0000     -88.958193     -2420.6755
   2   2.0000     -10.331777      -281.1419
   3   2.0000     -10.317571      -280.7554
   4   2.0000     -10.317034      -280.7408
   5   2.0000     -10.313378      -280.6413
   6   2.0000     -10.300940      -280.3028
   7   2.0000     -10.297361      -280.2054
   8   2.0000     -10.295534      -280.1557
   9   2.0000     -10.293696      -280.1057
  10   2.0000     -10.290120      -280.0084
  11   2.0000     -10.288769      -279.9716
  12   2.0000     -10.280413      -279.7443
  13   2.0000     -10.278255      -279.6855
  14   2.0000     -10.274280      -279.5774
  15   2.0000     -10.270780      -279.4821
  16   2.0000      -8.077794      -219.8080
  17   2.0000      -8.075851      -219.7551
  18   2.0000      -6.036572      -164.2635
  19   2.0000      -6.034188      -164.1986
  20   2.0000      -6.032798      -164.1608
  21   2.0000      -6.029869      -164.0811
  22   2.0000      -6.027990      -164.0299
  23   2.0000      -6.026674      -163.9941
  24   2.0000      -1.020544       -27.7704
  25   2.0000      -0.988347       -26.8943
  26   2.0000      -0.924690       -25.1621
  27   2.0000      -0.910537       -24.7770
  28   2.0000      -0.876187       -23.8423
  29   2.0000      -0.856132       -23.2965
  30   2.0000      -0.845199       -22.9990
  31   2.0000      -0.823150       -22.3991
  32   2.0000      -0.785058       -21.3625
  33   2.0000      -0.773150       -21.0385
  34   2.0000      -0.711654       -19.3651
  35   2.0000      -0.699477       -19.0337
  36   2.0000      -0.687720       -18.7138
  37   2.0000      -0.665064       -18.0973
  38   2.0000      -0.638595       -17.3771
  39   2.0000      -0.629558       -17.1311
  40   2.0000      -0.610735       -16.6189
  41   2.0000      -0.573160       -15.5965
  42   2.0000      -0.567500       -15.4425
  43   2.0000      -0.565722       -15.3941
  44   2.0000      -0.530407       -14.4331
  45   2.0000      -0.526726       -14.3329
  46   2.0000      -0.522369       -14.2144
  47   2.0000      -0.512931       -13.9576
  48   2.0000      -0.510752       -13.8983
  49   2.0000      -0.506042       -13.7701
  50   2.0000      -0.497906       -13.5487
  51   2.0000      -0.487438       -13.2639
  52   2.0000      -0.471196       -12.8219
  53   2.0000      -0.465899       -12.6777
  54   2.0000      -0.461785       -12.5658
  55   2.0000      -0.452093       -12.3021
  56   2.0000      -0.447016       -12.1639
  57   2.0000      -0.440063       -11.9747
  58   2.0000      -0.433665       -11.8006
  59   2.0000      -0.421885       -11.4801
  60   2.0000      -0.416267       -11.3272
  61   2.0000      -0.410877       -11.1805
  62   2.0000      -0.405776       -11.0417
  63   2.0000      -0.353765        -9.6264
  64   2.0000      -0.328497        -8.9388
  65   2.0000      -0.323893        -8.8136
  66   2.0000      -0.294009        -8.0004
  67   0.0000       0.029020         0.7897
  68   0.0000       0.075155         2.0451
  69   0.0000       0.108966         2.9651
  70   0.0000       0.124361         3.3840
  71   0.0000       0.130850         3.5606

MULLIKEN ATOMIC CHARGES
-----------------------
   0 S :    0.096328
   1 C :   -0.131325
   2 C :   -0.073337
   3 C :    0.063055
   4 C :   -0.137991
   5 H :   -0.015343
   6 C :    0.072724
   7 H :    0.026659
   8 H :    0.018275
   9 C :   -0.147659
  10 H :    0.042730
  11 H :    0.035940
  12 C :    0.001091
  13 H :    0.022238
  14 H :    0.028891
  15 H :    0.022628
  16 S :    0.101704
  17 C :   -0.093588
  18 C :   -0.047544
  19 C :   -0.041545
  20 C :   -0.130206
  21 H :    0.031466
  22 C :    0.067483
  23 H :    0.016860
  24 H :    0.015105
  25 C :   -0.069961
  26 H :    0.012318
  27 H :    0.032278
  28 C :   -0.035861
  29 H :    0.014863
  30 H :    0.038125
  31 H :    0.031761
  32 H :    0.068859
  33 H :    0.062977
Sum of atomic charges:   -0.0000000

LOEWDIN ATOMIC CHARGES
----------------------
   0 S :    0.359919
   1 C :   -0.203484
   2 C :   -0.064670
   3 C :   -0.047208
   4 C :   -0.153895
   5 H :    0.019591
   6 C :   -0.040169
   7 H :    0.027236
   8 H :    0.032390
   9 C :   -0.040996
  10 H :    0.023447
  11 H :    0.028607
  12 C :   -0.050745
  13 H :    0.021002
  14 H :    0.020351
  15 H :    0.018984
  16 S :    0.449248
  17 C :   -0.197153
  18 C :   -0.075974
  19 C :   -0.059310
  20 C :   -0.223669
  21 H :    0.037454
  22 C :   -0.038455
  23 H :    0.033086
  24 H :    0.027188
  25 C :   -0.044359
  26 H :    0.015667
  27 H :    0.029932
  28 C :   -0.065435
  29 H :    0.024953
  30 H :    0.027331
  31 H :    0.028432
  32 H :    0.047618
  33 H :    0.033087

  Mayer bond orders larger than 0.100000
B(  0-S ,  1-C ) :   1.1065 B(  0-S ,  4-C ) :   1.1174 B(  1-C ,  2-C ) :   1.6610
B(  1-C , 32-H ) :   0.9560 B(  2-C ,  3-C ) :   1.1901 B(  2-C ,  6-C ) :   1.0281
B(  3-C ,  4-C ) :   1.6091 B(  3-C ,  5-H ) :   1.0036 B(  4-C , 20-C ) :   1.0374
B(  6-C ,  7-H ) :   0.9352 B(  6-C ,  8-H ) :   0.9370 B(  6-C ,  9-C ) :   1.0563
B(  9-C , 10-H ) :   0.9574 B(  9-C , 11-H ) :   0.9586 B(  9-C , 12-C ) :   1.0771
B( 12-C , 13-H ) :   0.9764 B( 12-C , 14-H ) :   0.9772 B( 12-C , 15-H ) :   0.9757
B( 16-S , 17-C ) :   1.1699 B( 16-S , 20-C ) :   1.1700 B( 17-C , 18-C ) :   1.5804
B( 17-C , 33-H ) :   0.9746 B( 18-C , 19-C ) :   1.2435 B( 18-C , 21-H ) :   0.9893
B( 19-C , 20-C ) :   1.5896 B( 19-C , 22-C ) :   1.0483 B( 22-C , 23-H ) :   0.9435
B( 22-C , 24-H ) :   0.9299 B( 22-C , 25-C ) :   1.0470 B( 25-C , 26-H ) :   0.9448
B( 25-C , 27-H ) :   0.9603 B( 25-C , 28-C ) :   1.0957 B( 28-C , 29-H ) :   0.9650
B( 28-C , 30-H ) :   0.9726 B( 28-C , 31-H ) :   0.9703

Dispersion correction           -0.013864712
FINAL SINGLE POINT ENERGY     -1339.854693337812

DIPOLE MOMENT
-------------
                                X             Y             Z
Electronic contribution:    -11.95681     -24.07952     -15.92669
Nuclear contribution   :     12.33250      24.58787      16.46323
                        -----------------------------------------
Total Dipole Moment    :      0.37569       0.50835       0.53654
                        -----------------------------------------
Magnitude (a.u.)       :      0.82912
Magnitude (Debye)      :      2.10746

Rotational constants in cm-1:     0.016363     0.009386     0.006586
Rotational constants in MHz :   490.555266   281.397620   197.444358

                             ****ORCA TERMINATED NORMALLY****
TOTAL RUN TIME: 0 days 0 hours 0 minutes 20 seconds 599 msec
