                         Program Version 4.2.1 -  RELEASE  -
|  1> ! wB97X-D3 SP def2-SVP
|  2> %pal
|  3> nprocs 24
|  4> end
|  5>
|  6> * xyz 0 1
|  7> S 	 -108.073 	 27.7555 	 -115.898
|  8> C 	 -108.111 	 29.4508 	 -115.421
|  9> C 	 -107.874 	 30.3431 	 -116.509
| 10> C 	 -107.641 	 29.5269 	 -117.698
| 11> C 	 -107.737 	 28.1213 	 -117.591
| 12> H 	 -107.348 	 29.8278 	 -118.707
| 13> C 	 -107.664 	 31.8684 	 -116.486
| 14> H 	 -107.057 	 32.1516 	 -117.307
| 15> H 	 -106.986 	 32.0664 	 -115.657
| 16> C 	 -108.975 	 32.7948 	 -116.22
| 17> H 	 -109.63 	 32.357 	 -115.557
| 18> H 	 -108.494 	 33.74 	 -115.944
| 19> C 	 -109.788 	 32.9098 	 -117.436
| 20> H 	 -109.297 	 33.2983 	 -118.31
| 21> H 	 -110.103 	 31.8931 	 -117.841
| 22> H 	 -110.653 	 33.5515 	 -117.302
| 23> S 	 -106.092 	 26.0276 	 -118.333
| 24> C 	 -106.236 	 25.4116 	 -119.987
| 25> C 	 -107.184 	 26.1338 	 -120.682
| 26> C 	 -107.882 	 27.1069 	 -119.933
| 27> C 	 -107.379 	 27.1711 	 -118.662
| 28> H 	 -107.281 	 25.8374 	 -121.704
| 29> C 	 -108.97 	 28.0164 	 -120.491
| 30> H 	 -108.813 	 28.3274 	 -121.51
| 31> H 	 -109.036 	 28.9318 	 -119.993
| 32> C 	 -110.371 	 27.3156 	 -120.424
| 33> H 	 -110.264 	 26.4023 	 -121.031
| 34> H 	 -110.924 	 27.9715 	 -121.089
| 35> C 	 -111.119 	 27.2634 	 -119.103
| 36> H 	 -111.45 	 28.2735 	 -118.827
| 37> H 	 -110.472 	 26.9196 	 -118.222
| 38> H 	 -112.017 	 26.5695 	 -119.123
| 39> H 	 -108.153 	 29.8506 	 -114.412
| 40> H 	 -105.623 	 24.5763 	 -120.432
| 41> *
| 42>
| 43>                          ****END OF INPUT****

CARTESIAN COORDINATES (ANGSTROEM)
---------------------------------
  S    -108.073000   27.755500  -115.898000
  C    -108.111000   29.450800  -115.421000
  C    -107.874000   30.343100  -116.509000
  C    -107.641000   29.526900  -117.698000
  C    -107.737000   28.121300  -117.591000
  H    -107.348000   29.827800  -118.707000
  C    -107.664000   31.868400  -116.486000
  H    -107.057000   32.151600  -117.307000
  H    -106.986000   32.066400  -115.657000
  C    -108.975000   32.794800  -116.220000
  H    -109.630000   32.357000  -115.557000
  H    -108.494000   33.740000  -115.944000
  C    -109.788000   32.909800  -117.436000
  H    -109.297000   33.298300  -118.310000
  H    -110.103000   31.893100  -117.841000
  H    -110.653000   33.551500  -117.302000
  S    -106.092000   26.027600  -118.333000
  C    -106.236000   25.411600  -119.987000
  C    -107.184000   26.133800  -120.682000
  C    -107.882000   27.106900  -119.933000
  C    -107.379000   27.171100  -118.662000
  H    -107.281000   25.837400  -121.704000
  C    -108.970000   28.016400  -120.491000
  H    -108.813000   28.327400  -121.510000
  H    -109.036000   28.931800  -119.993000
  C    -110.371000   27.315600  -120.424000
  H    -110.264000   26.402300  -121.031000
  H    -110.924000   27.971500  -121.089000
  C    -111.119000   27.263400  -119.103000
  H    -111.450000   28.273500  -118.827000
  H    -110.472000   26.919600  -118.222000
  H    -112.017000   26.569500  -119.123000
  H    -108.153000   29.850600  -114.412000
  H    -105.623000   24.576300  -120.432000

 Total Charge           Charge          ....    0
 Multiplicity           Mult            ....    1
 Number of Electrons    NEL             ....  134
 Basis Dimension        Dim             ....  322

ORBITAL ENERGIES
----------------

  NO   OCC          E(Eh)            E(eV)
   0   2.0000     -88.971249     -2421.0308
   1   2.0000     -88.966391     -2420.8986
   2   2.0000     -10.331546      -281.1357
   3   2.0000     -10.327572      -281.0275
   4   2.0000     -10.321559      -280.8639
   5   2.0000     -10.321193      -280.8539
   6   2.0000     -10.313204      -280.6365
   7   2.0000     -10.302686      -280.3503
   8   2.0000     -10.298234      -280.2292
   9   2.0000     -10.298037      -280.2238
  10   2.0000     -10.291578      -280.0481
  11   2.0000     -10.287908      -279.9482
  12   2.0000     -10.287632      -279.9407
  13   2.0000     -10.284502      -279.8555
  14   2.0000     -10.283081      -279.8169
  15   2.0000     -10.273774      -279.5636
  16   2.0000      -8.084649      -219.9945
  17   2.0000      -8.080826      -219.8904
  18   2.0000      -6.043268      -164.4457
  19   2.0000      -6.039292      -164.3375
  20   2.0000      -6.039165      -164.3340
  21   2.0000      -6.035546      -164.2356
  22   2.0000      -6.035466      -164.2334
  23   2.0000      -6.031547      -164.1267
  24   2.0000      -1.003020       -27.2936
  25   2.0000      -0.976564       -26.5737
  26   2.0000      -0.909094       -24.7377
  27   2.0000      -0.905044       -24.6275
  28   2.0000      -0.867356       -23.6020
  29   2.0000      -0.848508       -23.0891
  30   2.0000      -0.844732       -22.9863
  31   2.0000      -0.809230       -22.0203
  32   2.0000      -0.784166       -21.3382
  33   2.0000      -0.774034       -21.0625
  34   2.0000      -0.705472       -19.1969
  35   2.0000      -0.698398       -19.0044
  36   2.0000      -0.690259       -18.7829
  37   2.0000      -0.657543       -17.8926
  38   2.0000      -0.639690       -17.4068
  39   2.0000      -0.611997       -16.6533
  40   2.0000      -0.597383       -16.2556
  41   2.0000      -0.578925       -15.7533
  42   2.0000      -0.547192       -14.8899
  43   2.0000      -0.543435       -14.7876
  44   2.0000      -0.541058       -14.7229
  45   2.0000      -0.532746       -14.4968
  46   2.0000      -0.521617       -14.1939
  47   2.0000      -0.508674       -13.8417
  48   2.0000      -0.499040       -13.5796
  49   2.0000      -0.496159       -13.5012
  50   2.0000      -0.482833       -13.1386
  51   2.0000      -0.476216       -12.9585
  52   2.0000      -0.473108       -12.8739
  53   2.0000      -0.465191       -12.6585
  54   2.0000      -0.461074       -12.5464
  55   2.0000      -0.443358       -12.0644
  56   2.0000      -0.438389       -11.9292
  57   2.0000      -0.435541       -11.8517
  58   2.0000      -0.430124       -11.7043
  59   2.0000      -0.425876       -11.5887
  60   2.0000      -0.422930       -11.5085
  61   2.0000      -0.416233       -11.3263
  62   2.0000      -0.405611       -11.0372
  63   2.0000      -0.342831        -9.3289
  64   2.0000      -0.332820        -9.0565
  65   2.0000      -0.326607        -8.8874
  66   2.0000      -0.292736        -7.9658
  67   0.0000       0.028405         0.7729
  68   0.0000       0.067513         1.8371
  69   0.0000       0.111477         3.0334
  70   0.0000       0.119806         3.2601
  71   0.0000       0.125767         3.4223

MULLIKEN ATOMIC CHARGES
-----------------------
   0 S :    0.120212
   1 C :   -0.119757
   2 C :   -0.088677
   3 C :    0.019156
   4 C :   -0.179626
   5 H :    0.017305
   6 C :    0.041143
   7 H :    0.018594
   8 H :    0.028946
   9 C :   -0.004842
  10 H :    0.022929
  11 H :    0.037843
  12 C :   -0.064444
  13 H :    0.010398
  14 H :    0.034926
  15 H :    0.034642
  16 S :    0.112375
  17 C :   -0.121931
  18 C :   -0.039814
  19 C :    0.000377
  20 C :   -0.171911
  21 H :    0.009206
  22 C :    0.110938
  23 H :    0.016905
  24 H :   -0.008574
  25 C :   -0.078286
  26 H :    0.026414
  27 H :    0.017014
  28 C :   -0.054512
  29 H :    0.032703
  30 H :    0.044150
  31 H :    0.047685
  32 H :    0.051861
  33 H :    0.076650
Sum of atomic charges:   -0.0000000

LOEWDIN ATOMIC CHARGES
----------------------
   0 S :    0.403915
   1 C :   -0.200173
   2 C :   -0.062381
   3 C :   -0.065500
   4 C :   -0.204170
   5 H :    0.027465
   6 C :   -0.028493
   7 H :    0.026799
   8 H :    0.033137
   9 C :   -0.023506
  10 H :    0.019549
  11 H :    0.029832
  12 C :   -0.073002
  13 H :    0.016992
  14 H :    0.033286
  15 H :    0.024689
  16 S :    0.396048
  17 C :   -0.188040
  18 C :   -0.069987
  19 C :   -0.054647
  20 C :   -0.194962
  21 H :    0.028913
  22 C :   -0.020707
  23 H :    0.031030
  24 H :    0.018305
  25 C :   -0.042364
  26 H :    0.023386
  27 H :    0.021989
  28 C :   -0.075127
  29 H :    0.027029
  30 H :    0.031734
  31 H :    0.035467
  32 H :    0.030234
  33 H :    0.043262

  Mayer bond orders larger than 0.100000
B(  0-S ,  1-C ) :   1.1585 B(  0-S ,  4-C ) :   1.1322 B(  1-C ,  2-C ) :   1.5824
B(  1-C ,  4-C ) :   0.1012 B(  1-C , 32-H ) :   0.9646 B(  2-C ,  3-C ) :   1.2469
B(  2-C ,  6-C ) :   1.0160 B(  3-C ,  4-C ) :   1.5791 B(  3-C ,  5-H ) :   0.9782
B(  4-C , 20-C ) :   1.0350 B(  6-C ,  7-H ) :   0.9497 B(  6-C ,  8-H ) :   0.9435
B(  6-C ,  9-C ) :   1.0500 B(  9-C , 10-H ) :   0.9595 B(  9-C , 11-H ) :   0.9551
B(  9-C , 12-C ) :   1.0857 B( 12-C , 13-H ) :   0.9726 B( 12-C , 14-H ) :   0.9715
B( 12-C , 15-H ) :   0.9717 B( 16-S , 17-C ) :   1.1378 B( 16-S , 20-C ) :   1.1454
B( 17-C , 18-C ) :   1.6333 B( 17-C , 33-H ) :   0.9601 B( 18-C , 19-C ) :   1.2171
B( 18-C , 21-H ) :   0.9941 B( 19-C , 20-C ) :   1.6032 B( 19-C , 22-C ) :   1.0453
B( 22-C , 23-H ) :   0.9357 B( 22-C , 24-H ) :   0.9220 B( 22-C , 25-C ) :   1.0757
B( 25-C , 26-H ) :   0.9592 B( 25-C , 27-H ) :   0.9543 B( 25-C , 28-C ) :   1.0703
B( 28-C , 29-H ) :   0.9715 B( 28-C , 30-H ) :   0.9732 B( 28-C , 31-H ) :   0.9720

Dispersion correction           -0.015048840
FINAL SINGLE POINT ENERGY     -1339.862220610147

DIPOLE MOMENT
-------------
                                X             Y             Z
Electronic contribution:     17.03237     -19.88324       7.52392
Nuclear contribution   :    -17.08788      20.45834      -7.92091
                        -----------------------------------------
Total Dipole Moment    :     -0.05551       0.57509      -0.39699
                        -----------------------------------------
Magnitude (a.u.)       :      0.70101
Magnitude (Debye)      :      1.78183

Rotational constants in cm-1:     0.019826     0.008719     0.007316
Rotational constants in MHz :   594.383117   261.401697   219.337686

                             ****ORCA TERMINATED NORMALLY****
TOTAL RUN TIME: 0 days 0 hours 0 minutes 20 seconds 971 msec
