                         Program Version 4.2.1 -  RELEASE  -
|  1> ! wB97X-D3 SP def2-SVP
|  2> %pal
|  3> nprocs 24
|  4> end
|  5>
|  6> * xyz 0 1
|  7> S 	 -118.254 	 16.453 	 -113.855
|  8> C 	 -116.609 	 16.6904 	 -114.38
|  9> C 	 -116.18 	 15.5465 	 -115.063
| 10> C 	 -117.161 	 14.4886 	 -115.122
| 11> C 	 -118.394 	 14.8646 	 -114.518
| 12> H 	 -117.001 	 13.4845 	 -115.502
| 13> C 	 -114.881 	 15.4836 	 -115.788
| 14> H 	 -114.743 	 16.4043 	 -116.196
| 15> H 	 -115.025 	 14.7668 	 -116.625
| 16> C 	 -113.48 	 15.2592 	 -115.082
| 17> H 	 -113.217 	 16.0042 	 -114.333
| 18> H 	 -113.549 	 14.3606 	 -114.55
| 19> C 	 -112.365 	 14.9799 	 -116.145
| 20> H 	 -112.583 	 14.2497 	 -116.868
| 21> H 	 -112.244 	 15.8695 	 -116.694
| 22> H 	 -111.393 	 14.7413 	 -115.719
| 23> S 	 -120.525 	 14.1778 	 -112.91
| 24> C 	 -121.623 	 12.8996 	 -113.32
| 25> C 	 -121.15 	 12.2333 	 -114.45
| 26> C 	 -119.997 	 12.8225 	 -115.02
| 27> C 	 -119.514 	 13.9342 	 -114.32
| 28> H 	 -121.743 	 11.3712 	 -114.81
| 29> C 	 -119.365 	 12.0533 	 -116.158
| 30> H 	 -118.707 	 12.6173 	 -116.795
| 31> H 	 -120.242 	 11.7398 	 -116.708
| 32> C 	 -118.703 	 10.7469 	 -115.784
| 33> H 	 -119.406 	 10.0087 	 -115.418
| 34> H 	 -117.836 	 10.7097 	 -115.06
| 35> C 	 -118.187 	 10.0651 	 -117.091
| 36> H 	 -117.699 	 9.12696 	 -116.889
| 37> H 	 -117.263 	 10.6627 	 -117.281
| 38> H 	 -119.028 	 10.1125 	 -117.836
| 39> H 	 -115.966 	 17.563 	 -114.317
| 40> H 	 -122.445 	 12.5272 	 -112.724
| 41> *
| 42>
| 43>                          ****END OF INPUT****

CARTESIAN COORDINATES (ANGSTROEM)
---------------------------------
  S    -118.254000   16.453000  -113.855000
  C    -116.609000   16.690400  -114.380000
  C    -116.180000   15.546500  -115.063000
  C    -117.161000   14.488600  -115.122000
  C    -118.394000   14.864600  -114.518000
  H    -117.001000   13.484500  -115.502000
  C    -114.881000   15.483600  -115.788000
  H    -114.743000   16.404300  -116.196000
  H    -115.025000   14.766800  -116.625000
  C    -113.480000   15.259200  -115.082000
  H    -113.217000   16.004200  -114.333000
  H    -113.549000   14.360600  -114.550000
  C    -112.365000   14.979900  -116.145000
  H    -112.583000   14.249700  -116.868000
  H    -112.244000   15.869500  -116.694000
  H    -111.393000   14.741300  -115.719000
  S    -120.525000   14.177800  -112.910000
  C    -121.623000   12.899600  -113.320000
  C    -121.150000   12.233300  -114.450000
  C    -119.997000   12.822500  -115.020000
  C    -119.514000   13.934200  -114.320000
  H    -121.743000   11.371200  -114.810000
  C    -119.365000   12.053300  -116.158000
  H    -118.707000   12.617300  -116.795000
  H    -120.242000   11.739800  -116.708000
  C    -118.703000   10.746900  -115.784000
  H    -119.406000   10.008700  -115.418000
  H    -117.836000   10.709700  -115.060000
  C    -118.187000   10.065100  -117.091000
  H    -117.699000    9.126960  -116.889000
  H    -117.263000   10.662700  -117.281000
  H    -119.028000   10.112500  -117.836000
  H    -115.966000   17.563000  -114.317000
  H    -122.445000   12.527200  -112.724000

 Total Charge           Charge          ....    0
 Multiplicity           Mult            ....    1
 Number of Electrons    NEL             ....  134
 Basis Dimension        Dim             ....  322

ORBITAL ENERGIES
----------------

  NO   OCC          E(Eh)            E(eV)
   0   2.0000     -88.972604     -2421.0676
   1   2.0000     -88.965495     -2420.8742
   2   2.0000     -10.336708      -281.2761
   3   2.0000     -10.333196      -281.1806
   4   2.0000     -10.317777      -280.7610
   5   2.0000     -10.315708      -280.7047
   6   2.0000     -10.304555      -280.4012
   7   2.0000     -10.302935      -280.3571
   8   2.0000     -10.298648      -280.2404
   9   2.0000     -10.295759      -280.1619
  10   2.0000     -10.291739      -280.0525
  11   2.0000     -10.289455      -279.9903
  12   2.0000     -10.287675      -279.9419
  13   2.0000     -10.286011      -279.8966
  14   2.0000     -10.285046      -279.8703
  15   2.0000     -10.273194      -279.5478
  16   2.0000      -8.087033      -220.0594
  17   2.0000      -8.080428      -219.8796
  18   2.0000      -6.045607      -164.5093
  19   2.0000      -6.041396      -164.3947
  20   2.0000      -6.038881      -164.3263
  21   2.0000      -6.037905      -164.2998
  22   2.0000      -6.034808      -164.2155
  23   2.0000      -6.031326      -164.1207
  24   2.0000      -1.007426       -27.4135
  25   2.0000      -0.985837       -26.8260
  26   2.0000      -0.917243       -24.9595
  27   2.0000      -0.909031       -24.7360
  28   2.0000      -0.869176       -23.6515
  29   2.0000      -0.854376       -23.2488
  30   2.0000      -0.848016       -23.0757
  31   2.0000      -0.813737       -22.1429
  32   2.0000      -0.780819       -21.2472
  33   2.0000      -0.772491       -21.0206
  34   2.0000      -0.713321       -19.4105
  35   2.0000      -0.704498       -19.1704
  36   2.0000      -0.692056       -18.8318
  37   2.0000      -0.665064       -18.0973
  38   2.0000      -0.636558       -17.3216
  39   2.0000      -0.622485       -16.9387
  40   2.0000      -0.599727       -16.3194
  41   2.0000      -0.575524       -15.6608
  42   2.0000      -0.570211       -15.5162
  43   2.0000      -0.561773       -15.2866
  44   2.0000      -0.526586       -14.3291
  45   2.0000      -0.524623       -14.2757
  46   2.0000      -0.516864       -14.0646
  47   2.0000      -0.514456       -13.9990
  48   2.0000      -0.507257       -13.8032
  49   2.0000      -0.503009       -13.6876
  50   2.0000      -0.496979       -13.5235
  51   2.0000      -0.482470       -13.1287
  52   2.0000      -0.472019       -12.8443
  53   2.0000      -0.464734       -12.6461
  54   2.0000      -0.461681       -12.5630
  55   2.0000      -0.453162       -12.3312
  56   2.0000      -0.447521       -12.1777
  57   2.0000      -0.442041       -12.0285
  58   2.0000      -0.437260       -11.8984
  59   2.0000      -0.422042       -11.4843
  60   2.0000      -0.418275       -11.3818
  61   2.0000      -0.413592       -11.2544
  62   2.0000      -0.408452       -11.1146
  63   2.0000      -0.358274        -9.7491
  64   2.0000      -0.331164        -9.0114
  65   2.0000      -0.327464        -8.9107
  66   2.0000      -0.283388        -7.7114
  67   0.0000       0.020059         0.5458
  68   0.0000       0.082045         2.2326
  69   0.0000       0.109113         2.9691
  70   0.0000       0.112511         3.0616
  71   0.0000       0.124230         3.3805

MULLIKEN ATOMIC CHARGES
-----------------------
   0 S :    0.126047
   1 C :   -0.110332
   2 C :   -0.078264
   3 C :   -0.002937
   4 C :   -0.111986
   5 H :    0.013188
   6 C :    0.050923
   7 H :    0.000678
   8 H :    0.024632
   9 C :   -0.039548
  10 H :    0.032586
  11 H :    0.013719
  12 C :   -0.030399
  13 H :    0.019848
  14 H :    0.011825
  15 H :    0.034017
  16 S :    0.097737
  17 C :   -0.090083
  18 C :   -0.071055
  19 C :   -0.012467
  20 C :   -0.137430
  21 H :    0.034049
  22 C :    0.066337
  23 H :    0.020152
  24 H :    0.020112
  25 C :   -0.099559
  26 H :    0.022711
  27 H :    0.039007
  28 C :   -0.058509
  29 H :    0.029475
  30 H :    0.024343
  31 H :    0.051020
  32 H :    0.049488
  33 H :    0.060675
Sum of atomic charges:   -0.0000000

LOEWDIN ATOMIC CHARGES
----------------------
   0 S :    0.430794
   1 C :   -0.209782
   2 C :   -0.060089
   3 C :   -0.067154
   4 C :   -0.200182
   5 H :    0.029969
   6 C :   -0.032673
   7 H :    0.017898
   8 H :    0.035730
   9 C :   -0.027746
  10 H :    0.025285
  11 H :    0.013650
  12 C :   -0.057487
  13 H :    0.019601
  14 H :    0.017287
  15 H :    0.028354
  16 S :    0.412719
  17 C :   -0.192571
  18 C :   -0.075268
  19 C :   -0.060228
  20 C :   -0.193350
  21 H :    0.037947
  22 C :   -0.031649
  23 H :    0.023657
  24 H :    0.035793
  25 C :   -0.045140
  26 H :    0.018265
  27 H :    0.026915
  28 C :   -0.070163
  29 H :    0.023208
  30 H :    0.027076
  31 H :    0.032147
  32 H :    0.034487
  33 H :    0.032701

  Mayer bond orders larger than 0.100000
B(  0-S ,  1-C ) :   1.1348 B(  0-S ,  4-C ) :   1.1746 B(  1-C ,  2-C ) :   1.5744
B(  1-C , 32-H ) :   0.9698 B(  2-C ,  3-C ) :   1.2754 B(  2-C ,  6-C ) :   1.0309
B(  3-C ,  4-C ) :   1.5046 B(  3-C ,  5-H ) :   0.9916 B(  4-C , 20-C ) :   1.0761
B(  6-C ,  7-H ) :   0.9354 B(  6-C ,  8-H ) :   0.9481 B(  6-C ,  9-C ) :   1.0485
B(  9-C , 10-H ) :   0.9584 B(  9-C , 11-H ) :   0.9588 B(  9-C , 12-C ) :   1.0720
B( 12-C , 13-H ) :   0.9760 B( 12-C , 14-H ) :   0.9779 B( 12-C , 15-H ) :   0.9750
B( 16-S , 17-C ) :   1.1661 B( 16-S , 20-C ) :   1.1420 B( 17-C , 18-C ) :   1.5860
B( 17-C , 20-C ) :   0.1006 B( 17-C , 33-H ) :   0.9680 B( 18-C , 19-C ) :   1.2621
B( 18-C , 21-H ) :   0.9857 B( 19-C , 20-C ) :   1.5591 B( 19-C , 22-C ) :   1.0465
B( 22-C , 23-H ) :   0.9434 B( 22-C , 24-H ) :   0.9188 B( 22-C , 25-C ) :   1.0661
B( 25-C , 26-H ) :   0.9515 B( 25-C , 27-H ) :   0.9581 B( 25-C , 28-C ) :   1.0740
B( 28-C , 29-H ) :   0.9715 B( 28-C , 30-H ) :   0.9770 B( 28-C , 31-H ) :   0.9717

Dispersion correction           -0.013279121
FINAL SINGLE POINT ENERGY     -1339.856714100986

DIPOLE MOMENT
-------------
                                X             Y             Z
Electronic contribution:    -22.94814      15.71686      17.38337
Nuclear contribution   :     23.33572     -16.21874     -17.72377
                        -----------------------------------------
Total Dipole Moment    :      0.38758      -0.50188      -0.34040
                        -----------------------------------------
Magnitude (a.u.)       :      0.71970
Magnitude (Debye)      :      1.82934

Rotational constants in cm-1:     0.017421     0.008439     0.005926
Rotational constants in MHz :   522.276712   252.987620   177.669471

                             ****ORCA TERMINATED NORMALLY****
TOTAL RUN TIME: 0 days 0 hours 0 minutes 21 seconds 33 msec
