                         Program Version 4.2.1 -  RELEASE  -
|  1> ! wB97X-D3 SP def2-SVP
|  2> %pal
|  3> nprocs 24
|  4> end
|  5>
|  6> * xyz 0 1
|  7> S 	 -104.04 	 61.1375 	 -97.3474
|  8> C 	 -105.538 	 61.3466 	 -98.2299
|  9> C 	 -105.32 	 60.8856 	 -99.4986
| 10> C 	 -103.955 	 60.5309 	 -99.8127
| 11> C 	 -103.102 	 60.7514 	 -98.7355
| 12> H 	 -103.626 	 60.0018 	 -100.78
| 13> C 	 -106.415 	 60.7635 	 -100.551
| 14> H 	 -107.358 	 60.43 	 -100.121
| 15> H 	 -106.337 	 59.9365 	 -101.249
| 16> C 	 -106.928 	 62.1044 	 -101.184
| 17> H 	 -107.29 	 62.6437 	 -100.334
| 18> H 	 -106.08 	 62.725 	 -101.555
| 19> C 	 -108.088 	 61.8884 	 -102.134
| 20> H 	 -107.787 	 61.4938 	 -103.138
| 21> H 	 -108.804 	 61.1921 	 -101.687
| 22> H 	 -108.577 	 62.813 	 -102.211
| 23> S 	 -100.65 	 61.5066 	 -97.6342
| 24> C 	 -99.1937 	 60.6516 	 -98.0665
| 25> C 	 -99.481 	 59.5506 	 -98.8608
| 26> C 	 -100.838 	 59.5246 	 -99.3262
| 27> C 	 -101.686 	 60.4408 	 -98.6393
| 28> H 	 -98.7245 	 58.8502 	 -99.228
| 29> C 	 -101.202 	 58.3865 	 -100.207
| 30> H 	 -102.257 	 58.4628 	 -100.376
| 31> H 	 -101.041 	 57.5568 	 -99.5555
| 32> C 	 -100.532 	 58.3286 	 -101.536
| 33> H 	 -99.4477 	 58.4655 	 -101.581
| 34> H 	 -100.851 	 59.2543 	 -102.085
| 35> C 	 -100.998 	 57.1248 	 -102.355
| 36> H 	 -100.281 	 56.7275 	 -103.034
| 37> H 	 -101.787 	 57.5307 	 -102.967
| 38> H 	 -101.349 	 56.2221 	 -101.793
| 39> H 	 -106.547 	 61.5235 	 -97.8375
| 40> H 	 -98.2842 	 60.8068 	 -97.4912
| 41> *
| 42>
| 43>                          ****END OF INPUT****

CARTESIAN COORDINATES (ANGSTROEM)
---------------------------------
  S    -104.040000   61.137500  -97.347400
  C    -105.538000   61.346600  -98.229900
  C    -105.320000   60.885600  -99.498600
  C    -103.955000   60.530900  -99.812700
  C    -103.102000   60.751400  -98.735500
  H    -103.626000   60.001800  -100.780000
  C    -106.415000   60.763500  -100.551000
  H    -107.358000   60.430000  -100.121000
  H    -106.337000   59.936500  -101.249000
  C    -106.928000   62.104400  -101.184000
  H    -107.290000   62.643700  -100.334000
  H    -106.080000   62.725000  -101.555000
  C    -108.088000   61.888400  -102.134000
  H    -107.787000   61.493800  -103.138000
  H    -108.804000   61.192100  -101.687000
  H    -108.577000   62.813000  -102.211000
  S    -100.650000   61.506600  -97.634200
  C    -99.193700   60.651600  -98.066500
  C    -99.481000   59.550600  -98.860800
  C    -100.838000   59.524600  -99.326200
  C    -101.686000   60.440800  -98.639300
  H    -98.724500   58.850200  -99.228000
  C    -101.202000   58.386500  -100.207000
  H    -102.257000   58.462800  -100.376000
  H    -101.041000   57.556800  -99.555500
  C    -100.532000   58.328600  -101.536000
  H    -99.447700   58.465500  -101.581000
  H    -100.851000   59.254300  -102.085000
  C    -100.998000   57.124800  -102.355000
  H    -100.281000   56.727500  -103.034000
  H    -101.787000   57.530700  -102.967000
  H    -101.349000   56.222100  -101.793000
  H    -106.547000   61.523500  -97.837500
  H    -98.284200   60.806800  -97.491200

 Total Charge           Charge          ....    0
 Multiplicity           Mult            ....    1
 Number of Electrons    NEL             ....  134
 Basis Dimension        Dim             ....  322

ORBITAL ENERGIES
----------------

  NO   OCC          E(Eh)            E(eV)
   0   2.0000     -88.966783     -2420.9093
   1   2.0000     -88.964623     -2420.8505
   2   2.0000     -10.335195      -281.2349
   3   2.0000     -10.332533      -281.1625
   4   2.0000     -10.320321      -280.8302
   5   2.0000     -10.315265      -280.6926
   6   2.0000     -10.306572      -280.4561
   7   2.0000     -10.303171      -280.3635
   8   2.0000     -10.301903      -280.3290
   9   2.0000     -10.296572      -280.1840
  10   2.0000     -10.290188      -280.0102
  11   2.0000     -10.288878      -279.9746
  12   2.0000     -10.285827      -279.8916
  13   2.0000     -10.284812      -279.8640
  14   2.0000     -10.278611      -279.6952
  15   2.0000     -10.277991      -279.6784
  16   2.0000      -8.081900      -219.9197
  17   2.0000      -8.078870      -219.8372
  18   2.0000      -6.040532      -164.3712
  19   2.0000      -6.037478      -164.2881
  20   2.0000      -6.036335      -164.2570
  21   2.0000      -6.033310      -164.1747
  22   2.0000      -6.032488      -164.1523
  23   2.0000      -6.029684      -164.0760
  24   2.0000      -1.007820       -27.4242
  25   2.0000      -0.983741       -26.7689
  26   2.0000      -0.920749       -25.0548
  27   2.0000      -0.910510       -24.7762
  28   2.0000      -0.871995       -23.7282
  29   2.0000      -0.855035       -23.2667
  30   2.0000      -0.843994       -22.9663
  31   2.0000      -0.813358       -22.1326
  32   2.0000      -0.783567       -21.3219
  33   2.0000      -0.772592       -21.0233
  34   2.0000      -0.709912       -19.3177
  35   2.0000      -0.700875       -19.0718
  36   2.0000      -0.697129       -18.9698
  37   2.0000      -0.661905       -18.0114
  38   2.0000      -0.638032       -17.3617
  39   2.0000      -0.618343       -16.8260
  40   2.0000      -0.600879       -16.3508
  41   2.0000      -0.569813       -15.5054
  42   2.0000      -0.568289       -15.4639
  43   2.0000      -0.555676       -15.1207
  44   2.0000      -0.530703       -14.4412
  45   2.0000      -0.524954       -14.2847
  46   2.0000      -0.523409       -14.2427
  47   2.0000      -0.517103       -14.0711
  48   2.0000      -0.509786       -13.8720
  49   2.0000      -0.508251       -13.8302
  50   2.0000      -0.490990       -13.3605
  51   2.0000      -0.477310       -12.9883
  52   2.0000      -0.470339       -12.7986
  53   2.0000      -0.461407       -12.5555
  54   2.0000      -0.456528       -12.4228
  55   2.0000      -0.451678       -12.2908
  56   2.0000      -0.449738       -12.2380
  57   2.0000      -0.442118       -12.0307
  58   2.0000      -0.433381       -11.7929
  59   2.0000      -0.421832       -11.4786
  60   2.0000      -0.417667       -11.3653
  61   2.0000      -0.410848       -11.1797
  62   2.0000      -0.408508       -11.1161
  63   2.0000      -0.356297        -9.6953
  64   2.0000      -0.328627        -8.9424
  65   2.0000      -0.327322        -8.9069
  66   2.0000      -0.288107        -7.8398
  67   0.0000       0.020103         0.5470
  68   0.0000       0.075809         2.0629
  69   0.0000       0.104765         2.8508
  70   0.0000       0.116351         3.1661
  71   0.0000       0.124149         3.3783

MULLIKEN ATOMIC CHARGES
-----------------------
   0 S :    0.109167
   1 C :   -0.111431
   2 C :   -0.085022
   3 C :   -0.014073
   4 C :   -0.116361
   5 H :    0.046843
   6 C :    0.034965
   7 H :   -0.001765
   8 H :    0.015914
   9 C :   -0.080282
  10 H :    0.013143
  11 H :    0.039458
  12 C :   -0.021240
  13 H :    0.045079
  14 H :    0.022476
  15 H :    0.026803
  16 S :    0.090733
  17 C :   -0.085118
  18 C :   -0.038220
  19 C :   -0.071896
  20 C :   -0.127958
  21 H :    0.032133
  22 C :    0.093150
  23 H :   -0.004208
  24 H :    0.037465
  25 C :   -0.100220
  26 H :    0.029295
  27 H :    0.028847
  28 C :   -0.035607
  29 H :    0.025028
  30 H :    0.031503
  31 H :    0.040755
  32 H :    0.060473
  33 H :    0.070171
Sum of atomic charges:   -0.0000000

LOEWDIN ATOMIC CHARGES
----------------------
   0 S :    0.423283
   1 C :   -0.205143
   2 C :   -0.063105
   3 C :   -0.079874
   4 C :   -0.201571
   5 H :    0.044465
   6 C :   -0.043704
   7 H :    0.025472
   8 H :    0.024985
   9 C :   -0.037664
  10 H :    0.018370
  11 H :    0.026256
  12 C :   -0.061596
  13 H :    0.031222
  14 H :    0.025623
  15 H :    0.022406
  16 S :    0.392450
  17 C :   -0.185023
  18 C :   -0.071227
  19 C :   -0.047669
  20 C :   -0.192047
  21 H :    0.034589
  22 C :   -0.033030
  23 H :    0.025086
  24 H :    0.034945
  25 C :   -0.045435
  26 H :    0.020671
  27 H :    0.032248
  28 C :   -0.068220
  29 H :    0.022754
  30 H :    0.028105
  31 H :    0.031754
  32 H :    0.039085
  33 H :    0.031538

  Mayer bond orders larger than 0.100000
B(  0-S ,  1-C ) :   1.1209 B(  0-S ,  4-C ) :   1.1757 B(  1-C ,  2-C ) :   1.6038
B(  1-C , 32-H ) :   0.9680 B(  2-C ,  3-C ) :   1.2594 B(  2-C ,  6-C ) :   1.0283
B(  3-C ,  4-C ) :   1.5379 B(  3-C ,  5-H ) :   0.9775 B(  4-C , 20-C ) :   1.0561
B(  6-C ,  7-H ) :   0.9357 B(  6-C ,  8-H ) :   0.9514 B(  6-C ,  9-C ) :   1.0453
B(  9-C , 10-H ) :   0.9562 B(  9-C , 11-H ) :   0.9579 B(  9-C , 12-C ) :   1.0822
B( 12-C , 13-H ) :   0.9757 B( 12-C , 14-H ) :   0.9688 B( 12-C , 15-H ) :   0.9722
B( 16-S , 17-C ) :   1.1658 B( 16-S , 20-C ) :   1.1295 B( 17-C , 18-C ) :   1.5884
B( 17-C , 20-C ) :   0.1038 B( 17-C , 33-H ) :   0.9634 B( 18-C , 19-C ) :   1.2554
B( 18-C , 21-H ) :   0.9826 B( 19-C , 20-C ) :   1.5592 B( 19-C , 22-C ) :   1.0461
B( 22-C , 23-H ) :   0.9306 B( 22-C , 24-H ) :   0.9316 B( 22-C , 25-C ) :   1.0533
B( 25-C , 26-H ) :   0.9627 B( 25-C , 27-H ) :   0.9569 B( 25-C , 28-C ) :   1.0627
B( 28-C , 29-H ) :   0.9752 B( 28-C , 30-H ) :   0.9789 B( 28-C , 31-H ) :   0.9770

Dispersion correction           -0.013318601
FINAL SINGLE POINT ENERGY     -1339.864252706867

DIPOLE MOMENT
-------------
                                X             Y             Z
Electronic contribution:     12.49162      10.02144      25.94628
Nuclear contribution   :    -12.64798     -10.54057     -26.47243
                        -----------------------------------------
Total Dipole Moment    :     -0.15637      -0.51913      -0.52615
                        -----------------------------------------
Magnitude (a.u.)       :      0.75550
Magnitude (Debye)      :      1.92033

Rotational constants in cm-1:     0.017683     0.008043     0.005922
Rotational constants in MHz :   530.123925   241.108660   177.542668

                             ****ORCA TERMINATED NORMALLY****
TOTAL RUN TIME: 0 days 0 hours 0 minutes 20 seconds 986 msec
