                         Program Version 4.2.1 -  RELEASE  -
|  1> ! wB97X-D3 SP def2-SVP
|  2> %pal
|  3> nprocs 24
|  4> end
|  5>
|  6> * xyz 0 1
|  7> S 	 -81.1594 	 -21.9504 	 -53.4606
|  8> C 	 -81.0028 	 -20.8649 	 -52.1255
|  9> C 	 -81.155 	 -21.4926 	 -50.9371
| 10> C 	 -81.596 	 -22.8454 	 -51.1192
| 11> C 	 -81.4993 	 -23.3275 	 -52.4915
| 12> H 	 -81.8259 	 -23.5503 	 -50.3655
| 13> C 	 -81.1699 	 -20.872 	 -49.579
| 14> H 	 -81.639 	 -21.4306 	 -48.7805
| 15> H 	 -81.8124 	 -20.0024 	 -49.6309
| 16> C 	 -79.6569 	 -20.5266 	 -49.1527
| 17> H 	 -79.1488 	 -21.5191 	 -49.1807
| 18> H 	 -79.0772 	 -19.8549 	 -49.7413
| 19> C 	 -79.6004 	 -19.9114 	 -47.7557
| 20> H 	 -78.6744 	 -20.0779 	 -47.2594
| 21> H 	 -79.5421 	 -18.8058 	 -47.776
| 22> H 	 -80.4702 	 -20.1915 	 -47.0896
| 23> S 	 -82.2879 	 -24.8752 	 -54.5743
| 24> C 	 -82.444 	 -26.6123 	 -54.4501
| 25> C 	 -81.9043 	 -27.0198 	 -53.2644
| 26> C 	 -81.5571 	 -25.9482 	 -52.3719
| 27> C 	 -81.71 	 -24.7022 	 -52.9456
| 28> H 	 -81.8703 	 -28.0524 	 -53.1188
| 29> C 	 -81.0347 	 -26.2068 	 -51.0355
| 30> H 	 -81.8314 	 -26.1397 	 -50.3247
| 31> H 	 -80.2532 	 -25.4871 	 -50.7817
| 32> C 	 -80.2559 	 -27.5262 	 -50.7423
| 33> H 	 -80.8334 	 -28.4563 	 -50.9829
| 34> H 	 -80.095 	 -27.5833 	 -49.647
| 35> C 	 -78.9635 	 -27.7234 	 -51.4773
| 36> H 	 -79.0963 	 -27.8713 	 -52.5333
| 37> H 	 -78.5333 	 -28.63 	 -51.1517
| 38> H 	 -78.2643 	 -26.916 	 -51.2447
| 39> H 	 -80.7085 	 -19.7737 	 -52.2068
| 40> H 	 -82.7737 	 -27.3059 	 -55.1923
| 41> *
| 42>
| 43>                          ****END OF INPUT****

CARTESIAN COORDINATES (ANGSTROEM)
---------------------------------
  S    -81.159400  -21.950400  -53.460600
  C    -81.002800  -20.864900  -52.125500
  C    -81.155000  -21.492600  -50.937100
  C    -81.596000  -22.845400  -51.119200
  C    -81.499300  -23.327500  -52.491500
  H    -81.825900  -23.550300  -50.365500
  C    -81.169900  -20.872000  -49.579000
  H    -81.639000  -21.430600  -48.780500
  H    -81.812400  -20.002400  -49.630900
  C    -79.656900  -20.526600  -49.152700
  H    -79.148800  -21.519100  -49.180700
  H    -79.077200  -19.854900  -49.741300
  C    -79.600400  -19.911400  -47.755700
  H    -78.674400  -20.077900  -47.259400
  H    -79.542100  -18.805800  -47.776000
  H    -80.470200  -20.191500  -47.089600
  S    -82.287900  -24.875200  -54.574300
  C    -82.444000  -26.612300  -54.450100
  C    -81.904300  -27.019800  -53.264400
  C    -81.557100  -25.948200  -52.371900
  C    -81.710000  -24.702200  -52.945600
  H    -81.870300  -28.052400  -53.118800
  C    -81.034700  -26.206800  -51.035500
  H    -81.831400  -26.139700  -50.324700
  H    -80.253200  -25.487100  -50.781700
  C    -80.255900  -27.526200  -50.742300
  H    -80.833400  -28.456300  -50.982900
  H    -80.095000  -27.583300  -49.647000
  C    -78.963500  -27.723400  -51.477300
  H    -79.096300  -27.871300  -52.533300
  H    -78.533300  -28.630000  -51.151700
  H    -78.264300  -26.916000  -51.244700
  H    -80.708500  -19.773700  -52.206800
  H    -82.773700  -27.305900  -55.192300

 Total Charge           Charge          ....    0
 Multiplicity           Mult            ....    1
 Number of Electrons    NEL             ....  134
 Basis Dimension        Dim             ....  322

ORBITAL ENERGIES
----------------

  NO   OCC          E(Eh)            E(eV)
   0   2.0000     -88.969132     -2420.9732
   1   2.0000     -88.961782     -2420.7732
   2   2.0000     -10.334968      -281.2288
   3   2.0000     -10.329003      -281.0664
   4   2.0000     -10.314767      -280.6791
   5   2.0000     -10.313796      -280.6527
   6   2.0000     -10.302292      -280.3396
   7   2.0000     -10.297697      -280.2146
   8   2.0000     -10.295181      -280.1461
   9   2.0000     -10.294135      -280.1177
  10   2.0000     -10.291804      -280.0542
  11   2.0000     -10.290059      -280.0067
  12   2.0000     -10.288804      -279.9726
  13   2.0000     -10.286684      -279.9149
  14   2.0000     -10.279305      -279.7141
  15   2.0000     -10.269011      -279.4340
  16   2.0000      -8.084222      -219.9829
  17   2.0000      -8.077103      -219.7891
  18   2.0000      -6.042783      -164.4325
  19   2.0000      -6.038472      -164.3152
  20   2.0000      -6.035685      -164.2393
  21   2.0000      -6.035114      -164.2238
  22   2.0000      -6.031502      -164.1255
  23   2.0000      -6.027778      -164.0242
  24   2.0000      -1.010540       -27.4982
  25   2.0000      -0.989716       -26.9316
  26   2.0000      -0.914120       -24.8745
  27   2.0000      -0.908875       -24.7318
  28   2.0000      -0.872860       -23.7517
  29   2.0000      -0.856032       -23.2938
  30   2.0000      -0.846805       -23.0427
  31   2.0000      -0.814244       -22.1567
  32   2.0000      -0.783869       -21.3302
  33   2.0000      -0.776480       -21.1291
  34   2.0000      -0.707791       -19.2600
  35   2.0000      -0.703830       -19.1522
  36   2.0000      -0.694568       -18.9002
  37   2.0000      -0.662347       -18.0234
  38   2.0000      -0.636890       -17.3307
  39   2.0000      -0.617741       -16.8096
  40   2.0000      -0.600585       -16.3427
  41   2.0000      -0.578953       -15.7541
  42   2.0000      -0.564801       -15.3690
  43   2.0000      -0.558005       -15.1841
  44   2.0000      -0.538828       -14.6622
  45   2.0000      -0.528413       -14.3788
  46   2.0000      -0.521407       -14.1882
  47   2.0000      -0.510973       -13.9043
  48   2.0000      -0.507579       -13.8119
  49   2.0000      -0.504261       -13.7217
  50   2.0000      -0.492950       -13.4138
  51   2.0000      -0.482942       -13.1415
  52   2.0000      -0.476347       -12.9621
  53   2.0000      -0.469962       -12.7883
  54   2.0000      -0.459692       -12.5088
  55   2.0000      -0.446554       -12.1513
  56   2.0000      -0.443244       -12.0613
  57   2.0000      -0.438524       -11.9328
  58   2.0000      -0.430012       -11.7012
  59   2.0000      -0.423947       -11.5362
  60   2.0000      -0.414636       -11.2828
  61   2.0000      -0.412618       -11.2279
  62   2.0000      -0.409384       -11.1399
  63   2.0000      -0.359439        -9.7808
  64   2.0000      -0.330070        -8.9817
  65   2.0000      -0.326898        -8.8954
  66   2.0000      -0.284033        -7.7289
  67   0.0000       0.021802         0.5933
  68   0.0000       0.084938         2.3113
  69   0.0000       0.110458         3.0057
  70   0.0000       0.123939         3.3725
  71   0.0000       0.137922         3.7531

MULLIKEN ATOMIC CHARGES
-----------------------
   0 S :    0.125721
   1 C :   -0.137028
   2 C :   -0.061500
   3 C :    0.016106
   4 C :   -0.142860
   5 H :   -0.007538
   6 C :    0.057313
   7 H :    0.022747
   8 H :    0.031913
   9 C :   -0.084882
  10 H :    0.040779
  11 H :    0.029850
  12 C :   -0.057170
  13 H :    0.022874
  14 H :    0.026671
  15 H :    0.038149
  16 S :    0.088046
  17 C :   -0.072256
  18 C :   -0.026061
  19 C :   -0.032502
  20 C :   -0.129650
  21 H :   -0.005159
  22 C :    0.058994
  23 H :    0.042162
  24 H :    0.033826
  25 C :   -0.118838
  26 H :    0.022836
  27 H :    0.031581
  28 C :   -0.012773
  29 H :    0.031351
  30 H :    0.017580
  31 H :    0.030999
  32 H :    0.070139
  33 H :    0.048579
Sum of atomic charges:    0.0000000

LOEWDIN ATOMIC CHARGES
----------------------
   0 S :    0.435680
   1 C :   -0.215199
   2 C :   -0.070332
   3 C :   -0.061914
   4 C :   -0.207656
   5 H :    0.018096
   6 C :   -0.025617
   7 H :    0.029897
   8 H :    0.030414
   9 C :   -0.035681
  10 H :    0.029802
  11 H :    0.021096
  12 C :   -0.078127
  13 H :    0.021772
  14 H :    0.027488
  15 H :    0.028728
  16 S :    0.403975
  17 C :   -0.176865
  18 C :   -0.065427
  19 C :   -0.060040
  20 C :   -0.193397
  21 H :    0.022075
  22 C :   -0.037577
  23 H :    0.031991
  24 H :    0.036006
  25 C :   -0.044538
  26 H :    0.021135
  27 H :    0.028490
  28 C :   -0.061574
  29 H :    0.024707
  30 H :    0.022771
  31 H :    0.025334
  32 H :    0.044908
  33 H :    0.029578

  Mayer bond orders larger than 0.100000
B(  0-S ,  1-C ) :   1.1468 B(  0-S ,  4-C ) :   1.1789 B(  1-C ,  2-C ) :   1.5893
B(  1-C , 32-H ) :   0.9556 B(  2-C ,  3-C ) :   1.2747 B(  2-C ,  6-C ) :   1.0292
B(  3-C ,  4-C ) :   1.4963 B(  3-C ,  5-H ) :   0.9964 B(  4-C , 20-C ) :   1.0821
B(  6-C ,  7-H ) :   0.9484 B(  6-C ,  8-H ) :   0.9456 B(  6-C ,  9-C ) :   1.0372
B(  9-C , 10-H ) :   0.9625 B(  9-C , 11-H ) :   0.9647 B(  9-C , 12-C ) :   1.0760
B( 12-C , 13-H ) :   0.9716 B( 12-C , 14-H ) :   0.9748 B( 12-C , 15-H ) :   0.9745
B( 16-S , 17-C ) :   1.1512 B( 16-S , 20-C ) :   1.1310 B( 17-C , 18-C ) :   1.6224
B( 17-C , 33-H ) :   0.9673 B( 18-C , 19-C ) :   1.2238 B( 18-C , 21-H ) :   0.9998
B( 19-C , 20-C ) :   1.5843 B( 19-C , 22-C ) :   1.0544 B( 22-C , 23-H ) :   0.9152
B( 22-C , 24-H ) :   0.9334 B( 22-C , 25-C ) :   1.0789 B( 25-C , 26-H ) :   0.9459
B( 25-C , 27-H ) :   0.9532 B( 25-C , 28-C ) :   1.0938 B( 28-C , 29-H ) :   0.9709
B( 28-C , 30-H ) :   0.9683 B( 28-C , 31-H ) :   0.9717

Dispersion correction           -0.013651237
FINAL SINGLE POINT ENERGY     -1339.868129056462

DIPOLE MOMENT
-------------
                                X             Y             Z
Electronic contribution:    -12.63235       2.36484     -26.48818
Nuclear contribution   :     12.85086      -2.59771      27.14283
                        -----------------------------------------
Total Dipole Moment    :      0.21851      -0.23287       0.65466
                        -----------------------------------------
Magnitude (a.u.)       :      0.72839
Magnitude (Debye)      :      1.85142

Rotational constants in cm-1:     0.019685     0.007975     0.006059
Rotational constants in MHz :   590.126639   239.095238   181.658461

                             ****ORCA TERMINATED NORMALLY****
TOTAL RUN TIME: 0 days 0 hours 0 minutes 21 seconds 286 msec
