                         Program Version 4.2.1 -  RELEASE  -
|  1> ! wB97X-D3 SP def2-SVP
|  2> %pal
|  3> nprocs 24
|  4> end
|  5>
|  6> * xyz 0 1
|  7> S 	 -111.465 	 43.2441 	 -11.9783
|  8> C 	 -109.959 	 44.0642 	 -11.9105
|  9> C 	 -108.877 	 43.2732 	 -11.5917
| 10> C 	 -109.304 	 41.9187 	 -11.4392
| 11> C 	 -110.715 	 41.7453 	 -11.4908
| 12> H 	 -108.612 	 41.0518 	 -11.2031
| 13> C 	 -107.426 	 43.6082 	 -11.6217
| 14> H 	 -107.33 	 44.3457 	 -12.3788
| 15> H 	 -106.921 	 42.7794 	 -12.0842
| 16> C 	 -106.822 	 44.0272 	 -10.2691
| 17> H 	 -105.779 	 44.2089 	 -10.3923
| 18> H 	 -107.051 	 45.0094 	 -9.8892
| 19> C 	 -107.221 	 43.0006 	 -9.12776
| 20> H 	 -108.271 	 42.9348 	 -8.99852
| 21> H 	 -106.879 	 41.9781 	 -9.27631
| 22> H 	 -106.782 	 43.3647 	 -8.2314
| 23> S 	 -112.324 	 39.8055 	 -12.5876
| 24> C 	 -112.82 	 38.4418 	 -11.5822
| 25> C 	 -112.217 	 38.4832 	 -10.3277
| 26> C 	 -111.392 	 39.6604 	 -10.1697
| 27> C 	 -111.432 	 40.5412 	 -11.2369
| 28> H 	 -112.401 	 37.8166 	 -9.49059
| 29> C 	 -110.525 	 39.8633 	 -8.95298
| 30> H 	 -109.635 	 40.4025 	 -9.2835
| 31> H 	 -110.023 	 38.9515 	 -8.52218
| 32> C 	 -111.258 	 40.4658 	 -7.73459
| 33> H 	 -110.648 	 40.2841 	 -6.86685
| 34> H 	 -112.163 	 39.9392 	 -7.59853
| 35> C 	 -111.522 	 41.9526 	 -7.83424
| 36> H 	 -111.875 	 42.378 	 -6.83754
| 37> H 	 -112.226 	 42.131 	 -8.62545
| 38> H 	 -110.676 	 42.5047 	 -8.18469
| 39> H 	 -109.834 	 45.1638 	 -12.1051
| 40> H 	 -113.635 	 37.773 	 -11.7575
| 41> *
| 42>
| 43>                          ****END OF INPUT****

CARTESIAN COORDINATES (ANGSTROEM)
---------------------------------
  S    -111.465000   43.244100  -11.978300
  C    -109.959000   44.064200  -11.910500
  C    -108.877000   43.273200  -11.591700
  C    -109.304000   41.918700  -11.439200
  C    -110.715000   41.745300  -11.490800
  H    -108.612000   41.051800  -11.203100
  C    -107.426000   43.608200  -11.621700
  H    -107.330000   44.345700  -12.378800
  H    -106.921000   42.779400  -12.084200
  C    -106.822000   44.027200  -10.269100
  H    -105.779000   44.208900  -10.392300
  H    -107.051000   45.009400   -9.889200
  C    -107.221000   43.000600   -9.127760
  H    -108.271000   42.934800   -8.998520
  H    -106.879000   41.978100   -9.276310
  H    -106.782000   43.364700   -8.231400
  S    -112.324000   39.805500  -12.587600
  C    -112.820000   38.441800  -11.582200
  C    -112.217000   38.483200  -10.327700
  C    -111.392000   39.660400  -10.169700
  C    -111.432000   40.541200  -11.236900
  H    -112.401000   37.816600   -9.490590
  C    -110.525000   39.863300   -8.952980
  H    -109.635000   40.402500   -9.283500
  H    -110.023000   38.951500   -8.522180
  C    -111.258000   40.465800   -7.734590
  H    -110.648000   40.284100   -6.866850
  H    -112.163000   39.939200   -7.598530
  C    -111.522000   41.952600   -7.834240
  H    -111.875000   42.378000   -6.837540
  H    -112.226000   42.131000   -8.625450
  H    -110.676000   42.504700   -8.184690
  H    -109.834000   45.163800  -12.105100
  H    -113.635000   37.773000  -11.757500

 Total Charge           Charge          ....    0
 Multiplicity           Mult            ....    1
 Number of Electrons    NEL             ....  134
 Basis Dimension        Dim             ....  322

ORBITAL ENERGIES
----------------

  NO   OCC          E(Eh)            E(eV)
   0   2.0000     -88.971738     -2421.0441
   1   2.0000     -88.964117     -2420.8367
   2   2.0000     -10.328623      -281.0561
   3   2.0000     -10.324930      -280.9556
   4   2.0000     -10.319014      -280.7946
   5   2.0000     -10.316868      -280.7362
   6   2.0000     -10.302766      -280.3525
   7   2.0000     -10.301947      -280.3302
   8   2.0000     -10.298355      -280.2325
   9   2.0000     -10.296777      -280.1895
  10   2.0000     -10.289736      -279.9980
  11   2.0000     -10.289386      -279.9884
  12   2.0000     -10.289034      -279.9789
  13   2.0000     -10.276561      -279.6394
  14   2.0000     -10.274928      -279.5950
  15   2.0000     -10.268161      -279.4109
  16   2.0000      -8.086755      -220.0518
  17   2.0000      -8.078284      -219.8213
  18   2.0000      -6.045118      -164.4960
  19   2.0000      -6.041191      -164.3892
  20   2.0000      -6.037684      -164.2937
  21   2.0000      -6.036987      -164.2748
  22   2.0000      -6.032873      -164.1628
  23   2.0000      -6.028865      -164.0538
  24   2.0000      -1.006866       -27.3982
  25   2.0000      -0.982112       -26.7246
  26   2.0000      -0.914632       -24.8884
  27   2.0000      -0.906240       -24.6601
  28   2.0000      -0.869768       -23.6676
  29   2.0000      -0.849031       -23.1033
  30   2.0000      -0.843016       -22.9396
  31   2.0000      -0.809898       -22.0385
  32   2.0000      -0.787056       -21.4169
  33   2.0000      -0.771071       -20.9819
  34   2.0000      -0.716963       -19.5096
  35   2.0000      -0.705353       -19.1936
  36   2.0000      -0.694987       -18.9115
  37   2.0000      -0.661156       -17.9910
  38   2.0000      -0.636864       -17.3300
  39   2.0000      -0.614046       -16.7090
  40   2.0000      -0.597744       -16.2654
  41   2.0000      -0.570152       -15.5146
  42   2.0000      -0.555924       -15.1275
  43   2.0000      -0.546212       -14.8632
  44   2.0000      -0.541091       -14.7238
  45   2.0000      -0.528300       -14.3758
  46   2.0000      -0.517843       -14.0912
  47   2.0000      -0.512481       -13.9453
  48   2.0000      -0.502507       -13.6739
  49   2.0000      -0.497648       -13.5417
  50   2.0000      -0.493193       -13.4205
  51   2.0000      -0.472827       -12.8663
  52   2.0000      -0.471786       -12.8380
  53   2.0000      -0.466568       -12.6960
  54   2.0000      -0.464740       -12.6462
  55   2.0000      -0.446662       -12.1543
  56   2.0000      -0.443071       -12.0566
  57   2.0000      -0.438563       -11.9339
  58   2.0000      -0.433851       -11.8057
  59   2.0000      -0.429287       -11.6815
  60   2.0000      -0.414871       -11.2892
  61   2.0000      -0.413129       -11.2418
  62   2.0000      -0.410289       -11.1645
  63   2.0000      -0.340101        -9.2546
  64   2.0000      -0.333712        -9.0808
  65   2.0000      -0.326739        -8.8910
  66   2.0000      -0.294759        -8.0208
  67   0.0000       0.026375         0.7177
  68   0.0000       0.066412         1.8072
  69   0.0000       0.107277         2.9191
  70   0.0000       0.116890         3.1808
  71   0.0000       0.126310         3.4371

MULLIKEN ATOMIC CHARGES
-----------------------
   0 S :    0.140675
   1 C :   -0.131388
   2 C :   -0.117260
   3 C :    0.011458
   4 C :   -0.192531
   5 H :    0.047333
   6 C :    0.099144
   7 H :    0.007789
   8 H :    0.025814
   9 C :   -0.034210
  10 H :    0.017573
  11 H :    0.017052
  12 C :   -0.052153
  13 H :    0.049843
  14 H :    0.027091
  15 H :    0.023945
  16 S :    0.098411
  17 C :   -0.074489
  18 C :   -0.029896
  19 C :   -0.038063
  20 C :   -0.149225
  21 H :    0.025326
  22 C :    0.032584
  23 H :   -0.002077
  24 H :    0.028009
  25 C :   -0.024495
  26 H :    0.018018
  27 H :    0.012934
  28 C :   -0.039051
  29 H :    0.043038
  30 H :    0.022748
  31 H :    0.018018
  32 H :    0.062055
  33 H :    0.055980
Sum of atomic charges:   -0.0000000

LOEWDIN ATOMIC CHARGES
----------------------
   0 S :    0.434297
   1 C :   -0.211746
   2 C :   -0.071957
   3 C :   -0.057292
   4 C :   -0.213886
   5 H :    0.040084
   6 C :   -0.029647
   7 H :    0.027162
   8 H :    0.034501
   9 C :   -0.032424
  10 H :    0.021405
  11 H :    0.024023
  12 C :   -0.057471
  13 H :    0.021116
  14 H :    0.021999
  15 H :    0.022663
  16 S :    0.386647
  17 C :   -0.177529
  18 C :   -0.066391
  19 C :   -0.052899
  20 C :   -0.198450
  21 H :    0.033036
  22 C :   -0.039192
  23 H :    0.024978
  24 H :    0.037667
  25 C :   -0.032497
  26 H :    0.019887
  27 H :    0.017921
  28 C :   -0.066917
  29 H :    0.033348
  30 H :    0.022019
  31 H :    0.019669
  32 H :    0.038196
  33 H :    0.027680

  Mayer bond orders larger than 0.100000
B(  0-S ,  1-C ) :   1.1599 B(  0-S ,  4-C ) :   1.1591 B(  1-C ,  2-C ) :   1.6040
B(  1-C ,  4-C ) :   0.1010 B(  1-C , 32-H ) :   0.9538 B(  2-C ,  3-C ) :   1.2653
B(  2-C ,  6-C ) :   1.0129 B(  3-C ,  4-C ) :   1.5386 B(  3-C ,  5-H ) :   0.9737
B(  4-C , 20-C ) :   1.0589 B(  6-C ,  7-H ) :   0.9354 B(  6-C ,  8-H ) :   0.9440
B(  6-C ,  9-C ) :   1.0635 B(  9-C , 10-H ) :   0.9558 B(  9-C , 11-H ) :   0.9554
B(  9-C , 12-C ) :   1.0715 B( 12-C , 13-H ) :   0.9716 B( 12-C , 14-H ) :   0.9756
B( 12-C , 15-H ) :   0.9708 B( 16-S , 17-C ) :   1.1460 B( 16-S , 20-C ) :   1.1215
B( 17-C , 18-C ) :   1.6134 B( 17-C , 33-H ) :   0.9662 B( 18-C , 19-C ) :   1.2389
B( 18-C , 21-H ) :   0.9842 B( 19-C , 20-C ) :   1.6095 B( 19-C , 22-C ) :   1.0456
B( 22-C , 23-H ) :   0.9320 B( 22-C , 24-H ) :   0.9392 B( 22-C , 25-C ) :   1.0707
B( 25-C , 26-H ) :   0.9543 B( 25-C , 27-H ) :   0.9534 B( 25-C , 28-C ) :   1.0839
B( 28-C , 29-H ) :   0.9715 B( 28-C , 30-H ) :   0.9689 B( 28-C , 31-H ) :   0.9734

Dispersion correction           -0.016790834
FINAL SINGLE POINT ENERGY     -1339.876730892111

DIPOLE MOMENT
-------------
                                X             Y             Z
Electronic contribution:    -16.99627      -5.02326     -21.02184
Nuclear contribution   :     17.53548       5.09238      21.44129
                        -----------------------------------------
Total Dipole Moment    :      0.53921       0.06912       0.41946
                        -----------------------------------------
Magnitude (a.u.)       :      0.68663
Magnitude (Debye)      :      1.74528

Rotational constants in cm-1:     0.019957     0.010008     0.008047
Rotational constants in MHz :   598.283477   300.042044   241.234505

                             ****ORCA TERMINATED NORMALLY****
TOTAL RUN TIME: 0 days 0 hours 0 minutes 23 seconds 638 msec
