                         Program Version 4.2.1 -  RELEASE  -
|  1> ! wB97X-D3 SP def2-SVP
|  2> %pal
|  3> nprocs 24
|  4> end
|  5>
|  6> * xyz 0 1
|  7> S 	 -64.648 	 15.1472 	 -89.6789
|  8> C 	 -65.3726 	 16.6351 	 -89.2208
|  9> C 	 -65.6034 	 16.7566 	 -87.8701
| 10> C 	 -65.1244 	 15.5904 	 -87.1642
| 11> C 	 -64.7093 	 14.5867 	 -88.0166
| 12> H 	 -65.1194 	 15.5572 	 -86.1019
| 13> C 	 -66.2779 	 17.8662 	 -87.1013
| 14> H 	 -65.9693 	 18.8029 	 -87.5725
| 15> H 	 -65.9091 	 17.893 	 -86.0443
| 16> C 	 -67.7876 	 17.8709 	 -87.0567
| 17> H 	 -68.1097 	 16.8974 	 -86.6878
| 18> H 	 -68.1191 	 18.7067 	 -86.412
| 19> C 	 -68.4018 	 18.099 	 -88.3746
| 20> H 	 -69.4647 	 18.1125 	 -88.3247
| 21> H 	 -67.9507 	 19.0123 	 -88.9348
| 22> H 	 -68.1867 	 17.2217 	 -89.0173
| 23> S 	 -65.0583 	 11.9068 	 -88.6169
| 24> C 	 -64.4159 	 10.7493 	 -87.4282
| 25> C 	 -63.6256 	 11.3334 	 -86.4412
| 26> C 	 -63.6062 	 12.7858 	 -86.5086
| 27> C 	 -64.3109 	 13.2418 	 -87.654
| 28> H 	 -63.1552 	 10.7443 	 -85.6152
| 29> C 	 -62.7173 	 13.5921 	 -85.6092
| 30> H 	 -62.6334 	 12.9944 	 -84.674
| 31> H 	 -63.168 	 14.5728 	 -85.4046
| 32> C 	 -61.321 	 13.9195 	 -86.0785
| 33> H 	 -61.3408 	 14.3967 	 -87.0329
| 34> H 	 -60.7206 	 13.0017 	 -86.2397
| 35> C 	 -60.6431 	 14.8307 	 -85.0241
| 36> H 	 -60.3394 	 14.2469 	 -84.153
| 37> H 	 -61.2201 	 15.6689 	 -84.6152
| 38> H 	 -59.6633 	 15.0955 	 -85.4548
| 39> H 	 -65.8584 	 17.3805 	 -89.9217
| 40> H 	 -64.473 	 9.71199 	 -87.6291
| 41> *
| 42>
| 43>                          ****END OF INPUT****

CARTESIAN COORDINATES (ANGSTROEM)
---------------------------------
  S    -64.648000   15.147200  -89.678900
  C    -65.372600   16.635100  -89.220800
  C    -65.603400   16.756600  -87.870100
  C    -65.124400   15.590400  -87.164200
  C    -64.709300   14.586700  -88.016600
  H    -65.119400   15.557200  -86.101900
  C    -66.277900   17.866200  -87.101300
  H    -65.969300   18.802900  -87.572500
  H    -65.909100   17.893000  -86.044300
  C    -67.787600   17.870900  -87.056700
  H    -68.109700   16.897400  -86.687800
  H    -68.119100   18.706700  -86.412000
  C    -68.401800   18.099000  -88.374600
  H    -69.464700   18.112500  -88.324700
  H    -67.950700   19.012300  -88.934800
  H    -68.186700   17.221700  -89.017300
  S    -65.058300   11.906800  -88.616900
  C    -64.415900   10.749300  -87.428200
  C    -63.625600   11.333400  -86.441200
  C    -63.606200   12.785800  -86.508600
  C    -64.310900   13.241800  -87.654000
  H    -63.155200   10.744300  -85.615200
  C    -62.717300   13.592100  -85.609200
  H    -62.633400   12.994400  -84.674000
  H    -63.168000   14.572800  -85.404600
  C    -61.321000   13.919500  -86.078500
  H    -61.340800   14.396700  -87.032900
  H    -60.720600   13.001700  -86.239700
  C    -60.643100   14.830700  -85.024100
  H    -60.339400   14.246900  -84.153000
  H    -61.220100   15.668900  -84.615200
  H    -59.663300   15.095500  -85.454800
  H    -65.858400   17.380500  -89.921700
  H    -64.473000    9.711990  -87.629100

 Total Charge           Charge          ....    0
 Multiplicity           Mult            ....    1
 Number of Electrons    NEL             ....  134
 Basis Dimension        Dim             ....  322

ORBITAL ENERGIES
----------------

  NO   OCC          E(Eh)            E(eV)
   0   2.0000     -88.968378     -2420.9526
   1   2.0000     -88.967803     -2420.9370
   2   2.0000     -10.332192      -281.1533
   3   2.0000     -10.328305      -281.0475
   4   2.0000     -10.319966      -280.8206
   5   2.0000     -10.313557      -280.6461
   6   2.0000     -10.308829      -280.5175
   7   2.0000     -10.303566      -280.3743
   8   2.0000     -10.298464      -280.2354
   9   2.0000     -10.292911      -280.0844
  10   2.0000     -10.292439      -280.0715
  11   2.0000     -10.291766      -280.0532
  12   2.0000     -10.284918      -279.8669
  13   2.0000     -10.282682      -279.8060
  14   2.0000     -10.280676      -279.7514
  15   2.0000     -10.277385      -279.6619
  16   2.0000      -8.083496      -219.9631
  17   2.0000      -8.081333      -219.9043
  18   2.0000      -6.042071      -164.4131
  19   2.0000      -6.039900      -164.3540
  20   2.0000      -6.038001      -164.3024
  21   2.0000      -6.036144      -164.2518
  22   2.0000      -6.034131      -164.1971
  23   2.0000      -6.031984      -164.1386
  24   2.0000      -1.004055       -27.3217
  25   2.0000      -0.976113       -26.5614
  26   2.0000      -0.920765       -25.0553
  27   2.0000      -0.911974       -24.8161
  28   2.0000      -0.867140       -23.5961
  29   2.0000      -0.854520       -23.2527
  30   2.0000      -0.846900       -23.0453
  31   2.0000      -0.807943       -21.9852
  32   2.0000      -0.782793       -21.3009
  33   2.0000      -0.770295       -20.9608
  34   2.0000      -0.708226       -19.2718
  35   2.0000      -0.693302       -18.8657
  36   2.0000      -0.689411       -18.7598
  37   2.0000      -0.662649       -18.0316
  38   2.0000      -0.633945       -17.2505
  39   2.0000      -0.622757       -16.9461
  40   2.0000      -0.599043       -16.3008
  41   2.0000      -0.570765       -15.5313
  42   2.0000      -0.566095       -15.4042
  43   2.0000      -0.553016       -15.0483
  44   2.0000      -0.542673       -14.7669
  45   2.0000      -0.523526       -14.2459
  46   2.0000      -0.518878       -14.1194
  47   2.0000      -0.509230       -13.8568
  48   2.0000      -0.497268       -13.5313
  49   2.0000      -0.493051       -13.4166
  50   2.0000      -0.491423       -13.3723
  51   2.0000      -0.482221       -13.1219
  52   2.0000      -0.465486       -12.6665
  53   2.0000      -0.462382       -12.5820
  54   2.0000      -0.452593       -12.3157
  55   2.0000      -0.450118       -12.2483
  56   2.0000      -0.444836       -12.1046
  57   2.0000      -0.438314       -11.9271
  58   2.0000      -0.433130       -11.7861
  59   2.0000      -0.428193       -11.6517
  60   2.0000      -0.421293       -11.4640
  61   2.0000      -0.418323       -11.3831
  62   2.0000      -0.413820       -11.2606
  63   2.0000      -0.348726        -9.4893
  64   2.0000      -0.332297        -9.0423
  65   2.0000      -0.329869        -8.9762
  66   2.0000      -0.285817        -7.7775
  67   0.0000       0.022206         0.6042
  68   0.0000       0.069069         1.8795
  69   0.0000       0.103009         2.8030
  70   0.0000       0.110892         3.0175
  71   0.0000       0.130942         3.5631

MULLIKEN ATOMIC CHARGES
-----------------------
   0 S :    0.118504
   1 C :   -0.130594
   2 C :   -0.115183
   3 C :    0.024999
   4 C :   -0.137719
   5 H :    0.004034
   6 C :    0.046328
   7 H :    0.019081
   8 H :    0.030847
   9 C :   -0.029292
  10 H :    0.025942
  11 H :    0.035542
  12 C :   -0.082687
  13 H :    0.031746
  14 H :    0.035222
  15 H :    0.034861
  16 S :    0.091636
  17 C :   -0.081347
  18 C :   -0.040765
  19 C :   -0.032181
  20 C :   -0.137685
  21 H :    0.039652
  22 C :    0.039969
  23 H :    0.022563
  24 H :    0.013610
  25 C :   -0.045441
  26 H :    0.030290
  27 H :    0.026916
  28 C :   -0.053793
  29 H :    0.021728
  30 H :    0.042281
  31 H :    0.034816
  32 H :    0.065222
  33 H :    0.050899
Sum of atomic charges:   -0.0000000

LOEWDIN ATOMIC CHARGES
----------------------
   0 S :    0.414583
   1 C :   -0.222094
   2 C :   -0.065473
   3 C :   -0.056051
   4 C :   -0.194015
   5 H :    0.023970
   6 C :   -0.034784
   7 H :    0.028593
   8 H :    0.035608
   9 C :   -0.043129
  10 H :    0.026430
  11 H :    0.028896
  12 C :   -0.073858
  13 H :    0.022149
  14 H :    0.030075
  15 H :    0.026992
  16 S :    0.371598
  17 C :   -0.169563
  18 C :   -0.070562
  19 C :   -0.051691
  20 C :   -0.181969
  21 H :    0.040358
  22 C :   -0.038494
  23 H :    0.033588
  24 H :    0.029602
  25 C :   -0.034232
  26 H :    0.022207
  27 H :    0.027462
  28 C :   -0.068109
  29 H :    0.024143
  30 H :    0.027178
  31 H :    0.030869
  32 H :    0.040233
  33 H :    0.019488

  Mayer bond orders larger than 0.100000
B(  0-S ,  1-C ) :   1.1306 B(  0-S ,  4-C ) :   1.1476 B(  1-C ,  2-C ) :   1.6374
B(  1-C , 32-H ) :   0.9490 B(  2-C ,  3-C ) :   1.2466 B(  2-C ,  6-C ) :   1.0198
B(  3-C ,  4-C ) :   1.5687 B(  3-C ,  5-H ) :   0.9952 B(  4-C , 20-C ) :   1.0485
B(  6-C ,  7-H ) :   0.9361 B(  6-C ,  8-H ) :   0.9409 B(  6-C ,  9-C ) :   1.0805
B(  9-C , 10-H ) :   0.9459 B(  9-C , 11-H ) :   0.9504 B(  9-C , 12-C ) :   1.0949
B( 12-C , 13-H ) :   0.9683 B( 12-C , 14-H ) :   0.9705 B( 12-C , 15-H ) :   0.9664
B( 16-S , 17-C ) :   1.1426 B( 16-S , 20-C ) :   1.1259 B( 17-C , 18-C ) :   1.6222
B( 17-C , 20-C ) :   0.1025 B( 17-C , 33-H ) :   0.9697 B( 18-C , 19-C ) :   1.2271
B( 18-C , 21-H ) :   0.9770 B( 19-C , 20-C ) :   1.5869 B( 19-C , 22-C ) :   1.0575
B( 22-C , 23-H ) :   0.9300 B( 22-C , 24-H ) :   0.9293 B( 22-C , 25-C ) :   1.0759
B( 25-C , 26-H ) :   0.9550 B( 25-C , 27-H ) :   0.9489 B( 25-C , 28-C ) :   1.0754
B( 28-C , 29-H ) :   0.9738 B( 28-C , 30-H ) :   0.9759 B( 28-C , 31-H ) :   0.9720

Dispersion correction           -0.014171102
FINAL SINGLE POINT ENERGY     -1339.883725105546

DIPOLE MOMENT
-------------
                                X             Y             Z
Electronic contribution:     -1.85378     -16.71255     -15.42804
Nuclear contribution   :      1.93347      16.88158      15.99543
                        -----------------------------------------
Total Dipole Moment    :      0.07969       0.16904       0.56739
                        -----------------------------------------
Magnitude (a.u.)       :      0.59737
Magnitude (Debye)      :      1.51840

Rotational constants in cm-1:     0.018574     0.008455     0.006891
Rotational constants in MHz :   556.821048   253.482588   206.579718

                             ****ORCA TERMINATED NORMALLY****
TOTAL RUN TIME: 0 days 0 hours 0 minutes 21 seconds 469 msec
