                         Program Version 4.2.1 -  RELEASE  -
|  1> ! wB97X-D3 SP def2-SVP
|  2> %pal
|  3> nprocs 24
|  4> end
|  5>
|  6> * xyz 0 1
|  7> S 	 -116.07 	 63.1779 	 -67.7685
|  8> C 	 -117.295 	 62.7925 	 -66.5849
|  9> C 	 -117.126 	 63.3282 	 -65.3525
| 10> C 	 -116.109 	 64.3028 	 -65.4148
| 11> C 	 -115.529 	 64.4516 	 -66.7111
| 12> H 	 -115.704 	 64.8874 	 -64.5496
| 13> C 	 -117.992 	 62.9492 	 -64.163
| 14> H 	 -119.009 	 63.022 	 -64.5618
| 15> H 	 -118.039 	 63.6822 	 -63.3661
| 16> C 	 -117.713 	 61.6442 	 -63.4495
| 17> H 	 -117.818 	 60.7457 	 -64.1546
| 18> H 	 -116.722 	 61.5964 	 -63.0711
| 19> C 	 -118.778 	 61.4877 	 -62.3684
| 20> H 	 -119.742 	 61.3953 	 -62.8387
| 21> H 	 -118.5 	 60.6328 	 -61.849
| 22> H 	 -118.831 	 62.3031 	 -61.6469
| 23> S 	 -112.884 	 64.9028 	 -66.8037
| 24> C 	 -112.203 	 66.4149 	 -67.3974
| 25> C 	 -113.264 	 67.2476 	 -67.7341
| 26> C 	 -114.566 	 66.6701 	 -67.5401
| 27> C 	 -114.527 	 65.3516 	 -67.1105
| 28> H 	 -112.884 	 68.1813 	 -68.1025
| 29> C 	 -115.815 	 67.4983 	 -67.7312
| 30> H 	 -116.527 	 67.0221 	 -68.4096
| 31> H 	 -115.44 	 68.3572 	 -68.2273
| 32> C 	 -116.465 	 68.0153 	 -66.423
| 33> H 	 -117.073 	 67.1409 	 -66.1047
| 34> H 	 -117.092 	 68.7866 	 -66.7791
| 35> C 	 -115.506 	 68.5311 	 -65.3754
| 36> H 	 -114.695 	 69.0925 	 -65.8076
| 37> H 	 -115.168 	 67.6891 	 -64.7413
| 38> H 	 -115.987 	 69.326 	 -64.797
| 39> H 	 -118.018 	 61.9799 	 -66.7996
| 40> H 	 -111.209 	 66.7349 	 -67.5639
| 41> *
| 42>
| 43>                          ****END OF INPUT****

CARTESIAN COORDINATES (ANGSTROEM)
---------------------------------
  S    -116.070000   63.177900  -67.768500
  C    -117.295000   62.792500  -66.584900
  C    -117.126000   63.328200  -65.352500
  C    -116.109000   64.302800  -65.414800
  C    -115.529000   64.451600  -66.711100
  H    -115.704000   64.887400  -64.549600
  C    -117.992000   62.949200  -64.163000
  H    -119.009000   63.022000  -64.561800
  H    -118.039000   63.682200  -63.366100
  C    -117.713000   61.644200  -63.449500
  H    -117.818000   60.745700  -64.154600
  H    -116.722000   61.596400  -63.071100
  C    -118.778000   61.487700  -62.368400
  H    -119.742000   61.395300  -62.838700
  H    -118.500000   60.632800  -61.849000
  H    -118.831000   62.303100  -61.646900
  S    -112.884000   64.902800  -66.803700
  C    -112.203000   66.414900  -67.397400
  C    -113.264000   67.247600  -67.734100
  C    -114.566000   66.670100  -67.540100
  C    -114.527000   65.351600  -67.110500
  H    -112.884000   68.181300  -68.102500
  C    -115.815000   67.498300  -67.731200
  H    -116.527000   67.022100  -68.409600
  H    -115.440000   68.357200  -68.227300
  C    -116.465000   68.015300  -66.423000
  H    -117.073000   67.140900  -66.104700
  H    -117.092000   68.786600  -66.779100
  C    -115.506000   68.531100  -65.375400
  H    -114.695000   69.092500  -65.807600
  H    -115.168000   67.689100  -64.741300
  H    -115.987000   69.326000  -64.797000
  H    -118.018000   61.979900  -66.799600
  H    -111.209000   66.734900  -67.563900

 Total Charge           Charge          ....    0
 Multiplicity           Mult            ....    1
 Number of Electrons    NEL             ....  134
 Basis Dimension        Dim             ....  322

ORBITAL ENERGIES
----------------

  NO   OCC          E(Eh)            E(eV)
   0   2.0000     -88.968399     -2420.9532
   1   2.0000     -88.959128     -2420.7009
   2   2.0000     -10.325767      -280.9784
   3   2.0000     -10.316052      -280.7140
   4   2.0000     -10.312539      -280.6184
   5   2.0000     -10.312012      -280.6041
   6   2.0000     -10.302038      -280.3327
   7   2.0000     -10.300447      -280.2894
   8   2.0000     -10.298482      -280.2360
   9   2.0000     -10.292460      -280.0721
  10   2.0000     -10.289853      -280.0011
  11   2.0000     -10.289172      -279.9826
  12   2.0000     -10.279843      -279.7288
  13   2.0000     -10.277071      -279.6533
  14   2.0000     -10.273298      -279.5506
  15   2.0000     -10.272735      -279.5353
  16   2.0000      -8.083450      -219.9619
  17   2.0000      -8.074015      -219.7051
  18   2.0000      -6.041689      -164.4027
  19   2.0000      -6.038131      -164.3059
  20   2.0000      -6.034251      -164.2003
  21   2.0000      -6.032604      -164.1555
  22   2.0000      -6.028254      -164.0371
  23   2.0000      -6.024914      -163.9462
  24   2.0000      -1.008938       -27.4546
  25   2.0000      -0.984174       -26.7807
  26   2.0000      -0.919178       -25.0121
  27   2.0000      -0.906398       -24.6643
  28   2.0000      -0.877217       -23.8703
  29   2.0000      -0.852187       -23.1892
  30   2.0000      -0.840776       -22.8787
  31   2.0000      -0.811661       -22.0864
  32   2.0000      -0.785407       -21.3720
  33   2.0000      -0.772290       -21.0151
  34   2.0000      -0.712449       -19.3867
  35   2.0000      -0.703133       -19.1332
  36   2.0000      -0.686248       -18.6738
  37   2.0000      -0.658457       -17.9175
  38   2.0000      -0.641614       -17.4592
  39   2.0000      -0.617168       -16.7940
  40   2.0000      -0.582973       -15.8635
  41   2.0000      -0.576141       -15.6776
  42   2.0000      -0.565895       -15.3988
  43   2.0000      -0.558881       -15.2079
  44   2.0000      -0.538681       -14.6583
  45   2.0000      -0.533716       -14.5232
  46   2.0000      -0.520547       -14.1648
  47   2.0000      -0.516498       -14.0546
  48   2.0000      -0.498276       -13.5588
  49   2.0000      -0.494523       -13.4567
  50   2.0000      -0.485006       -13.1977
  51   2.0000      -0.480745       -13.0817
  52   2.0000      -0.470362       -12.7992
  53   2.0000      -0.464741       -12.6463
  54   2.0000      -0.460911       -12.5420
  55   2.0000      -0.449379       -12.2282
  56   2.0000      -0.447859       -12.1869
  57   2.0000      -0.437428       -11.9030
  58   2.0000      -0.429327       -11.6826
  59   2.0000      -0.427611       -11.6359
  60   2.0000      -0.417400       -11.3580
  61   2.0000      -0.410053       -11.1581
  62   2.0000      -0.405277       -11.0281
  63   2.0000      -0.337027        -9.1710
  64   2.0000      -0.327626        -8.9152
  65   2.0000      -0.311952        -8.4886
  66   2.0000      -0.309626        -8.4253
  67   0.0000       0.039733         1.0812
  68   0.0000       0.050378         1.3708
  69   0.0000       0.111369         3.0305
  70   0.0000       0.127285         3.4636
  71   0.0000       0.131476         3.5776

MULLIKEN ATOMIC CHARGES
-----------------------
   0 S :    0.133904
   1 C :   -0.137257
   2 C :   -0.036011
   3 C :    0.030735
   4 C :   -0.202016
   5 H :    0.030995
   6 C :    0.042736
   7 H :    0.028471
   8 H :    0.008098
   9 C :   -0.077870
  10 H :    0.033134
  11 H :    0.027927
  12 C :   -0.005178
  13 H :    0.027467
  14 H :    0.020280
  15 H :    0.026000
  16 S :    0.107170
  17 C :   -0.083821
  18 C :   -0.059001
  19 C :   -0.028269
  20 C :   -0.177061
  21 H :    0.011560
  22 C :    0.100889
  23 H :    0.036390
  24 H :   -0.006270
  25 C :   -0.074713
  26 H :    0.042526
  27 H :    0.019787
  28 C :   -0.025587
  29 H :    0.016461
  30 H :    0.048982
  31 H :    0.028858
  32 H :    0.051765
  33 H :    0.038920
Sum of atomic charges:   -0.0000000

LOEWDIN ATOMIC CHARGES
----------------------
   0 S :    0.422842
   1 C :   -0.191983
   2 C :   -0.071836
   3 C :   -0.053105
   4 C :   -0.212239
   5 H :    0.038631
   6 C :   -0.035830
   7 H :    0.036157
   8 H :    0.027412
   9 C :   -0.034574
  10 H :    0.029747
  11 H :    0.019894
  12 C :   -0.054077
  13 H :    0.025466
  14 H :    0.018881
  15 H :    0.023447
  16 S :    0.411182
  17 C :   -0.182707
  18 C :   -0.076402
  19 C :   -0.051756
  20 C :   -0.222631
  21 H :    0.029132
  22 C :   -0.029421
  23 H :    0.033611
  24 H :    0.019859
  25 C :   -0.038099
  26 H :    0.028204
  27 H :    0.018231
  28 C :   -0.066919
  29 H :    0.022997
  30 H :    0.033103
  31 H :    0.029273
  32 H :    0.027747
  33 H :    0.025763

  Mayer bond orders larger than 0.100000
B(  0-S ,  1-C ) :   1.1561 B(  0-S ,  4-C ) :   1.1635 B(  1-C ,  2-C ) :   1.6058
B(  1-C ,  4-C ) :   0.1085 B(  1-C , 32-H ) :   0.9611 B(  2-C ,  3-C ) :   1.2664
B(  2-C ,  6-C ) :   0.9946 B(  3-C ,  4-C ) :   1.5453 B(  3-C ,  5-H ) :   0.9894
B(  4-C , 20-C ) :   1.0527 B(  6-C ,  7-H ) :   0.9427 B(  6-C ,  8-H ) :   0.9444
B(  6-C ,  9-C ) :   1.0661 B(  9-C , 10-H ) :   0.9534 B(  9-C , 11-H ) :   0.9551
B(  9-C , 12-C ) :   1.0808 B( 12-C , 13-H ) :   0.9749 B( 12-C , 14-H ) :   0.9716
B( 12-C , 15-H ) :   0.9732 B( 16-S , 17-C ) :   1.1536 B( 16-S , 20-C ) :   1.1511
B( 17-C , 18-C ) :   1.6237 B( 17-C , 20-C ) :   0.1059 B( 17-C , 33-H ) :   0.9697
B( 18-C , 19-C ) :   1.2254 B( 18-C , 21-H ) :   0.9921 B( 19-C , 20-C ) :   1.5779
B( 19-C , 22-C ) :   1.0508 B( 22-C , 23-H ) :   0.9356 B( 22-C , 24-H ) :   0.9211
B( 22-C , 25-C ) :   1.0701 B( 25-C , 26-H ) :   0.9566 B( 25-C , 27-H ) :   0.9570
B( 25-C , 28-C ) :   1.0839 B( 28-C , 29-H ) :   0.9719 B( 28-C , 30-H ) :   0.9688
B( 28-C , 31-H ) :   0.9711

Dispersion correction           -0.015054680
FINAL SINGLE POINT ENERGY     -1339.864231334570

DIPOLE MOMENT
-------------
                                X             Y             Z
Electronic contribution:     16.31515      -5.67626     -17.46052
Nuclear contribution   :    -16.65164       5.87956      17.83067
                        -----------------------------------------
Total Dipole Moment    :     -0.33649       0.20330       0.37015
                        -----------------------------------------
Magnitude (a.u.)       :      0.53997
Magnitude (Debye)      :      1.37250

Rotational constants in cm-1:     0.022200     0.007707     0.006902
Rotational constants in MHz :   665.527005   231.064834   206.925227

                             ****ORCA TERMINATED NORMALLY****
TOTAL RUN TIME: 0 days 0 hours 0 minutes 22 seconds 953 msec
