                         Program Version 4.2.1 -  RELEASE  -
|  1> ! wB97X-D3 SP def2-SVP
|  2> %pal
|  3> nprocs 24
|  4> end
|  5>
|  6> * xyz 0 1
|  7> S 	 -113.424 	 63.2112 	 -28.6739
|  8> C 	 -113.275 	 62.446 	 -27.0987
|  9> C 	 -114.402 	 62.6215 	 -26.2988
| 10> C 	 -115.536 	 63.0776 	 -27.1114
| 11> C 	 -115.196 	 63.3115 	 -28.4358
| 12> H 	 -116.562 	 63.2233 	 -26.7537
| 13> C 	 -114.582 	 62.0936 	 -24.8524
| 14> H 	 -115.361 	 62.7072 	 -24.4173
| 15> H 	 -113.67 	 62.3079 	 -24.3112
| 16> C 	 -114.942 	 60.626 	 -24.7488
| 17> H 	 -115.564 	 60.3702 	 -25.6581
| 18> H 	 -114.095 	 60.0581 	 -25.0194
| 19> C 	 -115.442 	 59.9342 	 -23.3624
| 20> H 	 -116.189 	 60.5238 	 -22.828
| 21> H 	 -115.852 	 58.9487 	 -23.5415
| 22> H 	 -114.655 	 59.7185 	 -22.6408
| 23> S 	 -116.423 	 65.0805 	 -30.1963
| 24> C 	 -117.613 	 64.4671 	 -31.3307
| 25> C 	 -117.851 	 63.0933 	 -31.2076
| 26> C 	 -116.971 	 62.5391 	 -30.1171
| 27> C 	 -116.186 	 63.51 	 -29.5093
| 28> H 	 -118.665 	 62.681 	 -31.788
| 29> C 	 -117.002 	 61.0272 	 -29.7417
| 30> H 	 -117.886 	 60.6259 	 -30.0884
| 31> H 	 -116.941 	 61.0567 	 -28.6891
| 32> C 	 -115.777 	 60.2199 	 -30.1584
| 33> H 	 -114.873 	 60.7728 	 -29.9689
| 34> H 	 -115.843 	 60.0838 	 -31.2102
| 35> C 	 -115.901 	 58.8494 	 -29.5224
| 36> H 	 -116.86 	 58.3805 	 -29.7714
| 37> H 	 -115.828 	 58.895 	 -28.3575
| 38> H 	 -115.093 	 58.2232 	 -29.8443
| 39> H 	 -112.409 	 62.0658 	 -26.6265
| 40> H 	 -118.212 	 65.0246 	 -32.1206
| 41> *
| 42>
| 43>                          ****END OF INPUT****

CARTESIAN COORDINATES (ANGSTROEM)
---------------------------------
  S    -113.424000   63.211200  -28.673900
  C    -113.275000   62.446000  -27.098700
  C    -114.402000   62.621500  -26.298800
  C    -115.536000   63.077600  -27.111400
  C    -115.196000   63.311500  -28.435800
  H    -116.562000   63.223300  -26.753700
  C    -114.582000   62.093600  -24.852400
  H    -115.361000   62.707200  -24.417300
  H    -113.670000   62.307900  -24.311200
  C    -114.942000   60.626000  -24.748800
  H    -115.564000   60.370200  -25.658100
  H    -114.095000   60.058100  -25.019400
  C    -115.442000   59.934200  -23.362400
  H    -116.189000   60.523800  -22.828000
  H    -115.852000   58.948700  -23.541500
  H    -114.655000   59.718500  -22.640800
  S    -116.423000   65.080500  -30.196300
  C    -117.613000   64.467100  -31.330700
  C    -117.851000   63.093300  -31.207600
  C    -116.971000   62.539100  -30.117100
  C    -116.186000   63.510000  -29.509300
  H    -118.665000   62.681000  -31.788000
  C    -117.002000   61.027200  -29.741700
  H    -117.886000   60.625900  -30.088400
  H    -116.941000   61.056700  -28.689100
  C    -115.777000   60.219900  -30.158400
  H    -114.873000   60.772800  -29.968900
  H    -115.843000   60.083800  -31.210200
  C    -115.901000   58.849400  -29.522400
  H    -116.860000   58.380500  -29.771400
  H    -115.828000   58.895000  -28.357500
  H    -115.093000   58.223200  -29.844300
  H    -112.409000   62.065800  -26.626500
  H    -118.212000   65.024600  -32.120600

 Total Charge           Charge          ....    0
 Multiplicity           Mult            ....    1
 Number of Electrons    NEL             ....  134
 Basis Dimension        Dim             ....  322

ORBITAL ENERGIES
----------------

  NO   OCC          E(Eh)            E(eV)
   0   2.0000     -88.972070     -2421.0531
   1   2.0000     -88.966388     -2420.8985
   2   2.0000     -10.334202      -281.2079
   3   2.0000     -10.324214      -280.9362
   4   2.0000     -10.323170      -280.9077
   5   2.0000     -10.316912      -280.7374
   6   2.0000     -10.310800      -280.5711
   7   2.0000     -10.309132      -280.5257
   8   2.0000     -10.303192      -280.3641
   9   2.0000     -10.300753      -280.2977
  10   2.0000     -10.296453      -280.1807
  11   2.0000     -10.293840      -280.1096
  12   2.0000     -10.288196      -279.9560
  13   2.0000     -10.279786      -279.7272
  14   2.0000     -10.278204      -279.6841
  15   2.0000     -10.273415      -279.5538
  16   2.0000      -8.085490      -220.0174
  17   2.0000      -8.081162      -219.8996
  18   2.0000      -6.044142      -164.4695
  19   2.0000      -6.040358      -164.3665
  20   2.0000      -6.039751      -164.3500
  21   2.0000      -6.035963      -164.2469
  22   2.0000      -6.035642      -164.2382
  23   2.0000      -6.031864      -164.1354
  24   2.0000      -0.999273       -27.1916
  25   2.0000      -0.976606       -26.5748
  26   2.0000      -0.909843       -24.7581
  27   2.0000      -0.904724       -24.6188
  28   2.0000      -0.864397       -23.5214
  29   2.0000      -0.843757       -22.9598
  30   2.0000      -0.840838       -22.8804
  31   2.0000      -0.813430       -22.1345
  32   2.0000      -0.784640       -21.3511
  33   2.0000      -0.767780       -20.8924
  34   2.0000      -0.708671       -19.2839
  35   2.0000      -0.703036       -19.1306
  36   2.0000      -0.689668       -18.7668
  37   2.0000      -0.655162       -17.8279
  38   2.0000      -0.640408       -17.4264
  39   2.0000      -0.615715       -16.7545
  40   2.0000      -0.584528       -15.9058
  41   2.0000      -0.575637       -15.6639
  42   2.0000      -0.564101       -15.3500
  43   2.0000      -0.553157       -15.0522
  44   2.0000      -0.522360       -14.2142
  45   2.0000      -0.517741       -14.0885
  46   2.0000      -0.514840       -14.0095
  47   2.0000      -0.502377       -13.6704
  48   2.0000      -0.498387       -13.5618
  49   2.0000      -0.495941       -13.4952
  50   2.0000      -0.493291       -13.4231
  51   2.0000      -0.484097       -13.1729
  52   2.0000      -0.471089       -12.8190
  53   2.0000      -0.465254       -12.6602
  54   2.0000      -0.462706       -12.5909
  55   2.0000      -0.448072       -12.1927
  56   2.0000      -0.446888       -12.1604
  57   2.0000      -0.440942       -11.9986
  58   2.0000      -0.434157       -11.8140
  59   2.0000      -0.423077       -11.5125
  60   2.0000      -0.419127       -11.4050
  61   2.0000      -0.412171       -11.2157
  62   2.0000      -0.411346       -11.1933
  63   2.0000      -0.335821        -9.1382
  64   2.0000      -0.330033        -8.9806
  65   2.0000      -0.324244        -8.8231
  66   2.0000      -0.305588        -8.3155
  67   0.0000       0.039229         1.0675
  68   0.0000       0.052888         1.4392
  69   0.0000       0.104549         2.8449
  70   0.0000       0.117458         3.1962
  71   0.0000       0.126465         3.4413

MULLIKEN ATOMIC CHARGES
-----------------------
   0 S :    0.124393
   1 C :   -0.096269
   2 C :   -0.127946
   3 C :    0.048867
   4 C :   -0.177830
   5 H :    0.030593
   6 C :    0.097658
   7 H :    0.021892
   8 H :    0.024499
   9 C :   -0.075598
  10 H :    0.035700
  11 H :    0.009309
  12 C :   -0.050154
  13 H :    0.035287
  14 H :    0.034496
  15 H :    0.033961
  16 S :    0.118765
  17 C :   -0.121397
  18 C :   -0.041797
  19 C :   -0.064606
  20 C :   -0.175654
  21 H :    0.027139
  22 C :    0.140312
  23 H :   -0.004943
  24 H :    0.001882
  25 C :   -0.037364
  26 H :    0.029365
  27 H :    0.014762
  28 C :   -0.064313
  29 H :    0.030142
  30 H :    0.039257
  31 H :    0.031468
  32 H :    0.031806
  33 H :    0.076319
Sum of atomic charges:    0.0000000

LOEWDIN ATOMIC CHARGES
----------------------
   0 S :    0.388518
   1 C :   -0.185797
   2 C :   -0.059280
   3 C :   -0.049321
   4 C :   -0.187076
   5 H :    0.037606
   6 C :   -0.029786
   7 H :    0.029180
   8 H :    0.028157
   9 C :   -0.048717
  10 H :    0.032053
  11 H :    0.018276
  12 C :   -0.067016
  13 H :    0.023541
  14 H :    0.029427
  15 H :    0.026300
  16 S :    0.409816
  17 C :   -0.198255
  18 C :   -0.078103
  19 C :   -0.037297
  20 C :   -0.223312
  21 H :    0.033477
  22 C :   -0.016906
  23 H :    0.015727
  24 H :    0.023913
  25 C :   -0.033111
  26 H :    0.020183
  27 H :    0.019234
  28 C :   -0.065593
  29 H :    0.025011
  30 H :    0.031640
  31 H :    0.021358
  32 H :    0.021224
  33 H :    0.044928

  Mayer bond orders larger than 0.100000
B(  0-S ,  1-C ) :   1.1308 B(  0-S ,  4-C ) :   1.1150 B(  1-C ,  2-C ) :   1.6426
B(  1-C , 32-H ) :   0.9680 B(  2-C ,  3-C ) :   1.1919 B(  2-C ,  6-C ) :   1.0349
B(  3-C ,  4-C ) :   1.6279 B(  3-C ,  5-H ) :   0.9867 B(  4-C , 20-C ) :   1.0205
B(  6-C ,  7-H ) :   0.9379 B(  6-C ,  8-H ) :   0.9373 B(  6-C ,  9-C ) :   1.0612
B(  9-C , 10-H ) :   0.9595 B(  9-C , 11-H ) :   0.9507 B(  9-C , 12-C ) :   1.0558
B( 12-C , 13-H ) :   0.9815 B( 12-C , 14-H ) :   0.9759 B( 12-C , 15-H ) :   0.9788
B( 16-S , 17-C ) :   1.1507 B( 16-S , 20-C ) :   1.1273 B( 17-C , 18-C ) :   1.6541
B( 17-C , 33-H ) :   0.9543 B( 18-C , 19-C ) :   1.1987 B( 18-C , 21-H ) :   0.9876
B( 19-C , 20-C ) :   1.6352 B( 19-C , 22-C ) :   1.0307 B( 22-C , 23-H ) :   0.9322
B( 22-C , 24-H ) :   0.9275 B( 22-C , 25-C ) :   1.0736 B( 25-C , 26-H ) :   0.9530
B( 25-C , 27-H ) :   0.9478 B( 25-C , 28-C ) :   1.0858 B( 28-C , 29-H ) :   0.9701
B( 28-C , 30-H ) :   0.9742 B( 28-C , 31-H ) :   0.9725

Dispersion correction           -0.015158747
FINAL SINGLE POINT ENERGY     -1339.857638844546

DIPOLE MOMENT
-------------
                                X             Y             Z
Electronic contribution:      4.11910      26.36843     -16.16607
Nuclear contribution   :     -4.38823     -26.92140      16.49647
                        -----------------------------------------
Total Dipole Moment    :     -0.26913      -0.55298       0.33040
                        -----------------------------------------
Magnitude (a.u.)       :      0.69813
Magnitude (Debye)      :      1.77450

Rotational constants in cm-1:     0.019011     0.008547     0.007270
Rotational constants in MHz :   569.942771   256.220529   217.941618

                             ****ORCA TERMINATED NORMALLY****
TOTAL RUN TIME: 0 days 0 hours 0 minutes 22 seconds 149 msec
