                         Program Version 4.2.1 -  RELEASE  -
|  1> ! wB97X-D3 SP def2-SVP
|  2> %pal
|  3> nprocs 24
|  4> end
|  5>
|  6> * xyz 0 1
|  7> S 	 -130.405 	 30.6467 	 -19.1381
|  8> C 	 -131.474 	 29.9766 	 -17.9133
|  9> C 	 -132.559 	 29.3197 	 -18.5595
| 10> C 	 -132.53 	 29.4646 	 -19.9268
| 11> C 	 -131.407 	 30.0924 	 -20.4438
| 12> H 	 -133.274 	 29.1741 	 -20.6429
| 13> C 	 -133.631 	 28.527 	 -17.8721
| 14> H 	 -134.585 	 28.9449 	 -18.2762
| 15> H 	 -133.643 	 28.6885 	 -16.7693
| 16> C 	 -133.735 	 27.0174 	 -18.2966
| 17> H 	 -134.689 	 26.6519 	 -17.9743
| 18> H 	 -133.795 	 26.9309 	 -19.4469
| 19> C 	 -132.551 	 26.1702 	 -17.8739
| 20> H 	 -132.719 	 25.1426 	 -18.1974
| 21> H 	 -131.699 	 26.5832 	 -18.3118
| 22> H 	 -132.289 	 26.1971 	 -16.7745
| 23> S 	 -131.926 	 32.23 	 -22.1016
| 24> C 	 -131.966 	 32.0001 	 -23.8027
| 25> C 	 -131.483 	 30.7283 	 -24.1486
| 26> C 	 -131.136 	 29.907 	 -23.0228
| 27> C 	 -131.349 	 30.5606 	 -21.8371
| 28> H 	 -131.434 	 30.5501 	 -25.1947
| 29> C 	 -130.62 	 28.4683 	 -23.1574
| 30> H 	 -130.452 	 28.0635 	 -22.1869
| 31> H 	 -129.642 	 28.5982 	 -23.4672
| 32> C 	 -131.375 	 27.6122 	 -24.2165
| 33> H 	 -130.773 	 26.7439 	 -24.5295
| 34> H 	 -131.476 	 28.166 	 -25.1224
| 35> C 	 -132.863 	 27.2719 	 -23.9004
| 36> H 	 -133.186 	 26.4203 	 -24.5181
| 37> H 	 -133.535 	 27.9652 	 -24.1943
| 38> H 	 -133.176 	 27.1531 	 -22.8335
| 39> H 	 -131.301 	 29.8782 	 -16.8431
| 40> H 	 -132.112 	 32.7488 	 -24.5306
| 41> *
| 42>
| 43>                          ****END OF INPUT****

CARTESIAN COORDINATES (ANGSTROEM)
---------------------------------
  S    -130.405000   30.646700  -19.138100
  C    -131.474000   29.976600  -17.913300
  C    -132.559000   29.319700  -18.559500
  C    -132.530000   29.464600  -19.926800
  C    -131.407000   30.092400  -20.443800
  H    -133.274000   29.174100  -20.642900
  C    -133.631000   28.527000  -17.872100
  H    -134.585000   28.944900  -18.276200
  H    -133.643000   28.688500  -16.769300
  C    -133.735000   27.017400  -18.296600
  H    -134.689000   26.651900  -17.974300
  H    -133.795000   26.930900  -19.446900
  C    -132.551000   26.170200  -17.873900
  H    -132.719000   25.142600  -18.197400
  H    -131.699000   26.583200  -18.311800
  H    -132.289000   26.197100  -16.774500
  S    -131.926000   32.230000  -22.101600
  C    -131.966000   32.000100  -23.802700
  C    -131.483000   30.728300  -24.148600
  C    -131.136000   29.907000  -23.022800
  C    -131.349000   30.560600  -21.837100
  H    -131.434000   30.550100  -25.194700
  C    -130.620000   28.468300  -23.157400
  H    -130.452000   28.063500  -22.186900
  H    -129.642000   28.598200  -23.467200
  C    -131.375000   27.612200  -24.216500
  H    -130.773000   26.743900  -24.529500
  H    -131.476000   28.166000  -25.122400
  C    -132.863000   27.271900  -23.900400
  H    -133.186000   26.420300  -24.518100
  H    -133.535000   27.965200  -24.194300
  H    -133.176000   27.153100  -22.833500
  H    -131.301000   29.878200  -16.843100
  H    -132.112000   32.748800  -24.530600

 Total Charge           Charge          ....    0
 Multiplicity           Mult            ....    1
 Number of Electrons    NEL             ....  134
 Basis Dimension        Dim             ....  322

ORBITAL ENERGIES
----------------

  NO   OCC          E(Eh)            E(eV)
   0   2.0000     -88.970272     -2421.0042
   1   2.0000     -88.962415     -2420.7904
   2   2.0000     -10.326231      -280.9910
   3   2.0000     -10.325606      -280.9740
   4   2.0000     -10.318904      -280.7917
   5   2.0000     -10.313794      -280.6526
   6   2.0000     -10.306575      -280.4562
   7   2.0000     -10.299492      -280.2634
   8   2.0000     -10.297660      -280.2136
   9   2.0000     -10.293260      -280.0938
  10   2.0000     -10.292701      -280.0786
  11   2.0000     -10.292243      -280.0662
  12   2.0000     -10.287159      -279.9278
  13   2.0000     -10.286748      -279.9166
  14   2.0000     -10.272707      -279.5346
  15   2.0000     -10.272532      -279.5298
  16   2.0000      -8.084434      -219.9886
  17   2.0000      -8.077310      -219.7948
  18   2.0000      -6.042918      -164.4362
  19   2.0000      -6.038778      -164.3235
  20   2.0000      -6.035740      -164.2408
  21   2.0000      -6.035502      -164.2343
  22   2.0000      -6.031772      -164.1329
  23   2.0000      -6.028150      -164.0343
  24   2.0000      -1.006302       -27.3829
  25   2.0000      -0.984012       -26.7763
  26   2.0000      -0.908937       -24.7334
  27   2.0000      -0.905881       -24.6503
  28   2.0000      -0.866198       -23.5705
  29   2.0000      -0.851066       -23.1587
  30   2.0000      -0.846222       -23.0269
  31   2.0000      -0.811838       -22.0912
  32   2.0000      -0.789860       -21.4932
  33   2.0000      -0.775277       -21.0963
  34   2.0000      -0.712939       -19.4000
  35   2.0000      -0.703173       -19.1343
  36   2.0000      -0.693685       -18.8761
  37   2.0000      -0.657096       -17.8805
  38   2.0000      -0.639546       -17.4029
  39   2.0000      -0.620197       -16.8764
  40   2.0000      -0.596518       -16.2321
  41   2.0000      -0.567833       -15.4515
  42   2.0000      -0.551135       -14.9971
  43   2.0000      -0.549323       -14.9478
  44   2.0000      -0.535569       -14.5736
  45   2.0000      -0.531852       -14.4724
  46   2.0000      -0.522349       -14.2138
  47   2.0000      -0.518701       -14.1146
  48   2.0000      -0.504267       -13.7218
  49   2.0000      -0.496608       -13.5134
  50   2.0000      -0.485624       -13.2145
  51   2.0000      -0.478579       -13.0228
  52   2.0000      -0.471501       -12.8302
  53   2.0000      -0.463994       -12.6259
  54   2.0000      -0.462574       -12.5873
  55   2.0000      -0.447628       -12.1806
  56   2.0000      -0.444669       -12.1001
  57   2.0000      -0.441967       -12.0265
  58   2.0000      -0.429523       -11.6879
  59   2.0000      -0.425492       -11.5782
  60   2.0000      -0.421648       -11.4736
  61   2.0000      -0.415384       -11.3032
  62   2.0000      -0.412552       -11.2261
  63   2.0000      -0.338358        -9.2072
  64   2.0000      -0.329400        -8.9634
  65   2.0000      -0.321303        -8.7431
  66   2.0000      -0.304512        -8.2862
  67   0.0000       0.039189         1.0664
  68   0.0000       0.055235         1.5030
  69   0.0000       0.120280         3.2730
  70   0.0000       0.123236         3.3534
  71   0.0000       0.127546         3.4707

MULLIKEN ATOMIC CHARGES
-----------------------
   0 S :    0.118290
   1 C :   -0.121537
   2 C :   -0.071087
   3 C :    0.033379
   4 C :   -0.179177
   5 H :    0.009347
   6 C :    0.041067
   7 H :    0.035562
   8 H :    0.031872
   9 C :   -0.090704
  10 H :    0.023380
  11 H :    0.035534
  12 C :   -0.030097
  13 H :    0.039514
  14 H :    0.025287
  15 H :    0.029471
  16 S :    0.114853
  17 C :   -0.080818
  18 C :   -0.059547
  19 C :   -0.027928
  20 C :   -0.189645
  21 H :    0.010123
  22 C :    0.162740
  23 H :    0.015333
  24 H :    0.011030
  25 C :   -0.074556
  26 H :    0.035981
  27 H :    0.020293
  28 C :   -0.031837
  29 H :    0.028445
  30 H :    0.003888
  31 H :    0.033500
  32 H :    0.053214
  33 H :    0.044832
Sum of atomic charges:   -0.0000000

LOEWDIN ATOMIC CHARGES
----------------------
   0 S :    0.421018
   1 C :   -0.204832
   2 C :   -0.068957
   3 C :   -0.056142
   4 C :   -0.213017
   5 H :    0.030699
   6 C :   -0.036337
   7 H :    0.039478
   8 H :    0.031807
   9 C :   -0.040155
  10 H :    0.017078
  11 H :    0.032117
  12 C :   -0.067501
  13 H :    0.028301
  14 H :    0.019041
  15 H :    0.028829
  16 S :    0.406290
  17 C :   -0.186503
  18 C :   -0.075091
  19 C :   -0.047660
  20 C :   -0.194122
  21 H :    0.024532
  22 C :   -0.019646
  23 H :    0.028620
  24 H :    0.029378
  25 C :   -0.035176
  26 H :    0.028828
  27 H :    0.022898
  28 C :   -0.069373
  29 H :    0.032550
  30 H :    0.010269
  31 H :    0.028914
  32 H :    0.031688
  33 H :    0.022176

  Mayer bond orders larger than 0.100000
B(  0-S ,  1-C ) :   1.1590 B(  0-S ,  4-C ) :   1.1691 B(  1-C ,  2-C ) :   1.5414
B(  1-C ,  4-C ) :   0.1108 B(  1-C , 32-H ) :   0.9682 B(  2-C ,  3-C ) :   1.2802
B(  2-C ,  6-C ) :   1.0342 B(  3-C ,  4-C ) :   1.5410 B(  3-C ,  5-H ) :   0.9967
B(  4-C , 20-C ) :   1.0028 B(  6-C ,  7-H ) :   0.9331 B(  6-C ,  8-H ) :   0.9469
B(  6-C ,  9-C ) :   1.0685 B(  9-C , 10-H ) :   0.9577 B(  9-C , 11-H ) :   0.9519
B(  9-C , 12-C ) :   1.0683 B( 12-C , 13-H ) :   0.9730 B( 12-C , 14-H ) :   0.9738
B( 12-C , 15-H ) :   0.9743 B( 16-S , 17-C ) :   1.1686 B( 16-S , 20-C ) :   1.1357
B( 17-C , 18-C ) :   1.6209 B( 17-C , 33-H ) :   0.9683 B( 18-C , 19-C ) :   1.2113
B( 18-C , 21-H ) :   0.9963 B( 19-C , 20-C ) :   1.6275 B( 19-C , 22-C ) :   1.0255
B( 22-C , 23-H ) :   0.9326 B( 22-C , 24-H ) :   0.9201 B( 22-C , 25-C ) :   1.0714
B( 25-C , 26-H ) :   0.9618 B( 25-C , 27-H ) :   0.9543 B( 25-C , 28-C ) :   1.0579
B( 28-C , 29-H ) :   0.9720 B( 28-C , 30-H ) :   0.9737 B( 28-C , 31-H ) :   0.9787

Dispersion correction           -0.015065214
FINAL SINGLE POINT ENERGY     -1339.865383506999

DIPOLE MOMENT
-------------
                                X             Y             Z
Electronic contribution:      9.60396      26.21143       2.16829
Nuclear contribution   :     -9.86821     -26.69463      -2.45457
                        -----------------------------------------
Total Dipole Moment    :     -0.26425      -0.48320      -0.28628
                        -----------------------------------------
Magnitude (a.u.)       :      0.62070
Magnitude (Debye)      :      1.57769

Rotational constants in cm-1:     0.017813     0.009737     0.007332
Rotational constants in MHz :   534.030427   291.896823   219.808613

                             ****ORCA TERMINATED NORMALLY****
TOTAL RUN TIME: 0 days 0 hours 0 minutes 20 seconds 925 msec
