                         Program Version 4.2.1 -  RELEASE  -
|  1> ! wB97X-D3 SP def2-SVP
|  2> %pal
|  3> nprocs 24
|  4> end
|  5>
|  6> * xyz 0 1
|  7> S 	 -113.029 	 35.3869 	 -118.122
|  8> C 	 -112.668 	 33.6478 	 -117.952
|  9> C 	 -113.4 	 32.836 	 -118.787
| 10> C 	 -114.343 	 33.6394 	 -119.566
| 11> C 	 -114.253 	 35.0022 	 -119.362
| 12> H 	 -115.096 	 33.249 	 -120.233
| 13> C 	 -113.229 	 31.3726 	 -119.145
| 14> H 	 -112.181 	 31.1735 	 -119.422
| 15> H 	 -113.864 	 31.1974 	 -119.993
| 16> C 	 -113.757 	 30.2637 	 -118.164
| 17> H 	 -113.187 	 30.4324 	 -117.214
| 18> H 	 -114.847 	 30.5015 	 -118.067
| 19> C 	 -113.532 	 28.885 	 -118.705
| 20> H 	 -113.87 	 28.112 	 -117.982
| 21> H 	 -114.182 	 28.745 	 -119.617
| 22> H 	 -112.51 	 28.8215 	 -119.017
| 23> S 	 -115.123 	 36.1517 	 -121.719
| 24> C 	 -116.557 	 37.1491 	 -121.672
| 25> C 	 -116.753 	 37.6394 	 -120.387
| 26> C 	 -116.065 	 36.8736 	 -119.418
| 27> C 	 -115.132 	 35.9956 	 -119.95
| 28> H 	 -117.549 	 38.3882 	 -120.312
| 29> C 	 -116.292 	 37.0277 	 -117.945
| 30> H 	 -116.971 	 37.9328 	 -117.869
| 31> H 	 -115.311 	 37.1711 	 -117.408
| 32> C 	 -117.181 	 35.9136 	 -117.343
| 33> H 	 -117.249 	 36.2038 	 -116.313
| 34> H 	 -116.628 	 34.9353 	 -117.367
| 35> C 	 -118.542 	 35.6403 	 -118.022
| 36> H 	 -119.008 	 36.5894 	 -118.241
| 37> H 	 -119.235 	 35.0314 	 -117.42
| 38> H 	 -118.371 	 35.0752 	 -118.96
| 39> H 	 -111.988 	 33.1763 	 -117.288
| 40> H 	 -117.004 	 37.5556 	 -122.603
| 41> *
| 42>
| 43>                          ****END OF INPUT****

CARTESIAN COORDINATES (ANGSTROEM)
---------------------------------
  S    -113.029000   35.386900  -118.122000
  C    -112.668000   33.647800  -117.952000
  C    -113.400000   32.836000  -118.787000
  C    -114.343000   33.639400  -119.566000
  C    -114.253000   35.002200  -119.362000
  H    -115.096000   33.249000  -120.233000
  C    -113.229000   31.372600  -119.145000
  H    -112.181000   31.173500  -119.422000
  H    -113.864000   31.197400  -119.993000
  C    -113.757000   30.263700  -118.164000
  H    -113.187000   30.432400  -117.214000
  H    -114.847000   30.501500  -118.067000
  C    -113.532000   28.885000  -118.705000
  H    -113.870000   28.112000  -117.982000
  H    -114.182000   28.745000  -119.617000
  H    -112.510000   28.821500  -119.017000
  S    -115.123000   36.151700  -121.719000
  C    -116.557000   37.149100  -121.672000
  C    -116.753000   37.639400  -120.387000
  C    -116.065000   36.873600  -119.418000
  C    -115.132000   35.995600  -119.950000
  H    -117.549000   38.388200  -120.312000
  C    -116.292000   37.027700  -117.945000
  H    -116.971000   37.932800  -117.869000
  H    -115.311000   37.171100  -117.408000
  C    -117.181000   35.913600  -117.343000
  H    -117.249000   36.203800  -116.313000
  H    -116.628000   34.935300  -117.367000
  C    -118.542000   35.640300  -118.022000
  H    -119.008000   36.589400  -118.241000
  H    -119.235000   35.031400  -117.420000
  H    -118.371000   35.075200  -118.960000
  H    -111.988000   33.176300  -117.288000
  H    -117.004000   37.555600  -122.603000

 Total Charge           Charge          ....    0
 Multiplicity           Mult            ....    1
 Number of Electrons    NEL             ....  134
 Basis Dimension        Dim             ....  322

ORBITAL ENERGIES
----------------

  NO   OCC          E(Eh)            E(eV)
   0   2.0000     -88.971082     -2421.0262
   1   2.0000     -88.962381     -2420.7894
   2   2.0000     -10.331421      -281.1323
   3   2.0000     -10.323907      -280.9278
   4   2.0000     -10.319014      -280.7946
   5   2.0000     -10.316462      -280.7252
   6   2.0000     -10.304539      -280.4008
   7   2.0000     -10.300953      -280.3032
   8   2.0000     -10.296772      -280.1894
   9   2.0000     -10.295700      -280.1602
  10   2.0000     -10.295199      -280.1466
  11   2.0000     -10.294472      -280.1268
  12   2.0000     -10.293257      -280.0938
  13   2.0000     -10.284061      -279.8435
  14   2.0000     -10.282984      -279.8142
  15   2.0000     -10.277490      -279.6647
  16   2.0000      -8.084247      -219.9835
  17   2.0000      -8.076924      -219.7843
  18   2.0000      -6.042930      -164.4365
  19   2.0000      -6.039099      -164.3322
  20   2.0000      -6.035300      -164.2289
  21   2.0000      -6.034789      -164.2149
  22   2.0000      -6.031513      -164.1258
  23   2.0000      -6.027780      -164.0242
  24   2.0000      -1.002396       -27.2766
  25   2.0000      -0.979361       -26.6498
  26   2.0000      -0.912178       -24.8216
  27   2.0000      -0.904179       -24.6040
  28   2.0000      -0.870808       -23.6959
  29   2.0000      -0.849949       -23.1283
  30   2.0000      -0.842078       -22.9141
  31   2.0000      -0.811001       -22.0685
  32   2.0000      -0.780800       -21.2467
  33   2.0000      -0.771773       -21.0010
  34   2.0000      -0.708134       -19.2693
  35   2.0000      -0.694375       -18.8949
  36   2.0000      -0.683464       -18.5980
  37   2.0000      -0.661143       -17.9906
  38   2.0000      -0.637793       -17.3552
  39   2.0000      -0.613987       -16.7074
  40   2.0000      -0.582691       -15.8558
  41   2.0000      -0.574982       -15.6461
  42   2.0000      -0.567189       -15.4340
  43   2.0000      -0.553667       -15.0660
  44   2.0000      -0.540983       -14.7209
  45   2.0000      -0.527400       -14.3513
  46   2.0000      -0.514872       -14.0104
  47   2.0000      -0.506055       -13.7705
  48   2.0000      -0.503183       -13.6923
  49   2.0000      -0.496659       -13.5148
  50   2.0000      -0.480399       -13.0723
  51   2.0000      -0.476637       -12.9699
  52   2.0000      -0.472377       -12.8540
  53   2.0000      -0.463919       -12.6239
  54   2.0000      -0.459357       -12.4997
  55   2.0000      -0.453526       -12.3411
  56   2.0000      -0.443700       -12.0737
  57   2.0000      -0.433549       -11.7975
  58   2.0000      -0.431308       -11.7365
  59   2.0000      -0.429619       -11.6905
  60   2.0000      -0.416003       -11.3200
  61   2.0000      -0.412366       -11.2210
  62   2.0000      -0.404638       -11.0108
  63   2.0000      -0.337959        -9.1963
  64   2.0000      -0.330675        -8.9981
  65   2.0000      -0.327536        -8.9127
  66   2.0000      -0.297395        -8.0925
  67   0.0000       0.027633         0.7519
  68   0.0000       0.064457         1.7540
  69   0.0000       0.100682         2.7397
  70   0.0000       0.110410         3.0044
  71   0.0000       0.118669         3.2291

MULLIKEN ATOMIC CHARGES
-----------------------
   0 S :    0.110467
   1 C :   -0.099035
   2 C :   -0.066607
   3 C :    0.028796
   4 C :   -0.150215
   5 H :    0.015669
   6 C :    0.031149
   7 H :    0.042114
   8 H :    0.010461
   9 C :   -0.105525
  10 H :    0.036452
  11 H :    0.039025
  12 C :   -0.033469
  13 H :    0.051662
  14 H :    0.031440
  15 H :    0.029028
  16 S :    0.103034
  17 C :   -0.129435
  18 C :   -0.036616
  19 C :   -0.025060
  20 C :   -0.169878
  21 H :    0.029286
  22 C :    0.035969
  23 H :    0.021657
  24 H :    0.051873
  25 C :   -0.076954
  26 H :    0.027299
  27 H :    0.040801
  28 C :   -0.052098
  29 H :    0.019665
  30 H :    0.040755
  31 H :    0.047641
  32 H :    0.028353
  33 H :    0.072297
Sum of atomic charges:    0.0000000

LOEWDIN ATOMIC CHARGES
----------------------
   0 S :    0.381171
   1 C :   -0.177327
   2 C :   -0.062349
   3 C :   -0.050402
   4 C :   -0.190038
   5 H :    0.029805
   6 C :   -0.034632
   7 H :    0.032866
   8 H :    0.026295
   9 C :   -0.045252
  10 H :    0.023267
  11 H :    0.028643
  12 C :   -0.068359
  13 H :    0.034533
  14 H :    0.030728
  15 H :    0.022580
  16 S :    0.397836
  17 C :   -0.188051
  18 C :   -0.076492
  19 C :   -0.060488
  20 C :   -0.196814
  21 H :    0.035909
  22 C :   -0.038474
  23 H :    0.033702
  24 H :    0.034911
  25 C :   -0.042154
  26 H :    0.019556
  27 H :    0.028195
  28 C :   -0.066462
  29 H :    0.017875
  30 H :    0.030034
  31 H :    0.032825
  32 H :    0.022470
  33 H :    0.034092

  Mayer bond orders larger than 0.100000
B(  0-S ,  1-C ) :   1.1206 B(  0-S ,  4-C ) :   1.1119 B(  1-C ,  2-C ) :   1.6564
B(  1-C , 32-H ) :   0.9670 B(  2-C ,  3-C ) :   1.2086 B(  2-C ,  6-C ) :   1.0161
B(  3-C ,  4-C ) :   1.6197 B(  3-C ,  5-H ) :   0.9858 B(  4-C , 20-C ) :   1.0453
B(  6-C ,  7-H ) :   0.9427 B(  6-C ,  8-H ) :   0.9441 B(  6-C ,  9-C ) :   1.0524
B(  9-C , 10-H ) :   0.9572 B(  9-C , 11-H ) :   0.9560 B(  9-C , 12-C ) :   1.0867
B( 12-C , 13-H ) :   0.9709 B( 12-C , 14-H ) :   0.9708 B( 12-C , 15-H ) :   0.9713
B( 16-S , 17-C ) :   1.1732 B( 16-S , 20-C ) :   1.1390 B( 17-C , 18-C ) :   1.5943
B( 17-C , 20-C ) :   0.1046 B( 17-C , 33-H ) :   0.9606 B( 18-C , 19-C ) :   1.2443
B( 18-C , 21-H ) :   0.9863 B( 19-C , 20-C ) :   1.5731 B( 19-C , 22-C ) :   1.0405
B( 22-C , 23-H ) :   0.9317 B( 22-C , 24-H ) :   0.9368 B( 22-C , 25-C ) :   1.0668
B( 25-C , 26-H ) :   0.9589 B( 25-C , 27-H ) :   0.9570 B( 25-C , 28-C ) :   1.0686
B( 28-C , 29-H ) :   0.9768 B( 28-C , 30-H ) :   0.9746 B( 28-C , 31-H ) :   0.9712

Dispersion correction           -0.014858809
FINAL SINGLE POINT ENERGY     -1339.878010388886

DIPOLE MOMENT
-------------
                                X             Y             Z
Electronic contribution:     10.23389      18.79851     -10.05245
Nuclear contribution   :    -10.53801     -19.18764      10.16657
                        -----------------------------------------
Total Dipole Moment    :     -0.30412      -0.38912       0.11412
                        -----------------------------------------
Magnitude (a.u.)       :      0.50688
Magnitude (Debye)      :      1.28838

Rotational constants in cm-1:     0.020455     0.007503     0.007140
Rotational constants in MHz :   613.228412   224.928547   214.046904

                             ****ORCA TERMINATED NORMALLY****
TOTAL RUN TIME: 0 days 0 hours 0 minutes 20 seconds 527 msec
