                         Program Version 4.2.1 -  RELEASE  -
|  1> ! wB97X-D3 SP def2-SVP
|  2> %pal
|  3> nprocs 24
|  4> end
|  5>
|  6> * xyz 0 1
|  7> S 	 -65.6113 	 15.7133 	 -118.787
|  8> C 	 -66.2423 	 14.6506 	 -117.552
|  9> C 	 -65.3722 	 14.393 	 -116.51
| 10> C 	 -64.143 	 15.1127 	 -116.721
| 11> C 	 -64.1735 	 15.9404 	 -117.819
| 12> H 	 -63.2354 	 15.1021 	 -116.188
| 13> C 	 -65.6506 	 13.4119 	 -115.385
| 14> H 	 -66.4121 	 12.7201 	 -115.711
| 15> H 	 -66.1617 	 13.995 	 -114.644
| 16> C 	 -64.4329 	 12.5091 	 -114.875
| 17> H 	 -64.504 	 11.5721 	 -115.485
| 18> H 	 -63.3909 	 12.826 	 -115.028
| 19> C 	 -64.6072 	 12.0723 	 -113.429
| 20> H 	 -63.6965 	 11.6002 	 -113.101
| 21> H 	 -64.8186 	 12.8586 	 -112.667
| 22> H 	 -65.4749 	 11.3424 	 -113.371
| 23> S 	 -62.6628 	 16.836 	 -119.929
| 24> C 	 -61.1919 	 17.6452 	 -119.617
| 25> C 	 -61.146 	 18.0873 	 -118.329
| 26> C 	 -62.244 	 17.6198 	 -117.497
| 27> C 	 -63.086 	 16.8044 	 -118.225
| 28> H 	 -60.2115 	 18.6428 	 -118.051
| 29> C 	 -62.2682 	 17.8946 	 -115.997
| 30> H 	 -63.244 	 17.6098 	 -115.67
| 31> H 	 -62.2927 	 18.9963 	 -115.898
| 32> C 	 -61.0227 	 17.3345 	 -115.183
| 33> H 	 -60.1602 	 17.7814 	 -115.561
| 34> H 	 -60.8941 	 16.2677 	 -115.384
| 35> C 	 -61.0666 	 17.4867 	 -113.679
| 36> H 	 -60.1493 	 16.9501 	 -113.182
| 37> H 	 -61.9337 	 16.9278 	 -113.259
| 38> H 	 -60.9857 	 18.5376 	 -113.324
| 39> H 	 -67.0618 	 14.0303 	 -117.738
| 40> H 	 -60.3676 	 17.8286 	 -120.317
| 41> *
| 42>
| 43>                          ****END OF INPUT****

CARTESIAN COORDINATES (ANGSTROEM)
---------------------------------
  S    -65.611300   15.713300  -118.787000
  C    -66.242300   14.650600  -117.552000
  C    -65.372200   14.393000  -116.510000
  C    -64.143000   15.112700  -116.721000
  C    -64.173500   15.940400  -117.819000
  H    -63.235400   15.102100  -116.188000
  C    -65.650600   13.411900  -115.385000
  H    -66.412100   12.720100  -115.711000
  H    -66.161700   13.995000  -114.644000
  C    -64.432900   12.509100  -114.875000
  H    -64.504000   11.572100  -115.485000
  H    -63.390900   12.826000  -115.028000
  C    -64.607200   12.072300  -113.429000
  H    -63.696500   11.600200  -113.101000
  H    -64.818600   12.858600  -112.667000
  H    -65.474900   11.342400  -113.371000
  S    -62.662800   16.836000  -119.929000
  C    -61.191900   17.645200  -119.617000
  C    -61.146000   18.087300  -118.329000
  C    -62.244000   17.619800  -117.497000
  C    -63.086000   16.804400  -118.225000
  H    -60.211500   18.642800  -118.051000
  C    -62.268200   17.894600  -115.997000
  H    -63.244000   17.609800  -115.670000
  H    -62.292700   18.996300  -115.898000
  C    -61.022700   17.334500  -115.183000
  H    -60.160200   17.781400  -115.561000
  H    -60.894100   16.267700  -115.384000
  C    -61.066600   17.486700  -113.679000
  H    -60.149300   16.950100  -113.182000
  H    -61.933700   16.927800  -113.259000
  H    -60.985700   18.537600  -113.324000
  H    -67.061800   14.030300  -117.738000
  H    -60.367600   17.828600  -120.317000

 Total Charge           Charge          ....    0
 Multiplicity           Mult            ....    1
 Number of Electrons    NEL             ....  134
 Basis Dimension        Dim             ....  322

ORBITAL ENERGIES
----------------

  NO   OCC          E(Eh)            E(eV)
   0   2.0000     -88.965477     -2420.8737
   1   2.0000     -88.961120     -2420.7552
   2   2.0000     -10.325228      -280.9637
   3   2.0000     -10.324374      -280.9405
   4   2.0000     -10.313029      -280.6318
   5   2.0000     -10.306222      -280.4466
   6   2.0000     -10.305645      -280.4309
   7   2.0000     -10.303938      -280.3844
   8   2.0000     -10.298099      -280.2255
   9   2.0000     -10.296997      -280.1955
  10   2.0000     -10.295128      -280.1447
  11   2.0000     -10.294215      -280.1198
  12   2.0000     -10.291842      -280.0553
  13   2.0000     -10.289316      -279.9865
  14   2.0000     -10.288350      -279.9602
  15   2.0000     -10.284825      -279.8643
  16   2.0000      -8.080374      -219.8781
  17   2.0000      -8.076971      -219.7856
  18   2.0000      -6.038854      -164.3256
  19   2.0000      -6.035501      -164.2343
  20   2.0000      -6.035036      -164.2217
  21   2.0000      -6.031417      -164.1232
  22   2.0000      -6.031009      -164.1121
  23   2.0000      -6.027552      -164.0180
  24   2.0000      -1.009346       -27.4657
  25   2.0000      -0.985289       -26.8111
  26   2.0000      -0.906476       -24.6665
  27   2.0000      -0.904859       -24.6225
  28   2.0000      -0.872291       -23.7362
  29   2.0000      -0.854811       -23.2606
  30   2.0000      -0.845450       -23.0059
  31   2.0000      -0.817724       -22.2514
  32   2.0000      -0.781795       -21.2737
  33   2.0000      -0.770238       -20.9592
  34   2.0000      -0.708622       -19.2826
  35   2.0000      -0.701626       -19.0922
  36   2.0000      -0.693321       -18.8662
  37   2.0000      -0.658316       -17.9137
  38   2.0000      -0.641278       -17.4501
  39   2.0000      -0.620273       -16.8785
  40   2.0000      -0.591399       -16.0928
  41   2.0000      -0.565462       -15.3870
  42   2.0000      -0.563583       -15.3359
  43   2.0000      -0.553997       -15.0750
  44   2.0000      -0.530050       -14.4234
  45   2.0000      -0.523854       -14.2548
  46   2.0000      -0.514403       -13.9976
  47   2.0000      -0.510013       -13.8782
  48   2.0000      -0.506553       -13.7840
  49   2.0000      -0.498122       -13.5546
  50   2.0000      -0.494617       -13.4592
  51   2.0000      -0.483042       -13.1442
  52   2.0000      -0.470812       -12.8115
  53   2.0000      -0.466476       -12.6935
  54   2.0000      -0.459714       -12.5094
  55   2.0000      -0.450785       -12.2665
  56   2.0000      -0.446647       -12.1539
  57   2.0000      -0.439323       -11.9546
  58   2.0000      -0.429175       -11.6784
  59   2.0000      -0.424893       -11.5619
  60   2.0000      -0.422553       -11.4982
  61   2.0000      -0.419474       -11.4145
  62   2.0000      -0.413614       -11.2550
  63   2.0000      -0.352019        -9.5789
  64   2.0000      -0.331426        -9.0186
  65   2.0000      -0.326401        -8.8818
  66   2.0000      -0.287458        -7.8221
  67   0.0000       0.030347         0.8258
  68   0.0000       0.076081         2.0703
  69   0.0000       0.107992         2.9386
  70   0.0000       0.122591         3.3359
  71   0.0000       0.130005         3.5376

MULLIKEN ATOMIC CHARGES
-----------------------
   0 S :    0.108366
   1 C :   -0.098620
   2 C :   -0.074035
   3 C :    0.018310
   4 C :   -0.144020
   5 H :   -0.012730
   6 C :    0.094314
   7 H :    0.016962
   8 H :    0.040368
   9 C :   -0.095785
  10 H :    0.042474
  11 H :    0.042699
  12 C :   -0.081834
  13 H :    0.032145
  14 H :    0.039908
  15 H :    0.038605
  16 S :    0.101368
  17 C :   -0.094581
  18 C :   -0.068703
  19 C :   -0.042520
  20 C :   -0.155480
  21 H :    0.036354
  22 C :    0.082628
  23 H :    0.014345
  24 H :    0.030390
  25 C :   -0.036012
  26 H :    0.012162
  27 H :    0.028186
  28 C :   -0.092271
  29 H :    0.041867
  30 H :    0.042847
  31 H :    0.044868
  32 H :    0.024798
  33 H :    0.062630
Sum of atomic charges:    0.0000000

LOEWDIN ATOMIC CHARGES
----------------------
   0 S :    0.399755
   1 C :   -0.194491
   2 C :   -0.053737
   3 C :   -0.059588
   4 C :   -0.188303
   5 H :    0.023230
   6 C :   -0.027101
   7 H :    0.031378
   8 H :    0.033120
   9 C :   -0.044398
  10 H :    0.034586
  11 H :    0.024694
  12 C :   -0.073281
  13 H :    0.023960
  14 H :    0.026296
  15 H :    0.030212
  16 S :    0.405875
  17 C :   -0.198883
  18 C :   -0.083278
  19 C :   -0.054270
  20 C :   -0.194481
  21 H :    0.038545
  22 C :   -0.030075
  23 H :    0.023314
  24 H :    0.036787
  25 C :   -0.037559
  26 H :    0.015434
  27 H :    0.025491
  28 C :   -0.076476
  29 H :    0.037427
  30 H :    0.028561
  31 H :    0.027063
  32 H :    0.013038
  33 H :    0.037154

  Mayer bond orders larger than 0.100000
B(  0-S ,  1-C ) :   1.1295 B(  0-S ,  4-C ) :   1.1424 B(  1-C ,  2-C ) :   1.6323
B(  1-C , 32-H ) :   0.9687 B(  2-C ,  3-C ) :   1.2111 B(  2-C ,  6-C ) :   1.0149
B(  3-C ,  4-C ) :   1.5873 B(  3-C ,  5-H ) :   1.0061 B(  4-C , 20-C ) :   1.0576
B(  6-C ,  7-H ) :   0.9404 B(  6-C ,  8-H ) :   0.9438 B(  6-C ,  9-C ) :   1.0246
B(  9-C , 10-H ) :   0.9595 B(  9-C , 11-H ) :   0.9698 B(  9-C , 12-C ) :   1.0770
B( 12-C , 13-H ) :   0.9745 B( 12-C , 14-H ) :   0.9788 B( 12-C , 15-H ) :   0.9769
B( 16-S , 17-C ) :   1.1491 B( 16-S , 20-C ) :   1.1261 B( 17-C , 18-C ) :   1.6525
B( 17-C , 33-H ) :   0.9637 B( 18-C , 19-C ) :   1.1907 B( 18-C , 21-H ) :   0.9819
B( 19-C , 20-C ) :   1.6141 B( 19-C , 22-C ) :   1.0557 B( 22-C , 23-H ) :   0.9333
B( 22-C , 24-H ) :   0.9272 B( 22-C , 25-C ) :   1.0432 B( 25-C , 26-H ) :   0.9501
B( 25-C , 27-H ) :   0.9561 B( 25-C , 28-C ) :   1.0933 B( 28-C , 29-H ) :   0.9716
B( 28-C , 30-H ) :   0.9742 B( 28-C , 31-H ) :   0.9743

Dispersion correction           -0.013782237
FINAL SINGLE POINT ENERGY     -1339.874315381752

DIPOLE MOMENT
-------------
                                X             Y             Z
Electronic contribution:     -7.43917       9.28113     -31.21459
Nuclear contribution   :      7.85087      -9.55060      31.85017
                        -----------------------------------------
Total Dipole Moment    :      0.41170      -0.26947       0.63558
                        -----------------------------------------
Magnitude (a.u.)       :      0.80379
Magnitude (Debye)      :      2.04307

Rotational constants in cm-1:     0.015647     0.009646     0.006521
Rotational constants in MHz :   469.075196   289.178534   195.483876

                             ****ORCA TERMINATED NORMALLY****
TOTAL RUN TIME: 0 days 0 hours 0 minutes 21 seconds 223 msec
