                         Program Version 4.2.1 -  RELEASE  -
|  1> ! wB97X-D3 SP def2-SVP
|  2> %pal
|  3> nprocs 24
|  4> end
|  5>
|  6> * xyz 0 1
|  7> S 	 -100.502 	 -2.24196 	 -108.069
|  8> C 	 -101.932 	 -2.41253 	 -107.082
|  9> C 	 -101.634 	 -2.4137 	 -105.682
| 10> C 	 -100.321 	 -1.90974 	 -105.574
| 11> C 	 -99.5829 	 -1.6631 	 -106.707
| 12> H 	 -99.883 	 -1.89338 	 -104.604
| 13> C 	 -102.533 	 -2.73871 	 -104.586
| 14> H 	 -103.267 	 -3.3397 	 -105.032
| 15> H 	 -103.096 	 -1.85493 	 -104.303
| 16> C 	 -101.918 	 -3.42612 	 -103.338
| 17> H 	 -101.688 	 -4.44363 	 -103.671
| 18> H 	 -100.915 	 -3.0269 	 -103.051
| 19> C 	 -102.9 	 -3.4268 	 -102.176
| 20> H 	 -102.716 	 -4.05553 	 -101.258
| 21> H 	 -102.963 	 -2.43392 	 -101.788
| 22> H 	 -103.865 	 -3.76516 	 -102.554
| 23> S 	 -97.1263 	 -2.89597 	 -107.409
| 24> C 	 -95.6445 	 -2.08956 	 -107.024
| 25> C 	 -95.8681 	 -0.873161 	 -106.447
| 26> C 	 -97.2919 	 -0.492588 	 -106.331
| 27> C 	 -98.1137 	 -1.51235 	 -106.855
| 28> H 	 -95.0481 	 -0.268139 	 -106.135
| 29> C 	 -97.7007 	 0.785715 	 -105.667
| 30> H 	 -98.7817 	 0.8423 	 -105.956
| 31> H 	 -97.1783 	 1.63541 	 -106.127
| 32> C 	 -97.5449 	 0.771287 	 -104.11
| 33> H 	 -96.6382 	 0.31647 	 -103.765
| 34> H 	 -98.4009 	 0.13925 	 -103.71
| 35> C 	 -97.7234 	 2.12633 	 -103.4
| 36> H 	 -96.8941 	 2.81002 	 -103.641
| 37> H 	 -97.7791 	 2.03128 	 -102.321
| 38> H 	 -98.5818 	 2.68517 	 -103.754
| 39> H 	 -102.815 	 -2.92319 	 -107.478
| 40> H 	 -94.701 	 -2.4446 	 -107.244
| 41> *
| 42>
| 43>                          ****END OF INPUT****

CARTESIAN COORDINATES (ANGSTROEM)
---------------------------------
  S    -100.502000   -2.241960  -108.069000
  C    -101.932000   -2.412530  -107.082000
  C    -101.634000   -2.413700  -105.682000
  C    -100.321000   -1.909740  -105.574000
  C    -99.582900   -1.663100  -106.707000
  H    -99.883000   -1.893380  -104.604000
  C    -102.533000   -2.738710  -104.586000
  H    -103.267000   -3.339700  -105.032000
  H    -103.096000   -1.854930  -104.303000
  C    -101.918000   -3.426120  -103.338000
  H    -101.688000   -4.443630  -103.671000
  H    -100.915000   -3.026900  -103.051000
  C    -102.900000   -3.426800  -102.176000
  H    -102.716000   -4.055530  -101.258000
  H    -102.963000   -2.433920  -101.788000
  H    -103.865000   -3.765160  -102.554000
  S    -97.126300   -2.895970  -107.409000
  C    -95.644500   -2.089560  -107.024000
  C    -95.868100   -0.873161  -106.447000
  C    -97.291900   -0.492588  -106.331000
  C    -98.113700   -1.512350  -106.855000
  H    -95.048100   -0.268139  -106.135000
  C    -97.700700    0.785715  -105.667000
  H    -98.781700    0.842300  -105.956000
  H    -97.178300    1.635410  -106.127000
  C    -97.544900    0.771287  -104.110000
  H    -96.638200    0.316470  -103.765000
  H    -98.400900    0.139250  -103.710000
  C    -97.723400    2.126330  -103.400000
  H    -96.894100    2.810020  -103.641000
  H    -97.779100    2.031280  -102.321000
  H    -98.581800    2.685170  -103.754000
  H    -102.815000   -2.923190  -107.478000
  H    -94.701000   -2.444600  -107.244000

 Total Charge           Charge          ....    0
 Multiplicity           Mult            ....    1
 Number of Electrons    NEL             ....  134
 Basis Dimension        Dim             ....  322

ORBITAL ENERGIES
----------------

  NO   OCC          E(Eh)            E(eV)
   0   2.0000     -88.966263     -2420.8951
   1   2.0000     -88.963571     -2420.8218
   2   2.0000     -10.332028      -281.1488
   3   2.0000     -10.328180      -281.0441
   4   2.0000     -10.317805      -280.7617
   5   2.0000     -10.310139      -280.5531
   6   2.0000     -10.307180      -280.4726
   7   2.0000     -10.303076      -280.3610
   8   2.0000     -10.296452      -280.1807
   9   2.0000     -10.295737      -280.1612
  10   2.0000     -10.292380      -280.0699
  11   2.0000     -10.290775      -280.0262
  12   2.0000     -10.290414      -280.0164
  13   2.0000     -10.289844      -280.0009
  14   2.0000     -10.283794      -279.8363
  15   2.0000     -10.277810      -279.6734
  16   2.0000      -8.081163      -219.8996
  17   2.0000      -8.078086      -219.8159
  18   2.0000      -6.039517      -164.3436
  19   2.0000      -6.036782      -164.2692
  20   2.0000      -6.035708      -164.2400
  21   2.0000      -6.032637      -164.1564
  22   2.0000      -6.032016      -164.1395
  23   2.0000      -6.028649      -164.0479
  24   2.0000      -1.004061       -27.3219
  25   2.0000      -0.980873       -26.6909
  26   2.0000      -0.920994       -25.0615
  27   2.0000      -0.903828       -24.5944
  28   2.0000      -0.868101       -23.6222
  29   2.0000      -0.852251       -23.1909
  30   2.0000      -0.844438       -22.9783
  31   2.0000      -0.817197       -22.2371
  32   2.0000      -0.784630       -21.3509
  33   2.0000      -0.769046       -20.9268
  34   2.0000      -0.715356       -19.4658
  35   2.0000      -0.699539       -19.0354
  36   2.0000      -0.690680       -18.7944
  37   2.0000      -0.655424       -17.8350
  38   2.0000      -0.644026       -17.5248
  39   2.0000      -0.626235       -17.0407
  40   2.0000      -0.593804       -16.1582
  41   2.0000      -0.572852       -15.5881
  42   2.0000      -0.566811       -15.4237
  43   2.0000      -0.557894       -15.1811
  44   2.0000      -0.529572       -14.4104
  45   2.0000      -0.524692       -14.2776
  46   2.0000      -0.516098       -14.0437
  47   2.0000      -0.515635       -14.0311
  48   2.0000      -0.508489       -13.8367
  49   2.0000      -0.499752       -13.5990
  50   2.0000      -0.490732       -13.3535
  51   2.0000      -0.477399       -12.9907
  52   2.0000      -0.467142       -12.7116
  53   2.0000      -0.462223       -12.5777
  54   2.0000      -0.458493       -12.4762
  55   2.0000      -0.451904       -12.2969
  56   2.0000      -0.448558       -12.2059
  57   2.0000      -0.436955       -11.8901
  58   2.0000      -0.433291       -11.7904
  59   2.0000      -0.429028       -11.6745
  60   2.0000      -0.422436       -11.4951
  61   2.0000      -0.419271       -11.4089
  62   2.0000      -0.412615       -11.2278
  63   2.0000      -0.342509        -9.3201
  64   2.0000      -0.326633        -8.8881
  65   2.0000      -0.324733        -8.8364
  66   2.0000      -0.297015        -8.0822
  67   0.0000       0.028651         0.7796
  68   0.0000       0.062159         1.6914
  69   0.0000       0.108543         2.9536
  70   0.0000       0.121133         3.2962
  71   0.0000       0.128127         3.4865

MULLIKEN ATOMIC CHARGES
-----------------------
   0 S :    0.105921
   1 C :   -0.112553
   2 C :   -0.132174
   3 C :    0.043574
   4 C :   -0.161868
   5 H :   -0.007141
   6 C :    0.107753
   7 H :    0.001886
   8 H :    0.040703
   9 C :   -0.097170
  10 H :    0.033016
  11 H :    0.042377
  12 C :   -0.048741
  13 H :    0.043474
  14 H :    0.030895
  15 H :    0.028078
  16 S :    0.100171
  17 C :   -0.053198
  18 C :   -0.021922
  19 C :   -0.062568
  20 C :   -0.132982
  21 H :    0.008068
  22 C :    0.061093
  23 H :    0.040486
  24 H :    0.035417
  25 C :   -0.088612
  26 H :    0.031343
  27 H :    0.036052
  28 C :   -0.045484
  29 H :    0.025446
  30 H :    0.039103
  31 H :    0.026324
  32 H :    0.054898
  33 H :    0.028333
Sum of atomic charges:   -0.0000000

LOEWDIN ATOMIC CHARGES
----------------------
   0 S :    0.421656
   1 C :   -0.201754
   2 C :   -0.058122
   3 C :   -0.055921
   4 C :   -0.207781
   5 H :    0.020795
   6 C :   -0.032387
   7 H :    0.027618
   8 H :    0.037909
   9 C :   -0.038680
  10 H :    0.027015
  11 H :    0.026035
  12 C :   -0.067672
  13 H :    0.034115
  14 H :    0.022666
  15 H :    0.025475
  16 S :    0.391624
  17 C :   -0.175833
  18 C :   -0.068259
  19 C :   -0.049700
  20 C :   -0.196016
  21 H :    0.024948
  22 C :   -0.037480
  23 H :    0.040223
  24 H :    0.032444
  25 C :   -0.039434
  26 H :    0.019362
  27 H :    0.031256
  28 C :   -0.069372
  29 H :    0.023595
  30 H :    0.027177
  31 H :    0.024019
  32 H :    0.024425
  33 H :    0.016054

  Mayer bond orders larger than 0.100000
B(  0-S ,  1-C ) :   1.1815 B(  0-S ,  4-C ) :   1.1541 B(  1-C ,  2-C ) :   1.5434
B(  1-C ,  4-C ) :   0.1047 B(  1-C , 32-H ) :   0.9596 B(  2-C ,  3-C ) :   1.3050
B(  2-C ,  6-C ) :   1.0335 B(  3-C ,  4-C ) :   1.5405 B(  3-C ,  5-H ) :   0.9905
B(  4-C , 20-C ) :   1.0175 B(  6-C ,  7-H ) :   0.9198 B(  6-C ,  8-H ) :   0.9339
B(  6-C ,  9-C ) :   1.0424 B(  9-C , 10-H ) :   0.9553 B(  9-C , 11-H ) :   0.9620
B(  9-C , 12-C ) :   1.0752 B( 12-C , 13-H ) :   0.9751 B( 12-C , 14-H ) :   0.9770
B( 12-C , 15-H ) :   0.9724 B( 16-S , 17-C ) :   1.1427 B( 16-S , 20-C ) :   1.1260
B( 17-C , 18-C ) :   1.6361 B( 17-C , 33-H ) :   0.9755 B( 18-C , 19-C ) :   1.2084
B( 18-C , 21-H ) :   0.9925 B( 19-C , 20-C ) :   1.6199 B( 19-C , 22-C ) :   1.0588
B( 22-C , 23-H ) :   0.9265 B( 22-C , 24-H ) :   0.9397 B( 22-C , 25-C ) :   1.0473
B( 25-C , 26-H ) :   0.9646 B( 25-C , 27-H ) :   0.9519 B( 25-C , 28-C ) :   1.0827
B( 28-C , 29-H ) :   0.9742 B( 28-C , 30-H ) :   0.9753 B( 28-C , 31-H ) :   0.9732

Dispersion correction           -0.013733258
FINAL SINGLE POINT ENERGY     -1339.872621699072

DIPOLE MOMENT
-------------
                                X             Y             Z
Electronic contribution:      8.40285      -9.36488     -27.08319
Nuclear contribution   :     -8.51074       9.37831      27.82529
                        -----------------------------------------
Total Dipole Moment    :     -0.10789       0.01342       0.74210
                        -----------------------------------------
Magnitude (a.u.)       :      0.75003
Magnitude (Debye)      :      1.90642

Rotational constants in cm-1:     0.015523     0.008950     0.006808
Rotational constants in MHz :   465.371195   268.305383   204.099538

                             ****ORCA TERMINATED NORMALLY****
TOTAL RUN TIME: 0 days 0 hours 0 minutes 21 seconds 237 msec
