                         Program Version 4.2.1 -  RELEASE  -
|  1> ! wB97X-D3 SP def2-SVP
|  2> %pal
|  3> nprocs 24
|  4> end
|  5>
|  6> * xyz 0 1
|  7> S 	 -52.422 	 14.8551 	 25.8158
|  8> C 	 -52.0644 	 15.9079 	 27.1667
|  9> C 	 -51.3365 	 17.048 	 26.8706
| 10> C 	 -51.1427 	 17.1255 	 25.4571
| 11> C 	 -51.6115 	 15.9984 	 24.7813
| 12> H 	 -50.68 	 17.8054 	 24.7627
| 13> C 	 -50.727 	 18.0512 	 27.851
| 14> H 	 -50.1669 	 18.7683 	 27.3088
| 15> H 	 -49.9896 	 17.4269 	 28.4005
| 16> C 	 -51.6358 	 18.816 	 28.8446
| 17> H 	 -52.3837 	 18.0682 	 29.1434
| 18> H 	 -51.1061 	 19.1753 	 29.6913
| 19> C 	 -52.4706 	 19.9593 	 28.2219
| 20> H 	 -52.0347 	 20.6792 	 27.616
| 21> H 	 -52.9977 	 19.4944 	 27.3618
| 22> H 	 -53.1712 	 20.4721 	 28.8613
| 23> S 	 -53.3102 	 15.5699 	 22.6524
| 24> C 	 -52.717 	 15.7794 	 21.0013
| 25> C 	 -51.3963 	 16.0209 	 20.9294
| 26> C 	 -50.7769 	 16.0958 	 22.2798
| 27> C 	 -51.6829 	 15.8737 	 23.3175
| 28> H 	 -50.8605 	 16.0148 	 20.0331
| 29> C 	 -49.3441 	 16.33 	 22.4924
| 30> H 	 -48.8014 	 15.657 	 21.8054
| 31> H 	 -49.1451 	 16.092 	 23.5452
| 32> C 	 -48.8287 	 17.8014 	 22.2741
| 33> H 	 -49.2145 	 18.4961 	 23.0332
| 34> H 	 -49.2435 	 18.0972 	 21.3206
| 35> C 	 -47.3259 	 17.9333 	 22.2785
| 36> H 	 -46.9751 	 17.6826 	 23.2942
| 37> H 	 -47.2001 	 19.0104 	 22.0795
| 38> H 	 -46.7306 	 17.4513 	 21.4399
| 39> H 	 -52.4204 	 15.8123 	 28.1903
| 40> H 	 -53.3726 	 15.7391 	 20.1627
| 41> *
| 42>
| 43>                          ****END OF INPUT****

CARTESIAN COORDINATES (ANGSTROEM)
---------------------------------
  S    -52.422000   14.855100   25.815800
  C    -52.064400   15.907900   27.166700
  C    -51.336500   17.048000   26.870600
  C    -51.142700   17.125500   25.457100
  C    -51.611500   15.998400   24.781300
  H    -50.680000   17.805400   24.762700
  C    -50.727000   18.051200   27.851000
  H    -50.166900   18.768300   27.308800
  H    -49.989600   17.426900   28.400500
  C    -51.635800   18.816000   28.844600
  H    -52.383700   18.068200   29.143400
  H    -51.106100   19.175300   29.691300
  C    -52.470600   19.959300   28.221900
  H    -52.034700   20.679200   27.616000
  H    -52.997700   19.494400   27.361800
  H    -53.171200   20.472100   28.861300
  S    -53.310200   15.569900   22.652400
  C    -52.717000   15.779400   21.001300
  C    -51.396300   16.020900   20.929400
  C    -50.776900   16.095800   22.279800
  C    -51.682900   15.873700   23.317500
  H    -50.860500   16.014800   20.033100
  C    -49.344100   16.330000   22.492400
  H    -48.801400   15.657000   21.805400
  H    -49.145100   16.092000   23.545200
  C    -48.828700   17.801400   22.274100
  H    -49.214500   18.496100   23.033200
  H    -49.243500   18.097200   21.320600
  C    -47.325900   17.933300   22.278500
  H    -46.975100   17.682600   23.294200
  H    -47.200100   19.010400   22.079500
  H    -46.730600   17.451300   21.439900
  H    -52.420400   15.812300   28.190300
  H    -53.372600   15.739100   20.162700

 Total Charge           Charge          ....    0
 Multiplicity           Mult            ....    1
 Number of Electrons    NEL             ....  134
 Basis Dimension        Dim             ....  322

ORBITAL ENERGIES
----------------

  NO   OCC          E(Eh)            E(eV)
   0   2.0000     -88.973438     -2421.0903
   1   2.0000     -88.959466     -2420.7101
   2   2.0000     -10.328869      -281.0628
   3   2.0000     -10.328049      -281.0405
   4   2.0000     -10.315128      -280.6889
   5   2.0000     -10.314441      -280.6702
   6   2.0000     -10.307187      -280.4728
   7   2.0000     -10.304626      -280.4031
   8   2.0000     -10.297170      -280.2002
   9   2.0000     -10.295846      -280.1642
  10   2.0000     -10.292301      -280.0677
  11   2.0000     -10.291347      -280.0418
  12   2.0000     -10.288746      -279.9710
  13   2.0000     -10.288465      -279.9634
  14   2.0000     -10.285313      -279.8776
  15   2.0000     -10.271448      -279.5003
  16   2.0000      -8.087905      -220.0831
  17   2.0000      -8.073914      -219.7024
  18   2.0000      -6.046369      -164.5301
  19   2.0000      -6.042516      -164.4252
  20   2.0000      -6.038668      -164.3205
  21   2.0000      -6.032651      -164.1568
  22   2.0000      -6.028526      -164.0445
  23   2.0000      -6.024396      -163.9321
  24   2.0000      -1.004633       -27.3375
  25   2.0000      -0.979812       -26.6620
  26   2.0000      -0.911442       -24.8016
  27   2.0000      -0.908926       -24.7331
  28   2.0000      -0.869349       -23.6562
  29   2.0000      -0.855584       -23.2816
  30   2.0000      -0.848029       -23.0760
  31   2.0000      -0.817108       -22.2346
  32   2.0000      -0.786895       -21.4125
  33   2.0000      -0.767512       -20.8851
  34   2.0000      -0.713746       -19.4220
  35   2.0000      -0.700497       -19.0615
  36   2.0000      -0.690638       -18.7932
  37   2.0000      -0.665875       -18.1194
  38   2.0000      -0.642279       -17.4773
  39   2.0000      -0.607981       -16.5440
  40   2.0000      -0.594710       -16.1829
  41   2.0000      -0.577858       -15.7243
  42   2.0000      -0.569156       -15.4875
  43   2.0000      -0.556427       -15.1412
  44   2.0000      -0.538567       -14.6551
  45   2.0000      -0.525538       -14.3006
  46   2.0000      -0.517367       -14.0783
  47   2.0000      -0.514890       -14.0109
  48   2.0000      -0.509916       -13.8755
  49   2.0000      -0.493638       -13.4326
  50   2.0000      -0.484299       -13.1784
  51   2.0000      -0.480476       -13.0744
  52   2.0000      -0.471894       -12.8409
  53   2.0000      -0.465005       -12.6534
  54   2.0000      -0.456863       -12.4319
  55   2.0000      -0.451127       -12.2758
  56   2.0000      -0.448004       -12.1908
  57   2.0000      -0.443041       -12.0558
  58   2.0000      -0.430955       -11.7269
  59   2.0000      -0.425162       -11.5693
  60   2.0000      -0.420898       -11.4532
  61   2.0000      -0.415080       -11.2949
  62   2.0000      -0.413783       -11.2596
  63   2.0000      -0.349145        -9.5007
  64   2.0000      -0.335609        -9.1324
  65   2.0000      -0.322868        -8.7857
  66   2.0000      -0.291800        -7.9403
  67   0.0000       0.030371         0.8264
  68   0.0000       0.070582         1.9206
  69   0.0000       0.104340         2.8392
  70   0.0000       0.122549         3.3347
  71   0.0000       0.125511         3.4153

MULLIKEN ATOMIC CHARGES
-----------------------
   0 S :    0.132749
   1 C :   -0.115384
   2 C :   -0.085712
   3 C :    0.044749
   4 C :   -0.180330
   5 H :   -0.012511
   6 C :    0.074549
   7 H :    0.010659
   8 H :    0.049620
   9 C :   -0.039131
  10 H :    0.027214
  11 H :    0.031037
  12 C :   -0.046884
  13 H :    0.003754
  14 H :    0.021192
  15 H :    0.041069
  16 S :    0.075964
  17 C :   -0.070695
  18 C :    0.012610
  19 C :   -0.061258
  20 C :   -0.134978
  21 H :    0.002332
  22 C :    0.042670
  23 H :    0.029199
  24 H :    0.025990
  25 C :   -0.088593
  26 H :    0.035517
  27 H :    0.016581
  28 C :   -0.053772
  29 H :    0.040676
  30 H :    0.033573
  31 H :    0.046179
  32 H :    0.042903
  33 H :    0.048461
Sum of atomic charges:    0.0000000

LOEWDIN ATOMIC CHARGES
----------------------
   0 S :    0.417373
   1 C :   -0.201013
   2 C :   -0.061946
   3 C :   -0.058876
   4 C :   -0.199706
   5 H :    0.029671
   6 C :   -0.026325
   7 H :    0.022739
   8 H :    0.044124
   9 C :   -0.032067
  10 H :    0.027515
  11 H :    0.019550
  12 C :   -0.074540
  13 H :    0.013865
  14 H :    0.034920
  15 H :    0.026723
  16 S :    0.367724
  17 C :   -0.162188
  18 C :   -0.064498
  19 C :   -0.055050
  20 C :   -0.188628
  21 H :    0.023821
  22 C :   -0.040656
  23 H :    0.034935
  24 H :    0.030095
  25 C :   -0.039456
  26 H :    0.024329
  27 H :    0.017566
  28 C :   -0.072000
  29 H :    0.028159
  30 H :    0.030988
  31 H :    0.032082
  32 H :    0.026773
  33 H :    0.023998

  Mayer bond orders larger than 0.100000
B(  0-S ,  1-C ) :   1.1388 B(  0-S ,  4-C ) :   1.1489 B(  1-C ,  2-C ) :   1.6267
B(  1-C , 32-H ) :   0.9591 B(  2-C ,  3-C ) :   1.2125 B(  2-C ,  6-C ) :   1.0058
B(  3-C ,  4-C ) :   1.5849 B(  3-C ,  5-H ) :   0.9920 B(  4-C , 20-C ) :   1.0278
B(  6-C ,  7-H ) :   0.9463 B(  6-C ,  8-H ) :   0.9382 B(  6-C ,  9-C ) :   1.0657
B(  9-C , 10-H ) :   0.9605 B(  9-C , 11-H ) :   0.9584 B(  9-C , 12-C ) :   1.0641
B( 12-C , 13-H ) :   0.9737 B( 12-C , 14-H ) :   0.9705 B( 12-C , 15-H ) :   0.9778
B( 16-S , 17-C ) :   1.1350 B( 16-S , 20-C ) :   1.1056 B( 17-C , 18-C ) :   1.6548
B( 17-C , 33-H ) :   0.9681 B( 18-C , 19-C ) :   1.1770 B( 18-C , 21-H ) :   0.9990
B( 19-C , 20-C ) :   1.6448 B( 19-C , 22-C ) :   1.0772 B( 22-C , 23-H ) :   0.9311
B( 22-C , 24-H ) :   0.9282 B( 22-C , 25-C ) :   1.0555 B( 25-C , 26-H ) :   0.9498
B( 25-C , 27-H ) :   0.9557 B( 25-C , 28-C ) :   1.0879 B( 28-C , 29-H ) :   0.9727
B( 28-C , 30-H ) :   0.9721 B( 28-C , 31-H ) :   0.9730

Dispersion correction           -0.014042377
FINAL SINGLE POINT ENERGY     -1339.868625443310

DIPOLE MOMENT
-------------
                                X             Y             Z
Electronic contribution:    -16.94031     -20.59857      -6.72592
Nuclear contribution   :     17.40634      21.08514       6.67920
                        -----------------------------------------
Total Dipole Moment    :      0.46602       0.48657      -0.04672
                        -----------------------------------------
Magnitude (a.u.)       :      0.67536
Magnitude (Debye)      :      1.71662

Rotational constants in cm-1:     0.017039     0.008666     0.006666
Rotational constants in MHz :   510.820547   259.804987   199.837190

                             ****ORCA TERMINATED NORMALLY****
TOTAL RUN TIME: 0 days 0 hours 0 minutes 21 seconds 442 msec
