                         Program Version 4.2.1 -  RELEASE  -
|  1> ! wB97X-D3 SP def2-SVP
|  2> %pal
|  3> nprocs 24
|  4> end
|  5>
|  6> * xyz 0 1
|  7> S 	 -124.78 	 18.6394 	 -22.9853
|  8> C 	 -123.009 	 18.7283 	 -22.8608
|  9> C 	 -122.327 	 18.2656 	 -24.0077
| 10> C 	 -123.317 	 18.0666 	 -25.0546
| 11> C 	 -124.657 	 18.2253 	 -24.6686
| 12> H 	 -123.093 	 17.5614 	 -26.0126
| 13> C 	 -120.865 	 18.0512 	 -24.0985
| 14> H 	 -120.216 	 18.5697 	 -23.2801
| 15> H 	 -120.49 	 18.4191 	 -25.0298
| 16> C 	 -120.556 	 16.5658 	 -23.8691
| 17> H 	 -120.832 	 16.363 	 -22.9196
| 18> H 	 -121.17 	 15.8444 	 -24.4192
| 19> C 	 -119.112 	 16.1651 	 -23.9863
| 20> H 	 -118.654 	 16.428 	 -24.9097
| 21> H 	 -118.513 	 16.6931 	 -23.241
| 22> H 	 -119.022 	 15.0972 	 -24.0464
| 23> S 	 -127.231 	 19.1701 	 -25.1798
| 24> C 	 -128.105 	 18.5663 	 -26.5338
| 25> C 	 -127.362 	 17.6423 	 -27.2496
| 26> C 	 -126.11 	 17.3452 	 -26.6626
| 27> C 	 -125.88 	 18.0461 	 -25.4741
| 28> H 	 -127.723 	 17.3486 	 -28.2304
| 29> C 	 -125.292 	 16.2827 	 -27.3771
| 30> H 	 -126.039 	 15.5213 	 -27.7022
| 31> H 	 -124.723 	 15.7541 	 -26.5987
| 32> C 	 -124.509 	 16.7976 	 -28.5947
| 33> H 	 -123.919 	 15.9893 	 -29.0814
| 34> H 	 -123.698 	 17.4886 	 -28.3142
| 35> C 	 -125.283 	 17.4873 	 -29.6951
| 36> H 	 -124.632 	 17.7094 	 -30.5115
| 37> H 	 -125.38 	 18.4916 	 -29.2878
| 38> H 	 -126.222 	 17.1 	 -29.9924
| 39> H 	 -122.372 	 19.0074 	 -22.0028
| 40> H 	 -129.043 	 18.9128 	 -26.8874
| 41> *
| 42>
| 43>                          ****END OF INPUT****

CARTESIAN COORDINATES (ANGSTROEM)
---------------------------------
  S    -124.780000   18.639400  -22.985300
  C    -123.009000   18.728300  -22.860800
  C    -122.327000   18.265600  -24.007700
  C    -123.317000   18.066600  -25.054600
  C    -124.657000   18.225300  -24.668600
  H    -123.093000   17.561400  -26.012600
  C    -120.865000   18.051200  -24.098500
  H    -120.216000   18.569700  -23.280100
  H    -120.490000   18.419100  -25.029800
  C    -120.556000   16.565800  -23.869100
  H    -120.832000   16.363000  -22.919600
  H    -121.170000   15.844400  -24.419200
  C    -119.112000   16.165100  -23.986300
  H    -118.654000   16.428000  -24.909700
  H    -118.513000   16.693100  -23.241000
  H    -119.022000   15.097200  -24.046400
  S    -127.231000   19.170100  -25.179800
  C    -128.105000   18.566300  -26.533800
  C    -127.362000   17.642300  -27.249600
  C    -126.110000   17.345200  -26.662600
  C    -125.880000   18.046100  -25.474100
  H    -127.723000   17.348600  -28.230400
  C    -125.292000   16.282700  -27.377100
  H    -126.039000   15.521300  -27.702200
  H    -124.723000   15.754100  -26.598700
  C    -124.509000   16.797600  -28.594700
  H    -123.919000   15.989300  -29.081400
  H    -123.698000   17.488600  -28.314200
  C    -125.283000   17.487300  -29.695100
  H    -124.632000   17.709400  -30.511500
  H    -125.380000   18.491600  -29.287800
  H    -126.222000   17.100000  -29.992400
  H    -122.372000   19.007400  -22.002800
  H    -129.043000   18.912800  -26.887400

 Total Charge           Charge          ....    0
 Multiplicity           Mult            ....    1
 Number of Electrons    NEL             ....  134
 Basis Dimension        Dim             ....  322

ORBITAL ENERGIES
----------------

  NO   OCC          E(Eh)            E(eV)
   0   2.0000     -88.970470     -2421.0096
   1   2.0000     -88.967488     -2420.9284
   2   2.0000     -10.334369      -281.2125
   3   2.0000     -10.332960      -281.1741
   4   2.0000     -10.317516      -280.7539
   5   2.0000     -10.314100      -280.6609
   6   2.0000     -10.306511      -280.4544
   7   2.0000     -10.303955      -280.3849
   8   2.0000     -10.300334      -280.2863
   9   2.0000     -10.299780      -280.2713
  10   2.0000     -10.298419      -280.2342
  11   2.0000     -10.291938      -280.0579
  12   2.0000     -10.290276      -280.0126
  13   2.0000     -10.275881      -279.6209
  14   2.0000     -10.272343      -279.5247
  15   2.0000     -10.272159      -279.5197
  16   2.0000      -8.084527      -219.9912
  17   2.0000      -8.082144      -219.9263
  18   2.0000      -6.043147      -164.4424
  19   2.0000      -6.040702      -164.3759
  20   2.0000      -6.039229      -164.3358
  21   2.0000      -6.036588      -164.2639
  22   2.0000      -6.035123      -164.2240
  23   2.0000      -6.032923      -164.1642
  24   2.0000      -1.003914       -27.3179
  25   2.0000      -0.981118       -26.6976
  26   2.0000      -0.920648       -25.0521
  27   2.0000      -0.912895       -24.8411
  28   2.0000      -0.868795       -23.6411
  29   2.0000      -0.855898       -23.2902
  30   2.0000      -0.845308       -23.0020
  31   2.0000      -0.812344       -22.1050
  32   2.0000      -0.788983       -21.4693
  33   2.0000      -0.774994       -21.0886
  34   2.0000      -0.710307       -19.3284
  35   2.0000      -0.706001       -19.2113
  36   2.0000      -0.690691       -18.7947
  37   2.0000      -0.663977       -18.0677
  38   2.0000      -0.636723       -17.3261
  39   2.0000      -0.615071       -16.7369
  40   2.0000      -0.592703       -16.1283
  41   2.0000      -0.569861       -15.5067
  42   2.0000      -0.567252       -15.4357
  43   2.0000      -0.558329       -15.1929
  44   2.0000      -0.546753       -14.8779
  45   2.0000      -0.531268       -14.4565
  46   2.0000      -0.525559       -14.3012
  47   2.0000      -0.508915       -13.8483
  48   2.0000      -0.502434       -13.6719
  49   2.0000      -0.498131       -13.5548
  50   2.0000      -0.491578       -13.3765
  51   2.0000      -0.478042       -13.0082
  52   2.0000      -0.473699       -12.8900
  53   2.0000      -0.464775       -12.6472
  54   2.0000      -0.459525       -12.5043
  55   2.0000      -0.452868       -12.3232
  56   2.0000      -0.448880       -12.2147
  57   2.0000      -0.441196       -12.0056
  58   2.0000      -0.433547       -11.7974
  59   2.0000      -0.426207       -11.5977
  60   2.0000      -0.421783       -11.4773
  61   2.0000      -0.417162       -11.3515
  62   2.0000      -0.403171       -10.9708
  63   2.0000      -0.351378        -9.5615
  64   2.0000      -0.332539        -9.0488
  65   2.0000      -0.329834        -8.9753
  66   2.0000      -0.284084        -7.7303
  67   0.0000       0.022281         0.6063
  68   0.0000       0.078300         2.1307
  69   0.0000       0.100408         2.7322
  70   0.0000       0.115161         3.1337
  71   0.0000       0.130428         3.5491

MULLIKEN ATOMIC CHARGES
-----------------------
   0 S :    0.115901
   1 C :   -0.111839
   2 C :   -0.106984
   3 C :    0.020397
   4 C :   -0.146909
   5 H :    0.011274
   6 C :    0.048650
   7 H :    0.036132
   8 H :    0.023634
   9 C :   -0.049844
  10 H :   -0.006023
  11 H :    0.021302
  12 C :   -0.000348
  13 H :    0.006315
  14 H :    0.026867
  15 H :    0.028407
  16 S :    0.103160
  17 C :   -0.064804
  18 C :   -0.048803
  19 C :   -0.063938
  20 C :   -0.112620
  21 H :    0.016510
  22 C :    0.053679
  23 H :    0.036772
  24 H :    0.034589
  25 C :   -0.081802
  26 H :    0.029255
  27 H :    0.026592
  28 C :   -0.023977
  29 H :    0.022738
  30 H :    0.032364
  31 H :    0.033112
  32 H :    0.049092
  33 H :    0.041149
Sum of atomic charges:   -0.0000000

LOEWDIN ATOMIC CHARGES
----------------------
   0 S :    0.403039
   1 C :   -0.201550
   2 C :   -0.055150
   3 C :   -0.071636
   4 C :   -0.194400
   5 H :    0.030860
   6 C :   -0.030821
   7 H :    0.043101
   8 H :    0.025166
   9 C :   -0.036698
  10 H :    0.011514
  11 H :    0.025116
  12 C :   -0.061937
  13 H :    0.018211
  14 H :    0.025764
  15 H :    0.029109
  16 S :    0.407698
  17 C :   -0.185512
  18 C :   -0.072655
  19 C :   -0.057073
  20 C :   -0.193751
  21 H :    0.030998
  22 C :   -0.035314
  23 H :    0.038226
  24 H :    0.033259
  25 C :   -0.044485
  26 H :    0.023908
  27 H :    0.025342
  28 C :   -0.063520
  29 H :    0.028021
  30 H :    0.032845
  31 H :    0.016036
  32 H :    0.032376
  33 H :    0.023913

  Mayer bond orders larger than 0.100000
B(  0-S ,  1-C ) :   1.1279 B(  0-S ,  4-C ) :   1.1509 B(  1-C ,  2-C ) :   1.6181
B(  1-C , 32-H ) :   0.9581 B(  2-C ,  3-C ) :   1.2447 B(  2-C ,  6-C ) :   1.0440
B(  3-C ,  4-C ) :   1.5769 B(  3-C ,  5-H ) :   0.9753 B(  4-C , 20-C ) :   1.0433
B(  6-C ,  7-H ) :   0.9421 B(  6-C ,  8-H ) :   0.9400 B(  6-C ,  9-C ) :   1.0446
B(  9-C , 10-H ) :   0.9468 B(  9-C , 11-H ) :   0.9566 B(  9-C , 12-C ) :   1.0942
B( 12-C , 13-H ) :   0.9702 B( 12-C , 14-H ) :   0.9699 B( 12-C , 15-H ) :   0.9693
B( 16-S , 17-C ) :   1.1654 B( 16-S , 20-C ) :   1.1338 B( 17-C , 18-C ) :   1.6001
B( 17-C , 33-H ) :   0.9682 B( 18-C , 19-C ) :   1.2615 B( 18-C , 21-H ) :   0.9860
B( 19-C , 20-C ) :   1.5926 B( 19-C , 22-C ) :   1.0142 B( 22-C , 23-H ) :   0.9437
B( 22-C , 24-H ) :   0.9400 B( 22-C , 25-C ) :   1.0634 B( 25-C , 26-H ) :   0.9583
B( 25-C , 27-H ) :   0.9516 B( 25-C , 28-C ) :   1.0927 B( 28-C , 29-H ) :   0.9636
B( 28-C , 30-H ) :   0.9662 B( 28-C , 31-H ) :   0.9748

Dispersion correction           -0.014314968
FINAL SINGLE POINT ENERGY     -1339.863752933077

DIPOLE MOMENT
-------------
                                X             Y             Z
Electronic contribution:    -22.77373      12.64042      14.81576
Nuclear contribution   :     23.22050     -12.96463     -15.38379
                        -----------------------------------------
Total Dipole Moment    :      0.44677      -0.32420      -0.56802
                        -----------------------------------------
Magnitude (a.u.)       :      0.79206
Magnitude (Debye)      :      2.01326

Rotational constants in cm-1:     0.019512     0.008541     0.006254
Rotational constants in MHz :   584.969951   256.058368   187.478657

                             ****ORCA TERMINATED NORMALLY****
TOTAL RUN TIME: 0 days 0 hours 0 minutes 21 seconds 848 msec
