                         Program Version 4.2.1 -  RELEASE  -
|  1> ! wB97X-D3 SP def2-SVP
|  2> %pal
|  3> nprocs 24
|  4> end
|  5>
|  6> * xyz 0 1
|  7> S 	 -96.6271 	 2.91126 	 -120.582
|  8> C 	 -97.3624 	 4.32256 	 -121.318
|  9> C 	 -98.7565 	 4.23945 	 -121.307
| 10> C 	 -99.2353 	 3.05209 	 -120.683
| 11> C 	 -98.2238 	 2.22363 	 -120.228
| 12> H 	 -100.281 	 2.77101 	 -120.569
| 13> C 	 -99.7426 	 5.29122 	 -121.858
| 14> H 	 -99.3656 	 6.30524 	 -121.599
| 15> H 	 -100.648 	 5.13732 	 -121.365
| 16> C 	 -100.047 	 5.2293 	 -123.392
| 17> H 	 -99.203 	 5.30282 	 -123.971
| 18> H 	 -100.524 	 4.27564 	 -123.547
| 19> C 	 -101.146 	 6.22354 	 -123.867
| 20> H 	 -100.785 	 7.22623 	 -124.051
| 21> H 	 -101.419 	 5.87592 	 -124.882
| 22> H 	 -101.95 	 6.28556 	 -123.157
| 23> S 	 -99.3985 	 -0.192108 	 -120.081
| 24> C 	 -99.044 	 -1.26267 	 -118.735
| 25> C 	 -98.0316 	 -0.742057 	 -117.927
| 26> C 	 -97.6552 	 0.566958 	 -118.326
| 27> C 	 -98.3052 	 0.962163 	 -119.527
| 28> H 	 -97.7287 	 -1.34318 	 -117.036
| 29> C 	 -96.7691 	 1.4101 	 -117.423
| 30> H 	 -97.0557 	 1.14428 	 -116.343
| 31> H 	 -96.9717 	 2.44948 	 -117.587
| 32> C 	 -95.2854 	 1.11578 	 -117.651
| 33> H 	 -94.8826 	 1.19339 	 -118.651
| 34> H 	 -95.1826 	 0.0865776 	 -117.308
| 35> C 	 -94.2995 	 1.8766 	 -116.77
| 36> H 	 -94.3717 	 1.66018 	 -115.707
| 37> H 	 -94.2724 	 2.99083 	 -116.894
| 38> H 	 -93.3417 	 1.62286 	 -117.095
| 39> H 	 -96.8976 	 5.03635 	 -121.82
| 40> H 	 -99.6419 	 -2.14562 	 -118.524
| 41> *
| 42>
| 43>                          ****END OF INPUT****

CARTESIAN COORDINATES (ANGSTROEM)
---------------------------------
  S    -96.627100    2.911260  -120.582000
  C    -97.362400    4.322560  -121.318000
  C    -98.756500    4.239450  -121.307000
  C    -99.235300    3.052090  -120.683000
  C    -98.223800    2.223630  -120.228000
  H    -100.281000    2.771010  -120.569000
  C    -99.742600    5.291220  -121.858000
  H    -99.365600    6.305240  -121.599000
  H    -100.648000    5.137320  -121.365000
  C    -100.047000    5.229300  -123.392000
  H    -99.203000    5.302820  -123.971000
  H    -100.524000    4.275640  -123.547000
  C    -101.146000    6.223540  -123.867000
  H    -100.785000    7.226230  -124.051000
  H    -101.419000    5.875920  -124.882000
  H    -101.950000    6.285560  -123.157000
  S    -99.398500   -0.192108  -120.081000
  C    -99.044000   -1.262670  -118.735000
  C    -98.031600   -0.742057  -117.927000
  C    -97.655200    0.566958  -118.326000
  C    -98.305200    0.962163  -119.527000
  H    -97.728700   -1.343180  -117.036000
  C    -96.769100    1.410100  -117.423000
  H    -97.055700    1.144280  -116.343000
  H    -96.971700    2.449480  -117.587000
  C    -95.285400    1.115780  -117.651000
  H    -94.882600    1.193390  -118.651000
  H    -95.182600    0.086578  -117.308000
  C    -94.299500    1.876600  -116.770000
  H    -94.371700    1.660180  -115.707000
  H    -94.272400    2.990830  -116.894000
  H    -93.341700    1.622860  -117.095000
  H    -96.897600    5.036350  -121.820000
  H    -99.641900   -2.145620  -118.524000

 Total Charge           Charge          ....    0
 Multiplicity           Mult            ....    1
 Number of Electrons    NEL             ....  134
 Basis Dimension        Dim             ....  322

ORBITAL ENERGIES
----------------

  NO   OCC          E(Eh)            E(eV)
   0   2.0000     -88.968798     -2420.9641
   1   2.0000     -88.968298     -2420.9505
   2   2.0000     -10.330637      -281.1109
   3   2.0000     -10.322838      -280.8987
   4   2.0000     -10.317131      -280.7434
   5   2.0000     -10.306008      -280.4407
   6   2.0000     -10.303887      -280.3830
   7   2.0000     -10.302993      -280.3587
   8   2.0000     -10.298925      -280.2480
   9   2.0000     -10.295251      -280.1480
  10   2.0000     -10.292423      -280.0711
  11   2.0000     -10.291916      -280.0573
  12   2.0000     -10.280873      -279.7568
  13   2.0000     -10.280172      -279.7377
  14   2.0000     -10.278900      -279.7031
  15   2.0000     -10.269085      -279.4360
  16   2.0000      -8.083853      -219.9728
  17   2.0000      -8.082505      -219.9362
  18   2.0000      -6.042129      -164.4147
  19   2.0000      -6.041003      -164.3841
  20   2.0000      -6.038181      -164.3073
  21   2.0000      -6.037120      -164.2784
  22   2.0000      -6.034892      -164.2178
  23   2.0000      -6.033394      -164.1770
  24   2.0000      -1.008742       -27.4493
  25   2.0000      -0.982598       -26.7378
  26   2.0000      -0.908051       -24.7093
  27   2.0000      -0.905789       -24.6478
  28   2.0000      -0.870871       -23.6976
  29   2.0000      -0.853644       -23.2288
  30   2.0000      -0.846415       -23.0321
  31   2.0000      -0.813916       -22.1478
  32   2.0000      -0.782893       -21.3036
  33   2.0000      -0.769291       -20.9335
  34   2.0000      -0.705901       -19.2086
  35   2.0000      -0.703838       -19.1524
  36   2.0000      -0.690618       -18.7927
  37   2.0000      -0.665880       -18.1195
  38   2.0000      -0.640866       -17.4388
  39   2.0000      -0.616747       -16.7825
  40   2.0000      -0.595005       -16.1909
  41   2.0000      -0.575260       -15.6536
  42   2.0000      -0.566785       -15.4230
  43   2.0000      -0.559742       -15.2314
  44   2.0000      -0.525937       -14.3115
  45   2.0000      -0.521718       -14.1967
  46   2.0000      -0.515495       -14.0273
  47   2.0000      -0.511413       -13.9163
  48   2.0000      -0.503431       -13.6990
  49   2.0000      -0.499848       -13.6015
  50   2.0000      -0.492618       -13.4048
  51   2.0000      -0.480696       -13.0804
  52   2.0000      -0.470806       -12.8113
  53   2.0000      -0.466170       -12.6851
  54   2.0000      -0.462237       -12.5781
  55   2.0000      -0.449295       -12.2259
  56   2.0000      -0.442871       -12.0511
  57   2.0000      -0.437314       -11.8999
  58   2.0000      -0.435767       -11.8578
  59   2.0000      -0.422943       -11.5089
  60   2.0000      -0.420278       -11.4363
  61   2.0000      -0.418983       -11.4011
  62   2.0000      -0.411009       -11.1841
  63   2.0000      -0.348672        -9.4878
  64   2.0000      -0.335901        -9.1403
  65   2.0000      -0.327886        -8.9222
  66   2.0000      -0.285938        -7.7808
  67   0.0000       0.026475         0.7204
  68   0.0000       0.075436         2.0527
  69   0.0000       0.104784         2.8513
  70   0.0000       0.120229         3.2716
  71   0.0000       0.134867         3.6699

MULLIKEN ATOMIC CHARGES
-----------------------
   0 S :    0.110372
   1 C :   -0.048810
   2 C :   -0.096949
   3 C :    0.020973
   4 C :   -0.160427
   5 H :    0.017512
   6 C :    0.077006
   7 H :    0.031737
   8 H :    0.000956
   9 C :   -0.046018
  10 H :    0.013993
  11 H :    0.022529
  12 C :   -0.045004
  13 H :    0.024660
  14 H :    0.036462
  15 H :    0.030272
  16 S :    0.123062
  17 C :   -0.121170
  18 C :   -0.043942
  19 C :   -0.038248
  20 C :   -0.143441
  21 H :    0.040939
  22 C :    0.074780
  23 H :    0.037155
  24 H :    0.022375
  25 C :   -0.080720
  26 H :    0.033485
  27 H :    0.018110
  28 C :   -0.022528
  29 H :    0.026944
  30 H :    0.027799
  31 H :    0.010337
  32 H :   -0.016075
  33 H :    0.061876
Sum of atomic charges:   -0.0000000

LOEWDIN ATOMIC CHARGES
----------------------
   0 S :    0.410449
   1 C :   -0.176871
   2 C :   -0.053813
   3 C :   -0.067891
   4 C :   -0.181692
   5 H :    0.032486
   6 C :   -0.025105
   7 H :    0.031958
   8 H :    0.019097
   9 C :   -0.027412
  10 H :    0.010548
  11 H :    0.024240
  12 C :   -0.061291
  13 H :    0.019965
  14 H :    0.032281
  15 H :    0.021625
  16 S :    0.443180
  17 C :   -0.193650
  18 C :   -0.072390
  19 C :   -0.057433
  20 C :   -0.230394
  21 H :    0.042071
  22 C :   -0.032280
  23 H :    0.040903
  24 H :    0.020481
  25 C :   -0.042115
  26 H :    0.021379
  27 H :    0.025089
  28 C :   -0.066064
  29 H :    0.021696
  30 H :    0.027035
  31 H :    0.017979
  32 H :   -0.002781
  33 H :    0.028718

  Mayer bond orders larger than 0.100000
B(  0-S ,  1-C ) :   1.1352 B(  0-S ,  4-C ) :   1.1515 B(  1-C ,  2-C ) :   1.6064
B(  1-C ,  4-C ) :   0.1006 B(  1-C , 32-H ) :   0.9838 B(  2-C ,  3-C ) :   1.2518
B(  2-C ,  6-C ) :   1.0211 B(  3-C ,  4-C ) :   1.5703 B(  3-C ,  5-H ) :   0.9880
B(  4-C , 20-C ) :   1.0364 B(  6-C ,  7-H ) :   0.9460 B(  6-C ,  8-H ) :   0.9362
B(  6-C ,  9-C ) :   1.0675 B(  9-C , 10-H ) :   0.9603 B(  9-C , 11-H ) :   0.9581
B(  9-C , 12-C ) :   1.0787 B( 12-C , 13-H ) :   0.9772 B( 12-C , 14-H ) :   0.9758
B( 12-C , 15-H ) :   0.9753 B( 16-S , 17-C ) :   1.1688 B( 16-S , 20-C ) :   1.1747
B( 17-C , 18-C ) :   1.5791 B( 17-C , 20-C ) :   0.1023 B( 17-C , 33-H ) :   0.9684
B( 18-C , 19-C ) :   1.2759 B( 18-C , 21-H ) :   0.9823 B( 19-C , 20-C ) :   1.5267
B( 19-C , 22-C ) :   1.0433 B( 22-C , 23-H ) :   0.9397 B( 22-C , 24-H ) :   0.9303
B( 22-C , 25-C ) :   1.0584 B( 25-C , 26-H ) :   0.9584 B( 25-C , 27-H ) :   0.9532
B( 25-C , 28-C ) :   1.0932 B( 28-C , 29-H ) :   0.9744 B( 28-C , 30-H ) :   0.9714
B( 28-C , 31-H ) :   0.9709

Dispersion correction           -0.013860335
FINAL SINGLE POINT ENERGY     -1339.875696978566

DIPOLE MOMENT
-------------
                                X             Y             Z
Electronic contribution:     -1.32221     -14.66808      -0.46043
Nuclear contribution   :      1.13794      14.84278       0.55791
                        -----------------------------------------
Total Dipole Moment    :     -0.18427       0.17471       0.09747
                        -----------------------------------------
Magnitude (a.u.)       :      0.27199
Magnitude (Debye)      :      0.69135

Rotational constants in cm-1:     0.021976     0.007525     0.005906
Rotational constants in MHz :   658.833372   225.584532   177.061861

                             ****ORCA TERMINATED NORMALLY****
TOTAL RUN TIME: 0 days 0 hours 0 minutes 19 seconds 757 msec
