                         Program Version 4.2.1 -  RELEASE  -
|  1> ! wB97X-D3 SP def2-SVP
|  2> %pal
|  3> nprocs 24
|  4> end
|  5>
|  6> * xyz 0 1
|  7> S 	 -105.409 	 57.1875 	 -15.2111
|  8> C 	 -105.435 	 58.3107 	 -13.8975
|  9> C 	 -104.625 	 59.4119 	 -14.1302
| 10> C 	 -103.701 	 59.1849 	 -15.2038
| 11> C 	 -103.986 	 58.0352 	 -15.9296
| 12> H 	 -102.803 	 59.6392 	 -15.6311
| 13> C 	 -104.726 	 60.7108 	 -13.3652
| 14> H 	 -103.815 	 61.3032 	 -13.5038
| 15> H 	 -104.806 	 60.4172 	 -12.2824
| 16> C 	 -105.844 	 61.5858 	 -13.8022
| 17> H 	 -106.708 	 61.0591 	 -13.5274
| 18> H 	 -105.927 	 62.4953 	 -13.2068
| 19> C 	 -105.784 	 61.9787 	 -15.2927
| 20> H 	 -106.673 	 62.5968 	 -15.5018
| 21> H 	 -104.839 	 62.5083 	 -15.5298
| 22> H 	 -105.949 	 61.0986 	 -15.8676
| 23> S 	 -104.46 	 57.9237 	 -18.6189
| 24> C 	 -103.078 	 57.6182 	 -19.6675
| 25> C 	 -101.913 	 57.377 	 -18.9981
| 26> C 	 -102.18 	 57.1888 	 -17.5881
| 27> C 	 -103.473 	 57.5815 	 -17.1844
| 28> H 	 -101.01 	 57.151 	 -19.4845
| 29> C 	 -101.011 	 56.8767 	 -16.6165
| 30> H 	 -101.383 	 56.2506 	 -15.8677
| 31> H 	 -100.693 	 57.8947 	 -16.2061
| 32> C 	 -99.8067 	 56.1768 	 -17.1682
| 33> H 	 -99.2451 	 56.7966 	 -17.8452
| 34> H 	 -99.9886 	 55.3295 	 -17.8091
| 35> C 	 -98.7748 	 55.7334 	 -16.1091
| 36> H 	 -98.9527 	 56.3976 	 -15.2006
| 37> H 	 -97.7267 	 55.8929 	 -16.4211
| 38> H 	 -98.9467 	 54.6926 	 -15.9498
| 39> H 	 -106.184 	 58.3061 	 -13.1106
| 40> H 	 -103.185 	 57.353 	 -20.746
| 41> *
| 42>
| 43>                          ****END OF INPUT****

CARTESIAN COORDINATES (ANGSTROEM)
---------------------------------
  S    -105.409000   57.187500  -15.211100
  C    -105.435000   58.310700  -13.897500
  C    -104.625000   59.411900  -14.130200
  C    -103.701000   59.184900  -15.203800
  C    -103.986000   58.035200  -15.929600
  H    -102.803000   59.639200  -15.631100
  C    -104.726000   60.710800  -13.365200
  H    -103.815000   61.303200  -13.503800
  H    -104.806000   60.417200  -12.282400
  C    -105.844000   61.585800  -13.802200
  H    -106.708000   61.059100  -13.527400
  H    -105.927000   62.495300  -13.206800
  C    -105.784000   61.978700  -15.292700
  H    -106.673000   62.596800  -15.501800
  H    -104.839000   62.508300  -15.529800
  H    -105.949000   61.098600  -15.867600
  S    -104.460000   57.923700  -18.618900
  C    -103.078000   57.618200  -19.667500
  C    -101.913000   57.377000  -18.998100
  C    -102.180000   57.188800  -17.588100
  C    -103.473000   57.581500  -17.184400
  H    -101.010000   57.151000  -19.484500
  C    -101.011000   56.876700  -16.616500
  H    -101.383000   56.250600  -15.867700
  H    -100.693000   57.894700  -16.206100
  C    -99.806700   56.176800  -17.168200
  H    -99.245100   56.796600  -17.845200
  H    -99.988600   55.329500  -17.809100
  C    -98.774800   55.733400  -16.109100
  H    -98.952700   56.397600  -15.200600
  H    -97.726700   55.892900  -16.421100
  H    -98.946700   54.692600  -15.949800
  H    -106.184000   58.306100  -13.110600
  H    -103.185000   57.353000  -20.746000

 Total Charge           Charge          ....    0
 Multiplicity           Mult            ....    1
 Number of Electrons    NEL             ....  134
 Basis Dimension        Dim             ....  322

ORBITAL ENERGIES
----------------

  NO   OCC          E(Eh)            E(eV)
   0   2.0000     -88.963843     -2420.8292
   1   2.0000     -88.962968     -2420.8054
   2   2.0000     -10.328589      -281.0552
   3   2.0000     -10.326246      -280.9914
   4   2.0000     -10.320694      -280.8404
   5   2.0000     -10.314754      -280.6787
   6   2.0000     -10.310936      -280.5748
   7   2.0000     -10.304638      -280.4035
   8   2.0000     -10.300163      -280.2817
   9   2.0000     -10.293584      -280.1027
  10   2.0000     -10.292504      -280.0733
  11   2.0000     -10.290055      -280.0066
  12   2.0000     -10.282019      -279.7880
  13   2.0000     -10.280156      -279.7373
  14   2.0000     -10.276151      -279.6283
  15   2.0000     -10.275173      -279.6017
  16   2.0000      -8.078275      -219.8210
  17   2.0000      -8.077465      -219.7990
  18   2.0000      -6.036878      -164.2718
  19   2.0000      -6.035850      -164.2438
  20   2.0000      -6.032840      -164.1619
  21   2.0000      -6.032043      -164.1402
  22   2.0000      -6.028922      -164.0553
  23   2.0000      -6.028330      -164.0392
  24   2.0000      -1.002532       -27.2803
  25   2.0000      -0.980377       -26.6774
  26   2.0000      -0.916867       -24.9492
  27   2.0000      -0.911228       -24.7958
  28   2.0000      -0.872683       -23.7469
  29   2.0000      -0.847988       -23.0749
  30   2.0000      -0.843089       -22.9416
  31   2.0000      -0.815961       -22.2034
  32   2.0000      -0.782759       -21.3000
  33   2.0000      -0.767714       -20.8906
  34   2.0000      -0.705054       -19.1855
  35   2.0000      -0.700805       -19.0699
  36   2.0000      -0.695784       -18.9332
  37   2.0000      -0.654008       -17.7965
  38   2.0000      -0.646460       -17.5911
  39   2.0000      -0.605289       -16.4707
  40   2.0000      -0.594240       -16.1701
  41   2.0000      -0.579543       -15.7702
  42   2.0000      -0.573989       -15.6190
  43   2.0000      -0.553042       -15.0490
  44   2.0000      -0.545176       -14.8350
  45   2.0000      -0.523768       -14.2525
  46   2.0000      -0.515527       -14.0282
  47   2.0000      -0.513012       -13.9598
  48   2.0000      -0.507475       -13.8091
  49   2.0000      -0.497235       -13.5305
  50   2.0000      -0.485218       -13.2034
  51   2.0000      -0.481961       -13.1148
  52   2.0000      -0.468635       -12.7522
  53   2.0000      -0.460240       -12.5238
  54   2.0000      -0.457047       -12.4369
  55   2.0000      -0.452583       -12.3154
  56   2.0000      -0.438223       -11.9247
  57   2.0000      -0.436857       -11.8875
  58   2.0000      -0.430759       -11.7216
  59   2.0000      -0.423666       -11.5285
  60   2.0000      -0.416808       -11.3419
  61   2.0000      -0.413735       -11.2583
  62   2.0000      -0.411210       -11.1896
  63   2.0000      -0.341351        -9.2886
  64   2.0000      -0.329456        -8.9650
  65   2.0000      -0.320961        -8.7338
  66   2.0000      -0.298515        -8.1230
  67   0.0000       0.030274         0.8238
  68   0.0000       0.054282         1.4771
  69   0.0000       0.115486         3.1425
  70   0.0000       0.119455         3.2505
  71   0.0000       0.121412         3.3038

MULLIKEN ATOMIC CHARGES
-----------------------
   0 S :    0.100097
   1 C :   -0.096303
   2 C :   -0.110016
   3 C :    0.065603
   4 C :   -0.213727
   5 H :    0.019129
   6 C :    0.057274
   7 H :    0.016734
   8 H :    0.038862
   9 C :   -0.041129
  10 H :   -0.000226
  11 H :    0.025047
  12 C :   -0.053149
  13 H :    0.034505
  14 H :    0.042337
  15 H :    0.043647
  16 S :    0.105366
  17 C :   -0.101012
  18 C :   -0.015177
  19 C :   -0.081055
  20 C :   -0.141074
  21 H :    0.012231
  22 C :    0.099398
  23 H :    0.026103
  24 H :    0.050156
  25 C :   -0.109535
  26 H :    0.014215
  27 H :    0.022737
  28 C :   -0.057063
  29 H :    0.040979
  30 H :    0.038101
  31 H :    0.039820
  32 H :    0.049198
  33 H :    0.077928
Sum of atomic charges:   -0.0000000

LOEWDIN ATOMIC CHARGES
----------------------
   0 S :    0.387349
   1 C :   -0.197775
   2 C :   -0.064022
   3 C :   -0.052784
   4 C :   -0.186491
   5 H :    0.041003
   6 C :   -0.036293
   7 H :    0.026307
   8 H :    0.038077
   9 C :   -0.041944
  10 H :    0.013141
  11 H :    0.023976
  12 C :   -0.060737
  13 H :    0.030804
  14 H :    0.029662
  15 H :    0.024433
  16 S :    0.391727
  17 C :   -0.180705
  18 C :   -0.070006
  19 C :   -0.043738
  20 C :   -0.210813
  21 H :    0.025183
  22 C :   -0.030730
  23 H :    0.025718
  24 H :    0.043966
  25 C :   -0.053751
  26 H :    0.016748
  27 H :    0.021512
  28 C :   -0.062474
  29 H :    0.033947
  30 H :    0.029169
  31 H :    0.022939
  32 H :    0.027279
  33 H :    0.039324

  Mayer bond orders larger than 0.100000
B(  0-S ,  1-C ) :   1.1486 B(  0-S ,  4-C ) :   1.1290 B(  1-C ,  2-C ) :   1.6183
B(  1-C ,  4-C ) :   0.1009 B(  1-C , 32-H ) :   0.9655 B(  2-C ,  3-C ) :   1.1960
B(  2-C ,  6-C ) :   1.0199 B(  3-C ,  4-C ) :   1.6105 B(  3-C ,  5-H ) :   0.9911
B(  4-C , 20-C ) :   1.0430 B(  6-C ,  7-H ) :   0.9420 B(  6-C ,  8-H ) :   0.9386
B(  6-C ,  9-C ) :   1.0795 B(  9-C , 10-H ) :   0.9492 B(  9-C , 11-H ) :   0.9531
B(  9-C , 12-C ) :   1.0752 B( 12-C , 13-H ) :   0.9716 B( 12-C , 14-H ) :   0.9757
B( 12-C , 15-H ) :   0.9729 B( 16-S , 17-C ) :   1.1587 B( 16-S , 20-C ) :   1.1256
B( 17-C , 18-C ) :   1.6113 B( 17-C , 33-H ) :   0.9540 B( 18-C , 19-C ) :   1.2476
B( 18-C , 21-H ) :   0.9896 B( 19-C , 20-C ) :   1.5917 B( 19-C , 22-C ) :   1.0349
B( 22-C , 23-H ) :   0.9386 B( 22-C , 24-H ) :   0.9218 B( 22-C , 25-C ) :   1.0840
B( 25-C , 26-H ) :   0.9451 B( 25-C , 27-H ) :   0.9620 B( 25-C , 28-C ) :   1.0692
B( 28-C , 29-H ) :   0.9756 B( 28-C , 30-H ) :   0.9783 B( 28-C , 31-H ) :   0.9794

Dispersion correction           -0.014310899
FINAL SINGLE POINT ENERGY     -1339.856984892698

DIPOLE MOMENT
-------------
                                X             Y             Z
Electronic contribution:    -14.38542      -8.51688      -8.45252
Nuclear contribution   :     14.83088       8.75720       8.51556
                        -----------------------------------------
Total Dipole Moment    :      0.44546       0.24032       0.06303
                        -----------------------------------------
Magnitude (a.u.)       :      0.51006
Magnitude (Debye)      :      1.29648

Rotational constants in cm-1:     0.019797     0.007850     0.006855
Rotational constants in MHz :   593.493308   235.336295   205.503672

                             ****ORCA TERMINATED NORMALLY****
TOTAL RUN TIME: 0 days 0 hours 0 minutes 21 seconds 270 msec
