                         Program Version 4.2.1 -  RELEASE  -
|  1> ! wB97X-D3 SP def2-SVP
|  2> %pal
|  3> nprocs 24
|  4> end
|  5>
|  6> * xyz 0 1
|  7> S 	 -69.893 	 7.02608 	 -113.428
|  8> C 	 -71.0671 	 7.72448 	 -112.391
|  9> C 	 -70.4855 	 8.43825 	 -111.358
| 10> C 	 -69.1366 	 8.7455 	 -111.642
| 11> C 	 -68.6657 	 8.1135 	 -112.789
| 12> H 	 -68.4764 	 9.39447 	 -111.084
| 13> C 	 -71.2231 	 8.98305 	 -110.095
| 14> H 	 -72.1338 	 8.39597 	 -110.025
| 15> H 	 -71.4906 	 9.9892 	 -110.334
| 16> C 	 -70.4801 	 8.65246 	 -108.817
| 17> H 	 -70.1456 	 7.62145 	 -108.759
| 18> H 	 -69.4556 	 9.0945 	 -108.838
| 19> C 	 -71.1444 	 9.10277 	 -107.498
| 20> H 	 -70.5243 	 8.72139 	 -106.672
| 21> H 	 -71.1219 	 10.2036 	 -107.437
| 22> H 	 -72.1736 	 8.80158 	 -107.18
| 23> S 	 -67.0654 	 7.76501 	 -114.929
| 24> C 	 -65.3701 	 7.23479 	 -114.798
| 25> C 	 -64.987 	 7.41426 	 -113.47
| 26> C 	 -65.9898 	 7.91483 	 -112.595
| 27> C 	 -67.2416 	 8.00965 	 -113.216
| 28> H 	 -63.9885 	 7.22769 	 -113.154
| 29> C 	 -65.804 	 7.85051 	 -111.156
| 30> H 	 -65.9656 	 6.78478 	 -110.851
| 31> H 	 -66.6408 	 8.46395 	 -110.763
| 32> C 	 -64.5115 	 8.38045 	 -110.54
| 33> H 	 -63.5932 	 7.8436 	 -110.855
| 34> H 	 -64.6316 	 8.25885 	 -109.496
| 35> C 	 -64.2755 	 9.82918 	 -110.825
| 36> H 	 -65.1563 	 10.3814 	 -110.391
| 37> H 	 -64.1253 	 10.0306 	 -111.85
| 38> H 	 -63.5352 	 10.1398 	 -110.199
| 39> H 	 -72.1393 	 7.52827 	 -112.488
| 40> H 	 -64.8078 	 6.99018 	 -115.682
| 41> *
| 42>
| 43>                          ****END OF INPUT****

CARTESIAN COORDINATES (ANGSTROEM)
---------------------------------
  S    -69.893000    7.026080  -113.428000
  C    -71.067100    7.724480  -112.391000
  C    -70.485500    8.438250  -111.358000
  C    -69.136600    8.745500  -111.642000
  C    -68.665700    8.113500  -112.789000
  H    -68.476400    9.394470  -111.084000
  C    -71.223100    8.983050  -110.095000
  H    -72.133800    8.395970  -110.025000
  H    -71.490600    9.989200  -110.334000
  C    -70.480100    8.652460  -108.817000
  H    -70.145600    7.621450  -108.759000
  H    -69.455600    9.094500  -108.838000
  C    -71.144400    9.102770  -107.498000
  H    -70.524300    8.721390  -106.672000
  H    -71.121900   10.203600  -107.437000
  H    -72.173600    8.801580  -107.180000
  S    -67.065400    7.765010  -114.929000
  C    -65.370100    7.234790  -114.798000
  C    -64.987000    7.414260  -113.470000
  C    -65.989800    7.914830  -112.595000
  C    -67.241600    8.009650  -113.216000
  H    -63.988500    7.227690  -113.154000
  C    -65.804000    7.850510  -111.156000
  H    -65.965600    6.784780  -110.851000
  H    -66.640800    8.463950  -110.763000
  C    -64.511500    8.380450  -110.540000
  H    -63.593200    7.843600  -110.855000
  H    -64.631600    8.258850  -109.496000
  C    -64.275500    9.829180  -110.825000
  H    -65.156300   10.381400  -110.391000
  H    -64.125300   10.030600  -111.850000
  H    -63.535200   10.139800  -110.199000
  H    -72.139300    7.528270  -112.488000
  H    -64.807800    6.990180  -115.682000

 Total Charge           Charge          ....    0
 Multiplicity           Mult            ....    1
 Number of Electrons    NEL             ....  134
 Basis Dimension        Dim             ....  322

ORBITAL ENERGIES
----------------

  NO   OCC          E(Eh)            E(eV)
   0   2.0000     -88.967548     -2420.9300
   1   2.0000     -88.959221     -2420.7035
   2   2.0000     -10.331778      -281.1420
   3   2.0000     -10.328553      -281.0542
   4   2.0000     -10.321082      -280.8509
   5   2.0000     -10.311897      -280.6010
   6   2.0000     -10.301470      -280.3173
   7   2.0000     -10.298656      -280.2407
   8   2.0000     -10.293607      -280.1033
   9   2.0000     -10.293454      -280.0991
  10   2.0000     -10.293309      -280.0952
  11   2.0000     -10.292764      -280.0803
  12   2.0000     -10.287864      -279.9470
  13   2.0000     -10.286567      -279.9117
  14   2.0000     -10.281850      -279.7834
  15   2.0000     -10.266052      -279.3535
  16   2.0000      -8.082542      -219.9371
  17   2.0000      -8.074030      -219.7055
  18   2.0000      -6.041014      -164.3843
  19   2.0000      -6.037098      -164.2778
  20   2.0000      -6.033219      -164.1722
  21   2.0000      -6.032475      -164.1520
  22   2.0000      -6.028356      -164.0399
  23   2.0000      -6.025019      -163.9491
  24   2.0000      -1.007505       -27.4156
  25   2.0000      -0.985505       -26.8170
  26   2.0000      -0.919174       -25.0120
  27   2.0000      -0.909643       -24.7526
  28   2.0000      -0.866363       -23.5749
  29   2.0000      -0.857425       -23.3317
  30   2.0000      -0.847284       -23.0558
  31   2.0000      -0.815404       -22.1883
  32   2.0000      -0.781959       -21.2782
  33   2.0000      -0.772417       -21.0185
  34   2.0000      -0.710201       -19.3255
  35   2.0000      -0.700339       -19.0572
  36   2.0000      -0.691150       -18.8071
  37   2.0000      -0.660126       -17.9629
  38   2.0000      -0.642341       -17.4790
  39   2.0000      -0.621578       -16.9140
  40   2.0000      -0.598979       -16.2990
  41   2.0000      -0.566121       -15.4049
  42   2.0000      -0.563124       -15.3234
  43   2.0000      -0.559221       -15.2172
  44   2.0000      -0.551453       -15.0058
  45   2.0000      -0.529483       -14.4080
  46   2.0000      -0.523967       -14.2579
  47   2.0000      -0.509449       -13.8628
  48   2.0000      -0.506169       -13.7735
  49   2.0000      -0.497229       -13.5303
  50   2.0000      -0.493755       -13.4358
  51   2.0000      -0.480036       -13.0624
  52   2.0000      -0.473798       -12.8927
  53   2.0000      -0.466301       -12.6887
  54   2.0000      -0.457188       -12.4407
  55   2.0000      -0.447097       -12.1661
  56   2.0000      -0.444770       -12.1028
  57   2.0000      -0.442904       -12.0520
  58   2.0000      -0.434909       -11.8345
  59   2.0000      -0.422505       -11.4969
  60   2.0000      -0.415926       -11.3179
  61   2.0000      -0.414051       -11.2669
  62   2.0000      -0.406654       -11.0656
  63   2.0000      -0.348641        -9.4870
  64   2.0000      -0.332147        -9.0382
  65   2.0000      -0.326577        -8.8866
  66   2.0000      -0.285868        -7.7789
  67   0.0000       0.020123         0.5476
  68   0.0000       0.076694         2.0870
  69   0.0000       0.109619         2.9829
  70   0.0000       0.113531         3.0893
  71   0.0000       0.129449         3.5225

MULLIKEN ATOMIC CHARGES
-----------------------
   0 S :    0.125495
   1 C :   -0.127966
   2 C :   -0.108695
   3 C :   -0.008488
   4 C :   -0.100375
   5 H :    0.023295
   6 C :    0.128518
   7 H :    0.014127
   8 H :    0.041432
   9 C :   -0.104947
  10 H :    0.031196
  11 H :    0.021565
  12 C :   -0.057579
  13 H :    0.031375
  14 H :    0.034224
  15 H :    0.040000
  16 S :    0.076826
  17 C :   -0.092488
  18 C :   -0.027648
  19 C :   -0.023897
  20 C :   -0.172153
  21 H :    0.009939
  22 C :    0.034079
  23 H :    0.055355
  24 H :   -0.002129
  25 C :   -0.070976
  26 H :    0.029465
  27 H :    0.017569
  28 C :    0.000304
  29 H :    0.014072
  30 H :    0.043319
  31 H :    0.007910
  32 H :    0.053888
  33 H :    0.063389
Sum of atomic charges:   -0.0000000

LOEWDIN ATOMIC CHARGES
----------------------
   0 S :    0.422428
   1 C :   -0.210078
   2 C :   -0.061389
   3 C :   -0.067009
   4 C :   -0.193313
   5 H :    0.028062
   6 C :   -0.024462
   7 H :    0.030006
   8 H :    0.030346
   9 C :   -0.049201
  10 H :    0.028605
  11 H :    0.026134
  12 C :   -0.073950
  13 H :    0.029961
  14 H :    0.026768
  15 H :    0.028092
  16 S :    0.395539
  17 C :   -0.172365
  18 C :   -0.064731
  19 C :   -0.071456
  20 C :   -0.194153
  21 H :    0.024559
  22 C :   -0.039268
  23 H :    0.043888
  24 H :    0.029036
  25 C :   -0.039974
  26 H :    0.022629
  27 H :    0.022194
  28 C :   -0.052021
  29 H :    0.029587
  30 H :    0.022370
  31 H :    0.014362
  32 H :    0.030751
  33 H :    0.028051

  Mayer bond orders larger than 0.100000
B(  0-S ,  1-C ) :   1.1521 B(  0-S ,  4-C ) :   1.1609 B(  1-C ,  2-C ) :   1.5928
B(  1-C ,  4-C ) :   0.1004 B(  1-C , 32-H ) :   0.9682 B(  2-C ,  3-C ) :   1.2570
B(  2-C ,  6-C ) :   1.0072 B(  3-C ,  4-C ) :   1.5571 B(  3-C ,  5-H ) :   0.9930
B(  4-C , 20-C ) :   1.0407 B(  6-C ,  7-H ) :   0.9390 B(  6-C ,  8-H ) :   0.9455
B(  6-C ,  9-C ) :   1.0569 B(  9-C , 10-H ) :   0.9565 B(  9-C , 11-H ) :   0.9486
B(  9-C , 12-C ) :   1.0812 B( 12-C , 13-H ) :   0.9730 B( 12-C , 14-H ) :   0.9755
B( 12-C , 15-H ) :   0.9773 B( 16-S , 17-C ) :   1.1516 B( 16-S , 20-C ) :   1.1608
B( 17-C , 18-C ) :   1.5660 B( 17-C , 20-C ) :   0.1019 B( 17-C , 33-H ) :   0.9772
B( 18-C , 19-C ) :   1.2565 B( 18-C , 21-H ) :   0.9957 B( 19-C , 20-C ) :   1.5377
B( 19-C , 22-C ) :   1.0581 B( 22-C , 23-H ) :   0.9276 B( 22-C , 24-H ) :   0.9284
B( 22-C , 25-C ) :   1.0835 B( 25-C , 26-H ) :   0.9488 B( 25-C , 27-H ) :   0.9504
B( 25-C , 28-C ) :   1.0910 B( 28-C , 29-H ) :   0.9683 B( 28-C , 30-H ) :   0.9745
B( 28-C , 31-H ) :   0.9679

Dispersion correction           -0.014042994
FINAL SINGLE POINT ENERGY     -1339.863422056759

DIPOLE MOMENT
-------------
                                X             Y             Z
Electronic contribution:     -4.00953      -9.39684     -29.33775
Nuclear contribution   :      4.17665       9.42630      30.07918
                        -----------------------------------------
Total Dipole Moment    :      0.16712       0.02946       0.74143
                        -----------------------------------------
Magnitude (a.u.)       :      0.76061
Magnitude (Debye)      :      1.93331

Rotational constants in cm-1:     0.017819     0.009143     0.006340
Rotational constants in MHz :   534.208871   274.112400   190.061619

                             ****ORCA TERMINATED NORMALLY****
TOTAL RUN TIME: 0 days 0 hours 0 minutes 21 seconds 892 msec
