                         Program Version 4.2.1 -  RELEASE  -
|  1> ! wB97X-D3 SP def2-SVP
|  2> %pal
|  3> nprocs 24
|  4> end
|  5>
|  6> * xyz 0 1
|  7> S 	 -111.34 	 61.6554 	 -67.3527
|  8> C 	 -110.026 	 61.4705 	 -66.224
|  9> C 	 -110.225 	 62.2161 	 -65.0726
| 10> C 	 -111.371 	 63.0777 	 -65.161
| 11> C 	 -112.083 	 62.7962 	 -66.2613
| 12> H 	 -111.866 	 63.7427 	 -64.4263
| 13> C 	 -109.347 	 62.1127 	 -63.7976
| 14> H 	 -108.343 	 62.3154 	 -64.1206
| 15> H 	 -109.201 	 61.0441 	 -63.4834
| 16> C 	 -109.714 	 62.8749 	 -62.5366
| 17> H 	 -109.835 	 63.9883 	 -62.7322
| 18> H 	 -110.716 	 62.4935 	 -62.2382
| 19> C 	 -108.736 	 62.6386 	 -61.427
| 20> H 	 -107.775 	 63.1169 	 -61.547
| 21> H 	 -109.161 	 63.0974 	 -60.5064
| 22> H 	 -108.601 	 61.6276 	 -61.1172
| 23> S 	 -113.243 	 64.9204 	 -67.5738
| 24> C 	 -114.891 	 65.2016 	 -67.4183
| 25> C 	 -115.518 	 64.2794 	 -66.6264
| 26> C 	 -114.631 	 63.339 	 -66.1182
| 27> C 	 -113.323 	 63.4858 	 -66.572
| 28> H 	 -116.577 	 64.3283 	 -66.4197
| 29> C 	 -115.136 	 62.1619 	 -65.2713
| 30> H 	 -115.807 	 62.8119 	 -64.6613
| 31> H 	 -114.43 	 61.6963 	 -64.6361
| 32> C 	 -115.937 	 61.1169 	 -66.0317
| 33> H 	 -116.841 	 61.57 	 -66.2907
| 34> H 	 -116.115 	 60.3323 	 -65.2949
| 35> C 	 -115.169 	 60.4672 	 -67.1871
| 36> H 	 -114.285 	 59.8812 	 -66.7697
| 37> H 	 -114.79 	 61.1677 	 -67.9211
| 38> H 	 -115.757 	 59.7378 	 -67.7364
| 39> H 	 -109.183 	 60.7782 	 -66.1977
| 40> H 	 -115.268 	 66.0897 	 -67.7958
| 41> *
| 42>
| 43>                          ****END OF INPUT****

CARTESIAN COORDINATES (ANGSTROEM)
---------------------------------
  S    -111.340000   61.655400  -67.352700
  C    -110.026000   61.470500  -66.224000
  C    -110.225000   62.216100  -65.072600
  C    -111.371000   63.077700  -65.161000
  C    -112.083000   62.796200  -66.261300
  H    -111.866000   63.742700  -64.426300
  C    -109.347000   62.112700  -63.797600
  H    -108.343000   62.315400  -64.120600
  H    -109.201000   61.044100  -63.483400
  C    -109.714000   62.874900  -62.536600
  H    -109.835000   63.988300  -62.732200
  H    -110.716000   62.493500  -62.238200
  C    -108.736000   62.638600  -61.427000
  H    -107.775000   63.116900  -61.547000
  H    -109.161000   63.097400  -60.506400
  H    -108.601000   61.627600  -61.117200
  S    -113.243000   64.920400  -67.573800
  C    -114.891000   65.201600  -67.418300
  C    -115.518000   64.279400  -66.626400
  C    -114.631000   63.339000  -66.118200
  C    -113.323000   63.485800  -66.572000
  H    -116.577000   64.328300  -66.419700
  C    -115.136000   62.161900  -65.271300
  H    -115.807000   62.811900  -64.661300
  H    -114.430000   61.696300  -64.636100
  C    -115.937000   61.116900  -66.031700
  H    -116.841000   61.570000  -66.290700
  H    -116.115000   60.332300  -65.294900
  C    -115.169000   60.467200  -67.187100
  H    -114.285000   59.881200  -66.769700
  H    -114.790000   61.167700  -67.921100
  H    -115.757000   59.737800  -67.736400
  H    -109.183000   60.778200  -66.197700
  H    -115.268000   66.089700  -67.795800

 Total Charge           Charge          ....    0
 Multiplicity           Mult            ....    1
 Number of Electrons    NEL             ....  134
 Basis Dimension        Dim             ....  322

ORBITAL ENERGIES
----------------

  NO   OCC          E(Eh)            E(eV)
   0   2.0000     -88.968839     -2420.9652
   1   2.0000     -88.959566     -2420.7129
   2   2.0000     -10.319657      -280.8121
   3   2.0000     -10.316874      -280.7364
   4   2.0000     -10.310524      -280.5636
   5   2.0000     -10.305699      -280.4323
   6   2.0000     -10.302736      -280.3517
   7   2.0000     -10.297217      -280.2015
   8   2.0000     -10.293943      -280.1124
   9   2.0000     -10.292186      -280.0646
  10   2.0000     -10.290376      -280.0154
  11   2.0000     -10.286459      -279.9088
  12   2.0000     -10.285478      -279.8821
  13   2.0000     -10.278424      -279.6901
  14   2.0000     -10.277230      -279.6576
  15   2.0000     -10.273905      -279.5672
  16   2.0000      -8.083260      -219.9567
  17   2.0000      -8.076102      -219.7619
  18   2.0000      -6.041769      -164.4049
  19   2.0000      -6.037887      -164.2993
  20   2.0000      -6.034215      -164.1993
  21   2.0000      -6.033967      -164.1926
  22   2.0000      -6.030210      -164.0904
  23   2.0000      -6.027323      -164.0118
  24   2.0000      -1.012627       -27.5550
  25   2.0000      -0.990558       -26.9544
  26   2.0000      -0.912254       -24.8237
  27   2.0000      -0.910969       -24.7887
  28   2.0000      -0.872728       -23.7481
  29   2.0000      -0.851131       -23.1605
  30   2.0000      -0.848677       -23.0937
  31   2.0000      -0.813827       -22.1454
  32   2.0000      -0.783852       -21.3297
  33   2.0000      -0.772739       -21.0273
  34   2.0000      -0.709362       -19.3027
  35   2.0000      -0.696991       -18.9661
  36   2.0000      -0.687565       -18.7096
  37   2.0000      -0.660122       -17.9628
  38   2.0000      -0.640898       -17.4397
  39   2.0000      -0.615947       -16.7608
  40   2.0000      -0.605495       -16.4764
  41   2.0000      -0.569699       -15.5023
  42   2.0000      -0.566617       -15.4184
  43   2.0000      -0.549529       -14.9534
  44   2.0000      -0.545038       -14.8312
  45   2.0000      -0.519896       -14.1471
  46   2.0000      -0.515695       -14.0328
  47   2.0000      -0.502846       -13.6831
  48   2.0000      -0.498311       -13.5597
  49   2.0000      -0.496137       -13.5006
  50   2.0000      -0.484818       -13.1926
  51   2.0000      -0.481816       -13.1109
  52   2.0000      -0.477263       -12.9870
  53   2.0000      -0.469139       -12.7659
  54   2.0000      -0.459997       -12.5171
  55   2.0000      -0.453699       -12.3458
  56   2.0000      -0.444545       -12.0967
  57   2.0000      -0.436026       -11.8649
  58   2.0000      -0.429868       -11.6973
  59   2.0000      -0.424861       -11.5610
  60   2.0000      -0.421532       -11.4705
  61   2.0000      -0.420166       -11.4333
  62   2.0000      -0.402849       -10.9621
  63   2.0000      -0.340201        -9.2573
  64   2.0000      -0.329949        -8.9784
  65   2.0000      -0.317599        -8.6423
  66   2.0000      -0.307126        -8.3573
  67   0.0000       0.051299         1.3959
  68   0.0000       0.056645         1.5414
  69   0.0000       0.118053         3.2124
  70   0.0000       0.128369         3.4931
  71   0.0000       0.134802         3.6681

MULLIKEN ATOMIC CHARGES
-----------------------
   0 S :    0.133399
   1 C :   -0.111370
   2 C :   -0.067885
   3 C :    0.018941
   4 C :   -0.166448
   5 H :    0.035101
   6 C :    0.033806
   7 H :    0.017723
   8 H :    0.027211
   9 C :   -0.088604
  10 H :    0.046109
  11 H :    0.031947
  12 C :   -0.026108
  13 H :    0.034286
  14 H :    0.026741
  15 H :    0.023649
  16 S :    0.117697
  17 C :   -0.063660
  18 C :   -0.045017
  19 C :   -0.019235
  20 C :   -0.208793
  21 H :    0.015471
  22 C :    0.058707
  23 H :    0.025144
  24 H :    0.016005
  25 C :   -0.015727
  26 H :    0.011070
  27 H :    0.029340
  28 C :   -0.068062
  29 H :    0.034725
  30 H :    0.041509
  31 H :    0.030892
  32 H :    0.039592
  33 H :    0.031845
Sum of atomic charges:    0.0000000

LOEWDIN ATOMIC CHARGES
----------------------
   0 S :    0.417071
   1 C :   -0.211613
   2 C :   -0.056135
   3 C :   -0.065958
   4 C :   -0.199829
   5 H :    0.044336
   6 C :   -0.044386
   7 H :    0.026309
   8 H :    0.035694
   9 C :   -0.048820
  10 H :    0.031933
  11 H :    0.027694
  12 C :   -0.064172
  13 H :    0.025500
  14 H :    0.033493
  15 H :    0.021417
  16 S :    0.439764
  17 C :   -0.187253
  18 C :   -0.081743
  19 C :   -0.054942
  20 C :   -0.213928
  21 H :    0.032182
  22 C :   -0.026385
  23 H :    0.036746
  24 H :    0.020782
  25 C :   -0.033698
  26 H :    0.012852
  27 H :    0.029112
  28 C :   -0.068967
  29 H :    0.031862
  30 H :    0.022189
  31 H :    0.024038
  32 H :    0.031865
  33 H :    0.012990

  Mayer bond orders larger than 0.100000
B(  0-S ,  1-C ) :   1.1239 B(  0-S ,  4-C ) :   1.1462 B(  1-C ,  2-C ) :   1.6553
B(  1-C , 32-H ) :   0.9664 B(  2-C ,  3-C ) :   1.2072 B(  2-C ,  6-C ) :   0.9942
B(  3-C ,  4-C ) :   1.6311 B(  3-C ,  5-H ) :   0.9834 B(  4-C , 20-C ) :   0.9992
B(  6-C ,  7-H ) :   0.9360 B(  6-C ,  8-H ) :   0.9415 B(  6-C ,  9-C ) :   1.0799
B(  9-C , 10-H ) :   0.9462 B(  9-C , 11-H ) :   0.9487 B(  9-C , 12-C ) :   1.0966
B( 12-C , 13-H ) :   0.9733 B( 12-C , 14-H ) :   0.9682 B( 12-C , 15-H ) :   0.9714
B( 16-S , 17-C ) :   1.2055 B( 16-S , 20-C ) :   1.1631 B( 17-C , 18-C ) :   1.5445
B( 17-C , 20-C ) :   0.1034 B( 17-C , 33-H ) :   0.9775 B( 18-C , 19-C ) :   1.2813
B( 18-C , 21-H ) :   0.9974 B( 19-C , 20-C ) :   1.5716 B( 19-C , 22-C ) :   1.0148
B( 22-C , 23-H ) :   0.9360 B( 22-C , 24-H ) :   0.9427 B( 22-C , 25-C ) :   1.0825
B( 25-C , 26-H ) :   0.9528 B( 25-C , 27-H ) :   0.9536 B( 25-C , 28-C ) :   1.0744
B( 28-C , 29-H ) :   0.9725 B( 28-C , 30-H ) :   0.9751 B( 28-C , 31-H ) :   0.9740

Dispersion correction           -0.015005011
FINAL SINGLE POINT ENERGY     -1339.877475970154

DIPOLE MOMENT
-------------
                                X             Y             Z
Electronic contribution:     -0.47271       9.66674     -20.03644
Nuclear contribution   :      0.37386      -9.75718      20.67657
                        -----------------------------------------
Total Dipole Moment    :     -0.09885      -0.09044       0.64014
                        -----------------------------------------
Magnitude (a.u.)       :      0.65401
Magnitude (Debye)      :      1.66235

Rotational constants in cm-1:     0.019826     0.007828     0.007596
Rotational constants in MHz :   594.365331   234.680428   227.727810

                             ****ORCA TERMINATED NORMALLY****
TOTAL RUN TIME: 0 days 0 hours 0 minutes 20 seconds 707 msec
