                         Program Version 4.2.1 -  RELEASE  -
|  1> ! wB97X-D3 SP def2-SVP
|  2> %pal
|  3> nprocs 24
|  4> end
|  5>
|  6> * xyz 0 1
|  7> S 	 33.9096 	 -25.3271 	 -115.516
|  8> C 	 35.6173 	 -25.6423 	 -115.733
|  9> C 	 36.3953 	 -24.4856 	 -115.654
| 10> C 	 35.5826 	 -23.3664 	 -115.287
| 11> C 	 34.2695 	 -23.6798 	 -115.07
| 12> H 	 35.8651 	 -22.3031 	 -115.215
| 13> C 	 37.8752 	 -24.3528 	 -115.99
| 14> H 	 37.9965 	 -23.4327 	 -116.554
| 15> H 	 38.1408 	 -25.0986 	 -116.695
| 16> C 	 38.9281 	 -24.2648 	 -114.902
| 17> H 	 39.8983 	 -24.0202 	 -115.259
| 18> H 	 38.7105 	 -23.4924 	 -114.154
| 19> C 	 39.0787 	 -25.5549 	 -114.037
| 20> H 	 39.6677 	 -26.2504 	 -114.492
| 21> H 	 39.492 	 -25.2993 	 -113.121
| 22> H 	 38.1412 	 -26.053 	 -113.748
| 23> S 	 32.1459 	 -21.9996 	 -115.807
| 24> C 	 31.4239 	 -21.0092 	 -114.558
| 25> C 	 32.0435 	 -21.2207 	 -113.315
| 26> C 	 33.006 	 -22.2718 	 -113.297
| 27> C 	 33.2085 	 -22.7549 	 -114.629
| 28> H 	 31.7152 	 -20.6619 	 -112.437
| 29> C 	 33.7853 	 -22.5773 	 -112.101
| 30> H 	 34.0068 	 -23.645 	 -112.114
| 31> H 	 33.2372 	 -22.4211 	 -111.158
| 32> C 	 35.1058 	 -21.8101 	 -112.012
| 33> H 	 35.5287 	 -21.8287 	 -113.027
| 34> H 	 35.9767 	 -22.271 	 -111.393
| 35> C 	 34.9442 	 -20.2835 	 -111.608
| 36> H 	 34.326 	 -19.7142 	 -112.34
| 37> H 	 35.9704 	 -19.9062 	 -111.38
| 38> H 	 34.2466 	 -20.2576 	 -110.743
| 39> H 	 36.0765 	 -26.6375 	 -116.066
| 40> H 	 30.6614 	 -20.2878 	 -114.767
| 41> *
| 42>
| 43>                          ****END OF INPUT****

CARTESIAN COORDINATES (ANGSTROEM)
---------------------------------
  S     33.909600  -25.327100  -115.516000
  C     35.617300  -25.642300  -115.733000
  C     36.395300  -24.485600  -115.654000
  C     35.582600  -23.366400  -115.287000
  C     34.269500  -23.679800  -115.070000
  H     35.865100  -22.303100  -115.215000
  C     37.875200  -24.352800  -115.990000
  H     37.996500  -23.432700  -116.554000
  H     38.140800  -25.098600  -116.695000
  C     38.928100  -24.264800  -114.902000
  H     39.898300  -24.020200  -115.259000
  H     38.710500  -23.492400  -114.154000
  C     39.078700  -25.554900  -114.037000
  H     39.667700  -26.250400  -114.492000
  H     39.492000  -25.299300  -113.121000
  H     38.141200  -26.053000  -113.748000
  S     32.145900  -21.999600  -115.807000
  C     31.423900  -21.009200  -114.558000
  C     32.043500  -21.220700  -113.315000
  C     33.006000  -22.271800  -113.297000
  C     33.208500  -22.754900  -114.629000
  H     31.715200  -20.661900  -112.437000
  C     33.785300  -22.577300  -112.101000
  H     34.006800  -23.645000  -112.114000
  H     33.237200  -22.421100  -111.158000
  C     35.105800  -21.810100  -112.012000
  H     35.528700  -21.828700  -113.027000
  H     35.976700  -22.271000  -111.393000
  C     34.944200  -20.283500  -111.608000
  H     34.326000  -19.714200  -112.340000
  H     35.970400  -19.906200  -111.380000
  H     34.246600  -20.257600  -110.743000
  H     36.076500  -26.637500  -116.066000
  H     30.661400  -20.287800  -114.767000

 Total Charge           Charge          ....    0
 Multiplicity           Mult            ....    1
 Number of Electrons    NEL             ....  134
 Basis Dimension        Dim             ....  322

ORBITAL ENERGIES
----------------

  NO   OCC          E(Eh)            E(eV)
   0   2.0000     -88.970908     -2421.0215
   1   2.0000     -88.967977     -2420.9417
   2   2.0000     -10.329721      -281.0860
   3   2.0000     -10.325773      -280.9786
   4   2.0000     -10.322121      -280.8792
   5   2.0000     -10.319543      -280.8090
   6   2.0000     -10.305765      -280.4341
   7   2.0000     -10.305278      -280.4209
   8   2.0000     -10.296893      -280.1927
   9   2.0000     -10.295211      -280.1469
  10   2.0000     -10.292942      -280.0852
  11   2.0000     -10.289903      -280.0025
  12   2.0000     -10.289101      -279.9807
  13   2.0000     -10.285882      -279.8931
  14   2.0000     -10.285148      -279.8731
  15   2.0000     -10.261491      -279.2294
  16   2.0000      -8.085167      -220.0086
  17   2.0000      -8.082755      -219.9430
  18   2.0000      -6.043479      -164.4514
  19   2.0000      -6.041188      -164.3891
  20   2.0000      -6.039683      -164.3481
  21   2.0000      -6.037344      -164.2845
  22   2.0000      -6.036244      -164.2546
  23   2.0000      -6.033501      -164.1799
  24   2.0000      -1.004558       -27.3354
  25   2.0000      -0.982254       -26.7285
  26   2.0000      -0.910829       -24.7849
  27   2.0000      -0.910104       -24.7652
  28   2.0000      -0.863634       -23.5007
  29   2.0000      -0.848975       -23.1018
  30   2.0000      -0.842688       -22.9307
  31   2.0000      -0.811680       -22.0869
  32   2.0000      -0.788521       -21.4567
  33   2.0000      -0.771725       -20.9997
  34   2.0000      -0.707801       -19.2603
  35   2.0000      -0.698931       -19.0189
  36   2.0000      -0.684588       -18.6286
  37   2.0000      -0.659128       -17.9358
  38   2.0000      -0.641254       -17.4494
  39   2.0000      -0.617015       -16.7898
  40   2.0000      -0.597855       -16.2684
  41   2.0000      -0.566297       -15.4097
  42   2.0000      -0.551788       -15.0149
  43   2.0000      -0.547268       -14.8919
  44   2.0000      -0.545569       -14.8457
  45   2.0000      -0.539658       -14.6849
  46   2.0000      -0.518541       -14.1102
  47   2.0000      -0.510528       -13.8922
  48   2.0000      -0.495774       -13.4907
  49   2.0000      -0.489815       -13.3285
  50   2.0000      -0.481535       -13.1032
  51   2.0000      -0.480099       -13.0642
  52   2.0000      -0.469141       -12.7660
  53   2.0000      -0.465750       -12.6737
  54   2.0000      -0.462280       -12.5793
  55   2.0000      -0.449435       -12.2298
  56   2.0000      -0.444146       -12.0858
  57   2.0000      -0.440300       -11.9812
  58   2.0000      -0.438357       -11.9283
  59   2.0000      -0.425054       -11.5663
  60   2.0000      -0.416493       -11.3334
  61   2.0000      -0.414657       -11.2834
  62   2.0000      -0.409381       -11.1398
  63   2.0000      -0.338776        -9.2186
  64   2.0000      -0.330808        -9.0017
  65   2.0000      -0.321300        -8.7430
  66   2.0000      -0.305141        -8.3033
  67   0.0000       0.038499         1.0476
  68   0.0000       0.052867         1.4386
  69   0.0000       0.109968         2.9924
  70   0.0000       0.119930         3.2635
  71   0.0000       0.123058         3.3486

MULLIKEN ATOMIC CHARGES
-----------------------
   0 S :    0.124863
   1 C :   -0.144918
   2 C :   -0.090050
   3 C :    0.042774
   4 C :   -0.198233
   5 H :    0.038640
   6 C :    0.099620
   7 H :    0.022227
   8 H :    0.009570
   9 C :   -0.053259
  10 H :    0.020759
  11 H :    0.020998
  12 C :   -0.021259
  13 H :    0.009479
  14 H :    0.009366
  15 H :    0.028339
  16 S :    0.128534
  17 C :   -0.097415
  18 C :   -0.041314
  19 C :   -0.018390
  20 C :   -0.189597
  21 H :    0.023796
  22 C :    0.086896
  23 H :    0.032486
  24 H :    0.027041
  25 C :   -0.100033
  26 H :    0.012760
  27 H :    0.043903
  28 C :   -0.072771
  29 H :    0.045421
  30 H :    0.054713
  31 H :    0.019054
  32 H :    0.071474
  33 H :    0.054525
Sum of atomic charges:   -0.0000000

LOEWDIN ATOMIC CHARGES
----------------------
   0 S :    0.411026
   1 C :   -0.207894
   2 C :   -0.064014
   3 C :   -0.058621
   4 C :   -0.205525
   5 H :    0.038037
   6 C :   -0.030719
   7 H :    0.035777
   8 H :    0.025352
   9 C :   -0.032597
  10 H :    0.021736
  11 H :    0.024550
  12 C :   -0.057567
  13 H :    0.008792
  14 H :    0.017420
  15 H :    0.028672
  16 S :    0.416383
  17 C :   -0.187128
  18 C :   -0.071337
  19 C :   -0.048076
  20 C :   -0.208514
  21 H :    0.031872
  22 C :   -0.040443
  23 H :    0.039117
  24 H :    0.032456
  25 C :   -0.046926
  26 H :    0.019963
  27 H :    0.033349
  28 C :   -0.076840
  29 H :    0.029016
  30 H :    0.033758
  31 H :    0.020980
  32 H :    0.043124
  33 H :    0.024822

  Mayer bond orders larger than 0.100000
B(  0-S ,  1-C ) :   1.1455 B(  0-S ,  4-C ) :   1.1498 B(  1-C ,  2-C ) :   1.6142
B(  1-C , 32-H ) :   0.9554 B(  2-C ,  3-C ) :   1.2282 B(  2-C ,  6-C ) :   1.0215
B(  3-C ,  4-C ) :   1.6118 B(  3-C ,  5-H ) :   0.9771 B(  4-C , 20-C ) :   1.0082
B(  6-C ,  7-H ) :   0.9343 B(  6-C ,  8-H ) :   0.9396 B(  6-C ,  9-C ) :   1.0784
B(  9-C , 10-H ) :   0.9541 B(  9-C , 11-H ) :   0.9605 B(  9-C , 12-C ) :   1.0743
B( 12-C , 13-H ) :   0.9778 B( 12-C , 14-H ) :   0.9749 B( 12-C , 15-H ) :   0.9757
B( 16-S , 17-C ) :   1.1656 B( 16-S , 20-C ) :   1.1725 B( 17-C , 18-C ) :   1.5774
B( 17-C , 20-C ) :   0.1092 B( 17-C , 33-H ) :   0.9720 B( 18-C , 19-C ) :   1.2705
B( 18-C , 21-H ) :   0.9826 B( 19-C , 20-C ) :   1.5430 B( 19-C , 22-C ) :   1.0753
B( 22-C , 23-H ) :   0.9088 B( 22-C , 24-H ) :   0.9377 B( 22-C , 25-C ) :   1.0629
B( 25-C , 26-H ) :   0.9481 B( 25-C , 27-H ) :   0.9577 B( 25-C , 28-C ) :   1.0652
B( 28-C , 29-H ) :   0.9708 B( 28-C , 30-H ) :   0.9739 B( 28-C , 31-H ) :   0.9758

Dispersion correction           -0.015428114
FINAL SINGLE POINT ENERGY     -1339.874991600018

DIPOLE MOMENT
-------------
                                X             Y             Z
Electronic contribution:    -24.21248      -4.05890     -15.23970
Nuclear contribution   :     24.70338       4.29032      15.41244
                        -----------------------------------------
Total Dipole Moment    :      0.49090       0.23141       0.17274
                        -----------------------------------------
Magnitude (a.u.)       :      0.56953
Magnitude (Debye)      :      1.44764

Rotational constants in cm-1:     0.019525     0.009153     0.007102
Rotational constants in MHz :   585.334972   274.396461   212.927507

                             ****ORCA TERMINATED NORMALLY****
TOTAL RUN TIME: 0 days 0 hours 0 minutes 22 seconds 409 msec
