                         Program Version 4.2.1 -  RELEASE  -
|  1> ! wB97X-D3 SP def2-SVP
|  2> %pal
|  3> nprocs 24
|  4> end
|  5>
|  6> * xyz 0 1
|  7> S 	 -56.141 	 4.87326 	 -30.5684
|  8> C 	 -57.612 	 3.85363 	 -30.6016
|  9> C 	 -58.4863 	 4.25812 	 -29.5637
| 10> C 	 -57.8722 	 5.21328 	 -28.639
| 11> C 	 -56.6832 	 5.70782 	 -29.1579
| 12> H 	 -58.2299 	 5.60191 	 -27.7374
| 13> C 	 -59.7778 	 3.49297 	 -29.1714
| 14> H 	 -60.2296 	 3.88688 	 -28.205
| 15> H 	 -59.4148 	 2.48045 	 -28.923
| 16> C 	 -60.9211 	 3.39165 	 -30.1741
| 17> H 	 -61.1858 	 4.45061 	 -30.3451
| 18> H 	 -60.6559 	 2.85554 	 -31.094
| 19> C 	 -62.0937 	 2.69471 	 -29.4059
| 20> H 	 -61.8582 	 1.66625 	 -29.1981
| 21> H 	 -62.2732 	 3.17931 	 -28.4682
| 22> H 	 -63.0172 	 2.63335 	 -30.0041
| 23> S 	 -54.3068 	 6.71161 	 -28.3691
| 24> C 	 -53.981 	 8.43041 	 -28.2532
| 25> C 	 -55.2218 	 9.04615 	 -28.0139
| 26> C 	 -56.348 	 8.19475 	 -28.2936
| 27> C 	 -55.9909 	 6.87048 	 -28.5919
| 28> H 	 -55.4184 	 10.072 	 -27.6256
| 29> C 	 -57.7577 	 8.67332 	 -28.2326
| 30> H 	 -57.833 	 9.76154 	 -27.8439
| 31> H 	 -58.2718 	 8.24101 	 -27.3753
| 32> C 	 -58.639 	 8.57793 	 -29.4965
| 33> H 	 -59.5989 	 8.86819 	 -29.0806
| 34> H 	 -58.751 	 7.57005 	 -29.8278
| 35> C 	 -58.198 	 9.43533 	 -30.6977
| 36> H 	 -57.6494 	 8.85766 	 -31.4916
| 37> H 	 -57.592 	 10.2144 	 -30.4143
| 38> H 	 -59.1059 	 9.8102 	 -31.2242
| 39> H 	 -57.8825 	 3.2418 	 -31.4136
| 40> H 	 -53.0832 	 8.93801 	 -27.8246
| 41> *
| 42>
| 43>                          ****END OF INPUT****

CARTESIAN COORDINATES (ANGSTROEM)
---------------------------------
  S    -56.141000    4.873260  -30.568400
  C    -57.612000    3.853630  -30.601600
  C    -58.486300    4.258120  -29.563700
  C    -57.872200    5.213280  -28.639000
  C    -56.683200    5.707820  -29.157900
  H    -58.229900    5.601910  -27.737400
  C    -59.777800    3.492970  -29.171400
  H    -60.229600    3.886880  -28.205000
  H    -59.414800    2.480450  -28.923000
  C    -60.921100    3.391650  -30.174100
  H    -61.185800    4.450610  -30.345100
  H    -60.655900    2.855540  -31.094000
  C    -62.093700    2.694710  -29.405900
  H    -61.858200    1.666250  -29.198100
  H    -62.273200    3.179310  -28.468200
  H    -63.017200    2.633350  -30.004100
  S    -54.306800    6.711610  -28.369100
  C    -53.981000    8.430410  -28.253200
  C    -55.221800    9.046150  -28.013900
  C    -56.348000    8.194750  -28.293600
  C    -55.990900    6.870480  -28.591900
  H    -55.418400   10.072000  -27.625600
  C    -57.757700    8.673320  -28.232600
  H    -57.833000    9.761540  -27.843900
  H    -58.271800    8.241010  -27.375300
  C    -58.639000    8.577930  -29.496500
  H    -59.598900    8.868190  -29.080600
  H    -58.751000    7.570050  -29.827800
  C    -58.198000    9.435330  -30.697700
  H    -57.649400    8.857660  -31.491600
  H    -57.592000   10.214400  -30.414300
  H    -59.105900    9.810200  -31.224200
  H    -57.882500    3.241800  -31.413600
  H    -53.083200    8.938010  -27.824600

 Total Charge           Charge          ....    0
 Multiplicity           Mult            ....    1
 Number of Electrons    NEL             ....  134
 Basis Dimension        Dim             ....  322

ORBITAL ENERGIES
----------------

  NO   OCC          E(Eh)            E(eV)
   0   2.0000     -88.971423     -2421.0355
   1   2.0000     -88.963996     -2420.8334
   2   2.0000     -10.332018      -281.1485
   3   2.0000     -10.326536      -280.9993
   4   2.0000     -10.321678      -280.8671
   5   2.0000     -10.319551      -280.8093
   6   2.0000     -10.313917      -280.6560
   7   2.0000     -10.302709      -280.3510
   8   2.0000     -10.301380      -280.3148
   9   2.0000     -10.299461      -280.2626
  10   2.0000     -10.295508      -280.1550
  11   2.0000     -10.293654      -280.1046
  12   2.0000     -10.293423      -280.0983
  13   2.0000     -10.279940      -279.7314
  14   2.0000     -10.279468      -279.7186
  15   2.0000     -10.270892      -279.4852
  16   2.0000      -8.085546      -220.0189
  17   2.0000      -8.079350      -219.8503
  18   2.0000      -6.044129      -164.4691
  19   2.0000      -6.039995      -164.3566
  20   2.0000      -6.037911      -164.2999
  21   2.0000      -6.036373      -164.2581
  22   2.0000      -6.033601      -164.1826
  23   2.0000      -6.030152      -164.0888
  24   2.0000      -1.008660       -27.4470
  25   2.0000      -0.981230       -26.7006
  26   2.0000      -0.910981       -24.7890
  27   2.0000      -0.904721       -24.6187
  28   2.0000      -0.868294       -23.6275
  29   2.0000      -0.848731       -23.0952
  30   2.0000      -0.842671       -22.9302
  31   2.0000      -0.813606       -22.1393
  32   2.0000      -0.778101       -21.1732
  33   2.0000      -0.770223       -20.9588
  34   2.0000      -0.708208       -19.2713
  35   2.0000      -0.702411       -19.1136
  36   2.0000      -0.685912       -18.6646
  37   2.0000      -0.663341       -18.0504
  38   2.0000      -0.647233       -17.6121
  39   2.0000      -0.611561       -16.6414
  40   2.0000      -0.591510       -16.0958
  41   2.0000      -0.578417       -15.7395
  42   2.0000      -0.563806       -15.3420
  43   2.0000      -0.547595       -14.9008
  44   2.0000      -0.535660       -14.5760
  45   2.0000      -0.517450       -14.0805
  46   2.0000      -0.516868       -14.0647
  47   2.0000      -0.510822       -13.9002
  48   2.0000      -0.504909       -13.7393
  49   2.0000      -0.495702       -13.4887
  50   2.0000      -0.482331       -13.1249
  51   2.0000      -0.479139       -13.0380
  52   2.0000      -0.474770       -12.9191
  53   2.0000      -0.468778       -12.7561
  54   2.0000      -0.460675       -12.5356
  55   2.0000      -0.452933       -12.3249
  56   2.0000      -0.442771       -12.0484
  57   2.0000      -0.433557       -11.7977
  58   2.0000      -0.427719       -11.6388
  59   2.0000      -0.425705       -11.5840
  60   2.0000      -0.417787       -11.3686
  61   2.0000      -0.415239       -11.2992
  62   2.0000      -0.407362       -11.0849
  63   2.0000      -0.343888        -9.3577
  64   2.0000      -0.331682        -9.0255
  65   2.0000      -0.324338        -8.8257
  66   2.0000      -0.294174        -8.0049
  67   0.0000       0.020967         0.5705
  68   0.0000       0.062232         1.6934
  69   0.0000       0.101977         2.7749
  70   0.0000       0.115246         3.1360
  71   0.0000       0.125941         3.4270

MULLIKEN ATOMIC CHARGES
-----------------------
   0 S :    0.128112
   1 C :   -0.108451
   2 C :   -0.050799
   3 C :    0.042602
   4 C :   -0.124909
   5 H :   -0.004512
   6 C :   -0.025374
   7 H :    0.027102
   8 H :    0.044496
   9 C :   -0.069372
  10 H :    0.038979
  11 H :    0.040839
  12 C :   -0.041184
  13 H :    0.022503
  14 H :    0.025580
  15 H :    0.037704
  16 S :    0.100637
  17 C :   -0.094287
  18 C :   -0.060011
  19 C :   -0.020167
  20 C :   -0.170587
  21 H :    0.035943
  22 C :   -0.016830
  23 H :    0.016318
  24 H :    0.029002
  25 C :   -0.044081
  26 H :    0.018406
  27 H :    0.036842
  28 C :   -0.031600
  29 H :    0.041440
  30 H :    0.012227
  31 H :    0.034677
  32 H :    0.045912
  33 H :    0.082844
Sum of atomic charges:    0.0000000

LOEWDIN ATOMIC CHARGES
----------------------
   0 S :    0.413309
   1 C :   -0.188394
   2 C :   -0.051942
   3 C :   -0.054798
   4 C :   -0.201623
   5 H :    0.022682
   6 C :   -0.041975
   7 H :    0.032793
   8 H :    0.033756
   9 C :   -0.039679
  10 H :    0.028858
  11 H :    0.024741
  12 C :   -0.061694
  13 H :    0.022105
  14 H :    0.021111
  15 H :    0.027749
  16 S :    0.430518
  17 C :   -0.210920
  18 C :   -0.071041
  19 C :   -0.066889
  20 C :   -0.209656
  21 H :    0.036549
  22 C :   -0.047454
  23 H :    0.034744
  24 H :    0.029064
  25 C :   -0.036758
  26 H :    0.023937
  27 H :    0.021521
  28 C :   -0.062594
  29 H :    0.035008
  30 H :    0.010235
  31 H :    0.032723
  32 H :    0.019695
  33 H :    0.044317

  Mayer bond orders larger than 0.100000
B(  0-S ,  1-C ) :   1.1251 B(  0-S ,  4-C ) :   1.1647 B(  1-C ,  2-C ) :   1.6017
B(  1-C , 32-H ) :   0.9761 B(  2-C ,  3-C ) :   1.2150 B(  2-C ,  6-C ) :   1.0058
B(  3-C ,  4-C ) :   1.5585 B(  3-C ,  5-H ) :   1.0044 B(  4-C , 20-C ) :   1.0314
B(  6-C ,  7-H ) :   0.9543 B(  6-C ,  8-H ) :   0.9470 B(  6-C ,  9-C ) :   1.0540
B(  9-C , 10-H ) :   0.9579 B(  9-C , 11-H ) :   0.9561 B(  9-C , 12-C ) :   1.0784
B( 12-C , 13-H ) :   0.9750 B( 12-C , 14-H ) :   0.9746 B( 12-C , 15-H ) :   0.9747
B( 16-S , 17-C ) :   1.1621 B( 16-S , 20-C ) :   1.1710 B( 17-C , 18-C ) :   1.5484
B( 17-C , 20-C ) :   0.1062 B( 17-C , 33-H ) :   0.9567 B( 18-C , 19-C ) :   1.3094
B( 18-C , 21-H ) :   0.9725 B( 19-C , 20-C ) :   1.5291 B( 19-C , 22-C ) :   1.0383
B( 22-C , 23-H ) :   0.9331 B( 22-C , 24-H ) :   0.9367 B( 22-C , 25-C ) :   1.0793
B( 25-C , 26-H ) :   0.9546 B( 25-C , 27-H ) :   0.9566 B( 25-C , 28-C ) :   1.0631
B( 28-C , 29-H ) :   0.9753 B( 28-C , 30-H ) :   0.9814 B( 28-C , 31-H ) :   0.9753

Dispersion correction           -0.014734543
FINAL SINGLE POINT ENERGY     -1339.857463313114

DIPOLE MOMENT
-------------
                                X             Y             Z
Electronic contribution:     29.04305      -1.50716       1.66969
Nuclear contribution   :    -29.78659       1.57462      -1.40855
                        -----------------------------------------
Total Dipole Moment    :     -0.74354       0.06746       0.26114
                        -----------------------------------------
Magnitude (a.u.)       :      0.79095
Magnitude (Debye)      :      2.01044

Rotational constants in cm-1:     0.022242     0.008033     0.006768
Rotational constants in MHz :   666.796097   240.813430   202.895759

                             ****ORCA TERMINATED NORMALLY****
TOTAL RUN TIME: 0 days 0 hours 0 minutes 21 seconds 950 msec
