                         Program Version 4.2.1 -  RELEASE  -
|  1> ! wB97X-D3 SP def2-SVP
|  2> %pal
|  3> nprocs 24
|  4> end
|  5>
|  6> * xyz 0 1
|  7> S 	 -134.874 	 66.2094 	 -61.8786
|  8> C 	 -134.713 	 67.7111 	 -62.6668
|  9> C 	 -135.506 	 67.7897 	 -63.8254
| 10> C 	 -136.249 	 66.6042 	 -64.0089
| 11> C 	 -135.974 	 65.6241 	 -63.0789
| 12> H 	 -136.995 	 66.3011 	 -64.7179
| 13> C 	 -135.525 	 68.8617 	 -64.8868
| 14> H 	 -136.057 	 69.6765 	 -64.4117
| 15> H 	 -136.316 	 68.4348 	 -65.6316
| 16> C 	 -134.245 	 69.2317 	 -65.7774
| 17> H 	 -133.949 	 68.3499 	 -66.3123
| 18> H 	 -134.514 	 69.9737 	 -66.5185
| 19> C 	 -133.022 	 69.8234 	 -65.0933
| 20> H 	 -133.3 	 70.7776 	 -64.5515
| 21> H 	 -132.549 	 69.1781 	 -64.3685
| 22> H 	 -132.279 	 70.1 	 -65.8439
| 23> S 	 -135.943 	 63.576 	 -64.8805
| 24> C 	 -136.393 	 62.041 	 -64.2075
| 25> C 	 -136.818 	 62.145 	 -62.9134
| 26> C 	 -136.86 	 63.3753 	 -62.3346
| 27> C 	 -136.274 	 64.2541 	 -63.252
| 28> H 	 -137.14 	 61.1922 	 -62.4256
| 29> C 	 -137.514 	 63.6597 	 -61.0306
| 30> H 	 -138.618 	 63.595 	 -61.0239
| 31> H 	 -137.208 	 64.7024 	 -60.7851
| 32> C 	 -137.097 	 62.7667 	 -59.8116
| 33> H 	 -137.672 	 61.8143 	 -59.8328
| 34> H 	 -137.654 	 63.1421 	 -58.9476
| 35> C 	 -135.539 	 62.5386 	 -59.6593
| 36> H 	 -135.05 	 63.3856 	 -60.0945
| 37> H 	 -135.099 	 61.7638 	 -60.3293
| 38> H 	 -135.057 	 62.3776 	 -58.6584
| 39> H 	 -134.077 	 68.4498 	 -62.3037
| 40> H 	 -136.215 	 61.1584 	 -64.8032
| 41> *
| 42>
| 43>                          ****END OF INPUT****

CARTESIAN COORDINATES (ANGSTROEM)
---------------------------------
  S    -134.874000   66.209400  -61.878600
  C    -134.713000   67.711100  -62.666800
  C    -135.506000   67.789700  -63.825400
  C    -136.249000   66.604200  -64.008900
  C    -135.974000   65.624100  -63.078900
  H    -136.995000   66.301100  -64.717900
  C    -135.525000   68.861700  -64.886800
  H    -136.057000   69.676500  -64.411700
  H    -136.316000   68.434800  -65.631600
  C    -134.245000   69.231700  -65.777400
  H    -133.949000   68.349900  -66.312300
  H    -134.514000   69.973700  -66.518500
  C    -133.022000   69.823400  -65.093300
  H    -133.300000   70.777600  -64.551500
  H    -132.549000   69.178100  -64.368500
  H    -132.279000   70.100000  -65.843900
  S    -135.943000   63.576000  -64.880500
  C    -136.393000   62.041000  -64.207500
  C    -136.818000   62.145000  -62.913400
  C    -136.860000   63.375300  -62.334600
  C    -136.274000   64.254100  -63.252000
  H    -137.140000   61.192200  -62.425600
  C    -137.514000   63.659700  -61.030600
  H    -138.618000   63.595000  -61.023900
  H    -137.208000   64.702400  -60.785100
  C    -137.097000   62.766700  -59.811600
  H    -137.672000   61.814300  -59.832800
  H    -137.654000   63.142100  -58.947600
  C    -135.539000   62.538600  -59.659300
  H    -135.050000   63.385600  -60.094500
  H    -135.099000   61.763800  -60.329300
  H    -135.057000   62.377600  -58.658400
  H    -134.077000   68.449800  -62.303700
  H    -136.215000   61.158400  -64.803200

 Total Charge           Charge          ....    0
 Multiplicity           Mult            ....    1
 Number of Electrons    NEL             ....  134
 Basis Dimension        Dim             ....  322

ORBITAL ENERGIES
----------------

  NO   OCC          E(Eh)            E(eV)
   0   2.0000     -88.968354     -2420.9520
   1   2.0000     -88.965756     -2420.8813
   2   2.0000     -10.324362      -280.9402
   3   2.0000     -10.313916      -280.6559
   4   2.0000     -10.311637      -280.5939
   5   2.0000     -10.306571      -280.4561
   6   2.0000     -10.300977      -280.3038
   7   2.0000     -10.299785      -280.2714
   8   2.0000     -10.299563      -280.2654
   9   2.0000     -10.297316      -280.2042
  10   2.0000     -10.296521      -280.1826
  11   2.0000     -10.290783      -280.0264
  12   2.0000     -10.286896      -279.9207
  13   2.0000     -10.284295      -279.8499
  14   2.0000     -10.282249      -279.7942
  15   2.0000     -10.279508      -279.7196
  16   2.0000      -8.082792      -219.9440
  17   2.0000      -8.081295      -219.9032
  18   2.0000      -6.041022      -164.3846
  19   2.0000      -6.039589      -164.3456
  20   2.0000      -6.037583      -164.2910
  21   2.0000      -6.035578      -164.2364
  22   2.0000      -6.033630      -164.1834
  23   2.0000      -6.032369      -164.1491
  24   2.0000      -1.013430       -27.5768
  25   2.0000      -0.989079       -26.9142
  26   2.0000      -0.906769       -24.6744
  27   2.0000      -0.902012       -24.5450
  28   2.0000      -0.871794       -23.7227
  29   2.0000      -0.856366       -23.3029
  30   2.0000      -0.847979       -23.0747
  31   2.0000      -0.805569       -21.9207
  32   2.0000      -0.786268       -21.3954
  33   2.0000      -0.770838       -20.9756
  34   2.0000      -0.713435       -19.4136
  35   2.0000      -0.704245       -19.1635
  36   2.0000      -0.696220       -18.9451
  37   2.0000      -0.663506       -18.0549
  38   2.0000      -0.642222       -17.4758
  39   2.0000      -0.607930       -16.5426
  40   2.0000      -0.597031       -16.2461
  41   2.0000      -0.562245       -15.2995
  42   2.0000      -0.554421       -15.0866
  43   2.0000      -0.545050       -14.8316
  44   2.0000      -0.533691       -14.5225
  45   2.0000      -0.529775       -14.4159
  46   2.0000      -0.519206       -14.1283
  47   2.0000      -0.514032       -13.9875
  48   2.0000      -0.500273       -13.6131
  49   2.0000      -0.491192       -13.3660
  50   2.0000      -0.487626       -13.2690
  51   2.0000      -0.479447       -13.0464
  52   2.0000      -0.470360       -12.7991
  53   2.0000      -0.463553       -12.6139
  54   2.0000      -0.454993       -12.3810
  55   2.0000      -0.451162       -12.2767
  56   2.0000      -0.444025       -12.0825
  57   2.0000      -0.438591       -11.9347
  58   2.0000      -0.433854       -11.8058
  59   2.0000      -0.430814       -11.7230
  60   2.0000      -0.422656       -11.5010
  61   2.0000      -0.413186       -11.2434
  62   2.0000      -0.402779       -10.9602
  63   2.0000      -0.342162        -9.3107
  64   2.0000      -0.338954        -9.2234
  65   2.0000      -0.329547        -8.9674
  66   2.0000      -0.282153        -7.6778
  67   0.0000       0.026632         0.7247
  68   0.0000       0.066012         1.7963
  69   0.0000       0.098886         2.6908
  70   0.0000       0.112670         3.0659
  71   0.0000       0.135726         3.6933

MULLIKEN ATOMIC CHARGES
-----------------------
   0 S :    0.124560
   1 C :   -0.112722
   2 C :   -0.067977
   3 C :   -0.012993
   4 C :   -0.163660
   5 H :    0.010454
   6 C :    0.027891
   7 H :    0.037903
   8 H :    0.035028
   9 C :   -0.027754
  10 H :    0.029836
  11 H :    0.031384
  12 C :   -0.075997
  13 H :    0.030920
  14 H :    0.035270
  15 H :    0.037079
  16 S :    0.116842
  17 C :   -0.101630
  18 C :   -0.032763
  19 C :   -0.007036
  20 C :   -0.177131
  21 H :    0.023549
  22 C :    0.063899
  23 H :    0.052495
  24 H :    0.028689
  25 C :   -0.089424
  26 H :    0.022667
  27 H :    0.025909
  28 C :   -0.044897
  29 H :    0.013872
  30 H :    0.034634
  31 H :    0.050753
  32 H :    0.026367
  33 H :    0.053984
Sum of atomic charges:    0.0000000

LOEWDIN ATOMIC CHARGES
----------------------
   0 S :    0.442235
   1 C :   -0.206411
   2 C :   -0.065108
   3 C :   -0.074550
   4 C :   -0.209472
   5 H :    0.027986
   6 C :   -0.040378
   7 H :    0.030827
   8 H :    0.043370
   9 C :   -0.033796
  10 H :    0.024484
  11 H :    0.028356
  12 C :   -0.072054
  13 H :    0.028407
  14 H :    0.019360
  15 H :    0.029239
  16 S :    0.403144
  17 C :   -0.189342
  18 C :   -0.071933
  19 C :   -0.064640
  20 C :   -0.174991
  21 H :    0.036440
  22 C :   -0.029800
  23 H :    0.043297
  24 H :    0.029082
  25 C :   -0.048447
  26 H :    0.022447
  27 H :    0.028790
  28 C :   -0.081310
  29 H :    0.019091
  30 H :    0.033692
  31 H :    0.034480
  32 H :    0.012653
  33 H :    0.024853

  Mayer bond orders larger than 0.100000
B(  0-S ,  1-C ) :   1.1657 B(  0-S ,  4-C ) :   1.1641 B(  1-C ,  2-C ) :   1.5529
B(  1-C , 32-H ) :   0.9836 B(  2-C ,  3-C ) :   1.2601 B(  2-C ,  6-C ) :   1.0079
B(  3-C ,  4-C ) :   1.5416 B(  3-C ,  5-H ) :   1.0003 B(  4-C , 20-C ) :   1.0821
B(  6-C ,  7-H ) :   0.9363 B(  6-C ,  8-H ) :   0.9474 B(  6-C ,  9-C ) :   1.0550
B(  9-C , 10-H ) :   0.9563 B(  9-C , 11-H ) :   0.9545 B(  9-C , 12-C ) :   1.0874
B( 12-C , 13-H ) :   0.9751 B( 12-C , 14-H ) :   0.9741 B( 12-C , 15-H ) :   0.9714
B( 16-S , 17-C ) :   1.1429 B( 16-S , 20-C ) :   1.1535 B( 17-C , 18-C ) :   1.5994
B( 17-C , 20-C ) :   0.1053 B( 17-C , 33-H ) :   0.9707 B( 18-C , 19-C ) :   1.2523
B( 18-C , 21-H ) :   0.9833 B( 19-C , 20-C ) :   1.5341 B( 19-C , 22-C ) :   1.0528
B( 22-C , 23-H ) :   0.9347 B( 22-C , 24-H ) :   0.9191 B( 22-C , 25-C ) :   1.0788
B( 25-C , 26-H ) :   0.9518 B( 25-C , 27-H ) :   0.9567 B( 25-C , 28-C ) :   1.0437
B( 28-C , 29-H ) :   0.9753 B( 28-C , 30-H ) :   0.9691 B( 28-C , 31-H ) :   0.9793

Dispersion correction           -0.014859906
FINAL SINGLE POINT ENERGY     -1339.857286067417

DIPOLE MOMENT
-------------
                                X             Y             Z
Electronic contribution:     -2.84818      -7.76060      -4.30122
Nuclear contribution   :      2.76569       7.79196       4.22251
                        -----------------------------------------
Total Dipole Moment    :     -0.08249       0.03136      -0.07871
                        -----------------------------------------
Magnitude (a.u.)       :      0.11825
Magnitude (Debye)      :      0.30057

Rotational constants in cm-1:     0.025546     0.007719     0.006486
Rotational constants in MHz :   765.864727   231.405928   194.454035

                             ****ORCA TERMINATED NORMALLY****
TOTAL RUN TIME: 0 days 0 hours 0 minutes 22 seconds 506 msec
