                         Program Version 4.2.1 -  RELEASE  -
|  1> ! wB97X-D3 SP def2-SVP
|  2> %pal
|  3> nprocs 24
|  4> end
|  5>
|  6> * xyz 0 1
|  7> S 	 -118.71 	 22.3109 	 -25.8655
|  8> C 	 -117.044 	 21.969 	 -26.2804
|  9> C 	 -116.213 	 22.6064 	 -25.3431
| 10> C 	 -116.889 	 23.4341 	 -24.4602
| 11> C 	 -118.251 	 23.4276 	 -24.611
| 12> H 	 -116.389 	 24.1364 	 -23.82
| 13> C 	 -114.684 	 22.4742 	 -25.3637
| 14> H 	 -114.219 	 23.2792 	 -24.7951
| 15> H 	 -114.32 	 22.6181 	 -26.3599
| 16> C 	 -114.328 	 21.1222 	 -24.6484
| 17> H 	 -114.757 	 21.1996 	 -23.6802
| 18> H 	 -114.711 	 20.1678 	 -25.1167
| 19> C 	 -112.888 	 20.8901 	 -24.3741
| 20> H 	 -112.423 	 21.49 	 -23.5488
| 21> H 	 -112.805 	 19.8165 	 -24.126
| 22> H 	 -112.474 	 21.0413 	 -25.3339
| 23> S 	 -120.457 	 23.6327 	 -22.983
| 24> C 	 -121.079 	 25.246 	 -22.5693
| 25> C 	 -120.324 	 26.2711 	 -23.1054
| 26> C 	 -119.292 	 25.7586 	 -24.0145
| 27> C 	 -119.211 	 24.3464 	 -24.0227
| 28> H 	 -120.531 	 27.3083 	 -22.9741
| 29> C 	 -118.388 	 26.6215 	 -24.8584
| 30> H 	 -117.389 	 26.1429 	 -24.9537
| 31> H 	 -118.138 	 27.4832 	 -24.2401
| 32> C 	 -118.937 	 27.1109 	 -26.2303
| 33> H 	 -119.865 	 27.6381 	 -25.9828
| 34> H 	 -119.077 	 26.2386 	 -26.8642
| 35> C 	 -118.025 	 28.1023 	 -26.8954
| 36> H 	 -118.01 	 28.9904 	 -26.216
| 37> H 	 -118.356 	 28.3139 	 -27.8867
| 38> H 	 -116.927 	 27.8556 	 -26.9609
| 39> H 	 -116.645 	 21.3357 	 -27.0118
| 40> H 	 -121.803 	 25.3754 	 -21.8257
| 41> *
| 42>
| 43>                          ****END OF INPUT****

CARTESIAN COORDINATES (ANGSTROEM)
---------------------------------
  S    -118.710000   22.310900  -25.865500
  C    -117.044000   21.969000  -26.280400
  C    -116.213000   22.606400  -25.343100
  C    -116.889000   23.434100  -24.460200
  C    -118.251000   23.427600  -24.611000
  H    -116.389000   24.136400  -23.820000
  C    -114.684000   22.474200  -25.363700
  H    -114.219000   23.279200  -24.795100
  H    -114.320000   22.618100  -26.359900
  C    -114.328000   21.122200  -24.648400
  H    -114.757000   21.199600  -23.680200
  H    -114.711000   20.167800  -25.116700
  C    -112.888000   20.890100  -24.374100
  H    -112.423000   21.490000  -23.548800
  H    -112.805000   19.816500  -24.126000
  H    -112.474000   21.041300  -25.333900
  S    -120.457000   23.632700  -22.983000
  C    -121.079000   25.246000  -22.569300
  C    -120.324000   26.271100  -23.105400
  C    -119.292000   25.758600  -24.014500
  C    -119.211000   24.346400  -24.022700
  H    -120.531000   27.308300  -22.974100
  C    -118.388000   26.621500  -24.858400
  H    -117.389000   26.142900  -24.953700
  H    -118.138000   27.483200  -24.240100
  C    -118.937000   27.110900  -26.230300
  H    -119.865000   27.638100  -25.982800
  H    -119.077000   26.238600  -26.864200
  C    -118.025000   28.102300  -26.895400
  H    -118.010000   28.990400  -26.216000
  H    -118.356000   28.313900  -27.886700
  H    -116.927000   27.855600  -26.960900
  H    -116.645000   21.335700  -27.011800
  H    -121.803000   25.375400  -21.825700

 Total Charge           Charge          ....    0
 Multiplicity           Mult            ....    1
 Number of Electrons    NEL             ....  134
 Basis Dimension        Dim             ....  322

ORBITAL ENERGIES
----------------

  NO   OCC          E(Eh)            E(eV)
   0   2.0000     -88.967809     -2420.9371
   1   2.0000     -88.963879     -2420.8302
   2   2.0000     -10.328681      -281.0577
   3   2.0000     -10.325888      -280.9817
   4   2.0000     -10.318107      -280.7700
   5   2.0000     -10.311903      -280.6011
   6   2.0000     -10.309195      -280.5275
   7   2.0000     -10.299197      -280.2554
   8   2.0000     -10.297793      -280.2172
   9   2.0000     -10.293873      -280.1105
  10   2.0000     -10.289959      -280.0040
  11   2.0000     -10.288351      -279.9603
  12   2.0000     -10.285128      -279.8726
  13   2.0000     -10.283545      -279.8295
  14   2.0000     -10.278959      -279.7047
  15   2.0000     -10.273326      -279.5514
  16   2.0000      -8.082373      -219.9325
  17   2.0000      -8.078028      -219.8143
  18   2.0000      -6.040787      -164.3782
  19   2.0000      -6.036787      -164.2693
  20   2.0000      -6.036564      -164.2633
  21   2.0000      -6.033339      -164.1755
  22   2.0000      -6.032606      -164.1555
  23   2.0000      -6.028822      -164.0526
  24   2.0000      -1.005611       -27.3641
  25   2.0000      -0.978169       -26.6173
  26   2.0000      -0.913022       -24.8446
  27   2.0000      -0.906690       -24.6723
  28   2.0000      -0.870478       -23.6869
  29   2.0000      -0.854638       -23.2559
  30   2.0000      -0.847906       -23.0727
  31   2.0000      -0.817452       -22.2440
  32   2.0000      -0.781099       -21.2548
  33   2.0000      -0.765552       -20.8317
  34   2.0000      -0.705081       -19.1862
  35   2.0000      -0.693460       -18.8700
  36   2.0000      -0.690725       -18.7956
  37   2.0000      -0.663946       -18.0669
  38   2.0000      -0.644278       -17.5317
  39   2.0000      -0.622308       -16.9339
  40   2.0000      -0.593855       -16.1596
  41   2.0000      -0.571506       -15.5515
  42   2.0000      -0.569904       -15.5079
  43   2.0000      -0.562789       -15.3143
  44   2.0000      -0.533288       -14.5115
  45   2.0000      -0.526327       -14.3221
  46   2.0000      -0.521564       -14.1925
  47   2.0000      -0.512926       -13.9574
  48   2.0000      -0.506310       -13.7774
  49   2.0000      -0.504107       -13.7174
  50   2.0000      -0.497198       -13.5294
  51   2.0000      -0.473267       -12.8782
  52   2.0000      -0.469176       -12.7669
  53   2.0000      -0.461084       -12.5467
  54   2.0000      -0.455065       -12.3829
  55   2.0000      -0.448155       -12.1949
  56   2.0000      -0.441566       -12.0156
  57   2.0000      -0.431615       -11.7448
  58   2.0000      -0.426432       -11.6038
  59   2.0000      -0.424965       -11.5639
  60   2.0000      -0.421295       -11.4640
  61   2.0000      -0.415358       -11.3025
  62   2.0000      -0.412645       -11.2286
  63   2.0000      -0.340757        -9.2725
  64   2.0000      -0.333862        -9.0848
  65   2.0000      -0.326295        -8.8789
  66   2.0000      -0.294442        -8.0122
  67   0.0000       0.033864         0.9215
  68   0.0000       0.058009         1.5785
  69   0.0000       0.112254         3.0546
  70   0.0000       0.120968         3.2917
  71   0.0000       0.131470         3.5775

MULLIKEN ATOMIC CHARGES
-----------------------
   0 S :    0.124439
   1 C :   -0.087422
   2 C :   -0.125995
   3 C :    0.058004
   4 C :   -0.149955
   5 H :    0.008087
   6 C :    0.086324
   7 H :    0.012281
   8 H :    0.025689
   9 C :   -0.106179
  10 H :    0.019710
  11 H :    0.040272
  12 C :   -0.022653
  13 H :    0.045332
  14 H :    0.032335
  15 H :    0.015803
  16 S :    0.091551
  17 C :   -0.064575
  18 C :   -0.013130
  19 C :   -0.043221
  20 C :   -0.162042
  21 H :    0.015525
  22 C :    0.031770
  23 H :    0.019466
  24 H :    0.007317
  25 C :   -0.037961
  26 H :    0.030070
  27 H :    0.039392
  28 C :   -0.050372
  29 H :    0.024827
  30 H :    0.036883
  31 H :    0.032056
  32 H :    0.023588
  33 H :    0.042784
Sum of atomic charges:    0.0000000

LOEWDIN ATOMIC CHARGES
----------------------
   0 S :    0.421922
   1 C :   -0.192696
   2 C :   -0.059383
   3 C :   -0.062279
   4 C :   -0.204251
   5 H :    0.030549
   6 C :   -0.026290
   7 H :    0.028874
   8 H :    0.024268
   9 C :   -0.044621
  10 H :    0.020744
  11 H :    0.031329
  12 C :   -0.068670
  13 H :    0.029186
  14 H :    0.031411
  15 H :    0.017423
  16 S :    0.383854
  17 C :   -0.162721
  18 C :   -0.063001
  19 C :   -0.049381
  20 C :   -0.195193
  21 H :    0.029105
  22 C :   -0.041679
  23 H :    0.031062
  24 H :    0.025537
  25 C :   -0.034681
  26 H :    0.028028
  27 H :    0.026320
  28 C :   -0.069796
  29 H :    0.027850
  30 H :    0.023097
  31 H :    0.028441
  32 H :    0.018880
  33 H :    0.016760

  Mayer bond orders larger than 0.100000
B(  0-S ,  1-C ) :   1.1485 B(  0-S ,  4-C ) :   1.1715 B(  1-C ,  2-C ) :   1.5705
B(  1-C ,  4-C ) :   0.1129 B(  1-C , 32-H ) :   0.9783 B(  2-C ,  3-C ) :   1.2896
B(  2-C ,  6-C ) :   1.0251 B(  3-C ,  4-C ) :   1.5432 B(  3-C ,  5-H ) :   0.9977
B(  4-C , 20-C ) :   1.0097 B(  6-C ,  7-H ) :   0.9427 B(  6-C ,  8-H ) :   0.9413
B(  6-C ,  9-C ) :   1.0500 B(  9-C , 10-H ) :   0.9544 B(  9-C , 11-H ) :   0.9617
B(  9-C , 12-C ) :   1.0870 B( 12-C , 13-H ) :   0.9745 B( 12-C , 14-H ) :   0.9722
B( 12-C , 15-H ) :   0.9712 B( 16-S , 17-C ) :   1.1478 B( 16-S , 20-C ) :   1.1348
B( 17-C , 18-C ) :   1.6191 B( 17-C , 33-H ) :   0.9726 B( 18-C , 19-C ) :   1.2237
B( 18-C , 21-H ) :   0.9918 B( 19-C , 20-C ) :   1.6102 B( 19-C , 22-C ) :   1.0521
B( 22-C , 23-H ) :   0.9300 B( 22-C , 24-H ) :   0.9292 B( 22-C , 25-C ) :   1.0604
B( 25-C , 26-H ) :   0.9538 B( 25-C , 27-H ) :   0.9543 B( 25-C , 28-C ) :   1.0851
B( 28-C , 29-H ) :   0.9726 B( 28-C , 30-H ) :   0.9729 B( 28-C , 31-H ) :   0.9739

Dispersion correction           -0.013911415
FINAL SINGLE POINT ENERGY     -1339.873958248108

DIPOLE MOMENT
-------------
                                X             Y             Z
Electronic contribution:    -23.06483      -8.69323       6.56085
Nuclear contribution   :     23.61225       9.10020      -6.59279
                        -----------------------------------------
Total Dipole Moment    :      0.54742       0.40697      -0.03194
                        -----------------------------------------
Magnitude (a.u.)       :      0.68287
Magnitude (Debye)      :      1.73572

Rotational constants in cm-1:     0.018549     0.007865     0.006595
Rotational constants in MHz :   556.089668   235.779676   197.720861

                             ****ORCA TERMINATED NORMALLY****
TOTAL RUN TIME: 0 days 0 hours 0 minutes 21 seconds 202 msec
