                         Program Version 4.2.1 -  RELEASE  -
|  1> ! wB97X-D3 SP def2-SVP
|  2> %pal
|  3> nprocs 24
|  4> end
|  5>
|  6> * xyz 0 1
|  7> S 	 -63.9698 	 7.64624 	 -82.7939
|  8> C 	 -64.5192 	 6.49712 	 -84.0182
|  9> C 	 -65.6246 	 5.77926 	 -83.5471
| 10> C 	 -66.1415 	 6.3089 	 -82.331
| 11> C 	 -65.3262 	 7.32263 	 -81.7857
| 12> H 	 -66.9389 	 5.94331 	 -81.8627
| 13> C 	 -66.3051 	 4.64447 	 -84.367
| 14> H 	 -65.8839 	 3.76081 	 -83.9727
| 15> H 	 -66.0372 	 4.5769 	 -85.4353
| 16> C 	 -67.8456 	 4.54687 	 -84.1756
| 17> H 	 -68.2397 	 3.61417 	 -84.6159
| 18> H 	 -68.1615 	 4.3341 	 -83.1296
| 19> C 	 -68.586 	 5.72413 	 -84.8212
| 20> H 	 -68.4498 	 6.59661 	 -84.1197
| 21> H 	 -68.1917 	 6.03213 	 -85.7719
| 22> H 	 -69.638 	 5.37975 	 -85.004
| 23> S 	 -65.9747 	 9.654 	 -80.4573
| 24> C 	 -65.8792 	 9.55596 	 -78.7018
| 25> C 	 -65.3742 	 8.38893 	 -78.2038
| 26> C 	 -65.192 	 7.43519 	 -79.2166
| 27> C 	 -65.5016 	 7.9597 	 -80.4989
| 28> H 	 -65.262 	 8.20071 	 -77.1836
| 29> C 	 -64.6037 	 6.0394 	 -78.8468
| 30> H 	 -63.645 	 6.13311 	 -78.3946
| 31> H 	 -64.392 	 5.48383 	 -79.8038
| 32> C 	 -65.3354 	 5.1994 	 -77.8117
| 33> H 	 -66.3124 	 4.87133 	 -77.9903
| 34> H 	 -65.4688 	 5.72377 	 -76.8372
| 35> C 	 -64.5859 	 3.80312 	 -77.5908
| 36> H 	 -64.5923 	 3.24571 	 -78.5505
| 37> H 	 -65.083 	 3.282 	 -76.8301
| 38> H 	 -63.5366 	 3.94844 	 -77.1429
| 39> H 	 -64.1036 	 6.39916 	 -84.9729
| 40> H 	 -66.0349 	 10.3401 	 -78.0131
| 41> *
| 42>
| 43>                          ****END OF INPUT****

CARTESIAN COORDINATES (ANGSTROEM)
---------------------------------
  S    -63.969800    7.646240  -82.793900
  C    -64.519200    6.497120  -84.018200
  C    -65.624600    5.779260  -83.547100
  C    -66.141500    6.308900  -82.331000
  C    -65.326200    7.322630  -81.785700
  H    -66.938900    5.943310  -81.862700
  C    -66.305100    4.644470  -84.367000
  H    -65.883900    3.760810  -83.972700
  H    -66.037200    4.576900  -85.435300
  C    -67.845600    4.546870  -84.175600
  H    -68.239700    3.614170  -84.615900
  H    -68.161500    4.334100  -83.129600
  C    -68.586000    5.724130  -84.821200
  H    -68.449800    6.596610  -84.119700
  H    -68.191700    6.032130  -85.771900
  H    -69.638000    5.379750  -85.004000
  S    -65.974700    9.654000  -80.457300
  C    -65.879200    9.555960  -78.701800
  C    -65.374200    8.388930  -78.203800
  C    -65.192000    7.435190  -79.216600
  C    -65.501600    7.959700  -80.498900
  H    -65.262000    8.200710  -77.183600
  C    -64.603700    6.039400  -78.846800
  H    -63.645000    6.133110  -78.394600
  H    -64.392000    5.483830  -79.803800
  C    -65.335400    5.199400  -77.811700
  H    -66.312400    4.871330  -77.990300
  H    -65.468800    5.723770  -76.837200
  C    -64.585900    3.803120  -77.590800
  H    -64.592300    3.245710  -78.550500
  H    -65.083000    3.282000  -76.830100
  H    -63.536600    3.948440  -77.142900
  H    -64.103600    6.399160  -84.972900
  H    -66.034900   10.340100  -78.013100

 Total Charge           Charge          ....    0
 Multiplicity           Mult            ....    1
 Number of Electrons    NEL             ....  134
 Basis Dimension        Dim             ....  322

ORBITAL ENERGIES
----------------

  NO   OCC          E(Eh)            E(eV)
   0   2.0000     -88.971258     -2421.0310
   1   2.0000     -88.965581     -2420.8765
   2   2.0000     -10.325982      -280.9842
   3   2.0000     -10.325249      -280.9643
   4   2.0000     -10.312859      -280.6272
   5   2.0000     -10.309531      -280.5366
   6   2.0000     -10.305980      -280.4400
   7   2.0000     -10.303632      -280.3761
   8   2.0000     -10.294962      -280.1402
   9   2.0000     -10.294078      -280.1161
  10   2.0000     -10.290544      -280.0199
  11   2.0000     -10.288353      -279.9603
  12   2.0000     -10.285671      -279.8873
  13   2.0000     -10.285634      -279.8863
  14   2.0000     -10.284727      -279.8617
  15   2.0000     -10.279166      -279.7103
  16   2.0000      -8.085407      -220.0151
  17   2.0000      -8.080306      -219.8763
  18   2.0000      -6.043799      -164.4601
  19   2.0000      -6.040205      -164.3623
  20   2.0000      -6.038660      -164.3203
  21   2.0000      -6.036127      -164.2514
  22   2.0000      -6.034730      -164.2133
  23   2.0000      -6.031327      -164.1207
  24   2.0000      -1.003551       -27.3080
  25   2.0000      -0.980857       -26.6905
  26   2.0000      -0.906310       -24.6619
  27   2.0000      -0.903580       -24.5877
  28   2.0000      -0.867741       -23.6124
  29   2.0000      -0.849040       -23.1035
  30   2.0000      -0.842981       -22.9387
  31   2.0000      -0.812146       -22.0996
  32   2.0000      -0.783183       -21.3115
  33   2.0000      -0.769129       -20.9291
  34   2.0000      -0.708592       -19.2818
  35   2.0000      -0.699024       -19.0214
  36   2.0000      -0.691268       -18.8104
  37   2.0000      -0.661315       -17.9953
  38   2.0000      -0.646120       -17.5818
  39   2.0000      -0.624209       -16.9856
  40   2.0000      -0.599740       -16.3198
  41   2.0000      -0.566583       -15.4175
  42   2.0000      -0.557903       -15.1813
  43   2.0000      -0.550393       -14.9770
  44   2.0000      -0.534438       -14.5428
  45   2.0000      -0.522850       -14.2275
  46   2.0000      -0.513377       -13.9697
  47   2.0000      -0.512697       -13.9512
  48   2.0000      -0.502371       -13.6702
  49   2.0000      -0.497394       -13.5348
  50   2.0000      -0.486354       -13.2344
  51   2.0000      -0.475861       -12.9488
  52   2.0000      -0.466415       -12.6918
  53   2.0000      -0.465002       -12.6533
  54   2.0000      -0.461520       -12.5586
  55   2.0000      -0.453191       -12.3320
  56   2.0000      -0.447018       -12.1640
  57   2.0000      -0.444718       -12.1014
  58   2.0000      -0.432361       -11.7651
  59   2.0000      -0.421523       -11.4702
  60   2.0000      -0.418687       -11.3931
  61   2.0000      -0.416334       -11.3290
  62   2.0000      -0.406020       -11.0484
  63   2.0000      -0.340369        -9.2619
  64   2.0000      -0.329623        -8.9695
  65   2.0000      -0.320275        -8.7151
  66   2.0000      -0.300853        -8.1866
  67   0.0000       0.037840         1.0297
  68   0.0000       0.057796         1.5727
  69   0.0000       0.111432         3.0322
  70   0.0000       0.125047         3.4027
  71   0.0000       0.131309         3.5731

MULLIKEN ATOMIC CHARGES
-----------------------
   0 S :    0.124856
   1 C :   -0.122512
   2 C :   -0.087240
   3 C :    0.104695
   4 C :   -0.175885
   5 H :   -0.053096
   6 C :    0.096284
   7 H :    0.022722
   8 H :    0.028740
   9 C :   -0.119501
  10 H :    0.018380
  11 H :    0.031629
  12 C :   -0.046613
  13 H :    0.049764
  14 H :    0.025661
  15 H :    0.042632
  16 S :    0.129536
  17 C :   -0.058699
  18 C :   -0.020893
  19 C :    0.019087
  20 C :   -0.202773
  21 H :   -0.001077
  22 C :    0.082140
  23 H :    0.022402
  24 H :    0.036160
  25 C :   -0.084948
  26 H :    0.015200
  27 H :    0.027082
  28 C :   -0.080814
  29 H :    0.051255
  30 H :    0.023792
  31 H :    0.039708
  32 H :    0.028548
  33 H :    0.033778
Sum of atomic charges:   -0.0000000

LOEWDIN ATOMIC CHARGES
----------------------
   0 S :    0.419376
   1 C :   -0.193400
   2 C :   -0.053208
   3 C :   -0.047039
   4 C :   -0.207912
   5 H :    0.005958
   6 C :   -0.028489
   7 H :    0.028296
   8 H :    0.033045
   9 C :   -0.053450
  10 H :    0.023415
  11 H :    0.025578
  12 C :   -0.069247
  13 H :    0.034173
  14 H :    0.020628
  15 H :    0.032372
  16 S :    0.409436
  17 C :   -0.169829
  18 C :   -0.063466
  19 C :   -0.041716
  20 C :   -0.211027
  21 H :    0.023491
  22 C :   -0.032528
  23 H :    0.031367
  24 H :    0.036871
  25 C :   -0.039284
  26 H :    0.013708
  27 H :    0.024452
  28 C :   -0.064592
  29 H :    0.031119
  30 H :    0.015916
  31 H :    0.030531
  32 H :    0.015824
  33 H :    0.019635

  Mayer bond orders larger than 0.100000
B(  0-S ,  1-C ) :   1.1439 B(  0-S ,  4-C ) :   1.1813 B(  1-C ,  2-C ) :   1.5792
B(  1-C ,  4-C ) :   0.1038 B(  1-C , 32-H ) :   0.9812 B(  2-C ,  3-C ) :   1.2698
B(  2-C ,  6-C ) :   0.9996 B(  3-C ,  4-C ) :   1.5314 B(  3-C ,  5-H ) :   1.0141
B(  4-C , 20-C ) :   1.0295 B(  6-C ,  7-H ) :   0.9268 B(  6-C ,  8-H ) :   0.9517
B(  6-C ,  9-C ) :   1.0858 B(  9-C , 10-H ) :   0.9545 B(  9-C , 11-H ) :   0.9482
B(  9-C , 12-C ) :   1.0669 B( 12-C , 13-H ) :   0.9733 B( 12-C , 14-H ) :   0.9761
B( 12-C , 15-H ) :   0.9761 B( 16-S , 17-C ) :   1.1502 B( 16-S , 20-C ) :   1.1456
B( 17-C , 18-C ) :   1.6247 B( 17-C , 20-C ) :   0.1006 B( 17-C , 33-H ) :   0.9650
B( 18-C , 19-C ) :   1.2515 B( 18-C , 21-H ) :   0.9947 B( 19-C , 20-C ) :   1.5880
B( 19-C , 22-C ) :   1.0324 B( 22-C , 23-H ) :   0.9379 B( 22-C , 24-H ) :   0.9374
B( 22-C , 25-C ) :   1.0510 B( 25-C , 26-H ) :   0.9581 B( 25-C , 27-H ) :   0.9537
B( 25-C , 28-C ) :   1.0784 B( 28-C , 29-H ) :   0.9767 B( 28-C , 30-H ) :   0.9763
B( 28-C , 31-H ) :   0.9754

Dispersion correction           -0.014101499
FINAL SINGLE POINT ENERGY     -1339.859139453714

DIPOLE MOMENT
-------------
                                X             Y             Z
Electronic contribution:      8.63667      24.00560      -2.61076
Nuclear contribution   :     -8.77086     -24.59580       2.85928
                        -----------------------------------------
Total Dipole Moment    :     -0.13419      -0.59020       0.24852
                        -----------------------------------------
Magnitude (a.u.)       :      0.65430
Magnitude (Debye)      :      1.66310

Rotational constants in cm-1:     0.016229     0.008791     0.007183
Rotational constants in MHz :   486.534744   263.559823   215.345853

                             ****ORCA TERMINATED NORMALLY****
TOTAL RUN TIME: 0 days 0 hours 0 minutes 22 seconds 399 msec
