                         Program Version 4.2.1 -  RELEASE  -
|  1> ! wB97X-D3 SP def2-SVP
|  2> %pal
|  3> nprocs 24
|  4> end
|  5>
|  6> * xyz 0 1
|  7> S 	 -81.5437 	 0.827919 	 -113.332
|  8> C 	 -81.5622 	 2.54416 	 -113.77
|  9> C 	 -82.8162 	 3.09462 	 -114.024
| 10> C 	 -83.7443 	 2.0205 	 -114.097
| 11> C 	 -83.2054 	 0.766619 	 -113.834
| 12> H 	 -84.7896 	 2.0505 	 -114.46
| 13> C 	 -83.0194 	 4.45253 	 -114.631
| 14> H 	 -83.1196 	 5.21563 	 -113.943
| 15> H 	 -83.981 	 4.48716 	 -115.138
| 16> C 	 -81.9065 	 4.8278 	 -115.635
| 17> H 	 -82.0611 	 5.88661 	 -116.033
| 18> H 	 -80.9595 	 4.66458 	 -115.084
| 19> C 	 -81.9095 	 3.98041 	 -116.948
| 20> H 	 -82.9016 	 4.02696 	 -117.506
| 21> H 	 -81.1693 	 4.45455 	 -117.632
| 22> H 	 -81.645 	 2.91045 	 -116.758
| 23> S 	 -84.8124 	 -1.10175 	 -112.634
| 24> C 	 -85.5442 	 -2.33126 	 -113.562
| 25> C 	 -85.1165 	 -2.28703 	 -114.902
| 26> C 	 -84.2185 	 -1.17376 	 -115.168
| 27> C 	 -83.95 	 -0.470538 	 -114.026
| 28> H 	 -85.537 	 -2.82522 	 -115.751
| 29> C 	 -83.7301 	 -0.775404 	 -116.568
| 30> H 	 -82.8248 	 -0.114446 	 -116.603
| 31> H 	 -84.6026 	 -0.240846 	 -116.935
| 32> C 	 -83.3126 	 -1.85378 	 -117.558
| 33> H 	 -84.0981 	 -2.54588 	 -117.582
| 34> H 	 -82.4016 	 -2.42014 	 -117.23
| 35> C 	 -83.0767 	 -1.28187 	 -118.982
| 36> H 	 -83.1998 	 -2.07217 	 -119.679
| 37> H 	 -82.0587 	 -0.824287 	 -119.11
| 38> H 	 -83.7851 	 -0.456893 	 -119.127
| 39> H 	 -80.605 	 3.09045 	 -113.852
| 40> H 	 -86.2102 	 -3.07959 	 -113.171
| 41> *
| 42>
| 43>                          ****END OF INPUT****

CARTESIAN COORDINATES (ANGSTROEM)
---------------------------------
  S    -81.543700    0.827919  -113.332000
  C    -81.562200    2.544160  -113.770000
  C    -82.816200    3.094620  -114.024000
  C    -83.744300    2.020500  -114.097000
  C    -83.205400    0.766619  -113.834000
  H    -84.789600    2.050500  -114.460000
  C    -83.019400    4.452530  -114.631000
  H    -83.119600    5.215630  -113.943000
  H    -83.981000    4.487160  -115.138000
  C    -81.906500    4.827800  -115.635000
  H    -82.061100    5.886610  -116.033000
  H    -80.959500    4.664580  -115.084000
  C    -81.909500    3.980410  -116.948000
  H    -82.901600    4.026960  -117.506000
  H    -81.169300    4.454550  -117.632000
  H    -81.645000    2.910450  -116.758000
  S    -84.812400   -1.101750  -112.634000
  C    -85.544200   -2.331260  -113.562000
  C    -85.116500   -2.287030  -114.902000
  C    -84.218500   -1.173760  -115.168000
  C    -83.950000   -0.470538  -114.026000
  H    -85.537000   -2.825220  -115.751000
  C    -83.730100   -0.775404  -116.568000
  H    -82.824800   -0.114446  -116.603000
  H    -84.602600   -0.240846  -116.935000
  C    -83.312600   -1.853780  -117.558000
  H    -84.098100   -2.545880  -117.582000
  H    -82.401600   -2.420140  -117.230000
  C    -83.076700   -1.281870  -118.982000
  H    -83.199800   -2.072170  -119.679000
  H    -82.058700   -0.824287  -119.110000
  H    -83.785100   -0.456893  -119.127000
  H    -80.605000    3.090450  -113.852000
  H    -86.210200   -3.079590  -113.171000

 Total Charge           Charge          ....    0
 Multiplicity           Mult            ....    1
 Number of Electrons    NEL             ....  134
 Basis Dimension        Dim             ....  322

ORBITAL ENERGIES
----------------

  NO   OCC          E(Eh)            E(eV)
   0   2.0000     -88.969350     -2420.9791
   1   2.0000     -88.962702     -2420.7982
   2   2.0000     -10.322260      -280.8830
   3   2.0000     -10.317946      -280.7656
   4   2.0000     -10.317649      -280.7575
   5   2.0000     -10.317374      -280.7500
   6   2.0000     -10.303048      -280.3602
   7   2.0000     -10.303038      -280.3599
   8   2.0000     -10.298626      -280.2399
   9   2.0000     -10.296574      -280.1840
  10   2.0000     -10.295391      -280.1518
  11   2.0000     -10.293797      -280.1084
  12   2.0000     -10.287465      -279.9362
  13   2.0000     -10.287432      -279.9353
  14   2.0000     -10.284035      -279.8428
  15   2.0000     -10.280891      -279.7573
  16   2.0000      -8.083871      -219.9733
  17   2.0000      -8.078300      -219.8217
  18   2.0000      -6.042145      -164.4151
  19   2.0000      -6.038624      -164.3193
  20   2.0000      -6.036678      -164.2664
  21   2.0000      -6.034687      -164.2122
  22   2.0000      -6.032588      -164.1551
  23   2.0000      -6.029251      -164.0643
  24   2.0000      -1.005749       -27.3678
  25   2.0000      -0.983578       -26.7645
  26   2.0000      -0.912944       -24.8425
  27   2.0000      -0.909509       -24.7490
  28   2.0000      -0.861957       -23.4551
  29   2.0000      -0.849046       -23.1037
  30   2.0000      -0.846539       -23.0355
  31   2.0000      -0.804655       -21.8958
  32   2.0000      -0.784186       -21.3388
  33   2.0000      -0.772260       -21.0143
  34   2.0000      -0.702726       -19.1221
  35   2.0000      -0.699552       -19.0358
  36   2.0000      -0.687234       -18.7006
  37   2.0000      -0.656353       -17.8603
  38   2.0000      -0.640586       -17.4312
  39   2.0000      -0.609702       -16.5908
  40   2.0000      -0.601114       -16.3571
  41   2.0000      -0.577510       -15.7148
  42   2.0000      -0.566530       -15.4161
  43   2.0000      -0.548829       -14.9344
  44   2.0000      -0.535161       -14.5625
  45   2.0000      -0.527515       -14.3544
  46   2.0000      -0.513289       -13.9673
  47   2.0000      -0.511017       -13.9055
  48   2.0000      -0.502309       -13.6685
  49   2.0000      -0.489312       -13.3149
  50   2.0000      -0.486349       -13.2342
  51   2.0000      -0.474130       -12.9017
  52   2.0000      -0.468953       -12.7609
  53   2.0000      -0.464978       -12.6527
  54   2.0000      -0.458435       -12.4747
  55   2.0000      -0.454590       -12.3700
  56   2.0000      -0.443941       -12.0803
  57   2.0000      -0.439332       -11.9548
  58   2.0000      -0.432707       -11.7745
  59   2.0000      -0.423925       -11.5356
  60   2.0000      -0.421281       -11.4636
  61   2.0000      -0.416990       -11.3469
  62   2.0000      -0.410749       -11.1771
  63   2.0000      -0.337183        -9.1752
  64   2.0000      -0.327456        -8.9105
  65   2.0000      -0.318271        -8.6606
  66   2.0000      -0.307603        -8.3703
  67   0.0000       0.044074         1.1993
  68   0.0000       0.055700         1.5157
  69   0.0000       0.113495         3.0884
  70   0.0000       0.123348         3.3565
  71   0.0000       0.125337         3.4106

MULLIKEN ATOMIC CHARGES
-----------------------
   0 S :    0.133420
   1 C :   -0.169998
   2 C :   -0.040739
   3 C :    0.022720
   4 C :   -0.192102
   5 H :    0.025659
   6 C :    0.135678
   7 H :    0.016126
   8 H :    0.009106
   9 C :   -0.131370
  10 H :    0.044269
  11 H :    0.039338
  12 C :   -0.092957
  13 H :    0.038907
  14 H :    0.041314
  15 H :    0.054589
  16 S :    0.121379
  17 C :   -0.085726
  18 C :   -0.041528
  19 C :   -0.009386
  20 C :   -0.209682
  21 H :    0.024735
  22 C :    0.035579
  23 H :    0.048781
  24 H :    0.036125
  25 C :   -0.081990
  26 H :    0.005408
  27 H :    0.043740
  28 C :   -0.042842
  29 H :    0.033775
  30 H :    0.041769
  31 H :    0.026419
  32 H :    0.060503
  33 H :    0.058981
Sum of atomic charges:   -0.0000000

LOEWDIN ATOMIC CHARGES
----------------------
   0 S :    0.406902
   1 C :   -0.188673
   2 C :   -0.062939
   3 C :   -0.055313
   4 C :   -0.210230
   5 H :    0.037598
   6 C :   -0.027205
   7 H :    0.023099
   8 H :    0.029035
   9 C :   -0.041226
  10 H :    0.033468
  11 H :    0.023988
  12 C :   -0.078220
  13 H :    0.029429
  14 H :    0.028569
  15 H :    0.027613
  16 S :    0.424676
  17 C :   -0.195497
  18 C :   -0.079324
  19 C :   -0.051075
  20 C :   -0.211597
  21 H :    0.029466
  22 C :   -0.035454
  23 H :    0.038376
  24 H :    0.034350
  25 C :   -0.041135
  26 H :    0.007938
  27 H :    0.031731
  28 C :   -0.060928
  29 H :    0.022798
  30 H :    0.031292
  31 H :    0.024995
  32 H :    0.025121
  33 H :    0.028373

  Mayer bond orders larger than 0.100000
B(  0-S ,  1-C ) :   1.1522 B(  0-S ,  4-C ) :   1.1448 B(  1-C ,  2-C ) :   1.5996
B(  1-C , 32-H ) :   0.9606 B(  2-C ,  3-C ) :   1.2266 B(  2-C ,  6-C ) :   1.0208
B(  3-C ,  4-C ) :   1.6132 B(  3-C ,  5-H ) :   0.9855 B(  4-C , 20-C ) :   1.0080
B(  6-C ,  7-H ) :   0.9207 B(  6-C ,  8-H ) :   0.9447 B(  6-C ,  9-C ) :   1.0769
B(  9-C , 10-H ) :   0.9560 B(  9-C , 11-H ) :   0.9521 B(  9-C , 12-C ) :   1.0699
B( 12-C , 13-H ) :   0.9743 B( 12-C , 14-H ) :   0.9758 B( 12-C , 15-H ) :   0.9741
B( 16-S , 17-C ) :   1.1794 B( 16-S , 20-C ) :   1.1463 B( 17-C , 18-C ) :   1.5829
B( 17-C , 33-H ) :   0.9697 B( 18-C , 19-C ) :   1.2490 B( 18-C , 21-H ) :   0.9817
B( 19-C , 20-C ) :   1.6356 B( 19-C , 22-C ) :   1.0234 B( 22-C , 23-H ) :   0.9456
B( 22-C , 24-H ) :   0.9279 B( 22-C , 25-C ) :   1.0709 B( 25-C , 26-H ) :   0.9532
B( 25-C , 27-H ) :   0.9559 B( 25-C , 28-C ) :   1.0786 B( 28-C , 29-H ) :   0.9753
B( 28-C , 30-H ) :   0.9756 B( 28-C , 31-H ) :   0.9753

Dispersion correction           -0.014763799
FINAL SINGLE POINT ENERGY     -1339.874829728378

DIPOLE MOMENT
-------------
                                X             Y             Z
Electronic contribution:     -3.35666     -10.35067      27.40967
Nuclear contribution   :      3.20703      10.63476     -28.09560
                        -----------------------------------------
Total Dipole Moment    :     -0.14963       0.28410      -0.68593
                        -----------------------------------------
Magnitude (a.u.)       :      0.75736
Magnitude (Debye)      :      1.92507

Rotational constants in cm-1:     0.016961     0.009631     0.007099
Rotational constants in MHz :   508.479493   288.734090   212.826326

                             ****ORCA TERMINATED NORMALLY****
TOTAL RUN TIME: 0 days 0 hours 0 minutes 23 seconds 257 msec
