                         Program Version 4.2.1 -  RELEASE  -
|  1> ! wB97X-D3 SP def2-SVP
|  2> %pal
|  3> nprocs 24
|  4> end
|  5>
|  6> * xyz 0 1
|  7> S 	 -41.6062 	 0.301078 	 14.5837
|  8> C 	 -41.0592 	 0.249081 	 16.2561
|  9> C 	 -40.5538 	 -0.998517 	 16.5614
| 10> C 	 -40.9581 	 -2.00315 	 15.672
| 11> C 	 -41.6319 	 -1.51152 	 14.599
| 12> H 	 -40.7711 	 -3.12061 	 15.6992
| 13> C 	 -39.6736 	 -1.2784 	 17.8083
| 14> H 	 -39.839 	 -0.527002 	 18.5497
| 15> H 	 -38.6011 	 -1.16873 	 17.5669
| 16> C 	 -39.9041 	 -2.53254 	 18.5625
| 17> H 	 -41.0085 	 -2.81281 	 18.7082
| 18> H 	 -39.4706 	 -3.31749 	 17.9424
| 19> C 	 -39.238 	 -2.49487 	 19.9901
| 20> H 	 -38.1441 	 -2.33745 	 19.8908
| 21> H 	 -39.682 	 -1.72254 	 20.5992
| 22> H 	 -39.432 	 -3.41882 	 20.4714
| 23> S 	 -41.4536 	 -3.28656 	 12.4044
| 24> C 	 -43.0406 	 -3.82013 	 11.7912
| 25> C 	 -44.1308 	 -3.20568 	 12.3174
| 26> C 	 -43.7242 	 -2.42794 	 13.481
| 27> C 	 -42.3713 	 -2.29262 	 13.6255
| 28> H 	 -45.1333 	 -3.49 	 12.0131
| 29> C 	 -44.7088 	 -1.92935 	 14.4948
| 30> H 	 -44.0769 	 -1.50874 	 15.2815
| 31> H 	 -45.2556 	 -2.76305 	 14.9729
| 32> C 	 -45.6445 	 -0.775701 	 14.0983
| 33> H 	 -46.3331 	 -1.174 	 13.3149
| 34> H 	 -45.1176 	 0.0797103 	 13.7139
| 35> C 	 -46.5306 	 -0.159761 	 15.188
| 36> H 	 -47.09 	 0.706767 	 14.8382
| 37> H 	 -45.932 	 0.200158 	 16.022
| 38> H 	 -47.3152 	 -0.769407 	 15.6836
| 39> H 	 -40.8997 	 1.10775 	 16.9107
| 40> H 	 -43.1097 	 -4.49366 	 10.9667
| 41> *
| 42>
| 43>                          ****END OF INPUT****

CARTESIAN COORDINATES (ANGSTROEM)
---------------------------------
  S    -41.606200    0.301078   14.583700
  C    -41.059200    0.249081   16.256100
  C    -40.553800   -0.998517   16.561400
  C    -40.958100   -2.003150   15.672000
  C    -41.631900   -1.511520   14.599000
  H    -40.771100   -3.120610   15.699200
  C    -39.673600   -1.278400   17.808300
  H    -39.839000   -0.527002   18.549700
  H    -38.601100   -1.168730   17.566900
  C    -39.904100   -2.532540   18.562500
  H    -41.008500   -2.812810   18.708200
  H    -39.470600   -3.317490   17.942400
  C    -39.238000   -2.494870   19.990100
  H    -38.144100   -2.337450   19.890800
  H    -39.682000   -1.722540   20.599200
  H    -39.432000   -3.418820   20.471400
  S    -41.453600   -3.286560   12.404400
  C    -43.040600   -3.820130   11.791200
  C    -44.130800   -3.205680   12.317400
  C    -43.724200   -2.427940   13.481000
  C    -42.371300   -2.292620   13.625500
  H    -45.133300   -3.490000   12.013100
  C    -44.708800   -1.929350   14.494800
  H    -44.076900   -1.508740   15.281500
  H    -45.255600   -2.763050   14.972900
  C    -45.644500   -0.775701   14.098300
  H    -46.333100   -1.174000   13.314900
  H    -45.117600    0.079710   13.713900
  C    -46.530600   -0.159761   15.188000
  H    -47.090000    0.706767   14.838200
  H    -45.932000    0.200158   16.022000
  H    -47.315200   -0.769407   15.683600
  H    -40.899700    1.107750   16.910700
  H    -43.109700   -4.493660   10.966700

 Total Charge           Charge          ....    0
 Multiplicity           Mult            ....    1
 Number of Electrons    NEL             ....  134
 Basis Dimension        Dim             ....  322

ORBITAL ENERGIES
----------------

  NO   OCC          E(Eh)            E(eV)
   0   2.0000     -88.967260     -2420.9222
   1   2.0000     -88.963714     -2420.8257
   2   2.0000     -10.327812      -281.0341
   3   2.0000     -10.325094      -280.9601
   4   2.0000     -10.317726      -280.7596
   5   2.0000     -10.316400      -280.7235
   6   2.0000     -10.304079      -280.3882
   7   2.0000     -10.301803      -280.3263
   8   2.0000     -10.296817      -280.1906
   9   2.0000     -10.295151      -280.1453
  10   2.0000     -10.290037      -280.0062
  11   2.0000     -10.288976      -279.9773
  12   2.0000     -10.287105      -279.9263
  13   2.0000     -10.285207      -279.8747
  14   2.0000     -10.281113      -279.7633
  15   2.0000     -10.275181      -279.6019
  16   2.0000      -8.080770      -219.8889
  17   2.0000      -8.077276      -219.7939
  18   2.0000      -6.039299      -164.3377
  19   2.0000      -6.035847      -164.2437
  20   2.0000      -6.035793      -164.2423
  21   2.0000      -6.032254      -164.1460
  22   2.0000      -6.031226      -164.1180
  23   2.0000      -6.027746      -164.0233
  24   2.0000      -1.001872       -27.2623
  25   2.0000      -0.979235       -26.6463
  26   2.0000      -0.912072       -24.8187
  27   2.0000      -0.902294       -24.5527
  28   2.0000      -0.870096       -23.6765
  29   2.0000      -0.847561       -23.0633
  30   2.0000      -0.844689       -22.9852
  31   2.0000      -0.815909       -22.2020
  32   2.0000      -0.783079       -21.3087
  33   2.0000      -0.769151       -20.9297
  34   2.0000      -0.708490       -19.2790
  35   2.0000      -0.693847       -18.8805
  36   2.0000      -0.686861       -18.6904
  37   2.0000      -0.662499       -18.0275
  38   2.0000      -0.635556       -17.2944
  39   2.0000      -0.617170       -16.7940
  40   2.0000      -0.593929       -16.1616
  41   2.0000      -0.571492       -15.5511
  42   2.0000      -0.566245       -15.4083
  43   2.0000      -0.558087       -15.1863
  44   2.0000      -0.526012       -14.3135
  45   2.0000      -0.518649       -14.1132
  46   2.0000      -0.514677       -14.0051
  47   2.0000      -0.505152       -13.7459
  48   2.0000      -0.504149       -13.7186
  49   2.0000      -0.495349       -13.4791
  50   2.0000      -0.487523       -13.2662
  51   2.0000      -0.482719       -13.1354
  52   2.0000      -0.469143       -12.7660
  53   2.0000      -0.460143       -12.5211
  54   2.0000      -0.458177       -12.4676
  55   2.0000      -0.452123       -12.3029
  56   2.0000      -0.446079       -12.1384
  57   2.0000      -0.439355       -11.9554
  58   2.0000      -0.429552       -11.6887
  59   2.0000      -0.424724       -11.5573
  60   2.0000      -0.419136       -11.4053
  61   2.0000      -0.411710       -11.2032
  62   2.0000      -0.405730       -11.0405
  63   2.0000      -0.340763        -9.2726
  64   2.0000      -0.332802        -9.0560
  65   2.0000      -0.319250        -8.6872
  66   2.0000      -0.304561        -8.2875
  67   0.0000       0.029728         0.8090
  68   0.0000       0.059816         1.6277
  69   0.0000       0.095458         2.5976
  70   0.0000       0.114213         3.1079
  71   0.0000       0.122509         3.3337

MULLIKEN ATOMIC CHARGES
-----------------------
   0 S :    0.113287
   1 C :   -0.133558
   2 C :   -0.057922
   3 C :    0.020270
   4 C :   -0.189794
   5 H :    0.045967
   6 C :    0.087539
   7 H :   -0.003785
   8 H :    0.043761
   9 C :   -0.138140
  10 H :    0.046002
  11 H :    0.030764
  12 C :   -0.036965
  13 H :    0.038023
  14 H :    0.034335
  15 H :    0.029999
  16 S :    0.085871
  17 C :   -0.078524
  18 C :   -0.004533
  19 C :   -0.023250
  20 C :   -0.172588
  21 H :    0.026348
  22 C :    0.062897
  23 H :    0.023086
  24 H :    0.040694
  25 C :   -0.063192
  26 H :    0.027706
  27 H :    0.030796
  28 C :   -0.066532
  29 H :    0.031889
  30 H :    0.025069
  31 H :    0.026585
  32 H :    0.052300
  33 H :    0.045596
Sum of atomic charges:   -0.0000000

LOEWDIN ATOMIC CHARGES
----------------------
   0 S :    0.373382
   1 C :   -0.189408
   2 C :   -0.062953
   3 C :   -0.061498
   4 C :   -0.177307
   5 H :    0.049222
   6 C :   -0.036973
   7 H :    0.021897
   8 H :    0.037670
   9 C :   -0.050248
  10 H :    0.032617
  11 H :    0.019329
  12 C :   -0.058327
  13 H :    0.028937
  14 H :    0.023458
  15 H :    0.022378
  16 S :    0.347393
  17 C :   -0.153009
  18 C :   -0.067579
  19 C :   -0.042677
  20 C :   -0.183622
  21 H :    0.036017
  22 C :   -0.037009
  23 H :    0.030850
  24 H :    0.036728
  25 C :   -0.039759
  26 H :    0.023132
  27 H :    0.025999
  28 C :   -0.073785
  29 H :    0.027834
  30 H :    0.023093
  31 H :    0.023697
  32 H :    0.030476
  33 H :    0.020042

  Mayer bond orders larger than 0.100000
B(  0-S ,  1-C ) :   1.1315 B(  0-S ,  4-C ) :   1.1179 B(  1-C ,  2-C ) :   1.6308
B(  1-C , 32-H ) :   0.9661 B(  2-C ,  3-C ) :   1.2180 B(  2-C ,  6-C ) :   1.0120
B(  3-C ,  4-C ) :   1.6129 B(  3-C ,  5-H ) :   0.9810 B(  4-C , 20-C ) :   1.0401
B(  6-C ,  7-H ) :   0.9438 B(  6-C ,  8-H ) :   0.9301 B(  6-C ,  9-C ) :   1.0652
B(  9-C , 10-H ) :   0.9604 B(  9-C , 11-H ) :   0.9469 B(  9-C , 12-C ) :   1.0831
B( 12-C , 13-H ) :   0.9753 B( 12-C , 14-H ) :   0.9749 B( 12-C , 15-H ) :   0.9746
B( 16-S , 17-C ) :   1.1321 B( 16-S , 20-C ) :   1.0885 B( 17-C , 18-C ) :   1.6810
B( 17-C , 33-H ) :   0.9635 B( 18-C , 19-C ) :   1.1658 B( 18-C , 21-H ) :   0.9870
B( 19-C , 20-C ) :   1.6714 B( 19-C , 22-C ) :   1.0524 B( 22-C , 23-H ) :   0.9232
B( 22-C , 24-H ) :   0.9355 B( 22-C , 25-C ) :   1.0622 B( 25-C , 26-H ) :   0.9562
B( 25-C , 27-H ) :   0.9517 B( 25-C , 28-C ) :   1.0854 B( 28-C , 29-H ) :   0.9749
B( 28-C , 30-H ) :   0.9735 B( 28-C , 31-H ) :   0.9747

Dispersion correction           -0.014225066
FINAL SINGLE POINT ENERGY     -1339.870298019467

DIPOLE MOMENT
-------------
                                X             Y             Z
Electronic contribution:      7.48240      -0.45017     -22.62922
Nuclear contribution   :     -7.63903       0.27070      23.13457
                        -----------------------------------------
Total Dipole Moment    :     -0.15663      -0.17947       0.50535
                        -----------------------------------------
Magnitude (a.u.)       :      0.55867
Magnitude (Debye)      :      1.42004

Rotational constants in cm-1:     0.017351     0.008136     0.006806
Rotational constants in MHz :   520.183033   243.925453   204.038391

                             ****ORCA TERMINATED NORMALLY****
TOTAL RUN TIME: 0 days 0 hours 0 minutes 22 seconds 201 msec
