                         Program Version 4.2.1 -  RELEASE  -
|  1> ! wB97X-D3 SP def2-SVP
|  2> %pal
|  3> nprocs 24
|  4> end
|  5>
|  6> * xyz 0 1
|  7> S 	 43.7129 	 -16.0759 	 -103.151
|  8> C 	 42.426 	 -16.3803 	 -104.321
|  9> C 	 42.9288 	 -16.384 	 -105.587
| 10> C 	 44.3194 	 -15.9985 	 -105.674
| 11> C 	 44.8781 	 -16.084 	 -104.418
| 12> H 	 44.8617 	 -15.883 	 -106.6
| 13> C 	 41.9736 	 -16.2934 	 -106.793
| 14> H 	 42.4834 	 -15.8228 	 -107.652
| 15> H 	 41.1518 	 -15.7175 	 -106.543
| 16> C 	 41.4405 	 -17.6086 	 -107.379
| 17> H 	 42.2025 	 -18.1673 	 -107.829
| 18> H 	 41.0673 	 -18.2711 	 -106.62
| 19> C 	 40.3756 	 -17.458 	 -108.483
| 20> H 	 39.9592 	 -18.406 	 -108.758
| 21> H 	 39.5791 	 -16.7014 	 -108.222
| 22> H 	 40.8638 	 -17.0133 	 -109.358
| 23> S 	 46.6891 	 -14.3853 	 -103.114
| 24> C 	 48.2708 	 -14.3261 	 -103.698
| 25> C 	 48.6054 	 -15.3831 	 -104.485
| 26> C 	 47.4574 	 -16.209 	 -104.82
| 27> C 	 46.2882 	 -15.7505 	 -104.185
| 28> H 	 49.5507 	 -15.5901 	 -104.928
| 29> C 	 47.562 	 -17.3746 	 -105.841
| 30> H 	 47.9744 	 -16.9604 	 -106.794
| 31> H 	 46.5151 	 -17.6841 	 -106.021
| 32> C 	 48.4344 	 -18.4833 	 -105.324
| 33> H 	 49.3876 	 -18.135 	 -105.088
| 34> H 	 48.5891 	 -19.1659 	 -106.202
| 35> C 	 47.7833 	 -19.2235 	 -104.123
| 36> H 	 46.9563 	 -19.8017 	 -104.352
| 37> H 	 47.4551 	 -18.5372 	 -103.356
| 38> H 	 48.5463 	 -19.9002 	 -103.787
| 39> H 	 41.3912 	 -16.505 	 -103.985
| 40> H 	 48.9393 	 -13.5899 	 -103.306
| 41> *
| 42>
| 43>                          ****END OF INPUT****

CARTESIAN COORDINATES (ANGSTROEM)
---------------------------------
  S     43.712900  -16.075900  -103.151000
  C     42.426000  -16.380300  -104.321000
  C     42.928800  -16.384000  -105.587000
  C     44.319400  -15.998500  -105.674000
  C     44.878100  -16.084000  -104.418000
  H     44.861700  -15.883000  -106.600000
  C     41.973600  -16.293400  -106.793000
  H     42.483400  -15.822800  -107.652000
  H     41.151800  -15.717500  -106.543000
  C     41.440500  -17.608600  -107.379000
  H     42.202500  -18.167300  -107.829000
  H     41.067300  -18.271100  -106.620000
  C     40.375600  -17.458000  -108.483000
  H     39.959200  -18.406000  -108.758000
  H     39.579100  -16.701400  -108.222000
  H     40.863800  -17.013300  -109.358000
  S     46.689100  -14.385300  -103.114000
  C     48.270800  -14.326100  -103.698000
  C     48.605400  -15.383100  -104.485000
  C     47.457400  -16.209000  -104.820000
  C     46.288200  -15.750500  -104.185000
  H     49.550700  -15.590100  -104.928000
  C     47.562000  -17.374600  -105.841000
  H     47.974400  -16.960400  -106.794000
  H     46.515100  -17.684100  -106.021000
  C     48.434400  -18.483300  -105.324000
  H     49.387600  -18.135000  -105.088000
  H     48.589100  -19.165900  -106.202000
  C     47.783300  -19.223500  -104.123000
  H     46.956300  -19.801700  -104.352000
  H     47.455100  -18.537200  -103.356000
  H     48.546300  -19.900200  -103.787000
  H     41.391200  -16.505000  -103.985000
  H     48.939300  -13.589900  -103.306000

 Total Charge           Charge          ....    0
 Multiplicity           Mult            ....    1
 Number of Electrons    NEL             ....  134
 Basis Dimension        Dim             ....  322

ORBITAL ENERGIES
----------------

  NO   OCC          E(Eh)            E(eV)
   0   2.0000     -88.966332     -2420.8970
   1   2.0000     -88.961514     -2420.7659
   2   2.0000     -10.328776      -281.0603
   3   2.0000     -10.326422      -280.9962
   4   2.0000     -10.315189      -280.6906
   5   2.0000     -10.311415      -280.5879
   6   2.0000     -10.304894      -280.4104
   7   2.0000     -10.301821      -280.3268
   8   2.0000     -10.296148      -280.1724
   9   2.0000     -10.294177      -280.1188
  10   2.0000     -10.290302      -280.0133
  11   2.0000     -10.287750      -279.9439
  12   2.0000     -10.282798      -279.8092
  13   2.0000     -10.280352      -279.7426
  14   2.0000     -10.276616      -279.6409
  15   2.0000     -10.264126      -279.3011
  16   2.0000      -8.081655      -219.9130
  17   2.0000      -8.077464      -219.7990
  18   2.0000      -6.040171      -164.3614
  19   2.0000      -6.036176      -164.2527
  20   2.0000      -6.035907      -164.2454
  21   2.0000      -6.032298      -164.1472
  22   2.0000      -6.031849      -164.1350
  23   2.0000      -6.028173      -164.0349
  24   2.0000      -1.009050       -27.4576
  25   2.0000      -0.987029       -26.8584
  26   2.0000      -0.910579       -24.7781
  27   2.0000      -0.910242       -24.7690
  28   2.0000      -0.869373       -23.6568
  29   2.0000      -0.851573       -23.1725
  30   2.0000      -0.842002       -22.9120
  31   2.0000      -0.812161       -22.1000
  32   2.0000      -0.784406       -21.3448
  33   2.0000      -0.773107       -21.0373
  34   2.0000      -0.705848       -19.2071
  35   2.0000      -0.699988       -19.0476
  36   2.0000      -0.694548       -18.8996
  37   2.0000      -0.657729       -17.8977
  38   2.0000      -0.643060       -17.4986
  39   2.0000      -0.620244       -16.8777
  40   2.0000      -0.601466       -16.3667
  41   2.0000      -0.570223       -15.5166
  42   2.0000      -0.557487       -15.1700
  43   2.0000      -0.551778       -15.0146
  44   2.0000      -0.537222       -14.6185
  45   2.0000      -0.524492       -14.2722
  46   2.0000      -0.520444       -14.1620
  47   2.0000      -0.513258       -13.9665
  48   2.0000      -0.504404       -13.7255
  49   2.0000      -0.497432       -13.5358
  50   2.0000      -0.492437       -13.3999
  51   2.0000      -0.479087       -13.0366
  52   2.0000      -0.471611       -12.8332
  53   2.0000      -0.465684       -12.6719
  54   2.0000      -0.463197       -12.6042
  55   2.0000      -0.451428       -12.2840
  56   2.0000      -0.444699       -12.1009
  57   2.0000      -0.437109       -11.8943
  58   2.0000      -0.433035       -11.7835
  59   2.0000      -0.425140       -11.5687
  60   2.0000      -0.422009       -11.4834
  61   2.0000      -0.415549       -11.3077
  62   2.0000      -0.407958       -11.1011
  63   2.0000      -0.348607        -9.4861
  64   2.0000      -0.332594        -9.0503
  65   2.0000      -0.327988        -8.9250
  66   2.0000      -0.291911        -7.9433
  67   0.0000       0.031565         0.8589
  68   0.0000       0.071822         1.9544
  69   0.0000       0.104642         2.8474
  70   0.0000       0.120193         3.2706
  71   0.0000       0.128739         3.5032

MULLIKEN ATOMIC CHARGES
-----------------------
   0 S :    0.099518
   1 C :   -0.134963
   2 C :   -0.049714
   3 C :    0.023210
   4 C :   -0.141612
   5 H :    0.029823
   6 C :    0.061527
   7 H :    0.018925
   8 H :    0.011942
   9 C :   -0.057116
  10 H :    0.009990
  11 H :    0.016868
  12 C :   -0.055575
  13 H :    0.037167
  14 H :    0.032240
  15 H :    0.023450
  16 S :    0.103119
  17 C :   -0.076764
  18 C :   -0.005378
  19 C :   -0.096212
  20 C :   -0.150708
  21 H :    0.006035
  22 C :    0.059850
  23 H :    0.035962
  24 H :    0.027434
  25 C :   -0.058069
  26 H :    0.012214
  27 H :    0.030447
  28 C :   -0.016518
  29 H :    0.016423
  30 H :    0.043006
  31 H :    0.026719
  32 H :    0.063069
  33 H :    0.053690
Sum of atomic charges:    0.0000000

LOEWDIN ATOMIC CHARGES
----------------------
   0 S :    0.404490
   1 C :   -0.187927
   2 C :   -0.062028
   3 C :   -0.054304
   4 C :   -0.197875
   5 H :    0.034189
   6 C :   -0.021887
   7 H :    0.031777
   8 H :    0.018841
   9 C :   -0.040112
  10 H :    0.015982
  11 H :    0.017112
  12 C :   -0.064446
  13 H :    0.024413
  14 H :    0.027079
  15 H :    0.023322
  16 S :    0.409875
  17 C :   -0.191547
  18 C :   -0.073346
  19 C :   -0.051020
  20 C :   -0.198560
  21 H :    0.025015
  22 C :   -0.033283
  23 H :    0.033038
  24 H :    0.029878
  25 C :   -0.035626
  26 H :    0.012172
  27 H :    0.029723
  28 C :   -0.053548
  29 H :    0.016589
  30 H :    0.028925
  31 H :    0.026044
  32 H :    0.032099
  33 H :    0.024946

  Mayer bond orders larger than 0.100000
B(  0-S ,  1-C ) :   1.1240 B(  0-S ,  4-C ) :   1.1640 B(  1-C ,  2-C ) :   1.6164
B(  1-C , 32-H ) :   0.9712 B(  2-C ,  3-C ) :   1.2335 B(  2-C ,  6-C ) :   1.0206
B(  3-C ,  4-C ) :   1.5624 B(  3-C ,  5-H ) :   0.9887 B(  4-C , 20-C ) :   1.0329
B(  6-C ,  7-H ) :   0.9477 B(  6-C ,  8-H ) :   0.9508 B(  6-C ,  9-C ) :   1.0558
B(  9-C , 10-H ) :   0.9525 B(  9-C , 11-H ) :   0.9588 B(  9-C , 12-C ) :   1.0837
B( 12-C , 13-H ) :   0.9744 B( 12-C , 14-H ) :   0.9761 B( 12-C , 15-H ) :   0.9748
B( 16-S , 17-C ) :   1.1752 B( 16-S , 20-C ) :   1.1303 B( 17-C , 18-C ) :   1.5907
B( 17-C , 33-H ) :   0.9696 B( 18-C , 19-C ) :   1.2395 B( 18-C , 21-H ) :   0.9959
B( 19-C , 20-C ) :   1.6076 B( 19-C , 22-C ) :   1.0286 B( 22-C , 23-H ) :   0.9372
B( 22-C , 24-H ) :   0.9351 B( 22-C , 25-C ) :   1.0783 B( 25-C , 26-H ) :   0.9592
B( 25-C , 27-H ) :   0.9516 B( 25-C , 28-C ) :   1.0683 B( 28-C , 29-H ) :   0.9748
B( 28-C , 30-H ) :   0.9761 B( 28-C , 31-H ) :   0.9736

Dispersion correction           -0.014029849
FINAL SINGLE POINT ENERGY     -1339.876123432132

DIPOLE MOMENT
-------------
                                X             Y             Z
Electronic contribution:      5.35247      16.74230      20.31623
Nuclear contribution   :     -5.29113     -16.89155     -20.90106
                        -----------------------------------------
Total Dipole Moment    :      0.06134      -0.14925      -0.58484
                        -----------------------------------------
Magnitude (a.u.)       :      0.60669
Magnitude (Debye)      :      1.54208

Rotational constants in cm-1:     0.020410     0.007717     0.006532
Rotational constants in MHz :   611.877105   231.363303   195.832490

                             ****ORCA TERMINATED NORMALLY****
TOTAL RUN TIME: 0 days 0 hours 0 minutes 21 seconds 500 msec
