                         Program Version 4.2.1 -  RELEASE  -
|  1> ! wB97X-D3 SP def2-SVP
|  2> %pal
|  3> nprocs 24
|  4> end
|  5>
|  6> * xyz 0 1
|  7> S 	 26.127 	 -6.93633 	 -117.728
|  8> C 	 27.2111 	 -7.4547 	 -118.966
|  9> C 	 28.5296 	 -7.44554 	 -118.534
| 10> C 	 28.7077 	 -7.05401 	 -117.208
| 11> C 	 27.4791 	 -6.88154 	 -116.571
| 12> H 	 29.6346 	 -7.01191 	 -116.839
| 13> C 	 29.7521 	 -7.79707 	 -119.454
| 14> H 	 30.3725 	 -6.90819 	 -119.494
| 15> H 	 29.3078 	 -8.00387 	 -120.411
| 16> C 	 30.658 	 -9.00706 	 -119.09
| 17> H 	 31.4431 	 -9.14259 	 -119.819
| 18> H 	 31.0895 	 -8.72509 	 -118.119
| 19> C 	 29.9443 	 -10.3455 	 -118.784
| 20> H 	 29.7238 	 -10.8768 	 -119.691
| 21> H 	 30.6061 	 -11.0456 	 -118.241
| 22> H 	 29.0859 	 -10.1623 	 -118.253
| 23> S 	 26.8094 	 -4.993 	 -114.619
| 24> C 	 26.8787 	 -5.46144 	 -112.904
| 25> C 	 27.2746 	 -6.76653 	 -112.815
| 26> C 	 27.5417 	 -7.43693 	 -114.045
| 27> C 	 27.2718 	 -6.63264 	 -115.143
| 28> H 	 27.3204 	 -7.23867 	 -111.778
| 29> C 	 27.7876 	 -8.89355 	 -114.109
| 30> H 	 27.1848 	 -9.11962 	 -115.018
| 31> H 	 27.2523 	 -9.40555 	 -113.292
| 32> C 	 29.2266 	 -9.30963 	 -114.306
| 33> H 	 29.7278 	 -9.16636 	 -113.391
| 34> H 	 29.6082 	 -8.47468 	 -114.948
| 35> C 	 29.4555 	 -10.7781 	 -114.653
| 36> H 	 30.4991 	 -11.0716 	 -114.732
| 37> H 	 28.9703 	 -11.1183 	 -115.479
| 38> H 	 28.9619 	 -11.3312 	 -113.883
| 39> H 	 26.9878 	 -7.62841 	 -120.051
| 40> H 	 26.6432 	 -4.77268 	 -112.007
| 41> *
| 42>
| 43>                          ****END OF INPUT****

CARTESIAN COORDINATES (ANGSTROEM)
---------------------------------
  S     26.127000   -6.936330  -117.728000
  C     27.211100   -7.454700  -118.966000
  C     28.529600   -7.445540  -118.534000
  C     28.707700   -7.054010  -117.208000
  C     27.479100   -6.881540  -116.571000
  H     29.634600   -7.011910  -116.839000
  C     29.752100   -7.797070  -119.454000
  H     30.372500   -6.908190  -119.494000
  H     29.307800   -8.003870  -120.411000
  C     30.658000   -9.007060  -119.090000
  H     31.443100   -9.142590  -119.819000
  H     31.089500   -8.725090  -118.119000
  C     29.944300  -10.345500  -118.784000
  H     29.723800  -10.876800  -119.691000
  H     30.606100  -11.045600  -118.241000
  H     29.085900  -10.162300  -118.253000
  S     26.809400   -4.993000  -114.619000
  C     26.878700   -5.461440  -112.904000
  C     27.274600   -6.766530  -112.815000
  C     27.541700   -7.436930  -114.045000
  C     27.271800   -6.632640  -115.143000
  H     27.320400   -7.238670  -111.778000
  C     27.787600   -8.893550  -114.109000
  H     27.184800   -9.119620  -115.018000
  H     27.252300   -9.405550  -113.292000
  C     29.226600   -9.309630  -114.306000
  H     29.727800   -9.166360  -113.391000
  H     29.608200   -8.474680  -114.948000
  C     29.455500  -10.778100  -114.653000
  H     30.499100  -11.071600  -114.732000
  H     28.970300  -11.118300  -115.479000
  H     28.961900  -11.331200  -113.883000
  H     26.987800   -7.628410  -120.051000
  H     26.643200   -4.772680  -112.007000

 Total Charge           Charge          ....    0
 Multiplicity           Mult            ....    1
 Number of Electrons    NEL             ....  134
 Basis Dimension        Dim             ....  322

ORBITAL ENERGIES
----------------

  NO   OCC          E(Eh)            E(eV)
   0   2.0000     -88.973394     -2421.0891
   1   2.0000     -88.962552     -2420.7941
   2   2.0000     -10.335655      -281.2475
   3   2.0000     -10.327098      -281.0146
   4   2.0000     -10.324516      -280.9444
   5   2.0000     -10.317712      -280.7592
   6   2.0000     -10.300682      -280.2958
   7   2.0000     -10.298656      -280.2407
   8   2.0000     -10.295816      -280.1634
   9   2.0000     -10.294227      -280.1202
  10   2.0000     -10.289345      -279.9873
  11   2.0000     -10.288850      -279.9738
  12   2.0000     -10.286499      -279.9099
  13   2.0000     -10.281534      -279.7748
  14   2.0000     -10.269160      -279.4381
  15   2.0000     -10.268217      -279.4124
  16   2.0000      -8.087702      -220.0776
  17   2.0000      -8.076483      -219.7723
  18   2.0000      -6.046158      -164.5243
  19   2.0000      -6.042246      -164.4179
  20   2.0000      -6.038559      -164.3175
  21   2.0000      -6.035118      -164.2239
  22   2.0000      -6.031071      -164.1138
  23   2.0000      -6.027180      -164.0079
  24   2.0000      -1.005616       -27.3642
  25   2.0000      -0.983540       -26.7635
  26   2.0000      -0.913342       -24.8533
  27   2.0000      -0.905194       -24.6316
  28   2.0000      -0.866767       -23.5859
  29   2.0000      -0.854871       -23.2622
  30   2.0000      -0.851217       -23.1628
  31   2.0000      -0.813921       -22.1479
  32   2.0000      -0.784933       -21.3591
  33   2.0000      -0.772757       -21.0278
  34   2.0000      -0.712553       -19.3895
  35   2.0000      -0.700292       -19.0559
  36   2.0000      -0.691426       -18.8147
  37   2.0000      -0.657541       -17.8926
  38   2.0000      -0.641557       -17.4577
  39   2.0000      -0.623721       -16.9723
  40   2.0000      -0.589557       -16.0427
  41   2.0000      -0.565909       -15.3992
  42   2.0000      -0.561914       -15.2905
  43   2.0000      -0.553778       -15.0691
  44   2.0000      -0.546800       -14.8792
  45   2.0000      -0.529128       -14.3983
  46   2.0000      -0.515026       -14.0146
  47   2.0000      -0.507321       -13.8049
  48   2.0000      -0.506066       -13.7708
  49   2.0000      -0.498253       -13.5581
  50   2.0000      -0.491160       -13.3651
  51   2.0000      -0.482230       -13.1222
  52   2.0000      -0.471185       -12.8216
  53   2.0000      -0.465116       -12.6564
  54   2.0000      -0.462476       -12.5846
  55   2.0000      -0.452497       -12.3131
  56   2.0000      -0.444404       -12.0928
  57   2.0000      -0.440682       -11.9916
  58   2.0000      -0.432680       -11.7738
  59   2.0000      -0.422071       -11.4851
  60   2.0000      -0.420593       -11.4449
  61   2.0000      -0.410762       -11.1774
  62   2.0000      -0.409643       -11.1469
  63   2.0000      -0.343842        -9.3564
  64   2.0000      -0.331845        -9.0300
  65   2.0000      -0.324922        -8.8416
  66   2.0000      -0.302229        -8.2241
  67   0.0000       0.031288         0.8514
  68   0.0000       0.058003         1.5784
  69   0.0000       0.114955         3.1281
  70   0.0000       0.120827         3.2879
  71   0.0000       0.130749         3.5578

MULLIKEN ATOMIC CHARGES
-----------------------
   0 S :    0.134282
   1 C :   -0.126587
   2 C :   -0.143266
   3 C :    0.122299
   4 C :   -0.181565
   5 H :   -0.033936
   6 C :    0.088790
   7 H :    0.039643
   8 H :    0.004171
   9 C :   -0.085173
  10 H :    0.036327
  11 H :    0.020996
  12 C :   -0.028502
  13 H :    0.019983
  14 H :    0.032862
  15 H :    0.030701
  16 S :    0.093263
  17 C :   -0.129889
  18 C :   -0.054144
  19 C :   -0.021526
  20 C :   -0.166977
  21 H :    0.040606
  22 C :    0.031885
  23 H :    0.033872
  24 H :    0.024082
  25 C :   -0.044756
  26 H :    0.009473
  27 H :    0.017930
  28 C :    0.030421
  29 H :    0.037561
  30 H :    0.001158
  31 H :    0.011575
  32 H :    0.063751
  33 H :    0.090690
Sum of atomic charges:    0.0000000

LOEWDIN ATOMIC CHARGES
----------------------
   0 S :    0.418294
   1 C :   -0.216789
   2 C :   -0.067535
   3 C :   -0.034868
   4 C :   -0.185682
   5 H :    0.011250
   6 C :   -0.024752
   7 H :    0.033049
   8 H :    0.020783
   9 C :   -0.038521
  10 H :    0.024309
  11 H :    0.020916
  12 C :   -0.056741
  13 H :    0.020802
  14 H :    0.030263
  15 H :    0.013988
  16 S :    0.376688
  17 C :   -0.193258
  18 C :   -0.085446
  19 C :   -0.058110
  20 C :   -0.195816
  21 H :    0.042476
  22 C :   -0.037616
  23 H :    0.038650
  24 H :    0.029317
  25 C :   -0.039904
  26 H :    0.018552
  27 H :    0.026456
  28 C :   -0.052203
  29 H :    0.030202
  30 H :    0.010587
  31 H :    0.027656
  32 H :    0.040440
  33 H :    0.052564

  Mayer bond orders larger than 0.100000
B(  0-S ,  1-C ) :   1.1486 B(  0-S ,  4-C ) :   1.1617 B(  1-C ,  2-C ) :   1.6043
B(  1-C ,  4-C ) :   0.1026 B(  1-C , 32-H ) :   0.9532 B(  2-C ,  3-C ) :   1.2755
B(  2-C ,  6-C ) :   1.0107 B(  3-C ,  4-C ) :   1.5256 B(  3-C ,  5-H ) :   1.0141
B(  4-C , 20-C ) :   1.0201 B(  6-C ,  7-H ) :   0.9438 B(  6-C ,  8-H ) :   0.9404
B(  6-C ,  9-C ) :   1.0686 B(  9-C , 10-H ) :   0.9589 B(  9-C , 11-H ) :   0.9579
B(  9-C , 12-C ) :   1.0754 B( 12-C , 13-H ) :   0.9746 B( 12-C , 14-H ) :   0.9755
B( 12-C , 15-H ) :   0.9747 B( 16-S , 17-C ) :   1.1399 B( 16-S , 20-C ) :   1.1380
B( 17-C , 18-C ) :   1.6291 B( 17-C , 33-H ) :   0.9546 B( 18-C , 19-C ) :   1.2352
B( 18-C , 21-H ) :   0.9756 B( 19-C , 20-C ) :   1.6017 B( 19-C , 22-C ) :   1.0365
B( 22-C , 23-H ) :   0.9337 B( 22-C , 24-H ) :   0.9383 B( 22-C , 25-C ) :   1.0524
B( 25-C , 26-H ) :   0.9478 B( 25-C , 27-H ) :   0.9523 B( 25-C , 28-C ) :   1.0736
B( 28-C , 29-H ) :   0.9745 B( 28-C , 30-H ) :   0.9751 B( 28-C , 31-H ) :   0.9621

Dispersion correction           -0.015895415
FINAL SINGLE POINT ENERGY     -1339.862201032112

DIPOLE MOMENT
-------------
                                X             Y             Z
Electronic contribution:    -19.40370      24.00241       3.66545
Nuclear contribution   :     19.84708     -24.45679      -3.63939
                        -----------------------------------------
Total Dipole Moment    :      0.44339      -0.45438       0.02607
                        -----------------------------------------
Magnitude (a.u.)       :      0.63540
Magnitude (Debye)      :      1.61505

Rotational constants in cm-1:     0.018518     0.010166     0.007428
Rotational constants in MHz :   555.165599   304.783023   222.683980

                             ****ORCA TERMINATED NORMALLY****
TOTAL RUN TIME: 0 days 0 hours 0 minutes 23 seconds 31 msec
