                         Program Version 4.2.1 -  RELEASE  -
|  1> ! wB97X-D3 SP def2-SVP
|  2> %pal
|  3> nprocs 24
|  4> end
|  5>
|  6> * xyz 0 1
|  7> S 	 -60.7117 	 8.60423 	 -18.8913
|  8> C 	 -62.1293 	 8.59669 	 -17.93
|  9> C 	 -62.9998 	 7.62479 	 -18.3778
| 10> C 	 -62.3454 	 6.68316 	 -19.2286
| 11> C 	 -61.0508 	 7.04739 	 -19.5331
| 12> H 	 -62.7951 	 5.87948 	 -19.7598
| 13> C 	 -64.3927 	 7.31066 	 -17.805
| 14> H 	 -65.063 	 8.15381 	 -17.8249
| 15> H 	 -64.1907 	 7.17405 	 -16.7674
| 16> C 	 -65.1156 	 5.96162 	 -18.2252
| 17> H 	 -65.4132 	 5.97986 	 -19.2624
| 18> H 	 -64.3969 	 5.21834 	 -18.2827
| 19> C 	 -66.3395 	 5.60937 	 -17.2797
| 20> H 	 -66.669 	 4.57333 	 -17.6502
| 21> H 	 -66.0466 	 5.57413 	 -16.2037
| 22> H 	 -66.9941 	 6.4774 	 -17.3485
| 23> S 	 -59.3386 	 7.2997 	 -21.5434
| 24> C 	 -58.6465 	 5.90048 	 -22.3153
| 25> C 	 -59.0062 	 4.69893 	 -21.6914
| 26> C 	 -59.7735 	 5.00803 	 -20.503
| 27> C 	 -60.141 	 6.3475 	 -20.3404
| 28> H 	 -58.8419 	 3.75099 	 -22.2515
| 29> C 	 -60.2387 	 3.89723 	 -19.5786
| 30> H 	 -61.1277 	 4.1797 	 -18.9663
| 31> H 	 -59.472 	 4.10327 	 -18.7843
| 32> C 	 -60.2699 	 2.42091 	 -19.9642
| 33> H 	 -60.2729 	 1.74957 	 -19.098
| 34> H 	 -59.4168 	 2.16131 	 -20.5523
| 35> C 	 -61.4804 	 2.05889 	 -20.9037
| 36> H 	 -61.3514 	 1.24979 	 -21.6722
| 37> H 	 -61.7051 	 2.84161 	 -21.5624
| 38> H 	 -62.3348 	 1.72651 	 -20.2759
| 39> H 	 -62.3507 	 9.43948 	 -17.2843
| 40> H 	 -58.2733 	 5.93227 	 -23.3661
| 41> *
| 42>
| 43>                          ****END OF INPUT****

CARTESIAN COORDINATES (ANGSTROEM)
---------------------------------
  S    -60.711700    8.604230  -18.891300
  C    -62.129300    8.596690  -17.930000
  C    -62.999800    7.624790  -18.377800
  C    -62.345400    6.683160  -19.228600
  C    -61.050800    7.047390  -19.533100
  H    -62.795100    5.879480  -19.759800
  C    -64.392700    7.310660  -17.805000
  H    -65.063000    8.153810  -17.824900
  H    -64.190700    7.174050  -16.767400
  C    -65.115600    5.961620  -18.225200
  H    -65.413200    5.979860  -19.262400
  H    -64.396900    5.218340  -18.282700
  C    -66.339500    5.609370  -17.279700
  H    -66.669000    4.573330  -17.650200
  H    -66.046600    5.574130  -16.203700
  H    -66.994100    6.477400  -17.348500
  S    -59.338600    7.299700  -21.543400
  C    -58.646500    5.900480  -22.315300
  C    -59.006200    4.698930  -21.691400
  C    -59.773500    5.008030  -20.503000
  C    -60.141000    6.347500  -20.340400
  H    -58.841900    3.750990  -22.251500
  C    -60.238700    3.897230  -19.578600
  H    -61.127700    4.179700  -18.966300
  H    -59.472000    4.103270  -18.784300
  C    -60.269900    2.420910  -19.964200
  H    -60.272900    1.749570  -19.098000
  H    -59.416800    2.161310  -20.552300
  C    -61.480400    2.058890  -20.903700
  H    -61.351400    1.249790  -21.672200
  H    -61.705100    2.841610  -21.562400
  H    -62.334800    1.726510  -20.275900
  H    -62.350700    9.439480  -17.284300
  H    -58.273300    5.932270  -23.366100

 Total Charge           Charge          ....    0
 Multiplicity           Mult            ....    1
 Number of Electrons    NEL             ....  134
 Basis Dimension        Dim             ....  322

ORBITAL ENERGIES
----------------

  NO   OCC          E(Eh)            E(eV)
   0   2.0000     -88.963593     -2420.8224
   1   2.0000     -88.963461     -2420.8188
   2   2.0000     -10.322420      -280.8873
   3   2.0000     -10.320958      -280.8475
   4   2.0000     -10.320782      -280.8428
   5   2.0000     -10.312588      -280.6198
   6   2.0000     -10.309968      -280.5485
   7   2.0000     -10.303889      -280.3831
   8   2.0000     -10.303354      -280.3685
   9   2.0000     -10.295161      -280.1456
  10   2.0000     -10.294643      -280.1315
  11   2.0000     -10.292075      -280.0616
  12   2.0000     -10.291420      -280.0438
  13   2.0000     -10.287909      -279.9482
  14   2.0000     -10.287222      -279.9296
  15   2.0000     -10.279742      -279.7260
  16   2.0000      -8.079869      -219.8644
  17   2.0000      -8.078957      -219.8396
  18   2.0000      -6.038253      -164.3092
  19   2.0000      -6.037430      -164.2868
  20   2.0000      -6.034214      -164.1993
  21   2.0000      -6.033269      -164.1736
  22   2.0000      -6.030619      -164.1015
  23   2.0000      -6.029792      -164.0790
  24   2.0000      -1.016745       -27.6670
  25   2.0000      -0.987804       -26.8795
  26   2.0000      -0.907409       -24.6918
  27   2.0000      -0.903783       -24.5932
  28   2.0000      -0.876245       -23.8438
  29   2.0000      -0.850810       -23.1517
  30   2.0000      -0.842817       -22.9342
  31   2.0000      -0.815982       -22.2040
  32   2.0000      -0.780840       -21.2477
  33   2.0000      -0.769715       -20.9450
  34   2.0000      -0.720033       -19.5931
  35   2.0000      -0.705021       -19.1846
  36   2.0000      -0.693592       -18.8736
  37   2.0000      -0.659057       -17.9339
  38   2.0000      -0.642964       -17.4959
  39   2.0000      -0.622411       -16.9367
  40   2.0000      -0.594881       -16.1875
  41   2.0000      -0.566952       -15.4276
  42   2.0000      -0.559984       -15.2379
  43   2.0000      -0.549015       -14.9395
  44   2.0000      -0.541423       -14.7329
  45   2.0000      -0.530782       -14.4433
  46   2.0000      -0.516974       -14.0676
  47   2.0000      -0.508418       -13.8348
  48   2.0000      -0.503048       -13.6886
  49   2.0000      -0.498807       -13.5732
  50   2.0000      -0.491265       -13.3680
  51   2.0000      -0.483917       -13.1681
  52   2.0000      -0.471669       -12.8348
  53   2.0000      -0.468159       -12.7393
  54   2.0000      -0.457088       -12.4380
  55   2.0000      -0.450011       -12.2454
  56   2.0000      -0.445537       -12.1237
  57   2.0000      -0.434757       -11.8304
  58   2.0000      -0.434376       -11.8200
  59   2.0000      -0.428374       -11.6566
  60   2.0000      -0.419463       -11.4142
  61   2.0000      -0.413245       -11.2450
  62   2.0000      -0.412172       -11.2158
  63   2.0000      -0.354421        -9.6443
  64   2.0000      -0.331003        -9.0071
  65   2.0000      -0.323959        -8.8154
  66   2.0000      -0.280609        -7.6358
  67   0.0000       0.026072         0.7095
  68   0.0000       0.065887         1.7929
  69   0.0000       0.102344         2.7849
  70   0.0000       0.121823         3.3150
  71   0.0000       0.133715         3.6386

MULLIKEN ATOMIC CHARGES
-----------------------
   0 S :    0.119117
   1 C :   -0.134197
   2 C :   -0.050288
   3 C :   -0.011503
   4 C :   -0.134409
   5 H :    0.015512
   6 C :    0.037769
   7 H :    0.025901
   8 H :    0.028414
   9 C :   -0.068226
  10 H :    0.027281
  11 H :    0.009035
  12 C :   -0.066733
  13 H :    0.059828
  14 H :    0.041009
  15 H :    0.042654
  16 S :    0.097317
  17 C :   -0.108833
  18 C :   -0.070491
  19 C :   -0.039449
  20 C :   -0.134056
  21 H :    0.051129
  22 C :    0.005750
  23 H :    0.027350
  24 H :    0.048281
  25 C :   -0.018621
  26 H :    0.038066
  27 H :    0.019526
  28 C :   -0.081366
  29 H :    0.029762
  30 H :    0.024866
  31 H :    0.040496
  32 H :    0.052929
  33 H :    0.076178
Sum of atomic charges:   -0.0000000

LOEWDIN ATOMIC CHARGES
----------------------
   0 S :    0.432145
   1 C :   -0.211327
   2 C :   -0.056254
   3 C :   -0.066933
   4 C :   -0.204944
   5 H :    0.028217
   6 C :   -0.033234
   7 H :    0.025820
   8 H :    0.032807
   9 C :   -0.038071
  10 H :    0.021427
  11 H :    0.008870
  12 C :   -0.066576
  13 H :    0.041883
  14 H :    0.027775
  15 H :    0.027321
  16 S :    0.415363
  17 C :   -0.195876
  18 C :   -0.082915
  19 C :   -0.050409
  20 C :   -0.211996
  21 H :    0.044796
  22 C :   -0.051805
  23 H :    0.033537
  24 H :    0.050623
  25 C :   -0.037533
  26 H :    0.031980
  27 H :    0.019457
  28 C :   -0.074785
  29 H :    0.030024
  30 H :    0.016770
  31 H :    0.028550
  32 H :    0.027825
  33 H :    0.037467

  Mayer bond orders larger than 0.100000
B(  0-S ,  1-C ) :   1.1503 B(  0-S ,  4-C ) :   1.1649 B(  1-C ,  2-C ) :   1.5839
B(  1-C ,  4-C ) :   0.1054 B(  1-C , 32-H ) :   0.9757 B(  2-C ,  3-C ) :   1.2601
B(  2-C ,  6-C ) :   1.0043 B(  3-C ,  4-C ) :   1.5388 B(  3-C ,  5-H ) :   0.9953
B(  4-C , 20-C ) :   1.0745 B(  6-C ,  7-H ) :   0.9401 B(  6-C ,  8-H ) :   0.9449
B(  6-C ,  9-C ) :   1.0731 B(  9-C , 10-H ) :   0.9555 B(  9-C , 11-H ) :   0.9458
B(  9-C , 12-C ) :   1.0655 B( 12-C , 13-H ) :   0.9722 B( 12-C , 14-H ) :   0.9779
B( 12-C , 15-H ) :   0.9781 B( 16-S , 17-C ) :   1.1754 B( 16-S , 20-C ) :   1.1303
B( 17-C , 18-C ) :   1.6073 B( 17-C , 20-C ) :   0.1020 B( 17-C , 33-H ) :   0.9559
B( 18-C , 19-C ) :   1.2284 B( 18-C , 21-H ) :   0.9816 B( 19-C , 20-C ) :   1.5850
B( 19-C , 22-C ) :   1.0226 B( 22-C , 23-H ) :   0.9408 B( 22-C , 24-H ) :   0.9200
B( 22-C , 25-C ) :   1.0779 B( 25-C , 26-H ) :   0.9567 B( 25-C , 27-H ) :   0.9507
B( 25-C , 28-C ) :   1.0588 B( 28-C , 29-H ) :   0.9785 B( 28-C , 30-H ) :   0.9787
B( 28-C , 31-H ) :   0.9795

Dispersion correction           -0.013925672
FINAL SINGLE POINT ENERGY     -1339.845257571288

DIPOLE MOMENT
-------------
                                X             Y             Z
Electronic contribution:     20.73967      23.09322      -7.19220
Nuclear contribution   :    -21.23703     -23.62811       7.23593
                        -----------------------------------------
Total Dipole Moment    :     -0.49736      -0.53489       0.04373
                        -----------------------------------------
Magnitude (a.u.)       :      0.73170
Magnitude (Debye)      :      1.85983

Rotational constants in cm-1:     0.016424     0.009550     0.006498
Rotational constants in MHz :   492.379693   286.309954   194.802111

                             ****ORCA TERMINATED NORMALLY****
TOTAL RUN TIME: 0 days 0 hours 0 minutes 21 seconds 409 msec
