                         Program Version 4.2.1 -  RELEASE  -
|  1> ! wB97X-D3 SP def2-SVP
|  2> %pal
|  3> nprocs 24
|  4> end
|  5>
|  6> * xyz 0 1
|  7> S 	 -94.3469 	 12.5309 	 -115.987
|  8> C 	 -93.0895 	 13.4848 	 -115.276
|  9> C 	 -91.9751 	 13.5298 	 -116.143
| 10> C 	 -92.2032 	 12.8717 	 -117.403
| 11> C 	 -93.4722 	 12.259 	 -117.471
| 12> H 	 -91.4649 	 12.8626 	 -118.249
| 13> C 	 -90.6762 	 14.0619 	 -115.756
| 14> H 	 -90.8422 	 15.085 	 -115.521
| 15> H 	 -90.1498 	 14.0856 	 -116.742
| 16> C 	 -89.8007 	 13.1977 	 -114.823
| 17> H 	 -89.0167 	 13.7289 	 -114.226
| 18> H 	 -90.4493 	 12.7261 	 -114.029
| 19> C 	 -89.0873 	 12.0823 	 -115.632
| 20> H 	 -89.8949 	 11.4561 	 -115.887
| 21> H 	 -88.5054 	 12.4307 	 -116.5
| 22> H 	 -88.478 	 11.4167 	 -115.136
| 23> S 	 -94.4159 	 9.86358 	 -118.633
| 24> C 	 -94.9705 	 9.92934 	 -120.316
| 25> C 	 -94.7665 	 11.1623 	 -120.904
| 26> C 	 -94.3447 	 12.1214 	 -119.937
| 27> C 	 -94.1354 	 11.6107 	 -118.635
| 28> H 	 -94.9991 	 11.2723 	 -121.898
| 29> C 	 -94.1071 	 13.4314 	 -120.389
| 30> H 	 -93.129 	 13.5609 	 -120.856
| 31> H 	 -93.9107 	 14.149 	 -119.545
| 32> C 	 -95.1493 	 14.1367 	 -121.175
| 33> H 	 -96.0905 	 14.0509 	 -120.641
| 34> H 	 -95.327 	 13.6719 	 -122.144
| 35> C 	 -94.9989 	 15.6578 	 -121.568
| 36> H 	 -94.2386 	 15.903 	 -122.319
| 37> H 	 -94.7986 	 16.2806 	 -120.701
| 38> H 	 -95.9846 	 16.0495 	 -121.863
| 39> H 	 -93.0529 	 13.9427 	 -114.315
| 40> H 	 -95.198 	 9.03526 	 -120.92
| 41> *
| 42>
| 43>                          ****END OF INPUT****

CARTESIAN COORDINATES (ANGSTROEM)
---------------------------------
  S    -94.346900   12.530900  -115.987000
  C    -93.089500   13.484800  -115.276000
  C    -91.975100   13.529800  -116.143000
  C    -92.203200   12.871700  -117.403000
  C    -93.472200   12.259000  -117.471000
  H    -91.464900   12.862600  -118.249000
  C    -90.676200   14.061900  -115.756000
  H    -90.842200   15.085000  -115.521000
  H    -90.149800   14.085600  -116.742000
  C    -89.800700   13.197700  -114.823000
  H    -89.016700   13.728900  -114.226000
  H    -90.449300   12.726100  -114.029000
  C    -89.087300   12.082300  -115.632000
  H    -89.894900   11.456100  -115.887000
  H    -88.505400   12.430700  -116.500000
  H    -88.478000   11.416700  -115.136000
  S    -94.415900    9.863580  -118.633000
  C    -94.970500    9.929340  -120.316000
  C    -94.766500   11.162300  -120.904000
  C    -94.344700   12.121400  -119.937000
  C    -94.135400   11.610700  -118.635000
  H    -94.999100   11.272300  -121.898000
  C    -94.107100   13.431400  -120.389000
  H    -93.129000   13.560900  -120.856000
  H    -93.910700   14.149000  -119.545000
  C    -95.149300   14.136700  -121.175000
  H    -96.090500   14.050900  -120.641000
  H    -95.327000   13.671900  -122.144000
  C    -94.998900   15.657800  -121.568000
  H    -94.238600   15.903000  -122.319000
  H    -94.798600   16.280600  -120.701000
  H    -95.984600   16.049500  -121.863000
  H    -93.052900   13.942700  -114.315000
  H    -95.198000    9.035260  -120.920000

 Total Charge           Charge          ....    0
 Multiplicity           Mult            ....    1
 Number of Electrons    NEL             ....  134
 Basis Dimension        Dim             ....  322

ORBITAL ENERGIES
----------------

  NO   OCC          E(Eh)            E(eV)
   0   2.0000     -88.969495     -2420.9830
   1   2.0000     -88.967098     -2420.9178
   2   2.0000     -10.334462      -281.2150
   3   2.0000     -10.331742      -281.1410
   4   2.0000     -10.321249      -280.8555
   5   2.0000     -10.313891      -280.6552
   6   2.0000     -10.303875      -280.3827
   7   2.0000     -10.301680      -280.3230
   8   2.0000     -10.299487      -280.2633
   9   2.0000     -10.296645      -280.1860
  10   2.0000     -10.288656      -279.9686
  11   2.0000     -10.287435      -279.9354
  12   2.0000     -10.283880      -279.8386
  13   2.0000     -10.281681      -279.7788
  14   2.0000     -10.279934      -279.7312
  15   2.0000     -10.267453      -279.3916
  16   2.0000      -8.084097      -219.9794
  17   2.0000      -8.081077      -219.8973
  18   2.0000      -6.042529      -164.4256
  19   2.0000      -6.039611      -164.3462
  20   2.0000      -6.038354      -164.3120
  21   2.0000      -6.035734      -164.2407
  22   2.0000      -6.035215      -164.2266
  23   2.0000      -6.031821      -164.1342
  24   2.0000      -1.002548       -27.2807
  25   2.0000      -0.983989       -26.7757
  26   2.0000      -0.917402       -24.9638
  27   2.0000      -0.914221       -24.8772
  28   2.0000      -0.865304       -23.5461
  29   2.0000      -0.849815       -23.1246
  30   2.0000      -0.847837       -23.0708
  31   2.0000      -0.817122       -22.2350
  32   2.0000      -0.783692       -21.3253
  33   2.0000      -0.769263       -20.9327
  34   2.0000      -0.707962       -19.2646
  35   2.0000      -0.706647       -19.2289
  36   2.0000      -0.695516       -18.9260
  37   2.0000      -0.658888       -17.9293
  38   2.0000      -0.637887       -17.3578
  39   2.0000      -0.619294       -16.8518
  40   2.0000      -0.602078       -16.3834
  41   2.0000      -0.575166       -15.6511
  42   2.0000      -0.564549       -15.3622
  43   2.0000      -0.560157       -15.2427
  44   2.0000      -0.545614       -14.8469
  45   2.0000      -0.522327       -14.2132
  46   2.0000      -0.518471       -14.1083
  47   2.0000      -0.507306       -13.8045
  48   2.0000      -0.501933       -13.6583
  49   2.0000      -0.499948       -13.6043
  50   2.0000      -0.490493       -13.3470
  51   2.0000      -0.472625       -12.8608
  52   2.0000      -0.468160       -12.7393
  53   2.0000      -0.463566       -12.6143
  54   2.0000      -0.458131       -12.4664
  55   2.0000      -0.450107       -12.2480
  56   2.0000      -0.449250       -12.2247
  57   2.0000      -0.439369       -11.9558
  58   2.0000      -0.433782       -11.8038
  59   2.0000      -0.425290       -11.5727
  60   2.0000      -0.413802       -11.2601
  61   2.0000      -0.412765       -11.2319
  62   2.0000      -0.402548       -10.9539
  63   2.0000      -0.340941        -9.2775
  64   2.0000      -0.330638        -8.9971
  65   2.0000      -0.324302        -8.8247
  66   2.0000      -0.297687        -8.1005
  67   0.0000       0.032145         0.8747
  68   0.0000       0.056915         1.5487
  69   0.0000       0.112843         3.0706
  70   0.0000       0.121811         3.3147
  71   0.0000       0.124859         3.3976

MULLIKEN ATOMIC CHARGES
-----------------------
   0 S :    0.130814
   1 C :   -0.089957
   2 C :   -0.166200
   3 C :    0.045853
   4 C :   -0.182936
   5 H :    0.035457
   6 C :    0.081218
   7 H :    0.030226
   8 H :    0.012638
   9 C :   -0.068727
  10 H :    0.036099
  11 H :    0.034287
  12 C :   -0.034772
  13 H :    0.026037
  14 H :    0.036829
  15 H :    0.010928
  16 S :    0.101852
  17 C :   -0.100398
  18 C :   -0.006868
  19 C :   -0.001062
  20 C :   -0.133179
  21 H :   -0.003866
  22 C :    0.065322
  23 H :    0.027589
  24 H :    0.017093
  25 C :   -0.102947
  26 H :    0.029973
  27 H :    0.023715
  28 C :   -0.054814
  29 H :    0.040836
  30 H :    0.020841
  31 H :    0.033035
  32 H :    0.038332
  33 H :    0.066751
Sum of atomic charges:   -0.0000000

LOEWDIN ATOMIC CHARGES
----------------------
   0 S :    0.434234
   1 C :   -0.204011
   2 C :   -0.069839
   3 C :   -0.064338
   4 C :   -0.206655
   5 H :    0.040956
   6 C :   -0.041321
   7 H :    0.031004
   8 H :    0.035109
   9 C :   -0.037805
  10 H :    0.025076
  11 H :    0.028071
  12 C :   -0.064264
  13 H :    0.025692
  14 H :    0.028094
  15 H :    0.015205
  16 S :    0.392799
  17 C :   -0.172611
  18 C :   -0.056277
  19 C :   -0.050025
  20 C :   -0.204275
  21 H :    0.021249
  22 C :   -0.056271
  23 H :    0.035884
  24 H :    0.038345
  25 C :   -0.040484
  26 H :    0.027576
  27 H :    0.018210
  28 C :   -0.067147
  29 H :    0.025003
  30 H :    0.021004
  31 H :    0.031678
  32 H :    0.026048
  33 H :    0.034088

  Mayer bond orders larger than 0.100000
B(  0-S ,  1-C ) :   1.1584 B(  0-S ,  4-C ) :   1.1838 B(  1-C ,  2-C ) :   1.5610
B(  1-C ,  4-C ) :   0.1064 B(  1-C , 32-H ) :   0.9736 B(  2-C ,  3-C ) :   1.2802
B(  2-C ,  6-C ) :   1.0350 B(  3-C ,  4-C ) :   1.5315 B(  3-C ,  5-H ) :   0.9836
B(  4-C , 20-C ) :   1.0024 B(  6-C ,  7-H ) :   0.9306 B(  6-C ,  8-H ) :   0.9406
B(  6-C ,  9-C ) :   1.0380 B(  9-C , 10-H ) :   0.9610 B(  9-C , 11-H ) :   0.9622
B(  9-C , 12-C ) :   1.0669 B( 12-C , 13-H ) :   0.9760 B( 12-C , 14-H ) :   0.9760
B( 12-C , 15-H ) :   0.9717 B( 16-S , 17-C ) :   1.1616 B( 16-S , 20-C ) :   1.1325
B( 17-C , 18-C ) :   1.6117 B( 17-C , 33-H ) :   0.9596 B( 18-C , 19-C ) :   1.2233
B( 18-C , 21-H ) :   1.0061 B( 19-C , 20-C ) :   1.5702 B( 19-C , 22-C ) :   1.0996
B( 22-C , 23-H ) :   0.9096 B( 22-C , 24-H ) :   0.9133 B( 22-C , 25-C ) :   1.0608
B( 25-C , 26-H ) :   0.9566 B( 25-C , 27-H ) :   0.9488 B( 25-C , 28-C ) :   1.0868
B( 28-C , 29-H ) :   0.9769 B( 28-C , 30-H ) :   0.9728 B( 28-C , 31-H ) :   0.9741

Dispersion correction           -0.014222370
FINAL SINGLE POINT ENERGY     -1339.855735769921

DIPOLE MOMENT
-------------
                                X             Y             Z
Electronic contribution:    -13.62332     -16.22399       6.44930
Nuclear contribution   :     14.03194      16.57012      -6.76750
                        -----------------------------------------
Total Dipole Moment    :      0.40862       0.34613      -0.31820
                        -----------------------------------------
Magnitude (a.u.)       :      0.62292
Magnitude (Debye)      :      1.58334

Rotational constants in cm-1:     0.018380     0.008022     0.006832
Rotational constants in MHz :   551.013799   240.506351   204.807862

                             ****ORCA TERMINATED NORMALLY****
TOTAL RUN TIME: 0 days 0 hours 0 minutes 21 seconds 303 msec
