                         Program Version 4.2.1 -  RELEASE  -
|  1> ! wB97X-D3 SP def2-SVP
|  2> %pal
|  3> nprocs 24
|  4> end
|  5>
|  6> * xyz 0 1
|  7> S 	 -102.893 	 11.5469 	 -7.3352
|  8> C 	 -102.903 	 13.286 	 -7.22316
|  9> C 	 -104.214 	 13.8218 	 -6.99469
| 10> C 	 -105.152 	 12.7694 	 -6.89914
| 11> C 	 -104.677 	 11.4956 	 -7.11492
| 12> H 	 -106.239 	 12.954 	 -6.66138
| 13> C 	 -104.562 	 15.2935 	 -6.64906
| 14> H 	 -105.598 	 15.3982 	 -6.31212
| 15> H 	 -104.438 	 15.9091 	 -7.5239
| 16> C 	 -103.557 	 15.9468 	 -5.67631
| 17> H 	 -102.575 	 15.5763 	 -5.98247
| 18> H 	 -103.653 	 17.0456 	 -5.76682
| 19> C 	 -103.716 	 15.4653 	 -4.18284
| 20> H 	 -103.465 	 14.4224 	 -4.011
| 21> H 	 -103.053 	 16.0882 	 -3.60306
| 22> H 	 -104.694 	 15.6217 	 -3.70421
| 23> S 	 -105.477 	 9.3659 	 -8.55907
| 24> C 	 -106.767 	 8.42844 	 -7.90699
| 25> C 	 -107.248 	 8.78036 	 -6.63064
| 26> C 	 -106.386 	 9.85283 	 -6.13658
| 27> C 	 -105.421 	 10.286 	 -7.04465
| 28> H 	 -108.181 	 8.4675 	 -6.17492
| 29> C 	 -106.589 	 10.5518 	 -4.74898
| 30> H 	 -107.557 	 10.0947 	 -4.48404
| 31> H 	 -106.806 	 11.6626 	 -4.73587
| 32> C 	 -105.484 	 10.1814 	 -3.74441
| 33> H 	 -104.571 	 10.5488 	 -4.10039
| 34> H 	 -105.465 	 9.12485 	 -3.6211
| 35> C 	 -105.59 	 10.8428 	 -2.34043
| 36> H 	 -106.572 	 10.6418 	 -1.95855
| 37> H 	 -105.536 	 11.9786 	 -2.3478
| 38> H 	 -104.84 	 10.5825 	 -1.61745
| 39> H 	 -102.056 	 13.8917 	 -7.23791
| 40> H 	 -107.278 	 7.712 	 -8.53296
| 41> *
| 42>
| 43>                          ****END OF INPUT****

CARTESIAN COORDINATES (ANGSTROEM)
---------------------------------
  S    -102.893000   11.546900   -7.335200
  C    -102.903000   13.286000   -7.223160
  C    -104.214000   13.821800   -6.994690
  C    -105.152000   12.769400   -6.899140
  C    -104.677000   11.495600   -7.114920
  H    -106.239000   12.954000   -6.661380
  C    -104.562000   15.293500   -6.649060
  H    -105.598000   15.398200   -6.312120
  H    -104.438000   15.909100   -7.523900
  C    -103.557000   15.946800   -5.676310
  H    -102.575000   15.576300   -5.982470
  H    -103.653000   17.045600   -5.766820
  C    -103.716000   15.465300   -4.182840
  H    -103.465000   14.422400   -4.011000
  H    -103.053000   16.088200   -3.603060
  H    -104.694000   15.621700   -3.704210
  S    -105.477000    9.365900   -8.559070
  C    -106.767000    8.428440   -7.906990
  C    -107.248000    8.780360   -6.630640
  C    -106.386000    9.852830   -6.136580
  C    -105.421000   10.286000   -7.044650
  H    -108.181000    8.467500   -6.174920
  C    -106.589000   10.551800   -4.748980
  H    -107.557000   10.094700   -4.484040
  H    -106.806000   11.662600   -4.735870
  C    -105.484000   10.181400   -3.744410
  H    -104.571000   10.548800   -4.100390
  H    -105.465000    9.124850   -3.621100
  C    -105.590000   10.842800   -2.340430
  H    -106.572000   10.641800   -1.958550
  H    -105.536000   11.978600   -2.347800
  H    -104.840000   10.582500   -1.617450
  H    -102.056000   13.891700   -7.237910
  H    -107.278000    7.712000   -8.532960

 Total Charge           Charge          ....    0
 Multiplicity           Mult            ....    1
 Number of Electrons    NEL             ....  134
 Basis Dimension        Dim             ....  322

ORBITAL ENERGIES
----------------

  NO   OCC          E(Eh)            E(eV)
   0   2.0000     -88.970185     -2421.0018
   1   2.0000     -88.968298     -2420.9505
   2   2.0000     -10.327297      -281.0200
   3   2.0000     -10.322525      -280.8902
   4   2.0000     -10.321153      -280.8528
   5   2.0000     -10.315737      -280.7055
   6   2.0000     -10.311490      -280.5899
   7   2.0000     -10.306343      -280.4498
   8   2.0000     -10.304631      -280.4033
   9   2.0000     -10.299637      -280.2674
  10   2.0000     -10.295959      -280.1673
  11   2.0000     -10.295269      -280.1485
  12   2.0000     -10.294767      -280.1348
  13   2.0000     -10.277857      -279.6747
  14   2.0000     -10.276655      -279.6420
  15   2.0000     -10.276042      -279.6253
  16   2.0000      -8.083904      -219.9742
  17   2.0000      -8.083396      -219.9604
  18   2.0000      -6.042372      -164.4213
  19   2.0000      -6.041707      -164.4032
  20   2.0000      -6.038577      -164.3180
  21   2.0000      -6.037912      -164.2999
  22   2.0000      -6.034766      -164.2143
  23   2.0000      -6.034261      -164.2006
  24   2.0000      -1.002900       -27.2903
  25   2.0000      -0.977704       -26.6047
  26   2.0000      -0.906129       -24.6570
  27   2.0000      -0.902160       -24.5490
  28   2.0000      -0.866842       -23.5880
  29   2.0000      -0.850425       -23.1412
  30   2.0000      -0.843717       -22.9587
  31   2.0000      -0.806899       -21.9568
  32   2.0000      -0.783474       -21.3194
  33   2.0000      -0.768567       -20.9138
  34   2.0000      -0.708054       -19.2671
  35   2.0000      -0.701137       -19.0789
  36   2.0000      -0.687756       -18.7148
  37   2.0000      -0.667536       -18.1646
  38   2.0000      -0.638406       -17.3719
  39   2.0000      -0.612275       -16.6609
  40   2.0000      -0.592244       -16.1158
  41   2.0000      -0.574801       -15.6411
  42   2.0000      -0.564524       -15.3615
  43   2.0000      -0.543602       -14.7922
  44   2.0000      -0.538900       -14.6642
  45   2.0000      -0.521369       -14.1872
  46   2.0000      -0.511529       -13.9194
  47   2.0000      -0.506969       -13.7953
  48   2.0000      -0.501371       -13.6430
  49   2.0000      -0.496161       -13.5012
  50   2.0000      -0.488567       -13.2946
  51   2.0000      -0.474318       -12.9069
  52   2.0000      -0.472824       -12.8662
  53   2.0000      -0.464786       -12.6475
  54   2.0000      -0.457899       -12.4601
  55   2.0000      -0.447896       -12.1879
  56   2.0000      -0.439574       -11.9614
  57   2.0000      -0.436061       -11.8658
  58   2.0000      -0.429847       -11.6967
  59   2.0000      -0.427619       -11.6361
  60   2.0000      -0.425772       -11.5858
  61   2.0000      -0.422975       -11.5097
  62   2.0000      -0.407316       -11.0836
  63   2.0000      -0.344416        -9.3720
  64   2.0000      -0.334321        -9.0973
  65   2.0000      -0.328787        -8.9468
  66   2.0000      -0.288310        -7.8453
  67   0.0000       0.028526         0.7762
  68   0.0000       0.056247         1.5306
  69   0.0000       0.105757         2.8778
  70   0.0000       0.110664         3.0113
  71   0.0000       0.128653         3.5008

MULLIKEN ATOMIC CHARGES
-----------------------
   0 S :    0.119596
   1 C :   -0.110963
   2 C :   -0.097940
   3 C :    0.008421
   4 C :   -0.158983
   5 H :    0.034132
   6 C :    0.096472
   7 H :    0.023958
   8 H :    0.030973
   9 C :   -0.099523
  10 H :    0.026802
  11 H :    0.041326
  12 C :   -0.056881
  13 H :    0.043339
  14 H :    0.026035
  15 H :    0.025461
  16 S :    0.118335
  17 C :   -0.086007
  18 C :   -0.030757
  19 C :   -0.069829
  20 C :   -0.142410
  21 H :    0.033158
  22 C :    0.040102
  23 H :    0.004939
  24 H :    0.039981
  25 C :   -0.013428
  26 H :    0.024540
  27 H :    0.027135
  28 C :   -0.066878
  29 H :    0.016994
  30 H :    0.027692
  31 H :    0.037289
  32 H :    0.030939
  33 H :    0.055976
Sum of atomic charges:   -0.0000000

LOEWDIN ATOMIC CHARGES
----------------------
   0 S :    0.398007
   1 C :   -0.195216
   2 C :   -0.060122
   3 C :   -0.063046
   4 C :   -0.195364
   5 H :    0.040618
   6 C :   -0.029926
   7 H :    0.028073
   8 H :    0.032680
   9 C :   -0.034457
  10 H :    0.023972
  11 H :    0.027782
  12 C :   -0.070365
  13 H :    0.026907
  14 H :    0.023353
  15 H :    0.022696
  16 S :    0.418033
  17 C :   -0.182965
  18 C :   -0.073095
  19 C :   -0.044285
  20 C :   -0.202713
  21 H :    0.036421
  22 C :   -0.033013
  23 H :    0.024847
  24 H :    0.033440
  25 C :   -0.029045
  26 H :    0.018760
  27 H :    0.023784
  28 C :   -0.069509
  29 H :    0.016756
  30 H :    0.028518
  31 H :    0.024618
  32 H :    0.011018
  33 H :    0.022837

  Mayer bond orders larger than 0.100000
B(  0-S ,  1-C ) :   1.1591 B(  0-S ,  4-C ) :   1.1311 B(  1-C ,  2-C ) :   1.5689
B(  1-C ,  4-C ) :   0.1127 B(  1-C , 32-H ) :   0.9716 B(  2-C ,  3-C ) :   1.2814
B(  2-C ,  6-C ) :   1.0140 B(  3-C ,  4-C ) :   1.5735 B(  3-C ,  5-H ) :   0.9799
B(  4-C , 20-C ) :   1.0499 B(  6-C ,  7-H ) :   0.9520 B(  6-C ,  8-H ) :   0.9310
B(  6-C ,  9-C ) :   1.0710 B(  9-C , 10-H ) :   0.9560 B(  9-C , 11-H ) :   0.9583
B(  9-C , 12-C ) :   1.0684 B( 12-C , 13-H ) :   0.9774 B( 12-C , 14-H ) :   0.9757
B( 12-C , 15-H ) :   0.9780 B( 16-S , 17-C ) :   1.1859 B( 16-S , 20-C ) :   1.1297
B( 17-C , 18-C ) :   1.5939 B( 17-C , 33-H ) :   0.9639 B( 18-C , 19-C ) :   1.2443
B( 18-C , 21-H ) :   0.9877 B( 19-C , 20-C ) :   1.6090 B( 19-C , 22-C ) :   1.0222
B( 22-C , 23-H ) :   0.9302 B( 22-C , 24-H ) :   0.9453 B( 22-C , 25-C ) :   1.0621
B( 25-C , 26-H ) :   0.9604 B( 25-C , 27-H ) :   0.9528 B( 25-C , 28-C ) :   1.0793
B( 28-C , 29-H ) :   0.9764 B( 28-C , 30-H ) :   0.9741 B( 28-C , 31-H ) :   0.9762

Dispersion correction           -0.014843585
FINAL SINGLE POINT ENERGY     -1339.869688263286

DIPOLE MOMENT
-------------
                                X             Y             Z
Electronic contribution:      3.56929     -17.31796     -24.65690
Nuclear contribution   :     -3.97316      17.74853      25.01386
                        -----------------------------------------
Total Dipole Moment    :     -0.40387       0.43056       0.35696
                        -----------------------------------------
Magnitude (a.u.)       :      0.68987
Magnitude (Debye)      :      1.75350

Rotational constants in cm-1:     0.018576     0.009402     0.007217
Rotational constants in MHz :   556.883161   281.865077   216.345358

                             ****ORCA TERMINATED NORMALLY****
TOTAL RUN TIME: 0 days 0 hours 0 minutes 20 seconds 972 msec
