                         Program Version 4.2.1 -  RELEASE  -
|  1> ! wB97X-D3 SP def2-SVP
|  2> %pal
|  3> nprocs 24
|  4> end
|  5>
|  6> * xyz 0 1
|  7> S 	 -100.966 	 23.7386 	 -118.108
|  8> C 	 -102.4 	 22.6489 	 -118.228
|  9> C 	 -103.078 	 22.8192 	 -119.402
| 10> C 	 -102.381 	 23.7643 	 -120.227
| 11> C 	 -101.337 	 24.4086 	 -119.652
| 12> H 	 -102.683 	 23.9788 	 -121.211
| 13> C 	 -104.289 	 22.0178 	 -119.857
| 14> H 	 -104.635 	 21.5561 	 -118.964
| 15> H 	 -103.935 	 21.1839 	 -120.544
| 16> C 	 -105.496 	 22.8954 	 -120.464
| 17> H 	 -105.832 	 23.6946 	 -119.748
| 18> H 	 -105.242 	 23.4735 	 -121.335
| 19> C 	 -106.725 	 22.0489 	 -120.838
| 20> H 	 -106.437 	 21.1166 	 -121.209
| 21> H 	 -107.474 	 21.7574 	 -120.095
| 22> H 	 -107.205 	 22.5198 	 -121.697
| 23> S 	 -99.5981 	 26.4014 	 -119.178
| 24> C 	 -98.7908 	 27.2739 	 -120.485
| 25> C 	 -99.1205 	 26.6906 	 -121.702
| 26> C 	 -100.14 	 25.7006 	 -121.666
| 27> C 	 -100.436 	 25.3563 	 -120.303
| 28> H 	 -98.7405 	 27.1965 	 -122.577
| 29> C 	 -100.792 	 25.0784 	 -122.893
| 30> H 	 -100.761 	 25.9001 	 -123.623
| 31> H 	 -101.907 	 25.0983 	 -122.773
| 32> C 	 -100.15 	 23.7908 	 -123.395
| 33> H 	 -100.746 	 22.9448 	 -123.198
| 34> H 	 -99.1653 	 23.5355 	 -122.863
| 35> C 	 -99.9866 	 23.7958 	 -124.906
| 36> H 	 -99.3254 	 24.6209 	 -125.233
| 37> H 	 -100.97 	 24.06 	 -125.397
| 38> H 	 -99.7919 	 22.757 	 -125.293
| 39> H 	 -102.622 	 21.894 	 -117.473
| 40> H 	 -98.21 	 28.2083 	 -120.255
| 41> *
| 42>
| 43>                          ****END OF INPUT****

CARTESIAN COORDINATES (ANGSTROEM)
---------------------------------
  S    -100.966000   23.738600  -118.108000
  C    -102.400000   22.648900  -118.228000
  C    -103.078000   22.819200  -119.402000
  C    -102.381000   23.764300  -120.227000
  C    -101.337000   24.408600  -119.652000
  H    -102.683000   23.978800  -121.211000
  C    -104.289000   22.017800  -119.857000
  H    -104.635000   21.556100  -118.964000
  H    -103.935000   21.183900  -120.544000
  C    -105.496000   22.895400  -120.464000
  H    -105.832000   23.694600  -119.748000
  H    -105.242000   23.473500  -121.335000
  C    -106.725000   22.048900  -120.838000
  H    -106.437000   21.116600  -121.209000
  H    -107.474000   21.757400  -120.095000
  H    -107.205000   22.519800  -121.697000
  S    -99.598100   26.401400  -119.178000
  C    -98.790800   27.273900  -120.485000
  C    -99.120500   26.690600  -121.702000
  C    -100.140000   25.700600  -121.666000
  C    -100.436000   25.356300  -120.303000
  H    -98.740500   27.196500  -122.577000
  C    -100.792000   25.078400  -122.893000
  H    -100.761000   25.900100  -123.623000
  H    -101.907000   25.098300  -122.773000
  C    -100.150000   23.790800  -123.395000
  H    -100.746000   22.944800  -123.198000
  H    -99.165300   23.535500  -122.863000
  C    -99.986600   23.795800  -124.906000
  H    -99.325400   24.620900  -125.233000
  H    -100.970000   24.060000  -125.397000
  H    -99.791900   22.757000  -125.293000
  H    -102.622000   21.894000  -117.473000
  H    -98.210000   28.208300  -120.255000

 Total Charge           Charge          ....    0
 Multiplicity           Mult            ....    1
 Number of Electrons    NEL             ....  134
 Basis Dimension        Dim             ....  322

ORBITAL ENERGIES
----------------

  NO   OCC          E(Eh)            E(eV)
   0   2.0000     -88.963768     -2420.8272
   1   2.0000     -88.963699     -2420.8253
   2   2.0000     -10.330859      -281.1170
   3   2.0000     -10.324838      -280.9531
   4   2.0000     -10.322699      -280.8949
   5   2.0000     -10.315026      -280.6861
   6   2.0000     -10.310435      -280.5612
   7   2.0000     -10.303631      -280.3761
   8   2.0000     -10.300474      -280.2901
   9   2.0000     -10.300230      -280.2835
  10   2.0000     -10.297929      -280.2209
  11   2.0000     -10.296946      -280.1942
  12   2.0000     -10.288308      -279.9591
  13   2.0000     -10.287544      -279.9383
  14   2.0000     -10.282951      -279.8133
  15   2.0000     -10.274747      -279.5901
  16   2.0000      -8.078397      -219.8244
  17   2.0000      -8.078325      -219.8224
  18   2.0000      -6.036994      -164.2750
  19   2.0000      -6.036728      -164.2677
  20   2.0000      -6.032988      -164.1659
  21   2.0000      -6.032826      -164.1616
  22   2.0000      -6.029438      -164.0694
  23   2.0000      -6.028800      -164.0520
  24   2.0000      -1.005995       -27.3745
  25   2.0000      -0.979806       -26.6619
  26   2.0000      -0.911711       -24.8089
  27   2.0000      -0.904366       -24.6090
  28   2.0000      -0.869596       -23.6629
  29   2.0000      -0.851872       -23.1806
  30   2.0000      -0.843298       -22.9473
  31   2.0000      -0.814622       -22.1670
  32   2.0000      -0.781870       -21.2758
  33   2.0000      -0.769085       -20.9279
  34   2.0000      -0.711833       -19.3700
  35   2.0000      -0.703033       -19.1305
  36   2.0000      -0.690697       -18.7948
  37   2.0000      -0.662152       -18.0181
  38   2.0000      -0.635198       -17.2846
  39   2.0000      -0.625210       -17.0128
  40   2.0000      -0.594676       -16.1819
  41   2.0000      -0.563786       -15.3414
  42   2.0000      -0.560328       -15.2473
  43   2.0000      -0.555307       -15.1107
  44   2.0000      -0.528697       -14.3866
  45   2.0000      -0.522051       -14.2057
  46   2.0000      -0.519180       -14.1276
  47   2.0000      -0.509038       -13.8516
  48   2.0000      -0.506968       -13.7953
  49   2.0000      -0.495341       -13.4789
  50   2.0000      -0.489169       -13.3110
  51   2.0000      -0.484264       -13.1775
  52   2.0000      -0.470856       -12.8126
  53   2.0000      -0.465802       -12.6751
  54   2.0000      -0.457345       -12.4450
  55   2.0000      -0.450272       -12.2525
  56   2.0000      -0.444628       -12.0990
  57   2.0000      -0.438649       -11.9362
  58   2.0000      -0.433055       -11.7840
  59   2.0000      -0.425503       -11.5785
  60   2.0000      -0.421349       -11.4655
  61   2.0000      -0.414948       -11.2913
  62   2.0000      -0.405918       -11.0456
  63   2.0000      -0.357078        -9.7166
  64   2.0000      -0.333504        -9.0751
  65   2.0000      -0.328718        -8.9449
  66   2.0000      -0.280861        -7.6426
  67   0.0000       0.023096         0.6285
  68   0.0000       0.079107         2.1526
  69   0.0000       0.100755         2.7417
  70   0.0000       0.115270         3.1367
  71   0.0000       0.136098         3.7034

MULLIKEN ATOMIC CHARGES
-----------------------
   0 S :    0.090800
   1 C :   -0.144396
   2 C :   -0.065077
   3 C :   -0.016810
   4 C :   -0.048433
   5 H :   -0.036046
   6 C :    0.078224
   7 H :    0.011207
   8 H :    0.059528
   9 C :   -0.100039
  10 H :    0.045684
  11 H :    0.030556
  12 C :   -0.028194
  13 H :    0.001717
  14 H :    0.040214
  15 H :    0.027554
  16 S :    0.082760
  17 C :   -0.126561
  18 C :   -0.018522
  19 C :   -0.072383
  20 C :   -0.135687
  21 H :    0.017678
  22 C :    0.029110
  23 H :    0.014766
  24 H :    0.044336
  25 C :   -0.004869
  26 H :    0.016860
  27 H :    0.056752
  28 C :   -0.103146
  29 H :    0.044047
  30 H :    0.027874
  31 H :    0.046584
  32 H :    0.048332
  33 H :    0.085580
Sum of atomic charges:   -0.0000000

LOEWDIN ATOMIC CHARGES
----------------------
   0 S :    0.383548
   1 C :   -0.180688
   2 C :   -0.061510
   3 C :   -0.066578
   4 C :   -0.195385
   5 H :    0.015803
   6 C :   -0.028429
   7 H :    0.025602
   8 H :    0.043246
   9 C :   -0.039790
  10 H :    0.035110
  11 H :    0.020657
  12 C :   -0.070480
  13 H :    0.015095
  14 H :    0.028381
  15 H :    0.030227
  16 S :    0.398424
  17 C :   -0.193348
  18 C :   -0.072734
  19 C :   -0.057788
  20 C :   -0.187166
  21 H :    0.031099
  22 C :   -0.040595
  23 H :    0.032534
  24 H :    0.038253
  25 C :   -0.044928
  26 H :    0.020121
  27 H :    0.040037
  28 C :   -0.073201
  29 H :    0.025842
  30 H :    0.026467
  31 H :    0.032159
  32 H :    0.027903
  33 H :    0.042113

  Mayer bond orders larger than 0.100000
B(  0-S ,  1-C ) :   1.1133 B(  0-S ,  4-C ) :   1.1307 B(  1-C ,  2-C ) :   1.6414
B(  1-C , 32-H ) :   0.9650 B(  2-C ,  3-C ) :   1.2121 B(  2-C ,  6-C ) :   1.0264
B(  3-C ,  4-C ) :   1.6019 B(  3-C ,  5-H ) :   1.0063 B(  4-C , 20-C ) :   1.0560
B(  6-C ,  7-H ) :   0.9387 B(  6-C ,  8-H ) :   0.9369 B(  6-C ,  9-C ) :   1.0469
B(  9-C , 10-H ) :   0.9593 B(  9-C , 11-H ) :   0.9631 B(  9-C , 12-C ) :   1.0774
B( 12-C , 13-H ) :   0.9704 B( 12-C , 14-H ) :   0.9767 B( 12-C , 15-H ) :   0.9756
B( 16-S , 17-C ) :   1.1550 B( 16-S , 20-C ) :   1.1646 B( 17-C , 18-C ) :   1.5811
B( 17-C , 20-C ) :   0.1123 B( 17-C , 33-H ) :   0.9642 B( 18-C , 19-C ) :   1.2760
B( 18-C , 21-H ) :   0.9855 B( 19-C , 20-C ) :   1.5313 B( 19-C , 22-C ) :   1.0427
B( 22-C , 23-H ) :   0.9378 B( 22-C , 24-H ) :   0.9273 B( 22-C , 25-C ) :   1.0215
B( 25-C , 26-H ) :   0.9497 B( 25-C , 27-H ) :   0.9609 B( 25-C , 28-C ) :   1.0837
B( 28-C , 29-H ) :   0.9762 B( 28-C , 30-H ) :   0.9732 B( 28-C , 31-H ) :   0.9730

Dispersion correction           -0.013687542
FINAL SINGLE POINT ENERGY     -1339.866943176739

DIPOLE MOMENT
-------------
                                X             Y             Z
Electronic contribution:     17.81598      11.98021      23.07382
Nuclear contribution   :    -18.25322     -12.18205     -23.75993
                        -----------------------------------------
Total Dipole Moment    :     -0.43724      -0.20184      -0.68611
                        -----------------------------------------
Magnitude (a.u.)       :      0.83825
Magnitude (Debye)      :      2.13067

Rotational constants in cm-1:     0.016668     0.008844     0.006471
Rotational constants in MHz :   499.708622   265.144219   194.009175

                             ****ORCA TERMINATED NORMALLY****
TOTAL RUN TIME: 0 days 0 hours 0 minutes 21 seconds 387 msec
