                         Program Version 4.2.1 -  RELEASE  -
|  1> ! wB97X-D3 SP def2-SVP
|  2> %pal
|  3> nprocs 24
|  4> end
|  5>
|  6> * xyz 0 1
|  7> S 	 -139.145 	 6.13633 	 5.96417
|  8> C 	 -140.66 	 5.95027 	 5.02318
|  9> C 	 -140.763 	 6.92929 	 4.0428
| 10> C 	 -139.586 	 7.7615 	 3.97164
| 11> C 	 -138.681 	 7.47394 	 4.99104
| 12> H 	 -139.308 	 8.514 	 3.27551
| 13> C 	 -141.868 	 7.02442 	 3.04527
| 14> H 	 -142.461 	 7.89543 	 3.23402
| 15> H 	 -142.456 	 6.15564 	 3.22864
| 16> C 	 -141.384 	 7.06972 	 1.57844
| 17> H 	 -140.707 	 7.96352 	 1.33819
| 18> H 	 -140.721 	 6.26559 	 1.38638
| 19> C 	 -142.681 	 6.89913 	 0.725318
| 20> H 	 -143.479 	 7.47669 	 1.18374
| 21> H 	 -142.638 	 7.05542 	 -0.317918
| 22> H 	 -142.995 	 5.86653 	 0.757071
| 23> S 	 -137.512 	 8.91694 	 7.00178
| 24> C 	 -136.091 	 9.79167 	 6.71031
| 25> C 	 -135.549 	 9.41557 	 5.54102
| 26> C 	 -136.461 	 8.68028 	 4.68957
| 27> C 	 -137.507 	 8.24302 	 5.35868
| 28> H 	 -134.574 	 9.68111 	 5.22813
| 29> C 	 -136.195 	 8.4523 	 3.26884
| 30> H 	 -135.441 	 9.16046 	 3.0431
| 31> H 	 -137.015 	 8.73782 	 2.62761
| 32> C 	 -135.584 	 7.0945 	 2.86539
| 33> H 	 -134.651 	 6.83067 	 3.39401
| 34> H 	 -135.237 	 7.10016 	 1.84063
| 35> C 	 -136.451 	 5.82007 	 2.98232
| 36> H 	 -137.3 	 5.63265 	 2.37187
| 37> H 	 -136.651 	 5.74874 	 4.12182
| 38> H 	 -135.79 	 4.98321 	 2.81069
| 39> H 	 -141.457 	 5.22962 	 5.2648
| 40> H 	 -135.455 	 10.3044 	 7.38207
| 41> *
| 42>
| 43>                          ****END OF INPUT****

CARTESIAN COORDINATES (ANGSTROEM)
---------------------------------
  S    -139.145000    6.136330    5.964170
  C    -140.660000    5.950270    5.023180
  C    -140.763000    6.929290    4.042800
  C    -139.586000    7.761500    3.971640
  C    -138.681000    7.473940    4.991040
  H    -139.308000    8.514000    3.275510
  C    -141.868000    7.024420    3.045270
  H    -142.461000    7.895430    3.234020
  H    -142.456000    6.155640    3.228640
  C    -141.384000    7.069720    1.578440
  H    -140.707000    7.963520    1.338190
  H    -140.721000    6.265590    1.386380
  C    -142.681000    6.899130    0.725318
  H    -143.479000    7.476690    1.183740
  H    -142.638000    7.055420   -0.317918
  H    -142.995000    5.866530    0.757071
  S    -137.512000    8.916940    7.001780
  C    -136.091000    9.791670    6.710310
  C    -135.549000    9.415570    5.541020
  C    -136.461000    8.680280    4.689570
  C    -137.507000    8.243020    5.358680
  H    -134.574000    9.681110    5.228130
  C    -136.195000    8.452300    3.268840
  H    -135.441000    9.160460    3.043100
  H    -137.015000    8.737820    2.627610
  C    -135.584000    7.094500    2.865390
  H    -134.651000    6.830670    3.394010
  H    -135.237000    7.100160    1.840630
  C    -136.451000    5.820070    2.982320
  H    -137.300000    5.632650    2.371870
  H    -136.651000    5.748740    4.121820
  H    -135.790000    4.983210    2.810690
  H    -141.457000    5.229620    5.264800
  H    -135.455000   10.304400    7.382070

 Total Charge           Charge          ....    0
 Multiplicity           Mult            ....    1
 Number of Electrons    NEL             ....  134
 Basis Dimension        Dim             ....  322

ORBITAL ENERGIES
----------------

  NO   OCC          E(Eh)            E(eV)
   0   2.0000     -88.967037     -2420.9161
   1   2.0000     -88.958507     -2420.6841
   2   2.0000     -10.326226      -280.9909
   3   2.0000     -10.316928      -280.7379
   4   2.0000     -10.316769      -280.7336
   5   2.0000     -10.305232      -280.4196
   6   2.0000     -10.302302      -280.3399
   7   2.0000     -10.293722      -280.1064
   8   2.0000     -10.291615      -280.0491
   9   2.0000     -10.291043      -280.0335
  10   2.0000     -10.287779      -279.9447
  11   2.0000     -10.286333      -279.9054
  12   2.0000     -10.285173      -279.8738
  13   2.0000     -10.284938      -279.8674
  14   2.0000     -10.276269      -279.6315
  15   2.0000     -10.271113      -279.4912
  16   2.0000      -8.081319      -219.9039
  17   2.0000      -8.074345      -219.7141
  18   2.0000      -6.039840      -164.3524
  19   2.0000      -6.035873      -164.2445
  20   2.0000      -6.032964      -164.1653
  21   2.0000      -6.032108      -164.1420
  22   2.0000      -6.028805      -164.0521
  23   2.0000      -6.024774      -163.9424
  24   2.0000      -1.014853       -27.6155
  25   2.0000      -0.986105       -26.8333
  26   2.0000      -0.916737       -24.9457
  27   2.0000      -0.912159       -24.8211
  28   2.0000      -0.870936       -23.6994
  29   2.0000      -0.851696       -23.1758
  30   2.0000      -0.843012       -22.9395
  31   2.0000      -0.816115       -22.2076
  32   2.0000      -0.787131       -21.4189
  33   2.0000      -0.775261       -21.0959
  34   2.0000      -0.716555       -19.4984
  35   2.0000      -0.699019       -19.0213
  36   2.0000      -0.692599       -18.8466
  37   2.0000      -0.666973       -18.1493
  38   2.0000      -0.644104       -17.5270
  39   2.0000      -0.618384       -16.8271
  40   2.0000      -0.600552       -16.3418
  41   2.0000      -0.577788       -15.7224
  42   2.0000      -0.559858       -15.2345
  43   2.0000      -0.548317       -14.9205
  44   2.0000      -0.538916       -14.6647
  45   2.0000      -0.527127       -14.3439
  46   2.0000      -0.521484       -14.1903
  47   2.0000      -0.510605       -13.8943
  48   2.0000      -0.503945       -13.7131
  49   2.0000      -0.501594       -13.6491
  50   2.0000      -0.492043       -13.3892
  51   2.0000      -0.479218       -13.0402
  52   2.0000      -0.472695       -12.8627
  53   2.0000      -0.466160       -12.6849
  54   2.0000      -0.463712       -12.6182
  55   2.0000      -0.448971       -12.2171
  56   2.0000      -0.446248       -12.1430
  57   2.0000      -0.430795       -11.7225
  58   2.0000      -0.428489       -11.6598
  59   2.0000      -0.427000       -11.6193
  60   2.0000      -0.423424       -11.5220
  61   2.0000      -0.419722       -11.4212
  62   2.0000      -0.402682       -10.9575
  63   2.0000      -0.346689        -9.4339
  64   2.0000      -0.330407        -8.9908
  65   2.0000      -0.324666        -8.8346
  66   2.0000      -0.296380        -8.0649
  67   0.0000       0.038637         1.0514
  68   0.0000       0.070820         1.9271
  69   0.0000       0.113374         3.0851
  70   0.0000       0.123438         3.3589
  71   0.0000       0.126122         3.4320

MULLIKEN ATOMIC CHARGES
-----------------------
   0 S :    0.111718
   1 C :   -0.138716
   2 C :   -0.090741
   3 C :    0.048719
   4 C :   -0.161976
   5 H :   -0.004832
   6 C :    0.101632
   7 H :    0.037904
   8 H :    0.005944
   9 C :   -0.106026
  10 H :    0.046049
  11 H :    0.025372
  12 C :   -0.018584
  13 H :    0.028601
  14 H :    0.023815
  15 H :    0.023416
  16 S :    0.101592
  17 C :   -0.040332
  18 C :   -0.033451
  19 C :   -0.074977
  20 C :   -0.137405
  21 H :   -0.002444
  22 C :    0.132017
  23 H :   -0.003403
  24 H :    0.024053
  25 C :   -0.076716
  26 H :    0.022136
  27 H :    0.018960
  28 C :   -0.052515
  29 H :    0.035694
  30 H :    0.038216
  31 H :    0.017497
  32 H :    0.056989
  33 H :    0.041796
Sum of atomic charges:    0.0000000

LOEWDIN ATOMIC CHARGES
----------------------
   0 S :    0.406682
   1 C :   -0.199360
   2 C :   -0.054495
   3 C :   -0.061675
   4 C :   -0.191533
   5 H :    0.023913
   6 C :   -0.025970
   7 H :    0.032133
   8 H :    0.027005
   9 C :   -0.037486
  10 H :    0.030180
  11 H :    0.018476
  12 C :   -0.061670
  13 H :    0.025339
  14 H :    0.018886
  15 H :    0.027372
  16 S :    0.405960
  17 C :   -0.194515
  18 C :   -0.062247
  19 C :   -0.063170
  20 C :   -0.187378
  21 H :    0.021049
  22 C :   -0.030703
  23 H :    0.030088
  24 H :    0.031801
  25 C :   -0.038608
  26 H :    0.029146
  27 H :    0.019919
  28 C :   -0.072991
  29 H :    0.017388
  30 H :    0.032767
  31 H :    0.022910
  32 H :    0.032509
  33 H :    0.028276

  Mayer bond orders larger than 0.100000
B(  0-S ,  1-C ) :   1.1115 B(  0-S ,  4-C ) :   1.1644 B(  1-C ,  2-C ) :   1.6336
B(  1-C , 32-H ) :   0.9635 B(  2-C ,  3-C ) :   1.2058 B(  2-C ,  6-C ) :   1.0308
B(  3-C ,  4-C ) :   1.5863 B(  3-C ,  5-H ) :   0.9963 B(  4-C , 20-C ) :   1.0123
B(  6-C ,  7-H ) :   0.9224 B(  6-C ,  8-H ) :   0.9433 B(  6-C ,  9-C ) :   1.0577
B(  9-C , 10-H ) :   0.9537 B(  9-C , 11-H ) :   0.9616 B(  9-C , 12-C ) :   1.0680
B( 12-C , 13-H ) :   0.9752 B( 12-C , 14-H ) :   0.9746 B( 12-C , 15-H ) :   0.9737
B( 16-S , 17-C ) :   1.1450 B( 16-S , 20-C ) :   1.1078 B( 17-C , 18-C ) :   1.6543
B( 17-C , 33-H ) :   0.9616 B( 18-C , 19-C ) :   1.2052 B( 18-C , 21-H ) :   0.9865
B( 19-C , 20-C ) :   1.6768 B( 19-C , 22-C ) :   1.0541 B( 22-C , 23-H ) :   0.9055
B( 22-C , 24-H ) :   0.9306 B( 22-C , 25-C ) :   1.0771 B( 25-C , 26-H ) :   0.9527
B( 25-C , 27-H ) :   0.9540 B( 25-C , 28-C ) :   1.0876 B( 28-C , 29-H ) :   0.9789
B( 28-C , 30-H ) :   0.9662 B( 28-C , 31-H ) :   0.9692

Dispersion correction           -0.015346865
FINAL SINGLE POINT ENERGY     -1339.863664208727

DIPOLE MOMENT
-------------
                                X             Y             Z
Electronic contribution:      5.07926       5.27905      26.45568
Nuclear contribution   :     -5.02147      -5.24088     -27.13008
                        -----------------------------------------
Total Dipole Moment    :      0.05779       0.03817      -0.67440
                        -----------------------------------------
Magnitude (a.u.)       :      0.67795
Magnitude (Debye)      :      1.72321

Rotational constants in cm-1:     0.021054     0.008704     0.007493
Rotational constants in MHz :   631.194979   260.927447   224.627827

                             ****ORCA TERMINATED NORMALLY****
TOTAL RUN TIME: 0 days 0 hours 0 minutes 21 seconds 665 msec
