                         Program Version 4.2.1 -  RELEASE  -
|  1> ! wB97X-D3 SP def2-SVP
|  2> %pal
|  3> nprocs 24
|  4> end
|  5>
|  6> * xyz 0 1
|  7> S 	 -49.8814 	 10.4488 	 -22.0086
|  8> C 	 -50.9714 	 11.2713 	 -20.9507
|  9> C 	 -50.3017 	 11.9567 	 -19.939
| 10> C 	 -48.8856 	 12.0172 	 -20.2233
| 11> C 	 -48.4939 	 11.2679 	 -21.3209
| 12> H 	 -48.1462 	 12.4959 	 -19.6292
| 13> C 	 -51.0532 	 12.7839 	 -18.9244
| 14> H 	 -52.0723 	 12.4833 	 -18.7493
| 15> H 	 -51.1228 	 13.6902 	 -19.4053
| 16> C 	 -50.3103 	 13.0863 	 -17.6128
| 17> H 	 -49.4365 	 13.7535 	 -17.6619
| 18> H 	 -51.0208 	 13.6543 	 -16.9573
| 19> C 	 -50.1087 	 11.8921 	 -16.635
| 20> H 	 -50.7965 	 11.9235 	 -15.7886
| 21> H 	 -50.3177 	 11.007 	 -17.1847
| 22> H 	 -49.0133 	 11.7947 	 -16.3241
| 23> S 	 -46.9474 	 11.4831 	 -23.6123
| 24> C 	 -45.1971 	 11.0594 	 -23.4513
| 25> C 	 -44.8542 	 10.7804 	 -22.137
| 26> C 	 -45.9545 	 10.744 	 -21.259
| 27> C 	 -47.189 	 11.0928 	 -21.8649
| 28> H 	 -43.8539 	 10.6888 	 -21.7406
| 29> C 	 -45.7251 	 10.3375 	 -19.8342
| 30> H 	 -44.8769 	 9.63065 	 -19.7928
| 31> H 	 -46.6611 	 9.83332 	 -19.4877
| 32> C 	 -45.2424 	 11.508 	 -18.8955
| 33> H 	 -45.7524 	 12.5275 	 -19.0934
| 34> H 	 -44.1829 	 11.6721 	 -19.0833
| 35> C 	 -45.5792 	 11.1312 	 -17.3657
| 36> H 	 -45.1592 	 11.9235 	 -16.714
| 37> H 	 -45.0926 	 10.2252 	 -17.1347
| 38> H 	 -46.6689 	 11.0284 	 -17.2413
| 39> H 	 -52.0358 	 11.1575 	 -20.8726
| 40> H 	 -44.4146 	 11.1778 	 -24.2089
| 41> *
| 42>
| 43>                          ****END OF INPUT****

CARTESIAN COORDINATES (ANGSTROEM)
---------------------------------
  S    -49.881400   10.448800  -22.008600
  C    -50.971400   11.271300  -20.950700
  C    -50.301700   11.956700  -19.939000
  C    -48.885600   12.017200  -20.223300
  C    -48.493900   11.267900  -21.320900
  H    -48.146200   12.495900  -19.629200
  C    -51.053200   12.783900  -18.924400
  H    -52.072300   12.483300  -18.749300
  H    -51.122800   13.690200  -19.405300
  C    -50.310300   13.086300  -17.612800
  H    -49.436500   13.753500  -17.661900
  H    -51.020800   13.654300  -16.957300
  C    -50.108700   11.892100  -16.635000
  H    -50.796500   11.923500  -15.788600
  H    -50.317700   11.007000  -17.184700
  H    -49.013300   11.794700  -16.324100
  S    -46.947400   11.483100  -23.612300
  C    -45.197100   11.059400  -23.451300
  C    -44.854200   10.780400  -22.137000
  C    -45.954500   10.744000  -21.259000
  C    -47.189000   11.092800  -21.864900
  H    -43.853900   10.688800  -21.740600
  C    -45.725100   10.337500  -19.834200
  H    -44.876900    9.630650  -19.792800
  H    -46.661100    9.833320  -19.487700
  C    -45.242400   11.508000  -18.895500
  H    -45.752400   12.527500  -19.093400
  H    -44.182900   11.672100  -19.083300
  C    -45.579200   11.131200  -17.365700
  H    -45.159200   11.923500  -16.714000
  H    -45.092600   10.225200  -17.134700
  H    -46.668900   11.028400  -17.241300
  H    -52.035800   11.157500  -20.872600
  H    -44.414600   11.177800  -24.208900

 Total Charge           Charge          ....    0
 Multiplicity           Mult            ....    1
 Number of Electrons    NEL             ....  134
 Basis Dimension        Dim             ....  322

ORBITAL ENERGIES
----------------

  NO   OCC          E(Eh)            E(eV)
   0   2.0000     -88.968850     -2420.9655
   1   2.0000     -88.964858     -2420.8569
   2   2.0000     -10.330119      -281.0968
   3   2.0000     -10.326771      -281.0057
   4   2.0000     -10.325028      -280.9583
   5   2.0000     -10.309507      -280.5359
   6   2.0000     -10.303128      -280.3624
   7   2.0000     -10.302554      -280.3468
   8   2.0000     -10.302308      -280.3401
   9   2.0000     -10.297937      -280.2211
  10   2.0000     -10.294922      -280.1391
  11   2.0000     -10.293091      -280.0892
  12   2.0000     -10.291659      -280.0503
  13   2.0000     -10.288894      -279.9750
  14   2.0000     -10.285226      -279.8752
  15   2.0000     -10.279188      -279.7109
  16   2.0000      -8.081600      -219.9115
  17   2.0000      -8.079895      -219.8651
  18   2.0000      -6.040275      -164.3642
  19   2.0000      -6.038403      -164.3133
  20   2.0000      -6.036492      -164.2613
  21   2.0000      -6.034315      -164.2021
  22   2.0000      -6.032174      -164.1438
  23   2.0000      -6.030677      -164.1031
  24   2.0000      -1.002980       -27.2925
  25   2.0000      -0.977037       -26.5865
  26   2.0000      -0.913268       -24.8513
  27   2.0000      -0.899633       -24.4802
  28   2.0000      -0.870510       -23.6878
  29   2.0000      -0.846278       -23.0284
  30   2.0000      -0.843189       -22.9444
  31   2.0000      -0.815139       -22.1811
  32   2.0000      -0.784114       -21.3368
  33   2.0000      -0.767645       -20.8887
  34   2.0000      -0.711247       -19.3540
  35   2.0000      -0.696293       -18.9471
  36   2.0000      -0.690294       -18.7839
  37   2.0000      -0.662911       -18.0387
  38   2.0000      -0.642688       -17.4884
  39   2.0000      -0.620106       -16.8739
  40   2.0000      -0.590421       -16.0662
  41   2.0000      -0.564716       -15.3667
  42   2.0000      -0.559687       -15.2298
  43   2.0000      -0.557955       -15.1827
  44   2.0000      -0.542194       -14.7538
  45   2.0000      -0.520486       -14.1631
  46   2.0000      -0.517562       -14.0836
  47   2.0000      -0.510156       -13.8821
  48   2.0000      -0.503603       -13.7037
  49   2.0000      -0.497211       -13.5298
  50   2.0000      -0.489598       -13.3226
  51   2.0000      -0.480947       -13.0872
  52   2.0000      -0.471944       -12.8423
  53   2.0000      -0.464541       -12.6408
  54   2.0000      -0.461808       -12.5664
  55   2.0000      -0.445913       -12.1339
  56   2.0000      -0.442933       -12.0528
  57   2.0000      -0.437440       -11.9034
  58   2.0000      -0.437031       -11.8922
  59   2.0000      -0.428803       -11.6683
  60   2.0000      -0.423974       -11.5369
  61   2.0000      -0.414987       -11.2924
  62   2.0000      -0.403174       -10.9709
  63   2.0000      -0.344116        -9.3639
  64   2.0000      -0.330078        -8.9819
  65   2.0000      -0.326530        -8.8853
  66   2.0000      -0.289211        -7.8698
  67   0.0000       0.023895         0.6502
  68   0.0000       0.065874         1.7925
  69   0.0000       0.104553         2.8450
  70   0.0000       0.115128         3.1328
  71   0.0000       0.117743         3.2039

MULLIKEN ATOMIC CHARGES
-----------------------
   0 S :    0.125663
   1 C :   -0.110173
   2 C :   -0.100056
   3 C :    0.052762
   4 C :   -0.166946
   5 H :   -0.015184
   6 C :    0.116400
   7 H :    0.018934
   8 H :    0.027123
   9 C :   -0.137350
  10 H :    0.041294
  11 H :    0.029118
  12 C :   -0.056344
  13 H :    0.038295
  14 H :    0.022680
  15 H :    0.046201
  16 S :    0.102289
  17 C :   -0.086013
  18 C :   -0.029775
  19 C :   -0.013802
  20 C :   -0.162636
  21 H :    0.017416
  22 C :    0.032476
  23 H :    0.031233
  24 H :    0.046811
  25 C :   -0.121679
  26 H :    0.050213
  27 H :    0.031102
  28 C :   -0.051200
  29 H :    0.043339
  30 H :    0.025677
  31 H :    0.047918
  32 H :    0.040267
  33 H :    0.063946
Sum of atomic charges:   -0.0000000

LOEWDIN ATOMIC CHARGES
----------------------
   0 S :    0.416837
   1 C :   -0.206597
   2 C :   -0.059937
   3 C :   -0.055795
   4 C :   -0.199552
   5 H :    0.023193
   6 C :   -0.027526
   7 H :    0.031143
   8 H :    0.032715
   9 C :   -0.054587
  10 H :    0.025402
  11 H :    0.033531
  12 C :   -0.071081
  13 H :    0.025432
  14 H :    0.019565
  15 H :    0.034113
  16 S :    0.369317
  17 C :   -0.168157
  18 C :   -0.070036
  19 C :   -0.051113
  20 C :   -0.190055
  21 H :    0.031511
  22 C :   -0.037141
  23 H :    0.034084
  24 H :    0.037007
  25 C :   -0.040512
  26 H :    0.026968
  27 H :    0.019557
  28 C :   -0.061558
  29 H :    0.029533
  30 H :    0.016715
  31 H :    0.027753
  32 H :    0.025511
  33 H :    0.033759

  Mayer bond orders larger than 0.100000
B(  0-S ,  1-C ) :   1.1445 B(  0-S ,  4-C ) :   1.1498 B(  1-C ,  2-C ) :   1.6037
B(  1-C , 32-H ) :   0.9674 B(  2-C ,  3-C ) :   1.2294 B(  2-C ,  6-C ) :   1.0208
B(  3-C ,  4-C ) :   1.5687 B(  3-C ,  5-H ) :   0.9999 B(  4-C , 20-C ) :   1.0731
B(  6-C ,  7-H ) :   0.9416 B(  6-C ,  8-H ) :   0.9269 B(  6-C ,  9-C ) :   1.0904
B(  9-C , 10-H ) :   0.9587 B(  9-C , 11-H ) :   0.9638 B(  9-C , 12-C ) :   1.0446
B( 12-C , 13-H ) :   0.9836 B( 12-C , 14-H ) :   0.9806 B( 12-C , 15-H ) :   0.9742
B( 16-S , 17-C ) :   1.1395 B( 16-S , 20-C ) :   1.1203 B( 17-C , 18-C ) :   1.6083
B( 17-C , 20-C ) :   0.1076 B( 17-C , 33-H ) :   0.9624 B( 18-C , 19-C ) :   1.2613
B( 18-C , 21-H ) :   0.9818 B( 19-C , 20-C ) :   1.5694 B( 19-C , 22-C ) :   1.0538
B( 22-C , 23-H ) :   0.9362 B( 22-C , 24-H ) :   0.9415 B( 22-C , 25-C ) :   1.0308
B( 25-C , 26-H ) :   0.9628 B( 25-C , 27-H ) :   0.9563 B( 25-C , 28-C ) :   1.0671
B( 28-C , 29-H ) :   0.9769 B( 28-C , 30-H ) :   0.9745 B( 28-C , 31-H ) :   0.9774

Dispersion correction           -0.015126676
FINAL SINGLE POINT ENERGY     -1339.864778282573

DIPOLE MOMENT
-------------
                                X             Y             Z
Electronic contribution:     -2.82108      -5.33243     -31.84901
Nuclear contribution   :      3.02564       5.58181      32.56667
                        -----------------------------------------
Total Dipole Moment    :      0.20456       0.24939       0.71767
                        -----------------------------------------
Magnitude (a.u.)       :      0.78682
Magnitude (Debye)      :      1.99993

Rotational constants in cm-1:     0.017313     0.010259     0.006985
Rotational constants in MHz :   519.045293   307.569032   209.395850

                             ****ORCA TERMINATED NORMALLY****
TOTAL RUN TIME: 0 days 0 hours 0 minutes 22 seconds 555 msec
