                         Program Version 4.2.1 -  RELEASE  -
|  1> ! wB97X-D3 SP def2-SVP
|  2> %pal
|  3> nprocs 24
|  4> end
|  5>
|  6> * xyz 0 1
|  7> S 	 -139.638 	 7.83291 	 1.63188
|  8> C 	 -141.243 	 8.0404 	 0.933252
|  9> C 	 -141.903 	 9.08674 	 1.51888
| 10> C 	 -141.251 	 9.56108 	 2.67685
| 11> C 	 -139.977 	 8.96796 	 2.93218
| 12> H 	 -141.646 	 10.3907 	 3.25957
| 13> C 	 -143.205 	 9.68967 	 1.07187
| 14> H 	 -143.015 	 10.3333 	 0.191549
| 15> H 	 -143.611 	 10.4521 	 1.77195
| 16> C 	 -144.253 	 8.6999 	 0.561415
| 17> H 	 -143.801 	 8.41675 	 -0.380859
| 18> H 	 -144.45 	 7.83688 	 1.20031
| 19> C 	 -145.618 	 9.1698 	 0.110678
| 20> H 	 -146.082 	 9.75308 	 0.89222
| 21> H 	 -145.602 	 9.96193 	 -0.633994
| 22> H 	 -146.302 	 8.36342 	 -0.138846
| 23> S 	 -137.344 	 9.16679 	 3.61384
| 24> C 	 -136.899 	 10.0307 	 5.06929
| 25> C 	 -138.039 	 10.424 	 5.77031
| 26> C 	 -139.244 	 10.0632 	 5.125
| 27> C 	 -139.022 	 9.32023 	 3.98168
| 28> H 	 -137.947 	 11.028 	 6.63457
| 29> C 	 -140.561 	 10.4063 	 5.8453
| 30> H 	 -140.336 	 10.2295 	 6.88717
| 31> H 	 -141.423 	 9.80259 	 5.52914
| 32> C 	 -141.06 	 11.8413 	 5.64892
| 33> H 	 -141.773 	 11.792 	 4.83392
| 34> H 	 -140.227 	 12.4643 	 5.38221
| 35> C 	 -141.795 	 12.4265 	 6.84873
| 36> H 	 -142.747 	 11.8767 	 7.0271
| 37> H 	 -142.003 	 13.4281 	 6.58867
| 38> H 	 -141.144 	 12.4725 	 7.66634
| 39> H 	 -141.53 	 7.63342 	 -0.0368791
| 40> H 	 -135.942 	 10.0239 	 5.55477
| 41> *
| 42>
| 43>                          ****END OF INPUT****

CARTESIAN COORDINATES (ANGSTROEM)
---------------------------------
  S    -139.638000    7.832910    1.631880
  C    -141.243000    8.040400    0.933252
  C    -141.903000    9.086740    1.518880
  C    -141.251000    9.561080    2.676850
  C    -139.977000    8.967960    2.932180
  H    -141.646000   10.390700    3.259570
  C    -143.205000    9.689670    1.071870
  H    -143.015000   10.333300    0.191549
  H    -143.611000   10.452100    1.771950
  C    -144.253000    8.699900    0.561415
  H    -143.801000    8.416750   -0.380859
  H    -144.450000    7.836880    1.200310
  C    -145.618000    9.169800    0.110678
  H    -146.082000    9.753080    0.892220
  H    -145.602000    9.961930   -0.633994
  H    -146.302000    8.363420   -0.138846
  S    -137.344000    9.166790    3.613840
  C    -136.899000   10.030700    5.069290
  C    -138.039000   10.424000    5.770310
  C    -139.244000   10.063200    5.125000
  C    -139.022000    9.320230    3.981680
  H    -137.947000   11.028000    6.634570
  C    -140.561000   10.406300    5.845300
  H    -140.336000   10.229500    6.887170
  H    -141.423000    9.802590    5.529140
  C    -141.060000   11.841300    5.648920
  H    -141.773000   11.792000    4.833920
  H    -140.227000   12.464300    5.382210
  C    -141.795000   12.426500    6.848730
  H    -142.747000   11.876700    7.027100
  H    -142.003000   13.428100    6.588670
  H    -141.144000   12.472500    7.666340
  H    -141.530000    7.633420   -0.036879
  H    -135.942000   10.023900    5.554770

 Total Charge           Charge          ....    0
 Multiplicity           Mult            ....    1
 Number of Electrons    NEL             ....  134
 Basis Dimension        Dim             ....  322

ORBITAL ENERGIES
----------------

  NO   OCC          E(Eh)            E(eV)
   0   2.0000     -88.968515     -2420.9564
   1   2.0000     -88.968309     -2420.9508
   2   2.0000     -10.336652      -281.2746
   3   2.0000     -10.327583      -281.0278
   4   2.0000     -10.317581      -280.7557
   5   2.0000     -10.312994      -280.6308
   6   2.0000     -10.302664      -280.3497
   7   2.0000     -10.299583      -280.2659
   8   2.0000     -10.297573      -280.2112
   9   2.0000     -10.295354      -280.1508
  10   2.0000     -10.292750      -280.0800
  11   2.0000     -10.290998      -280.0323
  12   2.0000     -10.285464      -279.8817
  13   2.0000     -10.282736      -279.8075
  14   2.0000     -10.276474      -279.6371
  15   2.0000     -10.274541      -279.5845
  16   2.0000      -8.083689      -219.9684
  17   2.0000      -8.082465      -219.9350
  18   2.0000      -6.042224      -164.4173
  19   2.0000      -6.041056      -164.3855
  20   2.0000      -6.038118      -164.3055
  21   2.0000      -6.037062      -164.2768
  22   2.0000      -6.034423      -164.2050
  23   2.0000      -6.033180      -164.1712
  24   2.0000      -1.009187       -27.4614
  25   2.0000      -0.985758       -26.8238
  26   2.0000      -0.916237       -24.9321
  27   2.0000      -0.913534       -24.8585
  28   2.0000      -0.871789       -23.7226
  29   2.0000      -0.857525       -23.3344
  30   2.0000      -0.849818       -23.1247
  31   2.0000      -0.812021       -22.0962
  32   2.0000      -0.787280       -21.4230
  33   2.0000      -0.777097       -21.1459
  34   2.0000      -0.710688       -19.3388
  35   2.0000      -0.699980       -19.0474
  36   2.0000      -0.690787       -18.7973
  37   2.0000      -0.671307       -18.2672
  38   2.0000      -0.634227       -17.2582
  39   2.0000      -0.621336       -16.9074
  40   2.0000      -0.600537       -16.3414
  41   2.0000      -0.571338       -15.5469
  42   2.0000      -0.569214       -15.4891
  43   2.0000      -0.566757       -15.4222
  44   2.0000      -0.531548       -14.4642
  45   2.0000      -0.529596       -14.4110
  46   2.0000      -0.524335       -14.2679
  47   2.0000      -0.517098       -14.0710
  48   2.0000      -0.503912       -13.7121
  49   2.0000      -0.500334       -13.6148
  50   2.0000      -0.493518       -13.4293
  51   2.0000      -0.488756       -13.2997
  52   2.0000      -0.473774       -12.8921
  53   2.0000      -0.466327       -12.6894
  54   2.0000      -0.456910       -12.4332
  55   2.0000      -0.452711       -12.3189
  56   2.0000      -0.447775       -12.1846
  57   2.0000      -0.436231       -11.8704
  58   2.0000      -0.432844       -11.7783
  59   2.0000      -0.426729       -11.6119
  60   2.0000      -0.424704       -11.5568
  61   2.0000      -0.418187       -11.3795
  62   2.0000      -0.405800       -11.0424
  63   2.0000      -0.358019        -9.7422
  64   2.0000      -0.336109        -9.1460
  65   2.0000      -0.329541        -8.9673
  66   2.0000      -0.282134        -7.6773
  67   0.0000       0.016516         0.4494
  68   0.0000       0.079952         2.1756
  69   0.0000       0.099503         2.7076
  70   0.0000       0.123098         3.3497
  71   0.0000       0.129690         3.5291

MULLIKEN ATOMIC CHARGES
-----------------------
   0 S :    0.100601
   1 C :   -0.126106
   2 C :   -0.058399
   3 C :    0.010266
   4 C :   -0.120642
   5 H :   -0.024052
   6 C :    0.067121
   7 H :    0.033528
   8 H :    0.017347
   9 C :   -0.102099
  10 H :    0.025512
  11 H :    0.043003
  12 C :   -0.025145
  13 H :    0.007800
  14 H :    0.013216
  15 H :    0.045537
  16 S :    0.101896
  17 C :   -0.082694
  18 C :   -0.034921
  19 C :   -0.063150
  20 C :   -0.096333
  21 H :    0.008420
  22 C :    0.048432
  23 H :    0.025156
  24 H :    0.032478
  25 C :   -0.100073
  26 H :    0.035227
  27 H :    0.029367
  28 C :   -0.003933
  29 H :    0.040476
  30 H :    0.020914
  31 H :    0.018193
  32 H :    0.053512
  33 H :    0.059544
Sum of atomic charges:    0.0000000

LOEWDIN ATOMIC CHARGES
----------------------
   0 S :    0.399036
   1 C :   -0.198303
   2 C :   -0.063434
   3 C :   -0.067195
   4 C :   -0.182096
   5 H :    0.026201
   6 C :   -0.035229
   7 H :    0.039454
   8 H :    0.026332
   9 C :   -0.045721
  10 H :    0.024429
  11 H :    0.027799
  12 C :   -0.067465
  13 H :    0.019988
  14 H :    0.021933
  15 H :    0.031955
  16 S :    0.418031
  17 C :   -0.187242
  18 C :   -0.061964
  19 C :   -0.057059
  20 C :   -0.203622
  21 H :    0.026018
  22 C :   -0.029909
  23 H :    0.028445
  24 H :    0.031581
  25 C :   -0.037952
  26 H :    0.018143
  27 H :    0.020302
  28 C :   -0.052514
  29 H :    0.031889
  30 H :    0.023226
  31 H :    0.015806
  32 H :    0.029585
  33 H :    0.029555

  Mayer bond orders larger than 0.100000
B(  0-S ,  1-C ) :   1.1298 B(  0-S ,  4-C ) :   1.1626 B(  1-C ,  2-C ) :   1.5975
B(  1-C ,  4-C ) :   0.1021 B(  1-C , 32-H ) :   0.9620 B(  2-C ,  3-C ) :   1.2944
B(  2-C ,  6-C ) :   1.0262 B(  3-C ,  4-C ) :   1.5129 B(  3-C ,  5-H ) :   0.9868
B(  4-C , 20-C ) :   1.0716 B(  6-C ,  7-H ) :   0.9244 B(  6-C ,  8-H ) :   0.9478
B(  6-C ,  9-C ) :   1.0543 B(  9-C , 10-H ) :   0.9489 B(  9-C , 11-H ) :   0.9650
B(  9-C , 12-C ) :   1.0951 B( 12-C , 13-H ) :   0.9682 B( 12-C , 14-H ) :   0.9687
B( 12-C , 15-H ) :   0.9732 B( 16-S , 17-C ) :   1.1579 B( 16-S , 20-C ) :   1.1421
B( 17-C , 18-C ) :   1.5942 B( 17-C , 33-H ) :   0.9650 B( 18-C , 19-C ) :   1.2652
B( 18-C , 21-H ) :   0.9933 B( 19-C , 20-C ) :   1.5852 B( 19-C , 22-C ) :   1.0314
B( 22-C , 23-H ) :   0.9472 B( 22-C , 24-H ) :   0.9402 B( 22-C , 25-C ) :   1.0476
B( 25-C , 26-H ) :   0.9491 B( 25-C , 27-H ) :   0.9602 B( 25-C , 28-C ) :   1.0957
B( 28-C , 29-H ) :   0.9736 B( 28-C , 30-H ) :   0.9696 B( 28-C , 31-H ) :   0.9745

Dispersion correction           -0.013585752
FINAL SINGLE POINT ENERGY     -1339.872865758778

DIPOLE MOMENT
-------------
                                X             Y             Z
Electronic contribution:     29.18772     -13.27119      -3.68521
Nuclear contribution   :    -29.68530      13.83358       3.89038
                        -----------------------------------------
Total Dipole Moment    :     -0.49759       0.56239       0.20517
                        -----------------------------------------
Magnitude (a.u.)       :      0.77844
Magnitude (Debye)      :      1.97864

Rotational constants in cm-1:     0.018230     0.008374     0.005883
Rotational constants in MHz :   546.517558   251.037994   176.375108

                             ****ORCA TERMINATED NORMALLY****
TOTAL RUN TIME: 0 days 0 hours 0 minutes 21 seconds 340 msec
