                         Program Version 4.2.1 -  RELEASE  -
|  1> ! wB97X-D3 SP def2-SVP
|  2> %pal
|  3> nprocs 24
|  4> end
|  5>
|  6> * xyz 0 1
|  7> S 	 -66.0271 	 -56.9782 	 -83.1101
|  8> C 	 -67.452 	 -57.7649 	 -83.7723
|  9> C 	 -68.5878 	 -57.4023 	 -83.0634
| 10> C 	 -68.3431 	 -56.6298 	 -81.9166
| 11> C 	 -67.0019 	 -56.2804 	 -81.7981
| 12> H 	 -69.1244 	 -56.2021 	 -81.2803
| 13> C 	 -69.9718 	 -57.7317 	 -83.5527
| 14> H 	 -70.4952 	 -58.258 	 -82.7678
| 15> H 	 -69.7766 	 -58.4554 	 -84.3268
| 16> C 	 -70.7748 	 -56.578 	 -84.2483
| 17> H 	 -71.2199 	 -55.8861 	 -83.5505
| 18> H 	 -70.0473 	 -55.9321 	 -84.7683
| 19> C 	 -71.9424 	 -57.0953 	 -85.1581
| 20> H 	 -72.6515 	 -57.6816 	 -84.528
| 21> H 	 -72.4917 	 -56.304 	 -85.6731
| 22> H 	 -71.5222 	 -57.7781 	 -85.9717
| 23> S 	 -65.9654 	 -53.8796 	 -81.208
| 24> C 	 -65.5271 	 -53.4433 	 -79.532
| 25> C 	 -65.7158 	 -54.5328 	 -78.7178
| 26> C 	 -66.2374 	 -55.6936 	 -79.3882
| 27> C 	 -66.3646 	 -55.4654 	 -80.773
| 28> H 	 -65.3542 	 -54.5194 	 -77.6998
| 29> C 	 -66.286 	 -57.1214 	 -78.797
| 30> H 	 -65.971 	 -57.8614 	 -79.5582
| 31> H 	 -67.3576 	 -57.2583 	 -78.6158
| 32> C 	 -65.4228 	 -57.3579 	 -77.5954
| 33> H 	 -65.7407 	 -56.7903 	 -76.6994
| 34> H 	 -64.4391 	 -56.9273 	 -77.8381
| 35> C 	 -65.4704 	 -58.9366 	 -77.2227
| 36> H 	 -65.5885 	 -59.6296 	 -78.0965
| 37> H 	 -66.2411 	 -59.1043 	 -76.3479
| 38> H 	 -64.4965 	 -59.1485 	 -76.8724
| 39> H 	 -67.3716 	 -58.4023 	 -84.5838
| 40> H 	 -65.0438 	 -52.5768 	 -79.1967
| 41> *
| 42>
| 43>                          ****END OF INPUT****

CARTESIAN COORDINATES (ANGSTROEM)
---------------------------------
  S    -66.027100  -56.978200  -83.110100
  C    -67.452000  -57.764900  -83.772300
  C    -68.587800  -57.402300  -83.063400
  C    -68.343100  -56.629800  -81.916600
  C    -67.001900  -56.280400  -81.798100
  H    -69.124400  -56.202100  -81.280300
  C    -69.971800  -57.731700  -83.552700
  H    -70.495200  -58.258000  -82.767800
  H    -69.776600  -58.455400  -84.326800
  C    -70.774800  -56.578000  -84.248300
  H    -71.219900  -55.886100  -83.550500
  H    -70.047300  -55.932100  -84.768300
  C    -71.942400  -57.095300  -85.158100
  H    -72.651500  -57.681600  -84.528000
  H    -72.491700  -56.304000  -85.673100
  H    -71.522200  -57.778100  -85.971700
  S    -65.965400  -53.879600  -81.208000
  C    -65.527100  -53.443300  -79.532000
  C    -65.715800  -54.532800  -78.717800
  C    -66.237400  -55.693600  -79.388200
  C    -66.364600  -55.465400  -80.773000
  H    -65.354200  -54.519400  -77.699800
  C    -66.286000  -57.121400  -78.797000
  H    -65.971000  -57.861400  -79.558200
  H    -67.357600  -57.258300  -78.615800
  C    -65.422800  -57.357900  -77.595400
  H    -65.740700  -56.790300  -76.699400
  H    -64.439100  -56.927300  -77.838100
  C    -65.470400  -58.936600  -77.222700
  H    -65.588500  -59.629600  -78.096500
  H    -66.241100  -59.104300  -76.347900
  H    -64.496500  -59.148500  -76.872400
  H    -67.371600  -58.402300  -84.583800
  H    -65.043800  -52.576800  -79.196700

 Total Charge           Charge          ....    0
 Multiplicity           Mult            ....    1
 Number of Electrons    NEL             ....  134
 Basis Dimension        Dim             ....  322

ORBITAL ENERGIES
----------------

  NO   OCC          E(Eh)            E(eV)
   0   2.0000     -88.966182     -2420.8929
   1   2.0000     -88.963466     -2420.8190
   2   2.0000     -10.331334      -281.1299
   3   2.0000     -10.319852      -280.8175
   4   2.0000     -10.313310      -280.6394
   5   2.0000     -10.311091      -280.5790
   6   2.0000     -10.302160      -280.3360
   7   2.0000     -10.298117      -280.2260
   8   2.0000     -10.295102      -280.1440
   9   2.0000     -10.293503      -280.1005
  10   2.0000     -10.292324      -280.0684
  11   2.0000     -10.291875      -280.0562
  12   2.0000     -10.291555      -280.0475
  13   2.0000     -10.289983      -280.0047
  14   2.0000     -10.289393      -279.9886
  15   2.0000     -10.288703      -279.9698
  16   2.0000      -8.080497      -219.8815
  17   2.0000      -8.078637      -219.8309
  18   2.0000      -6.038859      -164.3257
  19   2.0000      -6.037099      -164.2778
  20   2.0000      -6.035037      -164.2217
  21   2.0000      -6.032916      -164.1640
  22   2.0000      -6.031474      -164.1247
  23   2.0000      -6.029579      -164.0732
  24   2.0000      -1.005589       -27.3635
  25   2.0000      -0.982401       -26.7325
  26   2.0000      -0.905537       -24.6409
  27   2.0000      -0.902985       -24.5715
  28   2.0000      -0.868586       -23.6354
  29   2.0000      -0.847662       -23.0661
  30   2.0000      -0.838354       -22.8128
  31   2.0000      -0.816458       -22.2170
  32   2.0000      -0.775860       -21.1122
  33   2.0000      -0.764291       -20.7974
  34   2.0000      -0.708058       -19.2672
  35   2.0000      -0.701494       -19.0886
  36   2.0000      -0.697580       -18.9821
  37   2.0000      -0.649923       -17.6853
  38   2.0000      -0.646617       -17.5953
  39   2.0000      -0.620768       -16.8920
  40   2.0000      -0.593863       -16.1598
  41   2.0000      -0.567347       -15.4383
  42   2.0000      -0.565274       -15.3819
  43   2.0000      -0.555453       -15.1147
  44   2.0000      -0.523160       -14.2359
  45   2.0000      -0.518796       -14.1171
  46   2.0000      -0.516278       -14.0487
  47   2.0000      -0.511064       -13.9068
  48   2.0000      -0.501729       -13.6527
  49   2.0000      -0.499230       -13.5847
  50   2.0000      -0.487730       -13.2718
  51   2.0000      -0.475330       -12.9344
  52   2.0000      -0.469338       -12.7713
  53   2.0000      -0.459458       -12.5025
  54   2.0000      -0.458531       -12.4773
  55   2.0000      -0.447310       -12.1719
  56   2.0000      -0.442186       -12.0325
  57   2.0000      -0.437280       -11.8990
  58   2.0000      -0.434106       -11.8126
  59   2.0000      -0.424285       -11.5454
  60   2.0000      -0.420641       -11.4462
  61   2.0000      -0.418179       -11.3792
  62   2.0000      -0.407512       -11.0890
  63   2.0000      -0.343572        -9.3491
  64   2.0000      -0.333237        -9.0678
  65   2.0000      -0.319084        -8.6827
  66   2.0000      -0.298441        -8.1210
  67   0.0000       0.037066         1.0086
  68   0.0000       0.059642         1.6229
  69   0.0000       0.117411         3.1949
  70   0.0000       0.123498         3.3605
  71   0.0000       0.131149         3.5688

MULLIKEN ATOMIC CHARGES
-----------------------
   0 S :    0.104361
   1 C :   -0.101159
   2 C :   -0.114470
   3 C :    0.059819
   4 C :   -0.174621
   5 H :    0.025042
   6 C :    0.096695
   7 H :    0.029046
   8 H :    0.000010
   9 C :   -0.062697
  10 H :    0.025166
  11 H :    0.035392
  12 C :   -0.087633
  13 H :    0.041719
  14 H :    0.044321
  15 H :    0.041493
  16 S :    0.115124
  17 C :   -0.070844
  18 C :   -0.044960
  19 C :   -0.032737
  20 C :   -0.175982
  21 H :    0.019310
  22 C :    0.068998
  23 H :    0.042577
  24 H :    0.033231
  25 C :   -0.119112
  26 H :    0.036456
  27 H :    0.038407
  28 C :   -0.067047
  29 H :    0.047293
  30 H :    0.060701
  31 H :    0.025642
  32 H :    0.025087
  33 H :    0.035372
Sum of atomic charges:   -0.0000000

LOEWDIN ATOMIC CHARGES
----------------------
   0 S :    0.395215
   1 C :   -0.182882
   2 C :   -0.065252
   3 C :   -0.057131
   4 C :   -0.186265
   5 H :    0.039673
   6 C :   -0.029868
   7 H :    0.028361
   8 H :    0.026986
   9 C :   -0.040427
  10 H :    0.019771
  11 H :    0.027905
  12 C :   -0.071568
  13 H :    0.028920
  14 H :    0.027129
  15 H :    0.029752
  16 S :    0.423899
  17 C :   -0.175530
  18 C :   -0.070645
  19 C :   -0.059052
  20 C :   -0.229015
  21 H :    0.030926
  22 C :   -0.036939
  23 H :    0.035669
  24 H :    0.033337
  25 C :   -0.046378
  26 H :    0.024122
  27 H :    0.024551
  28 C :   -0.070361
  29 H :    0.031510
  30 H :    0.042615
  31 H :    0.018689
  32 H :    0.011983
  33 H :    0.020301

  Mayer bond orders larger than 0.100000
B(  0-S ,  1-C ) :   1.1409 B(  0-S ,  4-C ) :   1.1606 B(  1-C ,  2-C ) :   1.5893
B(  1-C ,  4-C ) :   0.1060 B(  1-C , 32-H ) :   0.9803 B(  2-C ,  3-C ) :   1.2515
B(  2-C ,  6-C ) :   1.0382 B(  3-C ,  4-C ) :   1.5714 B(  3-C ,  5-H ) :   0.9955
B(  4-C , 20-C ) :   0.9899 B(  6-C ,  7-H ) :   0.9325 B(  6-C ,  8-H ) :   0.9380
B(  6-C ,  9-C ) :   1.0433 B(  9-C , 10-H ) :   0.9554 B(  9-C , 11-H ) :   0.9587
B(  9-C , 12-C ) :   1.0755 B( 12-C , 13-H ) :   0.9760 B( 12-C , 14-H ) :   0.9761
B( 12-C , 15-H ) :   0.9769 B( 16-S , 17-C ) :   1.1475 B( 16-S , 20-C ) :   1.1789
B( 17-C , 18-C ) :   1.6013 B( 17-C , 20-C ) :   0.1048 B( 17-C , 33-H ) :   0.9724
B( 18-C , 19-C ) :   1.2603 B( 18-C , 21-H ) :   0.9817 B( 19-C , 20-C ) :   1.5791
B( 19-C , 22-C ) :   1.0121 B( 22-C , 23-H ) :   0.9492 B( 22-C , 24-H ) :   0.9226
B( 22-C , 25-C ) :   1.0806 B( 25-C , 26-H ) :   0.9490 B( 25-C , 27-H ) :   0.9612
B( 25-C , 28-C ) :   1.0549 B( 28-C , 29-H ) :   0.9773 B( 28-C , 30-H ) :   0.9772
B( 28-C , 31-H ) :   0.9765

Dispersion correction           -0.013643096
FINAL SINGLE POINT ENERGY     -1339.872120588647

DIPOLE MOMENT
-------------
                                X             Y             Z
Electronic contribution:     14.85623      13.79596      -5.71857
Nuclear contribution   :    -15.13389     -14.04107       5.97468
                        -----------------------------------------
Total Dipole Moment    :     -0.27766      -0.24511       0.25611
                        -----------------------------------------
Magnitude (a.u.)       :      0.45029
Magnitude (Debye)      :      1.14456

Rotational constants in cm-1:     0.019702     0.007184     0.006294
Rotational constants in MHz :   590.638485   215.362505   188.693116

                             ****ORCA TERMINATED NORMALLY****
TOTAL RUN TIME: 0 days 0 hours 0 minutes 20 seconds 729 msec
