                         Program Version 4.2.1 -  RELEASE  -
|  1> ! wB97X-D3 SP def2-SVP
|  2> %pal
|  3> nprocs 24
|  4> end
|  5>
|  6> * xyz 0 1
|  7> S 	 -105.085 	 25.1934 	 -109.997
|  8> C 	 -106.607 	 25.0644 	 -110.857
|  9> C 	 -106.481 	 25.4157 	 -112.222
| 10> C 	 -105.205 	 25.9863 	 -112.506
| 11> C 	 -104.388 	 25.9935 	 -111.418
| 12> H 	 -105.013 	 26.4663 	 -113.412
| 13> C 	 -107.639 	 25.3949 	 -113.142
| 14> H 	 -107.62 	 26.2314 	 -113.837
| 15> H 	 -108.654 	 25.505 	 -112.706
| 16> C 	 -107.727 	 24.1376 	 -114.123
| 17> H 	 -108.697 	 24.12 	 -114.648
| 18> H 	 -106.935 	 24.2477 	 -114.864
| 19> C 	 -107.311 	 22.7754 	 -113.534
| 20> H 	 -106.482 	 22.792 	 -112.809
| 21> H 	 -108.113 	 22.355 	 -112.93
| 22> H 	 -107.073 	 22.0421 	 -114.306
| 23> S 	 -102.721 	 27.687 	 -109.991
| 24> C 	 -101.095 	 27.8295 	 -110.421
| 25> C 	 -100.699 	 27.13 	 -111.507
| 26> C 	 -101.799 	 26.2628 	 -112.007
| 27> C 	 -102.995 	 26.5567 	 -111.334
| 28> H 	 -99.6466 	 27.1058 	 -111.734
| 29> C 	 -101.572 	 25.0924 	 -112.877
| 30> H 	 -102.404 	 24.3225 	 -112.776
| 31> H 	 -100.837 	 24.486 	 -112.492
| 32> C 	 -101.212 	 25.3452 	 -114.335
| 33> H 	 -100.353 	 26.0241 	 -114.557
| 34> H 	 -102.047 	 25.8799 	 -114.824
| 35> C 	 -100.909 	 24.059 	 -115.139
| 36> H 	 -100.823 	 24.2855 	 -116.19
| 37> H 	 -101.808 	 23.4857 	 -115.115
| 38> H 	 -100.147 	 23.4939 	 -114.695
| 39> H 	 -107.595 	 24.7914 	 -110.432
| 40> H 	 -100.347 	 28.5095 	 -109.979
| 41> *
| 42>
| 43>                          ****END OF INPUT****

CARTESIAN COORDINATES (ANGSTROEM)
---------------------------------
  S    -105.085000   25.193400  -109.997000
  C    -106.607000   25.064400  -110.857000
  C    -106.481000   25.415700  -112.222000
  C    -105.205000   25.986300  -112.506000
  C    -104.388000   25.993500  -111.418000
  H    -105.013000   26.466300  -113.412000
  C    -107.639000   25.394900  -113.142000
  H    -107.620000   26.231400  -113.837000
  H    -108.654000   25.505000  -112.706000
  C    -107.727000   24.137600  -114.123000
  H    -108.697000   24.120000  -114.648000
  H    -106.935000   24.247700  -114.864000
  C    -107.311000   22.775400  -113.534000
  H    -106.482000   22.792000  -112.809000
  H    -108.113000   22.355000  -112.930000
  H    -107.073000   22.042100  -114.306000
  S    -102.721000   27.687000  -109.991000
  C    -101.095000   27.829500  -110.421000
  C    -100.699000   27.130000  -111.507000
  C    -101.799000   26.262800  -112.007000
  C    -102.995000   26.556700  -111.334000
  H    -99.646600   27.105800  -111.734000
  C    -101.572000   25.092400  -112.877000
  H    -102.404000   24.322500  -112.776000
  H    -100.837000   24.486000  -112.492000
  C    -101.212000   25.345200  -114.335000
  H    -100.353000   26.024100  -114.557000
  H    -102.047000   25.879900  -114.824000
  C    -100.909000   24.059000  -115.139000
  H    -100.823000   24.285500  -116.190000
  H    -101.808000   23.485700  -115.115000
  H    -100.147000   23.493900  -114.695000
  H    -107.595000   24.791400  -110.432000
  H    -100.347000   28.509500  -109.979000

 Total Charge           Charge          ....    0
 Multiplicity           Mult            ....    1
 Number of Electrons    NEL             ....  134
 Basis Dimension        Dim             ....  322

ORBITAL ENERGIES
----------------

  NO   OCC          E(Eh)            E(eV)
   0   2.0000     -88.970270     -2421.0041
   1   2.0000     -88.964182     -2420.8385
   2   2.0000     -10.333050      -281.1766
   3   2.0000     -10.330769      -281.1145
   4   2.0000     -10.318673      -280.7854
   5   2.0000     -10.311462      -280.5891
   6   2.0000     -10.311299      -280.5847
   7   2.0000     -10.302709      -280.3510
   8   2.0000     -10.294697      -280.1329
   9   2.0000     -10.292361      -280.0694
  10   2.0000     -10.292029      -280.0604
  11   2.0000     -10.289998      -280.0051
  12   2.0000     -10.287848      -279.9466
  13   2.0000     -10.287373      -279.9337
  14   2.0000     -10.272338      -279.5245
  15   2.0000     -10.270110      -279.4639
  16   2.0000      -8.084374      -219.9870
  17   2.0000      -8.079851      -219.8639
  18   2.0000      -6.042904      -164.4358
  19   2.0000      -6.039051      -164.3309
  20   2.0000      -6.038258      -164.3094
  21   2.0000      -6.035066      -164.2225
  22   2.0000      -6.034331      -164.2025
  23   2.0000      -6.030547      -164.0995
  24   2.0000      -1.004172       -27.3249
  25   2.0000      -0.984359       -26.7858
  26   2.0000      -0.912556       -24.8319
  27   2.0000      -0.904510       -24.6130
  28   2.0000      -0.862115       -23.4594
  29   2.0000      -0.853067       -23.2131
  30   2.0000      -0.848396       -23.0860
  31   2.0000      -0.817829       -22.2542
  32   2.0000      -0.785503       -21.3746
  33   2.0000      -0.770679       -20.9712
  34   2.0000      -0.705412       -19.1952
  35   2.0000      -0.696181       -18.9440
  36   2.0000      -0.689262       -18.7558
  37   2.0000      -0.654144       -17.8002
  38   2.0000      -0.638518       -17.3750
  39   2.0000      -0.627785       -17.0829
  40   2.0000      -0.601641       -16.3715
  41   2.0000      -0.568442       -15.4681
  42   2.0000      -0.558421       -15.1954
  43   2.0000      -0.546594       -14.8736
  44   2.0000      -0.539661       -14.6849
  45   2.0000      -0.532878       -14.5004
  46   2.0000      -0.515342       -14.0232
  47   2.0000      -0.507075       -13.7982
  48   2.0000      -0.501068       -13.6347
  49   2.0000      -0.495076       -13.4717
  50   2.0000      -0.492762       -13.4087
  51   2.0000      -0.473417       -12.8823
  52   2.0000      -0.472365       -12.8537
  53   2.0000      -0.461273       -12.5519
  54   2.0000      -0.455751       -12.4016
  55   2.0000      -0.452733       -12.3195
  56   2.0000      -0.445734       -12.1290
  57   2.0000      -0.440619       -11.9899
  58   2.0000      -0.437042       -11.8925
  59   2.0000      -0.426364       -11.6019
  60   2.0000      -0.424073       -11.5396
  61   2.0000      -0.407274       -11.0825
  62   2.0000      -0.403195       -10.9715
  63   2.0000      -0.344607        -9.3772
  64   2.0000      -0.330835        -9.0025
  65   2.0000      -0.326824        -8.8933
  66   2.0000      -0.296882        -8.0786
  67   0.0000       0.032298         0.8789
  68   0.0000       0.070349         1.9143
  69   0.0000       0.109659         2.9840
  70   0.0000       0.119260         3.2452
  71   0.0000       0.122101         3.3225

MULLIKEN ATOMIC CHARGES
-----------------------
   0 S :    0.119122
   1 C :   -0.127061
   2 C :   -0.089700
   3 C :    0.073280
   4 C :   -0.137850
   5 H :   -0.006762
   6 C :    0.048505
   7 H :    0.021708
   8 H :    0.032670
   9 C :   -0.093956
  10 H :    0.041520
  11 H :    0.023127
  12 C :   -0.067384
  13 H :    0.045400
  14 H :    0.017650
  15 H :    0.035288
  16 S :    0.112610
  17 C :   -0.085103
  18 C :   -0.033671
  19 C :    0.003150
  20 C :   -0.180419
  21 H :    0.020035
  22 C :    0.068186
  23 H :    0.030370
  24 H :    0.001447
  25 C :   -0.115846
  26 H :    0.033292
  27 H :    0.022383
  28 C :   -0.005536
  29 H :    0.032756
  30 H :    0.012090
  31 H :    0.026657
  32 H :    0.060177
  33 H :    0.061865
Sum of atomic charges:    0.0000000

LOEWDIN ATOMIC CHARGES
----------------------
   0 S :    0.395579
   1 C :   -0.199200
   2 C :   -0.062091
   3 C :   -0.049120
   4 C :   -0.182990
   5 H :    0.026639
   6 C :   -0.038019
   7 H :    0.030425
   8 H :    0.033822
   9 C :   -0.041869
  10 H :    0.027682
  11 H :    0.020508
  12 C :   -0.075752
  13 H :    0.029366
  14 H :    0.018896
  15 H :    0.026124
  16 S :    0.413038
  17 C :   -0.203256
  18 C :   -0.075490
  19 C :   -0.041588
  20 C :   -0.194757
  21 H :    0.031773
  22 C :   -0.041252
  23 H :    0.042854
  24 H :    0.022525
  25 C :   -0.042949
  26 H :    0.025054
  27 H :    0.022243
  28 C :   -0.057815
  29 H :    0.029080
  30 H :    0.021445
  31 H :    0.017324
  32 H :    0.034594
  33 H :    0.037177

  Mayer bond orders larger than 0.100000
B(  0-S ,  1-C ) :   1.1333 B(  0-S ,  4-C ) :   1.1467 B(  1-C ,  2-C ) :   1.5950
B(  1-C , 32-H ) :   0.9636 B(  2-C ,  3-C ) :   1.2307 B(  2-C ,  6-C ) :   1.0433
B(  3-C ,  4-C ) :   1.5900 B(  3-C ,  5-H ) :   1.0082 B(  4-C , 20-C ) :   1.0044
B(  6-C ,  7-H ) :   0.9441 B(  6-C ,  8-H ) :   0.9512 B(  6-C ,  9-C ) :   1.0455
B(  9-C , 10-H ) :   0.9605 B(  9-C , 11-H ) :   0.9624 B(  9-C , 12-C ) :   1.0754
B( 12-C , 13-H ) :   0.9672 B( 12-C , 14-H ) :   0.9761 B( 12-C , 15-H ) :   0.9778
B( 16-S , 17-C ) :   1.1536 B( 16-S , 20-C ) :   1.1276 B( 17-C , 18-C ) :   1.6738
B( 17-C , 33-H ) :   0.9536 B( 18-C , 19-C ) :   1.1870 B( 18-C , 21-H ) :   0.9866
B( 19-C , 20-C ) :   1.6228 B( 19-C , 22-C ) :   1.0560 B( 22-C , 23-H ) :   0.9305
B( 22-C , 24-H ) :   0.9283 B( 22-C , 25-C ) :   1.0466 B( 25-C , 26-H ) :   0.9604
B( 25-C , 27-H ) :   0.9551 B( 25-C , 28-C ) :   1.0830 B( 28-C , 29-H ) :   0.9721
B( 28-C , 30-H ) :   0.9723 B( 28-C , 31-H ) :   0.9763

Dispersion correction           -0.014141982
FINAL SINGLE POINT ENERGY     -1339.866521662063

DIPOLE MOMENT
-------------
                                X             Y             Z
Electronic contribution:      3.05424      15.17654      25.19641
Nuclear contribution   :     -2.97343     -15.33142     -25.66696
                        -----------------------------------------
Total Dipole Moment    :      0.08081      -0.15488      -0.47055
                        -----------------------------------------
Magnitude (a.u.)       :      0.50193
Magnitude (Debye)      :      1.27581

Rotational constants in cm-1:     0.017208     0.009253     0.006615
Rotational constants in MHz :   515.889625   277.400097   198.301482

                             ****ORCA TERMINATED NORMALLY****
TOTAL RUN TIME: 0 days 0 hours 0 minutes 21 seconds 445 msec
