                         Program Version 4.2.1 -  RELEASE  -
|  1> ! wB97X-D3 SP def2-SVP
|  2> %pal
|  3> nprocs 24
|  4> end
|  5>
|  6> * xyz 0 1
|  7> S 	 -95.0391 	 42.7676 	 -92.6334
|  8> C 	 -94.7468 	 41.177 	 -91.9976
|  9> C 	 -95.8127 	 40.5248 	 -91.3748
| 10> C 	 -96.9218 	 41.5285 	 -91.1803
| 11> C 	 -96.6279 	 42.711 	 -91.8888
| 12> H 	 -97.8815 	 41.3585 	 -90.6536
| 13> C 	 -95.8139 	 39.129 	 -90.7976
| 14> H 	 -94.8407 	 38.6543 	 -90.9553
| 15> H 	 -96.418 	 38.6206 	 -91.4798
| 16> C 	 -96.3178 	 38.9583 	 -89.3577
| 17> H 	 -97.3598 	 39.2844 	 -89.125
| 18> H 	 -96.1537 	 37.9223 	 -89.0908
| 19> C 	 -95.4514 	 39.5355 	 -88.3108
| 20> H 	 -94.4655 	 39.0918 	 -88.3058
| 21> H 	 -95.2684 	 40.6024 	 -88.398
| 22> H 	 -95.9234 	 39.4623 	 -87.2845
| 23> S 	 -98.1432 	 44.3295 	 -90.142
| 24> C 	 -99.084 	 45.622 	 -90.7728
| 25> C 	 -98.8936 	 45.7334 	 -92.1216
| 26> C 	 -98.0574 	 44.6549 	 -92.7205
| 27> C 	 -97.5118 	 43.8746 	 -91.7279
| 28> H 	 -99.2243 	 46.6213 	 -92.686
| 29> C 	 -97.633 	 44.7146 	 -94.2012
| 30> H 	 -98.5071 	 45.0054 	 -94.7381
| 31> H 	 -97.3365 	 43.7266 	 -94.595
| 32> C 	 -96.4048 	 45.7131 	 -94.5046
| 33> H 	 -95.4402 	 45.1361 	 -94.3841
| 34> H 	 -96.2367 	 46.5147 	 -93.7919
| 35> C 	 -96.3879 	 46.4219 	 -95.9118
| 36> H 	 -95.4895 	 47.0741 	 -95.8331
| 37> H 	 -97.2864 	 46.978 	 -96.2925
| 38> H 	 -96.1177 	 45.7696 	 -96.7193
| 39> H 	 -93.7524 	 40.7188 	 -92.0451
| 40> H 	 -99.6859 	 46.3847 	 -90.1834
| 41> *
| 42>
| 43>                          ****END OF INPUT****

CARTESIAN COORDINATES (ANGSTROEM)
---------------------------------
  S    -95.039100   42.767600  -92.633400
  C    -94.746800   41.177000  -91.997600
  C    -95.812700   40.524800  -91.374800
  C    -96.921800   41.528500  -91.180300
  C    -96.627900   42.711000  -91.888800
  H    -97.881500   41.358500  -90.653600
  C    -95.813900   39.129000  -90.797600
  H    -94.840700   38.654300  -90.955300
  H    -96.418000   38.620600  -91.479800
  C    -96.317800   38.958300  -89.357700
  H    -97.359800   39.284400  -89.125000
  H    -96.153700   37.922300  -89.090800
  C    -95.451400   39.535500  -88.310800
  H    -94.465500   39.091800  -88.305800
  H    -95.268400   40.602400  -88.398000
  H    -95.923400   39.462300  -87.284500
  S    -98.143200   44.329500  -90.142000
  C    -99.084000   45.622000  -90.772800
  C    -98.893600   45.733400  -92.121600
  C    -98.057400   44.654900  -92.720500
  C    -97.511800   43.874600  -91.727900
  H    -99.224300   46.621300  -92.686000
  C    -97.633000   44.714600  -94.201200
  H    -98.507100   45.005400  -94.738100
  H    -97.336500   43.726600  -94.595000
  C    -96.404800   45.713100  -94.504600
  H    -95.440200   45.136100  -94.384100
  H    -96.236700   46.514700  -93.791900
  C    -96.387900   46.421900  -95.911800
  H    -95.489500   47.074100  -95.833100
  H    -97.286400   46.978000  -96.292500
  H    -96.117700   45.769600  -96.719300
  H    -93.752400   40.718800  -92.045100
  H    -99.685900   46.384700  -90.183400

 Total Charge           Charge          ....    0
 Multiplicity           Mult            ....    1
 Number of Electrons    NEL             ....  134
 Basis Dimension        Dim             ....  322

ORBITAL ENERGIES
----------------

  NO   OCC          E(Eh)            E(eV)
   0   2.0000     -88.973671     -2421.0967
   1   2.0000     -88.962891     -2420.8033
   2   2.0000     -10.331687      -281.1395
   3   2.0000     -10.323643      -280.9206
   4   2.0000     -10.317266      -280.7471
   5   2.0000     -10.314961      -280.6843
   6   2.0000     -10.310525      -280.5636
   7   2.0000     -10.305948      -280.4391
   8   2.0000     -10.302859      -280.3551
   9   2.0000     -10.296833      -280.1911
  10   2.0000     -10.296341      -280.1777
  11   2.0000     -10.294570      -280.1295
  12   2.0000     -10.293062      -280.0885
  13   2.0000     -10.287955      -279.9495
  14   2.0000     -10.283096      -279.8173
  15   2.0000     -10.271984      -279.5149
  16   2.0000      -8.087814      -220.0806
  17   2.0000      -8.077732      -219.8063
  18   2.0000      -6.046348      -164.5295
  19   2.0000      -6.042645      -164.4287
  20   2.0000      -6.038364      -164.3122
  21   2.0000      -6.036416      -164.2592
  22   2.0000      -6.032205      -164.1447
  23   2.0000      -6.028315      -164.0388
  24   2.0000      -1.000499       -27.2250
  25   2.0000      -0.978014       -26.6131
  26   2.0000      -0.918089       -24.9825
  27   2.0000      -0.891806       -24.2673
  28   2.0000      -0.867053       -23.5937
  29   2.0000      -0.851640       -23.1743
  30   2.0000      -0.841020       -22.8853
  31   2.0000      -0.808144       -21.9907
  32   2.0000      -0.784134       -21.3374
  33   2.0000      -0.770439       -20.9647
  34   2.0000      -0.702886       -19.1265
  35   2.0000      -0.695949       -18.9377
  36   2.0000      -0.684919       -18.6376
  37   2.0000      -0.656472       -17.8635
  38   2.0000      -0.633089       -17.2272
  39   2.0000      -0.613367       -16.6906
  40   2.0000      -0.590377       -16.0650
  41   2.0000      -0.564013       -15.3476
  42   2.0000      -0.556852       -15.1527
  43   2.0000      -0.548457       -14.9243
  44   2.0000      -0.541172       -14.7260
  45   2.0000      -0.520507       -14.1637
  46   2.0000      -0.515490       -14.0272
  47   2.0000      -0.506474       -13.7819
  48   2.0000      -0.501944       -13.6586
  49   2.0000      -0.492816       -13.4102
  50   2.0000      -0.489504       -13.3201
  51   2.0000      -0.476751       -12.9730
  52   2.0000      -0.468930       -12.7602
  53   2.0000      -0.458539       -12.4775
  54   2.0000      -0.456161       -12.4128
  55   2.0000      -0.447533       -12.1780
  56   2.0000      -0.443496       -12.0681
  57   2.0000      -0.440466       -11.9857
  58   2.0000      -0.433474       -11.7954
  59   2.0000      -0.427418       -11.6306
  60   2.0000      -0.415317       -11.3013
  61   2.0000      -0.413406       -11.2494
  62   2.0000      -0.409389       -11.1400
  63   2.0000      -0.346025        -9.4158
  64   2.0000      -0.329946        -8.9783
  65   2.0000      -0.322488        -8.7753
  66   2.0000      -0.292275        -7.9532
  67   0.0000       0.036466         0.9923
  68   0.0000       0.071742         1.9522
  69   0.0000       0.103773         2.8238
  70   0.0000       0.110408         3.0043
  71   0.0000       0.128335         3.4922

MULLIKEN ATOMIC CHARGES
-----------------------
   0 S :    0.119701
   1 C :   -0.134719
   2 C :   -0.099615
   3 C :   -0.032638
   4 C :   -0.129259
   5 H :    0.042473
   6 C :    0.122371
   7 H :    0.011713
   8 H :    0.026443
   9 C :   -0.067484
  10 H :    0.045035
  11 H :    0.029765
  12 C :   -0.072724
  13 H :    0.021256
  14 H :    0.028029
  15 H :    0.038767
  16 S :    0.105886
  17 C :   -0.114188
  18 C :   -0.042102
  19 C :   -0.064939
  20 C :   -0.144936
  21 H :    0.029660
  22 C :    0.080251
  23 H :    0.021561
  24 H :    0.037350
  25 C :   -0.092697
  26 H :    0.033332
  27 H :    0.036256
  28 C :   -0.079391
  29 H :    0.034591
  30 H :    0.049773
  31 H :    0.026351
  32 H :    0.050864
  33 H :    0.083263
Sum of atomic charges:   -0.0000000

LOEWDIN ATOMIC CHARGES
----------------------
   0 S :    0.414801
   1 C :   -0.208993
   2 C :   -0.051340
   3 C :   -0.061838
   4 C :   -0.190933
   5 H :    0.036438
   6 C :   -0.029764
   7 H :    0.034165
   8 H :    0.031814
   9 C :   -0.047566
  10 H :    0.031620
  11 H :    0.032566
  12 C :   -0.070786
  13 H :    0.020182
  14 H :    0.019671
  15 H :    0.034012
  16 S :    0.405636
  17 C :   -0.211952
  18 C :   -0.076817
  19 C :   -0.060464
  20 C :   -0.194036
  21 H :    0.032609
  22 C :   -0.031865
  23 H :    0.025773
  24 H :    0.031839
  25 C :   -0.044151
  26 H :    0.025071
  27 H :    0.023021
  28 C :   -0.077616
  29 H :    0.033311
  30 H :    0.030448
  31 H :    0.019022
  32 H :    0.026987
  33 H :    0.049132

  Mayer bond orders larger than 0.100000
B(  0-S ,  1-C ) :   1.1262 B(  0-S ,  4-C ) :   1.1400 B(  1-C ,  2-C ) :   1.6507
B(  1-C , 32-H ) :   0.9584 B(  2-C ,  3-C ) :   1.1827 B(  2-C ,  6-C ) :   1.0204
B(  3-C ,  4-C ) :   1.5991 B(  3-C ,  5-H ) :   0.9846 B(  4-C , 20-C ) :   1.0383
B(  6-C ,  7-H ) :   0.9363 B(  6-C ,  8-H ) :   0.9204 B(  6-C ,  9-C ) :   1.0788
B(  9-C , 10-H ) :   0.9536 B(  9-C , 11-H ) :   0.9523 B(  9-C , 12-C ) :   1.0764
B( 12-C , 13-H ) :   0.9746 B( 12-C , 14-H ) :   0.9726 B( 12-C , 15-H ) :   0.9724
B( 16-S , 17-C ) :   1.1390 B( 16-S , 20-C ) :   1.1241 B( 17-C , 18-C ) :   1.6482
B( 17-C , 33-H ) :   0.9569 B( 18-C , 19-C ) :   1.2057 B( 18-C , 21-H ) :   0.9815
B( 19-C , 20-C ) :   1.6175 B( 19-C , 22-C ) :   1.0636 B( 22-C , 23-H ) :   0.9416
B( 22-C , 24-H ) :   0.9365 B( 22-C , 25-C ) :   1.0251 B( 25-C , 26-H ) :   0.9512
B( 25-C , 27-H ) :   0.9717 B( 25-C , 28-C ) :   1.0694 B( 28-C , 29-H ) :   0.9743
B( 28-C , 30-H ) :   0.9779 B( 28-C , 31-H ) :   0.9779

Dispersion correction           -0.014439456
FINAL SINGLE POINT ENERGY     -1339.863804840524

DIPOLE MOMENT
-------------
                                X             Y             Z
Electronic contribution:     -3.74503       5.25206       3.99935
Nuclear contribution   :      3.82600      -5.43886      -4.07628
                        -----------------------------------------
Total Dipole Moment    :      0.08097      -0.18680      -0.07693
                        -----------------------------------------
Magnitude (a.u.)       :      0.21764
Magnitude (Debye)      :      0.55320

Rotational constants in cm-1:     0.021879     0.008175     0.006347
Rotational constants in MHz :   655.912405   245.070104   190.293129

                             ****ORCA TERMINATED NORMALLY****
TOTAL RUN TIME: 0 days 0 hours 0 minutes 20 seconds 89 msec
