                         Program Version 4.2.1 -  RELEASE  -
|  1> ! wB97X-D3 SP def2-SVP
|  2> %pal
|  3> nprocs 24
|  4> end
|  5>
|  6> * xyz 0 1
|  7> S 	 -119.35 	 59.581 	 -34.722
|  8> C 	 -119.662 	 61.3052 	 -34.6727
|  9> C 	 -118.509 	 61.9571 	 -35.1676
| 10> C 	 -117.441 	 61.0315 	 -35.3738
| 11> C 	 -117.647 	 59.7384 	 -34.988
| 12> H 	 -116.49 	 61.3018 	 -35.7556
| 13> C 	 -118.41 	 63.5094 	 -35.5635
| 14> H 	 -117.498 	 63.887 	 -35.1248
| 15> H 	 -119.24 	 64.0779 	 -35.189
| 16> C 	 -118.488 	 63.7186 	 -37.0972
| 17> H 	 -118.233 	 64.7465 	 -37.3895
| 18> H 	 -117.701 	 63.055 	 -37.4729
| 19> C 	 -119.761 	 63.3325 	 -37.7935
| 20> H 	 -119.977 	 62.2664 	 -37.7351
| 21> H 	 -120.63 	 63.9093 	 -37.4051
| 22> H 	 -119.647 	 63.5836 	 -38.8357
| 23> S 	 -117.191 	 57.3866 	 -36.3367
| 24> C 	 -115.732 	 56.449 	 -36.1707
| 25> C 	 -115.034 	 56.9596 	 -35.1238
| 26> C 	 -115.548 	 58.2054 	 -34.5412
| 27> C 	 -116.732 	 58.6211 	 -35.173
| 28> H 	 -114.119 	 56.4712 	 -34.824
| 29> C 	 -114.88 	 58.867 	 -33.3656
| 30> H 	 -114.192 	 58.1605 	 -32.9753
| 31> H 	 -115.591 	 59.0162 	 -32.5781
| 32> C 	 -114.204 	 60.2244 	 -33.7944
| 33> H 	 -113.462 	 60.5817 	 -33.0252
| 34> H 	 -114.955 	 60.9961 	 -33.9343
| 35> C 	 -113.333 	 59.9868 	 -35.0513
| 36> H 	 -112.729 	 60.9053 	 -35.1304
| 37> H 	 -114.014 	 59.9464 	 -35.8858
| 38> H 	 -112.893 	 58.9905 	 -35.1105
| 39> H 	 -120.624 	 61.7758 	 -34.6892
| 40> H 	 -115.483 	 55.5473 	 -36.7767
| 41> *
| 42>
| 43>                          ****END OF INPUT****

CARTESIAN COORDINATES (ANGSTROEM)
---------------------------------
  S    -119.350000   59.581000  -34.722000
  C    -119.662000   61.305200  -34.672700
  C    -118.509000   61.957100  -35.167600
  C    -117.441000   61.031500  -35.373800
  C    -117.647000   59.738400  -34.988000
  H    -116.490000   61.301800  -35.755600
  C    -118.410000   63.509400  -35.563500
  H    -117.498000   63.887000  -35.124800
  H    -119.240000   64.077900  -35.189000
  C    -118.488000   63.718600  -37.097200
  H    -118.233000   64.746500  -37.389500
  H    -117.701000   63.055000  -37.472900
  C    -119.761000   63.332500  -37.793500
  H    -119.977000   62.266400  -37.735100
  H    -120.630000   63.909300  -37.405100
  H    -119.647000   63.583600  -38.835700
  S    -117.191000   57.386600  -36.336700
  C    -115.732000   56.449000  -36.170700
  C    -115.034000   56.959600  -35.123800
  C    -115.548000   58.205400  -34.541200
  C    -116.732000   58.621100  -35.173000
  H    -114.119000   56.471200  -34.824000
  C    -114.880000   58.867000  -33.365600
  H    -114.192000   58.160500  -32.975300
  H    -115.591000   59.016200  -32.578100
  C    -114.204000   60.224400  -33.794400
  H    -113.462000   60.581700  -33.025200
  H    -114.955000   60.996100  -33.934300
  C    -113.333000   59.986800  -35.051300
  H    -112.729000   60.905300  -35.130400
  H    -114.014000   59.946400  -35.885800
  H    -112.893000   58.990500  -35.110500
  H    -120.624000   61.775800  -34.689200
  H    -115.483000   55.547300  -36.776700

 Total Charge           Charge          ....    0
 Multiplicity           Mult            ....    1
 Number of Electrons    NEL             ....  134
 Basis Dimension        Dim             ....  322

ORBITAL ENERGIES
----------------

  NO   OCC          E(Eh)            E(eV)
   0   2.0000     -88.967028     -2420.9159
   1   2.0000     -88.962067     -2420.7809
   2   2.0000     -10.332135      -281.1517
   3   2.0000     -10.330743      -281.1138
   4   2.0000     -10.321777      -280.8698
   5   2.0000     -10.319117      -280.7974
   6   2.0000     -10.311214      -280.5824
   7   2.0000     -10.310693      -280.5682
   8   2.0000     -10.298681      -280.2413
   9   2.0000     -10.296204      -280.1739
  10   2.0000     -10.292671      -280.0778
  11   2.0000     -10.289763      -279.9987
  12   2.0000     -10.287118      -279.9267
  13   2.0000     -10.286684      -279.9149
  14   2.0000     -10.275760      -279.6176
  15   2.0000     -10.273617      -279.5593
  16   2.0000      -8.081873      -219.9190
  17   2.0000      -8.077146      -219.7903
  18   2.0000      -6.040427      -164.3684
  19   2.0000      -6.036342      -164.2572
  20   2.0000      -6.035708      -164.2400
  21   2.0000      -6.032552      -164.1541
  22   2.0000      -6.031507      -164.1256
  23   2.0000      -6.027889      -164.0272
  24   2.0000      -1.010103       -27.4863
  25   2.0000      -0.986438       -26.8423
  26   2.0000      -0.908906       -24.7326
  27   2.0000      -0.907555       -24.6958
  28   2.0000      -0.873416       -23.7669
  29   2.0000      -0.844999       -22.9936
  30   2.0000      -0.840173       -22.8623
  31   2.0000      -0.818609       -22.2755
  32   2.0000      -0.784991       -21.3607
  33   2.0000      -0.775244       -21.0955
  34   2.0000      -0.710094       -19.3226
  35   2.0000      -0.692009       -18.8305
  36   2.0000      -0.687171       -18.6989
  37   2.0000      -0.660677       -17.9779
  38   2.0000      -0.645389       -17.5619
  39   2.0000      -0.623170       -16.9573
  40   2.0000      -0.588639       -16.0177
  41   2.0000      -0.571695       -15.5566
  42   2.0000      -0.555251       -15.1092
  43   2.0000      -0.554119       -15.0783
  44   2.0000      -0.551446       -15.0056
  45   2.0000      -0.547162       -14.8890
  46   2.0000      -0.516946       -14.0668
  47   2.0000      -0.513308       -13.9678
  48   2.0000      -0.509714       -13.8700
  49   2.0000      -0.493180       -13.4201
  50   2.0000      -0.487816       -13.2742
  51   2.0000      -0.482285       -13.1237
  52   2.0000      -0.474660       -12.9162
  53   2.0000      -0.465064       -12.6550
  54   2.0000      -0.462489       -12.5850
  55   2.0000      -0.446703       -12.1554
  56   2.0000      -0.441371       -12.0103
  57   2.0000      -0.436167       -11.8687
  58   2.0000      -0.428620       -11.6633
  59   2.0000      -0.424817       -11.5598
  60   2.0000      -0.415054       -11.2942
  61   2.0000      -0.411838       -11.2067
  62   2.0000      -0.406576       -11.0635
  63   2.0000      -0.347149        -9.4464
  64   2.0000      -0.328567        -8.9408
  65   2.0000      -0.325785        -8.8650
  66   2.0000      -0.302769        -8.2388
  67   0.0000       0.029949         0.8149
  68   0.0000       0.056835         1.5465
  69   0.0000       0.111864         3.0440
  70   0.0000       0.121652         3.3103
  71   0.0000       0.133324         3.6279

MULLIKEN ATOMIC CHARGES
-----------------------
   0 S :    0.104677
   1 C :   -0.098135
   2 C :   -0.130034
   3 C :    0.044145
   4 C :   -0.139095
   5 H :    0.000762
   6 C :    0.096750
   7 H :    0.034302
   8 H :    0.012997
   9 C :   -0.092169
  10 H :    0.034109
  11 H :    0.023871
  12 C :   -0.050787
  13 H :    0.043930
  14 H :    0.027504
  15 H :    0.033885
  16 S :    0.090907
  17 C :   -0.101827
  18 C :   -0.032906
  19 C :   -0.096128
  20 C :   -0.159892
  21 H :    0.017757
  22 C :    0.136776
  23 H :    0.004873
  24 H :    0.034342
  25 C :   -0.114365
  26 H :    0.037330
  27 H :    0.038094
  28 C :   -0.035150
  29 H :    0.043785
  30 H :    0.025622
  31 H :    0.030152
  32 H :    0.053685
  33 H :    0.080234
Sum of atomic charges:   -0.0000000

LOEWDIN ATOMIC CHARGES
----------------------
   0 S :    0.418333
   1 C :   -0.197952
   2 C :   -0.058815
   3 C :   -0.061085
   4 C :   -0.205720
   5 H :    0.021951
   6 C :   -0.020725
   7 H :    0.029281
   8 H :    0.022838
   9 C :   -0.045957
  10 H :    0.025477
  11 H :    0.023366
  12 C :   -0.066387
  13 H :    0.027175
  14 H :    0.024692
  15 H :    0.028577
  16 S :    0.401820
  17 C :   -0.190922
  18 C :   -0.080180
  19 C :   -0.048448
  20 C :   -0.197126
  21 H :    0.027598
  22 C :   -0.027159
  23 H :    0.025157
  24 H :    0.031893
  25 C :   -0.037305
  26 H :    0.026400
  27 H :    0.020270
  28 C :   -0.070316
  29 H :    0.030583
  30 H :    0.020894
  31 H :    0.027520
  32 H :    0.028878
  33 H :    0.045394

  Mayer bond orders larger than 0.100000
B(  0-S ,  1-C ) :   1.1572 B(  0-S ,  4-C ) :   1.1527 B(  1-C ,  2-C ) :   1.5767
B(  1-C ,  4-C ) :   0.1051 B(  1-C , 32-H ) :   0.9685 B(  2-C ,  3-C ) :   1.2756
B(  2-C ,  6-C ) :   1.0109 B(  3-C ,  4-C ) :   1.5579 B(  3-C ,  5-H ) :   0.9894
B(  4-C , 20-C ) :   1.0441 B(  6-C ,  7-H ) :   0.9471 B(  6-C ,  8-H ) :   0.9471
B(  6-C ,  9-C ) :   1.0636 B(  9-C , 10-H ) :   0.9573 B(  9-C , 11-H ) :   0.9558
B(  9-C , 12-C ) :   1.0855 B( 12-C , 13-H ) :   0.9732 B( 12-C , 14-H ) :   0.9727
B( 12-C , 15-H ) :   0.9703 B( 16-S , 17-C ) :   1.1533 B( 16-S , 20-C ) :   1.1447
B( 17-C , 18-C ) :   1.6106 B( 17-C , 33-H ) :   0.9635 B( 18-C , 19-C ) :   1.2381
B( 18-C , 21-H ) :   0.9860 B( 19-C , 20-C ) :   1.5846 B( 19-C , 22-C ) :   1.0427
B( 22-C , 23-H ) :   0.9294 B( 22-C , 24-H ) :   0.9355 B( 22-C , 25-C ) :   1.0586
B( 25-C , 26-H ) :   0.9638 B( 25-C , 27-H ) :   0.9563 B( 25-C , 28-C ) :   1.0639
B( 28-C , 29-H ) :   0.9745 B( 28-C , 30-H ) :   0.9653 B( 28-C , 31-H ) :   0.9739

Dispersion correction           -0.015565964
FINAL SINGLE POINT ENERGY     -1339.871270735547

DIPOLE MOMENT
-------------
                                X             Y             Z
Electronic contribution:    -10.47148     -19.83884       2.98450
Nuclear contribution   :     10.85215      20.19687      -3.12199
                        -----------------------------------------
Total Dipole Moment    :      0.38067       0.35803      -0.13749
                        -----------------------------------------
Magnitude (a.u.)       :      0.54037
Magnitude (Debye)      :      1.37352

Rotational constants in cm-1:     0.020767     0.008687     0.007451
Rotational constants in MHz :   622.592200   260.434131   223.384276

                             ****ORCA TERMINATED NORMALLY****
TOTAL RUN TIME: 0 days 0 hours 0 minutes 21 seconds 69 msec
