                         Program Version 4.2.1 -  RELEASE  -
|  1> ! wB97X-D3 SP def2-SVP
|  2> %pal
|  3> nprocs 24
|  4> end
|  5>
|  6> * xyz 0 1
|  7> S 	 -97.0124 	 8.25389 	 -2.12284
|  8> C 	 -97.9126 	 7.65712 	 -3.51331
|  9> C 	 -97.0369 	 7.22115 	 -4.56623
| 10> C 	 -95.6526 	 7.33427 	 -4.14426
| 11> C 	 -95.5183 	 7.59481 	 -2.76749
| 12> H 	 -94.8075 	 7.16609 	 -4.7879
| 13> C 	 -97.4633 	 6.77228 	 -5.88612
| 14> H 	 -96.6569 	 6.98783 	 -6.46638
| 15> H 	 -98.2204 	 7.44012 	 -6.10823
| 16> C 	 -97.8697 	 5.32275 	 -6.02262
| 17> H 	 -96.9784 	 4.71198 	 -5.83778
| 18> H 	 -98.564 	 5.04416 	 -5.21278
| 19> C 	 -98.4449 	 4.88825 	 -7.33801
| 20> H 	 -99.2522 	 5.6373 	 -7.60483
| 21> H 	 -97.7549 	 5.0584 	 -8.24578
| 22> H 	 -98.8326 	 3.96017 	 -7.38652
| 23> S 	 -93.1685 	 6.42763 	 -1.59681
| 24> C 	 -91.8148 	 7.61281 	 -1.20072
| 25> C 	 -92.2725 	 8.90883 	 -1.35102
| 26> C 	 -93.5879 	 9.01565 	 -1.88072
| 27> C 	 -94.1997 	 7.79196 	 -2.08182
| 28> H 	 -91.5623 	 9.73127 	 -1.21591
| 29> C 	 -94.1444 	 10.3763 	 -2.17296
| 30> H 	 -93.6371 	 11.1132 	 -1.50819
| 31> H 	 -95.1972 	 10.4386 	 -1.8761
| 32> C 	 -94.1061 	 10.8311 	 -3.70189
| 33> H 	 -94.6683 	 10.1082 	 -4.26887
| 34> H 	 -93.1326 	 10.7513 	 -4.13151
| 35> C 	 -94.7386 	 12.2079 	 -3.88461
| 36> H 	 -94.0607 	 12.9898 	 -3.4567
| 37> H 	 -95.7216 	 12.2326 	 -3.46801
| 38> H 	 -94.8345 	 12.5252 	 -4.91165
| 39> H 	 -98.9253 	 7.7436 	 -3.58008
| 40> H 	 -90.8371 	 7.4637 	 -0.673609
| 41> *
| 42>
| 43>                          ****END OF INPUT****

CARTESIAN COORDINATES (ANGSTROEM)
---------------------------------
  S    -97.012400    8.253890   -2.122840
  C    -97.912600    7.657120   -3.513310
  C    -97.036900    7.221150   -4.566230
  C    -95.652600    7.334270   -4.144260
  C    -95.518300    7.594810   -2.767490
  H    -94.807500    7.166090   -4.787900
  C    -97.463300    6.772280   -5.886120
  H    -96.656900    6.987830   -6.466380
  H    -98.220400    7.440120   -6.108230
  C    -97.869700    5.322750   -6.022620
  H    -96.978400    4.711980   -5.837780
  H    -98.564000    5.044160   -5.212780
  C    -98.444900    4.888250   -7.338010
  H    -99.252200    5.637300   -7.604830
  H    -97.754900    5.058400   -8.245780
  H    -98.832600    3.960170   -7.386520
  S    -93.168500    6.427630   -1.596810
  C    -91.814800    7.612810   -1.200720
  C    -92.272500    8.908830   -1.351020
  C    -93.587900    9.015650   -1.880720
  C    -94.199700    7.791960   -2.081820
  H    -91.562300    9.731270   -1.215910
  C    -94.144400   10.376300   -2.172960
  H    -93.637100   11.113200   -1.508190
  H    -95.197200   10.438600   -1.876100
  C    -94.106100   10.831100   -3.701890
  H    -94.668300   10.108200   -4.268870
  H    -93.132600   10.751300   -4.131510
  C    -94.738600   12.207900   -3.884610
  H    -94.060700   12.989800   -3.456700
  H    -95.721600   12.232600   -3.468010
  H    -94.834500   12.525200   -4.911650
  H    -98.925300    7.743600   -3.580080
  H    -90.837100    7.463700   -0.673609

 Total Charge           Charge          ....    0
 Multiplicity           Mult            ....    1
 Number of Electrons    NEL             ....  134
 Basis Dimension        Dim             ....  322

ORBITAL ENERGIES
----------------

  NO   OCC          E(Eh)            E(eV)
   0   2.0000     -88.970633     -2421.0140
   1   2.0000     -88.969860     -2420.9930
   2   2.0000     -10.334242      -281.2090
   3   2.0000     -10.329890      -281.0906
   4   2.0000     -10.326200      -280.9902
   5   2.0000     -10.314350      -280.6677
   6   2.0000     -10.306514      -280.4545
   7   2.0000     -10.300135      -280.2809
   8   2.0000     -10.299442      -280.2621
   9   2.0000     -10.294164      -280.1184
  10   2.0000     -10.292819      -280.0819
  11   2.0000     -10.286533      -279.9108
  12   2.0000     -10.282064      -279.7892
  13   2.0000     -10.279509      -279.7197
  14   2.0000     -10.276253      -279.6311
  15   2.0000     -10.274721      -279.5894
  16   2.0000      -8.084454      -219.9892
  17   2.0000      -8.082328      -219.9313
  18   2.0000      -6.042963      -164.4374
  19   2.0000      -6.041162      -164.3884
  20   2.0000      -6.039102      -164.3323
  21   2.0000      -6.037225      -164.2812
  22   2.0000      -6.035269      -164.2280
  23   2.0000      -6.032789      -164.1605
  24   2.0000      -0.997195       -27.1350
  25   2.0000      -0.975709       -26.5504
  26   2.0000      -0.923485       -25.1293
  27   2.0000      -0.898430       -24.4475
  28   2.0000      -0.864398       -23.5215
  29   2.0000      -0.853783       -23.2326
  30   2.0000      -0.846381       -23.0312
  31   2.0000      -0.815930       -22.2026
  32   2.0000      -0.783509       -21.3204
  33   2.0000      -0.764926       -20.8147
  34   2.0000      -0.708241       -19.2722
  35   2.0000      -0.707038       -19.2395
  36   2.0000      -0.691617       -18.8199
  37   2.0000      -0.658774       -17.9262
  38   2.0000      -0.646296       -17.5866
  39   2.0000      -0.616141       -16.7661
  40   2.0000      -0.589217       -16.0334
  41   2.0000      -0.577064       -15.7027
  42   2.0000      -0.562623       -15.3097
  43   2.0000      -0.557161       -15.1611
  44   2.0000      -0.534854       -14.5541
  45   2.0000      -0.522163       -14.2088
  46   2.0000      -0.513776       -13.9806
  47   2.0000      -0.513102       -13.9622
  48   2.0000      -0.510015       -13.8782
  49   2.0000      -0.503485       -13.7005
  50   2.0000      -0.484060       -13.1719
  51   2.0000      -0.477985       -13.0066
  52   2.0000      -0.468014       -12.7353
  53   2.0000      -0.460296       -12.5253
  54   2.0000      -0.458749       -12.4832
  55   2.0000      -0.448657       -12.2086
  56   2.0000      -0.446292       -12.1442
  57   2.0000      -0.441145       -12.0042
  58   2.0000      -0.431441       -11.7401
  59   2.0000      -0.427110       -11.6222
  60   2.0000      -0.423365       -11.5204
  61   2.0000      -0.415117       -11.2959
  62   2.0000      -0.411045       -11.1851
  63   2.0000      -0.335926        -9.1410
  64   2.0000      -0.332534        -9.0487
  65   2.0000      -0.321383        -8.7453
  66   2.0000      -0.298748        -8.1294
  67   0.0000       0.030217         0.8222
  68   0.0000       0.051890         1.4120
  69   0.0000       0.099836         2.7167
  70   0.0000       0.104839         2.8528
  71   0.0000       0.132339         3.6011

MULLIKEN ATOMIC CHARGES
-----------------------
   0 S :    0.112708
   1 C :   -0.085289
   2 C :   -0.146506
   3 C :    0.048487
   4 C :   -0.165979
   5 H :    0.020311
   6 C :    0.178024
   7 H :   -0.012388
   8 H :    0.001290
   9 C :   -0.065512
  10 H :    0.025119
  11 H :    0.028615
  12 C :   -0.022751
  13 H :    0.018997
  14 H :    0.030968
  15 H :    0.021634
  16 S :    0.101167
  17 C :   -0.118759
  18 C :   -0.038965
  19 C :   -0.016287
  20 C :   -0.171247
  21 H :    0.030061
  22 C :    0.057144
  23 H :    0.024087
  24 H :    0.014094
  25 C :   -0.049637
  26 H :    0.024166
  27 H :    0.017854
  28 C :   -0.037608
  29 H :    0.032232
  30 H :    0.030581
  31 H :    0.026402
  32 H :    0.011202
  33 H :    0.075783
Sum of atomic charges:    0.0000000

LOEWDIN ATOMIC CHARGES
----------------------
   0 S :    0.415245
   1 C :   -0.183128
   2 C :   -0.046160
   3 C :   -0.052447
   4 C :   -0.192897
   5 H :    0.030243
   6 C :   -0.026380
   7 H :    0.021870
   8 H :    0.025398
   9 C :   -0.038842
  10 H :    0.026742
  11 H :    0.027988
  12 C :   -0.063464
  13 H :    0.028644
  14 H :    0.032782
  15 H :    0.010017
  16 S :    0.364914
  17 C :   -0.175572
  18 C :   -0.069680
  19 C :   -0.062411
  20 C :   -0.194862
  21 H :    0.035756
  22 C :   -0.033763
  23 H :    0.031162
  24 H :    0.021005
  25 C :   -0.032842
  26 H :    0.022467
  27 H :    0.017928
  28 C :   -0.064926
  29 H :    0.029098
  30 H :    0.022886
  31 H :    0.024158
  32 H :    0.003998
  33 H :    0.045075

  Mayer bond orders larger than 0.100000
B(  0-S ,  1-C ) :   1.1535 B(  0-S ,  4-C ) :   1.1658 B(  1-C ,  2-C ) :   1.5577
B(  1-C ,  4-C ) :   0.1044 B(  1-C , 32-H ) :   0.9853 B(  2-C ,  3-C ) :   1.2643
B(  2-C ,  6-C ) :   1.0295 B(  3-C ,  4-C ) :   1.5549 B(  3-C ,  5-H ) :   0.9882
B(  4-C , 20-C ) :   1.0086 B(  6-C ,  7-H ) :   0.9185 B(  6-C ,  8-H ) :   0.9189
B(  6-C ,  9-C ) :   1.0674 B(  9-C , 10-H ) :   0.9486 B(  9-C , 11-H ) :   0.9544
B(  9-C , 12-C ) :   1.0916 B( 12-C , 13-H ) :   0.9709 B( 12-C , 14-H ) :   0.9705
B( 12-C , 15-H ) :   0.9741 B( 16-S , 17-C ) :   1.1234 B( 16-S , 20-C ) :   1.1248
B( 17-C , 18-C ) :   1.6527 B( 17-C , 33-H ) :   0.9550 B( 18-C , 19-C ) :   1.2384
B( 18-C , 21-H ) :   0.9771 B( 19-C , 20-C ) :   1.6137 B( 19-C , 22-C ) :   1.0482
B( 22-C , 23-H ) :   0.9385 B( 22-C , 24-H ) :   0.9273 B( 22-C , 25-C ) :   1.0450
B( 25-C , 26-H ) :   0.9525 B( 25-C , 27-H ) :   0.9571 B( 25-C , 28-C ) :   1.0888
B( 28-C , 29-H ) :   0.9749 B( 28-C , 30-H ) :   0.9736 B( 28-C , 31-H ) :   0.9726

Dispersion correction           -0.014727650
FINAL SINGLE POINT ENERGY     -1339.852183542180

DIPOLE MOMENT
-------------
                                X             Y             Z
Electronic contribution:      7.60718      -7.47519      20.83047
Nuclear contribution   :     -7.63674       7.82290     -21.38467
                        -----------------------------------------
Total Dipole Moment    :     -0.02956       0.34771      -0.55420
                        -----------------------------------------
Magnitude (a.u.)       :      0.65492
Magnitude (Debye)      :      1.66466

Rotational constants in cm-1:     0.018891     0.008059     0.006727
Rotational constants in MHz :   566.351924   241.598165   201.667177

                             ****ORCA TERMINATED NORMALLY****
TOTAL RUN TIME: 0 days 0 hours 0 minutes 21 seconds 593 msec
