                         Program Version 4.2.1 -  RELEASE  -
|  1> ! wB97X-D3 SP def2-SVP
|  2> %pal
|  3> nprocs 24
|  4> end
|  5>
|  6> * xyz 0 1
|  7> S 	 -121.325 	 51.7013 	 -35.3545
|  8> C 	 -120.174 	 52.7435 	 -36.1113
|  9> C 	 -120.756 	 53.6215 	 -37.0544
| 10> C 	 -122.196 	 53.4735 	 -37.0176
| 11> C 	 -122.658 	 52.4635 	 -36.2028
| 12> H 	 -122.88 	 53.998 	 -37.6045
| 13> C 	 -119.957 	 54.6184 	 -37.8164
| 14> H 	 -120.253 	 54.6165 	 -38.9186
| 15> H 	 -118.932 	 54.2587 	 -37.8676
| 16> C 	 -120.004 	 55.9789 	 -37.2364
| 17> H 	 -119.581 	 56.6248 	 -38.0049
| 18> H 	 -121.053 	 56.2289 	 -36.9729
| 19> C 	 -119.158 	 56.3108 	 -36.0648
| 20> H 	 -119.172 	 57.4643 	 -35.9463
| 21> H 	 -119.707 	 55.9201 	 -35.2261
| 22> H 	 -118.193 	 55.8654 	 -36.1208
| 23> S 	 -124.455 	 52.0993 	 -34.2608
| 24> C 	 -126.189 	 51.9641 	 -34.6156
| 25> C 	 -126.389 	 52.0641 	 -35.9744
| 26> C 	 -125.192 	 52.3001 	 -36.7021
| 27> C 	 -124.052 	 52.2675 	 -35.8913
| 28> H 	 -127.437 	 52.0639 	 -36.3044
| 29> C 	 -125.216 	 52.445 	 -38.2414
| 30> H 	 -125.093 	 51.443 	 -38.6443
| 31> H 	 -124.344 	 52.9687 	 -38.5116
| 32> C 	 -126.41 	 53.1847 	 -38.7933
| 33> H 	 -126.583 	 54.0618 	 -38.1511
| 34> H 	 -127.288 	 52.6399 	 -38.633
| 35> C 	 -126.366 	 53.5055 	 -40.2632
| 36> H 	 -125.612 	 54.29 	 -40.4692
| 37> H 	 -127.274 	 54.0956 	 -40.5676
| 38> H 	 -126.224 	 52.7447 	 -41.0387
| 39> H 	 -119.108 	 52.6324 	 -35.8375
| 40> H 	 -126.993 	 51.7998 	 -33.9316
| 41> *
| 42>
| 43>                          ****END OF INPUT****

CARTESIAN COORDINATES (ANGSTROEM)
---------------------------------
  S    -121.325000   51.701300  -35.354500
  C    -120.174000   52.743500  -36.111300
  C    -120.756000   53.621500  -37.054400
  C    -122.196000   53.473500  -37.017600
  C    -122.658000   52.463500  -36.202800
  H    -122.880000   53.998000  -37.604500
  C    -119.957000   54.618400  -37.816400
  H    -120.253000   54.616500  -38.918600
  H    -118.932000   54.258700  -37.867600
  C    -120.004000   55.978900  -37.236400
  H    -119.581000   56.624800  -38.004900
  H    -121.053000   56.228900  -36.972900
  C    -119.158000   56.310800  -36.064800
  H    -119.172000   57.464300  -35.946300
  H    -119.707000   55.920100  -35.226100
  H    -118.193000   55.865400  -36.120800
  S    -124.455000   52.099300  -34.260800
  C    -126.189000   51.964100  -34.615600
  C    -126.389000   52.064100  -35.974400
  C    -125.192000   52.300100  -36.702100
  C    -124.052000   52.267500  -35.891300
  H    -127.437000   52.063900  -36.304400
  C    -125.216000   52.445000  -38.241400
  H    -125.093000   51.443000  -38.644300
  H    -124.344000   52.968700  -38.511600
  C    -126.410000   53.184700  -38.793300
  H    -126.583000   54.061800  -38.151100
  H    -127.288000   52.639900  -38.633000
  C    -126.366000   53.505500  -40.263200
  H    -125.612000   54.290000  -40.469200
  H    -127.274000   54.095600  -40.567600
  H    -126.224000   52.744700  -41.038700
  H    -119.108000   52.632400  -35.837500
  H    -126.993000   51.799800  -33.931600

 Total Charge           Charge          ....    0
 Multiplicity           Mult            ....    1
 Number of Electrons    NEL             ....  134
 Basis Dimension        Dim             ....  322

ORBITAL ENERGIES
----------------

  NO   OCC          E(Eh)            E(eV)
   0   2.0000     -88.967857     -2420.9385
   1   2.0000     -88.964997     -2420.8607
   2   2.0000     -10.327651      -281.0297
   3   2.0000     -10.322796      -280.8976
   4   2.0000     -10.318481      -280.7801
   5   2.0000     -10.313744      -280.6512
   6   2.0000     -10.305949      -280.4391
   7   2.0000     -10.302137      -280.3354
   8   2.0000     -10.293324      -280.0956
   9   2.0000     -10.292475      -280.0725
  10   2.0000     -10.292022      -280.0601
  11   2.0000     -10.285180      -279.8740
  12   2.0000     -10.283363      -279.8245
  13   2.0000     -10.282112      -279.7905
  14   2.0000     -10.278757      -279.6992
  15   2.0000     -10.274660      -279.5877
  16   2.0000      -8.082890      -219.9466
  17   2.0000      -8.080384      -219.8784
  18   2.0000      -6.041384      -164.3944
  19   2.0000      -6.038853      -164.3255
  20   2.0000      -6.037262      -164.2823
  21   2.0000      -6.034696      -164.2124
  22   2.0000      -6.033762      -164.1870
  23   2.0000      -6.031233      -164.1182
  24   2.0000      -1.011664       -27.5288
  25   2.0000      -0.985268       -26.8105
  26   2.0000      -0.924522       -25.1575
  27   2.0000      -0.913402       -24.8549
  28   2.0000      -0.874600       -23.7991
  29   2.0000      -0.855489       -23.2790
  30   2.0000      -0.847119       -23.0513
  31   2.0000      -0.818529       -22.2733
  32   2.0000      -0.784093       -21.3363
  33   2.0000      -0.772352       -21.0168
  34   2.0000      -0.710436       -19.3320
  35   2.0000      -0.702789       -19.1239
  36   2.0000      -0.686317       -18.6756
  37   2.0000      -0.657626       -17.8949
  38   2.0000      -0.642373       -17.4798
  39   2.0000      -0.626937       -17.0598
  40   2.0000      -0.596694       -16.2369
  41   2.0000      -0.577145       -15.7049
  42   2.0000      -0.569962       -15.5095
  43   2.0000      -0.550018       -14.9667
  44   2.0000      -0.546422       -14.8689
  45   2.0000      -0.530537       -14.4366
  46   2.0000      -0.522561       -14.2196
  47   2.0000      -0.508797       -13.8451
  48   2.0000      -0.508229       -13.8296
  49   2.0000      -0.495917       -13.4946
  50   2.0000      -0.494932       -13.4678
  51   2.0000      -0.486961       -13.2509
  52   2.0000      -0.472960       -12.8699
  53   2.0000      -0.468334       -12.7440
  54   2.0000      -0.460883       -12.5413
  55   2.0000      -0.448718       -12.2102
  56   2.0000      -0.442425       -12.0390
  57   2.0000      -0.438413       -11.9298
  58   2.0000      -0.433002       -11.7826
  59   2.0000      -0.426504       -11.6058
  60   2.0000      -0.420202       -11.4343
  61   2.0000      -0.414132       -11.2691
  62   2.0000      -0.399608       -10.8739
  63   2.0000      -0.356074        -9.6893
  64   2.0000      -0.333200        -9.0668
  65   2.0000      -0.327208        -8.9038
  66   2.0000      -0.285674        -7.7736
  67   0.0000       0.027828         0.7572
  68   0.0000       0.078628         2.1396
  69   0.0000       0.112607         3.0642
  70   0.0000       0.116294         3.1645
  71   0.0000       0.133867         3.6427

MULLIKEN ATOMIC CHARGES
-----------------------
   0 S :    0.116807
   1 C :   -0.151524
   2 C :   -0.082462
   3 C :    0.031888
   4 C :   -0.147250
   5 H :   -0.004510
   6 C :    0.067573
   7 H :    0.040352
   8 H :    0.011180
   9 C :   -0.077962
  10 H :    0.023466
  11 H :    0.033516
  12 C :   -0.034198
  13 H :    0.047878
  14 H :    0.026923
  15 H :    0.022454
  16 S :    0.109058
  17 C :   -0.094775
  18 C :   -0.050434
  19 C :   -0.077654
  20 C :   -0.130106
  21 H :    0.030180
  22 C :    0.148336
  23 H :    0.038642
  24 H :   -0.020398
  25 C :   -0.072832
  26 H :    0.029331
  27 H :    0.017063
  28 C :   -0.057348
  29 H :    0.021517
  30 H :    0.030304
  31 H :    0.042982
  32 H :    0.066079
  33 H :    0.045925
Sum of atomic charges:    0.0000000

LOEWDIN ATOMIC CHARGES
----------------------
   0 S :    0.412292
   1 C :   -0.207948
   2 C :   -0.059602
   3 C :   -0.052144
   4 C :   -0.195199
   5 H :    0.018511
   6 C :   -0.041301
   7 H :    0.041327
   8 H :    0.029120
   9 C :   -0.050128
  10 H :    0.024028
  11 H :    0.029445
  12 C :   -0.062126
  13 H :    0.040660
  14 H :    0.022677
  15 H :    0.017283
  16 S :    0.426580
  17 C :   -0.183675
  18 C :   -0.072879
  19 C :   -0.061893
  20 C :   -0.215753
  21 H :    0.037413
  22 C :   -0.023237
  23 H :    0.036109
  24 H :    0.016754
  25 C :   -0.045183
  26 H :    0.032317
  27 H :    0.015065
  28 C :   -0.073791
  29 H :    0.024916
  30 H :    0.033955
  31 H :    0.028156
  32 H :    0.032092
  33 H :    0.026160

  Mayer bond orders larger than 0.100000
B(  0-S ,  1-C ) :   1.1571 B(  0-S ,  4-C ) :   1.1457 B(  1-C ,  2-C ) :   1.5717
B(  1-C , 32-H ) :   0.9649 B(  2-C ,  3-C ) :   1.2509 B(  2-C ,  6-C ) :   1.0418
B(  3-C ,  4-C ) :   1.5667 B(  3-C ,  5-H ) :   0.9925 B(  4-C , 20-C ) :   1.0533
B(  6-C ,  7-H ) :   0.9329 B(  6-C ,  8-H ) :   0.9313 B(  6-C ,  9-C ) :   1.0777
B(  9-C , 10-H ) :   0.9502 B(  9-C , 11-H ) :   0.9550 B(  9-C , 12-C ) :   1.0883
B( 12-C , 13-H ) :   0.9722 B( 12-C , 14-H ) :   0.9738 B( 12-C , 15-H ) :   0.9705
B( 16-S , 17-C ) :   1.1492 B( 16-S , 20-C ) :   1.1651 B( 17-C , 18-C ) :   1.6091
B( 17-C , 20-C ) :   0.1001 B( 17-C , 33-H ) :   0.9696 B( 18-C , 19-C ) :   1.2563
B( 18-C , 21-H ) :   0.9860 B( 19-C , 20-C ) :   1.5661 B( 19-C , 22-C ) :   1.0304
B( 22-C , 23-H ) :   0.9224 B( 22-C , 24-H ) :   0.9291 B( 22-C , 25-C ) :   1.0707
B( 25-C , 26-H ) :   0.9540 B( 25-C , 27-H ) :   0.9439 B( 25-C , 28-C ) :   1.0919
B( 28-C , 29-H ) :   0.9710 B( 28-C , 30-H ) :   0.9698 B( 28-C , 31-H ) :   0.9749

Dispersion correction           -0.013837614
FINAL SINGLE POINT ENERGY     -1339.875004700953

DIPOLE MOMENT
-------------
                                X             Y             Z
Electronic contribution:     -0.31360     -17.59183      20.19091
Nuclear contribution   :      0.20954      17.97594     -20.68489
                        -----------------------------------------
Total Dipole Moment    :     -0.10406       0.38411      -0.49398
                        -----------------------------------------
Magnitude (a.u.)       :      0.63434
Magnitude (Debye)      :      1.61236

Rotational constants in cm-1:     0.017554     0.008689     0.006596
Rotational constants in MHz :   526.246692   260.497466   197.741548

                             ****ORCA TERMINATED NORMALLY****
TOTAL RUN TIME: 0 days 0 hours 0 minutes 21 seconds 485 msec
