                         Program Version 4.2.1 -  RELEASE  -
|  1> ! wB97X-D3 SP def2-SVP
|  2> %pal
|  3> nprocs 24
|  4> end
|  5>
|  6> * xyz 0 1
|  7> S 	 -110.593 	 50.405 	 -73.7346
|  8> C 	 -111.345 	 50.701 	 -75.2981
|  9> C 	 -110.818 	 51.7865 	 -75.9095
| 10> C 	 -109.894 	 52.4899 	 -75.0115
| 11> C 	 -109.871 	 52.0143 	 -73.735
| 12> H 	 -109.319 	 53.3705 	 -75.2562
| 13> C 	 -111.166 	 52.3037 	 -77.287
| 14> H 	 -110.535 	 51.7175 	 -78.019
| 15> H 	 -110.892 	 53.3763 	 -77.3697
| 16> C 	 -112.66 	 52.0868 	 -77.7271
| 17> H 	 -112.843 	 52.4107 	 -78.7867
| 18> H 	 -112.823 	 51.0923 	 -77.7905
| 19> C 	 -113.71 	 52.7267 	 -76.7361
| 20> H 	 -114.771 	 52.6546 	 -77.0906
| 21> H 	 -113.736 	 52.1587 	 -75.8394
| 22> H 	 -113.444 	 53.7002 	 -76.4398
| 23> S 	 -108.624 	 51.6071 	 -71.305
| 24> C 	 -108.509 	 52.9321 	 -70.2406
| 25> C 	 -108.708 	 54.1047 	 -70.9055
| 26> C 	 -109.22 	 53.9859 	 -72.2762
| 27> C 	 -109.38 	 52.6093 	 -72.5265
| 28> H 	 -108.474 	 55.0891 	 -70.4564
| 29> C 	 -109.587 	 55.2254 	 -73.11
| 30> H 	 -108.903 	 55.3145 	 -73.9548
| 31> H 	 -109.18 	 56.0661 	 -72.4707
| 32> C 	 -111.065 	 55.4651 	 -73.418
| 33> H 	 -111.66 	 55.5837 	 -72.4349
| 34> H 	 -111.421 	 54.5605 	 -74.0242
| 35> C 	 -111.296 	 56.5988 	 -74.3157
| 36> H 	 -111 	 56.46 	 -75.3418
| 37> H 	 -110.826 	 57.507 	 -73.937
| 38> H 	 -112.358 	 56.7615 	 -74.2605
| 39> H 	 -111.983 	 50.029 	 -75.7749
| 40> H 	 -107.957 	 52.9028 	 -69.2824
| 41> *
| 42>
| 43>                          ****END OF INPUT****

CARTESIAN COORDINATES (ANGSTROEM)
---------------------------------
  S    -110.593000   50.405000  -73.734600
  C    -111.345000   50.701000  -75.298100
  C    -110.818000   51.786500  -75.909500
  C    -109.894000   52.489900  -75.011500
  C    -109.871000   52.014300  -73.735000
  H    -109.319000   53.370500  -75.256200
  C    -111.166000   52.303700  -77.287000
  H    -110.535000   51.717500  -78.019000
  H    -110.892000   53.376300  -77.369700
  C    -112.660000   52.086800  -77.727100
  H    -112.843000   52.410700  -78.786700
  H    -112.823000   51.092300  -77.790500
  C    -113.710000   52.726700  -76.736100
  H    -114.771000   52.654600  -77.090600
  H    -113.736000   52.158700  -75.839400
  H    -113.444000   53.700200  -76.439800
  S    -108.624000   51.607100  -71.305000
  C    -108.509000   52.932100  -70.240600
  C    -108.708000   54.104700  -70.905500
  C    -109.220000   53.985900  -72.276200
  C    -109.380000   52.609300  -72.526500
  H    -108.474000   55.089100  -70.456400
  C    -109.587000   55.225400  -73.110000
  H    -108.903000   55.314500  -73.954800
  H    -109.180000   56.066100  -72.470700
  C    -111.065000   55.465100  -73.418000
  H    -111.660000   55.583700  -72.434900
  H    -111.421000   54.560500  -74.024200
  C    -111.296000   56.598800  -74.315700
  H    -111.000000   56.460000  -75.341800
  H    -110.826000   57.507000  -73.937000
  H    -112.358000   56.761500  -74.260500
  H    -111.983000   50.029000  -75.774900
  H    -107.957000   52.902800  -69.282400

 Total Charge           Charge          ....    0
 Multiplicity           Mult            ....    1
 Number of Electrons    NEL             ....  134
 Basis Dimension        Dim             ....  322

ORBITAL ENERGIES
----------------

  NO   OCC          E(Eh)            E(eV)
   0   2.0000     -88.966940     -2420.9135
   1   2.0000     -88.957693     -2420.6619
   2   2.0000     -10.328479      -281.0522
   3   2.0000     -10.326035      -280.9857
   4   2.0000     -10.314232      -280.6645
   5   2.0000     -10.310534      -280.5639
   6   2.0000     -10.306456      -280.4529
   7   2.0000     -10.303056      -280.3604
   8   2.0000     -10.301973      -280.3309
   9   2.0000     -10.301324      -280.3133
  10   2.0000     -10.296699      -280.1874
  11   2.0000     -10.293818      -280.1090
  12   2.0000     -10.293114      -280.0899
  13   2.0000     -10.289816      -280.0001
  14   2.0000     -10.274544      -279.5845
  15   2.0000     -10.272091      -279.5178
  16   2.0000      -8.082617      -219.9392
  17   2.0000      -8.072775      -219.6714
  18   2.0000      -6.041132      -164.3876
  19   2.0000      -6.037162      -164.2795
  20   2.0000      -6.033154      -164.1705
  21   2.0000      -6.031450      -164.1241
  22   2.0000      -6.027529      -164.0174
  23   2.0000      -6.023043      -163.8953
  24   2.0000      -1.009449       -27.4685
  25   2.0000      -0.985616       -26.8200
  26   2.0000      -0.915353       -24.9080
  27   2.0000      -0.907865       -24.7043
  28   2.0000      -0.869877       -23.6705
  29   2.0000      -0.857718       -23.3397
  30   2.0000      -0.839487       -22.8436
  31   2.0000      -0.813499       -22.1364
  32   2.0000      -0.785713       -21.3803
  33   2.0000      -0.776064       -21.1178
  34   2.0000      -0.713901       -19.4262
  35   2.0000      -0.704929       -19.1821
  36   2.0000      -0.686219       -18.6730
  37   2.0000      -0.660601       -17.9759
  38   2.0000      -0.637245       -17.3403
  39   2.0000      -0.611801       -16.6479
  40   2.0000      -0.594098       -16.1662
  41   2.0000      -0.571201       -15.5432
  42   2.0000      -0.567881       -15.4528
  43   2.0000      -0.549147       -14.9431
  44   2.0000      -0.534472       -14.5437
  45   2.0000      -0.532140       -14.4803
  46   2.0000      -0.516991       -14.0680
  47   2.0000      -0.515446       -14.0260
  48   2.0000      -0.507439       -13.8081
  49   2.0000      -0.499403       -13.5894
  50   2.0000      -0.490221       -13.3396
  51   2.0000      -0.483220       -13.1491
  52   2.0000      -0.476220       -12.9586
  53   2.0000      -0.464702       -12.6452
  54   2.0000      -0.454567       -12.3694
  55   2.0000      -0.449592       -12.2340
  56   2.0000      -0.436811       -11.8862
  57   2.0000      -0.435492       -11.8504
  58   2.0000      -0.433838       -11.8053
  59   2.0000      -0.431595       -11.7443
  60   2.0000      -0.426664       -11.6101
  61   2.0000      -0.417314       -11.3557
  62   2.0000      -0.405648       -11.0382
  63   2.0000      -0.358365        -9.7516
  64   2.0000      -0.330255        -8.9867
  65   2.0000      -0.321971        -8.7613
  66   2.0000      -0.286057        -7.7840
  67   0.0000       0.018169         0.4944
  68   0.0000       0.078875         2.1463
  69   0.0000       0.096920         2.6373
  70   0.0000       0.116620         3.1734
  71   0.0000       0.132306         3.6002

MULLIKEN ATOMIC CHARGES
-----------------------
   0 S :    0.085379
   1 C :   -0.091125
   2 C :   -0.095217
   3 C :    0.002648
   4 C :   -0.135649
   5 H :    0.002121
   6 C :    0.048987
   7 H :    0.053564
   8 H :    0.032968
   9 C :   -0.062492
  10 H :    0.034971
  11 H :    0.000377
  12 C :   -0.036416
  13 H :    0.040007
  14 H :    0.022334
  15 H :    0.024259
  16 S :    0.115750
  17 C :   -0.079618
  18 C :   -0.058504
  19 C :   -0.049412
  20 C :   -0.132188
  21 H :    0.024267
  22 C :    0.045145
  23 H :    0.033051
  24 H :    0.012425
  25 C :   -0.104997
  26 H :    0.051618
  27 H :    0.053549
  28 C :   -0.005005
  29 H :    0.029282
  30 H :    0.016894
  31 H :    0.029650
  32 H :    0.020860
  33 H :    0.070516
Sum of atomic charges:   -0.0000000

LOEWDIN ATOMIC CHARGES
----------------------
   0 S :    0.375249
   1 C :   -0.179914
   2 C :   -0.063709
   3 C :   -0.065736
   4 C :   -0.178286
   5 H :    0.026848
   6 C :   -0.032653
   7 H :    0.043930
   8 H :    0.029886
   9 C :   -0.033754
  10 H :    0.031429
  11 H :    0.004458
  12 C :   -0.063052
  13 H :    0.033284
  14 H :    0.021540
  15 H :    0.016982
  16 S :    0.420719
  17 C :   -0.210808
  18 C :   -0.073485
  19 C :   -0.049266
  20 C :   -0.195445
  21 H :    0.031683
  22 C :   -0.042157
  23 H :    0.028466
  24 H :    0.034661
  25 C :   -0.050498
  26 H :    0.039039
  27 H :    0.036632
  28 C :   -0.064212
  29 H :    0.022614
  30 H :    0.021345
  31 H :    0.029852
  32 H :    0.014850
  33 H :    0.039508

  Mayer bond orders larger than 0.100000
B(  0-S ,  1-C ) :   1.1099 B(  0-S ,  4-C ) :   1.1210 B(  1-C ,  2-C ) :   1.6632
B(  1-C , 32-H ) :   0.9742 B(  2-C ,  3-C ) :   1.1859 B(  2-C ,  6-C ) :   1.0121
B(  3-C ,  4-C ) :   1.6044 B(  3-C ,  5-H ) :   0.9958 B(  4-C , 20-C ) :   1.0900
B(  6-C ,  7-H ) :   0.9316 B(  6-C ,  8-H ) :   0.9512 B(  6-C ,  9-C ) :   1.0765
B(  9-C , 10-H ) :   0.9582 B(  9-C , 11-H ) :   0.9515 B(  9-C , 12-C ) :   1.0686
B( 12-C , 13-H ) :   0.9752 B( 12-C , 14-H ) :   0.9719 B( 12-C , 15-H ) :   0.9799
B( 16-S , 17-C ) :   1.1404 B( 16-S , 20-C ) :   1.1555 B( 17-C , 18-C ) :   1.6236
B( 17-C , 33-H ) :   0.9599 B( 18-C , 19-C ) :   1.2520 B( 18-C , 21-H ) :   0.9770
B( 19-C , 20-C ) :   1.5681 B( 19-C , 22-C ) :   1.0335 B( 22-C , 23-H ) :   0.9317
B( 22-C , 24-H ) :   0.9219 B( 22-C , 25-C ) :   1.0630 B( 25-C , 26-H ) :   0.9505
B( 25-C , 27-H ) :   0.9468 B( 25-C , 28-C ) :   1.0957 B( 28-C , 29-H ) :   0.9710
B( 28-C , 30-H ) :   0.9677 B( 28-C , 31-H ) :   0.9688

Dispersion correction           -0.015297622
FINAL SINGLE POINT ENERGY     -1339.864122009717

DIPOLE MOMENT
-------------
                                X             Y             Z
Electronic contribution:     15.10348     -20.21261      18.43963
Nuclear contribution   :    -15.13284      20.84587     -18.83656
                        -----------------------------------------
Total Dipole Moment    :     -0.02936       0.63326      -0.39693
                        -----------------------------------------
Magnitude (a.u.)       :      0.74795
Magnitude (Debye)      :      1.90115

Rotational constants in cm-1:     0.019553     0.009817     0.007055
Rotational constants in MHz :   586.179430   294.314699   211.514600

                             ****ORCA TERMINATED NORMALLY****
TOTAL RUN TIME: 0 days 0 hours 0 minutes 22 seconds 769 msec
