                         Program Version 4.2.1 -  RELEASE  -
|  1> ! wB97X-D3 SP def2-SVP
|  2> %pal
|  3> nprocs 24
|  4> end
|  5>
|  6> * xyz 0 1
|  7> S 	 -61.6958 	 10.5376 	 -87.8605
|  8> C 	 -60.2093 	 10.2705 	 -88.7222
|  9> C 	 -59.2188 	 9.63232 	 -87.9079
| 10> C 	 -59.6904 	 9.38161 	 -86.5962
| 11> C 	 -60.9816 	 9.77301 	 -86.3797
| 12> H 	 -59.0906 	 8.97519 	 -85.8252
| 13> C 	 -57.8476 	 9.26459 	 -88.3283
| 14> H 	 -57.9112 	 8.39771 	 -88.9625
| 15> H 	 -57.3532 	 8.95707 	 -87.4271
| 16> C 	 -56.9303 	 10.2962 	 -88.9723
| 17> H 	 -57.1094 	 11.254 	 -88.5874
| 18> H 	 -55.8588 	 10.0323 	 -88.7258
| 19> C 	 -56.9676 	 10.2102 	 -90.4895
| 20> H 	 -56.8655 	 9.21128 	 -90.893
| 21> H 	 -57.8676 	 10.4508 	 -91.0215
| 22> H 	 -56.1333 	 10.797 	 -90.7554
| 23> S 	 -62.2472 	 11.2404 	 -84.416
| 24> C 	 -62.9177 	 10.3708 	 -82.9891
| 25> C 	 -62.6922 	 9.00494 	 -83.0912
| 26> C 	 -61.9096 	 8.66468 	 -84.2208
| 27> C 	 -61.5953 	 9.74287 	 -85.042
| 28> H 	 -63.0655 	 8.33299 	 -82.3202
| 29> C 	 -61.507 	 7.23618 	 -84.4612
| 30> H 	 -61.8719 	 6.63614 	 -83.5683
| 31> H 	 -60.4043 	 7.10955 	 -84.4093
| 32> C 	 -62.1906 	 6.68531 	 -85.7044
| 33> H 	 -61.893 	 5.69029 	 -85.9418
| 34> H 	 -61.9525 	 7.18721 	 -86.6473
| 35> C 	 -63.7571 	 6.60865 	 -85.4907
| 36> H 	 -64.2129 	 7.60958 	 -85.2962
| 37> H 	 -63.9968 	 5.9516 	 -84.644
| 38> H 	 -64.1831 	 6.19454 	 -86.4017
| 39> H 	 -60.1109 	 10.6866 	 -89.7516
| 40> H 	 -63.3557 	 10.75 	 -82.0865
| 41> *
| 42>
| 43>                          ****END OF INPUT****

CARTESIAN COORDINATES (ANGSTROEM)
---------------------------------
  S    -61.695800   10.537600  -87.860500
  C    -60.209300   10.270500  -88.722200
  C    -59.218800    9.632320  -87.907900
  C    -59.690400    9.381610  -86.596200
  C    -60.981600    9.773010  -86.379700
  H    -59.090600    8.975190  -85.825200
  C    -57.847600    9.264590  -88.328300
  H    -57.911200    8.397710  -88.962500
  H    -57.353200    8.957070  -87.427100
  C    -56.930300   10.296200  -88.972300
  H    -57.109400   11.254000  -88.587400
  H    -55.858800   10.032300  -88.725800
  C    -56.967600   10.210200  -90.489500
  H    -56.865500    9.211280  -90.893000
  H    -57.867600   10.450800  -91.021500
  H    -56.133300   10.797000  -90.755400
  S    -62.247200   11.240400  -84.416000
  C    -62.917700   10.370800  -82.989100
  C    -62.692200    9.004940  -83.091200
  C    -61.909600    8.664680  -84.220800
  C    -61.595300    9.742870  -85.042000
  H    -63.065500    8.332990  -82.320200
  C    -61.507000    7.236180  -84.461200
  H    -61.871900    6.636140  -83.568300
  H    -60.404300    7.109550  -84.409300
  C    -62.190600    6.685310  -85.704400
  H    -61.893000    5.690290  -85.941800
  H    -61.952500    7.187210  -86.647300
  C    -63.757100    6.608650  -85.490700
  H    -64.212900    7.609580  -85.296200
  H    -63.996800    5.951600  -84.644000
  H    -64.183100    6.194540  -86.401700
  H    -60.110900   10.686600  -89.751600
  H    -63.355700   10.750000  -82.086500

 Total Charge           Charge          ....    0
 Multiplicity           Mult            ....    1
 Number of Electrons    NEL             ....  134
 Basis Dimension        Dim             ....  322

ORBITAL ENERGIES
----------------

  NO   OCC          E(Eh)            E(eV)
   0   2.0000     -88.970347     -2421.0062
   1   2.0000     -88.967263     -2420.9223
   2   2.0000     -10.331114      -281.1239
   3   2.0000     -10.325730      -280.9774
   4   2.0000     -10.320880      -280.8454
   5   2.0000     -10.318656      -280.7849
   6   2.0000     -10.302726      -280.3514
   7   2.0000     -10.299464      -280.2627
   8   2.0000     -10.294729      -280.1338
   9   2.0000     -10.293554      -280.1019
  10   2.0000     -10.289560      -279.9931
  11   2.0000     -10.285986      -279.8959
  12   2.0000     -10.282262      -279.7946
  13   2.0000     -10.279892      -279.7301
  14   2.0000     -10.276054      -279.6256
  15   2.0000     -10.270764      -279.4817
  16   2.0000      -8.083937      -219.9751
  17   2.0000      -8.080988      -219.8949
  18   2.0000      -6.042472      -164.4240
  19   2.0000      -6.039577      -164.3452
  20   2.0000      -6.038571      -164.3179
  21   2.0000      -6.035616      -164.2374
  22   2.0000      -6.034779      -164.2147
  23   2.0000      -6.031734      -164.1318
  24   2.0000      -1.000628       -27.2285
  25   2.0000      -0.978609       -26.6293
  26   2.0000      -0.916084       -24.9279
  27   2.0000      -0.903951       -24.5978
  28   2.0000      -0.866866       -23.5886
  29   2.0000      -0.857364       -23.3301
  30   2.0000      -0.839210       -22.8361
  31   2.0000      -0.813257       -22.1299
  32   2.0000      -0.779540       -21.2124
  33   2.0000      -0.765417       -20.8280
  34   2.0000      -0.707711       -19.2578
  35   2.0000      -0.706683       -19.2298
  36   2.0000      -0.685699       -18.6588
  37   2.0000      -0.662491       -18.0273
  38   2.0000      -0.643614       -17.5136
  39   2.0000      -0.620395       -16.8818
  40   2.0000      -0.587343       -15.9824
  41   2.0000      -0.572444       -15.5770
  42   2.0000      -0.553431       -15.0596
  43   2.0000      -0.547762       -14.9054
  44   2.0000      -0.544050       -14.8044
  45   2.0000      -0.538323       -14.6485
  46   2.0000      -0.522654       -14.2221
  47   2.0000      -0.505716       -13.7612
  48   2.0000      -0.501340       -13.6422
  49   2.0000      -0.490347       -13.3430
  50   2.0000      -0.481849       -13.1118
  51   2.0000      -0.475943       -12.9511
  52   2.0000      -0.471656       -12.8344
  53   2.0000      -0.470659       -12.8073
  54   2.0000      -0.457105       -12.4385
  55   2.0000      -0.449125       -12.2213
  56   2.0000      -0.441575       -12.0159
  57   2.0000      -0.437158       -11.8957
  58   2.0000      -0.435355       -11.8466
  59   2.0000      -0.423028       -11.5112
  60   2.0000      -0.415586       -11.3087
  61   2.0000      -0.413194       -11.2436
  62   2.0000      -0.407047       -11.0763
  63   2.0000      -0.348620        -9.4864
  64   2.0000      -0.333346        -9.0708
  65   2.0000      -0.324818        -8.8387
  66   2.0000      -0.288071        -7.8388
  67   0.0000       0.027707         0.7539
  68   0.0000       0.061184         1.6649
  69   0.0000       0.108602         2.9552
  70   0.0000       0.117812         3.2058
  71   0.0000       0.129806         3.5322

MULLIKEN ATOMIC CHARGES
-----------------------
   0 S :    0.114574
   1 C :   -0.162037
   2 C :   -0.075969
   3 C :    0.029450
   4 C :   -0.139839
   5 H :    0.005321
   6 C :    0.095823
   7 H :    0.030565
   8 H :    0.003770
   9 C :   -0.060155
  10 H :    0.025137
  11 H :    0.031597
  12 C :   -0.029867
  13 H :    0.015088
  14 H :    0.019406
  15 H :    0.028392
  16 S :    0.108547
  17 C :   -0.089446
  18 C :   -0.042436
  19 C :   -0.043560
  20 C :   -0.168176
  21 H :    0.025434
  22 C :    0.058221
  23 H :    0.018867
  24 H :    0.041804
  25 C :   -0.050831
  26 H :    0.009919
  27 H :    0.044420
  28 C :   -0.083017
  29 H :    0.054898
  30 H :    0.027940
  31 H :    0.034481
  32 H :    0.073697
  33 H :    0.047982
Sum of atomic charges:    0.0000000

LOEWDIN ATOMIC CHARGES
----------------------
   0 S :    0.390261
   1 C :   -0.211798
   2 C :   -0.059752
   3 C :   -0.053449
   4 C :   -0.178693
   5 H :    0.029025
   6 C :   -0.035492
   7 H :    0.033106
   8 H :    0.027836
   9 C :   -0.030564
  10 H :    0.018629
  11 H :    0.034257
  12 C :   -0.064985
  13 H :    0.024334
  14 H :    0.018745
  15 H :    0.023542
  16 S :    0.393356
  17 C :   -0.173312
  18 C :   -0.070093
  19 C :   -0.059804
  20 C :   -0.197498
  21 H :    0.034878
  22 C :   -0.036757
  23 H :    0.034018
  24 H :    0.032125
  25 C :   -0.039029
  26 H :    0.016872
  27 H :    0.027065
  28 C :   -0.065399
  29 H :    0.029945
  30 H :    0.021637
  31 H :    0.024843
  32 H :    0.033974
  33 H :    0.028175

  Mayer bond orders larger than 0.100000
B(  0-S ,  1-C ) :   1.1516 B(  0-S ,  4-C ) :   1.1330 B(  1-C ,  2-C ) :   1.5561
B(  1-C , 32-H ) :   0.9641 B(  2-C ,  3-C ) :   1.2704 B(  2-C ,  6-C ) :   1.0356
B(  3-C ,  4-C ) :   1.5651 B(  3-C ,  5-H ) :   0.9959 B(  4-C , 20-C ) :   1.0468
B(  6-C ,  7-H ) :   0.9292 B(  6-C ,  8-H ) :   0.9332 B(  6-C ,  9-C ) :   1.0697
B(  9-C , 10-H ) :   0.9608 B(  9-C , 11-H ) :   0.9588 B(  9-C , 12-C ) :   1.0721
B( 12-C , 13-H ) :   0.9709 B( 12-C , 14-H ) :   0.9754 B( 12-C , 15-H ) :   0.9745
B( 16-S , 17-C ) :   1.1443 B( 16-S , 20-C ) :   1.1371 B( 17-C , 18-C ) :   1.6152
B( 17-C , 20-C ) :   0.1012 B( 17-C , 33-H ) :   0.9657 B( 18-C , 19-C ) :   1.2606
B( 18-C , 21-H ) :   0.9832 B( 19-C , 20-C ) :   1.5845 B( 19-C , 22-C ) :   1.0316
B( 22-C , 23-H ) :   0.9383 B( 22-C , 24-H ) :   0.9367 B( 22-C , 25-C ) :   1.0646
B( 25-C , 26-H ) :   0.9537 B( 25-C , 27-H ) :   0.9570 B( 25-C , 28-C ) :   1.0636
B( 28-C , 29-H ) :   0.9768 B( 28-C , 30-H ) :   0.9765 B( 28-C , 31-H ) :   0.9756

Dispersion correction           -0.015170407
FINAL SINGLE POINT ENERGY     -1339.873125628687

DIPOLE MOMENT
-------------
                                X             Y             Z
Electronic contribution:    -12.11839      15.49239       9.16359
Nuclear contribution   :     12.58541     -15.93972      -9.13522
                        -----------------------------------------
Total Dipole Moment    :      0.46701      -0.44733       0.02837
                        -----------------------------------------
Magnitude (a.u.)       :      0.64731
Magnitude (Debye)      :      1.64533

Rotational constants in cm-1:     0.024075     0.007623     0.006879
Rotational constants in MHz :   721.735815   228.544262   206.236166

                             ****ORCA TERMINATED NORMALLY****
TOTAL RUN TIME: 0 days 0 hours 0 minutes 21 seconds 893 msec
