                         Program Version 4.2.1 -  RELEASE  -
|  1> ! wB97X-D3 SP def2-SVP
|  2> %pal
|  3> nprocs 24
|  4> end
|  5>
|  6> * xyz 0 1
|  7> S 	 -45.4884 	 -2.42401 	 -6.6222
|  8> C 	 -47.0956 	 -2.02569 	 -6.04756
|  9> C 	 -47.8239 	 -1.32016 	 -6.9558
| 10> C 	 -47.1021 	 -1.19981 	 -8.22508
| 11> C 	 -45.795 	 -1.6303 	 -8.15743
| 12> H 	 -47.3189 	 -0.653476 	 -9.15719
| 13> C 	 -49.1195 	 -0.569639 	 -6.65294
| 14> H 	 -49.2144 	 0.208201 	 -7.38889
| 15> H 	 -49.1873 	 0.0458579 	 -5.69288
| 16> C 	 -50.4525 	 -1.36286 	 -6.76925
| 17> H 	 -50.6041 	 -1.99237 	 -5.91427
| 18> H 	 -51.2761 	 -0.582639 	 -6.77472
| 19> C 	 -50.4587 	 -2.38085 	 -7.93232
| 20> H 	 -51.5129 	 -2.79508 	 -7.9669
| 21> H 	 -50.3804 	 -1.88443 	 -8.92511
| 22> H 	 -49.8026 	 -3.2044 	 -7.92411
| 23> S 	 -43.2337 	 -0.686446 	 -9.09598
| 24> C 	 -42.7915 	 -0.945742 	 -10.7938
| 25> C 	 -43.7988 	 -1.62423 	 -11.4452
| 26> C 	 -44.9305 	 -1.97667 	 -10.6111
| 27> C 	 -44.7944 	 -1.51839 	 -9.25921
| 28> H 	 -43.7013 	 -1.78943 	 -12.5466
| 29> C 	 -46.1627 	 -2.78403 	 -11.031
| 30> H 	 -46.8561 	 -1.94373 	 -11.1936
| 31> H 	 -46.3371 	 -3.38613 	 -10.117
| 32> C 	 -46.0954 	 -3.61586 	 -12.2884
| 33> H 	 -45.4507 	 -4.44549 	 -12.1085
| 34> H 	 -45.6316 	 -3.21427 	 -13.1789
| 35> C 	 -47.4562 	 -4.14886 	 -12.7962
| 36> H 	 -48.0506 	 -4.90036 	 -12.1597
| 37> H 	 -47.2514 	 -4.62183 	 -13.788
| 38> H 	 -48.0996 	 -3.30079 	 -12.982
| 39> H 	 -47.4141 	 -2.41963 	 -5.11365
| 40> H 	 -42.0365 	 -0.441643 	 -11.3738
| 41> *
| 42>
| 43>                          ****END OF INPUT****

CARTESIAN COORDINATES (ANGSTROEM)
---------------------------------
  S    -45.488400   -2.424010   -6.622200
  C    -47.095600   -2.025690   -6.047560
  C    -47.823900   -1.320160   -6.955800
  C    -47.102100   -1.199810   -8.225080
  C    -45.795000   -1.630300   -8.157430
  H    -47.318900   -0.653476   -9.157190
  C    -49.119500   -0.569639   -6.652940
  H    -49.214400    0.208201   -7.388890
  H    -49.187300    0.045858   -5.692880
  C    -50.452500   -1.362860   -6.769250
  H    -50.604100   -1.992370   -5.914270
  H    -51.276100   -0.582639   -6.774720
  C    -50.458700   -2.380850   -7.932320
  H    -51.512900   -2.795080   -7.966900
  H    -50.380400   -1.884430   -8.925110
  H    -49.802600   -3.204400   -7.924110
  S    -43.233700   -0.686446   -9.095980
  C    -42.791500   -0.945742  -10.793800
  C    -43.798800   -1.624230  -11.445200
  C    -44.930500   -1.976670  -10.611100
  C    -44.794400   -1.518390   -9.259210
  H    -43.701300   -1.789430  -12.546600
  C    -46.162700   -2.784030  -11.031000
  H    -46.856100   -1.943730  -11.193600
  H    -46.337100   -3.386130  -10.117000
  C    -46.095400   -3.615860  -12.288400
  H    -45.450700   -4.445490  -12.108500
  H    -45.631600   -3.214270  -13.178900
  C    -47.456200   -4.148860  -12.796200
  H    -48.050600   -4.900360  -12.159700
  H    -47.251400   -4.621830  -13.788000
  H    -48.099600   -3.300790  -12.982000
  H    -47.414100   -2.419630   -5.113650
  H    -42.036500   -0.441643  -11.373800

 Total Charge           Charge          ....    0
 Multiplicity           Mult            ....    1
 Number of Electrons    NEL             ....  134
 Basis Dimension        Dim             ....  322

ORBITAL ENERGIES
----------------

  NO   OCC          E(Eh)            E(eV)
   0   2.0000     -88.967050     -2420.9165
   1   2.0000     -88.965286     -2420.8685
   2   2.0000     -10.333724      -281.1949
   3   2.0000     -10.333627      -281.1923
   4   2.0000     -10.319217      -280.8002
   5   2.0000     -10.314478      -280.6712
   6   2.0000     -10.310853      -280.5726
   7   2.0000     -10.309620      -280.5390
   8   2.0000     -10.301322      -280.3132
   9   2.0000     -10.299857      -280.2734
  10   2.0000     -10.297385      -280.2061
  11   2.0000     -10.294683      -280.1326
  12   2.0000     -10.292620      -280.0764
  13   2.0000     -10.286527      -279.9106
  14   2.0000     -10.284498      -279.8554
  15   2.0000     -10.279169      -279.7104
  16   2.0000      -8.080562      -219.8833
  17   2.0000      -8.080208      -219.8736
  18   2.0000      -6.039245      -164.3362
  19   2.0000      -6.038735      -164.3223
  20   2.0000      -6.035114      -164.2238
  21   2.0000      -6.034651      -164.2112
  22   2.0000      -6.031321      -164.1206
  23   2.0000      -6.030981      -164.1113
  24   2.0000      -1.000858       -27.2347
  25   2.0000      -0.978349       -26.6222
  26   2.0000      -0.908558       -24.7231
  27   2.0000      -0.905960       -24.6524
  28   2.0000      -0.868126       -23.6229
  29   2.0000      -0.846488       -23.0341
  30   2.0000      -0.840920       -22.8826
  31   2.0000      -0.816618       -22.2213
  32   2.0000      -0.783060       -21.3082
  33   2.0000      -0.768803       -20.9202
  34   2.0000      -0.704728       -19.1766
  35   2.0000      -0.700618       -19.0648
  36   2.0000      -0.696864       -18.9626
  37   2.0000      -0.651250       -17.7214
  38   2.0000      -0.641083       -17.4448
  39   2.0000      -0.607330       -16.5263
  40   2.0000      -0.588225       -16.0064
  41   2.0000      -0.574741       -15.6395
  42   2.0000      -0.570819       -15.5328
  43   2.0000      -0.546913       -14.8823
  44   2.0000      -0.535422       -14.5696
  45   2.0000      -0.529752       -14.4153
  46   2.0000      -0.514404       -13.9976
  47   2.0000      -0.508452       -13.8357
  48   2.0000      -0.502462       -13.6727
  49   2.0000      -0.497593       -13.5402
  50   2.0000      -0.492594       -13.4042
  51   2.0000      -0.475298       -12.9335
  52   2.0000      -0.467941       -12.7333
  53   2.0000      -0.464062       -12.6278
  54   2.0000      -0.461262       -12.5516
  55   2.0000      -0.447194       -12.1688
  56   2.0000      -0.445202       -12.1146
  57   2.0000      -0.432101       -11.7581
  58   2.0000      -0.427293       -11.6272
  59   2.0000      -0.423102       -11.5132
  60   2.0000      -0.420803       -11.4506
  61   2.0000      -0.410849       -11.1798
  62   2.0000      -0.408948       -11.1281
  63   2.0000      -0.347047        -9.4436
  64   2.0000      -0.330663        -8.9978
  65   2.0000      -0.327269        -8.9054
  66   2.0000      -0.294834        -8.0228
  67   0.0000       0.031259         0.8506
  68   0.0000       0.062990         1.7141
  69   0.0000       0.110426         3.0049
  70   0.0000       0.123220         3.3530
  71   0.0000       0.129380         3.5206

MULLIKEN ATOMIC CHARGES
-----------------------
   0 S :    0.104167
   1 C :   -0.115732
   2 C :   -0.051918
   3 C :    0.021726
   4 C :   -0.181722
   5 H :    0.029539
   6 C :    0.048036
   7 H :    0.014966
   8 H :    0.048270
   9 C :   -0.079680
  10 H :    0.025589
  11 H :    0.041449
  12 C :   -0.069338
  13 H :    0.033394
  14 H :    0.025431
  15 H :    0.045062
  16 S :    0.104149
  17 C :   -0.083681
  18 C :   -0.064431
  19 C :   -0.078377
  20 C :   -0.157621
  21 H :    0.038186
  22 C :    0.082049
  23 H :    0.038817
  24 H :    0.065924
  25 C :   -0.061591
  26 H :    0.019912
  27 H :    0.022191
  28 C :   -0.081796
  29 H :    0.049851
  30 H :    0.036723
  31 H :    0.027605
  32 H :    0.043664
  33 H :    0.059184
Sum of atomic charges:    0.0000000

LOEWDIN ATOMIC CHARGES
----------------------
   0 S :    0.396241
   1 C :   -0.177731
   2 C :   -0.062915
   3 C :   -0.059278
   4 C :   -0.195198
   5 H :    0.038386
   6 C :   -0.040027
   7 H :    0.026252
   8 H :    0.041958
   9 C :   -0.041587
  10 H :    0.017437
  11 H :    0.032510
  12 C :   -0.072180
  13 H :    0.033691
  14 H :    0.023827
  15 H :    0.020870
  16 S :    0.390128
  17 C :   -0.184412
  18 C :   -0.083408
  19 C :   -0.051418
  20 C :   -0.207430
  21 H :    0.038923
  22 C :   -0.036759
  23 H :    0.036301
  24 H :    0.047064
  25 C :   -0.048444
  26 H :    0.022938
  27 H :    0.024844
  28 C :   -0.069507
  29 H :    0.032254
  30 H :    0.030730
  31 H :    0.019592
  32 H :    0.022235
  33 H :    0.034114

  Mayer bond orders larger than 0.100000
B(  0-S ,  1-C ) :   1.1376 B(  0-S ,  4-C ) :   1.1377 B(  1-C ,  2-C ) :   1.6267
B(  1-C , 32-H ) :   0.9770 B(  2-C ,  3-C ) :   1.2002 B(  2-C ,  6-C ) :   1.0119
B(  3-C ,  4-C ) :   1.6195 B(  3-C ,  5-H ) :   0.9818 B(  4-C , 20-C ) :   1.0343
B(  6-C ,  7-H ) :   0.9408 B(  6-C ,  8-H ) :   0.9524 B(  6-C ,  9-C ) :   1.0627
B(  9-C , 10-H ) :   0.9584 B(  9-C , 11-H ) :   0.9590 B(  9-C , 12-C ) :   1.0771
B( 12-C , 13-H ) :   0.9726 B( 12-C , 14-H ) :   0.9775 B( 12-C , 15-H ) :   0.9706
B( 16-S , 17-C ) :   1.1520 B( 16-S , 20-C ) :   1.1357 B( 17-C , 18-C ) :   1.6169
B( 17-C , 20-C ) :   0.1004 B( 17-C , 33-H ) :   0.9608 B( 18-C , 19-C ) :   1.2559
B( 18-C , 21-H ) :   0.9771 B( 19-C , 20-C ) :   1.5717 B( 19-C , 22-C ) :   1.0105
B( 22-C , 23-H ) :   0.9287 B( 22-C , 24-H ) :   0.9337 B( 22-C , 25-C ) :   1.0795
B( 25-C , 26-H ) :   0.9487 B( 25-C , 27-H ) :   0.9498 B( 25-C , 28-C ) :   1.0813
B( 28-C , 29-H ) :   0.9760 B( 28-C , 30-H ) :   0.9751 B( 28-C , 31-H ) :   0.9760

Dispersion correction           -0.014276256
FINAL SINGLE POINT ENERGY     -1339.864520946963

DIPOLE MOMENT
-------------
                                X             Y             Z
Electronic contribution:     26.55352       7.33562      12.87518
Nuclear contribution   :    -27.14819      -7.29847     -13.30026
                        -----------------------------------------
Total Dipole Moment    :     -0.59467       0.03716      -0.42508
                        -----------------------------------------
Magnitude (a.u.)       :      0.73192
Magnitude (Debye)      :      1.86039

Rotational constants in cm-1:     0.016656     0.009145     0.006581
Rotational constants in MHz :   499.342047   274.168774   197.290108

                             ****ORCA TERMINATED NORMALLY****
TOTAL RUN TIME: 0 days 0 hours 0 minutes 21 seconds 407 msec
