                         Program Version 4.2.1 -  RELEASE  -
|  1> ! wB97X-D3 SP def2-SVP
|  2> %pal
|  3> nprocs 24
|  4> end
|  5>
|  6> * xyz 0 1
|  7> S 	 -124.219 	 54.7866 	 -32.4625
|  8> C 	 -124.128 	 53.0859 	 -32.4565
|  9> C 	 -123.005 	 52.6204 	 -33.1452
| 10> C 	 -122.194 	 53.6428 	 -33.6813
| 11> C 	 -122.744 	 54.9005 	 -33.4329
| 12> H 	 -121.287 	 53.5438 	 -34.235
| 13> C 	 -122.626 	 51.1499 	 -33.4146
| 14> H 	 -123.474 	 50.4667 	 -33.119
| 15> H 	 -121.93 	 50.9266 	 -32.5904
| 16> C 	 -122.194 	 50.7573 	 -34.8009
| 17> H 	 -121.154 	 51.1309 	 -34.9001
| 18> H 	 -122.149 	 49.6736 	 -34.7451
| 19> C 	 -122.998 	 51.151 	 -36.0221
| 20> H 	 -124.02 	 51.4269 	 -35.7098
| 21> H 	 -122.522 	 51.9859 	 -36.5853
| 22> H 	 -123.132 	 50.3531 	 -36.7032
| 23> S 	 -121.383 	 57.1796 	 -32.539
| 24> C 	 -120.647 	 58.2103 	 -33.7574
| 25> C 	 -120.997 	 57.8561 	 -35.0728
| 26> C 	 -121.854 	 56.677 	 -35.1182
| 27> C 	 -122.067 	 56.2055 	 -33.8132
| 28> H 	 -120.768 	 58.4465 	 -35.9223
| 29> C 	 -122.29 	 56.0219 	 -36.463
| 30> H 	 -121.843 	 55.0707 	 -36.5582
| 31> H 	 -121.927 	 56.6074 	 -37.2754
| 32> C 	 -123.854 	 55.8529 	 -36.5596
| 33> H 	 -124.303 	 55.1972 	 -35.815
| 34> H 	 -123.953 	 55.3655 	 -37.6088
| 35> C 	 -124.487 	 57.2408 	 -36.5306
| 36> H 	 -125.584 	 57.0462 	 -36.5366
| 37> H 	 -124.239 	 57.8698 	 -37.3858
| 38> H 	 -124.204 	 57.828 	 -35.6467
| 39> H 	 -124.913 	 52.3571 	 -32.0035
| 40> H 	 -120.089 	 59.1922 	 -33.5653
| 41> *
| 42>
| 43>                          ****END OF INPUT****

CARTESIAN COORDINATES (ANGSTROEM)
---------------------------------
  S    -124.219000   54.786600  -32.462500
  C    -124.128000   53.085900  -32.456500
  C    -123.005000   52.620400  -33.145200
  C    -122.194000   53.642800  -33.681300
  C    -122.744000   54.900500  -33.432900
  H    -121.287000   53.543800  -34.235000
  C    -122.626000   51.149900  -33.414600
  H    -123.474000   50.466700  -33.119000
  H    -121.930000   50.926600  -32.590400
  C    -122.194000   50.757300  -34.800900
  H    -121.154000   51.130900  -34.900100
  H    -122.149000   49.673600  -34.745100
  C    -122.998000   51.151000  -36.022100
  H    -124.020000   51.426900  -35.709800
  H    -122.522000   51.985900  -36.585300
  H    -123.132000   50.353100  -36.703200
  S    -121.383000   57.179600  -32.539000
  C    -120.647000   58.210300  -33.757400
  C    -120.997000   57.856100  -35.072800
  C    -121.854000   56.677000  -35.118200
  C    -122.067000   56.205500  -33.813200
  H    -120.768000   58.446500  -35.922300
  C    -122.290000   56.021900  -36.463000
  H    -121.843000   55.070700  -36.558200
  H    -121.927000   56.607400  -37.275400
  C    -123.854000   55.852900  -36.559600
  H    -124.303000   55.197200  -35.815000
  H    -123.953000   55.365500  -37.608800
  C    -124.487000   57.240800  -36.530600
  H    -125.584000   57.046200  -36.536600
  H    -124.239000   57.869800  -37.385800
  H    -124.204000   57.828000  -35.646700
  H    -124.913000   52.357100  -32.003500
  H    -120.089000   59.192200  -33.565300

 Total Charge           Charge          ....    0
 Multiplicity           Mult            ....    1
 Number of Electrons    NEL             ....  134
 Basis Dimension        Dim             ....  322

ORBITAL ENERGIES
----------------

  NO   OCC          E(Eh)            E(eV)
   0   2.0000     -88.971191     -2421.0292
   1   2.0000     -88.970176     -2421.0016
   2   2.0000     -10.331619      -281.1376
   3   2.0000     -10.328416      -281.0505
   4   2.0000     -10.324098      -280.9330
   5   2.0000     -10.317870      -280.7635
   6   2.0000     -10.307352      -280.4773
   7   2.0000     -10.299313      -280.2586
   8   2.0000     -10.295525      -280.1555
   9   2.0000     -10.294615      -280.1307
  10   2.0000     -10.291400      -280.0432
  11   2.0000     -10.290392      -280.0158
  12   2.0000     -10.290187      -280.0102
  13   2.0000     -10.286802      -279.9181
  14   2.0000     -10.278052      -279.6800
  15   2.0000     -10.272569      -279.5308
  16   2.0000      -8.085427      -220.0156
  17   2.0000      -8.084827      -219.9993
  18   2.0000      -6.043887      -164.4625
  19   2.0000      -6.043208      -164.4440
  20   2.0000      -6.040075      -164.3588
  21   2.0000      -6.039263      -164.3367
  22   2.0000      -6.036206      -164.2535
  23   2.0000      -6.035826      -164.2432
  24   2.0000      -1.001274       -27.2461
  25   2.0000      -0.980265       -26.6744
  26   2.0000      -0.911448       -24.8018
  27   2.0000      -0.901552       -24.5325
  28   2.0000      -0.858129       -23.3509
  29   2.0000      -0.850926       -23.1549
  30   2.0000      -0.842496       -22.9255
  31   2.0000      -0.808236       -21.9932
  32   2.0000      -0.784114       -21.3368
  33   2.0000      -0.769672       -20.9438
  34   2.0000      -0.700894       -19.0723
  35   2.0000      -0.690962       -18.8020
  36   2.0000      -0.676258       -18.4019
  37   2.0000      -0.657684       -17.8965
  38   2.0000      -0.636594       -17.3226
  39   2.0000      -0.617937       -16.8149
  40   2.0000      -0.590759       -16.0754
  41   2.0000      -0.559631       -15.2283
  42   2.0000      -0.555239       -15.1088
  43   2.0000      -0.549628       -14.9561
  44   2.0000      -0.540843       -14.7171
  45   2.0000      -0.532974       -14.5030
  46   2.0000      -0.514560       -14.0019
  47   2.0000      -0.503008       -13.6875
  48   2.0000      -0.494138       -13.4462
  49   2.0000      -0.488529       -13.2935
  50   2.0000      -0.487455       -13.2643
  51   2.0000      -0.475960       -12.9515
  52   2.0000      -0.471786       -12.8379
  53   2.0000      -0.464877       -12.6499
  54   2.0000      -0.460928       -12.5425
  55   2.0000      -0.451610       -12.2889
  56   2.0000      -0.446856       -12.1596
  57   2.0000      -0.442897       -12.0518
  58   2.0000      -0.433583       -11.7984
  59   2.0000      -0.422784       -11.5045
  60   2.0000      -0.411950       -11.2097
  61   2.0000      -0.407089       -11.0775
  62   2.0000      -0.405575       -11.0362
  63   2.0000      -0.342020        -9.3068
  64   2.0000      -0.331036        -9.0080
  65   2.0000      -0.322312        -8.7706
  66   2.0000      -0.297865        -8.1053
  67   0.0000       0.038933         1.0594
  68   0.0000       0.061510         1.6738
  69   0.0000       0.114702         3.1212
  70   0.0000       0.118869         3.2346
  71   0.0000       0.127761         3.4766

MULLIKEN ATOMIC CHARGES
-----------------------
   0 S :    0.126735
   1 C :   -0.155413
   2 C :   -0.092758
   3 C :    0.054216
   4 C :   -0.191162
   5 H :    0.009784
   6 C :    0.036068
   7 H :    0.012901
   8 H :    0.046438
   9 C :   -0.081481
  10 H :    0.032202
  11 H :    0.031159
  12 C :   -0.028830
  13 H :    0.034417
  14 H :    0.041530
  15 H :    0.025930
  16 S :    0.135236
  17 C :   -0.124886
  18 C :   -0.022598
  19 C :   -0.072778
  20 C :   -0.181311
  21 H :    0.009147
  22 C :    0.132627
  23 H :    0.019823
  24 H :    0.005739
  25 C :   -0.108831
  26 H :    0.054602
  27 H :    0.037678
  28 C :   -0.065306
  29 H :    0.039213
  30 H :    0.025707
  31 H :    0.051432
  32 H :    0.080866
  33 H :    0.081904
Sum of atomic charges:   -0.0000000

LOEWDIN ATOMIC CHARGES
----------------------
   0 S :    0.421014
   1 C :   -0.237757
   2 C :   -0.071096
   3 C :   -0.055815
   4 C :   -0.191939
   5 H :    0.031046
   6 C :   -0.042058
   7 H :    0.027833
   8 H :    0.040179
   9 C :   -0.051701
  10 H :    0.025283
  11 H :    0.029779
  12 C :   -0.065655
  13 H :    0.031388
  14 H :    0.032336
  15 H :    0.022892
  16 S :    0.415472
  17 C :   -0.203826
  18 C :   -0.069290
  19 C :   -0.051894
  20 C :   -0.209774
  21 H :    0.024262
  22 C :   -0.021143
  23 H :    0.023457
  24 H :    0.024776
  25 C :   -0.038998
  26 H :    0.025113
  27 H :    0.032052
  28 C :   -0.073016
  29 H :    0.030287
  30 H :    0.022112
  31 H :    0.028959
  32 H :    0.050655
  33 H :    0.045063

  Mayer bond orders larger than 0.100000
B(  0-S ,  1-C ) :   1.1501 B(  0-S ,  4-C ) :   1.1665 B(  1-C ,  2-C ) :   1.6004
B(  1-C , 32-H ) :   0.9508 B(  2-C ,  3-C ) :   1.2561 B(  2-C ,  6-C ) :   1.0054
B(  3-C ,  4-C ) :   1.5620 B(  3-C ,  5-H ) :   0.9987 B(  4-C , 20-C ) :   0.9978
B(  6-C ,  7-H ) :   0.9423 B(  6-C ,  8-H ) :   0.9372 B(  6-C ,  9-C ) :   1.0839
B(  9-C , 10-H ) :   0.9525 B(  9-C , 11-H ) :   0.9549 B(  9-C , 12-C ) :   1.0697
B( 12-C , 13-H ) :   0.9761 B( 12-C , 14-H ) :   0.9740 B( 12-C , 15-H ) :   0.9750
B( 16-S , 17-C ) :   1.1503 B( 16-S , 20-C ) :   1.1578 B( 17-C , 18-C ) :   1.6163
B( 17-C , 33-H ) :   0.9549 B( 18-C , 19-C ) :   1.2437 B( 18-C , 21-H ) :   0.9872
B( 19-C , 20-C ) :   1.5975 B( 19-C , 22-C ) :   1.0251 B( 22-C , 23-H ) :   0.9335
B( 22-C , 24-H ) :   0.9365 B( 22-C , 25-C ) :   1.0634 B( 25-C , 26-H ) :   0.9584
B( 25-C , 27-H ) :   0.9559 B( 25-C , 28-C ) :   1.0690 B( 28-C , 29-H ) :   0.9746
B( 28-C , 30-H ) :   0.9751 B( 28-C , 31-H ) :   0.9719

Dispersion correction           -0.016198775
FINAL SINGLE POINT ENERGY     -1339.876371510548

DIPOLE MOMENT
-------------
                                X             Y             Z
Electronic contribution:      3.56914      13.67376      21.05954
Nuclear contribution   :     -3.45969     -14.05989     -21.55178
                        -----------------------------------------
Total Dipole Moment    :      0.10945      -0.38613      -0.49224
                        -----------------------------------------
Magnitude (a.u.)       :      0.63511
Magnitude (Debye)      :      1.61433

Rotational constants in cm-1:     0.018873     0.009587     0.008249
Rotational constants in MHz :   565.789645   287.405116   247.288186

                             ****ORCA TERMINATED NORMALLY****
TOTAL RUN TIME: 0 days 0 hours 0 minutes 21 seconds 655 msec
