                         Program Version 4.2.1 -  RELEASE  -
|  1> ! wB97X-D3 SP def2-SVP
|  2> %pal
|  3> nprocs 24
|  4> end
|  5>
|  6> * xyz 0 1
|  7> S 	 -107.71 	 58.6161 	 -92.7646
|  8> C 	 -106.69 	 59.0701 	 -91.3749
|  9> C 	 -105.65 	 59.9093 	 -91.7467
| 10> C 	 -105.673 	 60.1524 	 -93.1725
| 11> C 	 -106.679 	 59.4703 	 -93.8775
| 12> H 	 -104.914 	 60.6726 	 -93.7095
| 13> C 	 -104.613 	 60.5726 	 -90.8486
| 14> H 	 -103.638 	 60.0855 	 -91.0245
| 15> H 	 -104.86 	 60.3773 	 -89.7795
| 16> C 	 -104.602 	 62.1725 	 -90.992
| 17> H 	 -103.728 	 62.5291 	 -90.4621
| 18> H 	 -104.564 	 62.4503 	 -92.1244
| 19> C 	 -105.905 	 62.8659 	 -90.4643
| 20> H 	 -105.893 	 63.9044 	 -90.6033
| 21> H 	 -106.855 	 62.5178 	 -90.9931
| 22> H 	 -106.172 	 62.6596 	 -89.4712
| 23> S 	 -107.441 	 61.0102 	 -96.0174
| 24> C 	 -107.401 	 60.3093 	 -97.6305
| 25> C 	 -107.088 	 58.9264 	 -97.5638
| 26> C 	 -106.812 	 58.5314 	 -96.2489
| 27> C 	 -106.866 	 59.4825 	 -95.3516
| 28> H 	 -107.34 	 58.3196 	 -98.4033
| 29> C 	 -106.308 	 57.1277 	 -95.9568
| 30> H 	 -106.259 	 57.0227 	 -94.9055
| 31> H 	 -105.234 	 57.0016 	 -96.2964
| 32> C 	 -107.281 	 55.9956 	 -96.4137
| 33> H 	 -107.381 	 56.0133 	 -97.5564
| 34> H 	 -108.267 	 56.2646 	 -96.051
| 35> C 	 -106.645 	 54.6076 	 -96.2295
| 36> H 	 -105.84 	 54.4646 	 -96.9261
| 37> H 	 -107.327 	 53.7944 	 -96.3199
| 38> H 	 -106.3 	 54.5846 	 -95.202
| 39> H 	 -106.804 	 58.7835 	 -90.3163
| 40> H 	 -107.699 	 60.7966 	 -98.5641
| 41> *
| 42>
| 43>                          ****END OF INPUT****

CARTESIAN COORDINATES (ANGSTROEM)
---------------------------------
  S    -107.710000   58.616100  -92.764600
  C    -106.690000   59.070100  -91.374900
  C    -105.650000   59.909300  -91.746700
  C    -105.673000   60.152400  -93.172500
  C    -106.679000   59.470300  -93.877500
  H    -104.914000   60.672600  -93.709500
  C    -104.613000   60.572600  -90.848600
  H    -103.638000   60.085500  -91.024500
  H    -104.860000   60.377300  -89.779500
  C    -104.602000   62.172500  -90.992000
  H    -103.728000   62.529100  -90.462100
  H    -104.564000   62.450300  -92.124400
  C    -105.905000   62.865900  -90.464300
  H    -105.893000   63.904400  -90.603300
  H    -106.855000   62.517800  -90.993100
  H    -106.172000   62.659600  -89.471200
  S    -107.441000   61.010200  -96.017400
  C    -107.401000   60.309300  -97.630500
  C    -107.088000   58.926400  -97.563800
  C    -106.812000   58.531400  -96.248900
  C    -106.866000   59.482500  -95.351600
  H    -107.340000   58.319600  -98.403300
  C    -106.308000   57.127700  -95.956800
  H    -106.259000   57.022700  -94.905500
  H    -105.234000   57.001600  -96.296400
  C    -107.281000   55.995600  -96.413700
  H    -107.381000   56.013300  -97.556400
  H    -108.267000   56.264600  -96.051000
  C    -106.645000   54.607600  -96.229500
  H    -105.840000   54.464600  -96.926100
  H    -107.327000   53.794400  -96.319900
  H    -106.300000   54.584600  -95.202000
  H    -106.804000   58.783500  -90.316300
  H    -107.699000   60.796600  -98.564100

 Total Charge           Charge          ....    0
 Multiplicity           Mult            ....    1
 Number of Electrons    NEL             ....  134
 Basis Dimension        Dim             ....  322

ORBITAL ENERGIES
----------------

  NO   OCC          E(Eh)            E(eV)
   0   2.0000     -88.970148     -2421.0008
   1   2.0000     -88.965341     -2420.8700
   2   2.0000     -10.332570      -281.1635
   3   2.0000     -10.322695      -280.8948
   4   2.0000     -10.320337      -280.8307
   5   2.0000     -10.318947      -280.7928
   6   2.0000     -10.304166      -280.3906
   7   2.0000     -10.303873      -280.3826
   8   2.0000     -10.303804      -280.3808
   9   2.0000     -10.294061      -280.1157
  10   2.0000     -10.291759      -280.0530
  11   2.0000     -10.290969      -280.0315
  12   2.0000     -10.290784      -280.0265
  13   2.0000     -10.288209      -279.9564
  14   2.0000     -10.274180      -279.5747
  15   2.0000     -10.273975      -279.5691
  16   2.0000      -8.083838      -219.9724
  17   2.0000      -8.079828      -219.8633
  18   2.0000      -6.042535      -164.4257
  19   2.0000      -6.038365      -164.3123
  20   2.0000      -6.038361      -164.3122
  21   2.0000      -6.034595      -164.2097
  22   2.0000      -6.034402      -164.2044
  23   2.0000      -6.030526      -164.0990
  24   2.0000      -1.007276       -27.4094
  25   2.0000      -0.981504       -26.7081
  26   2.0000      -0.904588       -24.6151
  27   2.0000      -0.900477       -24.5032
  28   2.0000      -0.862405       -23.4672
  29   2.0000      -0.852464       -23.1967
  30   2.0000      -0.840724       -22.8773
  31   2.0000      -0.809806       -22.0360
  32   2.0000      -0.781515       -21.2661
  33   2.0000      -0.773909       -21.0591
  34   2.0000      -0.704529       -19.1712
  35   2.0000      -0.698062       -18.9952
  36   2.0000      -0.691261       -18.8102
  37   2.0000      -0.665279       -18.1032
  38   2.0000      -0.634089       -17.2544
  39   2.0000      -0.616689       -16.7810
  40   2.0000      -0.595367       -16.2008
  41   2.0000      -0.565710       -15.3938
  42   2.0000      -0.563186       -15.3251
  43   2.0000      -0.546835       -14.8801
  44   2.0000      -0.531617       -14.4660
  45   2.0000      -0.522665       -14.2224
  46   2.0000      -0.520665       -14.1680
  47   2.0000      -0.510892       -13.9021
  48   2.0000      -0.504812       -13.7366
  49   2.0000      -0.496463       -13.5094
  50   2.0000      -0.482178       -13.1207
  51   2.0000      -0.474174       -12.9029
  52   2.0000      -0.469613       -12.7788
  53   2.0000      -0.461780       -12.5657
  54   2.0000      -0.458783       -12.4841
  55   2.0000      -0.449845       -12.2409
  56   2.0000      -0.441918       -12.0252
  57   2.0000      -0.441163       -12.0047
  58   2.0000      -0.436993       -11.8912
  59   2.0000      -0.421259       -11.4630
  60   2.0000      -0.418205       -11.3799
  61   2.0000      -0.416681       -11.3385
  62   2.0000      -0.403102       -10.9690
  63   2.0000      -0.337824        -9.1927
  64   2.0000      -0.330043        -8.9809
  65   2.0000      -0.328549        -8.9403
  66   2.0000      -0.305538        -8.3141
  67   0.0000       0.038756         1.0546
  68   0.0000       0.061142         1.6637
  69   0.0000       0.110041         2.9944
  70   0.0000       0.116977         3.1831
  71   0.0000       0.124817         3.3964

MULLIKEN ATOMIC CHARGES
-----------------------
   0 S :    0.121008
   1 C :   -0.133339
   2 C :   -0.087583
   3 C :    0.035760
   4 C :   -0.177342
   5 H :    0.007911
   6 C :    0.049601
   7 H :    0.052611
   8 H :    0.022359
   9 C :   -0.103282
  10 H :    0.040615
  11 H :    0.053817
  12 C :   -0.045919
  13 H :    0.029870
  14 H :    0.042442
  15 H :    0.015045
  16 S :    0.114339
  17 C :   -0.110075
  18 C :   -0.032245
  19 C :   -0.012008
  20 C :   -0.165515
  21 H :    0.021244
  22 C :    0.070911
  23 H :    0.007934
  24 H :    0.047552
  25 C :   -0.133653
  26 H :    0.030321
  27 H :    0.036673
  28 C :    0.000206
  29 H :    0.034358
  30 H :    0.028752
  31 H :    0.022240
  32 H :    0.051936
  33 H :    0.063457
Sum of atomic charges:    0.0000000

LOEWDIN ATOMIC CHARGES
----------------------
   0 S :    0.400876
   1 C :   -0.198069
   2 C :   -0.064930
   3 C :   -0.059349
   4 C :   -0.198903
   5 H :    0.024914
   6 C :   -0.034648
   7 H :    0.036498
   8 H :    0.030139
   9 C :   -0.036954
  10 H :    0.022785
  11 H :    0.035604
  12 C :   -0.068805
  13 H :    0.020251
  14 H :    0.038494
  15 H :    0.014436
  16 S :    0.400568
  17 C :   -0.177653
  18 C :   -0.067619
  19 C :   -0.067814
  20 C :   -0.193344
  21 H :    0.029206
  22 C :   -0.027574
  23 H :    0.016102
  24 H :    0.039648
  25 C :   -0.043525
  26 H :    0.023859
  27 H :    0.024066
  28 C :   -0.057503
  29 H :    0.026661
  30 H :    0.023003
  31 H :    0.023194
  32 H :    0.034772
  33 H :    0.031614

  Mayer bond orders larger than 0.100000
B(  0-S ,  1-C ) :   1.1287 B(  0-S ,  4-C ) :   1.1448 B(  1-C ,  2-C ) :   1.6299
B(  1-C , 32-H ) :   0.9596 B(  2-C ,  3-C ) :   1.2272 B(  2-C ,  6-C ) :   1.0204
B(  3-C ,  4-C ) :   1.5856 B(  3-C ,  5-H ) :   0.9914 B(  4-C , 20-C ) :   0.9997
B(  6-C ,  7-H ) :   0.9430 B(  6-C ,  8-H ) :   0.9459 B(  6-C ,  9-C ) :   1.0503
B(  9-C , 10-H ) :   0.9598 B(  9-C , 11-H ) :   0.9587 B(  9-C , 12-C ) :   1.0623
B( 12-C , 13-H ) :   0.9766 B( 12-C , 14-H ) :   0.9732 B( 12-C , 15-H ) :   0.9766
B( 16-S , 17-C ) :   1.1632 B( 16-S , 20-C ) :   1.1280 B( 17-C , 18-C ) :   1.6118
B( 17-C , 33-H ) :   0.9647 B( 18-C , 19-C ) :   1.2204 B( 18-C , 21-H ) :   0.9909
B( 19-C , 20-C ) :   1.6624 B( 19-C , 22-C ) :   1.0407 B( 22-C , 23-H ) :   0.9232
B( 22-C , 24-H ) :   0.9418 B( 22-C , 25-C ) :   1.0428 B( 25-C , 26-H ) :   0.9613
B( 25-C , 27-H ) :   0.9609 B( 25-C , 28-C ) :   1.0649 B( 28-C , 29-H ) :   0.9756
B( 28-C , 30-H ) :   0.9736 B( 28-C , 31-H ) :   0.9748

Dispersion correction           -0.014459393
FINAL SINGLE POINT ENERGY     -1339.868844416732

DIPOLE MOMENT
-------------
                                X             Y             Z
Electronic contribution:     -9.05882       5.80072      -6.00485
Nuclear contribution   :      9.34531      -5.91821       6.08298
                        -----------------------------------------
Total Dipole Moment    :      0.28649      -0.11749       0.07813
                        -----------------------------------------
Magnitude (a.u.)       :      0.31935
Magnitude (Debye)      :      0.81173

Rotational constants in cm-1:     0.021084     0.008095     0.006523
Rotational constants in MHz :   632.080901   242.679986   195.543992

                             ****ORCA TERMINATED NORMALLY****
TOTAL RUN TIME: 0 days 0 hours 0 minutes 21 seconds 180 msec
