                         Program Version 4.2.1 -  RELEASE  -
|  1> ! wB97X-D3 SP def2-SVP
|  2> %pal
|  3> nprocs 24
|  4> end
|  5>
|  6> * xyz 0 1
|  7> S 	 27.3247 	 -6.70752 	 -110.993
|  8> C 	 27.3793 	 -8.35331 	 -111.515
|  9> C 	 26.0758 	 -8.77348 	 -111.77
| 10> C 	 25.0922 	 -7.75607 	 -111.587
| 11> C 	 25.6079 	 -6.57247 	 -111.186
| 12> H 	 24.0045 	 -7.80717 	 -111.818
| 13> C 	 25.7054 	 -10.1628 	 -112.214
| 14> H 	 24.6014 	 -10.3232 	 -112.122
| 15> H 	 26.252 	 -10.8701 	 -111.599
| 16> C 	 26.1983 	 -10.4237 	 -113.619
| 17> H 	 27.246 	 -10.2166 	 -113.737
| 18> H 	 26.0716 	 -11.5302 	 -113.826
| 19> C 	 25.4067 	 -9.60667 	 -114.638
| 20> H 	 25.6021 	 -10.0485 	 -115.612
| 21> H 	 24.3538 	 -9.85178 	 -114.565
| 22> H 	 25.5373 	 -8.55721 	 -114.646
| 23> S 	 25.1199 	 -4.10633 	 -112.432
| 24> C 	 24.1183 	 -2.92891 	 -111.565
| 25> C 	 23.3596 	 -3.57265 	 -110.627
| 26> C 	 23.7603 	 -4.95827 	 -110.416
| 27> C 	 24.8412 	 -5.34165 	 -111.205
| 28> H 	 22.5123 	 -3.08067 	 -110.165
| 29> C 	 23.1131 	 -5.75498 	 -109.29
| 30> H 	 23.8964 	 -5.68355 	 -108.452
| 31> H 	 22.994 	 -6.81843 	 -109.415
| 32> C 	 21.7327 	 -5.22676 	 -108.766
| 33> H 	 20.9891 	 -5.41809 	 -109.544
| 34> H 	 21.767 	 -4.15216 	 -108.63
| 35> C 	 21.2481 	 -6.00862 	 -107.553
| 36> H 	 21.4356 	 -7.09047 	 -107.615
| 37> H 	 20.2066 	 -5.78745 	 -107.188
| 38> H 	 21.9994 	 -5.71204 	 -106.853
| 39> H 	 28.1682 	 -9.06505 	 -111.59
| 40> H 	 23.801 	 -1.96257 	 -111.945
| 41> *
| 42>
| 43>                          ****END OF INPUT****

CARTESIAN COORDINATES (ANGSTROEM)
---------------------------------
  S     27.324700   -6.707520  -110.993000
  C     27.379300   -8.353310  -111.515000
  C     26.075800   -8.773480  -111.770000
  C     25.092200   -7.756070  -111.587000
  C     25.607900   -6.572470  -111.186000
  H     24.004500   -7.807170  -111.818000
  C     25.705400  -10.162800  -112.214000
  H     24.601400  -10.323200  -112.122000
  H     26.252000  -10.870100  -111.599000
  C     26.198300  -10.423700  -113.619000
  H     27.246000  -10.216600  -113.737000
  H     26.071600  -11.530200  -113.826000
  C     25.406700   -9.606670  -114.638000
  H     25.602100  -10.048500  -115.612000
  H     24.353800   -9.851780  -114.565000
  H     25.537300   -8.557210  -114.646000
  S     25.119900   -4.106330  -112.432000
  C     24.118300   -2.928910  -111.565000
  C     23.359600   -3.572650  -110.627000
  C     23.760300   -4.958270  -110.416000
  C     24.841200   -5.341650  -111.205000
  H     22.512300   -3.080670  -110.165000
  C     23.113100   -5.754980  -109.290000
  H     23.896400   -5.683550  -108.452000
  H     22.994000   -6.818430  -109.415000
  C     21.732700   -5.226760  -108.766000
  H     20.989100   -5.418090  -109.544000
  H     21.767000   -4.152160  -108.630000
  C     21.248100   -6.008620  -107.553000
  H     21.435600   -7.090470  -107.615000
  H     20.206600   -5.787450  -107.188000
  H     21.999400   -5.712040  -106.853000
  H     28.168200   -9.065050  -111.590000
  H     23.801000   -1.962570  -111.945000

 Total Charge           Charge          ....    0
 Multiplicity           Mult            ....    1
 Number of Electrons    NEL             ....  134
 Basis Dimension        Dim             ....  322

ORBITAL ENERGIES
----------------

  NO   OCC          E(Eh)            E(eV)
   0   2.0000     -88.968841     -2420.9652
   1   2.0000     -88.962961     -2420.8052
   2   2.0000     -10.327466      -281.0246
   3   2.0000     -10.323412      -280.9143
   4   2.0000     -10.316964      -280.7389
   5   2.0000     -10.312742      -280.6240
   6   2.0000     -10.308518      -280.5090
   7   2.0000     -10.298910      -280.2476
   8   2.0000     -10.298090      -280.2253
   9   2.0000     -10.294527      -280.1283
  10   2.0000     -10.292143      -280.0634
  11   2.0000     -10.289304      -279.9862
  12   2.0000     -10.289144      -279.9819
  13   2.0000     -10.286157      -279.9006
  14   2.0000     -10.281140      -279.7641
  15   2.0000     -10.268068      -279.4083
  16   2.0000      -8.083711      -219.9690
  17   2.0000      -8.077209      -219.7920
  18   2.0000      -6.042252      -164.4180
  19   2.0000      -6.038062      -164.3040
  20   2.0000      -6.035964      -164.2469
  21   2.0000      -6.034530      -164.2079
  22   2.0000      -6.031893      -164.1361
  23   2.0000      -6.027613      -164.0197
  24   2.0000      -1.010403       -27.4945
  25   2.0000      -0.984685       -26.7946
  26   2.0000      -0.917752       -24.9733
  27   2.0000      -0.907376       -24.6910
  28   2.0000      -0.873724       -23.7752
  29   2.0000      -0.848218       -23.0812
  30   2.0000      -0.844322       -22.9752
  31   2.0000      -0.818812       -22.2810
  32   2.0000      -0.781372       -21.2622
  33   2.0000      -0.768130       -20.9019
  34   2.0000      -0.707928       -19.2637
  35   2.0000      -0.704359       -19.1666
  36   2.0000      -0.696550       -18.9541
  37   2.0000      -0.650238       -17.6939
  38   2.0000      -0.640995       -17.4424
  39   2.0000      -0.613479       -16.6936
  40   2.0000      -0.598592       -16.2885
  41   2.0000      -0.579643       -15.7729
  42   2.0000      -0.565268       -15.3817
  43   2.0000      -0.550035       -14.9672
  44   2.0000      -0.549603       -14.9555
  45   2.0000      -0.525976       -14.3125
  46   2.0000      -0.517770       -14.0892
  47   2.0000      -0.511709       -13.9243
  48   2.0000      -0.505983       -13.7685
  49   2.0000      -0.499277       -13.5860
  50   2.0000      -0.484067       -13.1721
  51   2.0000      -0.478535       -13.0216
  52   2.0000      -0.473751       -12.8914
  53   2.0000      -0.467022       -12.7083
  54   2.0000      -0.462582       -12.5875
  55   2.0000      -0.455330       -12.3902
  56   2.0000      -0.437969       -11.9177
  57   2.0000      -0.431313       -11.7366
  58   2.0000      -0.429094       -11.6762
  59   2.0000      -0.425901       -11.5893
  60   2.0000      -0.421178       -11.4608
  61   2.0000      -0.414612       -11.2822
  62   2.0000      -0.410523       -11.1709
  63   2.0000      -0.345709        -9.4072
  64   2.0000      -0.325262        -8.8508
  65   2.0000      -0.324336        -8.8256
  66   2.0000      -0.299995        -8.1633
  67   0.0000       0.031609         0.8601
  68   0.0000       0.062952         1.7130
  69   0.0000       0.107167         2.9162
  70   0.0000       0.120447         3.2775
  71   0.0000       0.137621         3.7449

MULLIKEN ATOMIC CHARGES
-----------------------
   0 S :    0.134264
   1 C :   -0.094358
   2 C :   -0.123646
   3 C :    0.028729
   4 C :   -0.178020
   5 H :    0.031237
   6 C :    0.081265
   7 H :    0.032207
   8 H :    0.023198
   9 C :   -0.092818
  10 H :    0.025422
  11 H :    0.032743
  12 C :   -0.027173
  13 H :    0.019780
  14 H :    0.010885
  15 H :    0.048304
  16 S :    0.104839
  17 C :   -0.076182
  18 C :   -0.059368
  19 C :   -0.000810
  20 C :   -0.163874
  21 H :    0.027721
  22 C :    0.007636
  23 H :    0.050968
  24 H :    0.024030
  25 C :   -0.094378
  26 H :    0.030719
  27 H :    0.038789
  28 C :   -0.037327
  29 H :    0.030446
  30 H :    0.055256
  31 H :    0.015926
  32 H :    0.034789
  33 H :    0.058803
Sum of atomic charges:   -0.0000000

LOEWDIN ATOMIC CHARGES
----------------------
   0 S :    0.433493
   1 C :   -0.205299
   2 C :   -0.064211
   3 C :   -0.063582
   4 C :   -0.210829
   5 H :    0.040669
   6 C :   -0.035491
   7 H :    0.033761
   8 H :    0.029685
   9 C :   -0.039721
  10 H :    0.018986
  11 H :    0.028435
  12 C :   -0.064211
  13 H :    0.027309
  14 H :    0.022680
  15 H :    0.022775
  16 S :    0.388011
  17 C :   -0.179280
  18 C :   -0.072914
  19 C :   -0.052155
  20 C :   -0.196602
  21 H :    0.031691
  22 C :   -0.037885
  23 H :    0.044647
  24 H :    0.025365
  25 C :   -0.042628
  26 H :    0.022042
  27 H :    0.019542
  28 C :   -0.070788
  29 H :    0.028074
  30 H :    0.035215
  31 H :    0.023321
  32 H :    0.027815
  33 H :    0.032079

  Mayer bond orders larger than 0.100000
B(  0-S ,  1-C ) :   1.1438 B(  0-S ,  4-C ) :   1.1568 B(  1-C ,  2-C ) :   1.5907
B(  1-C , 32-H ) :   0.9707 B(  2-C ,  3-C ) :   1.2558 B(  2-C ,  6-C ) :   1.0209
B(  3-C ,  4-C ) :   1.5727 B(  3-C ,  5-H ) :   0.9865 B(  4-C , 20-C ) :   1.0439
B(  6-C ,  7-H ) :   0.9488 B(  6-C ,  8-H ) :   0.9307 B(  6-C ,  9-C ) :   1.0808
B(  9-C , 10-H ) :   0.9556 B(  9-C , 11-H ) :   0.9553 B(  9-C , 12-C ) :   1.0752
B( 12-C , 13-H ) :   0.9703 B( 12-C , 14-H ) :   0.9712 B( 12-C , 15-H ) :   0.9772
B( 16-S , 17-C ) :   1.1394 B( 16-S , 20-C ) :   1.1327 B( 17-C , 18-C ) :   1.6357
B( 17-C , 33-H ) :   0.9589 B( 18-C , 19-C ) :   1.2320 B( 18-C , 21-H ) :   0.9811
B( 19-C , 20-C ) :   1.6022 B( 19-C , 22-C ) :   1.0320 B( 22-C , 23-H ) :   0.9329
B( 22-C , 24-H ) :   0.9401 B( 22-C , 25-C ) :   1.0614 B( 25-C , 26-H ) :   0.9584
B( 25-C , 27-H ) :   0.9493 B( 25-C , 28-C ) :   1.0728 B( 28-C , 29-H ) :   0.9712
B( 28-C , 30-H ) :   0.9718 B( 28-C , 31-H ) :   0.9745

Dispersion correction           -0.014045175
FINAL SINGLE POINT ENERGY     -1339.869682304788

DIPOLE MOMENT
-------------
                                X             Y             Z
Electronic contribution:     15.83280      15.52665      -3.45792
Nuclear contribution   :    -16.35995     -15.96513       3.53566
                        -----------------------------------------
Total Dipole Moment    :     -0.52714      -0.43848       0.07774
                        -----------------------------------------
Magnitude (a.u.)       :      0.69006
Magnitude (Debye)      :      1.75400

Rotational constants in cm-1:     0.018745     0.008004     0.006834
Rotational constants in MHz :   561.963460   239.939171   204.887636

                             ****ORCA TERMINATED NORMALLY****
TOTAL RUN TIME: 0 days 0 hours 0 minutes 20 seconds 338 msec
