                         Program Version 4.2.1 -  RELEASE  -
|  1> ! wB97X-D3 SP def2-SVP
|  2> %pal
|  3> nprocs 24
|  4> end
|  5>
|  6> * xyz 0 1
|  7> S 	 -44.6349 	 15.8772 	 -100.363
|  8> C 	 -46.2698 	 16.5421 	 -100.161
|  9> C 	 -46.1061 	 17.9455 	 -100.33
| 10> C 	 -44.8047 	 18.3336 	 -100.849
| 11> C 	 -43.8907 	 17.3246 	 -101.018
| 12> H 	 -44.6481 	 19.2929 	 -101.041
| 13> C 	 -47.2083 	 18.9765 	 -100.116
| 14> H 	 -48.1933 	 18.6626 	 -100.53
| 15> H 	 -46.9795 	 19.9003 	 -100.648
| 16> C 	 -47.3687 	 19.3089 	 -98.6358
| 17> H 	 -46.4071 	 19.3714 	 -98.2158
| 18> H 	 -47.7388 	 20.3378 	 -98.6176
| 19> C 	 -48.2351 	 18.2987 	 -97.9023
| 20> H 	 -49.2311 	 18.2013 	 -98.3376
| 21> H 	 -47.8497 	 17.3467 	 -97.871
| 22> H 	 -48.4084 	 18.5668 	 -96.8737
| 23> S 	 -41.3082 	 16.5067 	 -100.295
| 24> C 	 -39.9909 	 17.2618 	 -101.115
| 25> C 	 -40.3716 	 18.0153 	 -102.227
| 26> C 	 -41.8033 	 18.0778 	 -102.357
| 27> C 	 -42.4805 	 17.3855 	 -101.35
| 28> H 	 -39.7062 	 18.4575 	 -103.007
| 29> C 	 -42.3592 	 18.637 	 -103.708
| 30> H 	 -41.7215 	 19.5277 	 -103.974
| 31> H 	 -43.3265 	 19.0314 	 -103.626
| 32> C 	 -42.3023 	 17.6389 	 -104.862
| 33> H 	 -42.8646 	 16.7615 	 -104.533
| 34> H 	 -41.2633 	 17.23 	 -104.88
| 35> C 	 -42.8025 	 18.2093 	 -106.198
| 36> H 	 -43.5858 	 18.957 	 -106.018
| 37> H 	 -43.272 	 17.4883 	 -106.823
| 38> H 	 -42.0201 	 18.7511 	 -106.706
| 39> H 	 -47.2415 	 15.9981 	 -99.9194
| 40> H 	 -38.9891 	 17.0119 	 -100.886
| 41> *
| 42>
| 43>                          ****END OF INPUT****

CARTESIAN COORDINATES (ANGSTROEM)
---------------------------------
  S    -44.634900   15.877200  -100.363000
  C    -46.269800   16.542100  -100.161000
  C    -46.106100   17.945500  -100.330000
  C    -44.804700   18.333600  -100.849000
  C    -43.890700   17.324600  -101.018000
  H    -44.648100   19.292900  -101.041000
  C    -47.208300   18.976500  -100.116000
  H    -48.193300   18.662600  -100.530000
  H    -46.979500   19.900300  -100.648000
  C    -47.368700   19.308900  -98.635800
  H    -46.407100   19.371400  -98.215800
  H    -47.738800   20.337800  -98.617600
  C    -48.235100   18.298700  -97.902300
  H    -49.231100   18.201300  -98.337600
  H    -47.849700   17.346700  -97.871000
  H    -48.408400   18.566800  -96.873700
  S    -41.308200   16.506700  -100.295000
  C    -39.990900   17.261800  -101.115000
  C    -40.371600   18.015300  -102.227000
  C    -41.803300   18.077800  -102.357000
  C    -42.480500   17.385500  -101.350000
  H    -39.706200   18.457500  -103.007000
  C    -42.359200   18.637000  -103.708000
  H    -41.721500   19.527700  -103.974000
  H    -43.326500   19.031400  -103.626000
  C    -42.302300   17.638900  -104.862000
  H    -42.864600   16.761500  -104.533000
  H    -41.263300   17.230000  -104.880000
  C    -42.802500   18.209300  -106.198000
  H    -43.585800   18.957000  -106.018000
  H    -43.272000   17.488300  -106.823000
  H    -42.020100   18.751100  -106.706000
  H    -47.241500   15.998100  -99.919400
  H    -38.989100   17.011900  -100.886000

 Total Charge           Charge          ....    0
 Multiplicity           Mult            ....    1
 Number of Electrons    NEL             ....  134
 Basis Dimension        Dim             ....  322

ORBITAL ENERGIES
----------------

  NO   OCC          E(Eh)            E(eV)
   0   2.0000     -88.969891     -2420.9938
   1   2.0000     -88.961983     -2420.7786
   2   2.0000     -10.335400      -281.2405
   3   2.0000     -10.332957      -281.1740
   4   2.0000     -10.327332      -281.0210
   5   2.0000     -10.319470      -280.8071
   6   2.0000     -10.309742      -280.5423
   7   2.0000     -10.306703      -280.4596
   8   2.0000     -10.301228      -280.3107
   9   2.0000     -10.294014      -280.1144
  10   2.0000     -10.291244      -280.0390
  11   2.0000     -10.286748      -279.9167
  12   2.0000     -10.286512      -279.9102
  13   2.0000     -10.279411      -279.7170
  14   2.0000     -10.277181      -279.6563
  15   2.0000     -10.268318      -279.4151
  16   2.0000      -8.084307      -219.9852
  17   2.0000      -8.076333      -219.7682
  18   2.0000      -6.042902      -164.4357
  19   2.0000      -6.038931      -164.3277
  20   2.0000      -6.035096      -164.2233
  21   2.0000      -6.034919      -164.2185
  22   2.0000      -6.030748      -164.1050
  23   2.0000      -6.026960      -164.0019
  24   2.0000      -1.002524       -27.2801
  25   2.0000      -0.979628       -26.6570
  26   2.0000      -0.914102       -24.8740
  27   2.0000      -0.907534       -24.6953
  28   2.0000      -0.866771       -23.5860
  29   2.0000      -0.851317       -23.1655
  30   2.0000      -0.841723       -22.9045
  31   2.0000      -0.811168       -22.0730
  32   2.0000      -0.785140       -21.3647
  33   2.0000      -0.775831       -21.1114
  34   2.0000      -0.708304       -19.2739
  35   2.0000      -0.699435       -19.0326
  36   2.0000      -0.695525       -18.9262
  37   2.0000      -0.662874       -18.0377
  38   2.0000      -0.640619       -17.4321
  39   2.0000      -0.626553       -17.0494
  40   2.0000      -0.601612       -16.3707
  41   2.0000      -0.571917       -15.5627
  42   2.0000      -0.559792       -15.2327
  43   2.0000      -0.546709       -14.8767
  44   2.0000      -0.539064       -14.6687
  45   2.0000      -0.520482       -14.1630
  46   2.0000      -0.515863       -14.0373
  47   2.0000      -0.510942       -13.9034
  48   2.0000      -0.506827       -13.7915
  49   2.0000      -0.500025       -13.6064
  50   2.0000      -0.491227       -13.3670
  51   2.0000      -0.485752       -13.2180
  52   2.0000      -0.477588       -12.9958
  53   2.0000      -0.462763       -12.5924
  54   2.0000      -0.458209       -12.4685
  55   2.0000      -0.453826       -12.3492
  56   2.0000      -0.440899       -11.9975
  57   2.0000      -0.435494       -11.8504
  58   2.0000      -0.433053       -11.7840
  59   2.0000      -0.430701       -11.7200
  60   2.0000      -0.423474       -11.5233
  61   2.0000      -0.413228       -11.2445
  62   2.0000      -0.402391       -10.9496
  63   2.0000      -0.353932        -9.6310
  64   2.0000      -0.333867        -9.0850
  65   2.0000      -0.323128        -8.7928
  66   2.0000      -0.287189        -7.8148
  67   0.0000       0.021699         0.5905
  68   0.0000       0.062742         1.7073
  69   0.0000       0.103028         2.8035
  70   0.0000       0.118899         3.2354
  71   0.0000       0.133264         3.6263

MULLIKEN ATOMIC CHARGES
-----------------------
   0 S :    0.075202
   1 C :   -0.135256
   2 C :   -0.126149
   3 C :    0.088622
   4 C :   -0.100496
   5 H :   -0.053666
   6 C :    0.026923
   7 H :    0.030734
   8 H :    0.017360
   9 C :   -0.027714
  10 H :    0.017716
  11 H :    0.023068
  12 C :   -0.010741
  13 H :    0.017574
  14 H :    0.009026
  15 H :    0.026428
  16 S :    0.110729
  17 C :   -0.072643
  18 C :   -0.042727
  19 C :   -0.049518
  20 C :   -0.148478
  21 H :    0.041312
  22 C :    0.051510
  23 H :    0.024048
  24 H :    0.005917
  25 C :   -0.073678
  26 H :    0.031304
  27 H :    0.023823
  28 C :   -0.009224
  29 H :    0.021713
  30 H :    0.034370
  31 H :    0.033610
  32 H :    0.090469
  33 H :    0.048832
Sum of atomic charges:   -0.0000000

LOEWDIN ATOMIC CHARGES
----------------------
   0 S :    0.386627
   1 C :   -0.208342
   2 C :   -0.057240
   3 C :   -0.051412
   4 C :   -0.184946
   5 H :    0.004437
   6 C :   -0.034934
   7 H :    0.031258
   8 H :    0.027150
   9 C :   -0.033096
  10 H :    0.020046
  11 H :    0.025243
  12 C :   -0.058534
  13 H :    0.024676
  14 H :    0.012704
  15 H :    0.027160
  16 S :    0.399267
  17 C :   -0.180496
  18 C :   -0.074912
  19 C :   -0.051389
  20 C :   -0.184667
  21 H :    0.040866
  22 C :   -0.026912
  23 H :    0.030886
  24 H :    0.016038
  25 C :   -0.044067
  26 H :    0.027141
  27 H :    0.025903
  28 C :   -0.061138
  29 H :    0.028023
  30 H :    0.026122
  31 H :    0.026463
  32 H :    0.051497
  33 H :    0.020578

  Mayer bond orders larger than 0.100000
B(  0-S ,  1-C ) :   1.1315 B(  0-S ,  4-C ) :   1.1431 B(  1-C ,  2-C ) :   1.5716
B(  1-C ,  4-C ) :   0.1034 B(  1-C , 32-H ) :   0.9605 B(  2-C ,  3-C ) :   1.2678
B(  2-C ,  6-C ) :   1.0334 B(  3-C ,  4-C ) :   1.5324 B(  3-C ,  5-H ) :   1.0201
B(  4-C , 20-C ) :   1.0639 B(  6-C ,  7-H ) :   0.9483 B(  6-C ,  8-H ) :   0.9450
B(  6-C ,  9-C ) :   1.0620 B(  9-C , 10-H ) :   0.9515 B(  9-C , 11-H ) :   0.9557
B(  9-C , 12-C ) :   1.0823 B( 12-C , 13-H ) :   0.9738 B( 12-C , 14-H ) :   0.9701
B( 12-C , 15-H ) :   0.9700 B( 16-S , 17-C ) :   1.1658 B( 16-S , 20-C ) :   1.1204
B( 17-C , 18-C ) :   1.5889 B( 17-C , 33-H ) :   0.9711 B( 18-C , 19-C ) :   1.2482
B( 18-C , 21-H ) :   0.9802 B( 19-C , 20-C ) :   1.6069 B( 19-C , 22-C ) :   1.0408
B( 22-C , 23-H ) :   0.9397 B( 22-C , 24-H ) :   0.9337 B( 22-C , 25-C ) :   1.0616
B( 25-C , 26-H ) :   0.9559 B( 25-C , 27-H ) :   0.9552 B( 25-C , 28-C ) :   1.0665
B( 28-C , 29-H ) :   0.9741 B( 28-C , 30-H ) :   0.9748 B( 28-C , 31-H ) :   0.9749

Dispersion correction           -0.013809216
FINAL SINGLE POINT ENERGY     -1339.863902336180

DIPOLE MOMENT
-------------
                                X             Y             Z
Electronic contribution:     14.27641     -13.44591       9.71525
Nuclear contribution   :    -14.45991      13.93283     -10.04535
                        -----------------------------------------
Total Dipole Moment    :     -0.18350       0.48692      -0.33010
                        -----------------------------------------
Magnitude (a.u.)       :      0.61622
Magnitude (Debye)      :      1.56632

Rotational constants in cm-1:     0.020380     0.007556     0.006332
Rotational constants in MHz :   610.987271   226.530609   189.837266

                             ****ORCA TERMINATED NORMALLY****
TOTAL RUN TIME: 0 days 0 hours 0 minutes 21 seconds 167 msec
