                         Program Version 4.2.1 -  RELEASE  -
|  1> ! wB97X-D3 SP def2-SVP
|  2> %pal
|  3> nprocs 24
|  4> end
|  5>
|  6> * xyz 0 1
|  7> S 	 -52.1949 	 15.9248 	 -87.908
|  8> C 	 -53.1356 	 16.2728 	 -89.3107
|  9> C 	 -53.2565 	 17.6897 	 -89.4815
| 10> C 	 -52.6476 	 18.4184 	 -88.4292
| 11> C 	 -51.9056 	 17.649 	 -87.5353
| 12> H 	 -52.6229 	 19.4646 	 -88.312
| 13> C 	 -53.9701 	 18.3831 	 -90.5914
| 14> H 	 -54.2207 	 19.3571 	 -90.2947
| 15> H 	 -54.9247 	 17.9064 	 -90.6486
| 16> C 	 -53.314 	 18.4496 	 -91.9926
| 17> H 	 -52.999 	 19.4611 	 -92.1628
| 18> H 	 -52.4276 	 17.7554 	 -91.9991
| 19> C 	 -54.1834 	 18.0856 	 -93.0688
| 20> H 	 -55.0284 	 18.8252 	 -93.171
| 21> H 	 -53.6136 	 18.1787 	 -93.9733
| 22> H 	 -54.5663 	 17.0656 	 -92.9792
| 23> S 	 -50.9914 	 16.9143 	 -85.067
| 24> C 	 -50.4877 	 18.1371 	 -83.9958
| 25> C 	 -50.327 	 19.3594 	 -84.5449
| 26> C 	 -50.8128 	 19.3887 	 -85.9203
| 27> C 	 -51.225 	 18.09 	 -86.3351
| 28> H 	 -49.8939 	 20.1883 	 -83.9794
| 29> C 	 -50.7705 	 20.5883 	 -86.84
| 30> H 	 -50.5916 	 20.1564 	 -87.8237
| 31> H 	 -49.8477 	 21.1375 	 -86.713
| 32> C 	 -51.9781 	 21.4906 	 -86.7455
| 33> H 	 -51.9836 	 21.9521 	 -85.788
| 34> H 	 -52.9281 	 20.9275 	 -86.8202
| 35> C 	 -51.9606 	 22.4977 	 -87.9375
| 36> H 	 -52.4804 	 22.0311 	 -88.7243
| 37> H 	 -50.9461 	 22.6039 	 -88.2986
| 38> H 	 -52.5085 	 23.4235 	 -87.6391
| 39> H 	 -53.5339 	 15.5859 	 -90.0782
| 40> H 	 -50.2014 	 17.8966 	 -82.8943
| 41> *
| 42>
| 43>                          ****END OF INPUT****

CARTESIAN COORDINATES (ANGSTROEM)
---------------------------------
  S    -52.194900   15.924800  -87.908000
  C    -53.135600   16.272800  -89.310700
  C    -53.256500   17.689700  -89.481500
  C    -52.647600   18.418400  -88.429200
  C    -51.905600   17.649000  -87.535300
  H    -52.622900   19.464600  -88.312000
  C    -53.970100   18.383100  -90.591400
  H    -54.220700   19.357100  -90.294700
  H    -54.924700   17.906400  -90.648600
  C    -53.314000   18.449600  -91.992600
  H    -52.999000   19.461100  -92.162800
  H    -52.427600   17.755400  -91.999100
  C    -54.183400   18.085600  -93.068800
  H    -55.028400   18.825200  -93.171000
  H    -53.613600   18.178700  -93.973300
  H    -54.566300   17.065600  -92.979200
  S    -50.991400   16.914300  -85.067000
  C    -50.487700   18.137100  -83.995800
  C    -50.327000   19.359400  -84.544900
  C    -50.812800   19.388700  -85.920300
  C    -51.225000   18.090000  -86.335100
  H    -49.893900   20.188300  -83.979400
  C    -50.770500   20.588300  -86.840000
  H    -50.591600   20.156400  -87.823700
  H    -49.847700   21.137500  -86.713000
  C    -51.978100   21.490600  -86.745500
  H    -51.983600   21.952100  -85.788000
  H    -52.928100   20.927500  -86.820200
  C    -51.960600   22.497700  -87.937500
  H    -52.480400   22.031100  -88.724300
  H    -50.946100   22.603900  -88.298600
  H    -52.508500   23.423500  -87.639100
  H    -53.533900   15.585900  -90.078200
  H    -50.201400   17.896600  -82.894300

 Total Charge           Charge          ....    0
 Multiplicity           Mult            ....    1
 Number of Electrons    NEL             ....  134
 Basis Dimension        Dim             ....  322

ORBITAL ENERGIES
----------------

  NO   OCC          E(Eh)            E(eV)
   0   2.0000     -88.969046     -2420.9708
   1   2.0000     -88.965680     -2420.8792
   2   2.0000     -10.332208      -281.1537
   3   2.0000     -10.329094      -281.0689
   4   2.0000     -10.318151      -280.7712
   5   2.0000     -10.317892      -280.7641
   6   2.0000     -10.308609      -280.5115
   7   2.0000     -10.301180      -280.3094
   8   2.0000     -10.295140      -280.1450
   9   2.0000     -10.290368      -280.0151
  10   2.0000     -10.288469      -279.9635
  11   2.0000     -10.286824      -279.9187
  12   2.0000     -10.280048      -279.7343
  13   2.0000     -10.279782      -279.7271
  14   2.0000     -10.279340      -279.7150
  15   2.0000     -10.274155      -279.5740
  16   2.0000      -8.083055      -219.9511
  17   2.0000      -8.081698      -219.9142
  18   2.0000      -6.041644      -164.4015
  19   2.0000      -6.040166      -164.3613
  20   2.0000      -6.037585      -164.2910
  21   2.0000      -6.036141      -164.2517
  22   2.0000      -6.033870      -164.1899
  23   2.0000      -6.032322      -164.1478
  24   2.0000      -1.007440       -27.4138
  25   2.0000      -0.982824       -26.7440
  26   2.0000      -0.920705       -25.0537
  27   2.0000      -0.916678       -24.9441
  28   2.0000      -0.873029       -23.7563
  29   2.0000      -0.858347       -23.3568
  30   2.0000      -0.850587       -23.1456
  31   2.0000      -0.816594       -22.2207
  32   2.0000      -0.784268       -21.3410
  33   2.0000      -0.766910       -20.8687
  34   2.0000      -0.709453       -19.3052
  35   2.0000      -0.694540       -18.8994
  36   2.0000      -0.694182       -18.8896
  37   2.0000      -0.663195       -18.0464
  38   2.0000      -0.633896       -17.2492
  39   2.0000      -0.621932       -16.9236
  40   2.0000      -0.597919       -16.2702
  41   2.0000      -0.581482       -15.8229
  42   2.0000      -0.567077       -15.4309
  43   2.0000      -0.555672       -15.1206
  44   2.0000      -0.535093       -14.5606
  45   2.0000      -0.526821       -14.3355
  46   2.0000      -0.523062       -14.2332
  47   2.0000      -0.516272       -14.0485
  48   2.0000      -0.504687       -13.7332
  49   2.0000      -0.502020       -13.6607
  50   2.0000      -0.491120       -13.3640
  51   2.0000      -0.484303       -13.1785
  52   2.0000      -0.477646       -12.9974
  53   2.0000      -0.466856       -12.7038
  54   2.0000      -0.458582       -12.4787
  55   2.0000      -0.454252       -12.3608
  56   2.0000      -0.451225       -12.2785
  57   2.0000      -0.433665       -11.8006
  58   2.0000      -0.429638       -11.6910
  59   2.0000      -0.424556       -11.5528
  60   2.0000      -0.420777       -11.4499
  61   2.0000      -0.417316       -11.3557
  62   2.0000      -0.409347       -11.1389
  63   2.0000      -0.363282        -9.8854
  64   2.0000      -0.335936        -9.1413
  65   2.0000      -0.325328        -8.8526
  66   2.0000      -0.274876        -7.4797
  67   0.0000       0.018070         0.4917
  68   0.0000       0.084312         2.2943
  69   0.0000       0.100892         2.7454
  70   0.0000       0.116557         3.1717
  71   0.0000       0.132047         3.5932

MULLIKEN ATOMIC CHARGES
-----------------------
   0 S :    0.105426
   1 C :   -0.115831
   2 C :   -0.115845
   3 C :    0.036548
   4 C :   -0.108169
   5 H :   -0.049648
   6 C :    0.100600
   7 H :   -0.002182
   8 H :    0.016952
   9 C :   -0.051655
  10 H :    0.020551
  11 H :    0.038751
  12 C :   -0.052870
  13 H :    0.031319
  14 H :    0.026564
  15 H :    0.031810
  16 S :    0.109673
  17 C :   -0.117589
  18 C :   -0.019977
  19 C :   -0.072947
  20 C :   -0.125885
  21 H :    0.023510
  22 C :    0.021543
  23 H :    0.029494
  24 H :    0.022649
  25 C :   -0.068669
  26 H :    0.020955
  27 H :    0.039945
  28 C :   -0.017819
  29 H :    0.018786
  30 H :    0.031974
  31 H :    0.048280
  32 H :    0.058963
  33 H :    0.084793
Sum of atomic charges:    0.0000000

LOEWDIN ATOMIC CHARGES
----------------------
   0 S :    0.403076
   1 C :   -0.219949
   2 C :   -0.058183
   3 C :   -0.064420
   4 C :   -0.177435
   5 H :    0.020571
   6 C :   -0.032800
   7 H :    0.023332
   8 H :    0.030480
   9 C :   -0.042736
  10 H :    0.023123
  11 H :    0.030267
  12 C :   -0.064858
  13 H :    0.028194
  14 H :    0.025654
  15 H :    0.022869
  16 S :    0.421001
  17 C :   -0.209782
  18 C :   -0.079289
  19 C :   -0.047687
  20 C :   -0.198715
  21 H :    0.036754
  22 C :   -0.042078
  23 H :    0.030895
  24 H :    0.031315
  25 C :   -0.037775
  26 H :    0.019432
  27 H :    0.025718
  28 C :   -0.058458
  29 H :    0.017302
  30 H :    0.024475
  31 H :    0.034495
  32 H :    0.037686
  33 H :    0.047524

  Mayer bond orders larger than 0.100000
B(  0-S ,  1-C ) :   1.1511 B(  0-S ,  4-C ) :   1.1429 B(  1-C ,  2-C ) :   1.5544
B(  1-C ,  4-C ) :   0.1056 B(  1-C , 32-H ) :   0.9654 B(  2-C ,  3-C ) :   1.2853
B(  2-C ,  6-C ) :   1.0411 B(  3-C ,  4-C ) :   1.5304 B(  3-C ,  5-H ) :   0.9898
B(  4-C , 20-C ) :   1.1014 B(  6-C ,  7-H ) :   0.9313 B(  6-C ,  8-H ) :   0.9393
B(  6-C ,  9-C ) :   1.0310 B(  9-C , 10-H ) :   0.9523 B(  9-C , 11-H ) :   0.9626
B(  9-C , 12-C ) :   1.1063 B( 12-C , 13-H ) :   0.9701 B( 12-C , 14-H ) :   0.9665
B( 12-C , 15-H ) :   0.9721 B( 16-S , 17-C ) :   1.1651 B( 16-S , 20-C ) :   1.1350
B( 17-C , 18-C ) :   1.6210 B( 17-C , 33-H ) :   0.9495 B( 18-C , 19-C ) :   1.2372
B( 18-C , 21-H ) :   0.9916 B( 19-C , 20-C ) :   1.5707 B( 19-C , 22-C ) :   1.0357
B( 22-C , 23-H ) :   0.9436 B( 22-C , 24-H ) :   0.9274 B( 22-C , 25-C ) :   1.0510
B( 25-C , 26-H ) :   0.9546 B( 25-C , 27-H ) :   0.9591 B( 25-C , 28-C ) :   1.0612
B( 28-C , 29-H ) :   0.9777 B( 28-C , 30-H ) :   0.9724 B( 28-C , 31-H ) :   0.9742

Dispersion correction           -0.014202706
FINAL SINGLE POINT ENERGY     -1339.870192709875

DIPOLE MOMENT
-------------
                                X             Y             Z
Electronic contribution:      8.22436     -22.17013      21.69598
Nuclear contribution   :     -8.29398      22.85267     -21.94557
                        -----------------------------------------
Total Dipole Moment    :     -0.06962       0.68254      -0.24960
                        -----------------------------------------
Magnitude (a.u.)       :      0.73007
Magnitude (Debye)      :      1.85569

Rotational constants in cm-1:     0.019411     0.008892     0.006274
Rotational constants in MHz :   581.928637   266.567237   188.098826

                             ****ORCA TERMINATED NORMALLY****
TOTAL RUN TIME: 0 days 0 hours 0 minutes 22 seconds 54 msec
