                         Program Version 4.2.1 -  RELEASE  -
|  1> ! wB97X-D3 SP def2-SVP
|  2> %pal
|  3> nprocs 24
|  4> end
|  5>
|  6> * xyz 0 1
|  7> S 	 -135.215 	 30.5693 	 -20.2156
|  8> C 	 -133.536 	 30.2206 	 -20.569
|  9> C 	 -133.004 	 29.3121 	 -19.6467
| 10> C 	 -133.809 	 29.3027 	 -18.45
| 11> C 	 -134.971 	 30.0973 	 -18.5454
| 12> H 	 -133.675 	 28.782 	 -17.5396
| 13> C 	 -131.615 	 28.6525 	 -19.6262
| 14> H 	 -131.765 	 27.5588 	 -19.7053
| 15> H 	 -131.152 	 28.9776 	 -18.7131
| 16> C 	 -130.735 	 28.8737 	 -20.7888
| 17> H 	 -131.158 	 28.4293 	 -21.6271
| 18> H 	 -130.691 	 30.0029 	 -20.848
| 19> C 	 -129.326 	 28.178 	 -20.6197
| 20> H 	 -128.725 	 28.5429 	 -19.7615
| 21> H 	 -129.468 	 27.0753 	 -20.4434
| 22> H 	 -128.765 	 28.3605 	 -21.5675
| 23> S 	 -137.792 	 30.2597 	 -18.0669
| 24> C 	 -138.395 	 30.0271 	 -16.4193
| 25> C 	 -137.335 	 30.0295 	 -15.5133
| 26> C 	 -136.044 	 30.0676 	 -16.1327
| 27> C 	 -136.049 	 30.1047 	 -17.5474
| 28> H 	 -137.566 	 30.0877 	 -14.4288
| 29> C 	 -134.757 	 30.322 	 -15.399
| 30> H 	 -135.008 	 30.8895 	 -14.5536
| 31> H 	 -134.03 	 30.9089 	 -15.9643
| 32> C 	 -134.086 	 29.1022 	 -14.7205
| 33> H 	 -133.681 	 28.4429 	 -15.4922
| 34> H 	 -134.889 	 28.4972 	 -14.2057
| 35> C 	 -132.919 	 29.4408 	 -13.8094
| 36> H 	 -133.038 	 30.4152 	 -13.3293
| 37> H 	 -132.064 	 29.54 	 -14.4065
| 38> H 	 -132.76 	 28.6551 	 -13.0246
| 39> H 	 -133.074 	 30.398 	 -21.5323
| 40> H 	 -139.38 	 30.2363 	 -16.0623
| 41> *
| 42>
| 43>                          ****END OF INPUT****

CARTESIAN COORDINATES (ANGSTROEM)
---------------------------------
  S    -135.215000   30.569300  -20.215600
  C    -133.536000   30.220600  -20.569000
  C    -133.004000   29.312100  -19.646700
  C    -133.809000   29.302700  -18.450000
  C    -134.971000   30.097300  -18.545400
  H    -133.675000   28.782000  -17.539600
  C    -131.615000   28.652500  -19.626200
  H    -131.765000   27.558800  -19.705300
  H    -131.152000   28.977600  -18.713100
  C    -130.735000   28.873700  -20.788800
  H    -131.158000   28.429300  -21.627100
  H    -130.691000   30.002900  -20.848000
  C    -129.326000   28.178000  -20.619700
  H    -128.725000   28.542900  -19.761500
  H    -129.468000   27.075300  -20.443400
  H    -128.765000   28.360500  -21.567500
  S    -137.792000   30.259700  -18.066900
  C    -138.395000   30.027100  -16.419300
  C    -137.335000   30.029500  -15.513300
  C    -136.044000   30.067600  -16.132700
  C    -136.049000   30.104700  -17.547400
  H    -137.566000   30.087700  -14.428800
  C    -134.757000   30.322000  -15.399000
  H    -135.008000   30.889500  -14.553600
  H    -134.030000   30.908900  -15.964300
  C    -134.086000   29.102200  -14.720500
  H    -133.681000   28.442900  -15.492200
  H    -134.889000   28.497200  -14.205700
  C    -132.919000   29.440800  -13.809400
  H    -133.038000   30.415200  -13.329300
  H    -132.064000   29.540000  -14.406500
  H    -132.760000   28.655100  -13.024600
  H    -133.074000   30.398000  -21.532300
  H    -139.380000   30.236300  -16.062300

 Total Charge           Charge          ....    0
 Multiplicity           Mult            ....    1
 Number of Electrons    NEL             ....  134
 Basis Dimension        Dim             ....  322

ORBITAL ENERGIES
----------------

  NO   OCC          E(Eh)            E(eV)
   0   2.0000     -88.969225     -2420.9757
   1   2.0000     -88.965511     -2420.8746
   2   2.0000     -10.338078      -281.3134
   3   2.0000     -10.336260      -281.2639
   4   2.0000     -10.319993      -280.8213
   5   2.0000     -10.319713      -280.8137
   6   2.0000     -10.310282      -280.5570
   7   2.0000     -10.307259      -280.4748
   8   2.0000     -10.301768      -280.3254
   9   2.0000     -10.297702      -280.2147
  10   2.0000     -10.293873      -280.1105
  11   2.0000     -10.292770      -280.0805
  12   2.0000     -10.288918      -279.9757
  13   2.0000     -10.288045      -279.9519
  14   2.0000     -10.286223      -279.9024
  15   2.0000     -10.277616      -279.6681
  16   2.0000      -8.083876      -219.9735
  17   2.0000      -8.078721      -219.8332
  18   2.0000      -6.042482      -164.4243
  19   2.0000      -6.038741      -164.3225
  20   2.0000      -6.037489      -164.2884
  21   2.0000      -6.034193      -164.1987
  22   2.0000      -6.033498      -164.1798
  23   2.0000      -6.029255      -164.0644
  24   2.0000      -1.001840       -27.2614
  25   2.0000      -0.977573       -26.6011
  26   2.0000      -0.920690       -25.0532
  27   2.0000      -0.909710       -24.7545
  28   2.0000      -0.867530       -23.6067
  29   2.0000      -0.852983       -23.2108
  30   2.0000      -0.844891       -22.9907
  31   2.0000      -0.811409       -22.0796
  32   2.0000      -0.782357       -21.2890
  33   2.0000      -0.771863       -21.0035
  34   2.0000      -0.711732       -19.3672
  35   2.0000      -0.697935       -18.9918
  36   2.0000      -0.691572       -18.8186
  37   2.0000      -0.662589       -18.0300
  38   2.0000      -0.639340       -17.3973
  39   2.0000      -0.611667       -16.6443
  40   2.0000      -0.593561       -16.1516
  41   2.0000      -0.590045       -16.0560
  42   2.0000      -0.569252       -15.4901
  43   2.0000      -0.565044       -15.3756
  44   2.0000      -0.525231       -14.2923
  45   2.0000      -0.522568       -14.2198
  46   2.0000      -0.517581       -14.0841
  47   2.0000      -0.510890       -13.9020
  48   2.0000      -0.503249       -13.6941
  49   2.0000      -0.499918       -13.6035
  50   2.0000      -0.489350       -13.3159
  51   2.0000      -0.483618       -13.1599
  52   2.0000      -0.481080       -13.0909
  53   2.0000      -0.466012       -12.6808
  54   2.0000      -0.458277       -12.4704
  55   2.0000      -0.449595       -12.2341
  56   2.0000      -0.444551       -12.0968
  57   2.0000      -0.443781       -12.0759
  58   2.0000      -0.431161       -11.7325
  59   2.0000      -0.426751       -11.6125
  60   2.0000      -0.421111       -11.4590
  61   2.0000      -0.415137       -11.2964
  62   2.0000      -0.408101       -11.1050
  63   2.0000      -0.358659        -9.7596
  64   2.0000      -0.331898        -9.0314
  65   2.0000      -0.325811        -8.8658
  66   2.0000      -0.281489        -7.6597
  67   0.0000       0.011478         0.3123
  68   0.0000       0.068879         1.8743
  69   0.0000       0.097074         2.6415
  70   0.0000       0.112631         3.0648
  71   0.0000       0.128993         3.5101

MULLIKEN ATOMIC CHARGES
-----------------------
   0 S :    0.104963
   1 C :   -0.113678
   2 C :   -0.062753
   3 C :    0.018671
   4 C :   -0.104635
   5 H :   -0.026038
   6 C :    0.054520
   7 H :    0.035498
   8 H :    0.036273
   9 C :   -0.097162
  10 H :    0.023794
  11 H :    0.038026
  12 C :   -0.075075
  13 H :    0.040654
  14 H :    0.038978
  15 H :    0.050767
  16 S :    0.073955
  17 C :   -0.076125
  18 C :   -0.052657
  19 C :   -0.031227
  20 C :   -0.136076
  21 H :    0.037949
  22 C :    0.049937
  23 H :    0.001498
  24 H :    0.038735
  25 C :   -0.111708
  26 H :    0.027083
  27 H :    0.034730
  28 C :   -0.020841
  29 H :    0.024166
  30 H :    0.019312
  31 H :    0.047306
  32 H :    0.053854
  33 H :    0.057306
Sum of atomic charges:   -0.0000000

LOEWDIN ATOMIC CHARGES
----------------------
   0 S :    0.402610
   1 C :   -0.196568
   2 C :   -0.055427
   3 C :   -0.050190
   4 C :   -0.187661
   5 H :    0.021503
   6 C :   -0.035427
   7 H :    0.038671
   8 H :    0.030228
   9 C :   -0.043899
  10 H :    0.016292
  11 H :    0.028302
  12 C :   -0.068481
  13 H :    0.026584
  14 H :    0.030000
  15 H :    0.033043
  16 S :    0.360156
  17 C :   -0.180584
  18 C :   -0.072046
  19 C :   -0.061002
  20 C :   -0.166624
  21 H :    0.039955
  22 C :   -0.033577
  23 H :    0.024149
  24 H :    0.031607
  25 C :   -0.044618
  26 H :    0.015679
  27 H :    0.027368
  28 C :   -0.064471
  29 H :    0.023629
  30 H :    0.018873
  31 H :    0.035953
  32 H :    0.026724
  33 H :    0.029248

  Mayer bond orders larger than 0.100000
B(  0-S ,  1-C ) :   1.1368 B(  0-S ,  4-C ) :   1.1395 B(  1-C ,  2-C ) :   1.6023
B(  1-C , 32-H ) :   0.9620 B(  2-C ,  3-C ) :   1.2343 B(  2-C ,  6-C ) :   1.0129
B(  3-C ,  4-C ) :   1.5381 B(  3-C ,  5-H ) :   1.0043 B(  4-C , 20-C ) :   1.1028
B(  6-C ,  7-H ) :   0.9279 B(  6-C ,  8-H ) :   0.9534 B(  6-C ,  9-C ) :   1.0879
B(  9-C , 10-H ) :   0.9537 B(  9-C , 11-H ) :   0.9482 B(  9-C , 12-C ) :   1.0788
B( 12-C , 13-H ) :   0.9770 B( 12-C , 14-H ) :   0.9724 B( 12-C , 15-H ) :   0.9751
B( 16-S , 17-C ) :   1.1473 B( 16-S , 20-C ) :   1.1087 B( 17-C , 18-C ) :   1.6159
B( 17-C , 33-H ) :   0.9636 B( 18-C , 19-C ) :   1.2544 B( 18-C , 21-H ) :   0.9800
B( 19-C , 20-C ) :   1.5692 B( 19-C , 22-C ) :   1.0518 B( 22-C , 23-H ) :   0.9249
B( 22-C , 24-H ) :   0.9425 B( 22-C , 25-C ) :   1.0532 B( 25-C , 26-H ) :   0.9512
B( 25-C , 27-H ) :   0.9570 B( 25-C , 28-C ) :   1.0728 B( 28-C , 29-H ) :   0.9747
B( 28-C , 30-H ) :   0.9744 B( 28-C , 31-H ) :   0.9740

Dispersion correction           -0.013574634
FINAL SINGLE POINT ENERGY     -1339.855471514487

DIPOLE MOMENT
-------------
                                X             Y             Z
Electronic contribution:    -29.13919       8.92453     -10.60388
Nuclear contribution   :     29.77767      -9.10975      10.97977
                        -----------------------------------------
Total Dipole Moment    :      0.63848      -0.18522       0.37589
                        -----------------------------------------
Magnitude (a.u.)       :      0.76371
Magnitude (Debye)      :      1.94119

Rotational constants in cm-1:     0.018510     0.008214     0.005881
Rotational constants in MHz :   554.914461   246.248491   176.306512

                             ****ORCA TERMINATED NORMALLY****
TOTAL RUN TIME: 0 days 0 hours 0 minutes 21 seconds 372 msec
