                         Program Version 4.2.1 -  RELEASE  -
|  1> ! wB97X-D3 SP def2-SVP
|  2> %pal
|  3> nprocs 24
|  4> end
|  5>
|  6> * xyz 0 1
|  7> S 	 -63.1372 	 13.0897 	 -100.908
|  8> C 	 -62.255 	 14.51 	 -100.504
|  9> C 	 -60.9066 	 14.2525 	 -100.339
| 10> C 	 -60.6583 	 12.8334 	 -100.378
| 11> C 	 -61.7191 	 12.0889 	 -100.927
| 12> H 	 -59.6618 	 12.3514 	 -100.216
| 13> C 	 -59.7798 	 15.2641 	 -99.9966
| 14> H 	 -59.0739 	 14.8161 	 -99.2597
| 15> H 	 -60.1869 	 16.033 	 -99.479
| 16> C 	 -59.0857 	 15.8933 	 -101.197
| 17> H 	 -59.8328 	 16.3033 	 -101.83
| 18> H 	 -58.358 	 16.727 	 -100.972
| 19> C 	 -58.0846 	 15.0443 	 -102.069
| 20> H 	 -57.192 	 15.0927 	 -101.52
| 21> H 	 -58.4958 	 14.0238 	 -102.345
| 22> H 	 -57.7818 	 15.5866 	 -102.98
| 23> S 	 -60.974 	 9.61299 	 -100.184
| 24> C 	 -61.7328 	 8.25974 	 -100.95
| 25> C 	 -62.4274 	 8.66419 	 -102.036
| 26> C 	 -62.4289 	 10.0368 	 -102.305
| 27> C 	 -61.7019 	 10.6953 	 -101.345
| 28> H 	 -62.8331 	 7.92232 	 -102.726
| 29> C 	 -63.0642 	 10.6648 	 -103.525
| 30> H 	 -62.7085 	 11.6449 	 -103.668
| 31> H 	 -64.108 	 10.8318 	 -103.418
| 32> C 	 -62.9199 	 9.90422 	 -104.814
| 33> H 	 -63.5209 	 10.3812 	 -105.594
| 34> H 	 -63.283 	 8.86441 	 -104.866
| 35> C 	 -61.4924 	 9.92843 	 -105.37
| 36> H 	 -61.2228 	 10.9589 	 -105.503
| 37> H 	 -61.4989 	 9.33397 	 -106.254
| 38> H 	 -60.7145 	 9.57209 	 -104.661
| 39> H 	 -62.6854 	 15.5209 	 -100.451
| 40> H 	 -61.5476 	 7.18925 	 -100.774
| 41> *
| 42>
| 43>                          ****END OF INPUT****

CARTESIAN COORDINATES (ANGSTROEM)
---------------------------------
  S    -63.137200   13.089700  -100.908000
  C    -62.255000   14.510000  -100.504000
  C    -60.906600   14.252500  -100.339000
  C    -60.658300   12.833400  -100.378000
  C    -61.719100   12.088900  -100.927000
  H    -59.661800   12.351400  -100.216000
  C    -59.779800   15.264100  -99.996600
  H    -59.073900   14.816100  -99.259700
  H    -60.186900   16.033000  -99.479000
  C    -59.085700   15.893300  -101.197000
  H    -59.832800   16.303300  -101.830000
  H    -58.358000   16.727000  -100.972000
  C    -58.084600   15.044300  -102.069000
  H    -57.192000   15.092700  -101.520000
  H    -58.495800   14.023800  -102.345000
  H    -57.781800   15.586600  -102.980000
  S    -60.974000    9.612990  -100.184000
  C    -61.732800    8.259740  -100.950000
  C    -62.427400    8.664190  -102.036000
  C    -62.428900   10.036800  -102.305000
  C    -61.701900   10.695300  -101.345000
  H    -62.833100    7.922320  -102.726000
  C    -63.064200   10.664800  -103.525000
  H    -62.708500   11.644900  -103.668000
  H    -64.108000   10.831800  -103.418000
  C    -62.919900    9.904220  -104.814000
  H    -63.520900   10.381200  -105.594000
  H    -63.283000    8.864410  -104.866000
  C    -61.492400    9.928430  -105.370000
  H    -61.222800   10.958900  -105.503000
  H    -61.498900    9.333970  -106.254000
  H    -60.714500    9.572090  -104.661000
  H    -62.685400   15.520900  -100.451000
  H    -61.547600    7.189250  -100.774000

 Total Charge           Charge          ....    0
 Multiplicity           Mult            ....    1
 Number of Electrons    NEL             ....  134
 Basis Dimension        Dim             ....  322

ORBITAL ENERGIES
----------------

  NO   OCC          E(Eh)            E(eV)
   0   2.0000     -88.968643     -2420.9599
   1   2.0000     -88.965195     -2420.8660
   2   2.0000     -10.329961      -281.0925
   3   2.0000     -10.324071      -280.9322
   4   2.0000     -10.314037      -280.6592
   5   2.0000     -10.313767      -280.6519
   6   2.0000     -10.305300      -280.4215
   7   2.0000     -10.299962      -280.2762
   8   2.0000     -10.297683      -280.2142
   9   2.0000     -10.290880      -280.0291
  10   2.0000     -10.286973      -279.9228
  11   2.0000     -10.286964      -279.9225
  12   2.0000     -10.284205      -279.8474
  13   2.0000     -10.283865      -279.8382
  14   2.0000     -10.276542      -279.6389
  15   2.0000     -10.268919      -279.4315
  16   2.0000      -8.083580      -219.9654
  17   2.0000      -8.080463      -219.8806
  18   2.0000      -6.042070      -164.4131
  19   2.0000      -6.038996      -164.3294
  20   2.0000      -6.037963      -164.3013
  21   2.0000      -6.034912      -164.2183
  22   2.0000      -6.034444      -164.2056
  23   2.0000      -6.031143      -164.1158
  24   2.0000      -1.013837       -27.5879
  25   2.0000      -0.990315       -26.9478
  26   2.0000      -0.916555       -24.9407
  27   2.0000      -0.907250       -24.6875
  28   2.0000      -0.871310       -23.7096
  29   2.0000      -0.853210       -23.2170
  30   2.0000      -0.842675       -22.9304
  31   2.0000      -0.812672       -22.1139
  32   2.0000      -0.790558       -21.5122
  33   2.0000      -0.779090       -21.2001
  34   2.0000      -0.703712       -19.1490
  35   2.0000      -0.697212       -18.9721
  36   2.0000      -0.692450       -18.8425
  37   2.0000      -0.661128       -17.9902
  38   2.0000      -0.634666       -17.2701
  39   2.0000      -0.613565       -16.6960
  40   2.0000      -0.605138       -16.4666
  41   2.0000      -0.573737       -15.6122
  42   2.0000      -0.560338       -15.2476
  43   2.0000      -0.548324       -14.9207
  44   2.0000      -0.542782       -14.7699
  45   2.0000      -0.535755       -14.5786
  46   2.0000      -0.524470       -14.2715
  47   2.0000      -0.504927       -13.7397
  48   2.0000      -0.500017       -13.6062
  49   2.0000      -0.497481       -13.5371
  50   2.0000      -0.495161       -13.4740
  51   2.0000      -0.481874       -13.1124
  52   2.0000      -0.470721       -12.8090
  53   2.0000      -0.464603       -12.6425
  54   2.0000      -0.461863       -12.5679
  55   2.0000      -0.449315       -12.2265
  56   2.0000      -0.442822       -12.0498
  57   2.0000      -0.439772       -11.9668
  58   2.0000      -0.430580       -11.7167
  59   2.0000      -0.424768       -11.5585
  60   2.0000      -0.417158       -11.3514
  61   2.0000      -0.411741       -11.2040
  62   2.0000      -0.406823       -11.0702
  63   2.0000      -0.353976        -9.6322
  64   2.0000      -0.332978        -9.0608
  65   2.0000      -0.330836        -9.0025
  66   2.0000      -0.287827        -7.8322
  67   0.0000       0.025022         0.6809
  68   0.0000       0.079464         2.1623
  69   0.0000       0.106790         2.9059
  70   0.0000       0.118590         3.2270
  71   0.0000       0.137024         3.7286

MULLIKEN ATOMIC CHARGES
-----------------------
   0 S :    0.127810
   1 C :   -0.130271
   2 C :   -0.111593
   3 C :   -0.002591
   4 C :   -0.144995
   5 H :    0.032575
   6 C :    0.139352
   7 H :    0.029590
   8 H :   -0.007507
   9 C :   -0.096297
  10 H :    0.020363
  11 H :    0.030935
  12 C :   -0.063151
  13 H :    0.017952
  14 H :    0.054807
  15 H :    0.028591
  16 S :    0.105890
  17 C :   -0.080100
  18 C :   -0.048369
  19 C :   -0.055934
  20 C :   -0.147923
  21 H :    0.016031
  22 C :    0.152095
  23 H :    0.003683
  24 H :    0.023328
  25 C :   -0.120852
  26 H :    0.024081
  27 H :    0.028537
  28 C :   -0.033642
  29 H :    0.018866
  30 H :    0.031485
  31 H :    0.038050
  32 H :    0.056638
  33 H :    0.062569
Sum of atomic charges:    0.0000000

LOEWDIN ATOMIC CHARGES
----------------------
   0 S :    0.432797
   1 C :   -0.215873
   2 C :   -0.060388
   3 C :   -0.075021
   4 C :   -0.202700
   5 H :    0.033276
   6 C :   -0.023092
   7 H :    0.036495
   8 H :    0.017941
   9 C :   -0.042202
  10 H :    0.015698
  11 H :    0.031725
  12 C :   -0.071623
  13 H :    0.015634
  14 H :    0.030586
  15 H :    0.028997
  16 S :    0.420122
  17 C :   -0.192465
  18 C :   -0.073409
  19 C :   -0.058568
  20 C :   -0.195476
  21 H :    0.031689
  22 C :   -0.028127
  23 H :    0.025259
  24 H :    0.032273
  25 C :   -0.044084
  26 H :    0.027932
  27 H :    0.021429
  28 C :   -0.062082
  29 H :    0.020973
  30 H :    0.021880
  31 H :    0.028277
  32 H :    0.034068
  33 H :    0.038059

  Mayer bond orders larger than 0.100000
B(  0-S ,  1-C ) :   1.1510 B(  0-S ,  4-C ) :   1.1559 B(  1-C ,  2-C ) :   1.6031
B(  1-C , 32-H ) :   0.9633 B(  2-C ,  3-C ) :   1.2732 B(  2-C ,  6-C ) :   1.0125
B(  3-C ,  4-C ) :   1.5292 B(  3-C ,  5-H ) :   0.9803 B(  4-C , 20-C ) :   1.0536
B(  6-C ,  7-H ) :   0.9472 B(  6-C ,  8-H ) :   0.9271 B(  6-C ,  9-C ) :   1.0655
B(  9-C , 10-H ) :   0.9581 B(  9-C , 11-H ) :   0.9624 B(  9-C , 12-C ) :   1.0690
B( 12-C , 13-H ) :   0.9817 B( 12-C , 14-H ) :   0.9747 B( 12-C , 15-H ) :   0.9726
B( 16-S , 17-C ) :   1.1482 B( 16-S , 20-C ) :   1.1474 B( 17-C , 18-C ) :   1.6192
B( 17-C , 33-H ) :   0.9599 B( 18-C , 19-C ) :   1.2535 B( 18-C , 21-H ) :   0.9827
B( 19-C , 20-C ) :   1.5834 B( 19-C , 22-C ) :   1.0349 B( 22-C , 23-H ) :   0.9281
B( 22-C , 24-H ) :   0.9166 B( 22-C , 25-C ) :   1.0878 B( 25-C , 26-H ) :   0.9486
B( 25-C , 27-H ) :   0.9536 B( 25-C , 28-C ) :   1.0764 B( 28-C , 29-H ) :   0.9729
B( 28-C , 30-H ) :   0.9747 B( 28-C , 31-H ) :   0.9766

Dispersion correction           -0.014395990
FINAL SINGLE POINT ENERGY     -1339.867529295125

DIPOLE MOMENT
-------------
                                X             Y             Z
Electronic contribution:    -10.81508      -8.88363      16.97435
Nuclear contribution   :     10.91326       9.02722     -17.31548
                        -----------------------------------------
Total Dipole Moment    :      0.09818       0.14359      -0.34113
                        -----------------------------------------
Magnitude (a.u.)       :      0.38292
Magnitude (Debye)      :      0.97330

Rotational constants in cm-1:     0.019502     0.008084     0.007524
Rotational constants in MHz :   584.650626   242.346108   225.562308

                             ****ORCA TERMINATED NORMALLY****
TOTAL RUN TIME: 0 days 0 hours 0 minutes 20 seconds 453 msec
