                         Program Version 4.2.1 -  RELEASE  -
|  1> ! wB97X-D3 SP def2-SVP
|  2> %pal
|  3> nprocs 24
|  4> end
|  5>
|  6> * xyz 0 1
|  7> S 	 -115.947 	 56.046 	 -78.9431
|  8> C 	 -116.877 	 57.4718 	 -79.3184
|  9> C 	 -116.392 	 58.0092 	 -80.5613
| 10> C 	 -115.192 	 57.4076 	 -80.9877
| 11> C 	 -114.759 	 56.3663 	 -80.2057
| 12> H 	 -114.756 	 57.6731 	 -81.9573
| 13> C 	 -117.124 	 59.1263 	 -81.2131
| 14> H 	 -118.233 	 58.9955 	 -81.0565
| 15> H 	 -116.931 	 59.1071 	 -82.2706
| 16> C 	 -116.927 	 60.5762 	 -80.7299
| 17> H 	 -117.444 	 61.324 	 -81.3552
| 18> H 	 -117.418 	 60.713 	 -79.8051
| 19> C 	 -115.444 	 61.0271 	 -80.4566
| 20> H 	 -115.447 	 62.0476 	 -80.057
| 21> H 	 -115.045 	 60.2256 	 -79.8306
| 22> H 	 -114.936 	 61.1711 	 -81.4197
| 23> S 	 -113.568 	 53.9735 	 -79.7112
| 24> C 	 -111.99 	 53.6669 	 -80.3991
| 25> C 	 -111.436 	 54.7868 	 -81.0164
| 26> C 	 -112.329 	 55.8823 	 -80.9344
| 27> C 	 -113.543 	 55.5773 	 -80.3208
| 28> H 	 -110.477 	 54.5504 	 -81.431
| 29> C 	 -111.889 	 57.2558 	 -81.4148
| 30> H 	 -112.444 	 57.5094 	 -82.2554
| 31> H 	 -110.885 	 57.1843 	 -81.8465
| 32> C 	 -111.94 	 58.3756 	 -80.3563
| 33> H 	 -111.184 	 58.2878 	 -79.5796
| 34> H 	 -112.941 	 58.3635 	 -79.8554
| 35> C 	 -111.633 	 59.747 	 -80.9801
| 36> H 	 -110.681 	 59.6944 	 -81.4235
| 37> H 	 -111.441 	 60.359 	 -80.1419
| 38> H 	 -112.433 	 60.1579 	 -81.614
| 39> H 	 -117.788 	 57.773 	 -78.8646
| 40> H 	 -111.467 	 52.7502 	 -80.3303
| 41> *
| 42>
| 43>                          ****END OF INPUT****

CARTESIAN COORDINATES (ANGSTROEM)
---------------------------------
  S    -115.947000   56.046000  -78.943100
  C    -116.877000   57.471800  -79.318400
  C    -116.392000   58.009200  -80.561300
  C    -115.192000   57.407600  -80.987700
  C    -114.759000   56.366300  -80.205700
  H    -114.756000   57.673100  -81.957300
  C    -117.124000   59.126300  -81.213100
  H    -118.233000   58.995500  -81.056500
  H    -116.931000   59.107100  -82.270600
  C    -116.927000   60.576200  -80.729900
  H    -117.444000   61.324000  -81.355200
  H    -117.418000   60.713000  -79.805100
  C    -115.444000   61.027100  -80.456600
  H    -115.447000   62.047600  -80.057000
  H    -115.045000   60.225600  -79.830600
  H    -114.936000   61.171100  -81.419700
  S    -113.568000   53.973500  -79.711200
  C    -111.990000   53.666900  -80.399100
  C    -111.436000   54.786800  -81.016400
  C    -112.329000   55.882300  -80.934400
  C    -113.543000   55.577300  -80.320800
  H    -110.477000   54.550400  -81.431000
  C    -111.889000   57.255800  -81.414800
  H    -112.444000   57.509400  -82.255400
  H    -110.885000   57.184300  -81.846500
  C    -111.940000   58.375600  -80.356300
  H    -111.184000   58.287800  -79.579600
  H    -112.941000   58.363500  -79.855400
  C    -111.633000   59.747000  -80.980100
  H    -110.681000   59.694400  -81.423500
  H    -111.441000   60.359000  -80.141900
  H    -112.433000   60.157900  -81.614000
  H    -117.788000   57.773000  -78.864600
  H    -111.467000   52.750200  -80.330300

 Total Charge           Charge          ....    0
 Multiplicity           Mult            ....    1
 Number of Electrons    NEL             ....  134
 Basis Dimension        Dim             ....  322

ORBITAL ENERGIES
----------------

  NO   OCC          E(Eh)            E(eV)
   0   2.0000     -88.969535     -2420.9841
   1   2.0000     -88.968289     -2420.9502
   2   2.0000     -10.333667      -281.1934
   3   2.0000     -10.325820      -280.9799
   4   2.0000     -10.316352      -280.7222
   5   2.0000     -10.313850      -280.6541
   6   2.0000     -10.305096      -280.4159
   7   2.0000     -10.304049      -280.3874
   8   2.0000     -10.295067      -280.1430
   9   2.0000     -10.293982      -280.1135
  10   2.0000     -10.292668      -280.0777
  11   2.0000     -10.284142      -279.8457
  12   2.0000     -10.283380      -279.8250
  13   2.0000     -10.282160      -279.7918
  14   2.0000     -10.277370      -279.6615
  15   2.0000     -10.266869      -279.3757
  16   2.0000      -8.083892      -219.9739
  17   2.0000      -8.083668      -219.9678
  18   2.0000      -6.042390      -164.4218
  19   2.0000      -6.042027      -164.4119
  20   2.0000      -6.038401      -164.3132
  21   2.0000      -6.038132      -164.3059
  22   2.0000      -6.034748      -164.2139
  23   2.0000      -6.034523      -164.2077
  24   2.0000      -1.011443       -27.5228
  25   2.0000      -0.986219       -26.8364
  26   2.0000      -0.910090       -24.7648
  27   2.0000      -0.907297       -24.6888
  28   2.0000      -0.869631       -23.6639
  29   2.0000      -0.855690       -23.2845
  30   2.0000      -0.845617       -23.0104
  31   2.0000      -0.818903       -22.2835
  32   2.0000      -0.783443       -21.3186
  33   2.0000      -0.770788       -20.9742
  34   2.0000      -0.708730       -19.2855
  35   2.0000      -0.701747       -19.0955
  36   2.0000      -0.690991       -18.8028
  37   2.0000      -0.665311       -18.1040
  38   2.0000      -0.636797       -17.3281
  39   2.0000      -0.623735       -16.9727
  40   2.0000      -0.593783       -16.1576
  41   2.0000      -0.573640       -15.6095
  42   2.0000      -0.567343       -15.4382
  43   2.0000      -0.550571       -14.9818
  44   2.0000      -0.544020       -14.8035
  45   2.0000      -0.525617       -14.3028
  46   2.0000      -0.515711       -14.0332
  47   2.0000      -0.508627       -13.8405
  48   2.0000      -0.506917       -13.7939
  49   2.0000      -0.503521       -13.7015
  50   2.0000      -0.490425       -13.3451
  51   2.0000      -0.485178       -13.2024
  52   2.0000      -0.474470       -12.9110
  53   2.0000      -0.468958       -12.7610
  54   2.0000      -0.456155       -12.4126
  55   2.0000      -0.449517       -12.2320
  56   2.0000      -0.444930       -12.1072
  57   2.0000      -0.435171       -11.8416
  58   2.0000      -0.430881       -11.7249
  59   2.0000      -0.421721       -11.4756
  60   2.0000      -0.417597       -11.3634
  61   2.0000      -0.410476       -11.1696
  62   2.0000      -0.408723       -11.1219
  63   2.0000      -0.357705        -9.7337
  64   2.0000      -0.338866        -9.2210
  65   2.0000      -0.328230        -8.9316
  66   2.0000      -0.278585        -7.5807
  67   0.0000       0.016648         0.4530
  68   0.0000       0.074574         2.0293
  69   0.0000       0.097837         2.6623
  70   0.0000       0.118393         3.2216
  71   0.0000       0.131490         3.5780

MULLIKEN ATOMIC CHARGES
-----------------------
   0 S :    0.107052
   1 C :   -0.099179
   2 C :   -0.126833
   3 C :   -0.008905
   4 C :   -0.107098
   5 H :    0.018216
   6 C :    0.067288
   7 H :    0.037253
   8 H :    0.021007
   9 C :   -0.077213
  10 H :    0.025736
  11 H :    0.008604
  12 C :   -0.075708
  13 H :    0.035904
  14 H :    0.066547
  15 H :    0.029097
  16 S :    0.110602
  17 C :   -0.092974
  18 C :   -0.036915
  19 C :   -0.045897
  20 C :   -0.114807
  21 H :    0.015566
  22 C :    0.117187
  23 H :    0.003668
  24 H :    0.004944
  25 C :   -0.110421
  26 H :    0.025899
  27 H :    0.058148
  28 C :   -0.008979
  29 H :    0.012218
  30 H :    0.015919
  31 H :    0.042066
  32 H :    0.041933
  33 H :    0.040071
Sum of atomic charges:    0.0000000

LOEWDIN ATOMIC CHARGES
----------------------
   0 S :    0.407958
   1 C :   -0.198872
   2 C :   -0.062801
   3 C :   -0.073480
   4 C :   -0.181924
   5 H :    0.036168
   6 C :   -0.038679
   7 H :    0.042292
   8 H :    0.027045
   9 C :   -0.041864
  10 H :    0.024624
  11 H :    0.012853
  12 C :   -0.068778
  13 H :    0.028586
  14 H :    0.030358
  15 H :    0.021008
  16 S :    0.421760
  17 C :   -0.177593
  18 C :   -0.067639
  19 C :   -0.052673
  20 C :   -0.209822
  21 H :    0.036095
  22 C :   -0.030802
  23 H :    0.018053
  24 H :    0.030393
  25 C :   -0.036397
  26 H :    0.024112
  27 H :    0.029756
  28 C :   -0.059124
  29 H :    0.018285
  30 H :    0.023685
  31 H :    0.025617
  32 H :    0.022195
  33 H :    0.019604

  Mayer bond orders larger than 0.100000
B(  0-S ,  1-C ) :   1.1534 B(  0-S ,  4-C ) :   1.1563 B(  1-C ,  2-C ) :   1.5353
B(  1-C ,  4-C ) :   0.1139 B(  1-C , 32-H ) :   0.9767 B(  2-C ,  3-C ) :   1.2876
B(  2-C ,  6-C ) :   1.0459 B(  3-C ,  4-C ) :   1.5231 B(  3-C ,  5-H ) :   0.9921
B(  4-C , 20-C ) :   1.0768 B(  6-C ,  7-H ) :   0.9385 B(  6-C ,  8-H ) :   0.9382
B(  6-C ,  9-C ) :   1.0646 B(  9-C , 10-H ) :   0.9544 B(  9-C , 11-H ) :   0.9558
B(  9-C , 12-C ) :   1.0786 B( 12-C , 13-H ) :   0.9717 B( 12-C , 14-H ) :   0.9699
B( 12-C , 15-H ) :   0.9765 B( 16-S , 17-C ) :   1.1644 B( 16-S , 20-C ) :   1.1446
B( 17-C , 18-C ) :   1.6078 B( 17-C , 20-C ) :   0.1016 B( 17-C , 33-H ) :   0.9697
B( 18-C , 19-C ) :   1.2397 B( 18-C , 21-H ) :   1.0020 B( 19-C , 20-C ) :   1.5629
B( 19-C , 22-C ) :   1.0360 B( 22-C , 23-H ) :   0.9247 B( 22-C , 24-H ) :   0.9264
B( 22-C , 25-C ) :   1.0596 B( 25-C , 26-H ) :   0.9557 B( 25-C , 27-H ) :   0.9538
B( 25-C , 28-C ) :   1.0887 B( 28-C , 29-H ) :   0.9685 B( 28-C , 30-H ) :   0.9720
B( 28-C , 31-H ) :   0.9730

Dispersion correction           -0.015849431
FINAL SINGLE POINT ENERGY     -1339.871870725815

DIPOLE MOMENT
-------------
                                X             Y             Z
Electronic contribution:     -4.36115     -30.16227       8.54089
Nuclear contribution   :      4.54132      30.57368      -8.89720
                        -----------------------------------------
Total Dipole Moment    :      0.18017       0.41140      -0.35631
                        -----------------------------------------
Magnitude (a.u.)       :      0.57330
Magnitude (Debye)      :      1.45721

Rotational constants in cm-1:     0.019804     0.010224     0.007240
Rotational constants in MHz :   593.711972   306.494591   217.046066

                             ****ORCA TERMINATED NORMALLY****
TOTAL RUN TIME: 0 days 0 hours 0 minutes 21 seconds 979 msec
