                         Program Version 4.2.1 -  RELEASE  -
|  1> ! wB97X-D3 SP def2-SVP
|  2> %pal
|  3> nprocs 24
|  4> end
|  5>
|  6> * xyz 0 1
|  7> S 	 -112.115 	 54.903 	 -92.8586
|  8> C 	 -111.259 	 56.1914 	 -93.6624
|  9> C 	 -110.586 	 56.9609 	 -92.8043
| 10> C 	 -110.674 	 56.4841 	 -91.4369
| 11> C 	 -111.441 	 55.3813 	 -91.3033
| 12> H 	 -110.165 	 56.8632 	 -90.5624
| 13> C 	 -109.539 	 57.9993 	 -93.1441
| 14> H 	 -109.199 	 58.4373 	 -92.2297
| 15> H 	 -109.927 	 58.9459 	 -93.6189
| 16> C 	 -108.369 	 57.5008 	 -94.0109
| 17> H 	 -107.761 	 56.8109 	 -93.4398
| 18> H 	 -108.673 	 57.0091 	 -94.9623
| 19> C 	 -107.519 	 58.755 	 -94.3448
| 20> H 	 -108.062 	 59.4979 	 -94.8204
| 21> H 	 -107.05 	 59.2156 	 -93.3946
| 22> H 	 -106.763 	 58.5678 	 -95.1449
| 23> S 	 -113.652 	 54.5687 	 -89.9174
| 24> C 	 -113.457 	 53.8021 	 -88.4116
| 25> C 	 -112.136 	 53.6928 	 -88.0123
| 26> C 	 -111.232 	 54.1973 	 -89.0055
| 27> C 	 -111.907 	 54.7446 	 -90.0927
| 28> H 	 -111.935 	 53.2646 	 -87.1097
| 29> C 	 -109.74 	 54.2981 	 -88.8166
| 30> H 	 -109.632 	 54.2116 	 -87.7401
| 31> H 	 -109.574 	 55.3461 	 -89.0218
| 32> C 	 -108.816 	 53.2484 	 -89.5707
| 33> H 	 -108.926 	 53.4891 	 -90.5811
| 34> H 	 -109.091 	 52.1858 	 -89.4755
| 35> C 	 -107.285 	 53.2392 	 -89.2612
| 36> H 	 -107.101 	 53.1126 	 -88.1474
| 37> H 	 -106.801 	 54.2539 	 -89.3061
| 38> H 	 -106.704 	 52.5634 	 -89.8543
| 39> H 	 -111.247 	 56.246 	 -94.7667
| 40> H 	 -114.297 	 53.5105 	 -87.84
| 41> *
| 42>
| 43>                          ****END OF INPUT****

CARTESIAN COORDINATES (ANGSTROEM)
---------------------------------
  S    -112.115000   54.903000  -92.858600
  C    -111.259000   56.191400  -93.662400
  C    -110.586000   56.960900  -92.804300
  C    -110.674000   56.484100  -91.436900
  C    -111.441000   55.381300  -91.303300
  H    -110.165000   56.863200  -90.562400
  C    -109.539000   57.999300  -93.144100
  H    -109.199000   58.437300  -92.229700
  H    -109.927000   58.945900  -93.618900
  C    -108.369000   57.500800  -94.010900
  H    -107.761000   56.810900  -93.439800
  H    -108.673000   57.009100  -94.962300
  C    -107.519000   58.755000  -94.344800
  H    -108.062000   59.497900  -94.820400
  H    -107.050000   59.215600  -93.394600
  H    -106.763000   58.567800  -95.144900
  S    -113.652000   54.568700  -89.917400
  C    -113.457000   53.802100  -88.411600
  C    -112.136000   53.692800  -88.012300
  C    -111.232000   54.197300  -89.005500
  C    -111.907000   54.744600  -90.092700
  H    -111.935000   53.264600  -87.109700
  C    -109.740000   54.298100  -88.816600
  H    -109.632000   54.211600  -87.740100
  H    -109.574000   55.346100  -89.021800
  C    -108.816000   53.248400  -89.570700
  H    -108.926000   53.489100  -90.581100
  H    -109.091000   52.185800  -89.475500
  C    -107.285000   53.239200  -89.261200
  H    -107.101000   53.112600  -88.147400
  H    -106.801000   54.253900  -89.306100
  H    -106.704000   52.563400  -89.854300
  H    -111.247000   56.246000  -94.766700
  H    -114.297000   53.510500  -87.840000

 Total Charge           Charge          ....    0
 Multiplicity           Mult            ....    1
 Number of Electrons    NEL             ....  134
 Basis Dimension        Dim             ....  322

ORBITAL ENERGIES
----------------

  NO   OCC          E(Eh)            E(eV)
   0   2.0000     -88.964280     -2420.8411
   1   2.0000     -88.961275     -2420.7593
   2   2.0000     -10.324655      -280.9481
   3   2.0000     -10.322433      -280.8877
   4   2.0000     -10.312057      -280.6053
   5   2.0000     -10.310323      -280.5582
   6   2.0000     -10.303785      -280.3802
   7   2.0000     -10.297478      -280.2086
   8   2.0000     -10.295174      -280.1459
   9   2.0000     -10.292219      -280.0655
  10   2.0000     -10.292048      -280.0609
  11   2.0000     -10.291641      -280.0498
  12   2.0000     -10.289527      -279.9923
  13   2.0000     -10.287638      -279.9409
  14   2.0000     -10.284808      -279.8639
  15   2.0000     -10.282133      -279.7911
  16   2.0000      -8.079888      -219.8649
  17   2.0000      -8.076525      -219.7734
  18   2.0000      -6.038186      -164.3074
  19   2.0000      -6.035121      -164.2240
  20   2.0000      -6.034252      -164.2004
  21   2.0000      -6.030974      -164.1111
  22   2.0000      -6.030839      -164.1075
  23   2.0000      -6.027138      -164.0068
  24   2.0000      -1.010860       -27.5069
  25   2.0000      -0.987930       -26.8829
  26   2.0000      -0.911590       -24.8056
  27   2.0000      -0.902605       -24.5611
  28   2.0000      -0.872503       -23.7420
  29   2.0000      -0.853008       -23.2115
  30   2.0000      -0.845683       -23.0122
  31   2.0000      -0.816260       -22.2116
  32   2.0000      -0.781948       -21.2779
  33   2.0000      -0.769509       -20.9394
  34   2.0000      -0.710521       -19.3343
  35   2.0000      -0.707024       -19.2391
  36   2.0000      -0.694203       -18.8902
  37   2.0000      -0.670162       -18.2360
  38   2.0000      -0.645949       -17.5772
  39   2.0000      -0.617857       -16.8127
  40   2.0000      -0.591784       -16.1033
  41   2.0000      -0.574058       -15.6209
  42   2.0000      -0.562086       -15.2951
  43   2.0000      -0.552253       -15.0276
  44   2.0000      -0.532689       -14.4952
  45   2.0000      -0.520898       -14.1744
  46   2.0000      -0.518697       -14.1145
  47   2.0000      -0.512272       -13.9396
  48   2.0000      -0.506755       -13.7895
  49   2.0000      -0.495208       -13.4753
  50   2.0000      -0.491890       -13.3850
  51   2.0000      -0.483689       -13.1618
  52   2.0000      -0.474223       -12.9043
  53   2.0000      -0.462746       -12.5920
  54   2.0000      -0.455218       -12.3871
  55   2.0000      -0.448461       -12.2032
  56   2.0000      -0.443793       -12.0762
  57   2.0000      -0.440690       -11.9918
  58   2.0000      -0.434182       -11.8147
  59   2.0000      -0.424827       -11.5601
  60   2.0000      -0.420935       -11.4542
  61   2.0000      -0.417332       -11.3562
  62   2.0000      -0.410726       -11.1764
  63   2.0000      -0.350714        -9.5434
  64   2.0000      -0.333087        -9.0638
  65   2.0000      -0.327788        -8.9196
  66   2.0000      -0.293521        -7.9871
  67   0.0000       0.036207         0.9852
  68   0.0000       0.068778         1.8715
  69   0.0000       0.114392         3.1128
  70   0.0000       0.119957         3.2642
  71   0.0000       0.135821         3.6959

MULLIKEN ATOMIC CHARGES
-----------------------
   0 S :    0.096059
   1 C :   -0.152152
   2 C :   -0.014366
   3 C :    0.016891
   4 C :   -0.139563
   5 H :    0.013526
   6 C :    0.042688
   7 H :    0.001628
   8 H :    0.027472
   9 C :   -0.055511
  10 H :    0.035087
  11 H :    0.037830
  12 C :   -0.066889
  13 H :    0.011424
  14 H :    0.044746
  15 H :    0.032972
  16 S :    0.118333
  17 C :   -0.080857
  18 C :   -0.000952
  19 C :   -0.048210
  20 C :   -0.173626
  21 H :   -0.021865
  22 C :    0.093267
  23 H :    0.008083
  24 H :    0.017825
  25 C :   -0.030986
  26 H :    0.027080
  27 H :    0.039107
  28 C :   -0.078517
  29 H :    0.027881
  30 H :    0.021884
  31 H :    0.045211
  32 H :    0.060495
  33 H :    0.044006
Sum of atomic charges:    0.0000000

LOEWDIN ATOMIC CHARGES
----------------------
   0 S :    0.391412
   1 C :   -0.189660
   2 C :   -0.069062
   3 C :   -0.061260
   4 C :   -0.187761
   5 H :    0.030103
   6 C :   -0.036761
   7 H :    0.023932
   8 H :    0.034381
   9 C :   -0.033751
  10 H :    0.024625
  11 H :    0.027434
  12 C :   -0.071835
  13 H :    0.010743
  14 H :    0.035193
  15 H :    0.029381
  16 S :    0.424895
  17 C :   -0.188338
  18 C :   -0.062001
  19 C :   -0.051701
  20 C :   -0.200689
  21 H :    0.015537
  22 C :   -0.028300
  23 H :    0.027754
  24 H :    0.031137
  25 C :   -0.032907
  26 H :    0.018787
  27 H :    0.032040
  28 C :   -0.077258
  29 H :    0.028826
  30 H :    0.025853
  31 H :    0.024482
  32 H :    0.034423
  33 H :    0.020344

  Mayer bond orders larger than 0.100000
B(  0-S ,  1-C ) :   1.1246 B(  0-S ,  4-C ) :   1.1318 B(  1-C ,  2-C ) :   1.6463
B(  1-C , 32-H ) :   0.9680 B(  2-C ,  3-C ) :   1.2049 B(  2-C ,  6-C ) :   1.0215
B(  3-C ,  4-C ) :   1.6231 B(  3-C ,  5-H ) :   0.9901 B(  4-C , 20-C ) :   1.0372
B(  6-C ,  7-H ) :   0.9401 B(  6-C ,  8-H ) :   0.9399 B(  6-C ,  9-C ) :   1.0583
B(  9-C , 10-H ) :   0.9572 B(  9-C , 11-H ) :   0.9566 B(  9-C , 12-C ) :   1.0766
B( 12-C , 13-H ) :   0.9747 B( 12-C , 14-H ) :   0.9743 B( 12-C , 15-H ) :   0.9721
B( 16-S , 17-C ) :   1.1761 B( 16-S , 20-C ) :   1.1482 B( 17-C , 18-C ) :   1.5875
B( 17-C , 33-H ) :   0.9711 B( 18-C , 19-C ) :   1.2423 B( 18-C , 21-H ) :   1.0099
B( 19-C , 20-C ) :   1.5875 B( 19-C , 22-C ) :   1.0276 B( 22-C , 23-H ) :   0.9308
B( 22-C , 24-H ) :   0.9373 B( 22-C , 25-C ) :   1.0385 B( 25-C , 26-H ) :   0.9575
B( 25-C , 27-H ) :   0.9610 B( 25-C , 28-C ) :   1.0791 B( 28-C , 29-H ) :   0.9741
B( 28-C , 30-H ) :   0.9735 B( 28-C , 31-H ) :   0.9766

Dispersion correction           -0.013803670
FINAL SINGLE POINT ENERGY     -1339.871508364335

DIPOLE MOMENT
-------------
                                X             Y             Z
Electronic contribution:    -30.13239      -7.48741       2.03489
Nuclear contribution   :     30.66639       7.68868      -1.90002
                        -----------------------------------------
Total Dipole Moment    :      0.53400       0.20127       0.13487
                        -----------------------------------------
Magnitude (a.u.)       :      0.58640
Magnitude (Debye)      :      1.49050

Rotational constants in cm-1:     0.018387     0.008566     0.006469
Rotational constants in MHz :   551.228828   256.814333   193.936692

                             ****ORCA TERMINATED NORMALLY****
TOTAL RUN TIME: 0 days 0 hours 0 minutes 21 seconds 280 msec
