                         Program Version 4.2.1 -  RELEASE  -
|  1> ! wB97X-D3 SP def2-SVP
|  2> %pal
|  3> nprocs 24
|  4> end
|  5>
|  6> * xyz 0 1
|  7> S 	 19.0199 	 0.0843758 	 -113.31
|  8> C 	 18.8944 	 -1.21263 	 -112.171
|  9> C 	 19.0295 	 -0.833987 	 -110.85
| 10> C 	 19.2579 	 0.56682 	 -110.773
| 11> C 	 19.3161 	 1.20106 	 -111.986
| 12> H 	 19.4742 	 1.0497 	 -109.833
| 13> C 	 19.0452 	 -1.71963 	 -109.621
| 14> H 	 20.0867 	 -1.84363 	 -109.336
| 15> H 	 18.7134 	 -2.75343 	 -109.95
| 16> C 	 18.0846 	 -1.2634 	 -108.5
| 17> H 	 18.2951 	 -1.90223 	 -107.601
| 18> H 	 18.2811 	 -0.244808 	 -108.22
| 19> C 	 16.6005 	 -1.48947 	 -108.793
| 20> H 	 16.1983 	 -0.943507 	 -109.655
| 21> H 	 16.4572 	 -2.52539 	 -108.929
| 22> H 	 16.0237 	 -1.16705 	 -107.987
| 23> S 	 18.4756 	 3.80181 	 -111.545
| 24> C 	 19.2714 	 5.12436 	 -112.321
| 25> C 	 20.4164 	 4.68744 	 -112.837
| 26> C 	 20.6713 	 3.26628 	 -112.7
| 27> C 	 19.5511 	 2.61989 	 -112.194
| 28> H 	 21.0031 	 5.44709 	 -113.318
| 29> C 	 21.8947 	 2.55952 	 -113.14
| 30> H 	 21.998 	 1.65061 	 -112.62
| 31> H 	 22.8021 	 3.03312 	 -112.758
| 32> C 	 21.8829 	 2.32729 	 -114.636
| 33> H 	 21.9107 	 3.27122 	 -115.107
| 34> H 	 21.0134 	 1.82512 	 -114.917
| 35> C 	 23.0813 	 1.49241 	 -115.157
| 36> H 	 23.0476 	 1.41279 	 -116.238
| 37> H 	 23.1734 	 0.448126 	 -114.815
| 38> H 	 23.9701 	 2.06618 	 -114.885
| 39> H 	 19.0951 	 -2.23632 	 -112.455
| 40> H 	 18.921 	 6.06788 	 -112.652
| 41> *
| 42>
| 43>                          ****END OF INPUT****

CARTESIAN COORDINATES (ANGSTROEM)
---------------------------------
  S     19.019900    0.084376  -113.310000
  C     18.894400   -1.212630  -112.171000
  C     19.029500   -0.833987  -110.850000
  C     19.257900    0.566820  -110.773000
  C     19.316100    1.201060  -111.986000
  H     19.474200    1.049700  -109.833000
  C     19.045200   -1.719630  -109.621000
  H     20.086700   -1.843630  -109.336000
  H     18.713400   -2.753430  -109.950000
  C     18.084600   -1.263400  -108.500000
  H     18.295100   -1.902230  -107.601000
  H     18.281100   -0.244808  -108.220000
  C     16.600500   -1.489470  -108.793000
  H     16.198300   -0.943507  -109.655000
  H     16.457200   -2.525390  -108.929000
  H     16.023700   -1.167050  -107.987000
  S     18.475600    3.801810  -111.545000
  C     19.271400    5.124360  -112.321000
  C     20.416400    4.687440  -112.837000
  C     20.671300    3.266280  -112.700000
  C     19.551100    2.619890  -112.194000
  H     21.003100    5.447090  -113.318000
  C     21.894700    2.559520  -113.140000
  H     21.998000    1.650610  -112.620000
  H     22.802100    3.033120  -112.758000
  C     21.882900    2.327290  -114.636000
  H     21.910700    3.271220  -115.107000
  H     21.013400    1.825120  -114.917000
  C     23.081300    1.492410  -115.157000
  H     23.047600    1.412790  -116.238000
  H     23.173400    0.448126  -114.815000
  H     23.970100    2.066180  -114.885000
  H     19.095100   -2.236320  -112.455000
  H     18.921000    6.067880  -112.652000

 Total Charge           Charge          ....    0
 Multiplicity           Mult            ....    1
 Number of Electrons    NEL             ....  134
 Basis Dimension        Dim             ....  322

ORBITAL ENERGIES
----------------

  NO   OCC          E(Eh)            E(eV)
   0   2.0000     -88.968953     -2420.9683
   1   2.0000     -88.958252     -2420.6771
   2   2.0000     -10.327873      -281.0357
   3   2.0000     -10.320757      -280.8421
   4   2.0000     -10.309362      -280.5320
   5   2.0000     -10.304498      -280.3996
   6   2.0000     -10.300098      -280.2799
   7   2.0000     -10.298897      -280.2472
   8   2.0000     -10.298669      -280.2410
   9   2.0000     -10.290928      -280.0304
  10   2.0000     -10.290704      -280.0243
  11   2.0000     -10.285643      -279.8866
  12   2.0000     -10.278438      -279.6905
  13   2.0000     -10.274726      -279.5895
  14   2.0000     -10.273593      -279.5587
  15   2.0000     -10.267728      -279.3991
  16   2.0000      -8.083550      -219.9646
  17   2.0000      -8.074061      -219.7064
  18   2.0000      -6.042043      -164.4124
  19   2.0000      -6.038112      -164.3054
  20   2.0000      -6.034316      -164.2021
  21   2.0000      -6.032686      -164.1577
  22   2.0000      -6.028406      -164.0413
  23   2.0000      -6.024625      -163.9384
  24   2.0000      -1.011876       -27.5345
  25   2.0000      -0.990339       -26.9485
  26   2.0000      -0.914345       -24.8806
  27   2.0000      -0.910898       -24.7868
  28   2.0000      -0.874665       -23.8008
  29   2.0000      -0.851815       -23.1791
  30   2.0000      -0.844020       -22.9669
  31   2.0000      -0.819576       -22.3018
  32   2.0000      -0.785548       -21.3759
  33   2.0000      -0.770945       -20.9785
  34   2.0000      -0.712283       -19.3822
  35   2.0000      -0.702621       -19.1193
  36   2.0000      -0.693358       -18.8672
  37   2.0000      -0.657042       -17.8790
  38   2.0000      -0.636933       -17.3318
  39   2.0000      -0.626160       -17.0387
  40   2.0000      -0.598895       -16.2968
  41   2.0000      -0.572723       -15.5846
  42   2.0000      -0.566883       -15.4257
  43   2.0000      -0.557775       -15.1778
  44   2.0000      -0.543280       -14.7834
  45   2.0000      -0.525907       -14.3107
  46   2.0000      -0.517696       -14.0872
  47   2.0000      -0.512963       -13.9584
  48   2.0000      -0.503799       -13.7091
  49   2.0000      -0.495832       -13.4923
  50   2.0000      -0.489143       -13.3103
  51   2.0000      -0.476714       -12.9721
  52   2.0000      -0.473274       -12.8784
  53   2.0000      -0.465030       -12.6541
  54   2.0000      -0.460362       -12.5271
  55   2.0000      -0.448754       -12.2112
  56   2.0000      -0.445636       -12.1264
  57   2.0000      -0.436140       -11.8680
  58   2.0000      -0.431225       -11.7342
  59   2.0000      -0.427206       -11.6249
  60   2.0000      -0.422958       -11.5093
  61   2.0000      -0.417308       -11.3555
  62   2.0000      -0.411984       -11.2106
  63   2.0000      -0.340489        -9.2652
  64   2.0000      -0.334517        -9.1027
  65   2.0000      -0.321336        -8.7440
  66   2.0000      -0.301066        -8.1924
  67   0.0000       0.037230         1.0131
  68   0.0000       0.062097         1.6897
  69   0.0000       0.110461         3.0058
  70   0.0000       0.118380         3.2213
  71   0.0000       0.135949         3.6994

MULLIKEN ATOMIC CHARGES
-----------------------
   0 S :    0.118348
   1 C :   -0.114204
   2 C :   -0.108151
   3 C :    0.024927
   4 C :   -0.168088
   5 H :    0.011922
   6 C :    0.066360
   7 H :    0.045362
   8 H :    0.018271
   9 C :   -0.092760
  10 H :    0.034453
  11 H :    0.028512
  12 C :   -0.012249
  13 H :    0.042037
  14 H :    0.017782
  15 H :    0.020574
  16 S :    0.106673
  17 C :   -0.061576
  18 C :   -0.045440
  19 C :   -0.042236
  20 C :   -0.157407
  21 H :    0.010062
  22 C :    0.113908
  23 H :    0.000303
  24 H :    0.015360
  25 C :   -0.031976
  26 H :    0.015443
  27 H :    0.007183
  28 C :   -0.047132
  29 H :    0.029254
  30 H :    0.037635
  31 H :    0.023784
  32 H :    0.049558
  33 H :    0.043510
Sum of atomic charges:   -0.0000000

LOEWDIN ATOMIC CHARGES
----------------------
   0 S :    0.417162
   1 C :   -0.209270
   2 C :   -0.063291
   3 C :   -0.059615
   4 C :   -0.190295
   5 H :    0.030004
   6 C :   -0.033158
   7 H :    0.034038
   8 H :    0.033149
   9 C :   -0.037666
  10 H :    0.031781
  11 H :    0.017138
  12 C :   -0.055141
  13 H :    0.030332
  14 H :    0.019709
  15 H :    0.020428
  16 S :    0.413963
  17 C :   -0.191885
  18 C :   -0.070665
  19 C :   -0.048804
  20 C :   -0.207346
  21 H :    0.028259
  22 C :   -0.035820
  23 H :    0.024010
  24 H :    0.032698
  25 C :   -0.025892
  26 H :    0.019869
  27 H :    0.009979
  28 C :   -0.065419
  29 H :    0.024314
  30 H :    0.026614
  31 H :    0.022912
  32 H :    0.026260
  33 H :    0.031648

  Mayer bond orders larger than 0.100000
B(  0-S ,  1-C ) :   1.1426 B(  0-S ,  4-C ) :   1.1512 B(  1-C ,  2-C ) :   1.6307
B(  1-C , 32-H ) :   0.9543 B(  2-C ,  3-C ) :   1.2447 B(  2-C ,  6-C ) :   1.0137
B(  3-C ,  4-C ) :   1.5892 B(  3-C ,  5-H ) :   0.9958 B(  4-C , 20-C ) :   1.0201
B(  6-C ,  7-H ) :   0.9396 B(  6-C ,  8-H ) :   0.9420 B(  6-C ,  9-C ) :   1.0649
B(  9-C , 10-H ) :   0.9548 B(  9-C , 11-H ) :   0.9590 B(  9-C , 12-C ) :   1.0788
B( 12-C , 13-H ) :   0.9752 B( 12-C , 14-H ) :   0.9736 B( 12-C , 15-H ) :   0.9717
B( 16-S , 17-C ) :   1.1363 B( 16-S , 20-C ) :   1.1422 B( 17-C , 18-C ) :   1.6627
B( 17-C , 33-H ) :   0.9633 B( 18-C , 19-C ) :   1.2017 B( 18-C , 21-H ) :   0.9914
B( 19-C , 20-C ) :   1.5922 B( 19-C , 22-C ) :   1.0720 B( 22-C , 23-H ) :   0.9117
B( 22-C , 24-H ) :   0.9227 B( 22-C , 25-C ) :   1.0643 B( 25-C , 26-H ) :   0.9556
B( 25-C , 27-H ) :   0.9499 B( 25-C , 28-C ) :   1.0857 B( 28-C , 29-H ) :   0.9746
B( 28-C , 30-H ) :   0.9761 B( 28-C , 31-H ) :   0.9746

Dispersion correction           -0.014712092
FINAL SINGLE POINT ENERGY     -1339.875615257246

DIPOLE MOMENT
-------------
                                X             Y             Z
Electronic contribution:     -7.87361      11.27471      -3.93937
Nuclear contribution   :      8.29648     -11.45531       4.10535
                        -----------------------------------------
Total Dipole Moment    :      0.42288      -0.18059       0.16598
                        -----------------------------------------
Magnitude (a.u.)       :      0.48886
Magnitude (Debye)      :      1.24259

Rotational constants in cm-1:     0.020200     0.008740     0.006818
Rotational constants in MHz :   605.588150   262.018416   204.404455

                             ****ORCA TERMINATED NORMALLY****
TOTAL RUN TIME: 0 days 0 hours 0 minutes 21 seconds 738 msec
