                         Program Version 4.2.1 -  RELEASE  -
|  1> ! wB97X-D3 SP def2-SVP
|  2> %pal
|  3> nprocs 24
|  4> end
|  5>
|  6> * xyz 0 1
|  7> S 	 33.4422 	 -36.1425 	 -127.878
|  8> C 	 34.0759 	 -35.0572 	 -126.794
|  9> C 	 34.6517 	 -33.9709 	 -127.397
| 10> C 	 34.4198 	 -33.9236 	 -128.844
| 11> C 	 33.726 	 -35.0317 	 -129.164
| 12> H 	 34.642 	 -33.1128 	 -129.483
| 13> C 	 35.4603 	 -32.9967 	 -126.687
| 14> H 	 35.0892 	 -33.1181 	 -125.637
| 15> H 	 35.3522 	 -32.0249 	 -127.077
| 16> C 	 36.9904 	 -33.2692 	 -126.596
| 17> H 	 37.4809 	 -32.6539 	 -125.824
| 18> H 	 37.2589 	 -34.1795 	 -126.196
| 19> C 	 37.8295 	 -33.1348 	 -127.893
| 20> H 	 38.9207 	 -32.9868 	 -127.682
| 21> H 	 37.7534 	 -34.0928 	 -128.474
| 22> H 	 37.4004 	 -32.383 	 -128.511
| 23> S 	 31.725 	 -36.2724 	 -130.552
| 24> C 	 31.9017 	 -36.5354 	 -132.31
| 25> C 	 32.9719 	 -35.76 	 -132.788
| 26> C 	 33.7198 	 -35.1218 	 -131.778
| 27> C 	 33.2616 	 -35.4396 	 -130.491
| 28> H 	 33.2436 	 -35.6442 	 -133.83
| 29> C 	 34.9288 	 -34.3428 	 -132.141
| 30> H 	 35.077 	 -33.4516 	 -131.512
| 31> H 	 34.882 	 -33.7943 	 -133.092
| 32> C 	 36.1662 	 -35.2233 	 -132.07
| 33> H 	 36.1882 	 -35.9932 	 -132.868
| 34> H 	 36.2752 	 -35.7663 	 -131.185
| 35> C 	 37.5289 	 -34.5139 	 -132.105
| 36> H 	 37.7315 	 -33.8807 	 -131.216
| 37> H 	 37.6769 	 -33.9056 	 -133.01
| 38> H 	 38.2859 	 -35.3561 	 -132.05
| 39> H 	 34.0662 	 -35.2074 	 -125.713
| 40> H 	 31.1034 	 -36.8161 	 -133.031
| 41> *
| 42>
| 43>                          ****END OF INPUT****

CARTESIAN COORDINATES (ANGSTROEM)
---------------------------------
  S     33.442200  -36.142500  -127.878000
  C     34.075900  -35.057200  -126.794000
  C     34.651700  -33.970900  -127.397000
  C     34.419800  -33.923600  -128.844000
  C     33.726000  -35.031700  -129.164000
  H     34.642000  -33.112800  -129.483000
  C     35.460300  -32.996700  -126.687000
  H     35.089200  -33.118100  -125.637000
  H     35.352200  -32.024900  -127.077000
  C     36.990400  -33.269200  -126.596000
  H     37.480900  -32.653900  -125.824000
  H     37.258900  -34.179500  -126.196000
  C     37.829500  -33.134800  -127.893000
  H     38.920700  -32.986800  -127.682000
  H     37.753400  -34.092800  -128.474000
  H     37.400400  -32.383000  -128.511000
  S     31.725000  -36.272400  -130.552000
  C     31.901700  -36.535400  -132.310000
  C     32.971900  -35.760000  -132.788000
  C     33.719800  -35.121800  -131.778000
  C     33.261600  -35.439600  -130.491000
  H     33.243600  -35.644200  -133.830000
  C     34.928800  -34.342800  -132.141000
  H     35.077000  -33.451600  -131.512000
  H     34.882000  -33.794300  -133.092000
  C     36.166200  -35.223300  -132.070000
  H     36.188200  -35.993200  -132.868000
  H     36.275200  -35.766300  -131.185000
  C     37.528900  -34.513900  -132.105000
  H     37.731500  -33.880700  -131.216000
  H     37.676900  -33.905600  -133.010000
  H     38.285900  -35.356100  -132.050000
  H     34.066200  -35.207400  -125.713000
  H     31.103400  -36.816100  -133.031000

 Total Charge           Charge          ....    0
 Multiplicity           Mult            ....    1
 Number of Electrons    NEL             ....  134
 Basis Dimension        Dim             ....  322

ORBITAL ENERGIES
----------------

  NO   OCC          E(Eh)            E(eV)
   0   2.0000     -88.968295     -2420.9504
   1   2.0000     -88.965387     -2420.8712
   2   2.0000     -10.327253      -281.0188
   3   2.0000     -10.324903      -280.9549
   4   2.0000     -10.320374      -280.8317
   5   2.0000     -10.304203      -280.3916
   6   2.0000     -10.299384      -280.2605
   7   2.0000     -10.295578      -280.1569
   8   2.0000     -10.294157      -280.1183
   9   2.0000     -10.292281      -280.0672
  10   2.0000     -10.291371      -280.0425
  11   2.0000     -10.288838      -279.9735
  12   2.0000     -10.282243      -279.7941
  13   2.0000     -10.281157      -279.7645
  14   2.0000     -10.280803      -279.7549
  15   2.0000     -10.280156      -279.7373
  16   2.0000      -8.082677      -219.9408
  17   2.0000      -8.082144      -219.9263
  18   2.0000      -6.041046      -164.3852
  19   2.0000      -6.040705      -164.3759
  20   2.0000      -6.036906      -164.2726
  21   2.0000      -6.036791      -164.2694
  22   2.0000      -6.033331      -164.1753
  23   2.0000      -6.032860      -164.1625
  24   2.0000      -1.019271       -27.7358
  25   2.0000      -0.986938       -26.8559
  26   2.0000      -0.915962       -24.9246
  27   2.0000      -0.910728       -24.7822
  28   2.0000      -0.871326       -23.7100
  29   2.0000      -0.857880       -23.3441
  30   2.0000      -0.848029       -23.0760
  31   2.0000      -0.818546       -22.2738
  32   2.0000      -0.781099       -21.2548
  33   2.0000      -0.767589       -20.8871
  34   2.0000      -0.708371       -19.2758
  35   2.0000      -0.701264       -19.0824
  36   2.0000      -0.691742       -18.8233
  37   2.0000      -0.670392       -18.2423
  38   2.0000      -0.645578       -17.5671
  39   2.0000      -0.619337       -16.8530
  40   2.0000      -0.598250       -16.2792
  41   2.0000      -0.574507       -15.6331
  42   2.0000      -0.559807       -15.2331
  43   2.0000      -0.546201       -14.8629
  44   2.0000      -0.538060       -14.6414
  45   2.0000      -0.531859       -14.4726
  46   2.0000      -0.523634       -14.2488
  47   2.0000      -0.508597       -13.8396
  48   2.0000      -0.502499       -13.6737
  49   2.0000      -0.497657       -13.5419
  50   2.0000      -0.495268       -13.4769
  51   2.0000      -0.487140       -13.2557
  52   2.0000      -0.472747       -12.8641
  53   2.0000      -0.465042       -12.6544
  54   2.0000      -0.454422       -12.3655
  55   2.0000      -0.450752       -12.2656
  56   2.0000      -0.445854       -12.1323
  57   2.0000      -0.438506       -11.9324
  58   2.0000      -0.432715       -11.7748
  59   2.0000      -0.426962       -11.6182
  60   2.0000      -0.422280       -11.4908
  61   2.0000      -0.413031       -11.2391
  62   2.0000      -0.407697       -11.0940
  63   2.0000      -0.358809        -9.7637
  64   2.0000      -0.331646        -9.0245
  65   2.0000      -0.326510        -8.8848
  66   2.0000      -0.284401        -7.7389
  67   0.0000       0.023458         0.6383
  68   0.0000       0.079866         2.1733
  69   0.0000       0.100210         2.7269
  70   0.0000       0.113531         3.0893
  71   0.0000       0.126938         3.4542

MULLIKEN ATOMIC CHARGES
-----------------------
   0 S :    0.126798
   1 C :   -0.117997
   2 C :   -0.093162
   3 C :    0.003024
   4 C :   -0.097645
   5 H :    0.000146
   6 C :    0.085574
   7 H :    0.025318
   8 H :    0.015009
   9 C :   -0.039022
  10 H :    0.020348
  11 H :   -0.006430
  12 C :   -0.086396
  13 H :    0.047600
  14 H :    0.046451
  15 H :    0.020558
  16 S :    0.103481
  17 C :   -0.093888
  18 C :   -0.047566
  19 C :   -0.024844
  20 C :   -0.140280
  21 H :    0.017477
  22 C :    0.067558
  23 H :    0.002793
  24 H :    0.019803
  25 C :   -0.052492
  26 H :    0.026472
  27 H :    0.020203
  28 C :   -0.083664
  29 H :    0.039700
  30 H :    0.032591
  31 H :    0.038876
  32 H :    0.047740
  33 H :    0.075864
Sum of atomic charges:    0.0000000

LOEWDIN ATOMIC CHARGES
----------------------
   0 S :    0.448726
   1 C :   -0.229251
   2 C :   -0.061188
   3 C :   -0.058926
   4 C :   -0.190090
   5 H :    0.026123
   6 C :   -0.030225
   7 H :    0.042373
   8 H :    0.023039
   9 C :   -0.039152
  10 H :    0.026400
  11 H :    0.011247
  12 C :   -0.071066
  13 H :    0.034546
  14 H :    0.029650
  15 H :    0.013208
  16 S :    0.399385
  17 C :   -0.199797
  18 C :   -0.061136
  19 C :   -0.061487
  20 C :   -0.192553
  21 H :    0.030978
  22 C :   -0.039386
  23 H :    0.026758
  24 H :    0.034313
  25 C :   -0.038116
  26 H :    0.027131
  27 H :    0.020926
  28 C :   -0.071150
  29 H :    0.024382
  30 H :    0.019879
  31 H :    0.034203
  32 H :    0.030041
  33 H :    0.040215

  Mayer bond orders larger than 0.100000
B(  0-S ,  1-C ) :   1.1375 B(  0-S ,  4-C ) :   1.1650 B(  1-C ,  2-C ) :   1.6224
B(  1-C , 32-H ) :   0.9638 B(  2-C ,  3-C ) :   1.1986 B(  2-C ,  6-C ) :   1.0547
B(  3-C ,  4-C ) :   1.5861 B(  3-C ,  5-H ) :   1.0082 B(  4-C , 20-C ) :   1.0324
B(  6-C ,  7-H ) :   0.9289 B(  6-C ,  8-H ) :   0.9368 B(  6-C ,  9-C ) :   1.0709
B(  9-C , 10-H ) :   0.9560 B(  9-C , 11-H ) :   0.9506 B(  9-C , 12-C ) :   1.0704
B( 12-C , 13-H ) :   0.9728 B( 12-C , 14-H ) :   0.9756 B( 12-C , 15-H ) :   0.9785
B( 16-S , 17-C ) :   1.1384 B( 16-S , 20-C ) :   1.1614 B( 17-C , 18-C ) :   1.5783
B( 17-C , 20-C ) :   0.1134 B( 17-C , 33-H ) :   0.9594 B( 18-C , 19-C ) :   1.2912
B( 18-C , 21-H ) :   0.9821 B( 19-C , 20-C ) :   1.5542 B( 19-C , 22-C ) :   1.0618
B( 22-C , 23-H ) :   0.9314 B( 22-C , 24-H ) :   0.9238 B( 22-C , 25-C ) :   1.0590
B( 25-C , 26-H ) :   0.9534 B( 25-C , 27-H ) :   0.9577 B( 25-C , 28-C ) :   1.0818
B( 28-C , 29-H ) :   0.9734 B( 28-C , 30-H ) :   0.9741 B( 28-C , 31-H ) :   0.9748

Dispersion correction           -0.015358549
FINAL SINGLE POINT ENERGY     -1339.864810529402

DIPOLE MOMENT
-------------
                                X             Y             Z
Electronic contribution:    -28.04585     -13.85842       2.59620
Nuclear contribution   :     28.50363      14.29610      -2.66152
                        -----------------------------------------
Total Dipole Moment    :      0.45778       0.43768      -0.06533
                        -----------------------------------------
Magnitude (a.u.)       :      0.63670
Magnitude (Debye)      :      1.61837

Rotational constants in cm-1:     0.018589     0.010550     0.007224
Rotational constants in MHz :   557.294095   316.281508   216.584280

                             ****ORCA TERMINATED NORMALLY****
TOTAL RUN TIME: 0 days 0 hours 0 minutes 21 seconds 759 msec
