                         Program Version 4.2.1 -  RELEASE  -
|  1> ! wB97X-D3 SP def2-SVP
|  2> %pal
|  3> nprocs 24
|  4> end
|  5>
|  6> * xyz 0 1
|  7> S 	 -145.331 	 26.9408 	 -15.1077
|  8> C 	 -145.28 	 25.1751 	 -15.2673
|  9> C 	 -143.999 	 24.6715 	 -15.3915
| 10> C 	 -143.02 	 25.7068 	 -15.1154
| 11> C 	 -143.598 	 26.9784 	 -14.8528
| 12> H 	 -142.015 	 25.5911 	 -14.9232
| 13> C 	 -143.563 	 23.2359 	 -15.7568
| 14> H 	 -144.467 	 22.6341 	 -15.4963
| 15> H 	 -142.81 	 22.8021 	 -15.1545
| 16> C 	 -143.238 	 22.8872 	 -17.2153
| 17> H 	 -144.095 	 22.9713 	 -17.8048
| 18> H 	 -142.41 	 23.5382 	 -17.6247
| 19> C 	 -142.835 	 21.4166 	 -17.335
| 20> H 	 -143.626 	 20.7777 	 -16.8972
| 21> H 	 -142.572 	 20.9862 	 -18.3188
| 22> H 	 -141.978 	 21.2477 	 -16.7449
| 23> S 	 -143.482 	 28.9832 	 -13.015
| 24> C 	 -142.259 	 30.1806 	 -13.1579
| 25> C 	 -141.498 	 30.0624 	 -14.2826
| 26> C 	 -141.857 	 28.8576 	 -15.0751
| 27> C 	 -142.889 	 28.1494 	 -14.4117
| 28> H 	 -140.573 	 30.6702 	 -14.3631
| 29> C 	 -141.119 	 28.3996 	 -16.357
| 30> H 	 -141.66 	 28.6125 	 -17.2205
| 31> H 	 -141.028 	 27.3082 	 -16.3003
| 32> C 	 -139.749 	 28.9727 	 -16.5163
| 33> H 	 -139.153 	 28.7545 	 -15.5927
| 34> H 	 -139.784 	 30.0851 	 -16.6698
| 35> C 	 -139.015 	 28.4062 	 -17.7441
| 36> H 	 -139.663 	 28.6037 	 -18.6497
| 37> H 	 -138.908 	 27.3777 	 -17.5826
| 38> H 	 -137.982 	 28.8137 	 -17.8185
| 39> H 	 -146.096 	 24.5345 	 -15.5666
| 40> H 	 -142.172 	 30.9912 	 -12.4284
| 41> *
| 42>
| 43>                          ****END OF INPUT****

CARTESIAN COORDINATES (ANGSTROEM)
---------------------------------
  S    -145.331000   26.940800  -15.107700
  C    -145.280000   25.175100  -15.267300
  C    -143.999000   24.671500  -15.391500
  C    -143.020000   25.706800  -15.115400
  C    -143.598000   26.978400  -14.852800
  H    -142.015000   25.591100  -14.923200
  C    -143.563000   23.235900  -15.756800
  H    -144.467000   22.634100  -15.496300
  H    -142.810000   22.802100  -15.154500
  C    -143.238000   22.887200  -17.215300
  H    -144.095000   22.971300  -17.804800
  H    -142.410000   23.538200  -17.624700
  C    -142.835000   21.416600  -17.335000
  H    -143.626000   20.777700  -16.897200
  H    -142.572000   20.986200  -18.318800
  H    -141.978000   21.247700  -16.744900
  S    -143.482000   28.983200  -13.015000
  C    -142.259000   30.180600  -13.157900
  C    -141.498000   30.062400  -14.282600
  C    -141.857000   28.857600  -15.075100
  C    -142.889000   28.149400  -14.411700
  H    -140.573000   30.670200  -14.363100
  C    -141.119000   28.399600  -16.357000
  H    -141.660000   28.612500  -17.220500
  H    -141.028000   27.308200  -16.300300
  C    -139.749000   28.972700  -16.516300
  H    -139.153000   28.754500  -15.592700
  H    -139.784000   30.085100  -16.669800
  C    -139.015000   28.406200  -17.744100
  H    -139.663000   28.603700  -18.649700
  H    -138.908000   27.377700  -17.582600
  H    -137.982000   28.813700  -17.818500
  H    -146.096000   24.534500  -15.566600
  H    -142.172000   30.991200  -12.428400

 Total Charge           Charge          ....    0
 Multiplicity           Mult            ....    1
 Number of Electrons    NEL             ....  134
 Basis Dimension        Dim             ....  322

ORBITAL ENERGIES
----------------

  NO   OCC          E(Eh)            E(eV)
   0   2.0000     -88.970139     -2421.0006
   1   2.0000     -88.965066     -2420.8625
   2   2.0000     -10.330104      -281.0964
   3   2.0000     -10.324697      -280.9493
   4   2.0000     -10.315285      -280.6932
   5   2.0000     -10.315073      -280.6874
   6   2.0000     -10.313954      -280.6570
   7   2.0000     -10.307345      -280.4771
   8   2.0000     -10.298893      -280.2471
   9   2.0000     -10.296158      -280.1727
  10   2.0000     -10.291201      -280.0378
  11   2.0000     -10.289141      -279.9818
  12   2.0000     -10.288337      -279.9599
  13   2.0000     -10.287787      -279.9449
  14   2.0000     -10.281391      -279.7709
  15   2.0000     -10.278170      -279.6832
  16   2.0000      -8.084131      -219.9804
  17   2.0000      -8.080919      -219.8930
  18   2.0000      -6.042725      -164.4309
  19   2.0000      -6.039335      -164.3387
  20   2.0000      -6.038857      -164.3257
  21   2.0000      -6.035197      -164.2260
  22   2.0000      -6.034733      -164.2134
  23   2.0000      -6.031783      -164.1332
  24   2.0000      -1.004757       -27.3408
  25   2.0000      -0.979177       -26.6448
  26   2.0000      -0.915258       -24.9054
  27   2.0000      -0.912849       -24.8399
  28   2.0000      -0.871998       -23.7283
  29   2.0000      -0.849954       -23.1284
  30   2.0000      -0.843404       -22.9502
  31   2.0000      -0.811581       -22.0842
  32   2.0000      -0.784040       -21.3348
  33   2.0000      -0.772242       -21.0138
  34   2.0000      -0.704913       -19.1817
  35   2.0000      -0.699907       -19.0454
  36   2.0000      -0.695372       -18.9220
  37   2.0000      -0.650215       -17.6932
  38   2.0000      -0.638271       -17.3682
  39   2.0000      -0.617215       -16.7953
  40   2.0000      -0.599305       -16.3079
  41   2.0000      -0.578389       -15.7388
  42   2.0000      -0.577545       -15.7158
  43   2.0000      -0.559653       -15.2289
  44   2.0000      -0.525201       -14.2914
  45   2.0000      -0.522475       -14.2173
  46   2.0000      -0.516299       -14.0492
  47   2.0000      -0.505266       -13.7490
  48   2.0000      -0.504072       -13.7165
  49   2.0000      -0.497188       -13.5292
  50   2.0000      -0.493090       -13.4177
  51   2.0000      -0.477380       -12.9902
  52   2.0000      -0.470806       -12.8113
  53   2.0000      -0.464560       -12.6413
  54   2.0000      -0.458338       -12.4720
  55   2.0000      -0.451637       -12.2897
  56   2.0000      -0.446508       -12.1501
  57   2.0000      -0.433547       -11.7974
  58   2.0000      -0.432804       -11.7772
  59   2.0000      -0.430198       -11.7063
  60   2.0000      -0.424527       -11.5520
  61   2.0000      -0.421139       -11.4598
  62   2.0000      -0.416916       -11.3449
  63   2.0000      -0.344032        -9.3616
  64   2.0000      -0.333194        -9.0667
  65   2.0000      -0.328326        -8.9342
  66   2.0000      -0.292209        -7.9514
  67   0.0000       0.030130         0.8199
  68   0.0000       0.068009         1.8506
  69   0.0000       0.108035         2.9398
  70   0.0000       0.122174         3.3245
  71   0.0000       0.129708         3.5295

MULLIKEN ATOMIC CHARGES
-----------------------
   0 S :    0.122816
   1 C :   -0.107139
   2 C :   -0.072209
   3 C :    0.057547
   4 C :   -0.172275
   5 H :   -0.009433
   6 C :    0.035510
   7 H :    0.016754
   8 H :    0.018350
   9 C :   -0.031484
  10 H :    0.018131
  11 H :    0.039916
  12 C :   -0.059900
  13 H :    0.026465
  14 H :    0.041880
  15 H :    0.012803
  16 S :    0.119495
  17 C :   -0.095051
  18 C :   -0.046437
  19 C :   -0.052159
  20 C :   -0.175760
  21 H :    0.043002
  22 C :    0.135102
  23 H :    0.019428
  24 H :    0.015073
  25 C :   -0.159385
  26 H :    0.037593
  27 H :    0.041295
  28 C :   -0.025306
  29 H :    0.041361
  30 H :    0.016345
  31 H :    0.043458
  32 H :    0.042780
  33 H :    0.061434
Sum of atomic charges:    0.0000000

LOEWDIN ATOMIC CHARGES
----------------------
   0 S :    0.399637
   1 C :   -0.195023
   2 C :   -0.055553
   3 C :   -0.052851
   4 C :   -0.191548
   5 H :    0.014738
   6 C :   -0.031596
   7 H :    0.034718
   8 H :    0.023610
   9 C :   -0.034381
  10 H :    0.016022
  11 H :    0.029533
  12 C :   -0.067884
  13 H :    0.026907
  14 H :    0.030363
  15 H :    0.015229
  16 S :    0.426687
  17 C :   -0.193723
  18 C :   -0.082434
  19 C :   -0.039771
  20 C :   -0.218277
  21 H :    0.040016
  22 C :   -0.028578
  23 H :    0.025767
  24 H :    0.032828
  25 C :   -0.050841
  26 H :    0.026284
  27 H :    0.025267
  28 C :   -0.062208
  29 H :    0.032794
  30 H :    0.013972
  31 H :    0.032472
  32 H :    0.026516
  33 H :    0.031308

  Mayer bond orders larger than 0.100000
B(  0-S ,  1-C ) :   1.1226 B(  0-S ,  4-C ) :   1.1492 B(  1-C ,  2-C ) :   1.6481
B(  1-C , 32-H ) :   0.9587 B(  2-C ,  3-C ) :   1.2215 B(  2-C ,  6-C ) :   1.0159
B(  3-C ,  4-C ) :   1.5773 B(  3-C ,  5-H ) :   0.9951 B(  4-C , 20-C ) :   1.0682
B(  6-C ,  7-H ) :   0.9366 B(  6-C ,  8-H ) :   0.9516 B(  6-C ,  9-C ) :   1.0622
B(  9-C , 10-H ) :   0.9551 B(  9-C , 11-H ) :   0.9557 B(  9-C , 12-C ) :   1.0754
B( 12-C , 13-H ) :   0.9732 B( 12-C , 14-H ) :   0.9744 B( 12-C , 15-H ) :   0.9745
B( 16-S , 17-C ) :   1.1610 B( 16-S , 20-C ) :   1.1461 B( 17-C , 18-C ) :   1.6299
B( 17-C , 33-H ) :   0.9608 B( 18-C , 19-C ) :   1.2265 B( 18-C , 21-H ) :   0.9766
B( 19-C , 20-C ) :   1.5932 B( 19-C , 22-C ) :   1.0222 B( 22-C , 23-H ) :   0.9156
B( 22-C , 24-H ) :   0.9344 B( 22-C , 25-C ) :   1.0867 B( 25-C , 26-H ) :   0.9555
B( 25-C , 27-H ) :   0.9442 B( 25-C , 28-C ) :   1.0833 B( 28-C , 29-H ) :   0.9723
B( 28-C , 30-H ) :   0.9745 B( 28-C , 31-H ) :   0.9720

Dispersion correction           -0.013221397
FINAL SINGLE POINT ENERGY     -1339.873159314938

DIPOLE MOMENT
-------------
                                X             Y             Z
Electronic contribution:    -19.10206      17.12049      18.83715
Nuclear contribution   :     19.64627     -17.39367     -19.15225
                        -----------------------------------------
Total Dipole Moment    :      0.54422      -0.27318      -0.31510
                        -----------------------------------------
Magnitude (a.u.)       :      0.68563
Magnitude (Debye)      :      1.74273

Rotational constants in cm-1:     0.016744     0.008415     0.006006
Rotational constants in MHz :   501.967029   252.280288   180.058114

                             ****ORCA TERMINATED NORMALLY****
TOTAL RUN TIME: 0 days 0 hours 0 minutes 20 seconds 846 msec
