                         Program Version 4.2.1 -  RELEASE  -
|  1> ! wB97X-D3 SP def2-SVP
|  2> %pal
|  3> nprocs 24
|  4> end
|  5>
|  6> * xyz 0 1
|  7> S 	 -45.7941 	 -2.42256 	 -19.4489
|  8> C 	 -46.8264 	 -2.09523 	 -18.0396
|  9> C 	 -46.0541 	 -2.08563 	 -16.9012
| 10> C 	 -44.6454 	 -2.32537 	 -17.1864
| 11> C 	 -44.364 	 -2.55103 	 -18.5201
| 12> H 	 -43.926 	 -2.42803 	 -16.4195
| 13> C 	 -46.6283 	 -1.6878 	 -15.5809
| 14> H 	 -47.7465 	 -1.72328 	 -15.6651
| 15> H 	 -46.2082 	 -0.675756 	 -15.6145
| 16> C 	 -46.0263 	 -2.51076 	 -14.3905
| 17> H 	 -45.9383 	 -3.56017 	 -14.6958
| 18> H 	 -45.0021 	 -2.14467 	 -14.1468
| 19> C 	 -46.8135 	 -2.60649 	 -13.133
| 20> H 	 -47.2274 	 -1.67234 	 -12.8338
| 21> H 	 -47.5427 	 -3.3523 	 -13.2022
| 22> H 	 -46.2274 	 -2.96679 	 -12.3049
| 23> S 	 -42.9681 	 -4.61139 	 -19.7473
| 24> C 	 -41.3558 	 -4.41536 	 -20.0597
| 25> C 	 -40.8923 	 -3.1539 	 -19.8029
| 26> C 	 -41.9019 	 -2.28316 	 -19.207
| 27> C 	 -43.0962 	 -2.94221 	 -19.1369
| 28> H 	 -39.8454 	 -2.98601 	 -20.0083
| 29> C 	 -41.5475 	 -0.823909 	 -18.82
| 30> H 	 -40.4476 	 -0.766882 	 -18.925
| 31> H 	 -41.7546 	 -0.701155 	 -17.7495
| 32> C 	 -42.0332 	 0.259213 	 -19.718
| 33> H 	 -41.8462 	 -0.0730593 	 -20.7019
| 34> H 	 -41.4128 	 1.22254 	 -19.5646
| 35> C 	 -43.5519 	 0.614267 	 -19.4969
| 36> H 	 -44.2752 	 -0.179544 	 -19.7534
| 37> H 	 -43.7501 	 1.29488 	 -20.3305
| 38> H 	 -43.8084 	 1.00448 	 -18.5221
| 39> H 	 -47.8873 	 -1.84239 	 -17.9029
| 40> H 	 -40.7123 	 -5.25555 	 -20.4023
| 41> *
| 42>
| 43>                          ****END OF INPUT****

CARTESIAN COORDINATES (ANGSTROEM)
---------------------------------
  S    -45.794100   -2.422560  -19.448900
  C    -46.826400   -2.095230  -18.039600
  C    -46.054100   -2.085630  -16.901200
  C    -44.645400   -2.325370  -17.186400
  C    -44.364000   -2.551030  -18.520100
  H    -43.926000   -2.428030  -16.419500
  C    -46.628300   -1.687800  -15.580900
  H    -47.746500   -1.723280  -15.665100
  H    -46.208200   -0.675756  -15.614500
  C    -46.026300   -2.510760  -14.390500
  H    -45.938300   -3.560170  -14.695800
  H    -45.002100   -2.144670  -14.146800
  C    -46.813500   -2.606490  -13.133000
  H    -47.227400   -1.672340  -12.833800
  H    -47.542700   -3.352300  -13.202200
  H    -46.227400   -2.966790  -12.304900
  S    -42.968100   -4.611390  -19.747300
  C    -41.355800   -4.415360  -20.059700
  C    -40.892300   -3.153900  -19.802900
  C    -41.901900   -2.283160  -19.207000
  C    -43.096200   -2.942210  -19.136900
  H    -39.845400   -2.986010  -20.008300
  C    -41.547500   -0.823909  -18.820000
  H    -40.447600   -0.766882  -18.925000
  H    -41.754600   -0.701155  -17.749500
  C    -42.033200    0.259213  -19.718000
  H    -41.846200   -0.073059  -20.701900
  H    -41.412800    1.222540  -19.564600
  C    -43.551900    0.614267  -19.496900
  H    -44.275200   -0.179544  -19.753400
  H    -43.750100    1.294880  -20.330500
  H    -43.808400    1.004480  -18.522100
  H    -47.887300   -1.842390  -17.902900
  H    -40.712300   -5.255550  -20.402300

 Total Charge           Charge          ....    0
 Multiplicity           Mult            ....    1
 Number of Electrons    NEL             ....  134
 Basis Dimension        Dim             ....  322

ORBITAL ENERGIES
----------------

  NO   OCC          E(Eh)            E(eV)
   0   2.0000     -88.964536     -2420.8481
   1   2.0000     -88.963167     -2420.8108
   2   2.0000     -10.327402      -281.0229
   3   2.0000     -10.325361      -280.9674
   4   2.0000     -10.311606      -280.5931
   5   2.0000     -10.309796      -280.5438
   6   2.0000     -10.308293      -280.5029
   7   2.0000     -10.299080      -280.2522
   8   2.0000     -10.297893      -280.2199
   9   2.0000     -10.291899      -280.0568
  10   2.0000     -10.290874      -280.0289
  11   2.0000     -10.290590      -280.0212
  12   2.0000     -10.289644      -279.9954
  13   2.0000     -10.287060      -279.9251
  14   2.0000     -10.268743      -279.4267
  15   2.0000     -10.266966      -279.3783
  16   2.0000      -8.079749      -219.8611
  17   2.0000      -8.078676      -219.8319
  18   2.0000      -6.038077      -164.3044
  19   2.0000      -6.037371      -164.2852
  20   2.0000      -6.033980      -164.1930
  21   2.0000      -6.033120      -164.1695
  22   2.0000      -6.030585      -164.1006
  23   2.0000      -6.029382      -164.0678
  24   2.0000      -1.010210       -27.4892
  25   2.0000      -0.987626       -26.8747
  26   2.0000      -0.916098       -24.9283
  27   2.0000      -0.908661       -24.7259
  28   2.0000      -0.873464       -23.7682
  29   2.0000      -0.849909       -23.1272
  30   2.0000      -0.842615       -22.9287
  31   2.0000      -0.813670       -22.1411
  32   2.0000      -0.785819       -21.3832
  33   2.0000      -0.774668       -21.0798
  34   2.0000      -0.711634       -19.3646
  35   2.0000      -0.694929       -18.9100
  36   2.0000      -0.685108       -18.6427
  37   2.0000      -0.656293       -17.8586
  38   2.0000      -0.632611       -17.2142
  39   2.0000      -0.619231       -16.8501
  40   2.0000      -0.596054       -16.2195
  41   2.0000      -0.575331       -15.6555
  42   2.0000      -0.564561       -15.3625
  43   2.0000      -0.541706       -14.7406
  44   2.0000      -0.539799       -14.6887
  45   2.0000      -0.530619       -14.4389
  46   2.0000      -0.518480       -14.1086
  47   2.0000      -0.513158       -13.9637
  48   2.0000      -0.505517       -13.7558
  49   2.0000      -0.500762       -13.6264
  50   2.0000      -0.494963       -13.4686
  51   2.0000      -0.482503       -13.1296
  52   2.0000      -0.468077       -12.7370
  53   2.0000      -0.464422       -12.6376
  54   2.0000      -0.459769       -12.5109
  55   2.0000      -0.454866       -12.3775
  56   2.0000      -0.440101       -11.9758
  57   2.0000      -0.438051       -11.9200
  58   2.0000      -0.428715       -11.6659
  59   2.0000      -0.423153       -11.5146
  60   2.0000      -0.411155       -11.1881
  61   2.0000      -0.408800       -11.1240
  62   2.0000      -0.404562       -11.0087
  63   2.0000      -0.340231        -9.2581
  64   2.0000      -0.333159        -9.0657
  65   2.0000      -0.321612        -8.7515
  66   2.0000      -0.301505        -8.2044
  67   0.0000       0.044585         1.2132
  68   0.0000       0.065166         1.7733
  69   0.0000       0.120995         3.2924
  70   0.0000       0.124840         3.3971
  71   0.0000       0.129634         3.5275

MULLIKEN ATOMIC CHARGES
-----------------------
   0 S :    0.106001
   1 C :   -0.120292
   2 C :   -0.143807
   3 C :    0.069592
   4 C :   -0.166949
   5 H :   -0.008794
   6 C :    0.070736
   7 H :    0.032399
   8 H :    0.055386
   9 C :   -0.123755
  10 H :    0.036833
  11 H :    0.038545
  12 C :    0.014186
  13 H :    0.020355
  14 H :    0.015044
  15 H :    0.018910
  16 S :    0.129285
  17 C :   -0.102948
  18 C :   -0.051950
  19 C :   -0.026288
  20 C :   -0.179138
  21 H :    0.014519
  22 C :    0.101874
  23 H :    0.013380
  24 H :    0.031207
  25 C :   -0.062589
  26 H :    0.017466
  27 H :    0.042042
  28 C :   -0.046614
  29 H :    0.029792
  30 H :    0.024144
  31 H :    0.035167
  32 H :    0.045077
  33 H :    0.071183
Sum of atomic charges:   -0.0000000

LOEWDIN ATOMIC CHARGES
----------------------
   0 S :    0.417119
   1 C :   -0.213570
   2 C :   -0.060706
   3 C :   -0.063687
   4 C :   -0.200230
   5 H :    0.021093
   6 C :   -0.034223
   7 H :    0.035025
   8 H :    0.046055
   9 C :   -0.047404
  10 H :    0.029169
  11 H :    0.027360
  12 C :   -0.059488
  13 H :    0.019706
  14 H :    0.018816
  15 H :    0.029194
  16 S :    0.434010
  17 C :   -0.215459
  18 C :   -0.084267
  19 C :   -0.043849
  20 C :   -0.200456
  21 H :    0.029651
  22 C :   -0.033202
  23 H :    0.033186
  24 H :    0.030722
  25 C :   -0.038143
  26 H :    0.020476
  27 H :    0.034482
  28 C :   -0.074299
  29 H :    0.018445
  30 H :    0.026875
  31 H :    0.022198
  32 H :    0.036108
  33 H :    0.039292

  Mayer bond orders larger than 0.100000
B(  0-S ,  1-C ) :   1.1056 B(  0-S ,  4-C ) :   1.1671 B(  1-C ,  2-C ) :   1.6463
B(  1-C , 32-H ) :   0.9616 B(  2-C ,  3-C ) :   1.2162 B(  2-C ,  6-C ) :   1.0138
B(  3-C ,  4-C ) :   1.5879 B(  3-C ,  5-H ) :   1.0036 B(  4-C , 20-C ) :   1.0003
B(  6-C ,  7-H ) :   0.9451 B(  6-C ,  8-H ) :   0.9317 B(  6-C ,  9-C ) :   1.0481
B(  9-C , 10-H ) :   0.9681 B(  9-C , 11-H ) :   0.9487 B(  9-C , 12-C ) :   1.1035
B( 12-C , 13-H ) :   0.9704 B( 12-C , 14-H ) :   0.9734 B( 12-C , 15-H ) :   0.9667
B( 16-S , 17-C ) :   1.1811 B( 16-S , 20-C ) :   1.1426 B( 17-C , 18-C ) :   1.6222
B( 17-C , 33-H ) :   0.9570 B( 18-C , 19-C ) :   1.2176 B( 18-C , 21-H ) :   0.9911
B( 19-C , 20-C ) :   1.6307 B( 19-C , 22-C ) :   1.0251 B( 22-C , 23-H ) :   0.9276
B( 22-C , 24-H ) :   0.9334 B( 22-C , 25-C ) :   1.0797 B( 25-C , 26-H ) :   0.9465
B( 25-C , 27-H ) :   0.9551 B( 25-C , 28-C ) :   1.0813 B( 28-C , 29-H ) :   0.9647
B( 28-C , 30-H ) :   0.9710 B( 28-C , 31-H ) :   0.9771

Dispersion correction           -0.015026963
FINAL SINGLE POINT ENERGY     -1339.868699444159

DIPOLE MOMENT
-------------
                                X             Y             Z
Electronic contribution:      1.90703     -14.92454     -18.09378
Nuclear contribution   :     -1.64560      15.11774      18.63917
                        -----------------------------------------
Total Dipole Moment    :      0.26143       0.19321       0.54539
                        -----------------------------------------
Magnitude (a.u.)       :      0.63492
Magnitude (Debye)      :      1.61384

Rotational constants in cm-1:     0.019767     0.008173     0.007540
Rotational constants in MHz :   592.600365   245.031451   226.045101

                             ****ORCA TERMINATED NORMALLY****
TOTAL RUN TIME: 0 days 0 hours 0 minutes 21 seconds 118 msec
