                         Program Version 4.2.1 -  RELEASE  -
|  1> ! wB97X-D3 SP def2-SVP
|  2> %pal
|  3> nprocs 24
|  4> end
|  5>
|  6> * xyz 0 1
|  7> S 	 26.569 	 -10.3134 	 -114.886
|  8> C 	 27.6654 	 -9.80397 	 -116.161
|  9> C 	 28.5036 	 -8.78337 	 -115.708
| 10> C 	 28.282 	 -8.44805 	 -114.337
| 11> C 	 27.2798 	 -9.20641 	 -113.723
| 12> H 	 28.8599 	 -7.72618 	 -113.704
| 13> C 	 29.4795 	 -7.99543 	 -116.531
| 14> H 	 29.0605 	 -6.9921 	 -116.818
| 15> H 	 29.5635 	 -8.49865 	 -117.496
| 16> C 	 30.9285 	 -7.9544 	 -115.962
| 17> H 	 31.5706 	 -7.45364 	 -116.692
| 18> H 	 30.9285 	 -7.16625 	 -115.157
| 19> C 	 31.3859 	 -9.38216 	 -115.603
| 20> H 	 32.3931 	 -9.29564 	 -115.305
| 21> H 	 30.8751 	 -9.64176 	 -114.682
| 22> H 	 31.2549 	 -10.1053 	 -116.413
| 23> S 	 27.051 	 -10.9715 	 -111.637
| 24> C 	 26.4432 	 -10.3503 	 -110.091
| 25> C 	 26.5294 	 -8.99234 	 -110.062
| 26> C 	 26.8588 	 -8.3983 	 -111.35
| 27> C 	 26.9823 	 -9.33955 	 -112.301
| 28> H 	 26.4473 	 -8.48152 	 -109.065
| 29> C 	 26.8027 	 -6.89189 	 -111.539
| 30> H 	 25.7703 	 -6.5917 	 -111.291
| 31> H 	 26.6971 	 -6.60348 	 -112.558
| 32> C 	 27.9518 	 -6.18272 	 -110.81
| 33> H 	 28.8582 	 -6.50446 	 -111.315
| 34> H 	 28.2022 	 -6.55747 	 -109.811
| 35> C 	 27.8385 	 -4.64652 	 -110.788
| 36> H 	 28.6513 	 -4.14075 	 -110.311
| 37> H 	 26.9326 	 -4.36054 	 -110.312
| 38> H 	 27.9028 	 -4.31673 	 -111.841
| 39> H 	 27.6649 	 -10.1328 	 -117.179
| 40> H 	 26.2446 	 -10.9172 	 -109.166
| 41> *
| 42>
| 43>                          ****END OF INPUT****

CARTESIAN COORDINATES (ANGSTROEM)
---------------------------------
  S     26.569000  -10.313400  -114.886000
  C     27.665400   -9.803970  -116.161000
  C     28.503600   -8.783370  -115.708000
  C     28.282000   -8.448050  -114.337000
  C     27.279800   -9.206410  -113.723000
  H     28.859900   -7.726180  -113.704000
  C     29.479500   -7.995430  -116.531000
  H     29.060500   -6.992100  -116.818000
  H     29.563500   -8.498650  -117.496000
  C     30.928500   -7.954400  -115.962000
  H     31.570600   -7.453640  -116.692000
  H     30.928500   -7.166250  -115.157000
  C     31.385900   -9.382160  -115.603000
  H     32.393100   -9.295640  -115.305000
  H     30.875100   -9.641760  -114.682000
  H     31.254900  -10.105300  -116.413000
  S     27.051000  -10.971500  -111.637000
  C     26.443200  -10.350300  -110.091000
  C     26.529400   -8.992340  -110.062000
  C     26.858800   -8.398300  -111.350000
  C     26.982300   -9.339550  -112.301000
  H     26.447300   -8.481520  -109.065000
  C     26.802700   -6.891890  -111.539000
  H     25.770300   -6.591700  -111.291000
  H     26.697100   -6.603480  -112.558000
  C     27.951800   -6.182720  -110.810000
  H     28.858200   -6.504460  -111.315000
  H     28.202200   -6.557470  -109.811000
  C     27.838500   -4.646520  -110.788000
  H     28.651300   -4.140750  -110.311000
  H     26.932600   -4.360540  -110.312000
  H     27.902800   -4.316730  -111.841000
  H     27.664900  -10.132800  -117.179000
  H     26.244600  -10.917200  -109.166000

 Total Charge           Charge          ....    0
 Multiplicity           Mult            ....    1
 Number of Electrons    NEL             ....  134
 Basis Dimension        Dim             ....  322

ORBITAL ENERGIES
----------------

  NO   OCC          E(Eh)            E(eV)
   0   2.0000     -88.967248     -2420.9219
   1   2.0000     -88.962062     -2420.7808
   2   2.0000     -10.330193      -281.0988
   3   2.0000     -10.323671      -280.9214
   4   2.0000     -10.317045      -280.7411
   5   2.0000     -10.315410      -280.6966
   6   2.0000     -10.301638      -280.3218
   7   2.0000     -10.300761      -280.2980
   8   2.0000     -10.298357      -280.2325
   9   2.0000     -10.296246      -280.1751
  10   2.0000     -10.292405      -280.0706
  11   2.0000     -10.292299      -280.0677
  12   2.0000     -10.291791      -280.0539
  13   2.0000     -10.289896      -280.0023
  14   2.0000     -10.277316      -279.6600
  15   2.0000     -10.273858      -279.5659
  16   2.0000      -8.081483      -219.9083
  17   2.0000      -8.076546      -219.7740
  18   2.0000      -6.040045      -164.3580
  19   2.0000      -6.035914      -164.2456
  20   2.0000      -6.035285      -164.2284
  21   2.0000      -6.032358      -164.1488
  22   2.0000      -6.031374      -164.1220
  23   2.0000      -6.026756      -163.9964
  24   2.0000      -1.006123       -27.3780
  25   2.0000      -0.981766       -26.7152
  26   2.0000      -0.910437       -24.7742
  27   2.0000      -0.908509       -24.7218
  28   2.0000      -0.868171       -23.6241
  29   2.0000      -0.850262       -23.1368
  30   2.0000      -0.840065       -22.8593
  31   2.0000      -0.814043       -22.1512
  32   2.0000      -0.783183       -21.3115
  33   2.0000      -0.774579       -21.0774
  34   2.0000      -0.710654       -19.3379
  35   2.0000      -0.704711       -19.1762
  36   2.0000      -0.694576       -18.9004
  37   2.0000      -0.655282       -17.8311
  38   2.0000      -0.636421       -17.3179
  39   2.0000      -0.617778       -16.8106
  40   2.0000      -0.597368       -16.2552
  41   2.0000      -0.561821       -15.2879
  42   2.0000      -0.555707       -15.1216
  43   2.0000      -0.554385       -15.0856
  44   2.0000      -0.536541       -14.6000
  45   2.0000      -0.531464       -14.4619
  46   2.0000      -0.515745       -14.0341
  47   2.0000      -0.513864       -13.9830
  48   2.0000      -0.505910       -13.7665
  49   2.0000      -0.497966       -13.5503
  50   2.0000      -0.487158       -13.2562
  51   2.0000      -0.481345       -13.0981
  52   2.0000      -0.470317       -12.7980
  53   2.0000      -0.459984       -12.5168
  54   2.0000      -0.459068       -12.4919
  55   2.0000      -0.449456       -12.2303
  56   2.0000      -0.443699       -12.0737
  57   2.0000      -0.441505       -12.0140
  58   2.0000      -0.432153       -11.7595
  59   2.0000      -0.423784       -11.5317
  60   2.0000      -0.417518       -11.3612
  61   2.0000      -0.412174       -11.2158
  62   2.0000      -0.411159       -11.1882
  63   2.0000      -0.350032        -9.5249
  64   2.0000      -0.331253        -9.0139
  65   2.0000      -0.324118        -8.8197
  66   2.0000      -0.293987        -7.9998
  67   0.0000       0.028652         0.7797
  68   0.0000       0.074704         2.0328
  69   0.0000       0.104327         2.8389
  70   0.0000       0.117009         3.1840
  71   0.0000       0.129030         3.5111

MULLIKEN ATOMIC CHARGES
-----------------------
   0 S :    0.112031
   1 C :   -0.104258
   2 C :   -0.113639
   3 C :    0.028848
   4 C :   -0.181620
   5 H :    0.028425
   6 C :    0.058193
   7 H :    0.049217
   8 H :    0.004654
   9 C :   -0.120637
  10 H :    0.027167
  11 H :    0.030374
  12 C :    0.003292
  13 H :    0.021237
  14 H :    0.041080
  15 H :    0.043232
  16 S :    0.098438
  17 C :   -0.095126
  18 C :   -0.052095
  19 C :   -0.035158
  20 C :   -0.130374
  21 H :    0.040117
  22 C :    0.078115
  23 H :    0.025381
  24 H :    0.004804
  25 C :   -0.082050
  26 H :    0.014345
  27 H :    0.024491
  28 C :   -0.011169
  29 H :    0.028245
  30 H :    0.031510
  31 H :    0.028985
  32 H :    0.040345
  33 H :    0.063600
Sum of atomic charges:    0.0000000

LOEWDIN ATOMIC CHARGES
----------------------
   0 S :    0.407277
   1 C :   -0.194903
   2 C :   -0.066495
   3 C :   -0.065441
   4 C :   -0.193077
   5 H :    0.037620
   6 C :   -0.040246
   7 H :    0.037361
   8 H :    0.023790
   9 C :   -0.046136
  10 H :    0.021787
  11 H :    0.024139
  12 C :   -0.056442
  13 H :    0.021545
  14 H :    0.032140
  15 H :    0.030995
  16 S :    0.377740
  17 C :   -0.182187
  18 C :   -0.072730
  19 C :   -0.058735
  20 C :   -0.189462
  21 H :    0.040577
  22 C :   -0.032809
  23 H :    0.035046
  24 H :    0.025716
  25 C :   -0.041738
  26 H :    0.022355
  27 H :    0.023331
  28 C :   -0.059091
  29 H :    0.023748
  30 H :    0.021578
  31 H :    0.029343
  32 H :    0.026268
  33 H :    0.037138

  Mayer bond orders larger than 0.100000
B(  0-S ,  1-C ) :   1.1365 B(  0-S ,  4-C ) :   1.1593 B(  1-C ,  2-C ) :   1.6003
B(  1-C , 32-H ) :   0.9680 B(  2-C ,  3-C ) :   1.2449 B(  2-C ,  6-C ) :   1.0272
B(  3-C ,  4-C ) :   1.5631 B(  3-C ,  5-H ) :   0.9816 B(  4-C , 20-C ) :   1.0349
B(  6-C ,  7-H ) :   0.9423 B(  6-C ,  8-H ) :   0.9365 B(  6-C ,  9-C ) :   1.0629
B(  9-C , 10-H ) :   0.9591 B(  9-C , 11-H ) :   0.9543 B(  9-C , 12-C ) :   1.0661
B( 12-C , 13-H ) :   0.9701 B( 12-C , 14-H ) :   0.9655 B( 12-C , 15-H ) :   0.9764
B( 16-S , 17-C ) :   1.1131 B( 16-S , 20-C ) :   1.1209 B( 17-C , 18-C ) :   1.6826
B( 17-C , 33-H ) :   0.9624 B( 18-C , 19-C ) :   1.1819 B( 18-C , 21-H ) :   0.9776
B( 19-C , 20-C ) :   1.6599 B( 19-C , 22-C ) :   1.0429 B( 22-C , 23-H ) :   0.9403
B( 22-C , 24-H ) :   0.9316 B( 22-C , 25-C ) :   1.0319 B( 25-C , 26-H ) :   0.9494
B( 25-C , 27-H ) :   0.9623 B( 25-C , 28-C ) :   1.0809 B( 28-C , 29-H ) :   0.9743
B( 28-C , 30-H ) :   0.9775 B( 28-C , 31-H ) :   0.9735

Dispersion correction           -0.014694090
FINAL SINGLE POINT ENERGY     -1339.877946804310

DIPOLE MOMENT
-------------
                                X             Y             Z
Electronic contribution:    -16.09845     -21.86286       1.00859
Nuclear contribution   :     16.52435      22.48230      -0.91701
                        -----------------------------------------
Total Dipole Moment    :      0.42590       0.61943       0.09158
                        -----------------------------------------
Magnitude (a.u.)       :      0.75728
Magnitude (Debye)      :      1.92485

Rotational constants in cm-1:     0.016451     0.009739     0.007231
Rotational constants in MHz :   493.183608   291.958960   216.793704

                             ****ORCA TERMINATED NORMALLY****
TOTAL RUN TIME: 0 days 0 hours 0 minutes 22 seconds 51 msec
