                         Program Version 4.2.1 -  RELEASE  -
|  1> ! wB97X-D3 SP def2-SVP
|  2> %pal
|  3> nprocs 24
|  4> end
|  5>
|  6> * xyz 0 1
|  7> S 	 -104.841 	 44.4554 	 -92.254
|  8> C 	 -104.981 	 43.4538 	 -90.8065
|  9> C 	 -104.188 	 42.3022 	 -90.8812
| 10> C 	 -103.611 	 42.1656 	 -92.1643
| 11> C 	 -104.001 	 43.1894 	 -93.0346
| 12> H 	 -103.05 	 41.3706 	 -92.569
| 13> C 	 -104.075 	 41.362 	 -89.6816
| 14> H 	 -105.044 	 41.2378 	 -89.298
| 15> H 	 -103.553 	 41.783 	 -88.772
| 16> C 	 -103.583 	 39.9256 	 -89.9094
| 17> H 	 -103.89 	 39.6024 	 -90.9309
| 18> H 	 -102.506 	 39.9122 	 -89.9576
| 19> C 	 -103.961 	 38.8485 	 -88.8577
| 20> H 	 -103.203 	 38.0547 	 -88.8973
| 21> H 	 -103.928 	 39.3189 	 -87.8895
| 22> H 	 -104.931 	 38.4285 	 -89.0424
| 23> S 	 -105.264 	 43.2536 	 -95.328
| 24> C 	 -104.386 	 43.0849 	 -96.8321
| 25> C 	 -103.117 	 42.5982 	 -96.6369
| 26> C 	 -102.74 	 42.6799 	 -95.259
| 27> C 	 -103.772 	 43.1336 	 -94.4557
| 28> H 	 -102.405 	 42.4935 	 -97.3924
| 29> C 	 -101.283 	 42.3515 	 -94.8765
| 30> H 	 -100.903 	 41.4719 	 -95.4141
| 31> H 	 -101.096 	 42.0597 	 -93.8103
| 32> C 	 -100.327 	 43.5454 	 -95.0614
| 33> H 	 -100.69 	 44.2517 	 -94.3497
| 34> H 	 -100.528 	 43.9064 	 -96.0742
| 35> C 	 -98.7939 	 43.2953 	 -94.8539
| 36> H 	 -98.4405 	 44.0887 	 -94.1807
| 37> H 	 -98.1553 	 43.2675 	 -95.8076
| 38> H 	 -98.52 	 42.3361 	 -94.2745
| 39> H 	 -105.377 	 43.7441 	 -89.8654
| 40> H 	 -104.856 	 43.3262 	 -97.8011
| 41> *
| 42>
| 43>                          ****END OF INPUT****

CARTESIAN COORDINATES (ANGSTROEM)
---------------------------------
  S    -104.841000   44.455400  -92.254000
  C    -104.981000   43.453800  -90.806500
  C    -104.188000   42.302200  -90.881200
  C    -103.611000   42.165600  -92.164300
  C    -104.001000   43.189400  -93.034600
  H    -103.050000   41.370600  -92.569000
  C    -104.075000   41.362000  -89.681600
  H    -105.044000   41.237800  -89.298000
  H    -103.553000   41.783000  -88.772000
  C    -103.583000   39.925600  -89.909400
  H    -103.890000   39.602400  -90.930900
  H    -102.506000   39.912200  -89.957600
  C    -103.961000   38.848500  -88.857700
  H    -103.203000   38.054700  -88.897300
  H    -103.928000   39.318900  -87.889500
  H    -104.931000   38.428500  -89.042400
  S    -105.264000   43.253600  -95.328000
  C    -104.386000   43.084900  -96.832100
  C    -103.117000   42.598200  -96.636900
  C    -102.740000   42.679900  -95.259000
  C    -103.772000   43.133600  -94.455700
  H    -102.405000   42.493500  -97.392400
  C    -101.283000   42.351500  -94.876500
  H    -100.903000   41.471900  -95.414100
  H    -101.096000   42.059700  -93.810300
  C    -100.327000   43.545400  -95.061400
  H    -100.690000   44.251700  -94.349700
  H    -100.528000   43.906400  -96.074200
  C    -98.793900   43.295300  -94.853900
  H    -98.440500   44.088700  -94.180700
  H    -98.155300   43.267500  -95.807600
  H    -98.520000   42.336100  -94.274500
  H    -105.377000   43.744100  -89.865400
  H    -104.856000   43.326200  -97.801100

 Total Charge           Charge          ....    0
 Multiplicity           Mult            ....    1
 Number of Electrons    NEL             ....  134
 Basis Dimension        Dim             ....  322

ORBITAL ENERGIES
----------------

  NO   OCC          E(Eh)            E(eV)
   0   2.0000     -88.972639     -2421.0686
   1   2.0000     -88.962206     -2420.7847
   2   2.0000     -10.323902      -280.9277
   3   2.0000     -10.322244      -280.8825
   4   2.0000     -10.317749      -280.7602
   5   2.0000     -10.310883      -280.5734
   6   2.0000     -10.305230      -280.4196
   7   2.0000     -10.304870      -280.4098
   8   2.0000     -10.295327      -280.1501
   9   2.0000     -10.293295      -280.0948
  10   2.0000     -10.292852      -280.0827
  11   2.0000     -10.290169      -280.0097
  12   2.0000     -10.290163      -280.0096
  13   2.0000     -10.286771      -279.9173
  14   2.0000     -10.284722      -279.8615
  15   2.0000     -10.279838      -279.7286
  16   2.0000      -8.087315      -220.0670
  17   2.0000      -8.077834      -219.8090
  18   2.0000      -6.045642      -164.5103
  19   2.0000      -6.041884      -164.4080
  20   2.0000      -6.038223      -164.3084
  21   2.0000      -6.036298      -164.2560
  22   2.0000      -6.032334      -164.1481
  23   2.0000      -6.028436      -164.0421
  24   2.0000      -1.012806       -27.5599
  25   2.0000      -0.985831       -26.8258
  26   2.0000      -0.910830       -24.7849
  27   2.0000      -0.902844       -24.5676
  28   2.0000      -0.871992       -23.7281
  29   2.0000      -0.851408       -23.1680
  30   2.0000      -0.844440       -22.9784
  31   2.0000      -0.812751       -22.1161
  32   2.0000      -0.783027       -21.3072
  33   2.0000      -0.770698       -20.9718
  34   2.0000      -0.710226       -19.3262
  35   2.0000      -0.692436       -18.8421
  36   2.0000      -0.686109       -18.6700
  37   2.0000      -0.669207       -18.2100
  38   2.0000      -0.642696       -17.4886
  39   2.0000      -0.620596       -16.8873
  40   2.0000      -0.600513       -16.3408
  41   2.0000      -0.568310       -15.4645
  42   2.0000      -0.563366       -15.3300
  43   2.0000      -0.560025       -15.2391
  44   2.0000      -0.525665       -14.3041
  45   2.0000      -0.518631       -14.1127
  46   2.0000      -0.510375       -13.8880
  47   2.0000      -0.506536       -13.7836
  48   2.0000      -0.503809       -13.7093
  49   2.0000      -0.498854       -13.5745
  50   2.0000      -0.491346       -13.3702
  51   2.0000      -0.481787       -13.1101
  52   2.0000      -0.474320       -12.9069
  53   2.0000      -0.466422       -12.6920
  54   2.0000      -0.456870       -12.4321
  55   2.0000      -0.452875       -12.3234
  56   2.0000      -0.449785       -12.2393
  57   2.0000      -0.433024       -11.7832
  58   2.0000      -0.428090       -11.6489
  59   2.0000      -0.424366       -11.5476
  60   2.0000      -0.423005       -11.5106
  61   2.0000      -0.417093       -11.3497
  62   2.0000      -0.413464       -11.2509
  63   2.0000      -0.346493        -9.4285
  64   2.0000      -0.333278        -9.0690
  65   2.0000      -0.328566        -8.9407
  66   2.0000      -0.288464        -7.8495
  67   0.0000       0.024588         0.6691
  68   0.0000       0.071645         1.9496
  69   0.0000       0.105851         2.8804
  70   0.0000       0.113077         3.0770
  71   0.0000       0.139821         3.8047

MULLIKEN ATOMIC CHARGES
-----------------------
   0 S :    0.140154
   1 C :   -0.107936
   2 C :   -0.072106
   3 C :    0.040649
   4 C :   -0.170711
   5 H :    0.000407
   6 C :    0.072976
   7 H :    0.011987
   8 H :    0.042782
   9 C :   -0.115877
  10 H :    0.031132
  11 H :    0.023144
  12 C :   -0.030332
  13 H :    0.035273
  14 H :    0.026800
  15 H :    0.038734
  16 S :    0.101068
  17 C :   -0.103509
  18 C :    0.011245
  19 C :   -0.051705
  20 C :   -0.144634
  21 H :    0.004885
  22 C :    0.024078
  23 H :    0.026491
  24 H :    0.022186
  25 C :   -0.052969
  26 H :    0.031932
  27 H :    0.024884
  28 C :   -0.095030
  29 H :    0.042186
  30 H :    0.055703
  31 H :    0.038456
  32 H :    0.030268
  33 H :    0.067391
Sum of atomic charges:   -0.0000000

LOEWDIN ATOMIC CHARGES
----------------------
   0 S :    0.429372
   1 C :   -0.194895
   2 C :   -0.052264
   3 C :   -0.056033
   4 C :   -0.215818
   5 H :    0.023993
   6 C :   -0.039679
   7 H :    0.025766
   8 H :    0.038892
   9 C :   -0.047034
  10 H :    0.025079
  11 H :    0.018227
  12 C :   -0.057053
  13 H :    0.031078
  14 H :    0.022982
  15 H :    0.023447
  16 S :    0.413027
  17 C :   -0.179548
  18 C :   -0.061249
  19 C :   -0.058050
  20 C :   -0.199734
  21 H :    0.022506
  22 C :   -0.038341
  23 H :    0.027676
  24 H :    0.028003
  25 C :   -0.040523
  26 H :    0.023877
  27 H :    0.022188
  28 C :   -0.085324
  29 H :    0.030665
  30 H :    0.036274
  31 H :    0.031473
  32 H :    0.019256
  33 H :    0.031762

  Mayer bond orders larger than 0.100000
B(  0-S ,  1-C ) :   1.1381 B(  0-S ,  4-C ) :   1.1757 B(  1-C ,  2-C ) :   1.5956
B(  1-C ,  4-C ) :   0.1039 B(  1-C , 32-H ) :   0.9725 B(  2-C ,  3-C ) :   1.2692
B(  2-C ,  6-C ) :   1.0074 B(  3-C ,  4-C ) :   1.5316 B(  3-C ,  5-H ) :   0.9987
B(  4-C , 20-C ) :   1.0305 B(  6-C ,  7-H ) :   0.9428 B(  6-C ,  8-H ) :   0.9279
B(  6-C ,  9-C ) :   1.0709 B(  9-C , 10-H ) :   0.9579 B(  9-C , 11-H ) :   0.9555
B(  9-C , 12-C ) :   1.0817 B( 12-C , 13-H ) :   0.9755 B( 12-C , 14-H ) :   0.9764
B( 12-C , 15-H ) :   0.9769 B( 16-S , 17-C ) :   1.1530 B( 16-S , 20-C ) :   1.1507
B( 17-C , 18-C ) :   1.6066 B( 17-C , 33-H ) :   0.9676 B( 18-C , 19-C ) :   1.2382
B( 18-C , 21-H ) :   0.9926 B( 19-C , 20-C ) :   1.6162 B( 19-C , 22-C ) :   1.0400
B( 22-C , 23-H ) :   0.9417 B( 22-C , 24-H ) :   0.9395 B( 22-C , 25-C ) :   1.0593
B( 25-C , 26-H ) :   0.9633 B( 25-C , 27-H ) :   0.9615 B( 25-C , 28-C ) :   1.0516
B( 28-C , 29-H ) :   0.9785 B( 28-C , 30-H ) :   0.9778 B( 28-C , 31-H ) :   0.9769

Dispersion correction           -0.013447703
FINAL SINGLE POINT ENERGY     -1339.863126935013

DIPOLE MOMENT
-------------
                                X             Y             Z
Electronic contribution:    -20.45412      15.59274     -11.00072
Nuclear contribution   :     20.87408     -15.92920      11.19152
                        -----------------------------------------
Total Dipole Moment    :      0.41996      -0.33646       0.19081
                        -----------------------------------------
Magnitude (a.u.)       :      0.57094
Magnitude (Debye)      :      1.45122

Rotational constants in cm-1:     0.016272     0.008236     0.006713
Rotational constants in MHz :   487.823146   246.923916   201.252750

                             ****ORCA TERMINATED NORMALLY****
TOTAL RUN TIME: 0 days 0 hours 0 minutes 21 seconds 106 msec
