                         Program Version 4.2.1 -  RELEASE  -
|  1> ! wB97X-D3 SP def2-SVP
|  2> %pal
|  3> nprocs 24
|  4> end
|  5>
|  6> * xyz 0 1
|  7> S 	 27.6992 	 2.38948 	 -114.029
|  8> C 	 26.0815 	 2.70816 	 -113.609
|  9> C 	 25.5087 	 1.65066 	 -112.867
| 10> C 	 26.3453 	 0.532276 	 -112.824
| 11> C 	 27.5743 	 0.70807 	 -113.375
| 12> H 	 26.1527 	 -0.337796 	 -112.355
| 13> C 	 24.1976 	 1.80408 	 -112.212
| 14> H 	 23.5631 	 1.10459 	 -112.727
| 15> H 	 23.6779 	 2.77264 	 -112.391
| 16> C 	 24.2512 	 1.57809 	 -110.692
| 17> H 	 24.6974 	 0.653155 	 -110.471
| 18> H 	 24.7709 	 2.40948 	 -110.243
| 19> C 	 22.8679 	 1.57154 	 -110.153
| 20> H 	 22.33 	 0.740682 	 -110.535
| 21> H 	 22.7169 	 1.56486 	 -109.038
| 22> H 	 22.4554 	 2.47141 	 -110.549
| 23> S 	 29.4647 	 -0.635972 	 -114.861
| 24> C 	 30.5708 	 -1.73844 	 -114.118
| 25> C 	 30.1862 	 -1.93873 	 -112.804
| 26> C 	 29.1026 	 -1.08136 	 -112.469
| 27> C 	 28.7297 	 -0.17793 	 -113.414
| 28> H 	 30.8493 	 -2.52317 	 -112.217
| 29> C 	 28.6874 	 -0.93075 	 -110.988
| 30> H 	 28.979 	 -1.77694 	 -110.41
| 31> H 	 27.6087 	 -1.093 	 -110.942
| 32> C 	 29.2412 	 0.317334 	 -110.225
| 33> H 	 28.9341 	 1.22636 	 -110.758
| 34> H 	 30.3232 	 0.181013 	 -110.274
| 35> C 	 28.7444 	 0.460868 	 -108.734
| 36> H 	 27.7211 	 0.177653 	 -108.574
| 37> H 	 28.7664 	 1.52076 	 -108.518
| 38> H 	 29.3615 	 -0.160346 	 -108.025
| 39> H 	 25.6193 	 3.63345 	 -113.936
| 40> H 	 31.4457 	 -2.2627 	 -114.549
| 41> *
| 42>
| 43>                          ****END OF INPUT****

CARTESIAN COORDINATES (ANGSTROEM)
---------------------------------
  S     27.699200    2.389480  -114.029000
  C     26.081500    2.708160  -113.609000
  C     25.508700    1.650660  -112.867000
  C     26.345300    0.532276  -112.824000
  C     27.574300    0.708070  -113.375000
  H     26.152700   -0.337796  -112.355000
  C     24.197600    1.804080  -112.212000
  H     23.563100    1.104590  -112.727000
  H     23.677900    2.772640  -112.391000
  C     24.251200    1.578090  -110.692000
  H     24.697400    0.653155  -110.471000
  H     24.770900    2.409480  -110.243000
  C     22.867900    1.571540  -110.153000
  H     22.330000    0.740682  -110.535000
  H     22.716900    1.564860  -109.038000
  H     22.455400    2.471410  -110.549000
  S     29.464700   -0.635972  -114.861000
  C     30.570800   -1.738440  -114.118000
  C     30.186200   -1.938730  -112.804000
  C     29.102600   -1.081360  -112.469000
  C     28.729700   -0.177930  -113.414000
  H     30.849300   -2.523170  -112.217000
  C     28.687400   -0.930750  -110.988000
  H     28.979000   -1.776940  -110.410000
  H     27.608700   -1.093000  -110.942000
  C     29.241200    0.317334  -110.225000
  H     28.934100    1.226360  -110.758000
  H     30.323200    0.181013  -110.274000
  C     28.744400    0.460868  -108.734000
  H     27.721100    0.177653  -108.574000
  H     28.766400    1.520760  -108.518000
  H     29.361500   -0.160346  -108.025000
  H     25.619300    3.633450  -113.936000
  H     31.445700   -2.262700  -114.549000

 Total Charge           Charge          ....    0
 Multiplicity           Mult            ....    1
 Number of Electrons    NEL             ....  134
 Basis Dimension        Dim             ....  322

ORBITAL ENERGIES
----------------

  NO   OCC          E(Eh)            E(eV)
   0   2.0000     -88.963196     -2420.8116
   1   2.0000     -88.963160     -2420.8107
   2   2.0000     -10.330374      -281.1038
   3   2.0000     -10.318699      -280.7861
   4   2.0000     -10.316950      -280.7385
   5   2.0000     -10.312809      -280.6258
   6   2.0000     -10.298715      -280.2423
   7   2.0000     -10.298375      -280.2330
   8   2.0000     -10.290427      -280.0168
   9   2.0000     -10.289896      -280.0023
  10   2.0000     -10.287940      -279.9491
  11   2.0000     -10.286262      -279.9034
  12   2.0000     -10.284711      -279.8612
  13   2.0000     -10.279836      -279.7286
  14   2.0000     -10.279194      -279.7111
  15   2.0000     -10.271799      -279.5099
  16   2.0000      -8.079465      -219.8534
  17   2.0000      -8.078113      -219.8166
  18   2.0000      -6.037869      -164.2988
  19   2.0000      -6.036362      -164.2578
  20   2.0000      -6.033565      -164.1817
  21   2.0000      -6.032571      -164.1546
  22   2.0000      -6.030403      -164.0956
  23   2.0000      -6.029171      -164.0621
  24   2.0000      -1.016921       -27.6718
  25   2.0000      -0.992090       -26.9962
  26   2.0000      -0.922807       -25.1109
  27   2.0000      -0.897691       -24.4274
  28   2.0000      -0.875849       -23.8331
  29   2.0000      -0.859584       -23.3905
  30   2.0000      -0.844467       -22.9791
  31   2.0000      -0.823546       -22.4098
  32   2.0000      -0.778634       -21.1877
  33   2.0000      -0.765287       -20.8245
  34   2.0000      -0.711394       -19.3580
  35   2.0000      -0.697730       -18.9862
  36   2.0000      -0.690638       -18.7932
  37   2.0000      -0.667114       -18.1531
  38   2.0000      -0.650520       -17.7016
  39   2.0000      -0.633532       -17.2393
  40   2.0000      -0.589779       -16.0487
  41   2.0000      -0.580415       -15.7939
  42   2.0000      -0.573461       -15.6047
  43   2.0000      -0.558024       -15.1846
  44   2.0000      -0.530185       -14.4271
  45   2.0000      -0.525426       -14.2976
  46   2.0000      -0.519958       -14.1488
  47   2.0000      -0.512230       -13.9385
  48   2.0000      -0.508803       -13.8452
  49   2.0000      -0.499952       -13.6044
  50   2.0000      -0.490972       -13.3600
  51   2.0000      -0.484733       -13.1903
  52   2.0000      -0.475190       -12.9306
  53   2.0000      -0.469732       -12.7821
  54   2.0000      -0.461284       -12.5522
  55   2.0000      -0.449239       -12.2244
  56   2.0000      -0.437357       -11.9011
  57   2.0000      -0.433016       -11.7830
  58   2.0000      -0.431974       -11.7546
  59   2.0000      -0.428981       -11.6732
  60   2.0000      -0.416389       -11.3305
  61   2.0000      -0.411904       -11.2085
  62   2.0000      -0.411371       -11.1940
  63   2.0000      -0.353042        -9.6068
  64   2.0000      -0.332769        -9.0551
  65   2.0000      -0.326446        -8.8830
  66   2.0000      -0.291760        -7.9392
  67   0.0000       0.027056         0.7362
  68   0.0000       0.075996         2.0680
  69   0.0000       0.115813         3.1514
  70   0.0000       0.120641         3.2828
  71   0.0000       0.132588         3.6079

MULLIKEN ATOMIC CHARGES
-----------------------
   0 S :    0.103439
   1 C :   -0.124663
   2 C :   -0.070615
   3 C :    0.086806
   4 C :   -0.167393
   5 H :   -0.043740
   6 C :    0.041385
   7 H :    0.024401
   8 H :    0.018538
   9 C :   -0.039353
  10 H :    0.017107
  11 H :    0.031552
  12 C :   -0.029277
  13 H :    0.017685
  14 H :    0.041696
  15 H :    0.010802
  16 S :    0.117714
  17 C :   -0.112033
  18 C :   -0.023396
  19 C :   -0.063461
  20 C :   -0.094804
  21 H :    0.011273
  22 C :    0.062826
  23 H :   -0.004031
  24 H :    0.001770
  25 C :   -0.063644
  26 H :    0.042391
  27 H :    0.034830
  28 C :   -0.049557
  29 H :    0.023492
  30 H :    0.035103
  31 H :    0.041589
  32 H :    0.053847
  33 H :    0.067721
Sum of atomic charges:    0.0000000

LOEWDIN ATOMIC CHARGES
----------------------
   0 S :    0.400388
   1 C :   -0.205847
   2 C :   -0.063120
   3 C :   -0.041819
   4 C :   -0.168311
   5 H :    0.012844
   6 C :   -0.032632
   7 H :    0.029180
   8 H :    0.032718
   9 C :   -0.030367
  10 H :    0.013968
  11 H :    0.027371
  12 C :   -0.061428
  13 H :    0.018555
  14 H :    0.030814
  15 H :    0.019259
  16 S :    0.445121
  17 C :   -0.195617
  18 C :   -0.071131
  19 C :   -0.062354
  20 C :   -0.227366
  21 H :    0.028578
  22 C :   -0.037877
  23 H :    0.020487
  24 H :    0.020671
  25 C :   -0.032877
  26 H :    0.025453
  27 H :    0.026971
  28 C :   -0.067388
  29 H :    0.020338
  30 H :    0.028458
  31 H :    0.030108
  32 H :    0.026790
  33 H :    0.040060

  Mayer bond orders larger than 0.100000
B(  0-S ,  1-C ) :   1.1696 B(  0-S ,  4-C ) :   1.1436 B(  1-C ,  2-C ) :   1.5578
B(  1-C ,  4-C ) :   0.1047 B(  1-C , 32-H ) :   0.9720 B(  2-C ,  3-C ) :   1.2605
B(  2-C ,  6-C ) :   1.0289 B(  3-C ,  4-C ) :   1.5733 B(  3-C ,  5-H ) :   1.0155
B(  4-C , 20-C ) :   1.0198 B(  6-C ,  7-H ) :   0.9332 B(  6-C ,  8-H ) :   0.9410
B(  6-C ,  9-C ) :   1.0624 B(  9-C , 10-H ) :   0.9556 B(  9-C , 11-H ) :   0.9536
B(  9-C , 12-C ) :   1.0867 B( 12-C , 13-H ) :   0.9749 B( 12-C , 14-H ) :   0.9729
B( 12-C , 15-H ) :   0.9695 B( 16-S , 17-C ) :   1.1788 B( 16-S , 20-C ) :   1.1570
B( 17-C , 18-C ) :   1.5840 B( 17-C , 20-C ) :   0.1000 B( 17-C , 33-H ) :   0.9638
B( 18-C , 19-C ) :   1.2535 B( 18-C , 21-H ) :   1.0016 B( 19-C , 20-C ) :   1.5718
B( 19-C , 22-C ) :   1.0519 B( 22-C , 23-H ) :   0.9354 B( 22-C , 24-H ) :   0.9297
B( 22-C , 25-C ) :   1.0489 B( 25-C , 26-H ) :   0.9624 B( 25-C , 27-H ) :   0.9582
B( 25-C , 28-C ) :   1.0688 B( 28-C , 29-H ) :   0.9779 B( 28-C , 30-H ) :   0.9776
B( 28-C , 31-H ) :   0.9772

Dispersion correction           -0.014793566
FINAL SINGLE POINT ENERGY     -1339.863450350871

DIPOLE MOMENT
-------------
                                X             Y             Z
Electronic contribution:     15.19389      -0.87861     -27.45537
Nuclear contribution   :    -15.45540       0.72804      28.03118
                        -----------------------------------------
Total Dipole Moment    :     -0.26151      -0.15056       0.57581
                        -----------------------------------------
Magnitude (a.u.)       :      0.65008
Magnitude (Debye)      :      1.65238

Rotational constants in cm-1:     0.019026     0.009229     0.007167
Rotational constants in MHz :   570.394536   276.677181   214.851600

                             ****ORCA TERMINATED NORMALLY****
TOTAL RUN TIME: 0 days 0 hours 0 minutes 21 seconds 288 msec
