                         Program Version 4.2.1 -  RELEASE  -
|  1> ! wB97X-D3 SP def2-SVP
|  2> %pal
|  3> nprocs 24
|  4> end
|  5>
|  6> * xyz 0 1
|  7> S 	 -39.8122 	 19.347 	 27.8544
|  8> C 	 -39.8986 	 17.6641 	 28.321
|  9> C 	 -40.2001 	 16.7909 	 27.2582
| 10> C 	 -40.236 	 17.5267 	 25.9958
| 11> C 	 -40.1163 	 18.899 	 26.1656
| 12> H 	 -40.422 	 17.0896 	 25.0088
| 13> C 	 -40.3864 	 15.3467 	 27.2896
| 14> H 	 -39.6993 	 14.9887 	 28.1054
| 15> H 	 -40.2157 	 14.9394 	 26.2467
| 16> C 	 -41.8067 	 14.8895 	 27.7947
| 17> H 	 -41.9317 	 15.3685 	 28.8142
| 18> H 	 -42.594 	 15.3272 	 27.1681
| 19> C 	 -41.9733 	 13.3734 	 27.863
| 20> H 	 -42.8942 	 13.1453 	 28.4263
| 21> H 	 -42.2977 	 13.0482 	 26.9487
| 22> H 	 -41.2435 	 12.6965 	 28.3114
| 23> S 	 -41.5484 	 21.0036 	 25.2148
| 24> C 	 -41.0845 	 21.7572 	 23.7891
| 25> C 	 -40.0998 	 21.0719 	 23.084
| 26> C 	 -39.5869 	 19.9739 	 23.8625
| 27> C 	 -40.1976 	 19.8802 	 25.15
| 28> H 	 -39.7426 	 21.4269 	 22.0959
| 29> C 	 -38.4159 	 19.1642 	 23.2409
| 30> H 	 -38.763 	 18.9032 	 22.2686
| 31> H 	 -38.3073 	 18.2248 	 23.784
| 32> C 	 -37.009 	 19.8054 	 23.5199
| 33> H 	 -37.0323 	 20.77 	 23.0035
| 34> H 	 -36.2213 	 19.1785 	 22.9618
| 35> C 	 -36.5808 	 19.8736 	 24.951
| 36> H 	 -36.4123 	 18.8905 	 25.3477
| 37> H 	 -37.2153 	 20.4418 	 25.5907
| 38> H 	 -35.5911 	 20.186 	 25.0751
| 39> H 	 -39.8723 	 17.3316 	 29.3587
| 40> H 	 -41.4521 	 22.6858 	 23.359
| 41> *
| 42>
| 43>                          ****END OF INPUT****

CARTESIAN COORDINATES (ANGSTROEM)
---------------------------------
  S    -39.812200   19.347000   27.854400
  C    -39.898600   17.664100   28.321000
  C    -40.200100   16.790900   27.258200
  C    -40.236000   17.526700   25.995800
  C    -40.116300   18.899000   26.165600
  H    -40.422000   17.089600   25.008800
  C    -40.386400   15.346700   27.289600
  H    -39.699300   14.988700   28.105400
  H    -40.215700   14.939400   26.246700
  C    -41.806700   14.889500   27.794700
  H    -41.931700   15.368500   28.814200
  H    -42.594000   15.327200   27.168100
  C    -41.973300   13.373400   27.863000
  H    -42.894200   13.145300   28.426300
  H    -42.297700   13.048200   26.948700
  H    -41.243500   12.696500   28.311400
  S    -41.548400   21.003600   25.214800
  C    -41.084500   21.757200   23.789100
  C    -40.099800   21.071900   23.084000
  C    -39.586900   19.973900   23.862500
  C    -40.197600   19.880200   25.150000
  H    -39.742600   21.426900   22.095900
  C    -38.415900   19.164200   23.240900
  H    -38.763000   18.903200   22.268600
  H    -38.307300   18.224800   23.784000
  C    -37.009000   19.805400   23.519900
  H    -37.032300   20.770000   23.003500
  H    -36.221300   19.178500   22.961800
  C    -36.580800   19.873600   24.951000
  H    -36.412300   18.890500   25.347700
  H    -37.215300   20.441800   25.590700
  H    -35.591100   20.186000   25.075100
  H    -39.872300   17.331600   29.358700
  H    -41.452100   22.685800   23.359000

 Total Charge           Charge          ....    0
 Multiplicity           Mult            ....    1
 Number of Electrons    NEL             ....  134
 Basis Dimension        Dim             ....  322

ORBITAL ENERGIES
----------------

  NO   OCC          E(Eh)            E(eV)
   0   2.0000     -88.967852     -2420.9383
   1   2.0000     -88.964910     -2420.8583
   2   2.0000     -10.325729      -280.9774
   3   2.0000     -10.322806      -280.8978
   4   2.0000     -10.315937      -280.7109
   5   2.0000     -10.311027      -280.5773
   6   2.0000     -10.307740      -280.4879
   7   2.0000     -10.302179      -280.3366
   8   2.0000     -10.298215      -280.2287
   9   2.0000     -10.297284      -280.2033
  10   2.0000     -10.295545      -280.1560
  11   2.0000     -10.293178      -280.0916
  12   2.0000     -10.291387      -280.0429
  13   2.0000     -10.290082      -280.0074
  14   2.0000     -10.273411      -279.5537
  15   2.0000     -10.261886      -279.2401
  16   2.0000      -8.082027      -219.9231
  17   2.0000      -8.080758      -219.8886
  18   2.0000      -6.040553      -164.3718
  19   2.0000      -6.039116      -164.3327
  20   2.0000      -6.036666      -164.2660
  21   2.0000      -6.035017      -164.2212
  22   2.0000      -6.032758      -164.1597
  23   2.0000      -6.031703      -164.1310
  24   2.0000      -1.004707       -27.3395
  25   2.0000      -0.980045       -26.6684
  26   2.0000      -0.911459       -24.8021
  27   2.0000      -0.904041       -24.6002
  28   2.0000      -0.869317       -23.6553
  29   2.0000      -0.852436       -23.1960
  30   2.0000      -0.847853       -23.0713
  31   2.0000      -0.809552       -22.0290
  32   2.0000      -0.785567       -21.3764
  33   2.0000      -0.768465       -20.9110
  34   2.0000      -0.705198       -19.1894
  35   2.0000      -0.701724       -19.0949
  36   2.0000      -0.689054       -18.7501
  37   2.0000      -0.654358       -17.8060
  38   2.0000      -0.636352       -17.3160
  39   2.0000      -0.616341       -16.7715
  40   2.0000      -0.590740       -16.0749
  41   2.0000      -0.568328       -15.4650
  42   2.0000      -0.559936       -15.2366
  43   2.0000      -0.552130       -15.0242
  44   2.0000      -0.542328       -14.7575
  45   2.0000      -0.519548       -14.1376
  46   2.0000      -0.515336       -14.0230
  47   2.0000      -0.508296       -13.8314
  48   2.0000      -0.503566       -13.7027
  49   2.0000      -0.495838       -13.4924
  50   2.0000      -0.488208       -13.2848
  51   2.0000      -0.474775       -12.9193
  52   2.0000      -0.470276       -12.7969
  53   2.0000      -0.465595       -12.6695
  54   2.0000      -0.461299       -12.5526
  55   2.0000      -0.449532       -12.2324
  56   2.0000      -0.447487       -12.1767
  57   2.0000      -0.438662       -11.9366
  58   2.0000      -0.431977       -11.7547
  59   2.0000      -0.426371       -11.6022
  60   2.0000      -0.415629       -11.3099
  61   2.0000      -0.410393       -11.1674
  62   2.0000      -0.406279       -11.0554
  63   2.0000      -0.340549        -9.2668
  64   2.0000      -0.328326        -8.9342
  65   2.0000      -0.323037        -8.7903
  66   2.0000      -0.289669        -7.8823
  67   0.0000       0.029628         0.8062
  68   0.0000       0.067305         1.8315
  69   0.0000       0.109233         2.9724
  70   0.0000       0.113754         3.0954
  71   0.0000       0.128123         3.4864

MULLIKEN ATOMIC CHARGES
-----------------------
   0 S :    0.119362
   1 C :   -0.118562
   2 C :   -0.085726
   3 C :    0.038836
   4 C :   -0.174936
   5 H :    0.022777
   6 C :    0.032521
   7 H :    0.039080
   8 H :    0.039098
   9 C :   -0.106423
  10 H :    0.031264
  11 H :    0.033308
  12 C :    0.002528
  13 H :    0.019296
  14 H :    0.005287
  15 H :    0.040542
  16 S :    0.128977
  17 C :   -0.076262
  18 C :   -0.069133
  19 C :   -0.060053
  20 C :   -0.166794
  21 H :    0.030967
  22 C :    0.093932
  23 H :    0.027808
  24 H :    0.005015
  25 C :   -0.091561
  26 H :    0.024917
  27 H :    0.036126
  28 C :    0.016244
  29 H :    0.012547
  30 H :    0.036991
  31 H :    0.010410
  32 H :    0.048279
  33 H :    0.053341
Sum of atomic charges:    0.0000000

LOEWDIN ATOMIC CHARGES
----------------------
   0 S :    0.401263
   1 C :   -0.203980
   2 C :   -0.063599
   3 C :   -0.052277
   4 C :   -0.197956
   5 H :    0.034736
   6 C :   -0.044005
   7 H :    0.041625
   8 H :    0.037818
   9 C :   -0.037820
  10 H :    0.025390
  11 H :    0.026576
  12 C :   -0.071036
  13 H :    0.034135
  14 H :    0.014776
  15 H :    0.029013
  16 S :    0.440017
  17 C :   -0.210300
  18 C :   -0.082460
  19 C :   -0.046932
  20 C :   -0.217640
  21 H :    0.036319
  22 C :   -0.032674
  23 H :    0.027968
  24 H :    0.025335
  25 C :   -0.037483
  26 H :    0.017758
  27 H :    0.031753
  28 C :   -0.060694
  29 H :    0.028347
  30 H :    0.023100
  31 H :    0.024788
  32 H :    0.026511
  33 H :    0.031629

  Mayer bond orders larger than 0.100000
B(  0-S ,  1-C ) :   1.1356 B(  0-S ,  4-C ) :   1.1398 B(  1-C ,  2-C ) :   1.6073
B(  1-C , 32-H ) :   0.9640 B(  2-C ,  3-C ) :   1.2246 B(  2-C ,  6-C ) :   1.0439
B(  3-C ,  4-C ) :   1.5913 B(  3-C ,  5-H ) :   0.9861 B(  4-C , 20-C ) :   1.0574
B(  6-C ,  7-H ) :   0.9333 B(  6-C ,  8-H ) :   0.9402 B(  6-C ,  9-C ) :   1.0568
B(  9-C , 10-H ) :   0.9605 B(  9-C , 11-H ) :   0.9546 B(  9-C , 12-C ) :   1.0806
B( 12-C , 13-H ) :   0.9652 B( 12-C , 14-H ) :   0.9695 B( 12-C , 15-H ) :   0.9762
B( 16-S , 17-C ) :   1.1836 B( 16-S , 20-C ) :   1.1512 B( 17-C , 18-C ) :   1.5832
B( 17-C , 20-C ) :   0.1041 B( 17-C , 33-H ) :   0.9633 B( 18-C , 19-C ) :   1.2604
B( 18-C , 21-H ) :   0.9857 B( 19-C , 20-C ) :   1.5519 B( 19-C , 22-C ) :   1.0369
B( 22-C , 23-H ) :   0.9414 B( 22-C , 24-H ) :   0.9327 B( 22-C , 25-C ) :   1.0516
B( 25-C , 26-H ) :   0.9598 B( 25-C , 27-H ) :   0.9541 B( 25-C , 28-C ) :   1.0894
B( 28-C , 29-H ) :   0.9619 B( 28-C , 30-H ) :   0.9728 B( 28-C , 31-H ) :   0.9625

Dispersion correction           -0.014722465
FINAL SINGLE POINT ENERGY     -1339.863279191701

DIPOLE MOMENT
-------------
                                X             Y             Z
Electronic contribution:     -8.00152      20.37018       2.78425
Nuclear contribution   :      8.07092     -20.88703      -3.05351
                        -----------------------------------------
Total Dipole Moment    :      0.06940      -0.51685      -0.26926
                        -----------------------------------------
Magnitude (a.u.)       :      0.58690
Magnitude (Debye)      :      1.49179

Rotational constants in cm-1:     0.020898     0.007609     0.007003
Rotational constants in MHz :   626.520387   228.120938   209.948882

                             ****ORCA TERMINATED NORMALLY****
TOTAL RUN TIME: 0 days 0 hours 0 minutes 21 seconds 531 msec
