                         Program Version 4.2.1 -  RELEASE  -
|  1> ! wB97X-D3 SP def2-SVP
|  2> %pal
|  3> nprocs 24
|  4> end
|  5>
|  6> * xyz 0 1
|  7> S 	 24.7928 	 -1.8751 	 -110.778
|  8> C 	 24.3596 	 -1.84518 	 -112.515
|  9> C 	 23.9168 	 -0.618697 	 -112.831
| 10> C 	 23.7724 	 0.241045 	 -111.699
| 11> C 	 24.4349 	 -0.228894 	 -110.624
| 12> H 	 23.4842 	 1.27669 	 -111.652
| 13> C 	 23.5175 	 -0.18105 	 -114.18
| 14> H 	 23.77 	 -1.0857 	 -114.79
| 15> H 	 24.2046 	 0.592187 	 -114.394
| 16> C 	 22.0739 	 0.27121 	 -114.412
| 17> H 	 21.3296 	 -0.444627 	 -114.215
| 18> H 	 21.8542 	 1.04996 	 -113.685
| 19> C 	 21.8392 	 0.808006 	 -115.833
| 20> H 	 20.9249 	 1.39004 	 -115.901
| 21> H 	 22.7357 	 1.44757 	 -116.209
| 22> H 	 21.7937 	 -0.00555864 	 -116.606
| 23> S 	 24.71 	 -0.476372 	 -107.846
| 24> C 	 25.0917 	 0.989889 	 -106.929
| 25> C 	 25.1961 	 2.09967 	 -107.713
| 26> C 	 24.822 	 1.83622 	 -109.061
| 27> C 	 24.5752 	 0.472257 	 -109.348
| 28> H 	 25.5271 	 3.04014 	 -107.311
| 29> C 	 24.794 	 2.97282 	 -109.96
| 30> H 	 24.8359 	 2.70813 	 -111.023
| 31> H 	 25.7254 	 3.4805 	 -109.684
| 32> C 	 23.6069 	 3.9356 	 -109.704
| 33> H 	 23.6846 	 4.39123 	 -108.687
| 34> H 	 22.6159 	 3.39537 	 -109.716
| 35> C 	 23.5152 	 5.19498 	 -110.648
| 36> H 	 24.3357 	 5.913 	 -110.654
| 37> H 	 22.6317 	 5.80885 	 -110.459
| 38> H 	 23.4019 	 4.89277 	 -111.689
| 39> H 	 24.5948 	 -2.61085 	 -113.25
| 40> H 	 25.0817 	 1.13534 	 -105.873
| 41> *
| 42>
| 43>                          ****END OF INPUT****

CARTESIAN COORDINATES (ANGSTROEM)
---------------------------------
  S     24.792800   -1.875100  -110.778000
  C     24.359600   -1.845180  -112.515000
  C     23.916800   -0.618697  -112.831000
  C     23.772400    0.241045  -111.699000
  C     24.434900   -0.228894  -110.624000
  H     23.484200    1.276690  -111.652000
  C     23.517500   -0.181050  -114.180000
  H     23.770000   -1.085700  -114.790000
  H     24.204600    0.592187  -114.394000
  C     22.073900    0.271210  -114.412000
  H     21.329600   -0.444627  -114.215000
  H     21.854200    1.049960  -113.685000
  C     21.839200    0.808006  -115.833000
  H     20.924900    1.390040  -115.901000
  H     22.735700    1.447570  -116.209000
  H     21.793700   -0.005559  -116.606000
  S     24.710000   -0.476372  -107.846000
  C     25.091700    0.989889  -106.929000
  C     25.196100    2.099670  -107.713000
  C     24.822000    1.836220  -109.061000
  C     24.575200    0.472257  -109.348000
  H     25.527100    3.040140  -107.311000
  C     24.794000    2.972820  -109.960000
  H     24.835900    2.708130  -111.023000
  H     25.725400    3.480500  -109.684000
  C     23.606900    3.935600  -109.704000
  H     23.684600    4.391230  -108.687000
  H     22.615900    3.395370  -109.716000
  C     23.515200    5.194980  -110.648000
  H     24.335700    5.913000  -110.654000
  H     22.631700    5.808850  -110.459000
  H     23.401900    4.892770  -111.689000
  H     24.594800   -2.610850  -113.250000
  H     25.081700    1.135340  -105.873000

 Total Charge           Charge          ....    0
 Multiplicity           Mult            ....    1
 Number of Electrons    NEL             ....  134
 Basis Dimension        Dim             ....  322

ORBITAL ENERGIES
----------------

  NO   OCC          E(Eh)            E(eV)
   0   2.0000     -88.967951     -2420.9410
   1   2.0000     -88.961078     -2420.7540
   2   2.0000     -10.332345      -281.1574
   3   2.0000     -10.324247      -280.9371
   4   2.0000     -10.317302      -280.7481
   5   2.0000     -10.309628      -280.5392
   6   2.0000     -10.304186      -280.3912
   7   2.0000     -10.301820      -280.3268
   8   2.0000     -10.293818      -280.1090
   9   2.0000     -10.292568      -280.0750
  10   2.0000     -10.292348      -280.0690
  11   2.0000     -10.289339      -279.9872
  12   2.0000     -10.288181      -279.9556
  13   2.0000     -10.285715      -279.8885
  14   2.0000     -10.283058      -279.8162
  15   2.0000     -10.283025      -279.8153
  16   2.0000      -8.081746      -219.9155
  17   2.0000      -8.076802      -219.7810
  18   2.0000      -6.040475      -164.3697
  19   2.0000      -6.036444      -164.2600
  20   2.0000      -6.035394      -164.2314
  21   2.0000      -6.032283      -164.1468
  22   2.0000      -6.031404      -164.1229
  23   2.0000      -6.027164      -164.0075
  24   2.0000      -1.014221       -27.5984
  25   2.0000      -0.987988       -26.8845
  26   2.0000      -0.919269       -25.0146
  27   2.0000      -0.911207       -24.7952
  28   2.0000      -0.874143       -23.7867
  29   2.0000      -0.851623       -23.1738
  30   2.0000      -0.845986       -23.0205
  31   2.0000      -0.821921       -22.3656
  32   2.0000      -0.782840       -21.3022
  33   2.0000      -0.772353       -21.0168
  34   2.0000      -0.713937       -19.4272
  35   2.0000      -0.703791       -19.1511
  36   2.0000      -0.697312       -18.9748
  37   2.0000      -0.665529       -18.1100
  38   2.0000      -0.641792       -17.4640
  39   2.0000      -0.621892       -16.9226
  40   2.0000      -0.596171       -16.2226
  41   2.0000      -0.575416       -15.6579
  42   2.0000      -0.565357       -15.3842
  43   2.0000      -0.555868       -15.1259
  44   2.0000      -0.533503       -14.5174
  45   2.0000      -0.526746       -14.3335
  46   2.0000      -0.515383       -14.0243
  47   2.0000      -0.509516       -13.8646
  48   2.0000      -0.507990       -13.8231
  49   2.0000      -0.503632       -13.7045
  50   2.0000      -0.501134       -13.6366
  51   2.0000      -0.476270       -12.9600
  52   2.0000      -0.469643       -12.7796
  53   2.0000      -0.464689       -12.6448
  54   2.0000      -0.460968       -12.5436
  55   2.0000      -0.457887       -12.4597
  56   2.0000      -0.446441       -12.1483
  57   2.0000      -0.440076       -11.9751
  58   2.0000      -0.437390       -11.9020
  59   2.0000      -0.425109       -11.5678
  60   2.0000      -0.419726       -11.4213
  61   2.0000      -0.416202       -11.3254
  62   2.0000      -0.413742       -11.2585
  63   2.0000      -0.359566        -9.7843
  64   2.0000      -0.333057        -9.0629
  65   2.0000      -0.327199        -8.9035
  66   2.0000      -0.285685        -7.7739
  67   0.0000       0.024210         0.6588
  68   0.0000       0.082134         2.2350
  69   0.0000       0.099316         2.7025
  70   0.0000       0.118059         3.2125
  71   0.0000       0.127652         3.4736

MULLIKEN ATOMIC CHARGES
-----------------------
   0 S :    0.082546
   1 C :   -0.124306
   2 C :   -0.085040
   3 C :   -0.013625
   4 C :   -0.095914
   5 H :    0.006775
   6 C :    0.094576
   7 H :    0.012960
   8 H :    0.024828
   9 C :   -0.041593
  10 H :    0.023314
  11 H :    0.024109
  12 C :   -0.085198
  13 H :    0.041849
  14 H :    0.035476
  15 H :    0.037720
  16 S :    0.094884
  17 C :   -0.064849
  18 C :   -0.040837
  19 C :   -0.042984
  20 C :   -0.124938
  21 H :    0.020164
  22 C :    0.054410
  23 H :    0.024710
  24 H :    0.029140
  25 C :   -0.102939
  26 H :    0.034667
  27 H :    0.046722
  28 C :   -0.049072
  29 H :    0.030832
  30 H :    0.033571
  31 H :    0.020825
  32 H :    0.048997
  33 H :    0.048219
Sum of atomic charges:    0.0000000

LOEWDIN ATOMIC CHARGES
----------------------
   0 S :    0.396441
   1 C :   -0.190421
   2 C :   -0.060556
   3 C :   -0.078489
   4 C :   -0.190635
   5 H :    0.026552
   6 C :   -0.028809
   7 H :    0.033203
   8 H :    0.029394
   9 C :   -0.036641
  10 H :    0.022202
  11 H :    0.024235
  12 C :   -0.072851
  13 H :    0.025470
  14 H :    0.032054
  15 H :    0.027602
  16 S :    0.380018
  17 C :   -0.169095
  18 C :   -0.065856
  19 C :   -0.052555
  20 C :   -0.186766
  21 H :    0.032573
  22 C :   -0.040835
  23 H :    0.026805
  24 H :    0.038642
  25 C :   -0.040518
  26 H :    0.026891
  27 H :    0.032281
  28 C :   -0.074217
  29 H :    0.023960
  30 H :    0.028952
  31 H :    0.020706
  32 H :    0.031955
  33 H :    0.028307

  Mayer bond orders larger than 0.100000
B(  0-S ,  1-C ) :   1.0917 B(  0-S ,  4-C ) :   1.1509 B(  1-C ,  2-C ) :   1.6669
B(  1-C , 32-H ) :   0.9630 B(  2-C ,  3-C ) :   1.1851 B(  2-C ,  6-C ) :   1.0289
B(  3-C ,  4-C ) :   1.5998 B(  3-C ,  5-H ) :   0.9892 B(  4-C , 20-C ) :   1.0622
B(  6-C ,  7-H ) :   0.9350 B(  6-C ,  8-H ) :   0.9249 B(  6-C ,  9-C ) :   1.0678
B(  9-C , 10-H ) :   0.9532 B(  9-C , 11-H ) :   0.9523 B(  9-C , 12-C ) :   1.0799
B( 12-C , 13-H ) :   0.9746 B( 12-C , 14-H ) :   0.9749 B( 12-C , 15-H ) :   0.9755
B( 16-S , 17-C ) :   1.1416 B( 16-S , 20-C ) :   1.1129 B( 17-C , 18-C ) :   1.6315
B( 17-C , 33-H ) :   0.9628 B( 18-C , 19-C ) :   1.2392 B( 18-C , 21-H ) :   0.9886
B( 19-C , 20-C ) :   1.5759 B( 19-C , 22-C ) :   1.0646 B( 22-C , 23-H ) :   0.9330
B( 22-C , 24-H ) :   0.9220 B( 22-C , 25-C ) :   1.0531 B( 25-C , 26-H ) :   0.9549
B( 25-C , 27-H ) :   0.9569 B( 25-C , 28-C ) :   1.0747 B( 28-C , 29-H ) :   0.9774
B( 28-C , 30-H ) :   0.9750 B( 28-C , 31-H ) :   0.9752

Dispersion correction           -0.013642226
FINAL SINGLE POINT ENERGY     -1339.869614878187

DIPOLE MOMENT
-------------
                                X             Y             Z
Electronic contribution:     11.00939     -23.14435      21.38689
Nuclear contribution   :    -11.13186      23.92353     -21.68751
                        -----------------------------------------
Total Dipole Moment    :     -0.12248       0.77918      -0.30062
                        -----------------------------------------
Magnitude (a.u.)       :      0.84409
Magnitude (Debye)      :      2.14552

Rotational constants in cm-1:     0.016699     0.009374     0.006246
Rotational constants in MHz :   500.636910   281.019031   187.236808

                             ****ORCA TERMINATED NORMALLY****
TOTAL RUN TIME: 0 days 0 hours 0 minutes 21 seconds 493 msec
