                         Program Version 4.2.1 -  RELEASE  -
|  1> ! wB97X-D3 SP def2-SVP
|  2> %pal
|  3> nprocs 24
|  4> end
|  5>
|  6> * xyz 0 1
|  7> S 	 -47.3304 	 10.0147 	 -21.6766
|  8> C 	 -48.7901 	 9.1595 	 -21.2802
|  9> C 	 -49.9321 	 9.91623 	 -21.5214
| 10> C 	 -49.5604 	 11.2965 	 -21.6454
| 11> C 	 -48.1728 	 11.5176 	 -21.7586
| 12> H 	 -50.189 	 12.1843 	 -21.8304
| 13> C 	 -51.4351 	 9.4457 	 -21.4595
| 14> H 	 -51.9634 	 10.4077 	 -21.6136
| 15> H 	 -51.6982 	 8.98972 	 -20.4701
| 16> C 	 -51.8729 	 8.4148 	 -22.5774
| 17> H 	 -51.5208 	 8.80186 	 -23.5392
| 18> H 	 -51.4051 	 7.42774 	 -22.3649
| 19> C 	 -53.4492 	 8.16645 	 -22.7236
| 20> H 	 -53.7258 	 7.53061 	 -23.5866
| 21> H 	 -53.7178 	 7.60327 	 -21.8581
| 22> H 	 -54.0056 	 9.07606 	 -22.8097
| 23> S 	 -46.4178 	 12.9246 	 -23.2714
| 24> C 	 -46.2423 	 14.5873 	 -23.0584
| 25> C 	 -47.3329 	 15.046 	 -22.3383
| 26> C 	 -47.9925 	 14.0589 	 -21.5627
| 27> C 	 -47.5709 	 12.7684 	 -22.0002
| 28> H 	 -47.4846 	 16.1457 	 -22.3011
| 29> C 	 -49.0485 	 14.3832 	 -20.5187
| 30> H 	 -48.5637 	 15.043 	 -19.768
| 31> H 	 -49.3265 	 13.383 	 -20.0714
| 32> C 	 -50.2791 	 14.9879 	 -21.1003
| 33> H 	 -50.6964 	 14.3478 	 -21.8418
| 34> H 	 -50.096 	 15.979 	 -21.6325
| 35> C 	 -51.4749 	 15.3173 	 -20.1204
| 36> H 	 -51.2383 	 16.118 	 -19.453
| 37> H 	 -51.8404 	 14.4434 	 -19.499
| 38> H 	 -52.3634 	 15.6335 	 -20.6791
| 39> H 	 -48.7517 	 8.12686 	 -21.0334
| 40> H 	 -45.5698 	 15.1217 	 -23.6436
| 41> *
| 42>
| 43>                          ****END OF INPUT****

CARTESIAN COORDINATES (ANGSTROEM)
---------------------------------
  S    -47.330400   10.014700  -21.676600
  C    -48.790100    9.159500  -21.280200
  C    -49.932100    9.916230  -21.521400
  C    -49.560400   11.296500  -21.645400
  C    -48.172800   11.517600  -21.758600
  H    -50.189000   12.184300  -21.830400
  C    -51.435100    9.445700  -21.459500
  H    -51.963400   10.407700  -21.613600
  H    -51.698200    8.989720  -20.470100
  C    -51.872900    8.414800  -22.577400
  H    -51.520800    8.801860  -23.539200
  H    -51.405100    7.427740  -22.364900
  C    -53.449200    8.166450  -22.723600
  H    -53.725800    7.530610  -23.586600
  H    -53.717800    7.603270  -21.858100
  H    -54.005600    9.076060  -22.809700
  S    -46.417800   12.924600  -23.271400
  C    -46.242300   14.587300  -23.058400
  C    -47.332900   15.046000  -22.338300
  C    -47.992500   14.058900  -21.562700
  C    -47.570900   12.768400  -22.000200
  H    -47.484600   16.145700  -22.301100
  C    -49.048500   14.383200  -20.518700
  H    -48.563700   15.043000  -19.768000
  H    -49.326500   13.383000  -20.071400
  C    -50.279100   14.987900  -21.100300
  H    -50.696400   14.347800  -21.841800
  H    -50.096000   15.979000  -21.632500
  C    -51.474900   15.317300  -20.120400
  H    -51.238300   16.118000  -19.453000
  H    -51.840400   14.443400  -19.499000
  H    -52.363400   15.633500  -20.679100
  H    -48.751700    8.126860  -21.033400
  H    -45.569800   15.121700  -23.643600

 Total Charge           Charge          ....    0
 Multiplicity           Mult            ....    1
 Number of Electrons    NEL             ....  134
 Basis Dimension        Dim             ....  322

ORBITAL ENERGIES
----------------

  NO   OCC          E(Eh)            E(eV)
   0   2.0000     -88.968157     -2420.9466
   1   2.0000     -88.962155     -2420.7833
   2   2.0000     -10.324968      -280.9567
   3   2.0000     -10.322734      -280.8959
   4   2.0000     -10.313742      -280.6512
   5   2.0000     -10.310473      -280.5622
   6   2.0000     -10.307733      -280.4877
   7   2.0000     -10.307065      -280.4695
   8   2.0000     -10.304275      -280.3936
   9   2.0000     -10.298969      -280.2492
  10   2.0000     -10.297256      -280.2026
  11   2.0000     -10.296728      -280.1882
  12   2.0000     -10.294265      -280.1212
  13   2.0000     -10.292367      -280.0695
  14   2.0000     -10.283325      -279.8235
  15   2.0000     -10.281177      -279.7650
  16   2.0000      -8.083511      -219.9635
  17   2.0000      -8.078846      -219.8366
  18   2.0000      -6.041899      -164.4084
  19   2.0000      -6.037926      -164.3003
  20   2.0000      -6.037043      -164.2763
  21   2.0000      -6.034379      -164.2038
  22   2.0000      -6.033094      -164.1688
  23   2.0000      -6.029811      -164.0795
  24   2.0000      -1.015121       -27.6228
  25   2.0000      -0.989414       -26.9233
  26   2.0000      -0.912679       -24.8353
  27   2.0000      -0.898780       -24.4571
  28   2.0000      -0.872110       -23.7313
  29   2.0000      -0.850930       -23.1550
  30   2.0000      -0.844066       -22.9682
  31   2.0000      -0.807701       -21.9787
  32   2.0000      -0.784401       -21.3446
  33   2.0000      -0.774276       -21.0691
  34   2.0000      -0.705203       -19.1895
  35   2.0000      -0.700748       -19.0683
  36   2.0000      -0.695352       -18.9215
  37   2.0000      -0.662761       -18.0346
  38   2.0000      -0.639895       -17.4124
  39   2.0000      -0.613091       -16.6831
  40   2.0000      -0.597811       -16.2673
  41   2.0000      -0.568930       -15.4814
  42   2.0000      -0.561480       -15.2787
  43   2.0000      -0.560012       -15.2387
  44   2.0000      -0.527645       -14.3579
  45   2.0000      -0.520193       -14.1552
  46   2.0000      -0.514066       -13.9884
  47   2.0000      -0.510292       -13.8858
  48   2.0000      -0.506816       -13.7912
  49   2.0000      -0.498785       -13.5726
  50   2.0000      -0.497863       -13.5475
  51   2.0000      -0.480007       -13.0616
  52   2.0000      -0.476086       -12.9550
  53   2.0000      -0.466552       -12.6955
  54   2.0000      -0.460012       -12.5176
  55   2.0000      -0.449098       -12.2206
  56   2.0000      -0.446415       -12.1476
  57   2.0000      -0.436389       -11.8748
  58   2.0000      -0.434427       -11.8214
  59   2.0000      -0.426809       -11.6141
  60   2.0000      -0.419554       -11.4166
  61   2.0000      -0.416184       -11.3250
  62   2.0000      -0.414943       -11.2912
  63   2.0000      -0.351397        -9.5620
  64   2.0000      -0.333281        -9.0690
  65   2.0000      -0.327580        -8.9139
  66   2.0000      -0.281462        -7.6590
  67   0.0000       0.021223         0.5775
  68   0.0000       0.073575         2.0021
  69   0.0000       0.107031         2.9125
  70   0.0000       0.122393         3.3305
  71   0.0000       0.130257         3.5445

MULLIKEN ATOMIC CHARGES
-----------------------
   0 S :    0.126068
   1 C :   -0.120194
   2 C :   -0.059550
   3 C :    0.001981
   4 C :   -0.169486
   5 H :    0.011585
   6 C :    0.044892
   7 H :    0.027450
   8 H :    0.050348
   9 C :   -0.106502
  10 H :    0.037227
  11 H :    0.039293
  12 C :   -0.049898
  13 H :    0.042398
  14 H :    0.026715
  15 H :    0.033019
  16 S :    0.109243
  17 C :   -0.072876
  18 C :   -0.060930
  19 C :   -0.061035
  20 C :   -0.123736
  21 H :    0.031650
  22 C :    0.084711
  23 H :    0.041509
  24 H :    0.039104
  25 C :   -0.108362
  26 H :    0.026841
  27 H :    0.036936
  28 C :   -0.057084
  29 H :    0.030160
  30 H :    0.035848
  31 H :    0.033602
  32 H :    0.040989
  33 H :    0.038086
Sum of atomic charges:   -0.0000000

LOEWDIN ATOMIC CHARGES
----------------------
   0 S :    0.428469
   1 C :   -0.191382
   2 C :   -0.061761
   3 C :   -0.067510
   4 C :   -0.211300
   5 H :    0.033050
   6 C :   -0.031287
   7 H :    0.031351
   8 H :    0.035840
   9 C :   -0.040022
  10 H :    0.022504
  11 H :    0.025184
  12 C :   -0.065100
  13 H :    0.032278
  14 H :    0.020370
  15 H :    0.020675
  16 S :    0.443723
  17 C :   -0.198974
  18 C :   -0.072818
  19 C :   -0.057019
  20 C :   -0.211789
  21 H :    0.033602
  22 C :   -0.037660
  23 H :    0.037245
  24 H :    0.039031
  25 C :   -0.045227
  26 H :    0.016661
  27 H :    0.031452
  28 C :   -0.069961
  29 H :    0.019025
  30 H :    0.028812
  31 H :    0.027902
  32 H :    0.019500
  33 H :    0.015137

  Mayer bond orders larger than 0.100000
B(  0-S ,  1-C ) :   1.1624 B(  0-S ,  4-C ) :   1.1568 B(  1-C ,  2-C ) :   1.5691
B(  1-C ,  4-C ) :   0.1017 B(  1-C , 32-H ) :   0.9779 B(  2-C ,  3-C ) :   1.2702
B(  2-C ,  6-C ) :   1.0089 B(  3-C ,  4-C ) :   1.5357 B(  3-C ,  5-H ) :   0.9776
B(  4-C , 20-C ) :   1.0912 B(  6-C ,  7-H ) :   0.9456 B(  6-C ,  8-H ) :   0.9486
B(  6-C ,  9-C ) :   1.0486 B(  9-C , 10-H ) :   0.9632 B(  9-C , 11-H ) :   0.9613
B(  9-C , 12-C ) :   1.0716 B( 12-C , 13-H ) :   0.9776 B( 12-C , 14-H ) :   0.9783
B( 12-C , 15-H ) :   0.9787 B( 16-S , 17-C ) :   1.1817 B( 16-S , 20-C ) :   1.1765
B( 17-C , 18-C ) :   1.5557 B( 17-C , 20-C ) :   0.1073 B( 17-C , 33-H ) :   0.9810
B( 18-C , 19-C ) :   1.2815 B( 18-C , 21-H ) :   0.9838 B( 19-C , 20-C ) :   1.5138
B( 19-C , 22-C ) :   1.0431 B( 22-C , 23-H ) :   0.9281 B( 22-C , 24-H ) :   0.9262
B( 22-C , 25-C ) :   1.0722 B( 25-C , 26-H ) :   0.9507 B( 25-C , 27-H ) :   0.9483
B( 25-C , 28-C ) :   1.0816 B( 28-C , 29-H ) :   0.9770 B( 28-C , 30-H ) :   0.9746
B( 28-C , 31-H ) :   0.9754

Dispersion correction           -0.013780405
FINAL SINGLE POINT ENERGY     -1339.869226564939

DIPOLE MOMENT
-------------
                                X             Y             Z
Electronic contribution:     30.85361      -1.62923      -5.55094
Nuclear contribution   :    -31.49962       1.77194       5.53826
                        -----------------------------------------
Total Dipole Moment    :     -0.64601       0.14271      -0.01268
                        -----------------------------------------
Magnitude (a.u.)       :      0.66171
Magnitude (Debye)      :      1.68192

Rotational constants in cm-1:     0.017130     0.008506     0.006313
Rotational constants in MHz :   513.529824   254.993290   189.266761

                             ****ORCA TERMINATED NORMALLY****
TOTAL RUN TIME: 0 days 0 hours 0 minutes 20 seconds 145 msec
