                         Program Version 4.2.1 -  RELEASE  -
|  1> ! wB97X-D3 SP def2-SVP
|  2> %pal
|  3> nprocs 24
|  4> end
|  5>
|  6> * xyz 0 1
|  7> S 	 -42.0555 	 -52.5265 	 -73.2105
|  8> C 	 -42.8347 	 -54.1128 	 -73.2566
|  9> C 	 -43.5429 	 -54.3003 	 -72.0912
| 10> C 	 -43.4834 	 -53.1576 	 -71.2045
| 11> C 	 -42.5911 	 -52.2064 	 -71.5903
| 12> H 	 -44.0123 	 -53.1137 	 -70.2774
| 13> C 	 -44.3473 	 -55.5091 	 -71.6607
| 14> H 	 -44.7762 	 -55.2798 	 -70.6938
| 15> H 	 -43.7265 	 -56.3208 	 -71.4862
| 16> C 	 -45.529 	 -55.8135 	 -72.5255
| 17> H 	 -45.1415 	 -55.8144 	 -73.5446
| 18> H 	 -45.818 	 -56.8493 	 -72.3152
| 19> C 	 -46.694 	 -54.8395 	 -72.2407
| 20> H 	 -47.5453 	 -54.9284 	 -72.9579
| 21> H 	 -47.2012 	 -54.9972 	 -71.2825
| 22> H 	 -46.3714 	 -53.8225 	 -72.3934
| 23> S 	 -42.4735 	 -49.5355 	 -72.0174
| 24> C 	 -41.8971 	 -48.4594 	 -70.7473
| 25> C 	 -41.8441 	 -49.1183 	 -69.561
| 26> C 	 -42.085 	 -50.5467 	 -69.7108
| 27> C 	 -42.3634 	 -50.8876 	 -71.0133
| 28> H 	 -41.5939 	 -48.564 	 -68.7247
| 29> C 	 -41.729 	 -51.6061 	 -68.6441
| 30> H 	 -42.2943 	 -52.4273 	 -68.984
| 31> H 	 -42.0959 	 -51.2493 	 -67.6406
| 32> C 	 -40.1743 	 -51.9047 	 -68.564
| 33> H 	 -39.7328 	 -50.9424 	 -68.2768
| 34> H 	 -39.9176 	 -52.1766 	 -69.5974
| 35> C 	 -39.8243 	 -52.9287 	 -67.4143
| 36> H 	 -40.1329 	 -53.8532 	 -67.6672
| 37> H 	 -40.2606 	 -52.7912 	 -66.4814
| 38> H 	 -38.7778 	 -53.1527 	 -67.3074
| 39> H 	 -42.5513 	 -54.9127 	 -73.9265
| 40> H 	 -41.9014 	 -47.4211 	 -70.9455
| 41> *
| 42>
| 43>                          ****END OF INPUT****

CARTESIAN COORDINATES (ANGSTROEM)
---------------------------------
  S    -42.055500  -52.526500  -73.210500
  C    -42.834700  -54.112800  -73.256600
  C    -43.542900  -54.300300  -72.091200
  C    -43.483400  -53.157600  -71.204500
  C    -42.591100  -52.206400  -71.590300
  H    -44.012300  -53.113700  -70.277400
  C    -44.347300  -55.509100  -71.660700
  H    -44.776200  -55.279800  -70.693800
  H    -43.726500  -56.320800  -71.486200
  C    -45.529000  -55.813500  -72.525500
  H    -45.141500  -55.814400  -73.544600
  H    -45.818000  -56.849300  -72.315200
  C    -46.694000  -54.839500  -72.240700
  H    -47.545300  -54.928400  -72.957900
  H    -47.201200  -54.997200  -71.282500
  H    -46.371400  -53.822500  -72.393400
  S    -42.473500  -49.535500  -72.017400
  C    -41.897100  -48.459400  -70.747300
  C    -41.844100  -49.118300  -69.561000
  C    -42.085000  -50.546700  -69.710800
  C    -42.363400  -50.887600  -71.013300
  H    -41.593900  -48.564000  -68.724700
  C    -41.729000  -51.606100  -68.644100
  H    -42.294300  -52.427300  -68.984000
  H    -42.095900  -51.249300  -67.640600
  C    -40.174300  -51.904700  -68.564000
  H    -39.732800  -50.942400  -68.276800
  H    -39.917600  -52.176600  -69.597400
  C    -39.824300  -52.928700  -67.414300
  H    -40.132900  -53.853200  -67.667200
  H    -40.260600  -52.791200  -66.481400
  H    -38.777800  -53.152700  -67.307400
  H    -42.551300  -54.912700  -73.926500
  H    -41.901400  -47.421100  -70.945500

 Total Charge           Charge          ....    0
 Multiplicity           Mult            ....    1
 Number of Electrons    NEL             ....  134
 Basis Dimension        Dim             ....  322

ORBITAL ENERGIES
----------------

  NO   OCC          E(Eh)            E(eV)
   0   2.0000     -88.964819     -2420.8558
   1   2.0000     -88.960308     -2420.7331
   2   2.0000     -10.328861      -281.0626
   3   2.0000     -10.321047      -280.8500
   4   2.0000     -10.315909      -280.7102
   5   2.0000     -10.312145      -280.6077
   6   2.0000     -10.302258      -280.3387
   7   2.0000     -10.301587      -280.3204
   8   2.0000     -10.292933      -280.0849
   9   2.0000     -10.291836      -280.0551
  10   2.0000     -10.291540      -280.0470
  11   2.0000     -10.291199      -280.0378
  12   2.0000     -10.285443      -279.8811
  13   2.0000     -10.281142      -279.7641
  14   2.0000     -10.279771      -279.7268
  15   2.0000     -10.263998      -279.2976
  16   2.0000      -8.079685      -219.8594
  17   2.0000      -8.076613      -219.7758
  18   2.0000      -6.038321      -164.3111
  19   2.0000      -6.035062      -164.2224
  20   2.0000      -6.034117      -164.1967
  21   2.0000      -6.030882      -164.1086
  22   2.0000      -6.030332      -164.0937
  23   2.0000      -6.027339      -164.0122
  24   2.0000      -1.014824       -27.6148
  25   2.0000      -0.988154       -26.8890
  26   2.0000      -0.919833       -25.0299
  27   2.0000      -0.898217       -24.4417
  28   2.0000      -0.873922       -23.7806
  29   2.0000      -0.849662       -23.1205
  30   2.0000      -0.841012       -22.8851
  31   2.0000      -0.820440       -22.3253
  32   2.0000      -0.785282       -21.3686
  33   2.0000      -0.776177       -21.1208
  34   2.0000      -0.709214       -19.2987
  35   2.0000      -0.707846       -19.2615
  36   2.0000      -0.696636       -18.9564
  37   2.0000      -0.667807       -18.1719
  38   2.0000      -0.642896       -17.4941
  39   2.0000      -0.618849       -16.8397
  40   2.0000      -0.590181       -16.0596
  41   2.0000      -0.578991       -15.7551
  42   2.0000      -0.565452       -15.3867
  43   2.0000      -0.558364       -15.1939
  44   2.0000      -0.546967       -14.8837
  45   2.0000      -0.519995       -14.1498
  46   2.0000      -0.515570       -14.0294
  47   2.0000      -0.510538       -13.8924
  48   2.0000      -0.508599       -13.8397
  49   2.0000      -0.497103       -13.5269
  50   2.0000      -0.490839       -13.3564
  51   2.0000      -0.481701       -13.1078
  52   2.0000      -0.472345       -12.8531
  53   2.0000      -0.465576       -12.6690
  54   2.0000      -0.459846       -12.5130
  55   2.0000      -0.451825       -12.2948
  56   2.0000      -0.444200       -12.0873
  57   2.0000      -0.434582       -11.8256
  58   2.0000      -0.430351       -11.7105
  59   2.0000      -0.425131       -11.5684
  60   2.0000      -0.421207       -11.4616
  61   2.0000      -0.415617       -11.3095
  62   2.0000      -0.412173       -11.2158
  63   2.0000      -0.357251        -9.7213
  64   2.0000      -0.330302        -8.9880
  65   2.0000      -0.328832        -8.9480
  66   2.0000      -0.294442        -8.0122
  67   0.0000       0.029644         0.8067
  68   0.0000       0.073975         2.0130
  69   0.0000       0.109387         2.9766
  70   0.0000       0.117850         3.2069
  71   0.0000       0.140904         3.8342

MULLIKEN ATOMIC CHARGES
-----------------------
   0 S :    0.093081
   1 C :   -0.118474
   2 C :   -0.124173
   3 C :    0.041989
   4 C :   -0.144500
   5 H :    0.018343
   6 C :    0.105117
   7 H :   -0.001855
   8 H :    0.019889
   9 C :   -0.049173
  10 H :    0.025583
  11 H :    0.023159
  12 C :   -0.069421
  13 H :    0.030895
  14 H :    0.038275
  15 H :    0.041170
  16 S :    0.097394
  17 C :   -0.092063
  18 C :    0.004420
  19 C :   -0.070256
  20 C :   -0.131670
  21 H :   -0.004808
  22 C :    0.067548
  23 H :   -0.002152
  24 H :    0.027166
  25 C :   -0.062782
  26 H :    0.030405
  27 H :    0.042353
  28 C :    0.029667
  29 H :   -0.010895
  30 H :    0.013876
  31 H :    0.024167
  32 H :    0.058310
  33 H :    0.049415
Sum of atomic charges:   -0.0000000

LOEWDIN ATOMIC CHARGES
----------------------
   0 S :    0.401770
   1 C :   -0.197068
   2 C :   -0.055340
   3 C :   -0.063417
   4 C :   -0.190717
   5 H :    0.027516
   6 C :   -0.028552
   7 H :    0.026640
   8 H :    0.023448
   9 C :   -0.036955
  10 H :    0.022525
  11 H :    0.023870
  12 C :   -0.070095
  13 H :    0.030244
  14 H :    0.028105
  15 H :    0.026676
  16 S :    0.416798
  17 C :   -0.170637
  18 C :   -0.056352
  19 C :   -0.061361
  20 C :   -0.216722
  21 H :    0.021600
  22 C :   -0.028997
  23 H :    0.015832
  24 H :    0.030335
  25 C :   -0.025525
  26 H :    0.023236
  27 H :    0.030069
  28 C :   -0.060201
  29 H :    0.012714
  30 H :    0.019606
  31 H :    0.029559
  32 H :    0.031393
  33 H :    0.020003

  Mayer bond orders larger than 0.100000
B(  0-S ,  1-C ) :   1.1222 B(  0-S ,  4-C ) :   1.1529 B(  1-C ,  2-C ) :   1.6248
B(  1-C , 32-H ) :   0.9660 B(  2-C ,  3-C ) :   1.2416 B(  2-C ,  6-C ) :   1.0154
B(  3-C ,  4-C ) :   1.5795 B(  3-C ,  5-H ) :   0.9831 B(  4-C , 20-C ) :   1.0129
B(  6-C ,  7-H ) :   0.9371 B(  6-C ,  8-H ) :   0.9325 B(  6-C ,  9-C ) :   1.0732
B(  9-C , 10-H ) :   0.9601 B(  9-C , 11-H ) :   0.9534 B(  9-C , 12-C ) :   1.0720
B( 12-C , 13-H ) :   0.9736 B( 12-C , 14-H ) :   0.9729 B( 12-C , 15-H ) :   0.9778
B( 16-S , 17-C ) :   1.1396 B( 16-S , 20-C ) :   1.1625 B( 17-C , 18-C ) :   1.6214
B( 17-C , 33-H ) :   0.9750 B( 18-C , 19-C ) :   1.2095 B( 18-C , 21-H ) :   1.0086
B( 19-C , 20-C ) :   1.6058 B( 19-C , 22-C ) :   1.0517 B( 22-C , 23-H ) :   0.9262
B( 22-C , 24-H ) :   0.9361 B( 22-C , 25-C ) :   1.0546 B( 25-C , 26-H ) :   0.9617
B( 25-C , 27-H ) :   0.9597 B( 25-C , 28-C ) :   1.0663 B( 28-C , 29-H ) :   0.9672
B( 28-C , 30-H ) :   0.9742 B( 28-C , 31-H ) :   0.9719

Dispersion correction           -0.014254397
FINAL SINGLE POINT ENERGY     -1339.863995087952

DIPOLE MOMENT
-------------
                                X             Y             Z
Electronic contribution:      5.41082      17.55132     -15.24180
Nuclear contribution   :     -5.55254     -17.95220      15.74918
                        -----------------------------------------
Total Dipole Moment    :     -0.14171      -0.40089       0.50738
                        -----------------------------------------
Magnitude (a.u.)       :      0.66199
Magnitude (Debye)      :      1.68264

Rotational constants in cm-1:     0.018537     0.008585     0.007068
Rotational constants in MHz :   555.729355   257.363537   211.893178

                             ****ORCA TERMINATED NORMALLY****
TOTAL RUN TIME: 0 days 0 hours 0 minutes 21 seconds 579 msec
