                         Program Version 4.2.1 -  RELEASE  -
|  1> ! wB97X-D3 SP def2-SVP
|  2> %pal
|  3> nprocs 24
|  4> end
|  5>
|  6> * xyz 0 1
|  7> S 	 -62.8937 	 4.14511 	 -17.0077
|  8> C 	 -61.5952 	 4.64419 	 -15.9558
|  9> C 	 -60.382 	 4.11641 	 -16.2428
| 10> C 	 -60.4722 	 3.22673 	 -17.3857
| 11> C 	 -61.7575 	 3.13565 	 -17.9443
| 12> H 	 -59.6329 	 2.72167 	 -17.8472
| 13> C 	 -59.1293 	 4.20694 	 -15.4221
| 14> H 	 -58.4125 	 3.62061 	 -15.9336
| 15> H 	 -59.2756 	 3.80927 	 -14.4452
| 16> C 	 -58.4498 	 5.59785 	 -15.4089
| 17> H 	 -59.327 	 6.14171 	 -15.0598
| 18> H 	 -57.6887 	 5.47551 	 -14.6134
| 19> C 	 -58.0281 	 6.01572 	 -16.8169
| 20> H 	 -57.0706 	 5.50682 	 -17.0422
| 21> H 	 -58.7643 	 5.71238 	 -17.6673
| 22> H 	 -57.8147 	 7.05203 	 -16.884
| 23> S 	 -62.7421 	 3.48223 	 -20.5499
| 24> C 	 -63.0006 	 2.01963 	 -21.513
| 25> C 	 -62.6271 	 0.891176 	 -20.8138
| 26> C 	 -62.2754 	 1.17189 	 -19.4589
| 27> C 	 -62.0767 	 2.52471 	 -19.2114
| 28> H 	 -62.6401 	 -0.0632859 	 -21.1597
| 29> C 	 -61.9526 	 0.0395146 	 -18.4577
| 30> H 	 -62.4906 	 -0.872404 	 -18.649
| 31> H 	 -62.2103 	 0.356422 	 -17.4479
| 32> C 	 -60.5146 	 -0.294354 	 -18.4089
| 33> H 	 -59.8806 	 0.572989 	 -18.3829
| 34> H 	 -60.2424 	 -0.687241 	 -19.3737
| 35> C 	 -60.1072 	 -1.3428 	 -17.2907
| 36> H 	 -60.8689 	 -1.96883 	 -16.9377
| 37> H 	 -59.6562 	 -0.89932 	 -16.4673
| 38> H 	 -59.3486 	 -1.99813 	 -17.7117
| 39> H 	 -61.6962 	 5.33223 	 -15.0646
| 40> H 	 -63.2806 	 1.98429 	 -22.5606
| 41> *
| 42>
| 43>                          ****END OF INPUT****

CARTESIAN COORDINATES (ANGSTROEM)
---------------------------------
  S    -62.893700    4.145110  -17.007700
  C    -61.595200    4.644190  -15.955800
  C    -60.382000    4.116410  -16.242800
  C    -60.472200    3.226730  -17.385700
  C    -61.757500    3.135650  -17.944300
  H    -59.632900    2.721670  -17.847200
  C    -59.129300    4.206940  -15.422100
  H    -58.412500    3.620610  -15.933600
  H    -59.275600    3.809270  -14.445200
  C    -58.449800    5.597850  -15.408900
  H    -59.327000    6.141710  -15.059800
  H    -57.688700    5.475510  -14.613400
  C    -58.028100    6.015720  -16.816900
  H    -57.070600    5.506820  -17.042200
  H    -58.764300    5.712380  -17.667300
  H    -57.814700    7.052030  -16.884000
  S    -62.742100    3.482230  -20.549900
  C    -63.000600    2.019630  -21.513000
  C    -62.627100    0.891176  -20.813800
  C    -62.275400    1.171890  -19.458900
  C    -62.076700    2.524710  -19.211400
  H    -62.640100   -0.063286  -21.159700
  C    -61.952600    0.039515  -18.457700
  H    -62.490600   -0.872404  -18.649000
  H    -62.210300    0.356422  -17.447900
  C    -60.514600   -0.294354  -18.408900
  H    -59.880600    0.572989  -18.382900
  H    -60.242400   -0.687241  -19.373700
  C    -60.107200   -1.342800  -17.290700
  H    -60.868900   -1.968830  -16.937700
  H    -59.656200   -0.899320  -16.467300
  H    -59.348600   -1.998130  -17.711700
  H    -61.696200    5.332230  -15.064600
  H    -63.280600    1.984290  -22.560600

 Total Charge           Charge          ....    0
 Multiplicity           Mult            ....    1
 Number of Electrons    NEL             ....  134
 Basis Dimension        Dim             ....  322

ORBITAL ENERGIES
----------------

  NO   OCC          E(Eh)            E(eV)
   0   2.0000     -88.968745     -2420.9626
   1   2.0000     -88.966525     -2420.9022
   2   2.0000     -10.330909      -281.1183
   3   2.0000     -10.324842      -280.9532
   4   2.0000     -10.320894      -280.8458
   5   2.0000     -10.315944      -280.7111
   6   2.0000     -10.302708      -280.3509
   7   2.0000     -10.298210      -280.2285
   8   2.0000     -10.296558      -280.1836
   9   2.0000     -10.289183      -279.9829
  10   2.0000     -10.287605      -279.9400
  11   2.0000     -10.285482      -279.8822
  12   2.0000     -10.283919      -279.8397
  13   2.0000     -10.282914      -279.8123
  14   2.0000     -10.278821      -279.7010
  15   2.0000     -10.269037      -279.4347
  16   2.0000      -8.082846      -219.9454
  17   2.0000      -8.080473      -219.8808
  18   2.0000      -6.041396      -164.3947
  19   2.0000      -6.039109      -164.3325
  20   2.0000      -6.037489      -164.2884
  21   2.0000      -6.035119      -164.2239
  22   2.0000      -6.033533      -164.1808
  23   2.0000      -6.031104      -164.1147
  24   2.0000      -1.002169       -27.2704
  25   2.0000      -0.981075       -26.6964
  26   2.0000      -0.916366       -24.9356
  27   2.0000      -0.910370       -24.7724
  28   2.0000      -0.869264       -23.6539
  29   2.0000      -0.846004       -23.0209
  30   2.0000      -0.843607       -22.9557
  31   2.0000      -0.811724       -22.0881
  32   2.0000      -0.786283       -21.3958
  33   2.0000      -0.775480       -21.1019
  34   2.0000      -0.708826       -19.2881
  35   2.0000      -0.701520       -19.0893
  36   2.0000      -0.695314       -18.9205
  37   2.0000      -0.667808       -18.1720
  38   2.0000      -0.635502       -17.2929
  39   2.0000      -0.610208       -16.6046
  40   2.0000      -0.599343       -16.3089
  41   2.0000      -0.580021       -15.7832
  42   2.0000      -0.565547       -15.3893
  43   2.0000      -0.555859       -15.1257
  44   2.0000      -0.539979       -14.6936
  45   2.0000      -0.519106       -14.1256
  46   2.0000      -0.514754       -14.0072
  47   2.0000      -0.506072       -13.7709
  48   2.0000      -0.504006       -13.7147
  49   2.0000      -0.493037       -13.4162
  50   2.0000      -0.490956       -13.3596
  51   2.0000      -0.479274       -13.0417
  52   2.0000      -0.475446       -12.9376
  53   2.0000      -0.468486       -12.7482
  54   2.0000      -0.461563       -12.5598
  55   2.0000      -0.449064       -12.2197
  56   2.0000      -0.446722       -12.1559
  57   2.0000      -0.443021       -12.0552
  58   2.0000      -0.437186       -11.8964
  59   2.0000      -0.424049       -11.5390
  60   2.0000      -0.418496       -11.3879
  61   2.0000      -0.410577       -11.1724
  62   2.0000      -0.404632       -11.0106
  63   2.0000      -0.340251        -9.2587
  64   2.0000      -0.331515        -9.0210
  65   2.0000      -0.327752        -8.9186
  66   2.0000      -0.299420        -8.1476
  67   0.0000       0.032810         0.8928
  68   0.0000       0.057250         1.5579
  69   0.0000       0.112418         3.0590
  70   0.0000       0.120628         3.2824
  71   0.0000       0.128488         3.4963

MULLIKEN ATOMIC CHARGES
-----------------------
   0 S :    0.125493
   1 C :   -0.143085
   2 C :   -0.109181
   3 C :    0.025650
   4 C :   -0.163072
   5 H :    0.022785
   6 C :    0.087744
   7 H :   -0.008583
   8 H :    0.036251
   9 C :   -0.063137
  10 H :    0.017030
  11 H :    0.043011
  12 C :   -0.071416
  13 H :    0.029439
  14 H :    0.066819
  15 H :    0.034857
  16 S :    0.105589
  17 C :   -0.086784
  18 C :    0.032133
  19 C :   -0.067934
  20 C :   -0.168998
  21 H :   -0.023239
  22 C :    0.104906
  23 H :    0.015689
  24 H :    0.025451
  25 C :   -0.062129
  26 H :    0.001464
  27 H :    0.002592
  28 C :   -0.000654
  29 H :    0.017989
  30 H :    0.021819
  31 H :    0.023843
  32 H :    0.065373
  33 H :    0.062288
Sum of atomic charges:    0.0000000

LOEWDIN ATOMIC CHARGES
----------------------
   0 S :    0.396374
   1 C :   -0.201877
   2 C :   -0.074843
   3 C :   -0.050058
   4 C :   -0.189095
   5 H :    0.028054
   6 C :   -0.026293
   7 H :    0.018765
   8 H :    0.028556
   9 C :   -0.039945
  10 H :    0.018684
  11 H :    0.030299
  12 C :   -0.072270
  13 H :    0.028130
  14 H :    0.045478
  15 H :    0.021263
  16 S :    0.389531
  17 C :   -0.173403
  18 C :   -0.058651
  19 C :   -0.039972
  20 C :   -0.203019
  21 H :    0.013983
  22 C :   -0.028306
  23 H :    0.026940
  24 H :    0.030360
  25 C :   -0.036259
  26 H :    0.017376
  27 H :    0.016816
  28 C :   -0.055444
  29 H :    0.018436
  30 H :    0.018585
  31 H :    0.029832
  32 H :    0.039470
  33 H :    0.032504

  Mayer bond orders larger than 0.100000
B(  0-S ,  1-C ) :   1.1358 B(  0-S ,  4-C ) :   1.1278 B(  1-C ,  2-C ) :   1.6458
B(  1-C , 32-H ) :   0.9484 B(  2-C ,  3-C ) :   1.2326 B(  2-C ,  6-C ) :   1.0162
B(  3-C ,  4-C ) :   1.5944 B(  3-C ,  5-H ) :   0.9794 B(  4-C , 20-C ) :   1.0583
B(  6-C ,  7-H ) :   0.9336 B(  6-C ,  8-H ) :   0.9448 B(  6-C ,  9-C ) :   1.0530
B(  9-C , 10-H ) :   0.9625 B(  9-C , 11-H ) :   0.9588 B(  9-C , 12-C ) :   1.0648
B( 12-C , 13-H ) :   0.9715 B( 12-C , 14-H ) :   0.9715 B( 12-C , 15-H ) :   0.9748
B( 16-S , 17-C ) :   1.1513 B( 16-S , 20-C ) :   1.1219 B( 17-C , 18-C ) :   1.6015
B( 17-C , 33-H ) :   0.9651 B( 18-C , 19-C ) :   1.2491 B( 18-C , 21-H ) :   1.0009
B( 19-C , 20-C ) :   1.5984 B( 19-C , 22-C ) :   1.0503 B( 22-C , 23-H ) :   0.9318
B( 22-C , 24-H ) :   0.9240 B( 22-C , 25-C ) :   1.0782 B( 25-C , 26-H ) :   0.9515
B( 25-C , 27-H ) :   0.9542 B( 25-C , 28-C ) :   1.0622 B( 28-C , 29-H ) :   0.9778
B( 28-C , 30-H ) :   0.9774 B( 28-C , 31-H ) :   0.9766

Dispersion correction           -0.014749560
FINAL SINGLE POINT ENERGY     -1339.863265694417

DIPOLE MOMENT
-------------
                                X             Y             Z
Electronic contribution:    -21.52233       8.88699     -11.21345
Nuclear contribution   :     22.02777      -9.29459      11.41286
                        -----------------------------------------
Total Dipole Moment    :      0.50544      -0.40761       0.19941
                        -----------------------------------------
Magnitude (a.u.)       :      0.67925
Magnitude (Debye)      :      1.72651

Rotational constants in cm-1:     0.017885     0.008983     0.007222
Rotational constants in MHz :   536.165848   269.312401   216.522986

                             ****ORCA TERMINATED NORMALLY****
TOTAL RUN TIME: 0 days 0 hours 0 minutes 22 seconds 47 msec
