                         Program Version 4.2.1 -  RELEASE  -
|  1> ! wB97X-D3 SP def2-SVP
|  2> %pal
|  3> nprocs 24
|  4> end
|  5>
|  6> * xyz 0 1
|  7> S 	 -115.344 	 37.8015 	 -121.7
|  8> C 	 -114.59 	 36.2384 	 -121.686
|  9> C 	 -115.207 	 35.3341 	 -122.512
| 10> C 	 -116.373 	 35.88 	 -123.096
| 11> C 	 -116.47 	 37.27 	 -122.879
| 12> H 	 -117.017 	 35.3369 	 -123.813
| 13> C 	 -114.906 	 33.8327 	 -122.569
| 14> H 	 -113.818 	 33.7901 	 -122.614
| 15> H 	 -115.135 	 33.3469 	 -123.434
| 16> C 	 -115.57 	 33.062 	 -121.434
| 17> H 	 -115.01 	 32.2074 	 -121.355
| 18> H 	 -115.351 	 33.6714 	 -120.613
| 19> C 	 -117.021 	 32.7202 	 -121.496
| 20> H 	 -117.16 	 32.0044 	 -122.254
| 21> H 	 -117.341 	 32.2014 	 -120.555
| 22> H 	 -117.631 	 33.5881 	 -121.654
| 23> S 	 -117.734 	 37.8124 	 -125.288
| 24> C 	 -118.814 	 39.2318 	 -125.319
| 25> C 	 -118.89 	 39.8056 	 -124.03
| 26> C 	 -118.266 	 39.1631 	 -122.996
| 27> C 	 -117.5 	 38.0929 	 -123.531
| 28> H 	 -119.31 	 40.7609 	 -123.829
| 29> C 	 -118.127 	 39.8125 	 -121.623
| 30> H 	 -118.567 	 40.7613 	 -121.66
| 31> H 	 -117.13 	 40.1764 	 -121.452
| 32> C 	 -118.663 	 39.0387 	 -120.45
| 33> H 	 -118.259 	 39.4298 	 -119.506
| 34> H 	 -118.324 	 37.9759 	 -120.48
| 35> C 	 -120.198 	 39.0521 	 -120.276
| 36> H 	 -120.52 	 39.8875 	 -119.661
| 37> H 	 -120.463 	 38.2627 	 -119.513
| 38> H 	 -120.651 	 38.9449 	 -121.308
| 39> H 	 -113.776 	 35.9929 	 -120.971
| 40> H 	 -119.198 	 39.6819 	 -126.311
| 41> *
| 42>
| 43>                          ****END OF INPUT****

CARTESIAN COORDINATES (ANGSTROEM)
---------------------------------
  S    -115.344000   37.801500  -121.700000
  C    -114.590000   36.238400  -121.686000
  C    -115.207000   35.334100  -122.512000
  C    -116.373000   35.880000  -123.096000
  C    -116.470000   37.270000  -122.879000
  H    -117.017000   35.336900  -123.813000
  C    -114.906000   33.832700  -122.569000
  H    -113.818000   33.790100  -122.614000
  H    -115.135000   33.346900  -123.434000
  C    -115.570000   33.062000  -121.434000
  H    -115.010000   32.207400  -121.355000
  H    -115.351000   33.671400  -120.613000
  C    -117.021000   32.720200  -121.496000
  H    -117.160000   32.004400  -122.254000
  H    -117.341000   32.201400  -120.555000
  H    -117.631000   33.588100  -121.654000
  S    -117.734000   37.812400  -125.288000
  C    -118.814000   39.231800  -125.319000
  C    -118.890000   39.805600  -124.030000
  C    -118.266000   39.163100  -122.996000
  C    -117.500000   38.092900  -123.531000
  H    -119.310000   40.760900  -123.829000
  C    -118.127000   39.812500  -121.623000
  H    -118.567000   40.761300  -121.660000
  H    -117.130000   40.176400  -121.452000
  C    -118.663000   39.038700  -120.450000
  H    -118.259000   39.429800  -119.506000
  H    -118.324000   37.975900  -120.480000
  C    -120.198000   39.052100  -120.276000
  H    -120.520000   39.887500  -119.661000
  H    -120.463000   38.262700  -119.513000
  H    -120.651000   38.944900  -121.308000
  H    -113.776000   35.992900  -120.971000
  H    -119.198000   39.681900  -126.311000

 Total Charge           Charge          ....    0
 Multiplicity           Mult            ....    1
 Number of Electrons    NEL             ....  134
 Basis Dimension        Dim             ....  322

ORBITAL ENERGIES
----------------

  NO   OCC          E(Eh)            E(eV)
   0   2.0000     -88.973243     -2421.0850
   1   2.0000     -88.970966     -2421.0231
   2   2.0000     -10.333424      -281.1868
   3   2.0000     -10.327804      -281.0338
   4   2.0000     -10.327025      -281.0126
   5   2.0000     -10.312181      -280.6087
   6   2.0000     -10.300425      -280.2888
   7   2.0000     -10.296592      -280.1845
   8   2.0000     -10.291788      -280.0538
   9   2.0000     -10.290782      -280.0264
  10   2.0000     -10.287575      -279.9391
  11   2.0000     -10.283415      -279.8259
  12   2.0000     -10.281522      -279.7744
  13   2.0000     -10.281028      -279.7610
  14   2.0000     -10.271444      -279.5002
  15   2.0000     -10.267439      -279.3912
  16   2.0000      -8.086219      -220.0372
  17   2.0000      -8.085849      -220.0271
  18   2.0000      -6.044609      -164.4822
  19   2.0000      -6.044210      -164.4713
  20   2.0000      -6.041003      -164.3840
  21   2.0000      -6.040388      -164.3673
  22   2.0000      -6.037174      -164.2798
  23   2.0000      -6.036724      -164.2676
  24   2.0000      -1.006421       -27.3861
  25   2.0000      -0.982376       -26.7318
  26   2.0000      -0.918285       -24.9878
  27   2.0000      -0.910168       -24.7669
  28   2.0000      -0.864777       -23.5318
  29   2.0000      -0.855616       -23.2825
  30   2.0000      -0.845830       -23.0162
  31   2.0000      -0.805908       -21.9299
  32   2.0000      -0.790480       -21.5100
  33   2.0000      -0.773916       -21.0593
  34   2.0000      -0.704643       -19.1743
  35   2.0000      -0.702176       -19.1072
  36   2.0000      -0.682921       -18.5832
  37   2.0000      -0.664726       -18.0881
  38   2.0000      -0.636909       -17.3312
  39   2.0000      -0.613619       -16.6974
  40   2.0000      -0.602409       -16.3924
  41   2.0000      -0.575137       -15.6503
  42   2.0000      -0.561447       -15.2777
  43   2.0000      -0.551145       -14.9974
  44   2.0000      -0.537348       -14.6220
  45   2.0000      -0.535523       -14.5723
  46   2.0000      -0.511936       -13.9305
  47   2.0000      -0.506825       -13.7914
  48   2.0000      -0.495399       -13.4805
  49   2.0000      -0.493988       -13.4421
  50   2.0000      -0.485713       -13.2169
  51   2.0000      -0.484126       -13.1737
  52   2.0000      -0.470687       -12.8081
  53   2.0000      -0.467204       -12.7133
  54   2.0000      -0.460922       -12.5423
  55   2.0000      -0.453606       -12.3432
  56   2.0000      -0.448234       -12.1971
  57   2.0000      -0.439045       -11.9470
  58   2.0000      -0.431100       -11.7308
  59   2.0000      -0.424368       -11.5476
  60   2.0000      -0.412426       -11.2227
  61   2.0000      -0.410967       -11.1830
  62   2.0000      -0.408212       -11.1080
  63   2.0000      -0.342190        -9.3115
  64   2.0000      -0.339899        -9.2491
  65   2.0000      -0.334439        -9.1005
  66   2.0000      -0.280748        -7.6395
  67   0.0000       0.018416         0.5011
  68   0.0000       0.071212         1.9378
  69   0.0000       0.099803         2.7158
  70   0.0000       0.119467         3.2509
  71   0.0000       0.126826         3.4511

MULLIKEN ATOMIC CHARGES
-----------------------
   0 S :    0.123610
   1 C :   -0.145672
   2 C :   -0.089915
   3 C :   -0.014131
   4 C :   -0.141888
   5 H :    0.029368
   6 C :    0.089868
   7 H :    0.018944
   8 H :   -0.015631
   9 C :   -0.003947
  10 H :    0.003310
  11 H :   -0.000201
  12 C :   -0.019300
  13 H :    0.013980
  14 H :    0.038080
  15 H :    0.037147
  16 S :    0.115111
  17 C :   -0.132275
  18 C :   -0.023376
  19 C :   -0.025270
  20 C :   -0.157064
  21 H :    0.004181
  22 C :    0.093213
  23 H :   -0.011677
  24 H :    0.029017
  25 C :   -0.080108
  26 H :    0.018969
  27 H :    0.044514
  28 C :   -0.071482
  29 H :    0.025932
  30 H :    0.033487
  31 H :    0.060206
  32 H :    0.060903
  33 H :    0.092097
Sum of atomic charges:   -0.0000000

LOEWDIN ATOMIC CHARGES
----------------------
   0 S :    0.438989
   1 C :   -0.212599
   2 C :   -0.062202
   3 C :   -0.076036
   4 C :   -0.208431
   5 H :    0.031626
   6 C :   -0.021974
   7 H :    0.034258
   8 H :    0.012225
   9 C :   -0.029840
  10 H :    0.014910
  11 H :    0.015646
  12 C :   -0.055269
  13 H :    0.017389
  14 H :    0.036863
  15 H :    0.024641
  16 S :    0.396572
  17 C :   -0.203903
  18 C :   -0.065185
  19 C :   -0.063843
  20 C :   -0.169150
  21 H :    0.024797
  22 C :   -0.034938
  23 H :    0.025081
  24 H :    0.031393
  25 C :   -0.048181
  26 H :    0.024543
  27 H :    0.027025
  28 C :   -0.077726
  29 H :    0.022123
  30 H :    0.034195
  31 H :    0.035796
  32 H :    0.033330
  33 H :    0.047875

  Mayer bond orders larger than 0.100000
B(  0-S ,  1-C ) :   1.1440 B(  0-S ,  4-C ) :   1.1747 B(  1-C ,  2-C ) :   1.5922
B(  1-C , 32-H ) :   0.9604 B(  2-C ,  3-C ) :   1.2804 B(  2-C ,  6-C ) :   1.0362
B(  3-C ,  4-C ) :   1.5131 B(  3-C ,  5-H ) :   0.9835 B(  4-C , 20-C ) :   1.0570
B(  6-C ,  7-H ) :   0.9338 B(  6-C ,  8-H ) :   0.9343 B(  6-C ,  9-C ) :   1.0612
B(  9-C , 10-H ) :   0.9475 B(  9-C , 11-H ) :   0.9513 B(  9-C , 12-C ) :   1.0945
B( 12-C , 13-H ) :   0.9721 B( 12-C , 14-H ) :   0.9684 B( 12-C , 15-H ) :   0.9713
B( 16-S , 17-C ) :   1.1451 B( 16-S , 20-C ) :   1.1736 B( 17-C , 18-C ) :   1.5556
B( 17-C , 20-C ) :   0.1209 B( 17-C , 33-H ) :   0.9585 B( 18-C , 19-C ) :   1.3003
B( 18-C , 21-H ) :   0.9820 B( 19-C , 20-C ) :   1.5118 B( 19-C , 22-C ) :   1.0299
B( 22-C , 23-H ) :   0.9241 B( 22-C , 24-H ) :   0.9334 B( 22-C , 25-C ) :   1.0603
B( 25-C , 26-H ) :   0.9507 B( 25-C , 27-H ) :   0.9633 B( 25-C , 28-C ) :   1.0779
B( 28-C , 29-H ) :   0.9742 B( 28-C , 30-H ) :   0.9721 B( 28-C , 31-H ) :   0.9758

Dispersion correction           -0.014812592
FINAL SINGLE POINT ENERGY     -1339.850324323792

DIPOLE MOMENT
-------------
                                X             Y             Z
Electronic contribution:      7.52596      10.83062     -15.38913
Nuclear contribution   :     -7.45737     -10.90050      15.65140
                        -----------------------------------------
Total Dipole Moment    :      0.06859      -0.06988       0.26227
                        -----------------------------------------
Magnitude (a.u.)       :      0.27995
Magnitude (Debye)      :      0.71158

Rotational constants in cm-1:     0.018896     0.008770     0.007636
Rotational constants in MHz :   566.485423   262.929826   228.912656

                             ****ORCA TERMINATED NORMALLY****
TOTAL RUN TIME: 0 days 0 hours 0 minutes 21 seconds 790 msec
