                         Program Version 4.2.1 -  RELEASE  -
|  1> ! wB97X-D3 SP def2-SVP
|  2> %pal
|  3> nprocs 24
|  4> end
|  5>
|  6> * xyz 0 1
|  7> S 	 -47.5406 	 25.8152 	 26.6406
|  8> C 	 -48.4406 	 26.0277 	 28.0886
|  9> C 	 -48.7521 	 24.8329 	 28.6851
| 10> C 	 -48.0463 	 23.7767 	 28.0154
| 11> C 	 -47.3003 	 24.1497 	 26.8935
| 12> H 	 -47.8746 	 22.7897 	 28.3864
| 13> C 	 -49.6759 	 24.6159 	 29.8516
| 14> H 	 -50.1364 	 23.5782 	 29.7985
| 15> H 	 -50.4982 	 25.3719 	 29.7148
| 16> C 	 -49.0056 	 24.675 	 31.2238
| 17> H 	 -48.1833 	 23.993 	 31.1649
| 18> H 	 -48.4952 	 25.5805 	 31.4446
| 19> C 	 -49.9827 	 24.1964 	 32.3187
| 20> H 	 -50.1359 	 23.1326 	 32.1009
| 21> H 	 -49.5807 	 24.2726 	 33.3315
| 22> H 	 -50.8514 	 24.7985 	 32.1876
| 23> S 	 -45.019 	 23.8932 	 25.4255
| 24> C 	 -44.712 	 22.3798 	 24.6139
| 25> C 	 -45.7315 	 21.4697 	 24.7363
| 26> C 	 -46.7593 	 21.9003 	 25.6392
| 27> C 	 -46.4749 	 23.2248 	 26.1186
| 28> H 	 -45.5734 	 20.5354 	 24.2118
| 29> C 	 -47.9634 	 21.1007 	 25.9988
| 30> H 	 -48.3407 	 20.6832 	 25.1124
| 31> H 	 -48.6712 	 21.921 	 26.3309
| 32> C 	 -47.7931 	 20.1029 	 27.0985
| 33> H 	 -47.3532 	 20.5408 	 27.9872
| 34> H 	 -47.1991 	 19.24 	 26.7841
| 35> C 	 -49.1026 	 19.4751 	 27.6229
| 36> H 	 -49.0164 	 18.7574 	 28.4471
| 37> H 	 -49.6476 	 18.8991 	 26.8614
| 38> H 	 -49.718 	 20.2593 	 28.0683
| 39> H 	 -48.8542 	 26.9818 	 28.4012
| 40> H 	 -43.8862 	 22.1529 	 23.9825
| 41> *
| 42>
| 43>                          ****END OF INPUT****

CARTESIAN COORDINATES (ANGSTROEM)
---------------------------------
  S    -47.540600   25.815200   26.640600
  C    -48.440600   26.027700   28.088600
  C    -48.752100   24.832900   28.685100
  C    -48.046300   23.776700   28.015400
  C    -47.300300   24.149700   26.893500
  H    -47.874600   22.789700   28.386400
  C    -49.675900   24.615900   29.851600
  H    -50.136400   23.578200   29.798500
  H    -50.498200   25.371900   29.714800
  C    -49.005600   24.675000   31.223800
  H    -48.183300   23.993000   31.164900
  H    -48.495200   25.580500   31.444600
  C    -49.982700   24.196400   32.318700
  H    -50.135900   23.132600   32.100900
  H    -49.580700   24.272600   33.331500
  H    -50.851400   24.798500   32.187600
  S    -45.019000   23.893200   25.425500
  C    -44.712000   22.379800   24.613900
  C    -45.731500   21.469700   24.736300
  C    -46.759300   21.900300   25.639200
  C    -46.474900   23.224800   26.118600
  H    -45.573400   20.535400   24.211800
  C    -47.963400   21.100700   25.998800
  H    -48.340700   20.683200   25.112400
  H    -48.671200   21.921000   26.330900
  C    -47.793100   20.102900   27.098500
  H    -47.353200   20.540800   27.987200
  H    -47.199100   19.240000   26.784100
  C    -49.102600   19.475100   27.622900
  H    -49.016400   18.757400   28.447100
  H    -49.647600   18.899100   26.861400
  H    -49.718000   20.259300   28.068300
  H    -48.854200   26.981800   28.401200
  H    -43.886200   22.152900   23.982500

 Total Charge           Charge          ....    0
 Multiplicity           Mult            ....    1
 Number of Electrons    NEL             ....  134
 Basis Dimension        Dim             ....  322

ORBITAL ENERGIES
----------------

  NO   OCC          E(Eh)            E(eV)
   0   2.0000     -88.968571     -2420.9579
   1   2.0000     -88.966837     -2420.9107
   2   2.0000     -10.331721      -281.1404
   3   2.0000     -10.326566      -281.0002
   4   2.0000     -10.312812      -280.6259
   5   2.0000     -10.310835      -280.5721
   6   2.0000     -10.309459      -280.5346
   7   2.0000     -10.300876      -280.3011
   8   2.0000     -10.300267      -280.2845
   9   2.0000     -10.293632      -280.1040
  10   2.0000     -10.289292      -279.9859
  11   2.0000     -10.287126      -279.9269
  12   2.0000     -10.286585      -279.9122
  13   2.0000     -10.280355      -279.7427
  14   2.0000     -10.279112      -279.7089
  15   2.0000     -10.278649      -279.6962
  16   2.0000      -8.083382      -219.9600
  17   2.0000      -8.082800      -219.9442
  18   2.0000      -6.041761      -164.4047
  19   2.0000      -6.041264      -164.3911
  20   2.0000      -6.037916      -164.3000
  21   2.0000      -6.037029      -164.2759
  22   2.0000      -6.034243      -164.2001
  23   2.0000      -6.033636      -164.1836
  24   2.0000      -1.011967       -27.5370
  25   2.0000      -0.987566       -26.8730
  26   2.0000      -0.916671       -24.9439
  27   2.0000      -0.915094       -24.9010
  28   2.0000      -0.873052       -23.7570
  29   2.0000      -0.854016       -23.2390
  30   2.0000      -0.848815       -23.0974
  31   2.0000      -0.816294       -22.2125
  32   2.0000      -0.782147       -21.2833
  33   2.0000      -0.771114       -20.9831
  34   2.0000      -0.707916       -19.2634
  35   2.0000      -0.703627       -19.1467
  36   2.0000      -0.695116       -18.9151
  37   2.0000      -0.663195       -18.0465
  38   2.0000      -0.640522       -17.4295
  39   2.0000      -0.619619       -16.8607
  40   2.0000      -0.592764       -16.1299
  41   2.0000      -0.576880       -15.6977
  42   2.0000      -0.576050       -15.6751
  43   2.0000      -0.561906       -15.2902
  44   2.0000      -0.531569       -14.4647
  45   2.0000      -0.525370       -14.2960
  46   2.0000      -0.513549       -13.9744
  47   2.0000      -0.512943       -13.9579
  48   2.0000      -0.506622       -13.7859
  49   2.0000      -0.500785       -13.6270
  50   2.0000      -0.500163       -13.6101
  51   2.0000      -0.478645       -13.0246
  52   2.0000      -0.469985       -12.7890
  53   2.0000      -0.462195       -12.5770
  54   2.0000      -0.460624       -12.5342
  55   2.0000      -0.451260       -12.2794
  56   2.0000      -0.443813       -12.0768
  57   2.0000      -0.442152       -12.0316
  58   2.0000      -0.437102       -11.8942
  59   2.0000      -0.426861       -11.6155
  60   2.0000      -0.421684       -11.4746
  61   2.0000      -0.418411       -11.3855
  62   2.0000      -0.414093       -11.2680
  63   2.0000      -0.353777        -9.6268
  64   2.0000      -0.333579        -9.0771
  65   2.0000      -0.328743        -8.9455
  66   2.0000      -0.286302        -7.7907
  67   0.0000       0.026411         0.7187
  68   0.0000       0.080185         2.1820
  69   0.0000       0.105991         2.8842
  70   0.0000       0.119888         3.2623
  71   0.0000       0.128950         3.5089

MULLIKEN ATOMIC CHARGES
-----------------------
   0 S :    0.123413
   1 C :   -0.129451
   2 C :   -0.061287
   3 C :   -0.001222
   4 C :   -0.127786
   5 H :   -0.009000
   6 C :    0.020211
   7 H :    0.032194
   8 H :    0.037190
   9 C :   -0.049706
  10 H :    0.011665
  11 H :    0.017212
  12 C :   -0.027766
  13 H :    0.032157
  14 H :    0.040468
  15 H :    0.031387
  16 S :    0.113256
  17 C :   -0.078867
  18 C :   -0.039311
  19 C :   -0.036711
  20 C :   -0.164956
  21 H :    0.019178
  22 C :    0.086378
  23 H :    0.012044
  24 H :    0.035069
  25 C :   -0.052671
  26 H :    0.031104
  27 H :    0.027845
  28 C :   -0.064008
  29 H :    0.029779
  30 H :    0.031730
  31 H :    0.024708
  32 H :    0.044528
  33 H :    0.041227
Sum of atomic charges:   -0.0000000

LOEWDIN ATOMIC CHARGES
----------------------
   0 S :    0.437278
   1 C :   -0.206607
   2 C :   -0.065249
   3 C :   -0.071112
   4 C :   -0.215262
   5 H :    0.021158
   6 C :   -0.035279
   7 H :    0.038406
   8 H :    0.033850
   9 C :   -0.039539
  10 H :    0.019912
  11 H :    0.017147
  12 C :   -0.058173
  13 H :    0.027649
  14 H :    0.027875
  15 H :    0.021610
  16 S :    0.412956
  17 C :   -0.183479
  18 C :   -0.071483
  19 C :   -0.044004
  20 C :   -0.198647
  21 H :    0.034785
  22 C :   -0.036359
  23 H :    0.025889
  24 H :    0.042170
  25 C :   -0.038689
  26 H :    0.023386
  27 H :    0.025741
  28 C :   -0.069796
  29 H :    0.026400
  30 H :    0.023889
  31 H :    0.021666
  32 H :    0.028242
  33 H :    0.023669

  Mayer bond orders larger than 0.100000
B(  0-S ,  1-C ) :   1.1512 B(  0-S ,  4-C ) :   1.1633 B(  1-C ,  2-C ) :   1.5927
B(  1-C , 32-H ) :   0.9682 B(  2-C ,  3-C ) :   1.2575 B(  2-C ,  6-C ) :   1.0238
B(  3-C ,  4-C ) :   1.5365 B(  3-C ,  5-H ) :   0.9963 B(  4-C , 20-C ) :   1.0715
B(  6-C ,  7-H ) :   0.9435 B(  6-C ,  8-H ) :   0.9361 B(  6-C ,  9-C ) :   1.0584
B(  9-C , 10-H ) :   0.9543 B(  9-C , 11-H ) :   0.9548 B(  9-C , 12-C ) :   1.0728
B( 12-C , 13-H ) :   0.9758 B( 12-C , 14-H ) :   0.9749 B( 12-C , 15-H ) :   0.9771
B( 16-S , 17-C ) :   1.1513 B( 16-S , 20-C ) :   1.1470 B( 17-C , 18-C ) :   1.6302
B( 17-C , 33-H ) :   0.9665 B( 18-C , 19-C ) :   1.2357 B( 18-C , 21-H ) :   0.9912
B( 19-C , 20-C ) :   1.5449 B( 19-C , 22-C ) :   1.0495 B( 22-C , 23-H ) :   0.9219
B( 22-C , 24-H ) :   0.9214 B( 22-C , 25-C ) :   1.0741 B( 25-C , 26-H ) :   0.9500
B( 25-C , 27-H ) :   0.9507 B( 25-C , 28-C ) :   1.0851 B( 28-C , 29-H ) :   0.9750
B( 28-C , 30-H ) :   0.9748 B( 28-C , 31-H ) :   0.9745

Dispersion correction           -0.014001447
FINAL SINGLE POINT ENERGY     -1339.884587248012

DIPOLE MOMENT
-------------
                                X             Y             Z
Electronic contribution:     17.79780      16.73131     -21.41635
Nuclear contribution   :    -18.05426     -17.18906      21.68203
                        -----------------------------------------
Total Dipole Moment    :     -0.25645      -0.45776       0.26568
                        -----------------------------------------
Magnitude (a.u.)       :      0.58813
Magnitude (Debye)      :      1.49490

Rotational constants in cm-1:     0.017718     0.008997     0.006460
Rotational constants in MHz :   531.157508   269.728883   193.662680

                             ****ORCA TERMINATED NORMALLY****
TOTAL RUN TIME: 0 days 0 hours 0 minutes 21 seconds 698 msec
