                         Program Version 4.2.1 -  RELEASE  -
|  1> ! wB97X-D3 SP def2-SVP
|  2> %pal
|  3> nprocs 24
|  4> end
|  5>
|  6> * xyz 0 1
|  7> S 	 -93.3765 	 -33.4134 	 -67.9284
|  8> C 	 -94.5435 	 -34.7135 	 -67.6205
|  9> C 	 -95.1377 	 -34.5573 	 -66.3991
| 10> C 	 -94.7613 	 -33.3341 	 -65.7784
| 11> C 	 -93.8402 	 -32.4996 	 -66.4516
| 12> H 	 -95.0204 	 -33.0836 	 -64.7791
| 13> C 	 -95.9394 	 -35.6353 	 -65.6759
| 14> H 	 -95.8757 	 -35.4753 	 -64.6193
| 15> H 	 -95.4089 	 -36.5659 	 -65.7725
| 16> C 	 -97.4093 	 -35.8386 	 -66.1444
| 17> H 	 -97.3569 	 -36.2508 	 -67.1001
| 18> H 	 -97.8485 	 -36.6441 	 -65.5652
| 19> C 	 -98.1908 	 -34.5773 	 -66.1773
| 20> H 	 -99.2463 	 -34.6287 	 -66.1779
| 21> H 	 -98.0688 	 -34.0273 	 -65.2596
| 22> H 	 -97.8916 	 -34.0137 	 -67.0572
| 23> S 	 -91.5682 	 -30.9406 	 -65.8373
| 24> C 	 -91.7909 	 -29.3666 	 -65.2515
| 25> C 	 -93.1405 	 -28.9525 	 -65.4233
| 26> C 	 -94.013 	 -30.0124 	 -65.6855
| 27> C 	 -93.3477 	 -31.1747 	 -66.0381
| 28> H 	 -93.355 	 -27.8376 	 -65.3749
| 29> C 	 -95.4753 	 -29.7858 	 -65.8308
| 30> H 	 -95.8552 	 -30.5537 	 -66.4704
| 31> H 	 -95.571 	 -28.867 	 -66.341
| 32> C 	 -96.3723 	 -29.7188 	 -64.5785
| 33> H 	 -95.9109 	 -29.0249 	 -63.83
| 34> H 	 -96.367 	 -30.7144 	 -64.097
| 35> C 	 -97.7717 	 -29.2001 	 -64.8624
| 36> H 	 -98.2372 	 -29.8689 	 -65.63
| 37> H 	 -97.8624 	 -28.2273 	 -65.2198
| 38> H 	 -98.3944 	 -29.2002 	 -63.9285
| 39> H 	 -94.7089 	 -35.5735 	 -68.3633
| 40> H 	 -90.9961 	 -28.6549 	 -65.0869
| 41> *
| 42>
| 43>                          ****END OF INPUT****

CARTESIAN COORDINATES (ANGSTROEM)
---------------------------------
  S    -93.376500  -33.413400  -67.928400
  C    -94.543500  -34.713500  -67.620500
  C    -95.137700  -34.557300  -66.399100
  C    -94.761300  -33.334100  -65.778400
  C    -93.840200  -32.499600  -66.451600
  H    -95.020400  -33.083600  -64.779100
  C    -95.939400  -35.635300  -65.675900
  H    -95.875700  -35.475300  -64.619300
  H    -95.408900  -36.565900  -65.772500
  C    -97.409300  -35.838600  -66.144400
  H    -97.356900  -36.250800  -67.100100
  H    -97.848500  -36.644100  -65.565200
  C    -98.190800  -34.577300  -66.177300
  H    -99.246300  -34.628700  -66.177900
  H    -98.068800  -34.027300  -65.259600
  H    -97.891600  -34.013700  -67.057200
  S    -91.568200  -30.940600  -65.837300
  C    -91.790900  -29.366600  -65.251500
  C    -93.140500  -28.952500  -65.423300
  C    -94.013000  -30.012400  -65.685500
  C    -93.347700  -31.174700  -66.038100
  H    -93.355000  -27.837600  -65.374900
  C    -95.475300  -29.785800  -65.830800
  H    -95.855200  -30.553700  -66.470400
  H    -95.571000  -28.867000  -66.341000
  C    -96.372300  -29.718800  -64.578500
  H    -95.910900  -29.024900  -63.830000
  H    -96.367000  -30.714400  -64.097000
  C    -97.771700  -29.200100  -64.862400
  H    -98.237200  -29.868900  -65.630000
  H    -97.862400  -28.227300  -65.219800
  H    -98.394400  -29.200200  -63.928500
  H    -94.708900  -35.573500  -68.363300
  H    -90.996100  -28.654900  -65.086900

 Total Charge           Charge          ....    0
 Multiplicity           Mult            ....    1
 Number of Electrons    NEL             ....  134
 Basis Dimension        Dim             ....  322

ORBITAL ENERGIES
----------------

  NO   OCC          E(Eh)            E(eV)
   0   2.0000     -88.967621     -2420.9320
   1   2.0000     -88.965801     -2420.8825
   2   2.0000     -10.338107      -281.3142
   3   2.0000     -10.332814      -281.1702
   4   2.0000     -10.323248      -280.9098
   5   2.0000     -10.318055      -280.7685
   6   2.0000     -10.303180      -280.3638
   7   2.0000     -10.300890      -280.3015
   8   2.0000     -10.298970      -280.2492
   9   2.0000     -10.294653      -280.1317
  10   2.0000     -10.289931      -280.0033
  11   2.0000     -10.289779      -279.9991
  12   2.0000     -10.280982      -279.7597
  13   2.0000     -10.279620      -279.7227
  14   2.0000     -10.278778      -279.6998
  15   2.0000     -10.267244      -279.3859
  16   2.0000      -8.082476      -219.9353
  17   2.0000      -8.079367      -219.8508
  18   2.0000      -6.040840      -164.3796
  19   2.0000      -6.038041      -164.3034
  20   2.0000      -6.036942      -164.2735
  21   2.0000      -6.033937      -164.1918
  22   2.0000      -6.033397      -164.1771
  23   2.0000      -6.030108      -164.0876
  24   2.0000      -1.002773       -27.2868
  25   2.0000      -0.982435       -26.7334
  26   2.0000      -0.912943       -24.8424
  27   2.0000      -0.912346       -24.8262
  28   2.0000      -0.867384       -23.6027
  29   2.0000      -0.856873       -23.3167
  30   2.0000      -0.843079       -22.9413
  31   2.0000      -0.808479       -21.9998
  32   2.0000      -0.786707       -21.4074
  33   2.0000      -0.775832       -21.1115
  34   2.0000      -0.707738       -19.2585
  35   2.0000      -0.704299       -19.1649
  36   2.0000      -0.695148       -18.9160
  37   2.0000      -0.660000       -17.9595
  38   2.0000      -0.636189       -17.3116
  39   2.0000      -0.614503       -16.7215
  40   2.0000      -0.595555       -16.2059
  41   2.0000      -0.576850       -15.6969
  42   2.0000      -0.563541       -15.3347
  43   2.0000      -0.552437       -15.0326
  44   2.0000      -0.540899       -14.7186
  45   2.0000      -0.522412       -14.2156
  46   2.0000      -0.521367       -14.1871
  47   2.0000      -0.511338       -13.9142
  48   2.0000      -0.505786       -13.7631
  49   2.0000      -0.500132       -13.6093
  50   2.0000      -0.493102       -13.4180
  51   2.0000      -0.481035       -13.0896
  52   2.0000      -0.466873       -12.7042
  53   2.0000      -0.462094       -12.5742
  54   2.0000      -0.461086       -12.5468
  55   2.0000      -0.450566       -12.2605
  56   2.0000      -0.442549       -12.0424
  57   2.0000      -0.435029       -11.8377
  58   2.0000      -0.432800       -11.7771
  59   2.0000      -0.426597       -11.6083
  60   2.0000      -0.419353       -11.4112
  61   2.0000      -0.415370       -11.3028
  62   2.0000      -0.414171       -11.2702
  63   2.0000      -0.342785        -9.3276
  64   2.0000      -0.333084        -9.0637
  65   2.0000      -0.329188        -8.9577
  66   2.0000      -0.290376        -7.9015
  67   0.0000       0.025709         0.6996
  68   0.0000       0.058585         1.5942
  69   0.0000       0.112544         3.0625
  70   0.0000       0.115699         3.1483
  71   0.0000       0.126654         3.4464

MULLIKEN ATOMIC CHARGES
-----------------------
   0 S :    0.096019
   1 C :   -0.166700
   2 C :   -0.071711
   3 C :    0.036333
   4 C :   -0.151450
   5 H :    0.000217
   6 C :    0.060655
   7 H :    0.015889
   8 H :    0.025241
   9 C :   -0.031173
  10 H :    0.006053
  11 H :    0.022320
  12 C :   -0.020976
  13 H :    0.017485
  14 H :    0.014197
  15 H :    0.044963
  16 S :    0.116289
  17 C :   -0.093362
  18 C :   -0.082890
  19 C :    0.001753
  20 C :   -0.170025
  21 H :    0.047337
  22 C :    0.078669
  23 H :    0.021408
  24 H :    0.007771
  25 C :   -0.077186
  26 H :    0.026995
  27 H :    0.029573
  28 C :   -0.041159
  29 H :    0.033173
  30 H :    0.019543
  31 H :    0.040369
  32 H :    0.083296
  33 H :    0.061087
Sum of atomic charges:   -0.0000000

LOEWDIN ATOMIC CHARGES
----------------------
   0 S :    0.377140
   1 C :   -0.194744
   2 C :   -0.072996
   3 C :   -0.057350
   4 C :   -0.185698
   5 H :    0.022454
   6 C :   -0.023782
   7 H :    0.025758
   8 H :    0.031447
   9 C :   -0.034802
  10 H :    0.014591
  11 H :    0.024049
  12 C :   -0.065444
  13 H :    0.022013
  14 H :    0.023661
  15 H :    0.032412
  16 S :    0.415953
  17 C :   -0.202896
  18 C :   -0.080009
  19 C :   -0.051811
  20 C :   -0.187905
  21 H :    0.043328
  22 C :   -0.028132
  23 H :    0.028392
  24 H :    0.027094
  25 C :   -0.040313
  26 H :    0.024683
  27 H :    0.024658
  28 C :   -0.066451
  29 H :    0.029788
  30 H :    0.014721
  31 H :    0.034400
  32 H :    0.047127
  33 H :    0.028662

  Mayer bond orders larger than 0.100000
B(  0-S ,  1-C ) :   1.1463 B(  0-S ,  4-C ) :   1.1355 B(  1-C ,  2-C ) :   1.5967
B(  1-C ,  4-C ) :   0.1040 B(  1-C , 32-H ) :   0.9571 B(  2-C ,  3-C ) :   1.2588
B(  2-C ,  6-C ) :   1.0056 B(  3-C ,  4-C ) :   1.5530 B(  3-C ,  5-H ) :   0.9968
B(  4-C , 20-C ) :   1.0531 B(  6-C ,  7-H ) :   0.9445 B(  6-C ,  8-H ) :   0.9444
B(  6-C ,  9-C ) :   1.0748 B(  9-C , 10-H ) :   0.9558 B(  9-C , 11-H ) :   0.9535
B(  9-C , 12-C ) :   1.0820 B( 12-C , 13-H ) :   0.9700 B( 12-C , 14-H ) :   0.9745
B( 12-C , 15-H ) :   0.9681 B( 16-S , 17-C ) :   1.1928 B( 16-S , 20-C ) :   1.1329
B( 17-C , 18-C ) :   1.5734 B( 17-C , 20-C ) :   0.1106 B( 17-C , 33-H ) :   0.9641
B( 18-C , 19-C ) :   1.2601 B( 18-C , 21-H ) :   0.9783 B( 19-C , 20-C ) :   1.5709
B( 19-C , 22-C ) :   1.0511 B( 22-C , 23-H ) :   0.9262 B( 22-C , 24-H ) :   0.9336
B( 22-C , 25-C ) :   1.0619 B( 25-C , 26-H ) :   0.9557 B( 25-C , 27-H ) :   0.9503
B( 25-C , 28-C ) :   1.0862 B( 28-C , 29-H ) :   0.9728 B( 28-C , 30-H ) :   0.9741
B( 28-C , 31-H ) :   0.9724

Dispersion correction           -0.014465588
FINAL SINGLE POINT ENERGY     -1339.870391102640

DIPOLE MOMENT
-------------
                                X             Y             Z
Electronic contribution:     29.94727       0.96643      -8.33433
Nuclear contribution   :    -30.50789      -0.91957       8.55225
                        -----------------------------------------
Total Dipole Moment    :     -0.56062       0.04686       0.21792
                        -----------------------------------------
Magnitude (a.u.)       :      0.60331
Magnitude (Debye)      :      1.53350

Rotational constants in cm-1:     0.016920     0.009595     0.006640
Rotational constants in MHz :   507.258850   287.661562   199.066152

                             ****ORCA TERMINATED NORMALLY****
TOTAL RUN TIME: 0 days 0 hours 0 minutes 21 seconds 889 msec
