                         Program Version 4.2.1 -  RELEASE  -
|  1> ! wB97X-D3 SP def2-SVP
|  2> %pal
|  3> nprocs 24
|  4> end
|  5>
|  6> * xyz 0 1
|  7> S 	 -30.167 	 18.99 	 11.9004
|  8> C 	 -30.2562 	 20.1346 	 10.5663
|  9> C 	 -30.715 	 19.5652 	 9.40127
| 10> C 	 -31.058 	 18.1737 	 9.61145
| 11> C 	 -30.7514 	 17.6475 	 10.8549
| 12> H 	 -31.2552 	 17.4523 	 8.80818
| 13> C 	 -30.8419 	 20.4109 	 8.15627
| 14> H 	 -31.2284 	 19.6793 	 7.38722
| 15> H 	 -29.9276 	 20.7717 	 7.91079
| 16> C 	 -31.9707 	 21.5521 	 8.25198
| 17> H 	 -32.9276 	 21.0253 	 8.32544
| 18> H 	 -31.8772 	 22.1292 	 9.16757
| 19> C 	 -32.0445 	 22.5323 	 7.06527
| 20> H 	 -32.5522 	 23.4762 	 7.24055
| 21> H 	 -31.0455 	 22.8173 	 6.82907
| 22> H 	 -32.3979 	 22.1019 	 6.09088
| 23> S 	 -29.2829 	 15.349 	 11.3795
| 24> C 	 -30.1508 	 13.925 	 11.7773
| 25> C 	 -31.5098 	 14.1193 	 11.72
| 26> C 	 -31.9233 	 15.4324 	 11.3067
| 27> C 	 -30.7964 	 16.2694 	 11.2058
| 28> H 	 -32.212 	 13.3397 	 12.0273
| 29> C 	 -33.3714 	 16.0381 	 11.2413
| 30> H 	 -33.4291 	 16.6741 	 10.3588
| 31> H 	 -33.5094 	 16.7632 	 12.0594
| 32> C 	 -34.5142 	 14.9676 	 11.284
| 33> H 	 -34.2576 	 14.1061 	 10.6467
| 34> H 	 -35.4582 	 15.3277 	 10.8943
| 35> C 	 -34.7744 	 14.6367 	 12.6981
| 36> H 	 -35.3633 	 15.398 	 13.2581
| 37> H 	 -33.8759 	 14.433 	 13.163
| 38> H 	 -35.4665 	 13.791 	 12.9488
| 39> H 	 -29.8446 	 21.1702 	 10.5788
| 40> H 	 -29.7125 	 13.0382 	 11.9997
| 41> *
| 42>
| 43>                          ****END OF INPUT****

CARTESIAN COORDINATES (ANGSTROEM)
---------------------------------
  S    -30.167000   18.990000   11.900400
  C    -30.256200   20.134600   10.566300
  C    -30.715000   19.565200    9.401270
  C    -31.058000   18.173700    9.611450
  C    -30.751400   17.647500   10.854900
  H    -31.255200   17.452300    8.808180
  C    -30.841900   20.410900    8.156270
  H    -31.228400   19.679300    7.387220
  H    -29.927600   20.771700    7.910790
  C    -31.970700   21.552100    8.251980
  H    -32.927600   21.025300    8.325440
  H    -31.877200   22.129200    9.167570
  C    -32.044500   22.532300    7.065270
  H    -32.552200   23.476200    7.240550
  H    -31.045500   22.817300    6.829070
  H    -32.397900   22.101900    6.090880
  S    -29.282900   15.349000   11.379500
  C    -30.150800   13.925000   11.777300
  C    -31.509800   14.119300   11.720000
  C    -31.923300   15.432400   11.306700
  C    -30.796400   16.269400   11.205800
  H    -32.212000   13.339700   12.027300
  C    -33.371400   16.038100   11.241300
  H    -33.429100   16.674100   10.358800
  H    -33.509400   16.763200   12.059400
  C    -34.514200   14.967600   11.284000
  H    -34.257600   14.106100   10.646700
  H    -35.458200   15.327700   10.894300
  C    -34.774400   14.636700   12.698100
  H    -35.363300   15.398000   13.258100
  H    -33.875900   14.433000   13.163000
  H    -35.466500   13.791000   12.948800
  H    -29.844600   21.170200   10.578800
  H    -29.712500   13.038200   11.999700

 Total Charge           Charge          ....    0
 Multiplicity           Mult            ....    1
 Number of Electrons    NEL             ....  134
 Basis Dimension        Dim             ....  322

ORBITAL ENERGIES
----------------

  NO   OCC          E(Eh)            E(eV)
   0   2.0000     -88.966722     -2420.9076
   1   2.0000     -88.965417     -2420.8721
   2   2.0000     -10.328758      -281.0598
   3   2.0000     -10.324722      -280.9500
   4   2.0000     -10.315940      -280.7110
   5   2.0000     -10.311342      -280.5859
   6   2.0000     -10.310182      -280.5543
   7   2.0000     -10.301261      -280.3116
   8   2.0000     -10.298437      -280.2347
   9   2.0000     -10.298295      -280.2309
  10   2.0000     -10.296286      -280.1762
  11   2.0000     -10.295286      -280.1490
  12   2.0000     -10.293216      -280.0926
  13   2.0000     -10.286475      -279.9092
  14   2.0000     -10.279571      -279.7214
  15   2.0000     -10.271316      -279.4967
  16   2.0000      -8.081625      -219.9122
  17   2.0000      -8.079155      -219.8450
  18   2.0000      -6.040028      -164.3575
  19   2.0000      -6.037777      -164.2963
  20   2.0000      -6.036084      -164.2502
  21   2.0000      -6.033748      -164.1866
  22   2.0000      -6.032509      -164.1529
  23   2.0000      -6.029907      -164.0821
  24   2.0000      -1.002904       -27.2904
  25   2.0000      -0.980113       -26.6702
  26   2.0000      -0.911032       -24.7904
  27   2.0000      -0.905519       -24.6404
  28   2.0000      -0.872185       -23.7334
  29   2.0000      -0.849594       -23.1186
  30   2.0000      -0.843873       -22.9630
  31   2.0000      -0.814258       -22.1571
  32   2.0000      -0.783258       -21.3135
  33   2.0000      -0.769247       -20.9323
  34   2.0000      -0.707131       -19.2420
  35   2.0000      -0.705570       -19.1995
  36   2.0000      -0.702724       -19.1221
  37   2.0000      -0.654515       -17.8102
  38   2.0000      -0.638686       -17.3795
  39   2.0000      -0.614618       -16.7246
  40   2.0000      -0.603762       -16.4292
  41   2.0000      -0.565978       -15.4010
  42   2.0000      -0.558650       -15.2016
  43   2.0000      -0.557025       -15.1574
  44   2.0000      -0.543098       -14.7785
  45   2.0000      -0.520585       -14.1658
  46   2.0000      -0.517605       -14.0848
  47   2.0000      -0.510342       -13.8871
  48   2.0000      -0.506076       -13.7710
  49   2.0000      -0.501377       -13.6432
  50   2.0000      -0.484790       -13.1918
  51   2.0000      -0.478208       -13.0127
  52   2.0000      -0.471851       -12.8397
  53   2.0000      -0.462782       -12.5929
  54   2.0000      -0.459946       -12.5158
  55   2.0000      -0.451362       -12.2822
  56   2.0000      -0.444465       -12.0945
  57   2.0000      -0.441113       -12.0033
  58   2.0000      -0.430670       -11.7191
  59   2.0000      -0.426212       -11.5978
  60   2.0000      -0.419237       -11.4080
  61   2.0000      -0.416016       -11.3204
  62   2.0000      -0.411360       -11.1937
  63   2.0000      -0.339051        -9.2261
  64   2.0000      -0.331949        -9.0328
  65   2.0000      -0.325816        -8.8659
  66   2.0000      -0.298890        -8.1332
  67   0.0000       0.029851         0.8123
  68   0.0000       0.059431         1.6172
  69   0.0000       0.119990         3.2651
  70   0.0000       0.122224         3.3259
  71   0.0000       0.127738         3.4759

MULLIKEN ATOMIC CHARGES
-----------------------
   0 S :    0.108251
   1 C :   -0.137608
   2 C :   -0.109508
   3 C :    0.047192
   4 C :   -0.189356
   5 H :    0.027554
   6 C :    0.093909
   7 H :    0.030452
   8 H :    0.014461
   9 C :   -0.083380
  10 H :    0.033387
  11 H :    0.030130
  12 C :   -0.040340
  13 H :    0.039314
  14 H :    0.008784
  15 H :    0.033970
  16 S :    0.124011
  17 C :   -0.038604
  18 C :   -0.058554
  19 C :   -0.020053
  20 C :   -0.184984
  21 H :    0.027801
  22 C :    0.053589
  23 H :    0.025557
  24 H :    0.046327
  25 C :   -0.038683
  26 H :    0.037620
  27 H :    0.022575
  28 C :   -0.059222
  29 H :    0.032107
  30 H :    0.015946
  31 H :    0.026130
  32 H :    0.065590
  33 H :    0.015637
Sum of atomic charges:   -0.0000000

LOEWDIN ATOMIC CHARGES
----------------------
   0 S :    0.379706
   1 C :   -0.194387
   2 C :   -0.070180
   3 C :   -0.059508
   4 C :   -0.190032
   5 H :    0.035126
   6 C :   -0.020089
   7 H :    0.038759
   8 H :    0.013914
   9 C :   -0.035424
  10 H :    0.026409
  11 H :    0.021392
  12 C :   -0.073358
  13 H :    0.029033
  14 H :    0.018276
  15 H :    0.029704
  16 S :    0.417161
  17 C :   -0.176979
  18 C :   -0.078373
  19 C :   -0.041791
  20 C :   -0.201936
  21 H :    0.032827
  22 C :   -0.024898
  23 H :    0.031263
  24 H :    0.039085
  25 C :   -0.044393
  26 H :    0.027330
  27 H :    0.025572
  28 C :   -0.072015
  29 H :    0.031757
  30 H :    0.009875
  31 H :    0.028969
  32 H :    0.037727
  33 H :    0.009479

  Mayer bond orders larger than 0.100000
B(  0-S ,  1-C ) :   1.1400 B(  0-S ,  4-C ) :   1.1181 B(  1-C ,  2-C ) :   1.6234
B(  1-C , 32-H ) :   0.9584 B(  2-C ,  3-C ) :   1.2441 B(  2-C ,  6-C ) :   1.0201
B(  3-C ,  4-C ) :   1.6024 B(  3-C ,  5-H ) :   0.9770 B(  4-C , 20-C ) :   1.0725
B(  6-C ,  7-H ) :   0.9440 B(  6-C ,  8-H ) :   0.9394 B(  6-C ,  9-C ) :   1.0509
B(  9-C , 10-H ) :   0.9595 B(  9-C , 11-H ) :   0.9626 B(  9-C , 12-C ) :   1.0743
B( 12-C , 13-H ) :   0.9751 B( 12-C , 14-H ) :   0.9729 B( 12-C , 15-H ) :   0.9753
B( 16-S , 17-C ) :   1.1647 B( 16-S , 20-C ) :   1.1469 B( 17-C , 18-C ) :   1.5965
B( 17-C , 20-C ) :   0.1038 B( 17-C , 33-H ) :   0.9781 B( 18-C , 19-C ) :   1.2575
B( 18-C , 21-H ) :   0.9793 B( 19-C , 20-C ) :   1.5763 B( 19-C , 22-C ) :   1.0255
B( 22-C , 23-H ) :   0.9282 B( 22-C , 24-H ) :   0.9410 B( 22-C , 25-C ) :   1.0601
B( 25-C , 26-H ) :   0.9581 B( 25-C , 27-H ) :   0.9546 B( 25-C , 28-C ) :   1.0744
B( 28-C , 29-H ) :   0.9690 B( 28-C , 30-H ) :   0.9779 B( 28-C , 31-H ) :   0.9687

Dispersion correction           -0.013855951
FINAL SINGLE POINT ENERGY     -1339.864823416740

DIPOLE MOMENT
-------------
                                X             Y             Z
Electronic contribution:     21.24340      -8.44422      11.20816
Nuclear contribution   :    -21.61770       8.51038     -11.57711
                        -----------------------------------------
Total Dipole Moment    :     -0.37430       0.06616      -0.36894
                        -----------------------------------------
Magnitude (a.u.)       :      0.52971
Magnitude (Debye)      :      1.34642

Rotational constants in cm-1:     0.020655     0.007145     0.005992
Rotational constants in MHz :   619.220760   214.191599   179.625713

                             ****ORCA TERMINATED NORMALLY****
TOTAL RUN TIME: 0 days 0 hours 0 minutes 20 seconds 959 msec
