                         Program Version 4.2.1 -  RELEASE  -
|  1> ! wB97X-D3 SP def2-SVP
|  2> %pal
|  3> nprocs 24
|  4> end
|  5>
|  6> * xyz 0 1
|  7> S 	 -48.5034 	 -49.0858 	 -75.9041
|  8> C 	 -50.1308 	 -48.9463 	 -75.3743
|  9> C 	 -51.0433 	 -49.4196 	 -76.2783
| 10> C 	 -50.4408 	 -49.8053 	 -77.5152
| 11> C 	 -49.0801 	 -49.7075 	 -77.4972
| 12> H 	 -50.9061 	 -50.1705 	 -78.4139
| 13> C 	 -52.4934 	 -49.3767 	 -76.0179
| 14> H 	 -52.6483 	 -49.49 	 -74.9461
| 15> H 	 -52.9123 	 -50.2861 	 -76.5332
| 16> C 	 -53.2856 	 -48.1015 	 -76.4703
| 17> H 	 -52.9821 	 -47.151 	 -76.0254
| 18> H 	 -53.1854 	 -47.9463 	 -77.5697
| 19> C 	 -54.8025 	 -48.1326 	 -76.1754
| 20> H 	 -55.434 	 -48.7368 	 -76.9266
| 21> H 	 -55.0642 	 -48.3498 	 -75.1583
| 22> H 	 -55.2898 	 -47.2141 	 -76.2907
| 23> S 	 -46.7526 	 -51.2496 	 -77.6948
| 24> C 	 -46.0435 	 -51.4787 	 -79.2571
| 25> C 	 -46.8621 	 -50.9199 	 -80.2234
| 26> C 	 -48.0459 	 -50.4061 	 -79.7514
| 27> C 	 -48.1213 	 -50.4019 	 -78.3756
| 28> H 	 -46.5765 	 -50.9124 	 -81.2732
| 29> C 	 -49.091 	 -49.6979 	 -80.5909
| 30> H 	 -48.4989 	 -49.3147 	 -81.3484
| 31> H 	 -49.6421 	 -48.8949 	 -80.0753
| 32> C 	 -49.9518 	 -50.6437 	 -81.3836
| 33> H 	 -50.7688 	 -50.0838 	 -81.9018
| 34> H 	 -50.4848 	 -51.3915 	 -80.7817
| 35> C 	 -49.2046 	 -51.444 	 -82.4661
| 36> H 	 -48.327 	 -51.9044 	 -82.057
| 37> H 	 -48.86 	 -50.8868 	 -83.4154
| 38> H 	 -49.9732 	 -52.122 	 -82.7004
| 39> H 	 -50.4529 	 -48.7497 	 -74.375
| 40> H 	 -45.0884 	 -51.8213 	 -79.4827
| 41> *
| 42>
| 43>                          ****END OF INPUT****

CARTESIAN COORDINATES (ANGSTROEM)
---------------------------------
  S    -48.503400  -49.085800  -75.904100
  C    -50.130800  -48.946300  -75.374300
  C    -51.043300  -49.419600  -76.278300
  C    -50.440800  -49.805300  -77.515200
  C    -49.080100  -49.707500  -77.497200
  H    -50.906100  -50.170500  -78.413900
  C    -52.493400  -49.376700  -76.017900
  H    -52.648300  -49.490000  -74.946100
  H    -52.912300  -50.286100  -76.533200
  C    -53.285600  -48.101500  -76.470300
  H    -52.982100  -47.151000  -76.025400
  H    -53.185400  -47.946300  -77.569700
  C    -54.802500  -48.132600  -76.175400
  H    -55.434000  -48.736800  -76.926600
  H    -55.064200  -48.349800  -75.158300
  H    -55.289800  -47.214100  -76.290700
  S    -46.752600  -51.249600  -77.694800
  C    -46.043500  -51.478700  -79.257100
  C    -46.862100  -50.919900  -80.223400
  C    -48.045900  -50.406100  -79.751400
  C    -48.121300  -50.401900  -78.375600
  H    -46.576500  -50.912400  -81.273200
  C    -49.091000  -49.697900  -80.590900
  H    -48.498900  -49.314700  -81.348400
  H    -49.642100  -48.894900  -80.075300
  C    -49.951800  -50.643700  -81.383600
  H    -50.768800  -50.083800  -81.901800
  H    -50.484800  -51.391500  -80.781700
  C    -49.204600  -51.444000  -82.466100
  H    -48.327000  -51.904400  -82.057000
  H    -48.860000  -50.886800  -83.415400
  H    -49.973200  -52.122000  -82.700400
  H    -50.452900  -48.749700  -74.375000
  H    -45.088400  -51.821300  -79.482700

 Total Charge           Charge          ....    0
 Multiplicity           Mult            ....    1
 Number of Electrons    NEL             ....  134
 Basis Dimension        Dim             ....  322

ORBITAL ENERGIES
----------------

  NO   OCC          E(Eh)            E(eV)
   0   2.0000     -88.967515     -2420.9292
   1   2.0000     -88.967302     -2420.9234
   2   2.0000     -10.332117      -281.1512
   3   2.0000     -10.323840      -280.9260
   4   2.0000     -10.310549      -280.5643
   5   2.0000     -10.308413      -280.5062
   6   2.0000     -10.297003      -280.1957
   7   2.0000     -10.296544      -280.1832
   8   2.0000     -10.294816      -280.1362
   9   2.0000     -10.294711      -280.1333
  10   2.0000     -10.293085      -280.0891
  11   2.0000     -10.289646      -279.9955
  12   2.0000     -10.288136      -279.9544
  13   2.0000     -10.282668      -279.8056
  14   2.0000     -10.278158      -279.6829
  15   2.0000     -10.276703      -279.6433
  16   2.0000      -8.082227      -219.9286
  17   2.0000      -8.081773      -219.9162
  18   2.0000      -6.040639      -164.3741
  19   2.0000      -6.040282      -164.3644
  20   2.0000      -6.036634      -164.2651
  21   2.0000      -6.036378      -164.2582
  22   2.0000      -6.033188      -164.1714
  23   2.0000      -6.032485      -164.1523
  24   2.0000      -1.011661       -27.5287
  25   2.0000      -0.990519       -26.9534
  26   2.0000      -0.918564       -24.9954
  27   2.0000      -0.907837       -24.7035
  28   2.0000      -0.870887       -23.6980
  29   2.0000      -0.855714       -23.2852
  30   2.0000      -0.848986       -23.1021
  31   2.0000      -0.821384       -22.3510
  32   2.0000      -0.787817       -21.4376
  33   2.0000      -0.771294       -20.9880
  34   2.0000      -0.709269       -19.3002
  35   2.0000      -0.702533       -19.1169
  36   2.0000      -0.692236       -18.8367
  37   2.0000      -0.667892       -18.1743
  38   2.0000      -0.645339       -17.5606
  39   2.0000      -0.620333       -16.8801
  40   2.0000      -0.597309       -16.2536
  41   2.0000      -0.569130       -15.4868
  42   2.0000      -0.560639       -15.2558
  43   2.0000      -0.555582       -15.1182
  44   2.0000      -0.548224       -14.9179
  45   2.0000      -0.524985       -14.2856
  46   2.0000      -0.519735       -14.1427
  47   2.0000      -0.509387       -13.8611
  48   2.0000      -0.505745       -13.7620
  49   2.0000      -0.503053       -13.6888
  50   2.0000      -0.495801       -13.4914
  51   2.0000      -0.486485       -13.2379
  52   2.0000      -0.471658       -12.8345
  53   2.0000      -0.464578       -12.6418
  54   2.0000      -0.463438       -12.6108
  55   2.0000      -0.449205       -12.2235
  56   2.0000      -0.440804       -11.9949
  57   2.0000      -0.438935       -11.9440
  58   2.0000      -0.431103       -11.7309
  59   2.0000      -0.427266       -11.6265
  60   2.0000      -0.421119       -11.4592
  61   2.0000      -0.415757       -11.3133
  62   2.0000      -0.409229       -11.1357
  63   2.0000      -0.356177        -9.6921
  64   2.0000      -0.335754        -9.1363
  65   2.0000      -0.329120        -8.9558
  66   2.0000      -0.286983        -7.8092
  67   0.0000       0.024400         0.6640
  68   0.0000       0.072316         1.9678
  69   0.0000       0.112372         3.0578
  70   0.0000       0.125116         3.4046
  71   0.0000       0.132190         3.5971

MULLIKEN ATOMIC CHARGES
-----------------------
   0 S :    0.101897
   1 C :   -0.087503
   2 C :   -0.089450
   3 C :    0.031057
   4 C :   -0.140396
   5 H :    0.010119
   6 C :    0.064310
   7 H :    0.017785
   8 H :    0.033918
   9 C :   -0.060849
  10 H :    0.030274
  11 H :    0.030241
  12 C :   -0.054781
  13 H :    0.034874
  14 H :    0.023627
  15 H :    0.011883
  16 S :    0.116079
  17 C :   -0.066655
  18 C :   -0.051811
  19 C :   -0.053177
  20 C :   -0.155835
  21 H :    0.021126
  22 C :    0.129229
  23 H :   -0.007084
  24 H :    0.044301
  25 C :   -0.101102
  26 H :    0.031639
  27 H :    0.027573
  28 C :   -0.066792
  29 H :    0.036028
  30 H :    0.043729
  31 H :    0.028998
  32 H :    0.035696
  33 H :    0.031052
Sum of atomic charges:   -0.0000000

LOEWDIN ATOMIC CHARGES
----------------------
   0 S :    0.393932
   1 C :   -0.196880
   2 C :   -0.069984
   3 C :   -0.054603
   4 C :   -0.168514
   5 H :    0.032307
   6 C :   -0.034715
   7 H :    0.029553
   8 H :    0.038752
   9 C :   -0.039981
  10 H :    0.026495
  11 H :    0.027970
  12 C :   -0.075492
  13 H :    0.032314
  14 H :    0.020884
  15 H :    0.019427
  16 S :    0.419925
  17 C :   -0.187210
  18 C :   -0.073055
  19 C :   -0.062441
  20 C :   -0.197291
  21 H :    0.031492
  22 C :   -0.031100
  23 H :    0.024207
  24 H :    0.034999
  25 C :   -0.040835
  26 H :    0.027825
  27 H :    0.019457
  28 C :   -0.067307
  29 H :    0.019663
  30 H :    0.032209
  31 H :    0.024337
  32 H :    0.025018
  33 H :    0.018643

  Mayer bond orders larger than 0.100000
B(  0-S ,  1-C ) :   1.1356 B(  0-S ,  4-C ) :   1.1309 B(  1-C ,  2-C ) :   1.6259
B(  1-C , 32-H ) :   0.9631 B(  2-C ,  3-C ) :   1.2219 B(  2-C ,  6-C ) :   1.0482
B(  3-C ,  4-C ) :   1.5762 B(  3-C ,  5-H ) :   0.9951 B(  4-C , 20-C ) :   1.0522
B(  6-C ,  7-H ) :   0.9345 B(  6-C ,  8-H ) :   0.9355 B(  6-C ,  9-C ) :   1.0558
B(  9-C , 10-H ) :   0.9584 B(  9-C , 11-H ) :   0.9562 B(  9-C , 12-C ) :   1.0817
B( 12-C , 13-H ) :   0.9748 B( 12-C , 14-H ) :   0.9740 B( 12-C , 15-H ) :   0.9710
B( 16-S , 17-C ) :   1.1640 B( 16-S , 20-C ) :   1.1507 B( 17-C , 18-C ) :   1.5688
B( 17-C , 20-C ) :   0.1004 B( 17-C , 33-H ) :   0.9744 B( 18-C , 19-C ) :   1.3056
B( 18-C , 21-H ) :   0.9795 B( 19-C , 20-C ) :   1.5622 B( 19-C , 22-C ) :   1.0307
B( 22-C , 23-H ) :   0.9171 B( 22-C , 24-H ) :   0.9367 B( 22-C , 25-C ) :   1.0624
B( 25-C , 26-H ) :   0.9537 B( 25-C , 27-H ) :   0.9569 B( 25-C , 28-C ) :   1.0727
B( 28-C , 29-H ) :   0.9718 B( 28-C , 30-H ) :   0.9723 B( 28-C , 31-H ) :   0.9742

Dispersion correction           -0.013999041
FINAL SINGLE POINT ENERGY     -1339.864781048509

DIPOLE MOMENT
-------------
                                X             Y             Z
Electronic contribution:     25.86335      -3.39002      13.86921
Nuclear contribution   :    -26.37132       3.48807     -14.19854
                        -----------------------------------------
Total Dipole Moment    :     -0.50797       0.09805      -0.32933
                        -----------------------------------------
Magnitude (a.u.)       :      0.61327
Magnitude (Debye)      :      1.55882

Rotational constants in cm-1:     0.020110     0.008249     0.006113
Rotational constants in MHz :   602.885231   247.298304   183.269371

                             ****ORCA TERMINATED NORMALLY****
TOTAL RUN TIME: 0 days 0 hours 0 minutes 20 seconds 549 msec
