                         Program Version 4.2.1 -  RELEASE  -
|  1> ! wB97X-D3 SP def2-SVP
|  2> %pal
|  3> nprocs 24
|  4> end
|  5>
|  6> * xyz 0 1
|  7> S 	 -77.5003 	 -1.60165 	 -68.0633
|  8> C 	 -77.0349 	 0.105439 	 -68.1512
|  9> C 	 -76.6816 	 0.603921 	 -66.8947
| 10> C 	 -76.771 	 -0.372276 	 -65.8335
| 11> C 	 -77.222 	 -1.56507 	 -66.3464
| 12> H 	 -76.4125 	 -0.177421 	 -64.795
| 13> C 	 -76.0369 	 2.00684 	 -66.5785
| 14> H 	 -76.2739 	 2.31787 	 -65.5674
| 15> H 	 -76.6376 	 2.70405 	 -67.145
| 16> C 	 -74.5568 	 2.19155 	 -66.7726
| 17> H 	 -73.9725 	 1.86413 	 -65.8895
| 18> H 	 -74.1978 	 1.69961 	 -67.6684
| 19> C 	 -74.2572 	 3.66168 	 -66.7834
| 20> H 	 -73.2835 	 3.72424 	 -67.1988
| 21> H 	 -74.9345 	 4.27087 	 -67.4291
| 22> H 	 -74.1808 	 4.12011 	 -65.7724
| 23> S 	 -76.1056 	 -3.58674 	 -64.8367
| 24> C 	 -76.9839 	 -5.01907 	 -64.518
| 25> C 	 -78.3502 	 -4.8132 	 -64.6973
| 26> C 	 -78.6064 	 -3.52416 	 -65.3234
| 27> C 	 -77.4775 	 -2.74518 	 -65.5863
| 28> H 	 -79.0763 	 -5.51073 	 -64.3228
| 29> C 	 -80.0492 	 -3.10126 	 -65.5916
| 30> H 	 -80.0044 	 -2.10216 	 -66.0274
| 31> H 	 -80.4864 	 -2.94003 	 -64.6275
| 32> C 	 -80.9106 	 -4.14309 	 -66.3234
| 33> H 	 -81.2259 	 -4.97987 	 -65.6753
| 34> H 	 -80.2776 	 -4.46813 	 -67.0951
| 35> C 	 -82.0664 	 -3.45755 	 -66.9947
| 36> H 	 -82.629 	 -3.01781 	 -66.1388
| 37> H 	 -82.5302 	 -4.23375 	 -67.5229
| 38> H 	 -81.8072 	 -2.67753 	 -67.7597
| 39> H 	 -76.8086 	 0.667805 	 -68.9855
| 40> H 	 -76.6514 	 -5.93782 	 -64.0578
| 41> *
| 42>
| 43>                          ****END OF INPUT****

CARTESIAN COORDINATES (ANGSTROEM)
---------------------------------
  S    -77.500300   -1.601650  -68.063300
  C    -77.034900    0.105439  -68.151200
  C    -76.681600    0.603921  -66.894700
  C    -76.771000   -0.372276  -65.833500
  C    -77.222000   -1.565070  -66.346400
  H    -76.412500   -0.177421  -64.795000
  C    -76.036900    2.006840  -66.578500
  H    -76.273900    2.317870  -65.567400
  H    -76.637600    2.704050  -67.145000
  C    -74.556800    2.191550  -66.772600
  H    -73.972500    1.864130  -65.889500
  H    -74.197800    1.699610  -67.668400
  C    -74.257200    3.661680  -66.783400
  H    -73.283500    3.724240  -67.198800
  H    -74.934500    4.270870  -67.429100
  H    -74.180800    4.120110  -65.772400
  S    -76.105600   -3.586740  -64.836700
  C    -76.983900   -5.019070  -64.518000
  C    -78.350200   -4.813200  -64.697300
  C    -78.606400   -3.524160  -65.323400
  C    -77.477500   -2.745180  -65.586300
  H    -79.076300   -5.510730  -64.322800
  C    -80.049200   -3.101260  -65.591600
  H    -80.004400   -2.102160  -66.027400
  H    -80.486400   -2.940030  -64.627500
  C    -80.910600   -4.143090  -66.323400
  H    -81.225900   -4.979870  -65.675300
  H    -80.277600   -4.468130  -67.095100
  C    -82.066400   -3.457550  -66.994700
  H    -82.629000   -3.017810  -66.138800
  H    -82.530200   -4.233750  -67.522900
  H    -81.807200   -2.677530  -67.759700
  H    -76.808600    0.667805  -68.985500
  H    -76.651400   -5.937820  -64.057800

 Total Charge           Charge          ....    0
 Multiplicity           Mult            ....    1
 Number of Electrons    NEL             ....  134
 Basis Dimension        Dim             ....  322

ORBITAL ENERGIES
----------------

  NO   OCC          E(Eh)            E(eV)
   0   2.0000     -88.972657     -2421.0691
   1   2.0000     -88.959880     -2420.7214
   2   2.0000     -10.327818      -281.0342
   3   2.0000     -10.321028      -280.8494
   4   2.0000     -10.314303      -280.6664
   5   2.0000     -10.311043      -280.5777
   6   2.0000     -10.304544      -280.4009
   7   2.0000     -10.302756      -280.3522
   8   2.0000     -10.297406      -280.2066
   9   2.0000     -10.291396      -280.0431
  10   2.0000     -10.290206      -280.0107
  11   2.0000     -10.284984      -279.8686
  12   2.0000     -10.280839      -279.7559
  13   2.0000     -10.276984      -279.6510
  14   2.0000     -10.276674      -279.6425
  15   2.0000     -10.272869      -279.5390
  16   2.0000      -8.086669      -220.0495
  17   2.0000      -8.075010      -219.7322
  18   2.0000      -6.045231      -164.4991
  19   2.0000      -6.041396      -164.3947
  20   2.0000      -6.037292      -164.2831
  21   2.0000      -6.033609      -164.1829
  22   2.0000      -6.029406      -164.0685
  23   2.0000      -6.025702      -163.9677
  24   2.0000      -1.004839       -27.3431
  25   2.0000      -0.979778       -26.6611
  26   2.0000      -0.916491       -24.9390
  27   2.0000      -0.910823       -24.7848
  28   2.0000      -0.872006       -23.7285
  29   2.0000      -0.851244       -23.1635
  30   2.0000      -0.846514       -23.0348
  31   2.0000      -0.810777       -22.0624
  32   2.0000      -0.781431       -21.2638
  33   2.0000      -0.766945       -20.8696
  34   2.0000      -0.704627       -19.1739
  35   2.0000      -0.697731       -18.9862
  36   2.0000      -0.693690       -18.8763
  37   2.0000      -0.656588       -17.8667
  38   2.0000      -0.636677       -17.3248
  39   2.0000      -0.616422       -16.7737
  40   2.0000      -0.592066       -16.1109
  41   2.0000      -0.577004       -15.7011
  42   2.0000      -0.569710       -15.5026
  43   2.0000      -0.565210       -15.3801
  44   2.0000      -0.531840       -14.4721
  45   2.0000      -0.527810       -14.3625
  46   2.0000      -0.522794       -14.2259
  47   2.0000      -0.510610       -13.8944
  48   2.0000      -0.503290       -13.6952
  49   2.0000      -0.498793       -13.5729
  50   2.0000      -0.485590       -13.2136
  51   2.0000      -0.475211       -12.9312
  52   2.0000      -0.471622       -12.8335
  53   2.0000      -0.463950       -12.6247
  54   2.0000      -0.461559       -12.5596
  55   2.0000      -0.450380       -12.2555
  56   2.0000      -0.441886       -12.0243
  57   2.0000      -0.436009       -11.8644
  58   2.0000      -0.428427       -11.6581
  59   2.0000      -0.424841       -11.5605
  60   2.0000      -0.421252       -11.4628
  61   2.0000      -0.406420       -11.0593
  62   2.0000      -0.404076       -10.9955
  63   2.0000      -0.340781        -9.2731
  64   2.0000      -0.332521        -9.0484
  65   2.0000      -0.320352        -8.7172
  66   2.0000      -0.294721        -8.0198
  67   0.0000       0.038821         1.0564
  68   0.0000       0.058229         1.5845
  69   0.0000       0.102924         2.8007
  70   0.0000       0.112109         3.0506
  71   0.0000       0.131988         3.5916

MULLIKEN ATOMIC CHARGES
-----------------------
   0 S :    0.136687
   1 C :   -0.086525
   2 C :   -0.101069
   3 C :    0.018983
   4 C :   -0.154245
   5 H :    0.038208
   6 C :    0.054366
   7 H :    0.009582
   8 H :    0.016125
   9 C :   -0.041429
  10 H :    0.035674
  11 H :    0.032130
  12 C :   -0.064467
  13 H :    0.021977
  14 H :    0.032415
  15 H :    0.040414
  16 S :    0.105293
  17 C :   -0.080335
  18 C :   -0.040481
  19 C :   -0.053257
  20 C :   -0.170039
  21 H :    0.018380
  22 C :    0.072360
  23 H :    0.020211
  24 H :    0.022786
  25 C :   -0.079454
  26 H :    0.041336
  27 H :    0.018270
  28 C :   -0.037418
  29 H :    0.035165
  30 H :    0.022308
  31 H :    0.045407
  32 H :    0.015460
  33 H :    0.055182
Sum of atomic charges:    0.0000000

LOEWDIN ATOMIC CHARGES
----------------------
   0 S :    0.416542
   1 C :   -0.192036
   2 C :   -0.051709
   3 C :   -0.063527
   4 C :   -0.197364
   5 H :    0.043532
   6 C :   -0.034320
   7 H :    0.028428
   8 H :    0.025849
   9 C :   -0.041787
  10 H :    0.033996
  11 H :    0.023289
  12 C :   -0.065853
  13 H :    0.022784
  14 H :    0.024337
  15 H :    0.029398
  16 S :    0.408850
  17 C :   -0.193476
  18 C :   -0.077037
  19 C :   -0.050504
  20 C :   -0.209204
  21 H :    0.028693
  22 C :   -0.034405
  23 H :    0.028250
  24 H :    0.029108
  25 C :   -0.040130
  26 H :    0.028033
  27 H :    0.017291
  28 C :   -0.061514
  29 H :    0.029157
  30 H :    0.018003
  31 H :    0.033017
  32 H :    0.012816
  33 H :    0.031493

  Mayer bond orders larger than 0.100000
B(  0-S ,  1-C ) :   1.1178 B(  0-S ,  4-C ) :   1.1532 B(  1-C ,  2-C ) :   1.6376
B(  1-C , 32-H ) :   0.9748 B(  2-C ,  3-C ) :   1.2328 B(  2-C ,  6-C ) :   1.0125
B(  3-C ,  4-C ) :   1.5713 B(  3-C ,  5-H ) :   0.9894 B(  4-C , 20-C ) :   1.0376
B(  6-C ,  7-H ) :   0.9385 B(  6-C ,  8-H ) :   0.9460 B(  6-C ,  9-C ) :   1.0683
B(  9-C , 10-H ) :   0.9491 B(  9-C , 11-H ) :   0.9610 B(  9-C , 12-C ) :   1.0788
B( 12-C , 13-H ) :   0.9713 B( 12-C , 14-H ) :   0.9755 B( 12-C , 15-H ) :   0.9761
B( 16-S , 17-C ) :   1.1765 B( 16-S , 20-C ) :   1.1119 B( 17-C , 18-C ) :   1.5944
B( 17-C , 33-H ) :   0.9655 B( 18-C , 19-C ) :   1.2315 B( 18-C , 21-H ) :   0.9927
B( 19-C , 20-C ) :   1.5920 B( 19-C , 22-C ) :   1.0542 B( 22-C , 23-H ) :   0.9399
B( 22-C , 24-H ) :   0.9243 B( 22-C , 25-C ) :   1.0515 B( 25-C , 26-H ) :   0.9475
B( 25-C , 27-H ) :   0.9610 B( 25-C , 28-C ) :   1.0926 B( 28-C , 29-H ) :   0.9727
B( 28-C , 30-H ) :   0.9721 B( 28-C , 31-H ) :   0.9751

Dispersion correction           -0.013742014
FINAL SINGLE POINT ENERGY     -1339.858334205962

DIPOLE MOMENT
-------------
                                X             Y             Z
Electronic contribution:      6.93254     -14.59666       1.20632
Nuclear contribution   :     -6.98812      14.83634      -1.04426
                        -----------------------------------------
Total Dipole Moment    :     -0.05557       0.23967       0.16206
                        -----------------------------------------
Magnitude (a.u.)       :      0.29461
Magnitude (Debye)      :      0.74884

Rotational constants in cm-1:     0.022473     0.007223     0.005977
Rotational constants in MHz :   673.716416   216.532537   179.171301

                             ****ORCA TERMINATED NORMALLY****
TOTAL RUN TIME: 0 days 0 hours 0 minutes 19 seconds 778 msec
