                         Program Version 4.2.1 -  RELEASE  -
|  1> ! wB97X-D3 SP def2-SVP
|  2> %pal
|  3> nprocs 24
|  4> end
|  5>
|  6> * xyz 0 1
|  7> S 	 -75.1479 	 2.13281 	 -59.4977
|  8> C 	 -76.7475 	 2.76362 	 -59.5979
|  9> C 	 -77.5651 	 1.88868 	 -60.3114
| 10> C 	 -76.8917 	 0.733785 	 -60.7877
| 11> C 	 -75.5791 	 0.616975 	 -60.3075
| 12> H 	 -77.2269 	 -0.030419 	 -61.4645
| 13> C 	 -79.0187 	 2.14017 	 -60.8324
| 14> H 	 -79.4607 	 2.73589 	 -60.0082
| 15> H 	 -79.6175 	 1.18005 	 -60.6955
| 16> C 	 -79.1927 	 2.93427 	 -62.1181
| 17> H 	 -78.6394 	 3.8434 	 -62.0157
| 18> H 	 -78.6792 	 2.30557 	 -62.8718
| 19> C 	 -80.6391 	 3.14885 	 -62.6777
| 20> H 	 -81.2133 	 3.89829 	 -62.1268
| 21> H 	 -80.5362 	 3.46131 	 -63.742
| 22> H 	 -81.2051 	 2.22306 	 -62.5981
| 23> S 	 -73.0137 	 -0.193469 	 -61.0508
| 24> C 	 -72.5947 	 -1.87077 	 -61.0236
| 25> C 	 -73.5848 	 -2.61482 	 -60.391
| 26> C 	 -74.7451 	 -1.78045 	 -60.0886
| 27> C 	 -74.641 	 -0.46464 	 -60.4612
| 28> H 	 -73.413 	 -3.66913 	 -60.1108
| 29> C 	 -75.9407 	 -2.3883 	 -59.4821
| 30> H 	 -76.5869 	 -1.61135 	 -59.2215
| 31> H 	 -75.7266 	 -2.82902 	 -58.4691
| 32> C 	 -76.6666 	 -3.37268 	 -60.4055
| 33> H 	 -76.038 	 -4.21074 	 -60.7271
| 34> H 	 -76.9232 	 -2.80902 	 -61.3555
| 35> C 	 -77.9014 	 -3.84402 	 -59.7264
| 36> H 	 -78.7076 	 -3.04265 	 -59.8149
| 37> H 	 -77.731 	 -4.14648 	 -58.6529
| 38> H 	 -78.3386 	 -4.80404 	 -60.2754
| 39> H 	 -76.9387 	 3.80972 	 -59.3099
| 40> H 	 -71.6591 	 -2.25638 	 -61.3785
| 41> *
| 42>
| 43>                          ****END OF INPUT****

CARTESIAN COORDINATES (ANGSTROEM)
---------------------------------
  S    -75.147900    2.132810  -59.497700
  C    -76.747500    2.763620  -59.597900
  C    -77.565100    1.888680  -60.311400
  C    -76.891700    0.733785  -60.787700
  C    -75.579100    0.616975  -60.307500
  H    -77.226900   -0.030419  -61.464500
  C    -79.018700    2.140170  -60.832400
  H    -79.460700    2.735890  -60.008200
  H    -79.617500    1.180050  -60.695500
  C    -79.192700    2.934270  -62.118100
  H    -78.639400    3.843400  -62.015700
  H    -78.679200    2.305570  -62.871800
  C    -80.639100    3.148850  -62.677700
  H    -81.213300    3.898290  -62.126800
  H    -80.536200    3.461310  -63.742000
  H    -81.205100    2.223060  -62.598100
  S    -73.013700   -0.193469  -61.050800
  C    -72.594700   -1.870770  -61.023600
  C    -73.584800   -2.614820  -60.391000
  C    -74.745100   -1.780450  -60.088600
  C    -74.641000   -0.464640  -60.461200
  H    -73.413000   -3.669130  -60.110800
  C    -75.940700   -2.388300  -59.482100
  H    -76.586900   -1.611350  -59.221500
  H    -75.726600   -2.829020  -58.469100
  C    -76.666600   -3.372680  -60.405500
  H    -76.038000   -4.210740  -60.727100
  H    -76.923200   -2.809020  -61.355500
  C    -77.901400   -3.844020  -59.726400
  H    -78.707600   -3.042650  -59.814900
  H    -77.731000   -4.146480  -58.652900
  H    -78.338600   -4.804040  -60.275400
  H    -76.938700    3.809720  -59.309900
  H    -71.659100   -2.256380  -61.378500

 Total Charge           Charge          ....    0
 Multiplicity           Mult            ....    1
 Number of Electrons    NEL             ....  134
 Basis Dimension        Dim             ....  322

ORBITAL ENERGIES
----------------

  NO   OCC          E(Eh)            E(eV)
   0   2.0000     -88.966355     -2420.8976
   1   2.0000     -88.962822     -2420.8014
   2   2.0000     -10.332332      -281.1571
   3   2.0000     -10.324296      -280.9384
   4   2.0000     -10.320023      -280.8221
   5   2.0000     -10.319990      -280.8212
   6   2.0000     -10.307153      -280.4719
   7   2.0000     -10.301486      -280.3177
   8   2.0000     -10.299441      -280.2620
   9   2.0000     -10.298522      -280.2370
  10   2.0000     -10.296143      -280.1723
  11   2.0000     -10.292627      -280.0766
  12   2.0000     -10.289326      -279.9868
  13   2.0000     -10.288006      -279.9509
  14   2.0000     -10.285633      -279.8863
  15   2.0000     -10.281326      -279.7691
  16   2.0000      -8.081309      -219.9036
  17   2.0000      -8.078189      -219.8187
  18   2.0000      -6.039757      -164.3501
  19   2.0000      -6.036784      -164.2693
  20   2.0000      -6.035679      -164.2392
  21   2.0000      -6.032568      -164.1545
  22   2.0000      -6.032229      -164.1453
  23   2.0000      -6.028856      -164.0535
  24   2.0000      -1.008399       -27.4399
  25   2.0000      -0.985932       -26.8286
  26   2.0000      -0.916273       -24.9331
  27   2.0000      -0.904250       -24.6059
  28   2.0000      -0.872833       -23.7510
  29   2.0000      -0.851280       -23.1645
  30   2.0000      -0.845885       -23.0177
  31   2.0000      -0.814193       -22.1553
  32   2.0000      -0.778623       -21.1874
  33   2.0000      -0.766066       -20.8457
  34   2.0000      -0.702226       -19.1085
  35   2.0000      -0.698799       -19.0153
  36   2.0000      -0.693906       -18.8822
  37   2.0000      -0.661675       -18.0051
  38   2.0000      -0.646278       -17.5861
  39   2.0000      -0.617764       -16.8102
  40   2.0000      -0.598475       -16.2853
  41   2.0000      -0.566752       -15.4221
  42   2.0000      -0.564858       -15.3706
  43   2.0000      -0.555214       -15.1082
  44   2.0000      -0.529739       -14.4149
  45   2.0000      -0.523618       -14.2484
  46   2.0000      -0.515438       -14.0258
  47   2.0000      -0.511268       -13.9123
  48   2.0000      -0.508607       -13.8399
  49   2.0000      -0.506979       -13.7956
  50   2.0000      -0.495060       -13.4713
  51   2.0000      -0.471810       -12.8386
  52   2.0000      -0.470671       -12.8076
  53   2.0000      -0.464846       -12.6491
  54   2.0000      -0.458824       -12.4852
  55   2.0000      -0.448793       -12.2123
  56   2.0000      -0.443214       -12.0605
  57   2.0000      -0.440969       -11.9994
  58   2.0000      -0.431287       -11.7359
  59   2.0000      -0.420286       -11.4366
  60   2.0000      -0.417006       -11.3473
  61   2.0000      -0.412256       -11.2180
  62   2.0000      -0.404842       -11.0163
  63   2.0000      -0.348886        -9.4937
  64   2.0000      -0.332973        -9.0607
  65   2.0000      -0.325816        -8.8659
  66   2.0000      -0.294199        -8.0056
  67   0.0000       0.029007         0.7893
  68   0.0000       0.065476         1.7817
  69   0.0000       0.115218         3.1352
  70   0.0000       0.121288         3.3004
  71   0.0000       0.123325         3.3559

MULLIKEN ATOMIC CHARGES
-----------------------
   0 S :    0.112274
   1 C :   -0.134206
   2 C :   -0.088013
   3 C :    0.037752
   4 C :   -0.177255
   5 H :    0.014121
   6 C :    0.018713
   7 H :    0.015235
   8 H :    0.034479
   9 C :   -0.043470
  10 H :    0.025978
  11 H :    0.025272
  12 C :   -0.050173
  13 H :    0.035771
  14 H :    0.048881
  15 H :    0.031839
  16 S :    0.100361
  17 C :   -0.085565
  18 C :   -0.032459
  19 C :   -0.045382
  20 C :   -0.137969
  21 H :    0.036973
  22 C :    0.067426
  23 H :    0.000203
  24 H :    0.031175
  25 C :   -0.076010
  26 H :    0.032623
  27 H :    0.034851
  28 C :   -0.091663
  29 H :    0.045933
  30 H :    0.044231
  31 H :    0.044635
  32 H :    0.067960
  33 H :    0.055479
Sum of atomic charges:    0.0000000

LOEWDIN ATOMIC CHARGES
----------------------
   0 S :    0.413555
   1 C :   -0.208320
   2 C :   -0.068063
   3 C :   -0.059768
   4 C :   -0.186267
   5 H :    0.031473
   6 C :   -0.045183
   7 H :    0.026588
   8 H :    0.034659
   9 C :   -0.042241
  10 H :    0.022958
  11 H :    0.026400
  12 C :   -0.064419
  13 H :    0.023510
  14 H :    0.035092
  15 H :    0.025519
  16 S :    0.406651
  17 C :   -0.179345
  18 C :   -0.074446
  19 C :   -0.048793
  20 C :   -0.211093
  21 H :    0.038313
  22 C :   -0.037847
  23 H :    0.020217
  24 H :    0.036599
  25 C :   -0.047436
  26 H :    0.022304
  27 H :    0.030746
  28 C :   -0.080277
  29 H :    0.031839
  30 H :    0.028887
  31 H :    0.035010
  32 H :    0.035916
  33 H :    0.027262

  Mayer bond orders larger than 0.100000
B(  0-S ,  1-C ) :   1.1594 B(  0-S ,  4-C ) :   1.1581 B(  1-C ,  2-C ) :   1.5735
B(  1-C ,  4-C ) :   0.1085 B(  1-C , 32-H ) :   0.9697 B(  2-C ,  3-C ) :   1.2588
B(  2-C ,  6-C ) :   1.0210 B(  3-C ,  4-C ) :   1.5429 B(  3-C ,  5-H ) :   1.0004
B(  4-C , 20-C ) :   1.0615 B(  6-C ,  7-H ) :   0.9381 B(  6-C ,  8-H ) :   0.9426
B(  6-C ,  9-C ) :   1.0587 B(  9-C , 10-H ) :   0.9524 B(  9-C , 11-H ) :   0.9579
B(  9-C , 12-C ) :   1.0725 B( 12-C , 13-H ) :   0.9778 B( 12-C , 14-H ) :   0.9755
B( 12-C , 15-H ) :   0.9752 B( 16-S , 17-C ) :   1.1707 B( 16-S , 20-C ) :   1.1128
B( 17-C , 18-C ) :   1.5962 B( 17-C , 33-H ) :   0.9712 B( 18-C , 19-C ) :   1.2183
B( 18-C , 21-H ) :   0.9895 B( 19-C , 20-C ) :   1.6002 B( 19-C , 22-C ) :   1.0735
B( 22-C , 23-H ) :   0.9232 B( 22-C , 24-H ) :   0.9231 B( 22-C , 25-C ) :   1.0550
B( 25-C , 26-H ) :   0.9557 B( 25-C , 27-H ) :   0.9495 B( 25-C , 28-C ) :   1.0832
B( 28-C , 29-H ) :   0.9728 B( 28-C , 30-H ) :   0.9690 B( 28-C , 31-H ) :   0.9723

Dispersion correction           -0.013979721
FINAL SINGLE POINT ENERGY     -1339.880503927517

DIPOLE MOMENT
-------------
                                X             Y             Z
Electronic contribution:     28.41138       7.43540       4.98436
Nuclear contribution   :    -28.83021      -7.71274      -5.09004
                        -----------------------------------------
Total Dipole Moment    :     -0.41883      -0.27734      -0.10567
                        -----------------------------------------
Magnitude (a.u.)       :      0.51333
Magnitude (Debye)      :      1.30478

Rotational constants in cm-1:     0.017903     0.008243     0.006400
Rotational constants in MHz :   536.708604   247.109519   191.879055

                             ****ORCA TERMINATED NORMALLY****
TOTAL RUN TIME: 0 days 0 hours 0 minutes 21 seconds 405 msec
