                         Program Version 4.2.1 -  RELEASE  -
|  1> ! wB97X-D3 SP def2-SVP
|  2> %pal
|  3> nprocs 24
|  4> end
|  5>
|  6> * xyz 0 1
|  7> S 	 -122.251 	 33.9018 	 -122.539
|  8> C 	 -120.604 	 33.8028 	 -123.211
|  9> C 	 -119.687 	 33.6361 	 -122.176
| 10> C 	 -120.41 	 33.487 	 -120.949
| 11> C 	 -121.772 	 33.6841 	 -120.976
| 12> H 	 -119.962 	 33.3643 	 -119.907
| 13> C 	 -118.191 	 33.4588 	 -122.323
| 14> H 	 -118.018 	 33.0046 	 -123.293
| 15> H 	 -117.876 	 32.6606 	 -121.618
| 16> C 	 -117.375 	 34.7373 	 -122.178
| 17> H 	 -116.283 	 34.6518 	 -122.474
| 18> H 	 -117.783 	 35.4571 	 -122.916
| 19> C 	 -117.452 	 35.5261 	 -120.85
| 20> H 	 -117.552 	 34.8371 	 -120.045
| 21> H 	 -116.557 	 36.1326 	 -120.604
| 22> H 	 -118.298 	 36.2453 	 -120.78
| 23> S 	 -123.781 	 32.3293 	 -119.685
| 24> C 	 -124.758 	 33.1726 	 -118.545
| 25> C 	 -124.15 	 34.3553 	 -118.182
| 26> C 	 -122.866 	 34.5343 	 -118.8
| 27> C 	 -122.677 	 33.6734 	 -119.845
| 28> H 	 -124.554 	 34.9114 	 -117.356
| 29> C 	 -122.05 	 35.7945 	 -118.469
| 30> H 	 -122.759 	 36.6314 	 -118.689
| 31> H 	 -121.178 	 35.8381 	 -119.103
| 32> C 	 -121.626 	 35.825 	 -117.022
| 33> H 	 -121.279 	 34.8617 	 -116.699
| 34> H 	 -122.436 	 36.0082 	 -116.32
| 35> C 	 -120.479 	 36.8321 	 -116.823
| 36> H 	 -120.784 	 37.8468 	 -116.898
| 37> H 	 -119.678 	 36.7916 	 -117.508
| 38> H 	 -120.006 	 36.6073 	 -115.863
| 39> H 	 -120.369 	 33.7153 	 -124.264
| 40> H 	 -125.608 	 32.7721 	 -118.038
| 41> *
| 42>
| 43>                          ****END OF INPUT****

CARTESIAN COORDINATES (ANGSTROEM)
---------------------------------
  S    -122.251000   33.901800  -122.539000
  C    -120.604000   33.802800  -123.211000
  C    -119.687000   33.636100  -122.176000
  C    -120.410000   33.487000  -120.949000
  C    -121.772000   33.684100  -120.976000
  H    -119.962000   33.364300  -119.907000
  C    -118.191000   33.458800  -122.323000
  H    -118.018000   33.004600  -123.293000
  H    -117.876000   32.660600  -121.618000
  C    -117.375000   34.737300  -122.178000
  H    -116.283000   34.651800  -122.474000
  H    -117.783000   35.457100  -122.916000
  C    -117.452000   35.526100  -120.850000
  H    -117.552000   34.837100  -120.045000
  H    -116.557000   36.132600  -120.604000
  H    -118.298000   36.245300  -120.780000
  S    -123.781000   32.329300  -119.685000
  C    -124.758000   33.172600  -118.545000
  C    -124.150000   34.355300  -118.182000
  C    -122.866000   34.534300  -118.800000
  C    -122.677000   33.673400  -119.845000
  H    -124.554000   34.911400  -117.356000
  C    -122.050000   35.794500  -118.469000
  H    -122.759000   36.631400  -118.689000
  H    -121.178000   35.838100  -119.103000
  C    -121.626000   35.825000  -117.022000
  H    -121.279000   34.861700  -116.699000
  H    -122.436000   36.008200  -116.320000
  C    -120.479000   36.832100  -116.823000
  H    -120.784000   37.846800  -116.898000
  H    -119.678000   36.791600  -117.508000
  H    -120.006000   36.607300  -115.863000
  H    -120.369000   33.715300  -124.264000
  H    -125.608000   32.772100  -118.038000

 Total Charge           Charge          ....    0
 Multiplicity           Mult            ....    1
 Number of Electrons    NEL             ....  134
 Basis Dimension        Dim             ....  322

ORBITAL ENERGIES
----------------

  NO   OCC          E(Eh)            E(eV)
   0   2.0000     -88.964723     -2420.8532
   1   2.0000     -88.960488     -2420.7380
   2   2.0000     -10.322593      -280.8920
   3   2.0000     -10.320056      -280.8230
   4   2.0000     -10.317428      -280.7515
   5   2.0000     -10.314117      -280.6614
   6   2.0000     -10.304833      -280.4088
   7   2.0000     -10.302310      -280.3401
   8   2.0000     -10.297940      -280.2212
   9   2.0000     -10.294232      -280.1203
  10   2.0000     -10.293636      -280.1041
  11   2.0000     -10.290798      -280.0269
  12   2.0000     -10.290511      -280.0190
  13   2.0000     -10.283579      -279.8304
  14   2.0000     -10.279042      -279.7069
  15   2.0000     -10.270884      -279.4850
  16   2.0000      -8.080888      -219.8921
  17   2.0000      -8.076191      -219.7643
  18   2.0000      -6.039227      -164.3357
  19   2.0000      -6.035038      -164.2217
  20   2.0000      -6.034666      -164.2116
  21   2.0000      -6.031846      -164.1349
  22   2.0000      -6.030551      -164.0996
  23   2.0000      -6.026934      -164.0012
  24   2.0000      -1.015981       -27.6463
  25   2.0000      -0.991386       -26.9770
  26   2.0000      -0.914289       -24.8791
  27   2.0000      -0.912287       -24.8246
  28   2.0000      -0.870023       -23.6745
  29   2.0000      -0.850143       -23.1336
  30   2.0000      -0.842202       -22.9175
  31   2.0000      -0.812533       -22.1101
  32   2.0000      -0.788183       -21.4475
  33   2.0000      -0.776819       -21.1383
  34   2.0000      -0.707668       -19.2566
  35   2.0000      -0.700499       -19.0615
  36   2.0000      -0.699196       -19.0261
  37   2.0000      -0.659299       -17.9404
  38   2.0000      -0.641915       -17.4674
  39   2.0000      -0.612493       -16.6668
  40   2.0000      -0.596516       -16.2320
  41   2.0000      -0.574336       -15.6285
  42   2.0000      -0.566926       -15.4268
  43   2.0000      -0.547661       -14.9026
  44   2.0000      -0.545714       -14.8496
  45   2.0000      -0.528685       -14.3862
  46   2.0000      -0.518114       -14.0986
  47   2.0000      -0.512138       -13.9360
  48   2.0000      -0.504404       -13.7255
  49   2.0000      -0.501258       -13.6399
  50   2.0000      -0.490584       -13.3495
  51   2.0000      -0.480836       -13.0842
  52   2.0000      -0.472537       -12.8584
  53   2.0000      -0.466238       -12.6870
  54   2.0000      -0.463152       -12.6030
  55   2.0000      -0.447658       -12.1814
  56   2.0000      -0.444533       -12.0964
  57   2.0000      -0.441368       -12.0102
  58   2.0000      -0.428313       -11.6550
  59   2.0000      -0.424855       -11.5609
  60   2.0000      -0.422974       -11.5097
  61   2.0000      -0.409850       -11.1526
  62   2.0000      -0.408058       -11.1038
  63   2.0000      -0.336440        -9.1550
  64   2.0000      -0.330704        -8.9989
  65   2.0000      -0.324013        -8.8168
  66   2.0000      -0.306073        -8.3287
  67   0.0000       0.039314         1.0698
  68   0.0000       0.065716         1.7882
  69   0.0000       0.111260         3.0275
  70   0.0000       0.122591         3.3359
  71   0.0000       0.127667         3.4740

MULLIKEN ATOMIC CHARGES
-----------------------
   0 S :    0.126358
   1 C :   -0.132763
   2 C :   -0.093460
   3 C :    0.011184
   4 C :   -0.169466
   5 H :    0.026885
   6 C :    0.085023
   7 H :    0.020697
   8 H :    0.036177
   9 C :   -0.087943
  10 H :    0.044784
  11 H :    0.029181
  12 C :   -0.063459
  13 H :    0.015414
  14 H :    0.036689
  15 H :    0.044301
  16 S :    0.110609
  17 C :   -0.076882
  18 C :   -0.040638
  19 C :   -0.021175
  20 C :   -0.183955
  21 H :    0.017797
  22 C :    0.082761
  23 H :    0.047349
  24 H :    0.017757
  25 C :   -0.080486
  26 H :    0.019537
  27 H :    0.027104
  28 C :   -0.016165
  29 H :    0.022426
  30 H :    0.012460
  31 H :    0.028753
  32 H :    0.051517
  33 H :    0.051633
Sum of atomic charges:    0.0000000

LOEWDIN ATOMIC CHARGES
----------------------
   0 S :    0.448617
   1 C :   -0.191951
   2 C :   -0.062947
   3 C :   -0.078452
   4 C :   -0.239687
   5 H :    0.036537
   6 C :   -0.032663
   7 H :    0.033427
   8 H :    0.035313
   9 C :   -0.050682
  10 H :    0.032541
  11 H :    0.028850
  12 C :   -0.073577
  13 H :    0.015078
  14 H :    0.031826
  15 H :    0.029278
  16 S :    0.412935
  17 C :   -0.182930
  18 C :   -0.075132
  19 C :   -0.048539
  20 C :   -0.206413
  21 H :    0.028096
  22 C :   -0.026856
  23 H :    0.040664
  24 H :    0.025755
  25 C :   -0.038920
  26 H :    0.021719
  27 H :    0.023833
  28 C :   -0.059491
  29 H :    0.021160
  30 H :    0.018066
  31 H :    0.028968
  32 H :    0.028650
  33 H :    0.026932

  Mayer bond orders larger than 0.100000
B(  0-S ,  1-C ) :   1.1548 B(  0-S ,  4-C ) :   1.1867 B(  1-C ,  2-C ) :   1.5793
B(  1-C , 32-H ) :   0.9705 B(  2-C ,  3-C ) :   1.2634 B(  2-C ,  6-C ) :   1.0130
B(  3-C ,  4-C ) :   1.5649 B(  3-C ,  5-H ) :   0.9827 B(  4-C , 20-C ) :   1.0046
B(  6-C ,  7-H ) :   0.9379 B(  6-C ,  8-H ) :   0.9446 B(  6-C ,  9-C ) :   1.0733
B(  9-C , 10-H ) :   0.9602 B(  9-C , 11-H ) :   0.9558 B(  9-C , 12-C ) :   1.0639
B( 12-C , 13-H ) :   0.9784 B( 12-C , 14-H ) :   0.9742 B( 12-C , 15-H ) :   0.9763
B( 16-S , 17-C ) :   1.1601 B( 16-S , 20-C ) :   1.1441 B( 17-C , 18-C ) :   1.6130
B( 17-C , 33-H ) :   0.9713 B( 18-C , 19-C ) :   1.2234 B( 18-C , 21-H ) :   0.9894
B( 19-C , 20-C ) :   1.6064 B( 19-C , 22-C ) :   1.0489 B( 22-C , 23-H ) :   0.9357
B( 22-C , 24-H ) :   0.9393 B( 22-C , 25-C ) :   1.0576 B( 25-C , 26-H ) :   0.9592
B( 25-C , 27-H ) :   0.9496 B( 25-C , 28-C ) :   1.0886 B( 28-C , 29-H ) :   0.9730
B( 28-C , 30-H ) :   0.9748 B( 28-C , 31-H ) :   0.9741

Dispersion correction           -0.014581581
FINAL SINGLE POINT ENERGY     -1339.874417309786

DIPOLE MOMENT
-------------
                                X             Y             Z
Electronic contribution:    -23.25976     -16.04621     -11.43546
Nuclear contribution   :     23.69709      16.30230      11.77495
                        -----------------------------------------
Total Dipole Moment    :      0.43733       0.25608       0.33949
                        -----------------------------------------
Magnitude (a.u.)       :      0.60999
Magnitude (Debye)      :      1.55047

Rotational constants in cm-1:     0.016932     0.010008     0.006867
Rotational constants in MHz :   507.602575   300.024067   205.879524

                             ****ORCA TERMINATED NORMALLY****
TOTAL RUN TIME: 0 days 0 hours 0 minutes 21 seconds 974 msec
