                         Program Version 4.2.1 -  RELEASE  -
|  1> ! wB97X-D3 SP def2-SVP
|  2> %pal
|  3> nprocs 24
|  4> end
|  5>
|  6> * xyz 0 1
|  7> S 	 -139.854 	 10.077 	 1.84832
|  8> C 	 -141.094 	 9.36747 	 0.815699
|  9> C 	 -140.522 	 8.48619 	 -0.0479331
| 10> C 	 -139.06 	 8.4977 	 -0.0212159
| 11> C 	 -138.5 	 9.39967 	 0.898532
| 12> H 	 -138.389 	 8.02883 	 -0.749021
| 13> C 	 -141.241 	 7.73203 	 -1.09368
| 14> H 	 -140.662 	 7.67525 	 -2.03693
| 15> H 	 -142.072 	 8.2949 	 -1.39577
| 16> C 	 -141.622 	 6.28288 	 -0.729853
| 17> H 	 -140.665 	 5.72151 	 -0.723608
| 18> H 	 -142.125 	 6.34519 	 0.234129
| 19> C 	 -142.67 	 5.62302 	 -1.71367
| 20> H 	 -142.585 	 4.56575 	 -1.60027
| 21> H 	 -143.722 	 5.92921 	 -1.62168
| 22> H 	 -142.326 	 5.96317 	 -2.65752
| 23> S 	 -136.47 	 11.3371 	 1.02142
| 24> C 	 -134.827 	 10.7663 	 1.14006
| 25> C 	 -134.754 	 9.42356 	 1.30943
| 26> C 	 -136.009 	 8.81135 	 1.31885
| 27> C 	 -137.105 	 9.64328 	 1.10524
| 28> H 	 -133.837 	 8.91118 	 1.45613
| 29> C 	 -136.034 	 7.30282 	 1.44514
| 30> H 	 -136.991 	 6.98074 	 1.74795
| 31> H 	 -135.395 	 6.9868 	 2.26427
| 32> C 	 -135.491 	 6.68419 	 0.163124
| 33> H 	 -134.392 	 6.57613 	 0.286532
| 34> H 	 -135.657 	 7.21752 	 -0.675474
| 35> C 	 -136.002 	 5.23744 	 0.00171041
| 36> H 	 -135.537 	 4.69369 	 -0.775721
| 37> H 	 -137.139 	 5.22658 	 -0.17358
| 38> H 	 -135.824 	 4.6907 	 0.942874
| 39> H 	 -142.183 	 9.57779 	 0.771537
| 40> H 	 -133.975 	 11.4949 	 1.08096
| 41> *
| 42>
| 43>                          ****END OF INPUT****

CARTESIAN COORDINATES (ANGSTROEM)
---------------------------------
  S    -139.854000   10.077000    1.848320
  C    -141.094000    9.367470    0.815699
  C    -140.522000    8.486190   -0.047933
  C    -139.060000    8.497700   -0.021216
  C    -138.500000    9.399670    0.898532
  H    -138.389000    8.028830   -0.749021
  C    -141.241000    7.732030   -1.093680
  H    -140.662000    7.675250   -2.036930
  H    -142.072000    8.294900   -1.395770
  C    -141.622000    6.282880   -0.729853
  H    -140.665000    5.721510   -0.723608
  H    -142.125000    6.345190    0.234129
  C    -142.670000    5.623020   -1.713670
  H    -142.585000    4.565750   -1.600270
  H    -143.722000    5.929210   -1.621680
  H    -142.326000    5.963170   -2.657520
  S    -136.470000   11.337100    1.021420
  C    -134.827000   10.766300    1.140060
  C    -134.754000    9.423560    1.309430
  C    -136.009000    8.811350    1.318850
  C    -137.105000    9.643280    1.105240
  H    -133.837000    8.911180    1.456130
  C    -136.034000    7.302820    1.445140
  H    -136.991000    6.980740    1.747950
  H    -135.395000    6.986800    2.264270
  C    -135.491000    6.684190    0.163124
  H    -134.392000    6.576130    0.286532
  H    -135.657000    7.217520   -0.675474
  C    -136.002000    5.237440    0.001710
  H    -135.537000    4.693690   -0.775721
  H    -137.139000    5.226580   -0.173580
  H    -135.824000    4.690700    0.942874
  H    -142.183000    9.577790    0.771537
  H    -133.975000   11.494900    1.080960

 Total Charge           Charge          ....    0
 Multiplicity           Mult            ....    1
 Number of Electrons    NEL             ....  134
 Basis Dimension        Dim             ....  322

ORBITAL ENERGIES
----------------

  NO   OCC          E(Eh)            E(eV)
   0   2.0000     -88.963872     -2420.8300
   1   2.0000     -88.962996     -2420.8062
   2   2.0000     -10.333824      -281.1976
   3   2.0000     -10.329637      -281.0837
   4   2.0000     -10.323194      -280.9084
   5   2.0000     -10.316890      -280.7368
   6   2.0000     -10.303092      -280.3614
   7   2.0000     -10.299399      -280.2609
   8   2.0000     -10.299167      -280.2546
   9   2.0000     -10.289968      -280.0043
  10   2.0000     -10.287642      -279.9410
  11   2.0000     -10.285009      -279.8693
  12   2.0000     -10.284053      -279.8433
  13   2.0000     -10.282112      -279.7905
  14   2.0000     -10.281665      -279.7783
  15   2.0000     -10.277491      -279.6647
  16   2.0000      -8.077758      -219.8070
  17   2.0000      -8.077402      -219.7973
  18   2.0000      -6.036592      -164.2640
  19   2.0000      -6.035929      -164.2460
  20   2.0000      -6.032330      -164.1481
  21   2.0000      -6.031991      -164.1388
  22   2.0000      -6.028253      -164.0371
  23   2.0000      -6.028117      -164.0334
  24   2.0000      -1.003368       -27.3030
  25   2.0000      -0.982935       -26.7470
  26   2.0000      -0.915152       -24.9025
  27   2.0000      -0.911366       -24.7995
  28   2.0000      -0.872807       -23.7503
  29   2.0000      -0.850785       -23.1510
  30   2.0000      -0.842036       -22.9130
  31   2.0000      -0.813737       -22.1429
  32   2.0000      -0.781284       -21.2598
  33   2.0000      -0.771177       -20.9848
  34   2.0000      -0.710711       -19.3394
  35   2.0000      -0.703097       -19.1323
  36   2.0000      -0.697449       -18.9786
  37   2.0000      -0.663998       -18.0683
  38   2.0000      -0.638716       -17.3803
  39   2.0000      -0.616323       -16.7710
  40   2.0000      -0.602410       -16.3924
  41   2.0000      -0.576046       -15.6750
  42   2.0000      -0.568626       -15.4731
  43   2.0000      -0.558818       -15.2062
  44   2.0000      -0.531714       -14.4687
  45   2.0000      -0.527065       -14.3422
  46   2.0000      -0.523200       -14.2370
  47   2.0000      -0.511425       -13.9166
  48   2.0000      -0.507977       -13.8227
  49   2.0000      -0.499817       -13.6007
  50   2.0000      -0.491493       -13.3742
  51   2.0000      -0.478812       -13.0291
  52   2.0000      -0.472867       -12.8674
  53   2.0000      -0.466619       -12.6973
  54   2.0000      -0.462717       -12.5912
  55   2.0000      -0.449366       -12.2279
  56   2.0000      -0.444018       -12.0823
  57   2.0000      -0.437224       -11.8975
  58   2.0000      -0.429519       -11.6878
  59   2.0000      -0.424387       -11.5482
  60   2.0000      -0.418964       -11.4006
  61   2.0000      -0.416181       -11.3248
  62   2.0000      -0.410677       -11.1751
  63   2.0000      -0.345460        -9.4005
  64   2.0000      -0.332306        -9.0425
  65   2.0000      -0.325192        -8.8489
  66   2.0000      -0.295967        -8.0537
  67   0.0000       0.025161         0.6847
  68   0.0000       0.067679         1.8417
  69   0.0000       0.116230         3.1628
  70   0.0000       0.117236         3.1901
  71   0.0000       0.120949         3.2912

MULLIKEN ATOMIC CHARGES
-----------------------
   0 S :    0.101515
   1 C :   -0.123937
   2 C :   -0.072717
   3 C :    0.018476
   4 C :   -0.144699
   5 H :    0.020694
   6 C :    0.048094
   7 H :    0.022240
   8 H :    0.000537
   9 C :   -0.091458
  10 H :    0.039334
  11 H :    0.031440
  12 C :   -0.024892
  13 H :    0.037249
  14 H :    0.041204
  15 H :    0.013920
  16 S :    0.092150
  17 C :   -0.098349
  18 C :   -0.012553
  19 C :   -0.039077
  20 C :   -0.170590
  21 H :    0.007319
  22 C :    0.102324
  23 H :    0.013164
  24 H :    0.021371
  25 C :   -0.051404
  26 H :    0.030519
  27 H :    0.016795
  28 C :   -0.066279
  29 H :    0.028586
  30 H :    0.039902
  31 H :    0.029260
  32 H :    0.062215
  33 H :    0.077646
Sum of atomic charges:    0.0000000

LOEWDIN ATOMIC CHARGES
----------------------
   0 S :    0.380148
   1 C :   -0.195526
   2 C :   -0.066496
   3 C :   -0.059872
   4 C :   -0.185805
   5 H :    0.032318
   6 C :   -0.040676
   7 H :    0.031014
   8 H :    0.020119
   9 C :   -0.033824
  10 H :    0.028218
  11 H :    0.022061
  12 C :   -0.060534
  13 H :    0.024962
  14 H :    0.028839
  15 H :    0.017130
  16 S :    0.382287
  17 C :   -0.172775
  18 C :   -0.076760
  19 C :   -0.040326
  20 C :   -0.193543
  21 H :    0.029712
  22 C :   -0.022603
  23 H :    0.021061
  24 H :    0.033302
  25 C :   -0.028940
  26 H :    0.029888
  27 H :    0.005839
  28 C :   -0.064049
  29 H :    0.016549
  30 H :    0.029964
  31 H :    0.026054
  32 H :    0.042621
  33 H :    0.039643

  Mayer bond orders larger than 0.100000
B(  0-S ,  1-C ) :   1.1179 B(  0-S ,  4-C ) :   1.1242 B(  1-C ,  2-C ) :   1.6362
B(  1-C , 32-H ) :   0.9614 B(  2-C ,  3-C ) :   1.2110 B(  2-C ,  6-C ) :   1.0424
B(  3-C ,  4-C ) :   1.5818 B(  3-C ,  5-H ) :   0.9909 B(  4-C , 20-C ) :   1.0875
B(  6-C ,  7-H ) :   0.9364 B(  6-C ,  8-H ) :   0.9396 B(  6-C ,  9-C ) :   1.0554
B(  9-C , 10-H ) :   0.9579 B(  9-C , 11-H ) :   0.9611 B(  9-C , 12-C ) :   1.0696
B( 12-C , 13-H ) :   0.9765 B( 12-C , 14-H ) :   0.9776 B( 12-C , 15-H ) :   0.9757
B( 16-S , 17-C ) :   1.1734 B( 16-S , 20-C ) :   1.1052 B( 17-C , 18-C ) :   1.5833
B( 17-C , 33-H ) :   0.9593 B( 18-C , 19-C ) :   1.2404 B( 18-C , 21-H ) :   1.0041
B( 19-C , 20-C ) :   1.5864 B( 19-C , 22-C ) :   1.0583 B( 22-C , 23-H ) :   0.9423
B( 22-C , 24-H ) :   0.9248 B( 22-C , 25-C ) :   1.0430 B( 25-C , 26-H ) :   0.9476
B( 25-C , 27-H ) :   0.9668 B( 25-C , 28-C ) :   1.0896 B( 28-C , 29-H ) :   0.9754
B( 28-C , 30-H ) :   0.9765 B( 28-C , 31-H ) :   0.9712

Dispersion correction           -0.014190366
FINAL SINGLE POINT ENERGY     -1339.870771971950

DIPOLE MOMENT
-------------
                                X             Y             Z
Electronic contribution:      5.40900      28.87080      12.73800
Nuclear contribution   :     -5.17488     -29.48008     -13.12785
                        -----------------------------------------
Total Dipole Moment    :      0.23413      -0.60928      -0.38985
                        -----------------------------------------
Magnitude (a.u.)       :      0.76028
Magnitude (Debye)      :      1.93248

Rotational constants in cm-1:     0.018513     0.008620     0.006313
Rotational constants in MHz :   554.991153   258.421668   189.263402

                             ****ORCA TERMINATED NORMALLY****
TOTAL RUN TIME: 0 days 0 hours 0 minutes 21 seconds 552 msec
