                         Program Version 4.2.1 -  RELEASE  -
|  1> ! wB97X-D3 SP def2-SVP
|  2> %pal
|  3> nprocs 24
|  4> end
|  5>
|  6> * xyz 0 1
|  7> S 	 -99.6916 	 4.53271 	 -4.37245
|  8> C 	 -98.5574 	 5.65025 	 -3.65398
|  9> C 	 -98.8923 	 6.9561 	 -3.99842
| 10> C 	 -100.205 	 6.93147 	 -4.58327
| 11> C 	 -100.838 	 5.74346 	 -4.63427
| 12> H 	 -100.709 	 7.79685 	 -4.89075
| 13> C 	 -98.083 	 8.25854 	 -3.84982
| 14> H 	 -98.8086 	 8.89484 	 -3.4328
| 15> H 	 -97.8484 	 8.69529 	 -4.78033
| 16> C 	 -96.8256 	 8.20312 	 -2.99329
| 17> H 	 -96.2246 	 7.36709 	 -3.17049
| 18> H 	 -96.2819 	 9.14011 	 -3.03678
| 19> C 	 -97.1834 	 7.97462 	 -1.51931
| 20> H 	 -97.8704 	 8.71522 	 -1.1338
| 21> H 	 -97.7833 	 7.06123 	 -1.40037
| 22> H 	 -96.228 	 7.86647 	 -0.945186
| 23> S 	 -102.847 	 6.11088 	 -6.49099
| 24> C 	 -104.353 	 5.19534 	 -6.41049
| 25> C 	 -104.457 	 4.54775 	 -5.21902
| 26> C 	 -103.232 	 4.59481 	 -4.43399
| 27> C 	 -102.246 	 5.43287 	 -4.97796
| 28> H 	 -105.357 	 3.97322 	 -5.00537
| 29> C 	 -102.976 	 3.80633 	 -3.20032
| 30> H 	 -102.036 	 3.32986 	 -3.25684
| 31> H 	 -103.632 	 3.00847 	 -3.3636
| 32> C 	 -103.32 	 4.46908 	 -1.89988
| 33> H 	 -102.546 	 5.15128 	 -1.61564
| 34> H 	 -103.138 	 3.63468 	 -1.19098
| 35> C 	 -104.733 	 4.99035 	 -1.65644
| 36> H 	 -105.492 	 4.17314 	 -1.87163
| 37> H 	 -104.957 	 5.83755 	 -2.32341
| 38> H 	 -104.909 	 5.17665 	 -0.602669
| 39> H 	 -97.5559 	 5.43365 	 -3.31113
| 40> H 	 -105.146 	 5.48265 	 -7.1176
| 41> *
| 42>
| 43>                          ****END OF INPUT****

CARTESIAN COORDINATES (ANGSTROEM)
---------------------------------
  S    -99.691600    4.532710   -4.372450
  C    -98.557400    5.650250   -3.653980
  C    -98.892300    6.956100   -3.998420
  C    -100.205000    6.931470   -4.583270
  C    -100.838000    5.743460   -4.634270
  H    -100.709000    7.796850   -4.890750
  C    -98.083000    8.258540   -3.849820
  H    -98.808600    8.894840   -3.432800
  H    -97.848400    8.695290   -4.780330
  C    -96.825600    8.203120   -2.993290
  H    -96.224600    7.367090   -3.170490
  H    -96.281900    9.140110   -3.036780
  C    -97.183400    7.974620   -1.519310
  H    -97.870400    8.715220   -1.133800
  H    -97.783300    7.061230   -1.400370
  H    -96.228000    7.866470   -0.945186
  S    -102.847000    6.110880   -6.490990
  C    -104.353000    5.195340   -6.410490
  C    -104.457000    4.547750   -5.219020
  C    -103.232000    4.594810   -4.433990
  C    -102.246000    5.432870   -4.977960
  H    -105.357000    3.973220   -5.005370
  C    -102.976000    3.806330   -3.200320
  H    -102.036000    3.329860   -3.256840
  H    -103.632000    3.008470   -3.363600
  C    -103.320000    4.469080   -1.899880
  H    -102.546000    5.151280   -1.615640
  H    -103.138000    3.634680   -1.190980
  C    -104.733000    4.990350   -1.656440
  H    -105.492000    4.173140   -1.871630
  H    -104.957000    5.837550   -2.323410
  H    -104.909000    5.176650   -0.602669
  H    -97.555900    5.433650   -3.311130
  H    -105.146000    5.482650   -7.117600

 Total Charge           Charge          ....    0
 Multiplicity           Mult            ....    1
 Number of Electrons    NEL             ....  134
 Basis Dimension        Dim             ....  322

ORBITAL ENERGIES
----------------

  NO   OCC          E(Eh)            E(eV)
   0   2.0000     -88.963536     -2420.8209
   1   2.0000     -88.959227     -2420.7036
   2   2.0000     -10.330164      -281.0980
   3   2.0000     -10.325429      -280.9692
   4   2.0000     -10.320203      -280.8270
   5   2.0000     -10.312425      -280.6154
   6   2.0000     -10.305471      -280.4261
   7   2.0000     -10.305464      -280.4259
   8   2.0000     -10.299338      -280.2592
   9   2.0000     -10.290165      -280.0096
  10   2.0000     -10.284969      -279.8682
  11   2.0000     -10.283229      -279.8209
  12   2.0000     -10.281912      -279.7851
  13   2.0000     -10.279646      -279.7234
  14   2.0000     -10.275892      -279.6212
  15   2.0000     -10.274338      -279.5789
  16   2.0000      -8.079355      -219.8504
  17   2.0000      -8.074016      -219.7051
  18   2.0000      -6.037883      -164.2991
  19   2.0000      -6.033868      -164.1899
  20   2.0000      -6.032517      -164.1531
  21   2.0000      -6.029858      -164.0808
  22   2.0000      -6.028450      -164.0425
  23   2.0000      -6.024846      -163.9444
  24   2.0000      -1.013342       -27.5744
  25   2.0000      -0.986160       -26.8348
  26   2.0000      -0.919317       -25.0159
  27   2.0000      -0.913829       -24.8665
  28   2.0000      -0.869389       -23.6573
  29   2.0000      -0.850863       -23.1532
  30   2.0000      -0.842978       -22.9386
  31   2.0000      -0.815999       -22.2044
  32   2.0000      -0.789102       -21.4726
  33   2.0000      -0.778109       -21.1734
  34   2.0000      -0.709179       -19.2977
  35   2.0000      -0.706353       -19.2209
  36   2.0000      -0.687722       -18.7139
  37   2.0000      -0.664272       -18.0758
  38   2.0000      -0.640163       -17.4197
  39   2.0000      -0.616008       -16.7624
  40   2.0000      -0.593471       -16.1492
  41   2.0000      -0.584441       -15.9035
  42   2.0000      -0.556736       -15.1495
  43   2.0000      -0.554493       -15.0885
  44   2.0000      -0.548036       -14.9128
  45   2.0000      -0.542170       -14.7532
  46   2.0000      -0.524499       -14.2724
  47   2.0000      -0.512990       -13.9592
  48   2.0000      -0.505465       -13.7544
  49   2.0000      -0.496803       -13.5187
  50   2.0000      -0.490631       -13.3507
  51   2.0000      -0.477360       -12.9896
  52   2.0000      -0.475702       -12.9445
  53   2.0000      -0.469213       -12.7679
  54   2.0000      -0.455283       -12.3889
  55   2.0000      -0.447357       -12.1732
  56   2.0000      -0.441478       -12.0132
  57   2.0000      -0.437916       -11.9163
  58   2.0000      -0.430155       -11.7051
  59   2.0000      -0.425385       -11.5753
  60   2.0000      -0.423813       -11.5325
  61   2.0000      -0.421370       -11.4661
  62   2.0000      -0.399431       -10.8691
  63   2.0000      -0.347262        -9.4495
  64   2.0000      -0.326664        -8.8890
  65   2.0000      -0.323907        -8.8139
  66   2.0000      -0.298750        -8.1294
  67   0.0000       0.028322         0.7707
  68   0.0000       0.073516         2.0005
  69   0.0000       0.105405         2.8682
  70   0.0000       0.123154         3.3512
  71   0.0000       0.125506         3.4152

MULLIKEN ATOMIC CHARGES
-----------------------
   0 S :    0.118766
   1 C :   -0.125514
   2 C :   -0.119327
   3 C :    0.021227
   4 C :   -0.114648
   5 H :   -0.020003
   6 C :    0.114921
   7 H :    0.014741
   8 H :    0.032280
   9 C :   -0.036312
  10 H :    0.018440
  11 H :    0.034828
  12 C :   -0.093574
  13 H :    0.024138
  14 H :    0.031161
  15 H :    0.044956
  16 S :    0.076451
  17 C :   -0.102041
  18 C :   -0.028581
  19 C :   -0.101636
  20 C :   -0.129726
  21 H :    0.028849
  22 C :    0.138444
  23 H :    0.013258
  24 H :   -0.014999
  25 C :   -0.054068
  26 H :    0.027447
  27 H :    0.020771
  28 C :   -0.054074
  29 H :    0.023192
  30 H :    0.053698
  31 H :    0.039028
  32 H :    0.041697
  33 H :    0.076210
Sum of atomic charges:   -0.0000000

LOEWDIN ATOMIC CHARGES
----------------------
   0 S :    0.435341
   1 C :   -0.207493
   2 C :   -0.051214
   3 C :   -0.064805
   4 C :   -0.208259
   5 H :    0.017171
   6 C :   -0.021553
   7 H :    0.028710
   8 H :    0.030633
   9 C :   -0.035539
  10 H :    0.017086
  11 H :    0.029520
  12 C :   -0.069190
  13 H :    0.019666
  14 H :    0.024183
  15 H :    0.030510
  16 S :    0.385675
  17 C :   -0.178655
  18 C :   -0.074525
  19 C :   -0.051742
  20 C :   -0.191982
  21 H :    0.036008
  22 C :   -0.035877
  23 H :    0.023047
  24 H :    0.023373
  25 C :   -0.040255
  26 H :    0.022119
  27 H :    0.029305
  28 C :   -0.067511
  29 H :    0.028813
  30 H :    0.029406
  31 H :    0.029356
  32 H :    0.023865
  33 H :    0.034815

  Mayer bond orders larger than 0.100000
B(  0-S ,  1-C ) :   1.1386 B(  0-S ,  4-C ) :   1.1583 B(  1-C ,  2-C ) :   1.6133
B(  1-C , 32-H ) :   0.9623 B(  2-C ,  3-C ) :   1.2492 B(  2-C ,  6-C ) :   0.9861
B(  3-C ,  4-C ) :   1.5850 B(  3-C ,  5-H ) :   1.0090 B(  4-C , 20-C ) :   1.0112
B(  6-C ,  7-H ) :   0.9380 B(  6-C ,  8-H ) :   0.9377 B(  6-C ,  9-C ) :   1.0889
B(  9-C , 10-H ) :   0.9550 B(  9-C , 11-H ) :   0.9525 B(  9-C , 12-C ) :   1.0721
B( 12-C , 13-H ) :   0.9742 B( 12-C , 14-H ) :   0.9755 B( 12-C , 15-H ) :   0.9752
B( 16-S , 17-C ) :   1.1565 B( 16-S , 20-C ) :   1.1364 B( 17-C , 18-C ) :   1.6179
B( 17-C , 33-H ) :   0.9607 B( 18-C , 19-C ) :   1.2279 B( 18-C , 21-H ) :   0.9885
B( 19-C , 20-C ) :   1.5904 B( 19-C , 22-C ) :   1.0398 B( 22-C , 23-H ) :   0.9225
B( 22-C , 24-H ) :   0.9091 B( 22-C , 25-C ) :   1.0784 B( 25-C , 26-H ) :   0.9542
B( 25-C , 27-H ) :   0.9484 B( 25-C , 28-C ) :   1.0790 B( 28-C , 29-H ) :   0.9710
B( 28-C , 30-H ) :   0.9725 B( 28-C , 31-H ) :   0.9720

Dispersion correction           -0.014558956
FINAL SINGLE POINT ENERGY     -1339.861278149380

DIPOLE MOMENT
-------------
                                X             Y             Z
Electronic contribution:     -4.03522      -6.15195     -20.59523
Nuclear contribution   :      3.99664       6.35093      20.87294
                        -----------------------------------------
Total Dipole Moment    :     -0.03858       0.19898       0.27772
                        -----------------------------------------
Magnitude (a.u.)       :      0.34381
Magnitude (Debye)      :      0.87390

Rotational constants in cm-1:     0.022448     0.007780     0.006747
Rotational constants in MHz :   672.988568   233.229360   202.261034

                             ****ORCA TERMINATED NORMALLY****
TOTAL RUN TIME: 0 days 0 hours 0 minutes 21 seconds 696 msec
