                         Program Version 4.2.1 -  RELEASE  -
|  1> ! wB97X-D3 SP def2-SVP
|  2> %pal
|  3> nprocs 24
|  4> end
|  5>
|  6> * xyz 0 1
|  7> S 	 -136.397 	 11.3211 	 -2.59099
|  8> C 	 -135.952 	 9.79933 	 -1.84352
|  9> C 	 -134.759 	 9.86114 	 -1.07713
| 10> C 	 -134.157 	 11.143 	 -1.23858
| 11> C 	 -134.831 	 11.9897 	 -2.12629
| 12> H 	 -133.234 	 11.4372 	 -0.774884
| 13> C 	 -134.304 	 8.87709 	 -0.0834376
| 14> H 	 -134.736 	 9.22983 	 0.843186
| 15> H 	 -133.259 	 9.04594 	 0.0138798
| 16> C 	 -134.54 	 7.37305 	 -0.433487
| 17> H 	 -135.519 	 7.14708 	 -0.905014
| 18> H 	 -133.679 	 7.26171 	 -1.20338
| 19> C 	 -134.149 	 6.51874 	 0.843109
| 20> H 	 -133.096 	 6.62896 	 1.25471
| 21> H 	 -134.874 	 6.81224 	 1.61389
| 22> H 	 -134.404 	 5.43919 	 0.713955
| 23> S 	 -135.741 	 14.5988 	 -2.48392
| 24> C 	 -134.557 	 15.7409 	 -3.09153
| 25> C 	 -133.275 	 15.2483 	 -3.20251
| 26> C 	 -133.202 	 13.8703 	 -2.89482
| 27> C 	 -134.444 	 13.3468 	 -2.49214
| 28> H 	 -132.365 	 15.8407 	 -3.52045
| 29> C 	 -131.947 	 12.972 	 -2.99622
| 30> H 	 -132.189 	 12.1724 	 -3.75538
| 31> H 	 -131.699 	 12.5266 	 -1.97409
| 32> C 	 -130.673 	 13.7536 	 -3.46553
| 33> H 	 -130.484 	 14.658 	 -2.82887
| 34> H 	 -130.797 	 14.1244 	 -4.45543
| 35> C 	 -129.414 	 12.8903 	 -3.38066
| 36> H 	 -129.105 	 12.9414 	 -2.31964
| 37> H 	 -128.59 	 13.3484 	 -3.92837
| 38> H 	 -129.577 	 11.9351 	 -3.92017
| 39> H 	 -136.55 	 8.8619 	 -1.8991
| 40> H 	 -134.817 	 16.7963 	 -3.36404
| 41> *
| 42>
| 43>                          ****END OF INPUT****

CARTESIAN COORDINATES (ANGSTROEM)
---------------------------------
  S    -136.397000   11.321100   -2.590990
  C    -135.952000    9.799330   -1.843520
  C    -134.759000    9.861140   -1.077130
  C    -134.157000   11.143000   -1.238580
  C    -134.831000   11.989700   -2.126290
  H    -133.234000   11.437200   -0.774884
  C    -134.304000    8.877090   -0.083438
  H    -134.736000    9.229830    0.843186
  H    -133.259000    9.045940    0.013880
  C    -134.540000    7.373050   -0.433487
  H    -135.519000    7.147080   -0.905014
  H    -133.679000    7.261710   -1.203380
  C    -134.149000    6.518740    0.843109
  H    -133.096000    6.628960    1.254710
  H    -134.874000    6.812240    1.613890
  H    -134.404000    5.439190    0.713955
  S    -135.741000   14.598800   -2.483920
  C    -134.557000   15.740900   -3.091530
  C    -133.275000   15.248300   -3.202510
  C    -133.202000   13.870300   -2.894820
  C    -134.444000   13.346800   -2.492140
  H    -132.365000   15.840700   -3.520450
  C    -131.947000   12.972000   -2.996220
  H    -132.189000   12.172400   -3.755380
  H    -131.699000   12.526600   -1.974090
  C    -130.673000   13.753600   -3.465530
  H    -130.484000   14.658000   -2.828870
  H    -130.797000   14.124400   -4.455430
  C    -129.414000   12.890300   -3.380660
  H    -129.105000   12.941400   -2.319640
  H    -128.590000   13.348400   -3.928370
  H    -129.577000   11.935100   -3.920170
  H    -136.550000    8.861900   -1.899100
  H    -134.817000   16.796300   -3.364040

 Total Charge           Charge          ....    0
 Multiplicity           Mult            ....    1
 Number of Electrons    NEL             ....  134
 Basis Dimension        Dim             ....  322

ORBITAL ENERGIES
----------------

  NO   OCC          E(Eh)            E(eV)
   0   2.0000     -88.968901     -2420.9669
   1   2.0000     -88.967503     -2420.9288
   2   2.0000     -10.329369      -281.0764
   3   2.0000     -10.327127      -281.0154
   4   2.0000     -10.319624      -280.8112
   5   2.0000     -10.315886      -280.7095
   6   2.0000     -10.307016      -280.4682
   7   2.0000     -10.305904      -280.4379
   8   2.0000     -10.303778      -280.3800
   9   2.0000     -10.299815      -280.2722
  10   2.0000     -10.297171      -280.2003
  11   2.0000     -10.293118      -280.0900
  12   2.0000     -10.292766      -280.0804
  13   2.0000     -10.288920      -279.9758
  14   2.0000     -10.288742      -279.9709
  15   2.0000     -10.282577      -279.8031
  16   2.0000      -8.082973      -219.9489
  17   2.0000      -8.081337      -219.9044
  18   2.0000      -6.041509      -164.3978
  19   2.0000      -6.039811      -164.3516
  20   2.0000      -6.037671      -164.2934
  21   2.0000      -6.036119      -164.2511
  22   2.0000      -6.033673      -164.1846
  23   2.0000      -6.032065      -164.1408
  24   2.0000      -0.999145       -27.1881
  25   2.0000      -0.977085       -26.5878
  26   2.0000      -0.912109       -24.8197
  27   2.0000      -0.904018       -24.5996
  28   2.0000      -0.860022       -23.4024
  29   2.0000      -0.853258       -23.2183
  30   2.0000      -0.845452       -23.0059
  31   2.0000      -0.806156       -21.9366
  32   2.0000      -0.779144       -21.2016
  33   2.0000      -0.762908       -20.7598
  34   2.0000      -0.710435       -19.3319
  35   2.0000      -0.698612       -19.0102
  36   2.0000      -0.689088       -18.7510
  37   2.0000      -0.647575       -17.6214
  38   2.0000      -0.631249       -17.1772
  39   2.0000      -0.611738       -16.6462
  40   2.0000      -0.592160       -16.1135
  41   2.0000      -0.575523       -15.6608
  42   2.0000      -0.573861       -15.6155
  43   2.0000      -0.554404       -15.0861
  44   2.0000      -0.520168       -14.1545
  45   2.0000      -0.517852       -14.0915
  46   2.0000      -0.515240       -14.0204
  47   2.0000      -0.507969       -13.8225
  48   2.0000      -0.501859       -13.6563
  49   2.0000      -0.488125       -13.2826
  50   2.0000      -0.487183       -13.2569
  51   2.0000      -0.475408       -12.9365
  52   2.0000      -0.470030       -12.7902
  53   2.0000      -0.463442       -12.6109
  54   2.0000      -0.456932       -12.4338
  55   2.0000      -0.454759       -12.3746
  56   2.0000      -0.449797       -12.2396
  57   2.0000      -0.435217       -11.8428
  58   2.0000      -0.430743       -11.7211
  59   2.0000      -0.426240       -11.5986
  60   2.0000      -0.421280       -11.4636
  61   2.0000      -0.418087       -11.3767
  62   2.0000      -0.414004       -11.2656
  63   2.0000      -0.345664        -9.4060
  64   2.0000      -0.335546        -9.1307
  65   2.0000      -0.327219        -8.9041
  66   2.0000      -0.277843        -7.5605
  67   0.0000       0.022571         0.6142
  68   0.0000       0.067968         1.8495
  69   0.0000       0.100128         2.7246
  70   0.0000       0.127553         3.4709
  71   0.0000       0.129348         3.5197

MULLIKEN ATOMIC CHARGES
-----------------------
   0 S :    0.117947
   1 C :   -0.145001
   2 C :   -0.086059
   3 C :    0.019488
   4 C :   -0.147505
   5 H :    0.002778
   6 C :    0.076472
   7 H :    0.041910
   8 H :    0.011656
   9 C :   -0.123650
  10 H :    0.053062
  11 H :    0.052504
  12 C :   -0.074471
  13 H :    0.056331
  14 H :    0.031071
  15 H :    0.041465
  16 S :    0.102871
  17 C :   -0.098887
  18 C :   -0.055071
  19 C :   -0.047076
  20 C :   -0.155203
  21 H :    0.042783
  22 C :    0.032869
  23 H :    0.062227
  24 H :    0.049314
  25 C :   -0.129848
  26 H :    0.036124
  27 H :    0.027033
  28 C :   -0.031482
  29 H :    0.043388
  30 H :    0.025174
  31 H :    0.042313
  32 H :    0.057059
  33 H :    0.068418
Sum of atomic charges:   -0.0000000

LOEWDIN ATOMIC CHARGES
----------------------
   0 S :    0.401579
   1 C :   -0.212665
   2 C :   -0.060854
   3 C :   -0.057780
   4 C :   -0.190338
   5 H :    0.025851
   6 C :   -0.035208
   7 H :    0.034445
   8 H :    0.026429
   9 C :   -0.041697
  10 H :    0.027172
  11 H :    0.039008
  12 C :   -0.079095
  13 H :    0.036750
  14 H :    0.024984
  15 H :    0.029249
  16 S :    0.380885
  17 C :   -0.190618
  18 C :   -0.083372
  19 C :   -0.060657
  20 C :   -0.183442
  21 H :    0.044926
  22 C :   -0.033652
  23 H :    0.045124
  24 H :    0.036338
  25 C :   -0.050232
  26 H :    0.025934
  27 H :    0.015543
  28 C :   -0.069122
  29 H :    0.031974
  30 H :    0.025451
  31 H :    0.030936
  32 H :    0.029755
  33 H :    0.036403

  Mayer bond orders larger than 0.100000
B(  0-S ,  1-C ) :   1.1381 B(  0-S ,  4-C ) :   1.1489 B(  1-C ,  2-C ) :   1.5805
B(  1-C , 32-H ) :   0.9614 B(  2-C ,  3-C ) :   1.2668 B(  2-C ,  6-C ) :   1.0199
B(  3-C ,  4-C ) :   1.5389 B(  3-C ,  5-H ) :   0.9921 B(  4-C , 20-C ) :   1.0786
B(  6-C ,  7-H ) :   0.9328 B(  6-C ,  8-H ) :   0.9401 B(  6-C ,  9-C ) :   1.0353
B(  9-C , 10-H ) :   0.9614 B(  9-C , 11-H ) :   0.9629 B(  9-C , 12-C ) :   1.0636
B( 12-C , 13-H ) :   0.9744 B( 12-C , 14-H ) :   0.9768 B( 12-C , 15-H ) :   0.9756
B( 16-S , 17-C ) :   1.1510 B( 16-S , 20-C ) :   1.1282 B( 17-C , 18-C ) :   1.5984
B( 17-C , 20-C ) :   0.1017 B( 17-C , 33-H ) :   0.9552 B( 18-C , 19-C ) :   1.2739
B( 18-C , 21-H ) :   0.9724 B( 19-C , 20-C ) :   1.5994 B( 19-C , 22-C ) :   1.0166
B( 22-C , 23-H ) :   0.9288 B( 22-C , 24-H ) :   0.9401 B( 22-C , 25-C ) :   1.0786
B( 25-C , 26-H ) :   0.9543 B( 25-C , 27-H ) :   0.9510 B( 25-C , 28-C ) :   1.0898
B( 28-C , 29-H ) :   0.9756 B( 28-C , 30-H ) :   0.9711 B( 28-C , 31-H ) :   0.9713

Dispersion correction           -0.013242146
FINAL SINGLE POINT ENERGY     -1339.869817284157

DIPOLE MOMENT
-------------
                                X             Y             Z
Electronic contribution:    -23.75335      17.44621      -6.59024
Nuclear contribution   :     24.39957     -17.69455       6.79600
                        -----------------------------------------
Total Dipole Moment    :      0.64621      -0.24834       0.20576
                        -----------------------------------------
Magnitude (a.u.)       :      0.72222
Magnitude (Debye)      :      1.83573

Rotational constants in cm-1:     0.018016     0.007768     0.005722
Rotational constants in MHz :   540.093636   232.867778   171.549156

                             ****ORCA TERMINATED NORMALLY****
TOTAL RUN TIME: 0 days 0 hours 0 minutes 20 seconds 803 msec
