                         Program Version 4.2.1 -  RELEASE  -
|  1> ! wB97X-D3 SP def2-SVP
|  2> %pal
|  3> nprocs 24
|  4> end
|  5>
|  6> * xyz 0 1
|  7> S 	 39.6323 	 -21.997 	 -116.08
|  8> C 	 41.1776 	 -21.9458 	 -116.755
|  9> C 	 42.1703 	 -22.0251 	 -115.753
| 10> C 	 41.5973 	 -21.8387 	 -114.478
| 11> C 	 40.1979 	 -21.8303 	 -114.498
| 12> H 	 42.1133 	 -21.7854 	 -113.536
| 13> C 	 43.6883 	 -22.1241 	 -115.951
| 14> H 	 44.0373 	 -22.0586 	 -114.934
| 15> H 	 44.0153 	 -21.2406 	 -116.455
| 16> C 	 44.1489 	 -23.3856 	 -116.706
| 17> H 	 43.588 	 -23.5474 	 -117.641
| 18> H 	 45.1446 	 -23.1977 	 -116.946
| 19> C 	 44.0676 	 -24.6674 	 -115.888
| 20> H 	 44.7062 	 -25.4363 	 -116.322
| 21> H 	 44.2588 	 -24.4321 	 -114.889
| 22> H 	 43.058 	 -25.0715 	 -116.066
| 23> S 	 37.9983 	 -20.4168 	 -113.593
| 24> C 	 37.2831 	 -20.9519 	 -112.141
| 25> C 	 38.0563 	 -21.8396 	 -111.468
| 26> C 	 39.1855 	 -22.319 	 -112.229
| 27> C 	 39.3206 	 -21.5942 	 -113.382
| 28> H 	 37.7682 	 -22.1038 	 -110.477
| 29> C 	 40.1481 	 -23.479 	 -111.834
| 30> H 	 40.2536 	 -23.502 	 -110.744
| 31> H 	 41.1694 	 -23.378 	 -112.225
| 32> C 	 39.8286 	 -24.9277 	 -112.219
| 33> H 	 38.992 	 -25.2951 	 -111.701
| 34> H 	 40.5449 	 -25.5926 	 -111.741
| 35> C 	 39.7667 	 -25.2621 	 -113.692
| 36> H 	 38.9008 	 -24.8123 	 -114.204
| 37> H 	 39.6921 	 -26.3337 	 -113.834
| 38> H 	 40.6396 	 -24.8177 	 -114.215
| 39> H 	 41.3824 	 -21.9812 	 -117.817
| 40> H 	 36.3792 	 -20.5813 	 -111.705
| 41> *
| 42>
| 43>                          ****END OF INPUT****

CARTESIAN COORDINATES (ANGSTROEM)
---------------------------------
  S     39.632300  -21.997000  -116.080000
  C     41.177600  -21.945800  -116.755000
  C     42.170300  -22.025100  -115.753000
  C     41.597300  -21.838700  -114.478000
  C     40.197900  -21.830300  -114.498000
  H     42.113300  -21.785400  -113.536000
  C     43.688300  -22.124100  -115.951000
  H     44.037300  -22.058600  -114.934000
  H     44.015300  -21.240600  -116.455000
  C     44.148900  -23.385600  -116.706000
  H     43.588000  -23.547400  -117.641000
  H     45.144600  -23.197700  -116.946000
  C     44.067600  -24.667400  -115.888000
  H     44.706200  -25.436300  -116.322000
  H     44.258800  -24.432100  -114.889000
  H     43.058000  -25.071500  -116.066000
  S     37.998300  -20.416800  -113.593000
  C     37.283100  -20.951900  -112.141000
  C     38.056300  -21.839600  -111.468000
  C     39.185500  -22.319000  -112.229000
  C     39.320600  -21.594200  -113.382000
  H     37.768200  -22.103800  -110.477000
  C     40.148100  -23.479000  -111.834000
  H     40.253600  -23.502000  -110.744000
  H     41.169400  -23.378000  -112.225000
  C     39.828600  -24.927700  -112.219000
  H     38.992000  -25.295100  -111.701000
  H     40.544900  -25.592600  -111.741000
  C     39.766700  -25.262100  -113.692000
  H     38.900800  -24.812300  -114.204000
  H     39.692100  -26.333700  -113.834000
  H     40.639600  -24.817700  -114.215000
  H     41.382400  -21.981200  -117.817000
  H     36.379200  -20.581300  -111.705000

 Total Charge           Charge          ....    0
 Multiplicity           Mult            ....    1
 Number of Electrons    NEL             ....  134
 Basis Dimension        Dim             ....  322

ORBITAL ENERGIES
----------------

  NO   OCC          E(Eh)            E(eV)
   0   2.0000     -88.967454     -2420.9275
   1   2.0000     -88.963407     -2420.8174
   2   2.0000     -10.322092      -280.8784
   3   2.0000     -10.318560      -280.7823
   4   2.0000     -10.310170      -280.5540
   5   2.0000     -10.308384      -280.5054
   6   2.0000     -10.306437      -280.4524
   7   2.0000     -10.298859      -280.2462
   8   2.0000     -10.295502      -280.1549
   9   2.0000     -10.289857      -280.0012
  10   2.0000     -10.288936      -279.9762
  11   2.0000     -10.288543      -279.9655
  12   2.0000     -10.280345      -279.7424
  13   2.0000     -10.275587      -279.6129
  14   2.0000     -10.270883      -279.4849
  15   2.0000     -10.269839      -279.4565
  16   2.0000      -8.083860      -219.9730
  17   2.0000      -8.078795      -219.8352
  18   2.0000      -6.042033      -164.4121
  19   2.0000      -6.037933      -164.3005
  20   2.0000      -6.037279      -164.2827
  21   2.0000      -6.035072      -164.2227
  22   2.0000      -6.033232      -164.1726
  23   2.0000      -6.029503      -164.0711
  24   2.0000      -1.015074       -27.6216
  25   2.0000      -0.990554       -26.9543
  26   2.0000      -0.913856       -24.8673
  27   2.0000      -0.905900       -24.6508
  28   2.0000      -0.870852       -23.6971
  29   2.0000      -0.855682       -23.2843
  30   2.0000      -0.846211       -23.0266
  31   2.0000      -0.811823       -22.0908
  32   2.0000      -0.786226       -21.3943
  33   2.0000      -0.774928       -21.0869
  34   2.0000      -0.705719       -19.2036
  35   2.0000      -0.702474       -19.1153
  36   2.0000      -0.691552       -18.8181
  37   2.0000      -0.659174       -17.9370
  38   2.0000      -0.643040       -17.4980
  39   2.0000      -0.612267       -16.6606
  40   2.0000      -0.595706       -16.2100
  41   2.0000      -0.576542       -15.6885
  42   2.0000      -0.557775       -15.1778
  43   2.0000      -0.551922       -15.0186
  44   2.0000      -0.547500       -14.8982
  45   2.0000      -0.533937       -14.5292
  46   2.0000      -0.517576       -14.0840
  47   2.0000      -0.508972       -13.8498
  48   2.0000      -0.502320       -13.6688
  49   2.0000      -0.498606       -13.5678
  50   2.0000      -0.488829       -13.3017
  51   2.0000      -0.478315       -13.0156
  52   2.0000      -0.470680       -12.8078
  53   2.0000      -0.466552       -12.6955
  54   2.0000      -0.461435       -12.5563
  55   2.0000      -0.446226       -12.1424
  56   2.0000      -0.445831       -12.1317
  57   2.0000      -0.440069       -11.9749
  58   2.0000      -0.435617       -11.8537
  59   2.0000      -0.426692       -11.6109
  60   2.0000      -0.421241       -11.4625
  61   2.0000      -0.413125       -11.2417
  62   2.0000      -0.403808       -10.9882
  63   2.0000      -0.345437        -9.3998
  64   2.0000      -0.334397        -9.0994
  65   2.0000      -0.326571        -8.8865
  66   2.0000      -0.290254        -7.8982
  67   0.0000       0.030527         0.8307
  68   0.0000       0.076496         2.0816
  69   0.0000       0.116861         3.1799
  70   0.0000       0.118905         3.2356
  71   0.0000       0.133403         3.6301

MULLIKEN ATOMIC CHARGES
-----------------------
   0 S :    0.149743
   1 C :   -0.136705
   2 C :   -0.108824
   3 C :    0.017233
   4 C :   -0.166450
   5 H :    0.013000
   6 C :    0.085738
   7 H :    0.010465
   8 H :    0.033250
   9 C :   -0.060836
  10 H :    0.028522
  11 H :    0.012554
  12 C :   -0.028323
  13 H :    0.032247
  14 H :    0.022073
  15 H :    0.040831
  16 S :    0.112822
  17 C :   -0.076621
  18 C :   -0.026280
  19 C :   -0.002213
  20 C :   -0.174762
  21 H :    0.003389
  22 C :    0.065198
  23 H :    0.021020
  24 H :    0.018714
  25 C :   -0.048410
  26 H :   -0.000734
  27 H :    0.013301
  28 C :   -0.044102
  29 H :    0.031839
  30 H :    0.031933
  31 H :    0.035628
  32 H :    0.048616
  33 H :    0.046143
Sum of atomic charges:   -0.0000000

LOEWDIN ATOMIC CHARGES
----------------------
   0 S :    0.474612
   1 C :   -0.227464
   2 C :   -0.063047
   3 C :   -0.068025
   4 C :   -0.222417
   5 H :    0.027022
   6 C :   -0.023872
   7 H :    0.026493
   8 H :    0.031208
   9 C :   -0.034943
  10 H :    0.025929
  11 H :    0.013073
  12 C :   -0.057768
  13 H :    0.028461
  14 H :    0.014876
  15 H :    0.031418
  16 S :    0.403153
  17 C :   -0.189750
  18 C :   -0.069776
  19 C :   -0.048568
  20 C :   -0.190221
  21 H :    0.026017
  22 C :   -0.029304
  23 H :    0.033130
  24 H :    0.030439
  25 C :   -0.043856
  26 H :    0.012867
  27 H :    0.026070
  28 C :   -0.068147
  29 H :    0.025119
  30 H :    0.025621
  31 H :    0.028195
  32 H :    0.025810
  33 H :    0.027644

  Mayer bond orders larger than 0.100000
B(  0-S ,  1-C ) :   1.1837 B(  0-S ,  4-C ) :   1.1993 B(  1-C ,  2-C ) :   1.5250
B(  1-C ,  4-C ) :   0.1041 B(  1-C , 32-H ) :   0.9732 B(  2-C ,  3-C ) :   1.3091
B(  2-C ,  6-C ) :   1.0070 B(  3-C ,  4-C ) :   1.5085 B(  3-C ,  5-H ) :   0.9900
B(  4-C , 20-C ) :   1.0478 B(  6-C ,  7-H ) :   0.9437 B(  6-C ,  8-H ) :   0.9387
B(  6-C ,  9-C ) :   1.0763 B(  9-C , 10-H ) :   0.9599 B(  9-C , 11-H ) :   0.9557
B(  9-C , 12-C ) :   1.0742 B( 12-C , 13-H ) :   0.9725 B( 12-C , 14-H ) :   0.9790
B( 12-C , 15-H ) :   0.9750 B( 16-S , 17-C ) :   1.1504 B( 16-S , 20-C ) :   1.1269
B( 17-C , 18-C ) :   1.6425 B( 17-C , 33-H ) :   0.9643 B( 18-C , 19-C ) :   1.2108
B( 18-C , 21-H ) :   0.9944 B( 19-C , 20-C ) :   1.6237 B( 19-C , 22-C ) :   1.0277
B( 22-C , 23-H ) :   0.9302 B( 22-C , 24-H ) :   0.9384 B( 22-C , 25-C ) :   1.0898
B( 25-C , 26-H ) :   0.9461 B( 25-C , 27-H ) :   0.9465 B( 25-C , 28-C ) :   1.0840
B( 28-C , 29-H ) :   0.9716 B( 28-C , 30-H ) :   0.9714 B( 28-C , 31-H ) :   0.9712

Dispersion correction           -0.016048548
FINAL SINGLE POINT ENERGY     -1339.882085743976

DIPOLE MOMENT
-------------
                                X             Y             Z
Electronic contribution:    -19.39050      20.28300      -1.25270
Nuclear contribution   :     19.77926     -20.62600       1.45067
                        -----------------------------------------
Total Dipole Moment    :      0.38877      -0.34300       0.19797
                        -----------------------------------------
Magnitude (a.u.)       :      0.55496
Magnitude (Debye)      :      1.41060

Rotational constants in cm-1:     0.022399     0.009347     0.007581
Rotational constants in MHz :   671.499696   280.229272   227.286119

                             ****ORCA TERMINATED NORMALLY****
TOTAL RUN TIME: 0 days 0 hours 0 minutes 23 seconds 67 msec
