                         Program Version 4.2.1 -  RELEASE  -
|  1> ! wB97X-D3 SP def2-SVP
|  2> %pal
|  3> nprocs 24
|  4> end
|  5>
|  6> * xyz 0 1
|  7> S 	 -54.1295 	 0.614322 	 -24.2696
|  8> C 	 -55.1337 	 1.95165 	 -23.7832
|  9> C 	 -55.4631 	 2.80104 	 -24.8447
| 10> C 	 -54.9543 	 2.21666 	 -26.0623
| 11> C 	 -54.1551 	 1.13768 	 -25.9446
| 12> H 	 -55.07 	 2.68016 	 -27.1001
| 13> C 	 -56.2748 	 4.05712 	 -24.8193
| 14> H 	 -55.6467 	 4.87965 	 -24.8722
| 15> H 	 -56.8925 	 4.07597 	 -23.9053
| 16> C 	 -57.167 	 4.31625 	 -26.1098
| 17> H 	 -56.6312 	 4.41791 	 -27.0205
| 18> H 	 -57.7765 	 3.44346 	 -26.2099
| 19> C 	 -57.9442 	 5.55455 	 -25.9803
| 20> H 	 -58.6402 	 5.6431 	 -26.8558
| 21> H 	 -58.6117 	 5.61445 	 -25.1044
| 22> H 	 -57.3509 	 6.42004 	 -26.0521
| 23> S 	 -51.5984 	 0.680606 	 -26.6203
| 24> C 	 -51.3615 	 -0.463589 	 -27.9552
| 25> C 	 -52.546 	 -0.627904 	 -28.7005
| 26> C 	 -53.7093 	 -0.0645141 	 -28.1312
| 27> C 	 -53.3609 	 0.511991 	 -26.888
| 28> H 	 -52.4023 	 -1.18473 	 -29.5956
| 29> C 	 -54.9873 	 -0.128799 	 -28.8707
| 30> H 	 -54.7572 	 -0.0500605 	 -29.8854
| 31> H 	 -55.4705 	 0.757336 	 -28.5458
| 32> C 	 -55.8245 	 -1.31656 	 -28.4003
| 33> H 	 -56.8774 	 -1.19856 	 -28.8663
| 34> H 	 -55.9655 	 -1.36924 	 -27.3256
| 35> C 	 -55.2248 	 -2.65478 	 -29.0363
| 36> H 	 -55.7748 	 -3.59026 	 -28.7635
| 37> H 	 -54.1987 	 -2.86774 	 -28.7561
| 38> H 	 -55.2293 	 -2.64598 	 -30.0764
| 39> H 	 -55.4865 	 2.06635 	 -22.7585
| 40> H 	 -50.3512 	 -0.556028 	 -28.3745
| 41> *
| 42>
| 43>                          ****END OF INPUT****

CARTESIAN COORDINATES (ANGSTROEM)
---------------------------------
  S    -54.129500    0.614322  -24.269600
  C    -55.133700    1.951650  -23.783200
  C    -55.463100    2.801040  -24.844700
  C    -54.954300    2.216660  -26.062300
  C    -54.155100    1.137680  -25.944600
  H    -55.070000    2.680160  -27.100100
  C    -56.274800    4.057120  -24.819300
  H    -55.646700    4.879650  -24.872200
  H    -56.892500    4.075970  -23.905300
  C    -57.167000    4.316250  -26.109800
  H    -56.631200    4.417910  -27.020500
  H    -57.776500    3.443460  -26.209900
  C    -57.944200    5.554550  -25.980300
  H    -58.640200    5.643100  -26.855800
  H    -58.611700    5.614450  -25.104400
  H    -57.350900    6.420040  -26.052100
  S    -51.598400    0.680606  -26.620300
  C    -51.361500   -0.463589  -27.955200
  C    -52.546000   -0.627904  -28.700500
  C    -53.709300   -0.064514  -28.131200
  C    -53.360900    0.511991  -26.888000
  H    -52.402300   -1.184730  -29.595600
  C    -54.987300   -0.128799  -28.870700
  H    -54.757200   -0.050061  -29.885400
  H    -55.470500    0.757336  -28.545800
  C    -55.824500   -1.316560  -28.400300
  H    -56.877400   -1.198560  -28.866300
  H    -55.965500   -1.369240  -27.325600
  C    -55.224800   -2.654780  -29.036300
  H    -55.774800   -3.590260  -28.763500
  H    -54.198700   -2.867740  -28.756100
  H    -55.229300   -2.645980  -30.076400
  H    -55.486500    2.066350  -22.758500
  H    -50.351200   -0.556028  -28.374500

 Total Charge           Charge          ....    0
 Multiplicity           Mult            ....    1
 Number of Electrons    NEL             ....  134
 Basis Dimension        Dim             ....  322

ORBITAL ENERGIES
----------------

  NO   OCC          E(Eh)            E(eV)
   0   2.0000     -88.964786     -2420.8549
   1   2.0000     -88.961028     -2420.7526
   2   2.0000     -10.323445      -280.9152
   3   2.0000     -10.316508      -280.7265
   4   2.0000     -10.315986      -280.7123
   5   2.0000     -10.314385      -280.6687
   6   2.0000     -10.303348      -280.3683
   7   2.0000     -10.302923      -280.3568
   8   2.0000     -10.298722      -280.2425
   9   2.0000     -10.293835      -280.1095
  10   2.0000     -10.291989      -280.0593
  11   2.0000     -10.291110      -280.0354
  12   2.0000     -10.285007      -279.8693
  13   2.0000     -10.282373      -279.7976
  14   2.0000     -10.276424      -279.6357
  15   2.0000     -10.274700      -279.5888
  16   2.0000      -8.078685      -219.8322
  17   2.0000      -8.076160      -219.7635
  18   2.0000      -6.037051      -164.2765
  19   2.0000      -6.034650      -164.2112
  20   2.0000      -6.033584      -164.1822
  21   2.0000      -6.030617      -164.1014
  22   2.0000      -6.029362      -164.0673
  23   2.0000      -6.026898      -164.0002
  24   2.0000      -1.007637       -27.4192
  25   2.0000      -0.978588       -26.6287
  26   2.0000      -0.918108       -24.9830
  27   2.0000      -0.912606       -24.8333
  28   2.0000      -0.876033       -23.8381
  29   2.0000      -0.849906       -23.1271
  30   2.0000      -0.842030       -22.9128
  31   2.0000      -0.810877       -22.0651
  32   2.0000      -0.788178       -21.4474
  33   2.0000      -0.769687       -20.9442
  34   2.0000      -0.716289       -19.4912
  35   2.0000      -0.704444       -19.1689
  36   2.0000      -0.689891       -18.7729
  37   2.0000      -0.661576       -18.0024
  38   2.0000      -0.643226       -17.5031
  39   2.0000      -0.616019       -16.7627
  40   2.0000      -0.593497       -16.1499
  41   2.0000      -0.581911       -15.8346
  42   2.0000      -0.567109       -15.4318
  43   2.0000      -0.551963       -15.0197
  44   2.0000      -0.538160       -14.6441
  45   2.0000      -0.524636       -14.2761
  46   2.0000      -0.519181       -14.1276
  47   2.0000      -0.509917       -13.8756
  48   2.0000      -0.501558       -13.6481
  49   2.0000      -0.493096       -13.4178
  50   2.0000      -0.489212       -13.3121
  51   2.0000      -0.477083       -12.9821
  52   2.0000      -0.475382       -12.9358
  53   2.0000      -0.467996       -12.7348
  54   2.0000      -0.459045       -12.4912
  55   2.0000      -0.450417       -12.2565
  56   2.0000      -0.446162       -12.1407
  57   2.0000      -0.436323       -11.8730
  58   2.0000      -0.433225       -11.7886
  59   2.0000      -0.430235       -11.7073
  60   2.0000      -0.424056       -11.5391
  61   2.0000      -0.412770       -11.2320
  62   2.0000      -0.411764       -11.2047
  63   2.0000      -0.342045        -9.3075
  64   2.0000      -0.331200        -9.0124
  65   2.0000      -0.321872        -8.7586
  66   2.0000      -0.287141        -7.8135
  67   0.0000       0.027745         0.7550
  68   0.0000       0.060949         1.6585
  69   0.0000       0.097603         2.6559
  70   0.0000       0.123239         3.3535
  71   0.0000       0.131954         3.5907

MULLIKEN ATOMIC CHARGES
-----------------------
   0 S :    0.113328
   1 C :   -0.139211
   2 C :   -0.077755
   3 C :    0.003791
   4 C :   -0.177868
   5 H :    0.036093
   6 C :    0.099284
   7 H :    0.019280
   8 H :    0.029109
   9 C :   -0.086291
  10 H :    0.025928
  11 H :    0.025325
  12 C :   -0.035133
  13 H :    0.029422
  14 H :    0.030961
  15 H :    0.021696
  16 S :    0.107696
  17 C :   -0.100109
  18 C :   -0.062022
  19 C :   -0.023495
  20 C :   -0.190055
  21 H :    0.013534
  22 C :    0.167832
  23 H :    0.018621
  24 H :   -0.002395
  25 C :   -0.078397
  26 H :    0.041662
  27 H :    0.049804
  28 C :   -0.057888
  29 H :    0.035032
  30 H :    0.035293
  31 H :    0.011347
  32 H :    0.049954
  33 H :    0.065627
Sum of atomic charges:    0.0000000

LOEWDIN ATOMIC CHARGES
----------------------
   0 S :    0.404251
   1 C :   -0.199565
   2 C :   -0.064232
   3 C :   -0.070468
   4 C :   -0.210041
   5 H :    0.039003
   6 C :   -0.023436
   7 H :    0.024859
   8 H :    0.034806
   9 C :   -0.036745
  10 H :    0.021250
  11 H :    0.020214
  12 C :   -0.063449
  13 H :    0.033568
  14 H :    0.025782
  15 H :    0.018344
  16 S :    0.387027
  17 C :   -0.190721
  18 C :   -0.065180
  19 C :   -0.041537
  20 C :   -0.189435
  21 H :    0.026205
  22 C :   -0.023773
  23 H :    0.028430
  24 H :    0.027895
  25 C :   -0.026643
  26 H :    0.031862
  27 H :    0.029264
  28 C :   -0.070393
  29 H :    0.030345
  30 H :    0.023605
  31 H :    0.013097
  32 H :    0.027393
  33 H :    0.028419

  Mayer bond orders larger than 0.100000
B(  0-S ,  1-C ) :   1.1445 B(  0-S ,  4-C ) :   1.1242 B(  1-C ,  2-C ) :   1.6080
B(  1-C , 32-H ) :   0.9686 B(  2-C ,  3-C ) :   1.2312 B(  2-C ,  6-C ) :   1.0318
B(  3-C ,  4-C ) :   1.6134 B(  3-C ,  5-H ) :   0.9708 B(  4-C , 20-C ) :   1.0799
B(  6-C ,  7-H ) :   0.9226 B(  6-C ,  8-H ) :   0.9463 B(  6-C ,  9-C ) :   1.0672
B(  9-C , 10-H ) :   0.9425 B(  9-C , 11-H ) :   0.9586 B(  9-C , 12-C ) :   1.1049
B( 12-C , 13-H ) :   0.9674 B( 12-C , 14-H ) :   0.9722 B( 12-C , 15-H ) :   0.9719
B( 16-S , 17-C ) :   1.1402 B( 16-S , 20-C ) :   1.1625 B( 17-C , 18-C ) :   1.6065
B( 17-C , 20-C ) :   0.1190 B( 17-C , 33-H ) :   0.9608 B( 18-C , 19-C ) :   1.2345
B( 18-C , 21-H ) :   0.9885 B( 19-C , 20-C ) :   1.5495 B( 19-C , 22-C ) :   1.0320
B( 22-C , 23-H ) :   0.9358 B( 22-C , 24-H ) :   0.9078 B( 22-C , 25-C ) :   1.0733
B( 25-C , 26-H ) :   0.9572 B( 25-C , 27-H ) :   0.9594 B( 25-C , 28-C ) :   1.0597
B( 28-C , 29-H ) :   0.9754 B( 28-C , 30-H ) :   0.9754 B( 28-C , 31-H ) :   0.9768

Dispersion correction           -0.014355973
FINAL SINGLE POINT ENERGY     -1339.851297709040

DIPOLE MOMENT
-------------
                                X             Y             Z
Electronic contribution:     21.82364      -5.91281      11.79162
Nuclear contribution   :    -22.28820       6.31311     -12.32861
                        -----------------------------------------
Total Dipole Moment    :     -0.46455       0.40029      -0.53699
                        -----------------------------------------
Magnitude (a.u.)       :      0.81511
Magnitude (Debye)      :      2.07185

Rotational constants in cm-1:     0.019027     0.008283     0.007022
Rotational constants in MHz :   570.426296   248.310441   210.514645

                             ****ORCA TERMINATED NORMALLY****
TOTAL RUN TIME: 0 days 0 hours 0 minutes 21 seconds 910 msec
