                         Program Version 4.2.1 -  RELEASE  -
|  1> ! wB97X-D3 SP def2-SVP
|  2> %pal
|  3> nprocs 24
|  4> end
|  5>
|  6> * xyz 0 1
|  7> S 	 -113.461 	 21.229 	 -111.149
|  8> C 	 -112.027 	 22.0383 	 -111.922
|  9> C 	 -111.098 	 21.122 	 -112.253
| 10> C 	 -111.655 	 19.8392 	 -112.287
| 11> C 	 -112.906 	 19.7075 	 -111.629
| 12> H 	 -111.222 	 18.9701 	 -112.695
| 13> C 	 -109.795 	 21.4361 	 -112.98
| 14> H 	 -109.919 	 22.4652 	 -113.272
| 15> H 	 -109.852 	 20.8012 	 -113.843
| 16> C 	 -108.509 	 21.2527 	 -112.112
| 17> H 	 -108.609 	 21.9722 	 -111.226
| 18> H 	 -108.467 	 20.238 	 -111.691
| 19> C 	 -107.103 	 21.4189 	 -112.67
| 20> H 	 -106.437 	 21.2636 	 -111.847
| 21> H 	 -106.792 	 20.9069 	 -113.526
| 22> H 	 -106.959 	 22.4764 	 -113.025
| 23> S 	 -115.231 	 18.418 	 -112.23
| 24> C 	 -115.491 	 16.8098 	 -111.611
| 25> C 	 -114.464 	 16.4064 	 -110.825
| 26> C 	 -113.459 	 17.4048 	 -110.714
| 27> C 	 -113.748 	 18.5674 	 -111.34
| 28> H 	 -114.457 	 15.4671 	 -110.283
| 29> C 	 -112.186 	 17.1523 	 -109.832
| 30> H 	 -111.39 	 17.7515 	 -110.222
| 31> H 	 -111.79 	 16.164 	 -109.991
| 32> C 	 -112.388 	 17.3713 	 -108.322
| 33> H 	 -111.406 	 17.2088 	 -107.793
| 34> H 	 -113.242 	 16.784 	 -107.925
| 35> C 	 -112.597 	 18.865 	 -107.956
| 36> H 	 -113.604 	 19.1704 	 -108.173
| 37> H 	 -112.076 	 19.5735 	 -108.595
| 38> H 	 -112.47 	 19.1409 	 -106.947
| 39> H 	 -111.747 	 23.0696 	 -111.845
| 40> H 	 -116.22 	 16.0645 	 -111.861
| 41> *
| 42>
| 43>                          ****END OF INPUT****

CARTESIAN COORDINATES (ANGSTROEM)
---------------------------------
  S    -113.461000   21.229000  -111.149000
  C    -112.027000   22.038300  -111.922000
  C    -111.098000   21.122000  -112.253000
  C    -111.655000   19.839200  -112.287000
  C    -112.906000   19.707500  -111.629000
  H    -111.222000   18.970100  -112.695000
  C    -109.795000   21.436100  -112.980000
  H    -109.919000   22.465200  -113.272000
  H    -109.852000   20.801200  -113.843000
  C    -108.509000   21.252700  -112.112000
  H    -108.609000   21.972200  -111.226000
  H    -108.467000   20.238000  -111.691000
  C    -107.103000   21.418900  -112.670000
  H    -106.437000   21.263600  -111.847000
  H    -106.792000   20.906900  -113.526000
  H    -106.959000   22.476400  -113.025000
  S    -115.231000   18.418000  -112.230000
  C    -115.491000   16.809800  -111.611000
  C    -114.464000   16.406400  -110.825000
  C    -113.459000   17.404800  -110.714000
  C    -113.748000   18.567400  -111.340000
  H    -114.457000   15.467100  -110.283000
  C    -112.186000   17.152300  -109.832000
  H    -111.390000   17.751500  -110.222000
  H    -111.790000   16.164000  -109.991000
  C    -112.388000   17.371300  -108.322000
  H    -111.406000   17.208800  -107.793000
  H    -113.242000   16.784000  -107.925000
  C    -112.597000   18.865000  -107.956000
  H    -113.604000   19.170400  -108.173000
  H    -112.076000   19.573500  -108.595000
  H    -112.470000   19.140900  -106.947000
  H    -111.747000   23.069600  -111.845000
  H    -116.220000   16.064500  -111.861000

 Total Charge           Charge          ....    0
 Multiplicity           Mult            ....    1
 Number of Electrons    NEL             ....  134
 Basis Dimension        Dim             ....  322

ORBITAL ENERGIES
----------------

  NO   OCC          E(Eh)            E(eV)
   0   2.0000     -88.966289     -2420.8958
   1   2.0000     -88.965771     -2420.8817
   2   2.0000     -10.328034      -281.0401
   3   2.0000     -10.321229      -280.8549
   4   2.0000     -10.314425      -280.6698
   5   2.0000     -10.311222      -280.5826
   6   2.0000     -10.300614      -280.2940
   7   2.0000     -10.297355      -280.2053
   8   2.0000     -10.296001      -280.1684
   9   2.0000     -10.294682      -280.1325
  10   2.0000     -10.291754      -280.0529
  11   2.0000     -10.289768      -279.9988
  12   2.0000     -10.289596      -279.9941
  13   2.0000     -10.288674      -279.9691
  14   2.0000     -10.276891      -279.6484
  15   2.0000     -10.260971      -279.2152
  16   2.0000      -8.081490      -219.9085
  17   2.0000      -8.080521      -219.8822
  18   2.0000      -6.040065      -164.3585
  19   2.0000      -6.038997      -164.3295
  20   2.0000      -6.035919      -164.2457
  21   2.0000      -6.034904      -164.2181
  22   2.0000      -6.032125      -164.1425
  23   2.0000      -6.031410      -164.1230
  24   2.0000      -1.015138       -27.6233
  25   2.0000      -0.990933       -26.9647
  26   2.0000      -0.913534       -24.8585
  27   2.0000      -0.901099       -24.5201
  28   2.0000      -0.876469       -23.8499
  29   2.0000      -0.848601       -23.0916
  30   2.0000      -0.844393       -22.9771
  31   2.0000      -0.814176       -22.1549
  32   2.0000      -0.791148       -21.5282
  33   2.0000      -0.778241       -21.1770
  34   2.0000      -0.710306       -19.3284
  35   2.0000      -0.699102       -19.0235
  36   2.0000      -0.692250       -18.8371
  37   2.0000      -0.662497       -18.0275
  38   2.0000      -0.641637       -17.4598
  39   2.0000      -0.619611       -16.8605
  40   2.0000      -0.596337       -16.2271
  41   2.0000      -0.570872       -15.5342
  42   2.0000      -0.559340       -15.2204
  43   2.0000      -0.545157       -14.8345
  44   2.0000      -0.542978       -14.7752
  45   2.0000      -0.537725       -14.6322
  46   2.0000      -0.515818       -14.0361
  47   2.0000      -0.509223       -13.8567
  48   2.0000      -0.506862       -13.7924
  49   2.0000      -0.502789       -13.6816
  50   2.0000      -0.495804       -13.4915
  51   2.0000      -0.477841       -13.0027
  52   2.0000      -0.470920       -12.8144
  53   2.0000      -0.465409       -12.6644
  54   2.0000      -0.457849       -12.4587
  55   2.0000      -0.447042       -12.1646
  56   2.0000      -0.441162       -12.0046
  57   2.0000      -0.434115       -11.8129
  58   2.0000      -0.433302       -11.7908
  59   2.0000      -0.424071       -11.5396
  60   2.0000      -0.421947       -11.4818
  61   2.0000      -0.413277       -11.2458
  62   2.0000      -0.402853       -10.9622
  63   2.0000      -0.344718        -9.3803
  64   2.0000      -0.338255        -9.2044
  65   2.0000      -0.327178        -8.9030
  66   2.0000      -0.300796        -8.1851
  67   0.0000       0.035433         0.9642
  68   0.0000       0.063883         1.7383
  69   0.0000       0.109809         2.9881
  70   0.0000       0.122948         3.3456
  71   0.0000       0.124073         3.3762

MULLIKEN ATOMIC CHARGES
-----------------------
   0 S :    0.105987
   1 C :   -0.109047
   2 C :   -0.099045
   3 C :    0.064767
   4 C :   -0.188875
   5 H :   -0.009993
   6 C :    0.098467
   7 H :    0.013828
   8 H :    0.027847
   9 C :   -0.115733
  10 H :    0.039789
  11 H :    0.030671
  12 C :   -0.014396
  13 H :    0.035575
  14 H :    0.022293
  15 H :    0.018634
  16 S :    0.121240
  17 C :   -0.063071
  18 C :   -0.046064
  19 C :   -0.044092
  20 C :   -0.147446
  21 H :    0.020921
  22 C :    0.102625
  23 H :    0.006103
  24 H :    0.014670
  25 C :   -0.077974
  26 H :    0.042373
  27 H :    0.042629
  28 C :   -0.039911
  29 H :    0.011242
  30 H :    0.022736
  31 H :    0.023334
  32 H :    0.041402
  33 H :    0.048515
Sum of atomic charges:    0.0000000

LOEWDIN ATOMIC CHARGES
----------------------
   0 S :    0.413931
   1 C :   -0.180022
   2 C :   -0.063665
   3 C :   -0.061081
   4 C :   -0.206687
   5 H :    0.020332
   6 C :   -0.020672
   7 H :    0.027641
   8 H :    0.030605
   9 C :   -0.047678
  10 H :    0.034847
  11 H :    0.024599
  12 C :   -0.065630
  13 H :    0.029138
  14 H :    0.016286
  15 H :    0.027239
  16 S :    0.419333
  17 C :   -0.181332
  18 C :   -0.072961
  19 C :   -0.050959
  20 C :   -0.219124
  21 H :    0.033584
  22 C :   -0.027010
  23 H :    0.024240
  24 H :    0.026607
  25 C :   -0.039584
  26 H :    0.033665
  27 H :    0.028212
  28 C :   -0.071490
  29 H :    0.019192
  30 H :    0.024307
  31 H :    0.018008
  32 H :    0.024038
  33 H :    0.032092

  Mayer bond orders larger than 0.100000
B(  0-S ,  1-C ) :   1.1232 B(  0-S ,  4-C ) :   1.1823 B(  1-C ,  2-C ) :   1.6317
B(  1-C ,  4-C ) :   0.1047 B(  1-C , 32-H ) :   0.9612 B(  2-C ,  3-C ) :   1.2314
B(  2-C ,  6-C ) :   1.0164 B(  3-C ,  4-C ) :   1.5657 B(  3-C ,  5-H ) :   1.0003
B(  4-C , 20-C ) :   0.9992 B(  6-C ,  7-H ) :   0.9437 B(  6-C ,  8-H ) :   0.9445
B(  6-C ,  9-C ) :   1.0488 B(  9-C , 10-H ) :   0.9547 B(  9-C , 11-H ) :   0.9610
B(  9-C , 12-C ) :   1.0854 B( 12-C , 13-H ) :   0.9728 B( 12-C , 14-H ) :   0.9753
B( 12-C , 15-H ) :   0.9705 B( 16-S , 17-C ) :   1.1511 B( 16-S , 20-C ) :   1.1317
B( 17-C , 18-C ) :   1.6261 B( 17-C , 33-H ) :   0.9637 B( 18-C , 19-C ) :   1.2421
B( 18-C , 21-H ) :   0.9893 B( 19-C , 20-C ) :   1.6380 B( 19-C , 22-C ) :   1.0285
B( 22-C , 23-H ) :   0.9305 B( 22-C , 24-H ) :   0.9358 B( 22-C , 25-C ) :   1.0787
B( 25-C , 26-H ) :   0.9569 B( 25-C , 27-H ) :   0.9586 B( 25-C , 28-C ) :   1.0638
B( 28-C , 29-H ) :   0.9706 B( 28-C , 30-H ) :   0.9734 B( 28-C , 31-H ) :   0.9780

Dispersion correction           -0.015013399
FINAL SINGLE POINT ENERGY     -1339.860487356750

DIPOLE MOMENT
-------------
                                X             Y             Z
Electronic contribution:    -26.00050      -0.49123      -7.80421
Nuclear contribution   :     26.61687       0.18368       7.81135
                        -----------------------------------------
Total Dipole Moment    :      0.61637      -0.30756       0.00714
                        -----------------------------------------
Magnitude (a.u.)       :      0.68888
Magnitude (Debye)      :      1.75100

Rotational constants in cm-1:     0.020742     0.008089     0.007127
Rotational constants in MHz :   621.820910   242.495748   213.654664

                             ****ORCA TERMINATED NORMALLY****
TOTAL RUN TIME: 0 days 0 hours 0 minutes 22 seconds 908 msec
