                         Program Version 4.2.1 -  RELEASE  -
|  1> ! wB97X-D3 SP def2-SVP
|  2> %pal
|  3> nprocs 24
|  4> end
|  5>
|  6> * xyz 0 1
|  7> S 	 -66.5045 	 9.54588 	 -75.4047
|  8> C 	 -67.1242 	 8.96514 	 -73.7994
|  9> C 	 -68.3651 	 8.41771 	 -73.9764
| 10> C 	 -68.8173 	 8.52759 	 -75.3453
| 11> C 	 -67.9866 	 9.21776 	 -76.2498
| 12> H 	 -69.8006 	 8.10502 	 -75.6529
| 13> C 	 -69.2354 	 7.79358 	 -72.9004
| 14> H 	 -70.1156 	 8.43991 	 -72.718
| 15> H 	 -68.8488 	 7.69717 	 -71.8235
| 16> C 	 -69.8325 	 6.41349 	 -73.2719
| 17> H 	 -70.7498 	 6.18658 	 -72.6628
| 18> H 	 -70.2667 	 6.49593 	 -74.2338
| 19> C 	 -68.7636 	 5.20743 	 -73.2349
| 20> H 	 -68.4094 	 4.8366 	 -74.2344
| 21> H 	 -67.9731 	 5.3935 	 -72.5636
| 22> H 	 -69.2589 	 4.41684 	 -72.6798
| 23> S 	 -67.7582 	 11.1162 	 -78.1907
| 24> C 	 -68.5211 	 10.8706 	 -79.7493
| 25> C 	 -69.1161 	 9.63343 	 -79.8617
| 26> C 	 -69.1549 	 8.90359 	 -78.6692
| 27> C 	 -68.2989 	 9.52662 	 -77.6575
| 28> H 	 -69.6493 	 9.48058 	 -80.7555
| 29> C 	 -69.8229 	 7.60406 	 -78.4727
| 30> H 	 -69.1993 	 7.02864 	 -77.8274
| 31> H 	 -69.7574 	 7.07242 	 -79.4195
| 32> C 	 -71.2944 	 7.62119 	 -78.1527
| 33> H 	 -71.9196 	 8.03583 	 -78.9694
| 34> H 	 -71.4263 	 8.43313 	 -77.3851
| 35> C 	 -71.9204 	 6.30313 	 -77.5906
| 36> H 	 -71.396 	 5.91522 	 -76.7481
| 37> H 	 -71.77 	 5.49426 	 -78.3799
| 38> H 	 -72.975 	 6.32119 	 -77.3191
| 39> H 	 -66.5233 	 8.86482 	 -72.9176
| 40> H 	 -68.6143 	 11.5499 	 -80.6077
| 41> *
| 42>
| 43>                          ****END OF INPUT****

CARTESIAN COORDINATES (ANGSTROEM)
---------------------------------
  S    -66.504500    9.545880  -75.404700
  C    -67.124200    8.965140  -73.799400
  C    -68.365100    8.417710  -73.976400
  C    -68.817300    8.527590  -75.345300
  C    -67.986600    9.217760  -76.249800
  H    -69.800600    8.105020  -75.652900
  C    -69.235400    7.793580  -72.900400
  H    -70.115600    8.439910  -72.718000
  H    -68.848800    7.697170  -71.823500
  C    -69.832500    6.413490  -73.271900
  H    -70.749800    6.186580  -72.662800
  H    -70.266700    6.495930  -74.233800
  C    -68.763600    5.207430  -73.234900
  H    -68.409400    4.836600  -74.234400
  H    -67.973100    5.393500  -72.563600
  H    -69.258900    4.416840  -72.679800
  S    -67.758200   11.116200  -78.190700
  C    -68.521100   10.870600  -79.749300
  C    -69.116100    9.633430  -79.861700
  C    -69.154900    8.903590  -78.669200
  C    -68.298900    9.526620  -77.657500
  H    -69.649300    9.480580  -80.755500
  C    -69.822900    7.604060  -78.472700
  H    -69.199300    7.028640  -77.827400
  H    -69.757400    7.072420  -79.419500
  C    -71.294400    7.621190  -78.152700
  H    -71.919600    8.035830  -78.969400
  H    -71.426300    8.433130  -77.385100
  C    -71.920400    6.303130  -77.590600
  H    -71.396000    5.915220  -76.748100
  H    -71.770000    5.494260  -78.379900
  H    -72.975000    6.321190  -77.319100
  H    -66.523300    8.864820  -72.917600
  H    -68.614300   11.549900  -80.607700

 Total Charge           Charge          ....    0
 Multiplicity           Mult            ....    1
 Number of Electrons    NEL             ....  134
 Basis Dimension        Dim             ....  322

ORBITAL ENERGIES
----------------

  NO   OCC          E(Eh)            E(eV)
   0   2.0000     -88.973163     -2421.0829
   1   2.0000     -88.966169     -2420.8925
   2   2.0000     -10.339206      -281.3441
   3   2.0000     -10.338565      -281.3266
   4   2.0000     -10.319041      -280.7954
   5   2.0000     -10.317903      -280.7644
   6   2.0000     -10.311961      -280.6027
   7   2.0000     -10.306490      -280.4539
   8   2.0000     -10.302785      -280.3530
   9   2.0000     -10.298623      -280.2398
  10   2.0000     -10.296132      -280.1720
  11   2.0000     -10.293807      -280.1087
  12   2.0000     -10.290405      -280.0162
  13   2.0000     -10.287741      -279.9437
  14   2.0000     -10.287423      -279.9350
  15   2.0000     -10.280269      -279.7403
  16   2.0000      -8.087132      -220.0621
  17   2.0000      -8.080008      -219.8682
  18   2.0000      -6.045555      -164.5079
  19   2.0000      -6.041641      -164.4014
  20   2.0000      -6.038809      -164.3244
  21   2.0000      -6.038134      -164.3060
  22   2.0000      -6.034600      -164.2098
  23   2.0000      -6.030523      -164.0989
  24   2.0000      -1.002928       -27.2911
  25   2.0000      -0.981397       -26.7052
  26   2.0000      -0.915817       -24.9206
  27   2.0000      -0.905532       -24.6408
  28   2.0000      -0.868549       -23.6344
  29   2.0000      -0.851756       -23.1775
  30   2.0000      -0.835432       -22.7332
  31   2.0000      -0.814552       -22.1651
  32   2.0000      -0.784062       -21.3354
  33   2.0000      -0.775998       -21.1160
  34   2.0000      -0.714698       -19.4479
  35   2.0000      -0.701830       -19.0978
  36   2.0000      -0.696823       -18.9615
  37   2.0000      -0.659835       -17.9550
  38   2.0000      -0.636669       -17.3247
  39   2.0000      -0.621981       -16.9250
  40   2.0000      -0.597873       -16.2689
  41   2.0000      -0.574419       -15.6307
  42   2.0000      -0.559428       -15.2228
  43   2.0000      -0.541982       -14.7481
  44   2.0000      -0.530362       -14.4319
  45   2.0000      -0.529902       -14.4194
  46   2.0000      -0.517956       -14.0943
  47   2.0000      -0.509416       -13.8619
  48   2.0000      -0.504447       -13.7267
  49   2.0000      -0.499249       -13.5853
  50   2.0000      -0.491001       -13.3608
  51   2.0000      -0.481877       -13.1125
  52   2.0000      -0.474151       -12.9023
  53   2.0000      -0.468839       -12.7578
  54   2.0000      -0.457995       -12.4627
  55   2.0000      -0.452256       -12.3065
  56   2.0000      -0.444978       -12.1085
  57   2.0000      -0.437483       -11.9045
  58   2.0000      -0.434020       -11.8103
  59   2.0000      -0.429377       -11.6839
  60   2.0000      -0.420520       -11.4429
  61   2.0000      -0.410858       -11.1800
  62   2.0000      -0.404770       -11.0143
  63   2.0000      -0.356160        -9.6916
  64   2.0000      -0.335953        -9.1418
  65   2.0000      -0.327101        -8.9009
  66   2.0000      -0.283878        -7.7247
  67   0.0000       0.017872         0.4863
  68   0.0000       0.074212         2.0194
  69   0.0000       0.107987         2.9385
  70   0.0000       0.117631         3.2009
  71   0.0000       0.119985         3.2649

MULLIKEN ATOMIC CHARGES
-----------------------
   0 S :    0.089891
   1 C :   -0.131930
   2 C :   -0.014685
   3 C :   -0.022497
   4 C :   -0.100777
   5 H :    0.011688
   6 C :    0.012410
   7 H :    0.042461
   8 H :    0.036637
   9 C :   -0.100711
  10 H :    0.034476
  11 H :    0.011808
  12 C :   -0.036198
  13 H :    0.057499
  14 H :    0.016849
  15 H :    0.022914
  16 S :    0.120416
  17 C :   -0.095137
  18 C :   -0.019016
  19 C :   -0.035063
  20 C :   -0.160314
  21 H :    0.002704
  22 C :    0.085975
  23 H :    0.023681
  24 H :    0.015444
  25 C :   -0.096866
  26 H :    0.032722
  27 H :    0.031106
  28 C :   -0.044314
  29 H :    0.024371
  30 H :    0.030907
  31 H :    0.045583
  32 H :    0.048545
  33 H :    0.059423
Sum of atomic charges:    0.0000000

LOEWDIN ATOMIC CHARGES
----------------------
   0 S :    0.380933
   1 C :   -0.174428
   2 C :   -0.061870
   3 C :   -0.075963
   4 C :   -0.199277
   5 H :    0.029423
   6 C :   -0.041647
   7 H :    0.037492
   8 H :    0.036444
   9 C :   -0.042553
  10 H :    0.029982
  11 H :    0.012463
  12 C :   -0.069980
  13 H :    0.035724
  14 H :    0.018027
  15 H :    0.028385
  16 S :    0.418970
  17 C :   -0.189675
  18 C :   -0.069241
  19 C :   -0.042980
  20 C :   -0.192723
  21 H :    0.027522
  22 C :   -0.039906
  23 H :    0.030673
  24 H :    0.034073
  25 C :   -0.047611
  26 H :    0.028658
  27 H :    0.022687
  28 C :   -0.068124
  29 H :    0.018053
  30 H :    0.031361
  31 H :    0.029873
  32 H :    0.028808
  33 H :    0.036428

  Mayer bond orders larger than 0.100000
B(  0-S ,  1-C ) :   1.1109 B(  0-S ,  4-C ) :   1.1496 B(  1-C ,  2-C ) :   1.6146
B(  1-C , 32-H ) :   0.9729 B(  2-C ,  3-C ) :   1.2455 B(  2-C ,  6-C ) :   1.0153
B(  3-C ,  4-C ) :   1.5498 B(  3-C ,  5-H ) :   0.9808 B(  4-C , 20-C ) :   1.0650
B(  6-C ,  7-H ) :   0.9377 B(  6-C ,  8-H ) :   0.9529 B(  6-C ,  9-C ) :   1.0803
B(  9-C , 10-H ) :   0.9602 B(  9-C , 11-H ) :   0.9587 B(  9-C , 12-C ) :   1.0407
B( 12-C , 13-H ) :   0.9795 B( 12-C , 14-H ) :   0.9804 B( 12-C , 15-H ) :   0.9769
B( 16-S , 17-C ) :   1.1610 B( 16-S , 20-C ) :   1.1619 B( 17-C , 18-C ) :   1.6024
B( 17-C , 20-C ) :   0.1116 B( 17-C , 33-H ) :   0.9595 B( 18-C , 19-C ) :   1.2816
B( 18-C , 21-H ) :   0.9910 B( 19-C , 20-C ) :   1.5036 B( 19-C , 22-C ) :   1.0584
B( 22-C , 23-H ) :   0.9350 B( 22-C , 24-H ) :   0.9209 B( 22-C , 25-C ) :   1.0428
B( 25-C , 26-H ) :   0.9510 B( 25-C , 27-H ) :   0.9563 B( 25-C , 28-C ) :   1.0737
B( 28-C , 29-H ) :   0.9756 B( 28-C , 30-H ) :   0.9717 B( 28-C , 31-H ) :   0.9754

Dispersion correction           -0.014857331
FINAL SINGLE POINT ENERGY     -1339.860265260580

DIPOLE MOMENT
-------------
                                X             Y             Z
Electronic contribution:     20.16613      24.52616      -8.40973
Nuclear contribution   :    -20.83727     -24.99411       8.42367
                        -----------------------------------------
Total Dipole Moment    :     -0.67114      -0.46794       0.01394
                        -----------------------------------------
Magnitude (a.u.)       :      0.81828
Magnitude (Debye)      :      2.07992

Rotational constants in cm-1:     0.017315     0.010170     0.006818
Rotational constants in MHz :   519.095259   304.879369   204.386231

                             ****ORCA TERMINATED NORMALLY****
TOTAL RUN TIME: 0 days 0 hours 0 minutes 22 seconds 362 msec
