                         Program Version 4.2.1 -  RELEASE  -
|  1> ! wB97X-D3 SP def2-SVP
|  2> %pal
|  3> nprocs 24
|  4> end
|  5>
|  6> * xyz 0 1
|  7> S 	 -131.508 	 26.3417 	 -14.5046
|  8> C 	 -131.171 	 24.7556 	 -15.1072
|  9> C 	 -132.267 	 23.9569 	 -14.9091
| 10> C 	 -133.425 	 24.6859 	 -14.5576
| 11> C 	 -133.211 	 26.0601 	 -14.2852
| 12> H 	 -134.415 	 24.3256 	 -14.3822
| 13> C 	 -132.136 	 22.4146 	 -15.0728
| 14> H 	 -131.074 	 22.1348 	 -14.981
| 15> H 	 -132.435 	 22.1684 	 -16.1157
| 16> C 	 -132.901 	 21.5118 	 -14.0741
| 17> H 	 -133.91 	 21.3924 	 -14.4695
| 18> H 	 -132.516 	 20.5404 	 -14.2884
| 19> C 	 -132.652 	 21.812 	 -12.6367
| 20> H 	 -133.281 	 22.6245 	 -12.325
| 21> H 	 -132.686 	 20.8956 	 -12.0682
| 22> H 	 -131.717 	 22.1591 	 -12.4881
| 23> S 	 -134.441 	 27.8175 	 -12.6084
| 24> C 	 -135.659 	 28.919 	 -13.3853
| 25> C 	 -135.653 	 28.7985 	 -14.742
| 26> C 	 -134.801 	 27.7947 	 -15.2732
| 27> C 	 -134.178 	 27.1252 	 -14.2612
| 28> H 	 -136.101 	 29.5531 	 -15.3207
| 29> C 	 -134.465 	 27.5845 	 -16.7445
| 30> H 	 -133.502 	 27.1099 	 -16.8941
| 31> H 	 -134.261 	 28.6488 	 -17.1001
| 32> C 	 -135.578 	 26.9292 	 -17.5578
| 33> H 	 -136.392 	 27.6149 	 -17.6859
| 34> H 	 -135.97 	 26.007 	 -17.1112
| 35> C 	 -135.139 	 26.5602 	 -18.952
| 36> H 	 -136.021 	 26.1928 	 -19.4958
| 37> H 	 -134.414 	 25.7948 	 -18.9681
| 38> H 	 -134.612 	 27.3097 	 -19.4433
| 39> H 	 -130.216 	 24.1886 	 -15.0743
| 40> H 	 -136.22 	 29.7184 	 -12.9833
| 41> *
| 42>
| 43>                          ****END OF INPUT****

CARTESIAN COORDINATES (ANGSTROEM)
---------------------------------
  S    -131.508000   26.341700  -14.504600
  C    -131.171000   24.755600  -15.107200
  C    -132.267000   23.956900  -14.909100
  C    -133.425000   24.685900  -14.557600
  C    -133.211000   26.060100  -14.285200
  H    -134.415000   24.325600  -14.382200
  C    -132.136000   22.414600  -15.072800
  H    -131.074000   22.134800  -14.981000
  H    -132.435000   22.168400  -16.115700
  C    -132.901000   21.511800  -14.074100
  H    -133.910000   21.392400  -14.469500
  H    -132.516000   20.540400  -14.288400
  C    -132.652000   21.812000  -12.636700
  H    -133.281000   22.624500  -12.325000
  H    -132.686000   20.895600  -12.068200
  H    -131.717000   22.159100  -12.488100
  S    -134.441000   27.817500  -12.608400
  C    -135.659000   28.919000  -13.385300
  C    -135.653000   28.798500  -14.742000
  C    -134.801000   27.794700  -15.273200
  C    -134.178000   27.125200  -14.261200
  H    -136.101000   29.553100  -15.320700
  C    -134.465000   27.584500  -16.744500
  H    -133.502000   27.109900  -16.894100
  H    -134.261000   28.648800  -17.100100
  C    -135.578000   26.929200  -17.557800
  H    -136.392000   27.614900  -17.685900
  H    -135.970000   26.007000  -17.111200
  C    -135.139000   26.560200  -18.952000
  H    -136.021000   26.192800  -19.495800
  H    -134.414000   25.794800  -18.968100
  H    -134.612000   27.309700  -19.443300
  H    -130.216000   24.188600  -15.074300
  H    -136.220000   29.718400  -12.983300

 Total Charge           Charge          ....    0
 Multiplicity           Mult            ....    1
 Number of Electrons    NEL             ....  134
 Basis Dimension        Dim             ....  322

ORBITAL ENERGIES
----------------

  NO   OCC          E(Eh)            E(eV)
   0   2.0000     -88.965979     -2420.8874
   1   2.0000     -88.964372     -2420.8436
   2   2.0000     -10.327373      -281.0221
   3   2.0000     -10.325876      -280.9814
   4   2.0000     -10.317872      -280.7636
   5   2.0000     -10.310036      -280.5503
   6   2.0000     -10.303486      -280.3721
   7   2.0000     -10.300405      -280.2883
   8   2.0000     -10.297280      -280.2032
   9   2.0000     -10.296830      -280.1910
  10   2.0000     -10.295029      -280.1420
  11   2.0000     -10.289094      -279.9805
  12   2.0000     -10.282104      -279.7903
  13   2.0000     -10.280594      -279.7492
  14   2.0000     -10.265043      -279.3260
  15   2.0000     -10.263614      -279.2871
  16   2.0000      -8.079208      -219.8464
  17   2.0000      -8.078923      -219.8387
  18   2.0000      -6.037658      -164.2930
  19   2.0000      -6.037607      -164.2916
  20   2.0000      -6.033955      -164.1923
  21   2.0000      -6.033469      -164.1790
  22   2.0000      -6.030210      -164.0904
  23   2.0000      -6.029327      -164.0663
  24   2.0000      -1.006343       -27.3840
  25   2.0000      -0.981934       -26.7198
  26   2.0000      -0.913048       -24.8453
  27   2.0000      -0.910046       -24.7636
  28   2.0000      -0.875153       -23.8141
  29   2.0000      -0.852417       -23.1954
  30   2.0000      -0.844367       -22.9764
  31   2.0000      -0.818123       -22.2623
  32   2.0000      -0.787264       -21.4225
  33   2.0000      -0.774685       -21.0803
  34   2.0000      -0.715232       -19.4625
  35   2.0000      -0.701321       -19.0839
  36   2.0000      -0.692626       -18.8473
  37   2.0000      -0.663696       -18.0601
  38   2.0000      -0.637619       -17.3505
  39   2.0000      -0.615207       -16.7406
  40   2.0000      -0.594942       -16.1892
  41   2.0000      -0.568273       -15.4635
  42   2.0000      -0.561598       -15.2819
  43   2.0000      -0.553710       -15.0672
  44   2.0000      -0.549094       -14.9416
  45   2.0000      -0.536698       -14.6043
  46   2.0000      -0.519462       -14.1353
  47   2.0000      -0.510152       -13.8819
  48   2.0000      -0.505078       -13.7439
  49   2.0000      -0.497033       -13.5249
  50   2.0000      -0.489035       -13.3073
  51   2.0000      -0.482304       -13.1242
  52   2.0000      -0.468845       -12.7579
  53   2.0000      -0.464601       -12.6424
  54   2.0000      -0.458352       -12.4724
  55   2.0000      -0.446235       -12.1427
  56   2.0000      -0.445035       -12.1100
  57   2.0000      -0.439290       -11.9537
  58   2.0000      -0.436737       -11.8842
  59   2.0000      -0.425734       -11.5848
  60   2.0000      -0.414049       -11.2668
  61   2.0000      -0.412079       -11.2133
  62   2.0000      -0.410345       -11.1661
  63   2.0000      -0.335445        -9.1279
  64   2.0000      -0.330749        -9.0002
  65   2.0000      -0.321578        -8.7506
  66   2.0000      -0.310903        -8.4601
  67   0.0000       0.037654         1.0246
  68   0.0000       0.048299         1.3143
  69   0.0000       0.094202         2.5634
  70   0.0000       0.115662         3.1473
  71   0.0000       0.134325         3.6552

MULLIKEN ATOMIC CHARGES
-----------------------
   0 S :    0.114202
   1 C :   -0.110103
   2 C :   -0.123894
   3 C :    0.052804
   4 C :   -0.175453
   5 H :    0.004265
   6 C :    0.027062
   7 H :    0.017960
   8 H :    0.044662
   9 C :   -0.075324
  10 H :    0.024054
  11 H :    0.008752
  12 C :    0.044822
  13 H :    0.036097
  14 H :    0.031331
  15 H :   -0.008206
  16 S :    0.089178
  17 C :   -0.052202
  18 C :   -0.031279
  19 C :    0.015184
  20 C :   -0.203650
  21 H :    0.002334
  22 C :    0.057169
  23 H :    0.028004
  24 H :    0.035175
  25 C :   -0.060687
  26 H :    0.021989
  27 H :    0.032984
  28 C :   -0.001956
  29 H :    0.035846
  30 H :    0.010846
  31 H :    0.005900
  32 H :    0.064501
  33 H :    0.037633
Sum of atomic charges:    0.0000000

LOEWDIN ATOMIC CHARGES
----------------------
   0 S :    0.424057
   1 C :   -0.222503
   2 C :   -0.071416
   3 C :   -0.058609
   4 C :   -0.210975
   5 H :    0.026664
   6 C :   -0.029443
   7 H :    0.025190
   8 H :    0.035869
   9 C :   -0.046209
  10 H :    0.023129
  11 H :    0.022490
  12 C :   -0.052465
  13 H :    0.030836
  14 H :    0.031847
  15 H :    0.013932
  16 S :    0.351471
  17 C :   -0.154629
  18 C :   -0.063811
  19 C :   -0.045275
  20 C :   -0.180892
  21 H :    0.024859
  22 C :   -0.027982
  23 H :    0.028867
  24 H :    0.041938
  25 C :   -0.036996
  26 H :    0.021054
  27 H :    0.028304
  28 C :   -0.058523
  29 H :    0.031495
  30 H :    0.018536
  31 H :    0.015038
  32 H :    0.039947
  33 H :    0.024204

  Mayer bond orders larger than 0.100000
B(  0-S ,  1-C ) :   1.1584 B(  0-S ,  4-C ) :   1.1701 B(  1-C ,  2-C ) :   1.5891
B(  1-C ,  4-C ) :   0.1134 B(  1-C , 32-H ) :   0.9498 B(  2-C ,  3-C ) :   1.2683
B(  2-C ,  6-C ) :   1.0030 B(  3-C ,  4-C ) :   1.5393 B(  3-C ,  5-H ) :   1.0045
B(  4-C , 20-C ) :   1.0001 B(  6-C ,  7-H ) :   0.9469 B(  6-C ,  8-H ) :   0.9429
B(  6-C ,  9-C ) :   1.0866 B(  9-C , 10-H ) :   0.9513 B(  9-C , 11-H ) :   0.9522
B(  9-C , 12-C ) :   1.0750 B( 12-C , 13-H ) :   0.9679 B( 12-C , 14-H ) :   0.9716
B( 12-C , 15-H ) :   0.9652 B( 16-S , 17-C ) :   1.1130 B( 16-S , 20-C ) :   1.1119
B( 17-C , 18-C ) :   1.6835 B( 17-C , 33-H ) :   0.9654 B( 18-C , 19-C ) :   1.1991
B( 18-C , 21-H ) :   0.9841 B( 19-C , 20-C ) :   1.6582 B( 19-C , 22-C ) :   1.0316
B( 22-C , 23-H ) :   0.9387 B( 22-C , 24-H ) :   0.9297 B( 22-C , 25-C ) :   1.0603
B( 25-C , 26-H ) :   0.9532 B( 25-C , 27-H ) :   0.9562 B( 25-C , 28-C ) :   1.0971
B( 28-C , 29-H ) :   0.9727 B( 28-C , 30-H ) :   0.9709 B( 28-C , 31-H ) :   0.9674

Dispersion correction           -0.014692652
FINAL SINGLE POINT ENERGY     -1339.848306446565

DIPOLE MOMENT
-------------
                                X             Y             Z
Electronic contribution:      4.60250      17.36878      14.37289
Nuclear contribution   :     -4.74495     -17.68356     -14.79011
                        -----------------------------------------
Total Dipole Moment    :     -0.14244      -0.31478      -0.41721
                        -----------------------------------------
Magnitude (a.u.)       :      0.54171
Magnitude (Debye)      :      1.37691

Rotational constants in cm-1:     0.017450     0.009080     0.007361
Rotational constants in MHz :   523.131581   272.203102   220.691056

                             ****ORCA TERMINATED NORMALLY****
TOTAL RUN TIME: 0 days 0 hours 0 minutes 22 seconds 12 msec
