                         Program Version 4.2.1 -  RELEASE  -
|  1> ! wB97X-D3 SP def2-SVP
|  2> %pal
|  3> nprocs 24
|  4> end
|  5>
|  6> * xyz 0 1
|  7> S 	 -40.7479 	 11.0591 	 26.7414
|  8> C 	 -40.6141 	 12.2529 	 28.0028
|  9> C 	 -40.2489 	 11.6038 	 29.1594
| 10> C 	 -40.222 	 10.1597 	 29.0874
| 11> C 	 -40.4741 	 9.69651 	 27.8526
| 12> H 	 -39.8039 	 9.47933 	 29.8165
| 13> C 	 -39.9168 	 12.2778 	 30.5033
| 14> H 	 -40.0493 	 11.6314 	 31.3638
| 15> H 	 -40.6908 	 13.0301 	 30.7216
| 16> C 	 -38.5517 	 12.8913 	 30.5537
| 17> H 	 -37.8872 	 12.0506 	 30.2653
| 18> H 	 -38.4063 	 13.6511 	 29.797
| 19> C 	 -38.0387 	 13.4176 	 31.8462
| 20> H 	 -37.322 	 14.25 	 31.7036
| 21> H 	 -38.8858 	 13.7554 	 32.4679
| 22> H 	 -37.5518 	 12.6669 	 32.3724
| 23> S 	 -38.6686 	 8.17899 	 26.4179
| 24> C 	 -38.7645 	 6.45875 	 26.6455
| 25> C 	 -40.0634 	 6.05867 	 27.0106
| 26> C 	 -40.8336 	 7.15305 	 27.4951
| 27> C 	 -40.1673 	 8.37269 	 27.3129
| 28> H 	 -40.2294 	 4.99577 	 27.0413
| 29> C 	 -42.1468 	 6.91785 	 28.2429
| 30> H 	 -42.1729 	 7.58983 	 29.1001
| 31> H 	 -42.2133 	 5.91413 	 28.6717
| 32> C 	 -43.5012 	 7.12998 	 27.5275
| 33> H 	 -43.7086 	 8.15681 	 27.4365
| 34> H 	 -44.2464 	 6.76025 	 28.2182
| 35> C 	 -43.654 	 6.4378 	 26.0932
| 36> H 	 -44.6955 	 6.32906 	 25.8347
| 37> H 	 -43.262 	 5.42424 	 26.0979
| 38> H 	 -43.2193 	 6.99401 	 25.2828
| 39> H 	 -40.8205 	 13.2786 	 27.9192
| 40> H 	 -37.9773 	 5.79122 	 26.3658
| 41> *
| 42>
| 43>                          ****END OF INPUT****

CARTESIAN COORDINATES (ANGSTROEM)
---------------------------------
  S    -40.747900   11.059100   26.741400
  C    -40.614100   12.252900   28.002800
  C    -40.248900   11.603800   29.159400
  C    -40.222000   10.159700   29.087400
  C    -40.474100    9.696510   27.852600
  H    -39.803900    9.479330   29.816500
  C    -39.916800   12.277800   30.503300
  H    -40.049300   11.631400   31.363800
  H    -40.690800   13.030100   30.721600
  C    -38.551700   12.891300   30.553700
  H    -37.887200   12.050600   30.265300
  H    -38.406300   13.651100   29.797000
  C    -38.038700   13.417600   31.846200
  H    -37.322000   14.250000   31.703600
  H    -38.885800   13.755400   32.467900
  H    -37.551800   12.666900   32.372400
  S    -38.668600    8.178990   26.417900
  C    -38.764500    6.458750   26.645500
  C    -40.063400    6.058670   27.010600
  C    -40.833600    7.153050   27.495100
  C    -40.167300    8.372690   27.312900
  H    -40.229400    4.995770   27.041300
  C    -42.146800    6.917850   28.242900
  H    -42.172900    7.589830   29.100100
  H    -42.213300    5.914130   28.671700
  C    -43.501200    7.129980   27.527500
  H    -43.708600    8.156810   27.436500
  H    -44.246400    6.760250   28.218200
  C    -43.654000    6.437800   26.093200
  H    -44.695500    6.329060   25.834700
  H    -43.262000    5.424240   26.097900
  H    -43.219300    6.994010   25.282800
  H    -40.820500   13.278600   27.919200
  H    -37.977300    5.791220   26.365800

 Total Charge           Charge          ....    0
 Multiplicity           Mult            ....    1
 Number of Electrons    NEL             ....  134
 Basis Dimension        Dim             ....  322

ORBITAL ENERGIES
----------------

  NO   OCC          E(Eh)            E(eV)
   0   2.0000     -88.967386     -2420.9257
   1   2.0000     -88.961193     -2420.7571
   2   2.0000     -10.327110      -281.0149
   3   2.0000     -10.326782      -281.0060
   4   2.0000     -10.317333      -280.7489
   5   2.0000     -10.312483      -280.6169
   6   2.0000     -10.308711      -280.5143
   7   2.0000     -10.303053      -280.3603
   8   2.0000     -10.295766      -280.1620
   9   2.0000     -10.291535      -280.0469
  10   2.0000     -10.291304      -280.0406
  11   2.0000     -10.288267      -279.9580
  12   2.0000     -10.282634      -279.8047
  13   2.0000     -10.276356      -279.6339
  14   2.0000     -10.273001      -279.5426
  15   2.0000     -10.270796      -279.4826
  16   2.0000      -8.082273      -219.9298
  17   2.0000      -8.075920      -219.7569
  18   2.0000      -6.040661      -164.3747
  19   2.0000      -6.036880      -164.2719
  20   2.0000      -6.034605      -164.2100
  21   2.0000      -6.033018      -164.1668
  22   2.0000      -6.030326      -164.0935
  23   2.0000      -6.026592      -163.9919
  24   2.0000      -1.006625       -27.3917
  25   2.0000      -0.983947       -26.7746
  26   2.0000      -0.914438       -24.8831
  27   2.0000      -0.899985       -24.4898
  28   2.0000      -0.871403       -23.7121
  29   2.0000      -0.848041       -23.0764
  30   2.0000      -0.843875       -22.9630
  31   2.0000      -0.815557       -22.1924
  32   2.0000      -0.784627       -21.3508
  33   2.0000      -0.772883       -21.0312
  34   2.0000      -0.708975       -19.2922
  35   2.0000      -0.695172       -18.9166
  36   2.0000      -0.689974       -18.7751
  37   2.0000      -0.660864       -17.9830
  38   2.0000      -0.650078       -17.6895
  39   2.0000      -0.617121       -16.7927
  40   2.0000      -0.590536       -16.0693
  41   2.0000      -0.571615       -15.5544
  42   2.0000      -0.563945       -15.3457
  43   2.0000      -0.552417       -15.0320
  44   2.0000      -0.533910       -14.5284
  45   2.0000      -0.528359       -14.3774
  46   2.0000      -0.518645       -14.1130
  47   2.0000      -0.515777       -14.0350
  48   2.0000      -0.508582       -13.8392
  49   2.0000      -0.497040       -13.5251
  50   2.0000      -0.484285       -13.1781
  51   2.0000      -0.479648       -13.0519
  52   2.0000      -0.475857       -12.9487
  53   2.0000      -0.463699       -12.6179
  54   2.0000      -0.457084       -12.4379
  55   2.0000      -0.449624       -12.2349
  56   2.0000      -0.443607       -12.0712
  57   2.0000      -0.433292       -11.7905
  58   2.0000      -0.428559       -11.6617
  59   2.0000      -0.423920       -11.5355
  60   2.0000      -0.417401       -11.3581
  61   2.0000      -0.414201       -11.2710
  62   2.0000      -0.404413       -11.0046
  63   2.0000      -0.345735        -9.4079
  64   2.0000      -0.330712        -8.9991
  65   2.0000      -0.323401        -8.8002
  66   2.0000      -0.298050        -8.1103
  67   0.0000       0.038755         1.0546
  68   0.0000       0.049327         1.3423
  69   0.0000       0.115696         3.1482
  70   0.0000       0.123661         3.3650
  71   0.0000       0.129731         3.5302

MULLIKEN ATOMIC CHARGES
-----------------------
   0 S :    0.084683
   1 C :   -0.083860
   2 C :   -0.107311
   3 C :    0.058880
   4 C :   -0.157824
   5 H :    0.021514
   6 C :    0.062213
   7 H :    0.011015
   8 H :    0.019359
   9 C :   -0.085777
  10 H :    0.023305
  11 H :    0.021007
  12 C :   -0.009539
  13 H :    0.037988
  14 H :    0.023853
  15 H :    0.017671
  16 S :    0.129832
  17 C :   -0.114764
  18 C :   -0.031324
  19 C :   -0.001438
  20 C :   -0.171723
  21 H :    0.020679
  22 C :    0.064825
  23 H :    0.024784
  24 H :    0.021835
  25 C :   -0.054928
  26 H :    0.024116
  27 H :    0.025180
  28 C :   -0.052747
  29 H :    0.025747
  30 H :    0.022361
  31 H :    0.042422
  32 H :    0.034327
  33 H :    0.053639
Sum of atomic charges:   -0.0000000

LOEWDIN ATOMIC CHARGES
----------------------
   0 S :    0.386813
   1 C :   -0.185917
   2 C :   -0.057066
   3 C :   -0.061612
   4 C :   -0.183316
   5 H :    0.036577
   6 C :   -0.036507
   7 H :    0.025614
   8 H :    0.026999
   9 C :   -0.050952
  10 H :    0.028167
  11 H :    0.020438
  12 C :   -0.062188
  13 H :    0.033773
  14 H :    0.026262
  15 H :    0.016394
  16 S :    0.414747
  17 C :   -0.181860
  18 C :   -0.068240
  19 C :   -0.048523
  20 C :   -0.205843
  21 H :    0.030752
  22 C :   -0.032901
  23 H :    0.034215
  24 H :    0.029832
  25 C :   -0.029767
  26 H :    0.017027
  27 H :    0.024443
  28 C :   -0.066522
  29 H :    0.024604
  30 H :    0.021776
  31 H :    0.026453
  32 H :    0.023575
  33 H :    0.022753

  Mayer bond orders larger than 0.100000
B(  0-S ,  1-C ) :   1.1233 B(  0-S ,  4-C ) :   1.1371 B(  1-C ,  2-C ) :   1.6279
B(  1-C , 32-H ) :   0.9804 B(  2-C ,  3-C ) :   1.2207 B(  2-C ,  6-C ) :   1.0213
B(  3-C ,  4-C ) :   1.6219 B(  3-C ,  5-H ) :   0.9894 B(  4-C , 20-C ) :   1.0102
B(  6-C ,  7-H ) :   0.9459 B(  6-C ,  8-H ) :   0.9323 B(  6-C ,  9-C ) :   1.0686
B(  9-C , 10-H ) :   0.9556 B(  9-C , 11-H ) :   0.9584 B(  9-C , 12-C ) :   1.0828
B( 12-C , 13-H ) :   0.9737 B( 12-C , 14-H ) :   0.9722 B( 12-C , 15-H ) :   0.9743
B( 16-S , 17-C ) :   1.1702 B( 16-S , 20-C ) :   1.1450 B( 17-C , 18-C ) :   1.5993
B( 17-C , 20-C ) :   0.1050 B( 17-C , 33-H ) :   0.9711 B( 18-C , 19-C ) :   1.2318
B( 18-C , 21-H ) :   0.9937 B( 19-C , 20-C ) :   1.5884 B( 19-C , 22-C ) :   1.0396
B( 22-C , 23-H ) :   0.9294 B( 22-C , 24-H ) :   0.9414 B( 22-C , 25-C ) :   1.0826
B( 25-C , 26-H ) :   0.9587 B( 25-C , 27-H ) :   0.9570 B( 25-C , 28-C ) :   1.0678
B( 28-C , 29-H ) :   0.9767 B( 28-C , 30-H ) :   0.9795 B( 28-C , 31-H ) :   0.9762

Dispersion correction           -0.014062422
FINAL SINGLE POINT ENERGY     -1339.869367741567

DIPOLE MOMENT
-------------
                                X             Y             Z
Electronic contribution:      6.90556      -2.07650     -15.72285
Nuclear contribution   :     -6.90413       1.88477      16.23944
                        -----------------------------------------
Total Dipole Moment    :      0.00143      -0.19173       0.51659
                        -----------------------------------------
Magnitude (a.u.)       :      0.55103
Magnitude (Debye)      :      1.40060

Rotational constants in cm-1:     0.022246     0.007239     0.006649
Rotational constants in MHz :   666.917492   217.032936   199.335042

                             ****ORCA TERMINATED NORMALLY****
TOTAL RUN TIME: 0 days 0 hours 0 minutes 19 seconds 941 msec
