                         Program Version 4.2.1 -  RELEASE  -
|  1> ! wB97X-D3 SP def2-SVP
|  2> %pal
|  3> nprocs 24
|  4> end
|  5>
|  6> * xyz 0 1
|  7> S 	 -72.4518 	 4.31871 	 14.6254
|  8> C 	 -70.6688 	 4.13326 	 14.5133
|  9> C 	 -70.1637 	 3.5868 	 15.6836
| 10> C 	 -71.1698 	 3.48117 	 16.7084
| 11> C 	 -72.4126 	 4.00124 	 16.3109
| 12> H 	 -71.099 	 3.02287 	 17.6734
| 13> C 	 -68.7312 	 3.17459 	 15.8819
| 14> H 	 -68.2039 	 3.82164 	 15.2037
| 15> H 	 -68.8847 	 2.07083 	 15.5189
| 16> C 	 -68.0841 	 3.36124 	 17.217
| 17> H 	 -67.0624 	 3.63647 	 16.9887
| 18> H 	 -68.5529 	 4.13692 	 17.7442
| 19> C 	 -68.0882 	 2.06678 	 18.0774
| 20> H 	 -67.6073 	 1.20988 	 17.5617
| 21> H 	 -67.5679 	 2.32096 	 18.969
| 22> H 	 -69.1346 	 1.86885 	 18.1753
| 23> S 	 -74.5984 	 5.63887 	 16.8378
| 24> C 	 -75.6937 	 5.22275 	 18.1089
| 25> C 	 -75.3535 	 3.98247 	 18.6825
| 26> C 	 -74.2098 	 3.39644 	 18.0705
| 27> C 	 -73.612 	 4.17428 	 17.1053
| 28> H 	 -76.0623 	 3.58372 	 19.438
| 29> C 	 -73.6008 	 2.08048 	 18.6287
| 30> H 	 -72.7636 	 1.8386 	 17.9189
| 31> H 	 -74.3864 	 1.27335 	 18.6189
| 32> C 	 -73.0801 	 2.07417 	 20.0586
| 33> H 	 -73.7809 	 2.13758 	 20.9203
| 34> H 	 -72.291 	 2.85314 	 20.1391
| 35> C 	 -72.3581 	 0.704478 	 20.2285
| 36> H 	 -71.5402 	 0.566031 	 19.5485
| 37> H 	 -73.0488 	 -0.0889156 	 20.2551
| 38> H 	 -71.8388 	 0.715921 	 21.2276
| 39> H 	 -70.1684 	 4.45117 	 13.6225
| 40> H 	 -76.5417 	 5.80418 	 18.427
| 41> *
| 42>
| 43>                          ****END OF INPUT****

CARTESIAN COORDINATES (ANGSTROEM)
---------------------------------
  S    -72.451800    4.318710   14.625400
  C    -70.668800    4.133260   14.513300
  C    -70.163700    3.586800   15.683600
  C    -71.169800    3.481170   16.708400
  C    -72.412600    4.001240   16.310900
  H    -71.099000    3.022870   17.673400
  C    -68.731200    3.174590   15.881900
  H    -68.203900    3.821640   15.203700
  H    -68.884700    2.070830   15.518900
  C    -68.084100    3.361240   17.217000
  H    -67.062400    3.636470   16.988700
  H    -68.552900    4.136920   17.744200
  C    -68.088200    2.066780   18.077400
  H    -67.607300    1.209880   17.561700
  H    -67.567900    2.320960   18.969000
  H    -69.134600    1.868850   18.175300
  S    -74.598400    5.638870   16.837800
  C    -75.693700    5.222750   18.108900
  C    -75.353500    3.982470   18.682500
  C    -74.209800    3.396440   18.070500
  C    -73.612000    4.174280   17.105300
  H    -76.062300    3.583720   19.438000
  C    -73.600800    2.080480   18.628700
  H    -72.763600    1.838600   17.918900
  H    -74.386400    1.273350   18.618900
  C    -73.080100    2.074170   20.058600
  H    -73.780900    2.137580   20.920300
  H    -72.291000    2.853140   20.139100
  C    -72.358100    0.704478   20.228500
  H    -71.540200    0.566031   19.548500
  H    -73.048800   -0.088916   20.255100
  H    -71.838800    0.715921   21.227600
  H    -70.168400    4.451170   13.622500
  H    -76.541700    5.804180   18.427000

 Total Charge           Charge          ....    0
 Multiplicity           Mult            ....    1
 Number of Electrons    NEL             ....  134
 Basis Dimension        Dim             ....  322

ORBITAL ENERGIES
----------------

  NO   OCC          E(Eh)            E(eV)
   0   2.0000     -88.966297     -2420.8960
   1   2.0000     -88.963745     -2420.8266
   2   2.0000     -10.330757      -281.1142
   3   2.0000     -10.327646      -281.0295
   4   2.0000     -10.319181      -280.7992
   5   2.0000     -10.311950      -280.6024
   6   2.0000     -10.305150      -280.4174
   7   2.0000     -10.304969      -280.4125
   8   2.0000     -10.300033      -280.2782
   9   2.0000     -10.297927      -280.2209
  10   2.0000     -10.295072      -280.1432
  11   2.0000     -10.294615      -280.1307
  12   2.0000     -10.294088      -280.1164
  13   2.0000     -10.281016      -279.7607
  14   2.0000     -10.279138      -279.7096
  15   2.0000     -10.277327      -279.6603
  16   2.0000      -8.080740      -219.8881
  17   2.0000      -8.078542      -219.8283
  18   2.0000      -6.039176      -164.3343
  19   2.0000      -6.037032      -164.2760
  20   2.0000      -6.035244      -164.2273
  21   2.0000      -6.033169      -164.1709
  22   2.0000      -6.031621      -164.1287
  23   2.0000      -6.029199      -164.0629
  24   2.0000      -1.005572       -27.3630
  25   2.0000      -0.981225       -26.7005
  26   2.0000      -0.920629       -25.0516
  27   2.0000      -0.908979       -24.7346
  28   2.0000      -0.870830       -23.6965
  29   2.0000      -0.852520       -23.1982
  30   2.0000      -0.840863       -22.8810
  31   2.0000      -0.813727       -22.1426
  32   2.0000      -0.783062       -21.3082
  33   2.0000      -0.771281       -20.9876
  34   2.0000      -0.710333       -19.3291
  35   2.0000      -0.697213       -18.9721
  36   2.0000      -0.694489       -18.8980
  37   2.0000      -0.658438       -17.9170
  38   2.0000      -0.641028       -17.4433
  39   2.0000      -0.622507       -16.9393
  40   2.0000      -0.591669       -16.1001
  41   2.0000      -0.576193       -15.6790
  42   2.0000      -0.568643       -15.4736
  43   2.0000      -0.559848       -15.2342
  44   2.0000      -0.538015       -14.6401
  45   2.0000      -0.531452       -14.4615
  46   2.0000      -0.521491       -14.1905
  47   2.0000      -0.512357       -13.9419
  48   2.0000      -0.508906       -13.8480
  49   2.0000      -0.502173       -13.6648
  50   2.0000      -0.493433       -13.4270
  51   2.0000      -0.476904       -12.9772
  52   2.0000      -0.473019       -12.8715
  53   2.0000      -0.462329       -12.5806
  54   2.0000      -0.459797       -12.5117
  55   2.0000      -0.449669       -12.2361
  56   2.0000      -0.443712       -12.0740
  57   2.0000      -0.443406       -12.0657
  58   2.0000      -0.432751       -11.7758
  59   2.0000      -0.424081       -11.5398
  60   2.0000      -0.416181       -11.3249
  61   2.0000      -0.414026       -11.2662
  62   2.0000      -0.408524       -11.1165
  63   2.0000      -0.346164        -9.4196
  64   2.0000      -0.331713        -9.0264
  65   2.0000      -0.326865        -8.8945
  66   2.0000      -0.287450        -7.8219
  67   0.0000       0.022971         0.6251
  68   0.0000       0.073120         1.9897
  69   0.0000       0.106483         2.8976
  70   0.0000       0.117946         3.2095
  71   0.0000       0.126253         3.4355

MULLIKEN ATOMIC CHARGES
-----------------------
   0 S :    0.103345
   1 C :   -0.148444
   2 C :   -0.080967
   3 C :    0.017003
   4 C :   -0.140634
   5 H :   -0.007423
   6 C :    0.036979
   7 H :    0.022513
   8 H :    0.071276
   9 C :   -0.048521
  10 H :    0.026837
  11 H :    0.026272
  12 C :   -0.033738
  13 H :    0.038607
  14 H :    0.036967
  15 H :    0.018728
  16 S :    0.109818
  17 C :   -0.096004
  18 C :   -0.053894
  19 C :    0.006840
  20 C :   -0.155211
  21 H :    0.034960
  22 C :    0.009642
  23 H :    0.034299
  24 H :    0.034074
  25 C :   -0.080516
  26 H :    0.044609
  27 H :    0.033998
  28 C :   -0.049604
  29 H :    0.028269
  30 H :    0.027034
  31 H :    0.030299
  32 H :    0.043831
  33 H :    0.058754
Sum of atomic charges:    0.0000000

LOEWDIN ATOMIC CHARGES
----------------------
   0 S :    0.400226
   1 C :   -0.194525
   2 C :   -0.055141
   3 C :   -0.078730
   4 C :   -0.190614
   5 H :    0.021634
   6 C :   -0.039686
   7 H :    0.032391
   8 H :    0.056413
   9 C :   -0.038043
  10 H :    0.025244
  11 H :    0.021047
  12 C :   -0.053649
  13 H :    0.029299
  14 H :    0.023388
  15 H :    0.017051
  16 S :    0.403859
  17 C :   -0.186982
  18 C :   -0.078143
  19 C :   -0.056987
  20 C :   -0.196733
  21 H :    0.038988
  22 C :   -0.038116
  23 H :    0.034087
  24 H :    0.035337
  25 C :   -0.042872
  26 H :    0.029865
  27 H :    0.024273
  28 C :   -0.059987
  29 H :    0.018835
  30 H :    0.016311
  31 H :    0.030811
  32 H :    0.021694
  33 H :    0.029453

  Mayer bond orders larger than 0.100000
B(  0-S ,  1-C ) :   1.1136 B(  0-S ,  4-C ) :   1.1792 B(  1-C ,  2-C ) :   1.5981
B(  1-C , 32-H ) :   0.9798 B(  2-C ,  3-C ) :   1.2261 B(  2-C ,  6-C ) :   1.0109
B(  3-C ,  4-C ) :   1.5451 B(  3-C ,  5-H ) :   0.9905 B(  4-C , 20-C ) :   1.0590
B(  6-C ,  7-H ) :   0.9414 B(  6-C ,  8-H ) :   0.9333 B(  6-C ,  9-C ) :   1.0622
B(  9-C , 10-H ) :   0.9584 B(  9-C , 11-H ) :   0.9559 B(  9-C , 12-C ) :   1.0745
B( 12-C , 13-H ) :   0.9750 B( 12-C , 14-H ) :   0.9729 B( 12-C , 15-H ) :   0.9815
B( 16-S , 17-C ) :   1.1699 B( 16-S , 20-C ) :   1.1250 B( 17-C , 18-C ) :   1.5954
B( 17-C , 20-C ) :   0.1021 B( 17-C , 33-H ) :   0.9684 B( 18-C , 19-C ) :   1.2377
B( 18-C , 21-H ) :   0.9886 B( 19-C , 20-C ) :   1.5876 B( 19-C , 22-C ) :   1.0371
B( 22-C , 23-H ) :   0.9371 B( 22-C , 24-H ) :   0.9312 B( 22-C , 25-C ) :   1.0668
B( 25-C , 26-H ) :   0.9521 B( 25-C , 27-H ) :   0.9536 B( 25-C , 28-C ) :   1.0798
B( 28-C , 29-H ) :   0.9757 B( 28-C , 30-H ) :   0.9763 B( 28-C , 31-H ) :   0.9728

Dispersion correction           -0.014494010
FINAL SINGLE POINT ENERGY     -1339.864689999020

DIPOLE MOMENT
-------------
                                X             Y             Z
Electronic contribution:    -19.17562      18.70883     -18.28378
Nuclear contribution   :     19.49720     -19.05801      18.77316
                        -----------------------------------------
Total Dipole Moment    :      0.32158      -0.34918       0.48937
                        -----------------------------------------
Magnitude (a.u.)       :      0.68178
Magnitude (Debye)      :      1.73296

Rotational constants in cm-1:     0.016175     0.010493     0.006899
Rotational constants in MHz :   484.905973   314.575858   206.829487

                             ****ORCA TERMINATED NORMALLY****
TOTAL RUN TIME: 0 days 0 hours 0 minutes 21 seconds 20 msec
