                         Program Version 4.2.1 -  RELEASE  -
|  1> ! wB97X-D3 SP def2-SVP
|  2> %pal
|  3> nprocs 24
|  4> end
|  5>
|  6> * xyz 0 1
|  7> S 	 -62.6272 	 1.80913 	 -15.5225
|  8> C 	 -61.7797 	 2.60461 	 -14.2389
|  9> C 	 -60.6385 	 3.15864 	 -14.744
| 10> C 	 -60.4873 	 3.0241 	 -16.1734
| 11> C 	 -61.5751 	 2.29465 	 -16.7589
| 12> H 	 -59.7303 	 3.52154 	 -16.7506
| 13> C 	 -59.711 	 3.89537 	 -13.8987
| 14> H 	 -58.9268 	 4.07529 	 -14.6047
| 15> H 	 -59.3649 	 3.40559 	 -13.0011
| 16> C 	 -60.2441 	 5.20908 	 -13.3205
| 17> H 	 -61.1511 	 5.07334 	 -12.8018
| 18> H 	 -59.5041 	 5.63156 	 -12.623
| 19> C 	 -60.5004 	 6.17038 	 -14.5238
| 20> H 	 -61.2752 	 5.79143 	 -15.1903
| 21> H 	 -60.7936 	 7.15699 	 -14.1895
| 22> H 	 -59.5822 	 6.28068 	 -15.1779
| 23> S 	 -63.2695 	 2.62316 	 -18.8614
| 24> C 	 -62.7211 	 2.16051 	 -20.4426
| 25> C 	 -61.4264 	 1.62649 	 -20.3888
| 26> C 	 -60.9164 	 1.59137 	 -19.0586
| 27> C 	 -61.8391 	 1.96971 	 -18.1137
| 28> H 	 -60.9578 	 1.38772 	 -21.3636
| 29> C 	 -59.5287 	 1.08455 	 -18.7968
| 30> H 	 -59.2388 	 1.23964 	 -17.7839
| 31> H 	 -58.8318 	 1.66994 	 -19.2867
| 32> C 	 -59.4211 	 -0.447393 	 -19.0996
| 33> H 	 -58.3741 	 -0.661069 	 -18.8635
| 34> H 	 -59.4802 	 -0.68635 	 -20.1796
| 35> C 	 -60.3317 	 -1.34082 	 -18.309
| 36> H 	 -61.3564 	 -1.0343 	 -18.4171
| 37> H 	 -60.1003 	 -1.42437 	 -17.2088
| 38> H 	 -60.2463 	 -2.38759 	 -18.6692
| 39> H 	 -62.0964 	 2.54849 	 -13.2699
| 40> H 	 -63.3094 	 2.09642 	 -21.3476
| 41> *
| 42>
| 43>                          ****END OF INPUT****

CARTESIAN COORDINATES (ANGSTROEM)
---------------------------------
  S    -62.627200    1.809130  -15.522500
  C    -61.779700    2.604610  -14.238900
  C    -60.638500    3.158640  -14.744000
  C    -60.487300    3.024100  -16.173400
  C    -61.575100    2.294650  -16.758900
  H    -59.730300    3.521540  -16.750600
  C    -59.711000    3.895370  -13.898700
  H    -58.926800    4.075290  -14.604700
  H    -59.364900    3.405590  -13.001100
  C    -60.244100    5.209080  -13.320500
  H    -61.151100    5.073340  -12.801800
  H    -59.504100    5.631560  -12.623000
  C    -60.500400    6.170380  -14.523800
  H    -61.275200    5.791430  -15.190300
  H    -60.793600    7.156990  -14.189500
  H    -59.582200    6.280680  -15.177900
  S    -63.269500    2.623160  -18.861400
  C    -62.721100    2.160510  -20.442600
  C    -61.426400    1.626490  -20.388800
  C    -60.916400    1.591370  -19.058600
  C    -61.839100    1.969710  -18.113700
  H    -60.957800    1.387720  -21.363600
  C    -59.528700    1.084550  -18.796800
  H    -59.238800    1.239640  -17.783900
  H    -58.831800    1.669940  -19.286700
  C    -59.421100   -0.447393  -19.099600
  H    -58.374100   -0.661069  -18.863500
  H    -59.480200   -0.686350  -20.179600
  C    -60.331700   -1.340820  -18.309000
  H    -61.356400   -1.034300  -18.417100
  H    -60.100300   -1.424370  -17.208800
  H    -60.246300   -2.387590  -18.669200
  H    -62.096400    2.548490  -13.269900
  H    -63.309400    2.096420  -21.347600

 Total Charge           Charge          ....    0
 Multiplicity           Mult            ....    1
 Number of Electrons    NEL             ....  134
 Basis Dimension        Dim             ....  322

ORBITAL ENERGIES
----------------

  NO   OCC          E(Eh)            E(eV)
   0   2.0000     -88.965985     -2420.8875
   1   2.0000     -88.962766     -2420.7999
   2   2.0000     -10.327759      -281.0326
   3   2.0000     -10.319760      -280.8149
   4   2.0000     -10.318556      -280.7822
   5   2.0000     -10.302983      -280.3584
   6   2.0000     -10.300798      -280.2990
   7   2.0000     -10.298477      -280.2358
   8   2.0000     -10.296997      -280.1955
   9   2.0000     -10.295441      -280.1532
  10   2.0000     -10.285943      -279.8947
  11   2.0000     -10.284215      -279.8477
  12   2.0000     -10.280836      -279.7558
  13   2.0000     -10.279450      -279.7181
  14   2.0000     -10.275826      -279.6195
  15   2.0000     -10.273490      -279.5559
  16   2.0000      -8.081131      -219.8987
  17   2.0000      -8.078926      -219.8387
  18   2.0000      -6.039689      -164.3483
  19   2.0000      -6.037213      -164.2809
  20   2.0000      -6.035493      -164.2341
  21   2.0000      -6.032892      -164.1633
  22   2.0000      -6.031888      -164.1360
  23   2.0000      -6.030182      -164.0896
  24   2.0000      -1.014186       -27.5974
  25   2.0000      -0.989432       -26.9238
  26   2.0000      -0.921134       -25.0653
  27   2.0000      -0.909452       -24.7475
  28   2.0000      -0.872178       -23.7332
  29   2.0000      -0.849134       -23.1061
  30   2.0000      -0.841442       -22.8968
  31   2.0000      -0.812282       -22.1033
  32   2.0000      -0.785648       -21.3786
  33   2.0000      -0.773993       -21.0614
  34   2.0000      -0.710216       -19.3259
  35   2.0000      -0.706851       -19.2344
  36   2.0000      -0.693969       -18.8839
  37   2.0000      -0.660579       -17.9753
  38   2.0000      -0.646698       -17.5975
  39   2.0000      -0.615150       -16.7391
  40   2.0000      -0.598863       -16.2959
  41   2.0000      -0.576771       -15.6947
  42   2.0000      -0.554730       -15.0950
  43   2.0000      -0.550720       -14.9858
  44   2.0000      -0.546183       -14.8624
  45   2.0000      -0.534932       -14.5562
  46   2.0000      -0.520263       -14.1571
  47   2.0000      -0.518745       -14.1158
  48   2.0000      -0.508440       -13.8354
  49   2.0000      -0.495652       -13.4874
  50   2.0000      -0.489828       -13.3289
  51   2.0000      -0.476540       -12.9673
  52   2.0000      -0.467729       -12.7276
  53   2.0000      -0.464067       -12.6279
  54   2.0000      -0.458245       -12.4695
  55   2.0000      -0.447319       -12.1722
  56   2.0000      -0.442520       -12.0416
  57   2.0000      -0.437775       -11.9125
  58   2.0000      -0.436024       -11.8648
  59   2.0000      -0.421163       -11.4604
  60   2.0000      -0.418813       -11.3965
  61   2.0000      -0.412351       -11.2206
  62   2.0000      -0.410196       -11.1620
  63   2.0000      -0.344568        -9.3762
  64   2.0000      -0.330871        -9.0035
  65   2.0000      -0.325881        -8.8677
  66   2.0000      -0.294372        -8.0103
  67   0.0000       0.027497         0.7482
  68   0.0000       0.071649         1.9497
  69   0.0000       0.114424         3.1136
  70   0.0000       0.121869         3.3162
  71   0.0000       0.130831         3.5601

MULLIKEN ATOMIC CHARGES
-----------------------
   0 S :    0.113748
   1 C :   -0.091175
   2 C :   -0.112419
   3 C :    0.051587
   4 C :   -0.183116
   5 H :    0.011574
   6 C :    0.094791
   7 H :    0.002337
   8 H :    0.028327
   9 C :   -0.051185
  10 H :    0.022165
  11 H :    0.033773
  12 C :   -0.087423
  13 H :    0.050090
  14 H :    0.029585
  15 H :    0.028042
  16 S :    0.116912
  17 C :   -0.095488
  18 C :   -0.057565
  19 C :   -0.076166
  20 C :   -0.118080
  21 H :    0.033866
  22 C :    0.145727
  23 H :    0.002331
  24 H :    0.006057
  25 C :   -0.085404
  26 H :    0.020467
  27 H :    0.031687
  28 C :   -0.054019
  29 H :    0.042634
  30 H :    0.039266
  31 H :    0.032823
  32 H :    0.014431
  33 H :    0.059819
Sum of atomic charges:   -0.0000000

LOEWDIN ATOMIC CHARGES
----------------------
   0 S :    0.447530
   1 C :   -0.190036
   2 C :   -0.064687
   3 C :   -0.066728
   4 C :   -0.211320
   5 H :    0.026776
   6 C :   -0.034105
   7 H :    0.025445
   8 H :    0.031809
   9 C :   -0.028295
  10 H :    0.015956
  11 H :    0.025615
  12 C :   -0.069408
  13 H :    0.027866
  14 H :    0.019592
  15 H :    0.026534
  16 S :    0.420263
  17 C :   -0.188691
  18 C :   -0.073177
  19 C :   -0.049171
  20 C :   -0.220024
  21 H :    0.038455
  22 C :   -0.023817
  23 H :    0.025541
  24 H :    0.022860
  25 C :   -0.039236
  26 H :    0.023549
  27 H :    0.023850
  28 C :   -0.070134
  29 H :    0.023754
  30 H :    0.032008
  31 H :    0.030860
  32 H :    0.009756
  33 H :    0.030809

  Mayer bond orders larger than 0.100000
B(  0-S ,  1-C ) :   1.1481 B(  0-S ,  4-C ) :   1.2083 B(  1-C ,  2-C ) :   1.5470
B(  1-C ,  4-C ) :   0.1021 B(  1-C , 32-H ) :   0.9951 B(  2-C ,  3-C ) :   1.2789
B(  2-C ,  6-C ) :   1.0343 B(  3-C ,  4-C ) :   1.4930 B(  3-C ,  5-H ) :   0.9913
B(  4-C , 20-C ) :   1.0377 B(  6-C ,  7-H ) :   0.9379 B(  6-C ,  8-H ) :   0.9345
B(  6-C ,  9-C ) :   1.0751 B(  9-C , 10-H ) :   0.9556 B(  9-C , 11-H ) :   0.9584
B(  9-C , 12-C ) :   1.0663 B( 12-C , 13-H ) :   0.9754 B( 12-C , 14-H ) :   0.9756
B( 12-C , 15-H ) :   0.9773 B( 16-S , 17-C ) :   1.1693 B( 16-S , 20-C ) :   1.1395
B( 17-C , 18-C ) :   1.6003 B( 17-C , 20-C ) :   0.1022 B( 17-C , 33-H ) :   0.9645
B( 18-C , 19-C ) :   1.2318 B( 18-C , 21-H ) :   0.9903 B( 19-C , 20-C ) :   1.5780
B( 19-C , 22-C ) :   1.0561 B( 22-C , 23-H ) :   0.9243 B( 22-C , 24-H ) :   0.9228
B( 22-C , 25-C ) :   1.0669 B( 25-C , 26-H ) :   0.9536 B( 25-C , 27-H ) :   0.9588
B( 25-C , 28-C ) :   1.0790 B( 28-C , 29-H ) :   0.9726 B( 28-C , 30-H ) :   0.9733
B( 28-C , 31-H ) :   0.9709

Dispersion correction           -0.015369041
FINAL SINGLE POINT ENERGY     -1339.878499905617

DIPOLE MOMENT
-------------
                                X             Y             Z
Electronic contribution:    -17.56901      -1.64420      -5.36109
Nuclear contribution   :     18.09213       1.70834       5.31938
                        -----------------------------------------
Total Dipole Moment    :      0.52313       0.06413      -0.04171
                        -----------------------------------------
Magnitude (a.u.)       :      0.52869
Magnitude (Debye)      :      1.34383

Rotational constants in cm-1:     0.021803     0.008444     0.007655
Rotational constants in MHz :   653.624152   253.140174   229.479299

                             ****ORCA TERMINATED NORMALLY****
TOTAL RUN TIME: 0 days 0 hours 0 minutes 22 seconds 547 msec
