                         Program Version 4.2.1 -  RELEASE  -
|  1> ! wB97X-D3 SP def2-SVP
|  2> %pal
|  3> nprocs 24
|  4> end
|  5>
|  6> * xyz 0 1
|  7> S 	 -99.8637 	 37.9978 	 -82.1263
|  8> C 	 -99.5745 	 36.262 	 -82.2905
|  9> C 	 -100.522 	 35.6551 	 -83.0813
| 10> C 	 -101.529 	 36.5547 	 -83.5544
| 11> C 	 -101.281 	 37.8757 	 -83.1468
| 12> H 	 -102.346 	 36.2963 	 -84.1986
| 13> C 	 -100.605 	 34.164 	 -83.2275
| 14> H 	 -101.185 	 33.977 	 -84.1947
| 15> H 	 -101.327 	 33.7763 	 -82.4849
| 16> C 	 -99.3431 	 33.2784 	 -83.0621
| 17> H 	 -98.8245 	 33.3427 	 -83.9741
| 18> H 	 -98.776 	 33.6718 	 -82.2316
| 19> C 	 -99.6794 	 31.7642 	 -82.7161
| 20> H 	 -100.224 	 31.6384 	 -81.7295
| 21> H 	 -100.214 	 31.1885 	 -83.442
| 22> H 	 -98.7593 	 31.204 	 -82.4502
| 23> S 	 -103.122 	 39.6987 	 -82.2404
| 24> C 	 -103.411 	 41.1736 	 -83.147
| 25> C 	 -102.993 	 40.9815 	 -84.4306
| 26> C 	 -102.223 	 39.7836 	 -84.6397
| 27> C 	 -102.097 	 39.0229 	 -83.4928
| 28> H 	 -103.211 	 41.6876 	 -85.2629
| 29> C 	 -101.706 	 39.3703 	 -86.0363
| 30> H 	 -102.606 	 39.1573 	 -86.5748
| 31> H 	 -101.099 	 38.4873 	 -86.0424
| 32> C 	 -100.938 	 40.3882 	 -86.8746
| 33> H 	 -99.8956 	 40.3303 	 -86.4554
| 34> H 	 -101.213 	 41.4327 	 -86.6453
| 35> C 	 -100.97 	 40.0893 	 -88.4246
| 36> H 	 -101.937 	 40.059 	 -88.7607
| 37> H 	 -100.572 	 39.1494 	 -88.6731
| 38> H 	 -100.377 	 40.7886 	 -88.9565
| 39> H 	 -98.8094 	 35.7033 	 -81.7211
| 40> H 	 -103.905 	 42.0109 	 -82.7314
| 41> *
| 42>
| 43>                          ****END OF INPUT****

CARTESIAN COORDINATES (ANGSTROEM)
---------------------------------
  S    -99.863700   37.997800  -82.126300
  C    -99.574500   36.262000  -82.290500
  C    -100.522000   35.655100  -83.081300
  C    -101.529000   36.554700  -83.554400
  C    -101.281000   37.875700  -83.146800
  H    -102.346000   36.296300  -84.198600
  C    -100.605000   34.164000  -83.227500
  H    -101.185000   33.977000  -84.194700
  H    -101.327000   33.776300  -82.484900
  C    -99.343100   33.278400  -83.062100
  H    -98.824500   33.342700  -83.974100
  H    -98.776000   33.671800  -82.231600
  C    -99.679400   31.764200  -82.716100
  H    -100.224000   31.638400  -81.729500
  H    -100.214000   31.188500  -83.442000
  H    -98.759300   31.204000  -82.450200
  S    -103.122000   39.698700  -82.240400
  C    -103.411000   41.173600  -83.147000
  C    -102.993000   40.981500  -84.430600
  C    -102.223000   39.783600  -84.639700
  C    -102.097000   39.022900  -83.492800
  H    -103.211000   41.687600  -85.262900
  C    -101.706000   39.370300  -86.036300
  H    -102.606000   39.157300  -86.574800
  H    -101.099000   38.487300  -86.042400
  C    -100.938000   40.388200  -86.874600
  H    -99.895600   40.330300  -86.455400
  H    -101.213000   41.432700  -86.645300
  C    -100.970000   40.089300  -88.424600
  H    -101.937000   40.059000  -88.760700
  H    -100.572000   39.149400  -88.673100
  H    -100.377000   40.788600  -88.956500
  H    -98.809400   35.703300  -81.721100
  H    -103.905000   42.010900  -82.731400

 Total Charge           Charge          ....    0
 Multiplicity           Mult            ....    1
 Number of Electrons    NEL             ....  134
 Basis Dimension        Dim             ....  322

ORBITAL ENERGIES
----------------

  NO   OCC          E(Eh)            E(eV)
   0   2.0000     -88.967575     -2420.9308
   1   2.0000     -88.958040     -2420.6713
   2   2.0000     -10.330321      -281.1023
   3   2.0000     -10.321917      -280.8736
   4   2.0000     -10.315692      -280.7043
   5   2.0000     -10.314278      -280.6658
   6   2.0000     -10.305426      -280.4249
   7   2.0000     -10.300235      -280.2836
   8   2.0000     -10.296710      -280.1877
   9   2.0000     -10.296597      -280.1846
  10   2.0000     -10.296021      -280.1690
  11   2.0000     -10.293479      -280.0998
  12   2.0000     -10.289682      -279.9965
  13   2.0000     -10.288709      -279.9700
  14   2.0000     -10.287055      -279.9250
  15   2.0000     -10.269003      -279.4338
  16   2.0000      -8.081806      -219.9171
  17   2.0000      -8.073243      -219.6841
  18   2.0000      -6.040305      -164.3650
  19   2.0000      -6.036366      -164.2579
  20   2.0000      -6.032611      -164.1557
  21   2.0000      -6.031800      -164.1336
  22   2.0000      -6.027716      -164.0225
  23   2.0000      -6.023887      -163.9183
  24   2.0000      -1.004132       -27.3238
  25   2.0000      -0.982264       -26.7288
  26   2.0000      -0.907764       -24.7015
  27   2.0000      -0.904152       -24.6032
  28   2.0000      -0.866786       -23.5864
  29   2.0000      -0.848797       -23.0969
  30   2.0000      -0.843618       -22.9560
  31   2.0000      -0.811656       -22.0863
  32   2.0000      -0.784672       -21.3520
  33   2.0000      -0.771907       -21.0047
  34   2.0000      -0.714687       -19.4476
  35   2.0000      -0.704367       -19.1668
  36   2.0000      -0.696374       -18.9493
  37   2.0000      -0.657130       -17.8814
  38   2.0000      -0.638916       -17.3858
  39   2.0000      -0.611117       -16.6293
  40   2.0000      -0.600653       -16.3446
  41   2.0000      -0.573736       -15.6121
  42   2.0000      -0.561844       -15.2885
  43   2.0000      -0.560141       -15.2422
  44   2.0000      -0.526674       -14.3315
  45   2.0000      -0.517686       -14.0869
  46   2.0000      -0.516901       -14.0656
  47   2.0000      -0.514589       -14.0027
  48   2.0000      -0.499690       -13.5973
  49   2.0000      -0.497839       -13.5469
  50   2.0000      -0.492284       -13.3957
  51   2.0000      -0.483665       -13.1612
  52   2.0000      -0.471846       -12.8396
  53   2.0000      -0.465947       -12.6791
  54   2.0000      -0.457943       -12.4613
  55   2.0000      -0.449664       -12.2360
  56   2.0000      -0.447224       -12.1696
  57   2.0000      -0.436709       -11.8834
  58   2.0000      -0.434579       -11.8255
  59   2.0000      -0.426443       -11.6041
  60   2.0000      -0.423404       -11.5214
  61   2.0000      -0.415977       -11.3193
  62   2.0000      -0.412558       -11.2263
  63   2.0000      -0.333851        -9.0846
  64   2.0000      -0.324545        -8.8313
  65   2.0000      -0.323133        -8.7929
  66   2.0000      -0.306171        -8.3313
  67   0.0000       0.035688         0.9711
  68   0.0000       0.061981         1.6866
  69   0.0000       0.112060         3.0493
  70   0.0000       0.120908         3.2901
  71   0.0000       0.126834         3.4513

MULLIKEN ATOMIC CHARGES
-----------------------
   0 S :    0.130348
   1 C :   -0.156692
   2 C :   -0.048273
   3 C :    0.046651
   4 C :   -0.162194
   5 H :    0.011370
   6 C :    0.007531
   7 H :    0.027802
   8 H :    0.040518
   9 C :   -0.036592
  10 H :    0.036915
  11 H :    0.030780
  12 C :   -0.090066
  13 H :    0.034328
  14 H :    0.040455
  15 H :    0.034441
  16 S :    0.094693
  17 C :   -0.084340
  18 C :   -0.033441
  19 C :   -0.006946
  20 C :   -0.207690
  21 H :    0.033885
  22 C :    0.092871
  23 H :    0.022440
  24 H :    0.025359
  25 C :   -0.127054
  26 H :    0.035680
  27 H :    0.028708
  28 C :    0.013971
  29 H :    0.012131
  30 H :    0.013203
  31 H :    0.028485
  32 H :    0.060191
  33 H :    0.050530
Sum of atomic charges:    0.0000000

LOEWDIN ATOMIC CHARGES
----------------------
   0 S :    0.408842
   1 C :   -0.202577
   2 C :   -0.069034
   3 C :   -0.051188
   4 C :   -0.196941
   5 H :    0.031113
   6 C :   -0.044427
   7 H :    0.034133
   8 H :    0.036039
   9 C :   -0.028141
  10 H :    0.022363
  11 H :    0.023902
  12 C :   -0.073853
  13 H :    0.031540
  14 H :    0.020531
  15 H :    0.030356
  16 S :    0.394520
  17 C :   -0.170222
  18 C :   -0.077715
  19 C :   -0.049447
  20 C :   -0.207769
  21 H :    0.036632
  22 C :   -0.029207
  23 H :    0.028460
  24 H :    0.029035
  25 C :   -0.043685
  26 H :    0.029393
  27 H :    0.019756
  28 C :   -0.048643
  29 H :    0.013763
  30 H :    0.020893
  31 H :    0.025871
  32 H :    0.031730
  33 H :    0.023980

  Mayer bond orders larger than 0.100000
B(  0-S ,  1-C ) :   1.1299 B(  0-S ,  4-C ) :   1.1615 B(  1-C ,  2-C ) :   1.6164
B(  1-C , 32-H ) :   0.9613 B(  2-C ,  3-C ) :   1.2385 B(  2-C ,  6-C ) :   1.0212
B(  3-C ,  4-C ) :   1.5664 B(  3-C ,  5-H ) :   0.9983 B(  4-C , 20-C ) :   1.0287
B(  6-C ,  7-H ) :   0.9391 B(  6-C ,  8-H ) :   0.9388 B(  6-C ,  9-C ) :   1.0557
B(  9-C , 10-H ) :   0.9607 B(  9-C , 11-H ) :   0.9509 B(  9-C , 12-C ) :   1.0800
B( 12-C , 13-H ) :   0.9730 B( 12-C , 14-H ) :   0.9807 B( 12-C , 15-H ) :   0.9757
B( 16-S , 17-C ) :   1.1520 B( 16-S , 20-C ) :   1.1409 B( 17-C , 18-C ) :   1.5969
B( 17-C , 33-H ) :   0.9789 B( 18-C , 19-C ) :   1.2373 B( 18-C , 21-H ) :   0.9809
B( 19-C , 20-C ) :   1.6102 B( 19-C , 22-C ) :   1.0289 B( 22-C , 23-H ) :   0.9402
B( 22-C , 24-H ) :   0.9403 B( 22-C , 25-C ) :   1.0454 B( 25-C , 26-H ) :   0.9574
B( 25-C , 27-H ) :   0.9647 B( 25-C , 28-C ) :   1.0694 B( 28-C , 29-H ) :   0.9763
B( 28-C , 30-H ) :   0.9743 B( 28-C , 31-H ) :   0.9745

Dispersion correction           -0.013299776
FINAL SINGLE POINT ENERGY     -1339.873228773313

DIPOLE MOMENT
-------------
                                X             Y             Z
Electronic contribution:     -6.85718      16.29016      18.38483
Nuclear contribution   :      6.83746     -16.64911     -18.86541
                        -----------------------------------------
Total Dipole Moment    :     -0.01972      -0.35895      -0.48058
                        -----------------------------------------
Magnitude (a.u.)       :      0.60016
Magnitude (Debye)      :      1.52550

Rotational constants in cm-1:     0.019684     0.007025     0.005787
Rotational constants in MHz :   590.114896   210.592327   173.480142

                             ****ORCA TERMINATED NORMALLY****
TOTAL RUN TIME: 0 days 0 hours 0 minutes 20 seconds 548 msec
