                         Program Version 4.2.1 -  RELEASE  -
|  1> ! wB97X-D3 SP def2-SVP
|  2> %pal
|  3> nprocs 24
|  4> end
|  5>
|  6> * xyz 0 1
|  7> S 	 -120.921 	 18.7937 	 -22.7728
|  8> C 	 -119.228 	 18.295 	 -23.0729
|  9> C 	 -118.319 	 19.4087 	 -22.9849
| 10> C 	 -119.016 	 20.6298 	 -22.7901
| 11> C 	 -120.376 	 20.4606 	 -22.608
| 12> H 	 -118.612 	 21.6785 	 -22.7594
| 13> C 	 -116.933 	 19.3811 	 -23.6047
| 14> H 	 -117.142 	 19.6159 	 -24.7218
| 15> H 	 -116.612 	 18.3539 	 -23.7032
| 16> C 	 -115.793 	 20.1943 	 -22.9742
| 17> H 	 -115.932 	 21.1975 	 -23.3087
| 18> H 	 -115.934 	 20.1434 	 -21.91
| 19> C 	 -114.378 	 19.8567 	 -23.4946
| 20> H 	 -114.128 	 19.9863 	 -24.545
| 21> H 	 -113.544 	 20.3175 	 -23.0258
| 22> H 	 -114.299 	 18.7752 	 -23.2711
| 23> S 	 -122.399 	 21.3993 	 -21.0145
| 24> C 	 -123.024 	 23.0349 	 -21.2259
| 25> C 	 -122.381 	 23.6752 	 -22.2584
| 26> C 	 -121.363 	 22.8657 	 -22.8665
| 27> C 	 -121.264 	 21.5841 	 -22.346
| 28> H 	 -122.525 	 24.7084 	 -22.3627
| 29> C 	 -120.511 	 23.4484 	 -24.0263
| 30> H 	 -121.089 	 23.9506 	 -24.7673
| 31> H 	 -120.053 	 22.5423 	 -24.5206
| 32> C 	 -119.472 	 24.4583 	 -23.6633
| 33> H 	 -119.145 	 24.3197 	 -22.6332
| 34> H 	 -119.96 	 25.3851 	 -23.5936
| 35> C 	 -118.27 	 24.6078 	 -24.6063
| 36> H 	 -117.733 	 23.6546 	 -24.693
| 37> H 	 -117.62 	 25.4589 	 -24.3073
| 38> H 	 -118.442 	 24.7558 	 -25.5792
| 39> H 	 -118.814 	 17.4005 	 -23.4718
| 40> H 	 -123.655 	 23.5689 	 -20.5198
| 41> *
| 42>
| 43>                          ****END OF INPUT****

CARTESIAN COORDINATES (ANGSTROEM)
---------------------------------
  S    -120.921000   18.793700  -22.772800
  C    -119.228000   18.295000  -23.072900
  C    -118.319000   19.408700  -22.984900
  C    -119.016000   20.629800  -22.790100
  C    -120.376000   20.460600  -22.608000
  H    -118.612000   21.678500  -22.759400
  C    -116.933000   19.381100  -23.604700
  H    -117.142000   19.615900  -24.721800
  H    -116.612000   18.353900  -23.703200
  C    -115.793000   20.194300  -22.974200
  H    -115.932000   21.197500  -23.308700
  H    -115.934000   20.143400  -21.910000
  C    -114.378000   19.856700  -23.494600
  H    -114.128000   19.986300  -24.545000
  H    -113.544000   20.317500  -23.025800
  H    -114.299000   18.775200  -23.271100
  S    -122.399000   21.399300  -21.014500
  C    -123.024000   23.034900  -21.225900
  C    -122.381000   23.675200  -22.258400
  C    -121.363000   22.865700  -22.866500
  C    -121.264000   21.584100  -22.346000
  H    -122.525000   24.708400  -22.362700
  C    -120.511000   23.448400  -24.026300
  H    -121.089000   23.950600  -24.767300
  H    -120.053000   22.542300  -24.520600
  C    -119.472000   24.458300  -23.663300
  H    -119.145000   24.319700  -22.633200
  H    -119.960000   25.385100  -23.593600
  C    -118.270000   24.607800  -24.606300
  H    -117.733000   23.654600  -24.693000
  H    -117.620000   25.458900  -24.307300
  H    -118.442000   24.755800  -25.579200
  H    -118.814000   17.400500  -23.471800
  H    -123.655000   23.568900  -20.519800

 Total Charge           Charge          ....    0
 Multiplicity           Mult            ....    1
 Number of Electrons    NEL             ....  134
 Basis Dimension        Dim             ....  322

ORBITAL ENERGIES
----------------

  NO   OCC          E(Eh)            E(eV)
   0   2.0000     -88.977816     -2421.2095
   1   2.0000     -88.964266     -2420.8408
   2   2.0000     -10.332518      -281.1621
   3   2.0000     -10.329602      -281.0828
   4   2.0000     -10.320741      -280.8416
   5   2.0000     -10.317811      -280.7619
   6   2.0000     -10.308653      -280.5127
   7   2.0000     -10.306962      -280.4667
   8   2.0000     -10.299266      -280.2573
   9   2.0000     -10.298290      -280.2307
  10   2.0000     -10.290579      -280.0209
  11   2.0000     -10.289870      -280.0016
  12   2.0000     -10.288581      -279.9665
  13   2.0000     -10.280421      -279.7445
  14   2.0000     -10.280076      -279.7351
  15   2.0000     -10.274506      -279.5835
  16   2.0000      -8.090871      -220.1638
  17   2.0000      -8.078833      -219.8362
  18   2.0000      -6.049503      -164.6153
  19   2.0000      -6.045689      -164.5115
  20   2.0000      -6.041510      -164.3978
  21   2.0000      -6.037393      -164.2858
  22   2.0000      -6.033318      -164.1749
  23   2.0000      -6.029589      -164.0735
  24   2.0000      -1.004100       -27.3229
  25   2.0000      -0.979077       -26.6420
  26   2.0000      -0.912975       -24.8433
  27   2.0000      -0.910751       -24.7828
  28   2.0000      -0.870296       -23.6820
  29   2.0000      -0.853716       -23.2308
  30   2.0000      -0.846726       -23.0406
  31   2.0000      -0.815837       -22.2000
  32   2.0000      -0.785942       -21.3866
  33   2.0000      -0.774703       -21.0807
  34   2.0000      -0.715517       -19.4702
  35   2.0000      -0.703924       -19.1547
  36   2.0000      -0.696548       -18.9540
  37   2.0000      -0.663135       -18.0448
  38   2.0000      -0.638105       -17.3637
  39   2.0000      -0.617409       -16.8006
  40   2.0000      -0.595547       -16.2056
  41   2.0000      -0.570052       -15.5119
  42   2.0000      -0.569292       -15.4912
  43   2.0000      -0.564197       -15.3526
  44   2.0000      -0.529221       -14.4008
  45   2.0000      -0.526212       -14.3190
  46   2.0000      -0.514261       -13.9938
  47   2.0000      -0.508243       -13.8300
  48   2.0000      -0.504420       -13.7260
  49   2.0000      -0.500492       -13.6191
  50   2.0000      -0.497333       -13.5331
  51   2.0000      -0.482538       -13.1305
  52   2.0000      -0.473812       -12.8931
  53   2.0000      -0.467269       -12.7150
  54   2.0000      -0.456839       -12.4312
  55   2.0000      -0.455349       -12.3907
  56   2.0000      -0.444267       -12.0891
  57   2.0000      -0.438846       -11.9416
  58   2.0000      -0.436252       -11.8710
  59   2.0000      -0.431369       -11.7382
  60   2.0000      -0.417802       -11.3690
  61   2.0000      -0.410759       -11.1773
  62   2.0000      -0.409911       -11.1543
  63   2.0000      -0.350888        -9.5482
  64   2.0000      -0.333469        -9.0742
  65   2.0000      -0.331108        -9.0099
  66   2.0000      -0.288229        -7.8431
  67   0.0000       0.026482         0.7206
  68   0.0000       0.063025         1.7150
  69   0.0000       0.099736         2.7140
  70   0.0000       0.110899         3.0177
  71   0.0000       0.121173         3.2973

MULLIKEN ATOMIC CHARGES
-----------------------
   0 S :    0.136248
   1 C :   -0.095578
   2 C :   -0.074168
   3 C :   -0.006389
   4 C :   -0.140112
   5 H :    0.040897
   6 C :   -0.012262
   7 H :    0.056694
   8 H :    0.004668
   9 C :   -0.036906
  10 H :    0.026475
  11 H :    0.041228
  12 C :   -0.052765
  13 H :    0.033824
  14 H :    0.029059
  15 H :    0.024950
  16 S :    0.093471
  17 C :   -0.093389
  18 C :   -0.011735
  19 C :   -0.047699
  20 C :   -0.148950
  21 H :    0.006321
  22 C :    0.048945
  23 H :    0.021305
  24 H :    0.031091
  25 C :   -0.052833
  26 H :    0.025845
  27 H :    0.007394
  28 C :   -0.010154
  29 H :    0.019240
  30 H :    0.041705
  31 H :   -0.005427
  32 H :    0.037297
  33 H :    0.061709
Sum of atomic charges:   -0.0000000

LOEWDIN ATOMIC CHARGES
----------------------
   0 S :    0.402277
   1 C :   -0.190482
   2 C :   -0.059528
   3 C :   -0.066238
   4 C :   -0.192038
   5 H :    0.044386
   6 C :   -0.041067
   7 H :    0.046631
   8 H :    0.020153
   9 C :   -0.039036
  10 H :    0.020924
  11 H :    0.029283
  12 C :   -0.066887
  13 H :    0.028019
  14 H :    0.023937
  15 H :    0.026658
  16 S :    0.393009
  17 C :   -0.178915
  18 C :   -0.067075
  19 C :   -0.056027
  20 C :   -0.191060
  21 H :    0.024758
  22 C :   -0.033523
  23 H :    0.027388
  24 H :    0.031902
  25 C :   -0.044118
  26 H :    0.022880
  27 H :    0.017046
  28 C :   -0.058484
  29 H :    0.026855
  30 H :    0.036197
  31 H :    0.006692
  32 H :    0.022960
  33 H :    0.032524

  Mayer bond orders larger than 0.100000
B(  0-S ,  1-C ) :   1.1271 B(  0-S ,  4-C ) :   1.1425 B(  1-C ,  2-C ) :   1.5978
B(  1-C ,  4-C ) :   0.1045 B(  1-C , 32-H ) :   0.9678 B(  2-C ,  3-C ) :   1.2326
B(  2-C ,  6-C ) :   1.0420 B(  3-C ,  4-C ) :   1.5772 B(  3-C ,  5-H ) :   0.9832
B(  4-C , 20-C ) :   1.0424 B(  6-C ,  7-H ) :   0.9387 B(  6-C ,  8-H ) :   0.9404
B(  6-C ,  9-C ) :   1.0449 B(  9-C , 10-H ) :   0.9506 B(  9-C , 11-H ) :   0.9615
B(  9-C , 12-C ) :   1.0770 B( 12-C , 13-H ) :   0.9764 B( 12-C , 14-H ) :   0.9752
B( 12-C , 15-H ) :   0.9765 B( 16-S , 17-C ) :   1.1466 B( 16-S , 20-C ) :   1.1328
B( 17-C , 18-C ) :   1.6270 B( 17-C , 33-H ) :   0.9641 B( 18-C , 19-C ) :   1.2279
B( 18-C , 21-H ) :   0.9957 B( 19-C , 20-C ) :   1.6137 B( 19-C , 22-C ) :   1.0423
B( 22-C , 23-H ) :   0.9366 B( 22-C , 24-H ) :   0.9435 B( 22-C , 25-C ) :   1.0491
B( 25-C , 26-H ) :   0.9569 B( 25-C , 27-H ) :   0.9471 B( 25-C , 28-C ) :   1.0873
B( 28-C , 29-H ) :   0.9708 B( 28-C , 30-H ) :   0.9725 B( 28-C , 31-H ) :   0.9695

Dispersion correction           -0.014313374
FINAL SINGLE POINT ENERGY     -1339.850924426322

DIPOLE MOMENT
-------------
                                X             Y             Z
Electronic contribution:    -29.10955     -12.52732      12.46212
Nuclear contribution   :     29.69929      13.07335     -12.84762
                        -----------------------------------------
Total Dipole Moment    :      0.58974       0.54603      -0.38550
                        -----------------------------------------
Magnitude (a.u.)       :      0.89138
Magnitude (Debye)      :      2.26570

Rotational constants in cm-1:     0.016968     0.009290     0.006520
Rotational constants in MHz :   508.695270   278.498949   195.474073

                             ****ORCA TERMINATED NORMALLY****
TOTAL RUN TIME: 0 days 0 hours 0 minutes 20 seconds 664 msec
