                         Program Version 4.2.1 -  RELEASE  -
|  1> ! wB97X-D3 SP def2-SVP
|  2> %pal
|  3> nprocs 24
|  4> end
|  5>
|  6> * xyz 0 1
|  7> S 	 -53.2298 	 -58.3228 	 -80.6714
|  8> C 	 -53.3625 	 -56.792 	 -79.8503
|  9> C 	 -54.6329 	 -56.2716 	 -79.9662
| 10> C 	 -55.5601 	 -57.1299 	 -80.7119
| 11> C 	 -54.9089 	 -58.2166 	 -81.2475
| 12> H 	 -56.62 	 -56.9192 	 -80.7919
| 13> C 	 -55.102 	 -55.0459 	 -79.2263
| 14> H 	 -56.1155 	 -55.292 	 -79.2781
| 15> H 	 -54.8177 	 -54.162 	 -79.7766
| 16> C 	 -54.6248 	 -54.9633 	 -77.7288
| 17> H 	 -54.5982 	 -56.0163 	 -77.318
| 18> H 	 -53.6058 	 -54.59 	 -77.6373
| 19> C 	 -55.575 	 -54.1076 	 -76.8333
| 20> H 	 -55.681 	 -53.0995 	 -77.2343
| 21> H 	 -56.5572 	 -54.5033 	 -76.7488
| 22> H 	 -55.2374 	 -53.9812 	 -75.7552
| 23> S 	 -55.0324 	 -61.0684 	 -81.4514
| 24> C 	 -56.3121 	 -61.7874 	 -82.4016
| 25> C 	 -57.12 	 -60.8 	 -82.9714
| 26> C 	 -56.6751 	 -59.4245 	 -82.7482
| 27> C 	 -55.5466 	 -59.3986 	 -81.9255
| 28> H 	 -57.8779 	 -61.1129 	 -83.6199
| 29> C 	 -57.3437 	 -58.175 	 -83.4241
| 30> H 	 -57.3886 	 -57.2734 	 -82.7433
| 31> H 	 -58.3454 	 -58.5189 	 -83.6336
| 32> C 	 -56.7064 	 -57.7741 	 -84.731
| 33> H 	 -57.4038 	 -57.1218 	 -85.2753
| 34> H 	 -56.5748 	 -58.7021 	 -85.2744
| 35> C 	 -55.324 	 -57.1315 	 -84.5691
| 36> H 	 -55.3696 	 -56.1395 	 -84.0249
| 37> H 	 -54.822 	 -57.0855 	 -85.5597
| 38> H 	 -54.6806 	 -57.7936 	 -83.9554
| 39> H 	 -52.4691 	 -56.2827 	 -79.6078
| 40> H 	 -56.4092 	 -62.808 	 -82.604
| 41> *
| 42>
| 43>                          ****END OF INPUT****

CARTESIAN COORDINATES (ANGSTROEM)
---------------------------------
  S    -53.229800  -58.322800  -80.671400
  C    -53.362500  -56.792000  -79.850300
  C    -54.632900  -56.271600  -79.966200
  C    -55.560100  -57.129900  -80.711900
  C    -54.908900  -58.216600  -81.247500
  H    -56.620000  -56.919200  -80.791900
  C    -55.102000  -55.045900  -79.226300
  H    -56.115500  -55.292000  -79.278100
  H    -54.817700  -54.162000  -79.776600
  C    -54.624800  -54.963300  -77.728800
  H    -54.598200  -56.016300  -77.318000
  H    -53.605800  -54.590000  -77.637300
  C    -55.575000  -54.107600  -76.833300
  H    -55.681000  -53.099500  -77.234300
  H    -56.557200  -54.503300  -76.748800
  H    -55.237400  -53.981200  -75.755200
  S    -55.032400  -61.068400  -81.451400
  C    -56.312100  -61.787400  -82.401600
  C    -57.120000  -60.800000  -82.971400
  C    -56.675100  -59.424500  -82.748200
  C    -55.546600  -59.398600  -81.925500
  H    -57.877900  -61.112900  -83.619900
  C    -57.343700  -58.175000  -83.424100
  H    -57.388600  -57.273400  -82.743300
  H    -58.345400  -58.518900  -83.633600
  C    -56.706400  -57.774100  -84.731000
  H    -57.403800  -57.121800  -85.275300
  H    -56.574800  -58.702100  -85.274400
  C    -55.324000  -57.131500  -84.569100
  H    -55.369600  -56.139500  -84.024900
  H    -54.822000  -57.085500  -85.559700
  H    -54.680600  -57.793600  -83.955400
  H    -52.469100  -56.282700  -79.607800
  H    -56.409200  -62.808000  -82.604000

 Total Charge           Charge          ....    0
 Multiplicity           Mult            ....    1
 Number of Electrons    NEL             ....  134
 Basis Dimension        Dim             ....  322

ORBITAL ENERGIES
----------------

  NO   OCC          E(Eh)            E(eV)
   0   2.0000     -88.967024     -2420.9158
   1   2.0000     -88.964463     -2420.8461
   2   2.0000     -10.338022      -281.3119
   3   2.0000     -10.336385      -281.2673
   4   2.0000     -10.317978      -280.7664
   5   2.0000     -10.312304      -280.6121
   6   2.0000     -10.309644      -280.5397
   7   2.0000     -10.303242      -280.3655
   8   2.0000     -10.301158      -280.3088
   9   2.0000     -10.298543      -280.2376
  10   2.0000     -10.296989      -280.1953
  11   2.0000     -10.295567      -280.1566
  12   2.0000     -10.289176      -279.9827
  13   2.0000     -10.283027      -279.8154
  14   2.0000     -10.281243      -279.7669
  15   2.0000     -10.277195      -279.6567
  16   2.0000      -8.080748      -219.8883
  17   2.0000      -8.079131      -219.8443
  18   2.0000      -6.039416      -164.3409
  19   2.0000      -6.037701      -164.2942
  20   2.0000      -6.035372      -164.2308
  21   2.0000      -6.033669      -164.1845
  22   2.0000      -6.031423      -164.1234
  23   2.0000      -6.029828      -164.0800
  24   2.0000      -0.999150       -27.1883
  25   2.0000      -0.977308       -26.5939
  26   2.0000      -0.908936       -24.7334
  27   2.0000      -0.907100       -24.6835
  28   2.0000      -0.863026       -23.4841
  29   2.0000      -0.849262       -23.1096
  30   2.0000      -0.839688       -22.8491
  31   2.0000      -0.813803       -22.1447
  32   2.0000      -0.780717       -21.2444
  33   2.0000      -0.770145       -20.9567
  34   2.0000      -0.710766       -19.3409
  35   2.0000      -0.696130       -18.9426
  36   2.0000      -0.687265       -18.7014
  37   2.0000      -0.661669       -18.0049
  38   2.0000      -0.644291       -17.5320
  39   2.0000      -0.617582       -16.8053
  40   2.0000      -0.595437       -16.2027
  41   2.0000      -0.567869       -15.4525
  42   2.0000      -0.560404       -15.2494
  43   2.0000      -0.549590       -14.9551
  44   2.0000      -0.543725       -14.7955
  45   2.0000      -0.526615       -14.3299
  46   2.0000      -0.515357       -14.0236
  47   2.0000      -0.509066       -13.8524
  48   2.0000      -0.501234       -13.6393
  49   2.0000      -0.496831       -13.5195
  50   2.0000      -0.493322       -13.4240
  51   2.0000      -0.476461       -12.9652
  52   2.0000      -0.467328       -12.7166
  53   2.0000      -0.462508       -12.5855
  54   2.0000      -0.453093       -12.3293
  55   2.0000      -0.450755       -12.2657
  56   2.0000      -0.440304       -11.9813
  57   2.0000      -0.432313       -11.7638
  58   2.0000      -0.430280       -11.7085
  59   2.0000      -0.427141       -11.6231
  60   2.0000      -0.421752       -11.4765
  61   2.0000      -0.414111       -11.2685
  62   2.0000      -0.410081       -11.1589
  63   2.0000      -0.356408        -9.6983
  64   2.0000      -0.332135        -9.0379
  65   2.0000      -0.327759        -8.9188
  66   2.0000      -0.289225        -7.8702
  67   0.0000       0.021647         0.5891
  68   0.0000       0.073344         1.9958
  69   0.0000       0.099686         2.7126
  70   0.0000       0.115889         3.1535
  71   0.0000       0.133019         3.6196

MULLIKEN ATOMIC CHARGES
-----------------------
   0 S :    0.086909
   1 C :   -0.103102
   2 C :   -0.151041
   3 C :    0.010593
   4 C :   -0.126050
   5 H :    0.033616
   6 C :    0.126064
   7 H :    0.001371
   8 H :    0.046942
   9 C :   -0.104613
  10 H :    0.047051
  11 H :    0.034399
  12 C :   -0.062403
  13 H :    0.028811
  14 H :    0.026888
  15 H :    0.041475
  16 S :    0.095798
  17 C :   -0.077175
  18 C :   -0.013756
  19 C :   -0.077953
  20 C :   -0.128303
  21 H :    0.000930
  22 C :    0.067373
  23 H :    0.029468
  24 H :    0.016691
  25 C :   -0.050158
  26 H :    0.035352
  27 H :    0.021472
  28 C :   -0.075460
  29 H :    0.041198
  30 H :    0.040594
  31 H :    0.044223
  32 H :    0.049050
  33 H :    0.043745
Sum of atomic charges:   -0.0000000

LOEWDIN ATOMIC CHARGES
----------------------
   0 S :    0.389780
   1 C :   -0.193446
   2 C :   -0.057686
   3 C :   -0.064754
   4 C :   -0.174499
   5 H :    0.032572
   6 C :   -0.027538
   7 H :    0.024133
   8 H :    0.034787
   9 C :   -0.040386
  10 H :    0.032384
  11 H :    0.022220
  12 C :   -0.071930
  13 H :    0.023099
  14 H :    0.018496
  15 H :    0.034107
  16 S :    0.379635
  17 C :   -0.175399
  18 C :   -0.064127
  19 C :   -0.055945
  20 C :   -0.181327
  21 H :    0.020444
  22 C :   -0.029213
  23 H :    0.030869
  24 H :    0.028192
  25 C :   -0.042346
  26 H :    0.025165
  27 H :    0.024587
  28 C :   -0.073564
  29 H :    0.029840
  30 H :    0.029599
  31 H :    0.029573
  32 H :    0.021747
  33 H :    0.020931

  Mayer bond orders larger than 0.100000
B(  0-S ,  1-C ) :   1.1269 B(  0-S ,  4-C ) :   1.1517 B(  1-C ,  2-C ) :   1.6201
B(  1-C , 32-H ) :   0.9729 B(  2-C ,  3-C ) :   1.2409 B(  2-C ,  6-C ) :   1.0079
B(  3-C ,  4-C ) :   1.5822 B(  3-C ,  5-H ) :   0.9773 B(  4-C , 20-C ) :   1.0281
B(  6-C ,  7-H ) :   0.9432 B(  6-C ,  8-H ) :   0.9260 B(  6-C ,  9-C ) :   1.0670
B(  9-C , 10-H ) :   0.9626 B(  9-C , 11-H ) :   0.9535 B(  9-C , 12-C ) :   1.0771
B( 12-C , 13-H ) :   0.9757 B( 12-C , 14-H ) :   0.9779 B( 12-C , 15-H ) :   0.9758
B( 16-S , 17-C ) :   1.1462 B( 16-S , 20-C ) :   1.1258 B( 17-C , 18-C ) :   1.6225
B( 17-C , 33-H ) :   0.9741 B( 18-C , 19-C ) :   1.2341 B( 18-C , 21-H ) :   0.9925
B( 19-C , 20-C ) :   1.6141 B( 19-C , 22-C ) :   1.0267 B( 22-C , 23-H ) :   0.9396
B( 22-C , 24-H ) :   0.9266 B( 22-C , 25-C ) :   1.0803 B( 25-C , 26-H ) :   0.9531
B( 25-C , 27-H ) :   0.9479 B( 25-C , 28-C ) :   1.0834 B( 28-C , 29-H ) :   0.9730
B( 28-C , 30-H ) :   0.9717 B( 28-C , 31-H ) :   0.9694

Dispersion correction           -0.014845046
FINAL SINGLE POINT ENERGY     -1339.877603017780

DIPOLE MOMENT
-------------
                                X             Y             Z
Electronic contribution:      8.94069     -22.63020      -1.39432
Nuclear contribution   :     -9.38151      23.05350       1.29677
                        -----------------------------------------
Total Dipole Moment    :     -0.44083       0.42330      -0.09755
                        -----------------------------------------
Magnitude (a.u.)       :      0.61889
Magnitude (Debye)      :      1.57310

Rotational constants in cm-1:     0.021164     0.007786     0.006849
Rotational constants in MHz :   634.465797   233.432959   205.320161

                             ****ORCA TERMINATED NORMALLY****
TOTAL RUN TIME: 0 days 0 hours 0 minutes 21 seconds 982 msec
