                         Program Version 4.2.1 -  RELEASE  -
|  1> ! wB97X-D3 SP def2-SVP
|  2> %pal
|  3> nprocs 24
|  4> end
|  5>
|  6> * xyz 0 1
|  7> S 	 -48.6499 	 18.8875 	 25.0975
|  8> C 	 -49.059 	 17.1609 	 25.0574
|  9> C 	 -50.0374 	 16.8587 	 25.9156
| 10> C 	 -50.6051 	 17.992 	 26.5691
| 11> C 	 -49.9982 	 19.1816 	 26.186
| 12> H 	 -51.3787 	 18.0243 	 27.3216
| 13> C 	 -50.4972 	 15.4884 	 26.2652
| 14> H 	 -50.7998 	 15.5769 	 27.2696
| 15> H 	 -49.5782 	 14.8806 	 26.193
| 16> C 	 -51.6532 	 14.8272 	 25.3977
| 17> H 	 -51.3364 	 14.8283 	 24.3054
| 18> H 	 -51.7588 	 13.7807 	 25.7616
| 19> C 	 -53.0866 	 15.5495 	 25.5363
| 20> H 	 -53.9525 	 15.0266 	 25.2964
| 21> H 	 -53.2255 	 15.9481 	 26.5228
| 22> H 	 -53.1342 	 16.4553 	 24.8247
| 23> S 	 -49.0723 	 21.1527 	 27.9022
| 24> C 	 -50.1393 	 22.4553 	 28.3532
| 25> C 	 -51.3389 	 22.3931 	 27.681
| 26> C 	 -51.4705 	 21.2321 	 26.8501
| 27> C 	 -50.3057 	 20.5504 	 26.7547
| 28> H 	 -52.0485 	 23.1661 	 27.8106
| 29> C 	 -52.6794 	 20.9051 	 25.9701
| 30> H 	 -52.9946 	 19.9255 	 26.3329
| 31> H 	 -52.3681 	 20.8671 	 24.9369
| 32> C 	 -53.8359 	 21.9137 	 25.9872
| 33> H 	 -53.4935 	 22.8993 	 25.7119
| 34> H 	 -54.1746 	 21.9456 	 27.0326
| 35> C 	 -55.0265 	 21.5539 	 25.1097
| 36> H 	 -55.4033 	 20.5734 	 25.4151
| 37> H 	 -54.7011 	 21.4862 	 24.0232
| 38> H 	 -55.7408 	 22.332 	 25.1538
| 39> H 	 -48.3086 	 16.4704 	 24.6857
| 40> H 	 -49.883 	 23.1961 	 29.1231
| 41> *
| 42>
| 43>                          ****END OF INPUT****

CARTESIAN COORDINATES (ANGSTROEM)
---------------------------------
  S    -48.649900   18.887500   25.097500
  C    -49.059000   17.160900   25.057400
  C    -50.037400   16.858700   25.915600
  C    -50.605100   17.992000   26.569100
  C    -49.998200   19.181600   26.186000
  H    -51.378700   18.024300   27.321600
  C    -50.497200   15.488400   26.265200
  H    -50.799800   15.576900   27.269600
  H    -49.578200   14.880600   26.193000
  C    -51.653200   14.827200   25.397700
  H    -51.336400   14.828300   24.305400
  H    -51.758800   13.780700   25.761600
  C    -53.086600   15.549500   25.536300
  H    -53.952500   15.026600   25.296400
  H    -53.225500   15.948100   26.522800
  H    -53.134200   16.455300   24.824700
  S    -49.072300   21.152700   27.902200
  C    -50.139300   22.455300   28.353200
  C    -51.338900   22.393100   27.681000
  C    -51.470500   21.232100   26.850100
  C    -50.305700   20.550400   26.754700
  H    -52.048500   23.166100   27.810600
  C    -52.679400   20.905100   25.970100
  H    -52.994600   19.925500   26.332900
  H    -52.368100   20.867100   24.936900
  C    -53.835900   21.913700   25.987200
  H    -53.493500   22.899300   25.711900
  H    -54.174600   21.945600   27.032600
  C    -55.026500   21.553900   25.109700
  H    -55.403300   20.573400   25.415100
  H    -54.701100   21.486200   24.023200
  H    -55.740800   22.332000   25.153800
  H    -48.308600   16.470400   24.685700
  H    -49.883000   23.196100   29.123100

 Total Charge           Charge          ....    0
 Multiplicity           Mult            ....    1
 Number of Electrons    NEL             ....  134
 Basis Dimension        Dim             ....  322

ORBITAL ENERGIES
----------------

  NO   OCC          E(Eh)            E(eV)
   0   2.0000     -88.963019     -2420.8068
   1   2.0000     -88.962207     -2420.7847
   2   2.0000     -10.332461      -281.1606
   3   2.0000     -10.324940      -280.9559
   4   2.0000     -10.318296      -280.7751
   5   2.0000     -10.308380      -280.5053
   6   2.0000     -10.305487      -280.4265
   7   2.0000     -10.302576      -280.3474
   8   2.0000     -10.294333      -280.1230
   9   2.0000     -10.292809      -280.0816
  10   2.0000     -10.291518      -280.0464
  11   2.0000     -10.291251      -280.0392
  12   2.0000     -10.291092      -280.0348
  13   2.0000     -10.285376      -279.8793
  14   2.0000     -10.282259      -279.7945
  15   2.0000     -10.281101      -279.7630
  16   2.0000      -8.077510      -219.8002
  17   2.0000      -8.076847      -219.7822
  18   2.0000      -6.036006      -164.2481
  19   2.0000      -6.035358      -164.2304
  20   2.0000      -6.032144      -164.1430
  21   2.0000      -6.031404      -164.1228
  22   2.0000      -6.028218      -164.0361
  23   2.0000      -6.027571      -164.0185
  24   2.0000      -1.003517       -27.3071
  25   2.0000      -0.984950       -26.8018
  26   2.0000      -0.910434       -24.7742
  27   2.0000      -0.903386       -24.5824
  28   2.0000      -0.862760       -23.4769
  29   2.0000      -0.851066       -23.1587
  30   2.0000      -0.840631       -22.8747
  31   2.0000      -0.814472       -22.1629
  32   2.0000      -0.783794       -21.3281
  33   2.0000      -0.774599       -21.0779
  34   2.0000      -0.706165       -19.2157
  35   2.0000      -0.700513       -19.0619
  36   2.0000      -0.693890       -18.8817
  37   2.0000      -0.652572       -17.7574
  38   2.0000      -0.642341       -17.4790
  39   2.0000      -0.610702       -16.6180
  40   2.0000      -0.595921       -16.2158
  41   2.0000      -0.578332       -15.7372
  42   2.0000      -0.568754       -15.4766
  43   2.0000      -0.542363       -14.7584
  44   2.0000      -0.535974       -14.5846
  45   2.0000      -0.530321       -14.4308
  46   2.0000      -0.517540       -14.0830
  47   2.0000      -0.511802       -13.9268
  48   2.0000      -0.499392       -13.5891
  49   2.0000      -0.492033       -13.3889
  50   2.0000      -0.484167       -13.1748
  51   2.0000      -0.477730       -12.9997
  52   2.0000      -0.475003       -12.9255
  53   2.0000      -0.465526       -12.6676
  54   2.0000      -0.457528       -12.4500
  55   2.0000      -0.452788       -12.3210
  56   2.0000      -0.443375       -12.0649
  57   2.0000      -0.437697       -11.9103
  58   2.0000      -0.435588       -11.8529
  59   2.0000      -0.426654       -11.6099
  60   2.0000      -0.418268       -11.3817
  61   2.0000      -0.415965       -11.3190
  62   2.0000      -0.414528       -11.2799
  63   2.0000      -0.338089        -9.1999
  64   2.0000      -0.331653        -9.0247
  65   2.0000      -0.328888        -8.9495
  66   2.0000      -0.302588        -8.2338
  67   0.0000       0.036932         1.0050
  68   0.0000       0.063627         1.7314
  69   0.0000       0.112441         3.0597
  70   0.0000       0.121914         3.3175
  71   0.0000       0.132612         3.6086

MULLIKEN ATOMIC CHARGES
-----------------------
   0 S :    0.091090
   1 C :   -0.130371
   2 C :   -0.080775
   3 C :    0.041784
   4 C :   -0.172843
   5 H :    0.012279
   6 C :    0.076691
   7 H :    0.014684
   8 H :    0.028862
   9 C :   -0.082657
  10 H :    0.048500
  11 H :    0.046430
  12 C :   -0.062392
  13 H :    0.027524
  14 H :    0.020024
  15 H :    0.043364
  16 S :    0.096387
  17 C :   -0.089591
  18 C :   -0.031348
  19 C :   -0.044780
  20 C :   -0.149171
  21 H :    0.005666
  22 C :    0.087766
  23 H :    0.024110
  24 H :    0.040724
  25 C :   -0.116562
  26 H :    0.027877
  27 H :    0.027282
  28 C :   -0.013107
  29 H :    0.030941
  30 H :    0.032801
  31 H :    0.030303
  32 H :    0.054104
  33 H :    0.064407
Sum of atomic charges:    0.0000000

LOEWDIN ATOMIC CHARGES
----------------------
   0 S :    0.385352
   1 C :   -0.191248
   2 C :   -0.068184
   3 C :   -0.061281
   4 C :   -0.186662
   5 H :    0.029928
   6 C :   -0.027741
   7 H :    0.023825
   8 H :    0.035913
   9 C :   -0.034968
  10 H :    0.032095
  11 H :    0.027539
  12 C :   -0.072497
  13 H :    0.016314
  14 H :    0.018005
  15 H :    0.036936
  16 S :    0.389514
  17 C :   -0.181188
  18 C :   -0.073899
  19 C :   -0.054692
  20 C :   -0.188608
  21 H :    0.024843
  22 C :   -0.025709
  23 H :    0.031884
  24 H :    0.034513
  25 C :   -0.045532
  26 H :    0.020297
  27 H :    0.022625
  28 C :   -0.057450
  29 H :    0.025302
  30 H :    0.030797
  31 H :    0.021598
  32 H :    0.028401
  33 H :    0.033978

  Mayer bond orders larger than 0.100000
B(  0-S ,  1-C ) :   1.1162 B(  0-S ,  4-C ) :   1.1618 B(  1-C ,  2-C ) :   1.6536
B(  1-C , 32-H ) :   0.9623 B(  2-C ,  3-C ) :   1.2173 B(  2-C ,  6-C ) :   1.0156
B(  3-C ,  4-C ) :   1.5960 B(  3-C ,  5-H ) :   0.9940 B(  4-C , 20-C ) :   0.9790
B(  6-C ,  7-H ) :   0.9394 B(  6-C ,  8-H ) :   0.9398 B(  6-C ,  9-C ) :   1.0639
B(  9-C , 10-H ) :   0.9612 B(  9-C , 11-H ) :   0.9596 B(  9-C , 12-C ) :   1.0528
B( 12-C , 13-H ) :   0.9796 B( 12-C , 14-H ) :   0.9794 B( 12-C , 15-H ) :   0.9766
B( 16-S , 17-C ) :   1.1597 B( 16-S , 20-C ) :   1.1334 B( 17-C , 18-C ) :   1.6137
B( 17-C , 33-H ) :   0.9610 B( 18-C , 19-C ) :   1.2197 B( 18-C , 21-H ) :   0.9962
B( 19-C , 20-C ) :   1.6645 B( 19-C , 22-C ) :   1.0093 B( 22-C , 23-H ) :   0.9226
B( 22-C , 24-H ) :   0.9426 B( 22-C , 25-C ) :   1.0941 B( 25-C , 26-H ) :   0.9500
B( 25-C , 27-H ) :   0.9483 B( 25-C , 28-C ) :   1.0932 B( 28-C , 29-H ) :   0.9737
B( 28-C , 30-H ) :   0.9721 B( 28-C , 31-H ) :   0.9718

Dispersion correction           -0.014131656
FINAL SINGLE POINT ENERGY     -1339.878925026713

DIPOLE MOMENT
-------------
                                X             Y             Z
Electronic contribution:     26.97261       9.94803       5.55569
Nuclear contribution   :    -27.58832     -10.13843      -5.35860
                        -----------------------------------------
Total Dipole Moment    :     -0.61572      -0.19040       0.19709
                        -----------------------------------------
Magnitude (a.u.)       :      0.67394
Magnitude (Debye)      :      1.71303

Rotational constants in cm-1:     0.015921     0.009357     0.006684
Rotational constants in MHz :   477.304313   280.514333   200.393144

                             ****ORCA TERMINATED NORMALLY****
TOTAL RUN TIME: 0 days 0 hours 0 minutes 21 seconds 394 msec
