                         Program Version 4.2.1 -  RELEASE  -
|  1> ! wB97X-D3 SP def2-SVP
|  2> %pal
|  3> nprocs 24
|  4> end
|  5>
|  6> * xyz 0 1
|  7> S 	 -137.11 	 5.99448 	 -7.59818
|  8> C 	 -136.793 	 7.75627 	 -7.83211
|  9> C 	 -137.178 	 8.49575 	 -6.7477
| 10> C 	 -137.728 	 7.65821 	 -5.69854
| 11> C 	 -137.827 	 6.34156 	 -6.08539
| 12> H 	 -138.112 	 7.95589 	 -4.67573
| 13> C 	 -136.915 	 9.94065 	 -6.58814
| 14> H 	 -135.868 	 10.1664 	 -6.76774
| 15> H 	 -137.088 	 10.0895 	 -5.51378
| 16> C 	 -137.795 	 10.8518 	 -7.43428
| 17> H 	 -137.389 	 10.8228 	 -8.46907
| 18> H 	 -138.792 	 10.6143 	 -7.48716
| 19> C 	 -137.636 	 12.3805 	 -7.06827
| 20> H 	 -138.303 	 12.9058 	 -7.75843
| 21> H 	 -137.985 	 12.5824 	 -6.01545
| 22> H 	 -136.612 	 12.7578 	 -7.14264
| 23> S 	 -140.247 	 5.06884 	 -6.08784
| 24> C 	 -140.743 	 4.19587 	 -4.67968
| 25> C 	 -139.799 	 4.11341 	 -3.71055
| 26> C 	 -138.597 	 4.73357 	 -4.09751
| 27> C 	 -138.674 	 5.37527 	 -5.36815
| 28> H 	 -139.986 	 3.54599 	 -2.81092
| 29> C 	 -137.329 	 4.85009 	 -3.26124
| 30> H 	 -136.494 	 5.18553 	 -3.90791
| 31> H 	 -137.116 	 3.90533 	 -2.87807
| 32> C 	 -137.411 	 5.73946 	 -2.01355
| 33> H 	 -137.834 	 6.6684 	 -2.27211
| 34> H 	 -136.349 	 5.89024 	 -1.58566
| 35> C 	 -138.247 	 5.25957 	 -0.836116
| 36> H 	 -138.025 	 4.22478 	 -0.427678
| 37> H 	 -139.308 	 5.23914 	 -1.1111
| 38> H 	 -138.284 	 5.98472 	 0.0163995
| 39> H 	 -136.344 	 8.24433 	 -8.75195
| 40> H 	 -141.71 	 3.74722 	 -4.54846
| 41> *
| 42>
| 43>                          ****END OF INPUT****

CARTESIAN COORDINATES (ANGSTROEM)
---------------------------------
  S    -137.110000    5.994480   -7.598180
  C    -136.793000    7.756270   -7.832110
  C    -137.178000    8.495750   -6.747700
  C    -137.728000    7.658210   -5.698540
  C    -137.827000    6.341560   -6.085390
  H    -138.112000    7.955890   -4.675730
  C    -136.915000    9.940650   -6.588140
  H    -135.868000   10.166400   -6.767740
  H    -137.088000   10.089500   -5.513780
  C    -137.795000   10.851800   -7.434280
  H    -137.389000   10.822800   -8.469070
  H    -138.792000   10.614300   -7.487160
  C    -137.636000   12.380500   -7.068270
  H    -138.303000   12.905800   -7.758430
  H    -137.985000   12.582400   -6.015450
  H    -136.612000   12.757800   -7.142640
  S    -140.247000    5.068840   -6.087840
  C    -140.743000    4.195870   -4.679680
  C    -139.799000    4.113410   -3.710550
  C    -138.597000    4.733570   -4.097510
  C    -138.674000    5.375270   -5.368150
  H    -139.986000    3.545990   -2.810920
  C    -137.329000    4.850090   -3.261240
  H    -136.494000    5.185530   -3.907910
  H    -137.116000    3.905330   -2.878070
  C    -137.411000    5.739460   -2.013550
  H    -137.834000    6.668400   -2.272110
  H    -136.349000    5.890240   -1.585660
  C    -138.247000    5.259570   -0.836116
  H    -138.025000    4.224780   -0.427678
  H    -139.308000    5.239140   -1.111100
  H    -138.284000    5.984720    0.016400
  H    -136.344000    8.244330   -8.751950
  H    -141.710000    3.747220   -4.548460

 Total Charge           Charge          ....    0
 Multiplicity           Mult            ....    1
 Number of Electrons    NEL             ....  134
 Basis Dimension        Dim             ....  322

ORBITAL ENERGIES
----------------

  NO   OCC          E(Eh)            E(eV)
   0   2.0000     -88.968631     -2420.9595
   1   2.0000     -88.964392     -2420.8442
   2   2.0000     -10.326169      -280.9893
   3   2.0000     -10.325926      -280.9827
   4   2.0000     -10.318859      -280.7904
   5   2.0000     -10.311056      -280.5781
   6   2.0000     -10.304101      -280.3888
   7   2.0000     -10.299573      -280.2656
   8   2.0000     -10.299071      -280.2520
   9   2.0000     -10.289372      -279.9880
  10   2.0000     -10.289001      -279.9780
  11   2.0000     -10.287753      -279.9440
  12   2.0000     -10.285947      -279.8949
  13   2.0000     -10.285776      -279.8902
  14   2.0000     -10.285191      -279.8743
  15   2.0000     -10.283778      -279.8358
  16   2.0000      -8.083135      -219.9533
  17   2.0000      -8.079441      -219.8528
  18   2.0000      -6.041655      -164.4018
  19   2.0000      -6.037770      -164.2961
  20   2.0000      -6.037763      -164.2959
  21   2.0000      -6.033876      -164.1901
  22   2.0000      -6.033798      -164.1880
  23   2.0000      -6.030413      -164.0959
  24   2.0000      -1.006800       -27.3964
  25   2.0000      -0.984751       -26.7964
  26   2.0000      -0.915944       -24.9241
  27   2.0000      -0.908096       -24.7106
  28   2.0000      -0.867407       -23.6034
  29   2.0000      -0.847026       -23.0488
  30   2.0000      -0.846861       -23.0442
  31   2.0000      -0.813782       -22.1441
  32   2.0000      -0.783620       -21.3234
  33   2.0000      -0.770508       -20.9666
  34   2.0000      -0.706894       -19.2356
  35   2.0000      -0.701553       -19.0902
  36   2.0000      -0.687856       -18.7175
  37   2.0000      -0.658286       -17.9129
  38   2.0000      -0.636556       -17.3216
  39   2.0000      -0.614805       -16.7297
  40   2.0000      -0.597290       -16.2531
  41   2.0000      -0.569734       -15.5033
  42   2.0000      -0.561605       -15.2821
  43   2.0000      -0.550413       -14.9775
  44   2.0000      -0.538587       -14.6557
  45   2.0000      -0.527546       -14.3553
  46   2.0000      -0.516751       -14.0615
  47   2.0000      -0.506085       -13.7713
  48   2.0000      -0.501929       -13.6582
  49   2.0000      -0.496910       -13.5216
  50   2.0000      -0.489750       -13.3268
  51   2.0000      -0.477395       -12.9906
  52   2.0000      -0.471129       -12.8201
  53   2.0000      -0.463728       -12.6187
  54   2.0000      -0.460983       -12.5440
  55   2.0000      -0.449743       -12.2381
  56   2.0000      -0.444661       -12.0998
  57   2.0000      -0.441931       -12.0256
  58   2.0000      -0.433724       -11.8022
  59   2.0000      -0.426632       -11.6092
  60   2.0000      -0.423823       -11.5328
  61   2.0000      -0.412434       -11.2229
  62   2.0000      -0.409626       -11.1465
  63   2.0000      -0.341975        -9.3056
  64   2.0000      -0.330042        -8.9809
  65   2.0000      -0.323682        -8.8078
  66   2.0000      -0.300969        -8.1898
  67   0.0000       0.040057         1.0900
  68   0.0000       0.059249         1.6122
  69   0.0000       0.107161         2.9160
  70   0.0000       0.126200         3.4341
  71   0.0000       0.132025         3.5926

MULLIKEN ATOMIC CHARGES
-----------------------
   0 S :    0.119149
   1 C :   -0.150923
   2 C :   -0.080094
   3 C :    0.028524
   4 C :   -0.176291
   5 H :    0.039127
   6 C :    0.079381
   7 H :    0.034204
   8 H :    0.014369
   9 C :   -0.062865
  10 H :    0.027176
  11 H :    0.021182
  12 C :   -0.073045
  13 H :    0.039011
  14 H :    0.036072
  15 H :    0.036256
  16 S :    0.121813
  17 C :   -0.082288
  18 C :   -0.038547
  19 C :   -0.041864
  20 C :   -0.185068
  21 H :    0.020419
  22 C :    0.121067
  23 H :    0.040860
  24 H :    0.001080
  25 C :   -0.060996
  26 H :    0.012646
  27 H :    0.043127
  28 C :   -0.102149
  29 H :    0.037601
  30 H :    0.026958
  31 H :    0.039902
  32 H :    0.067268
  33 H :    0.046938
Sum of atomic charges:   -0.0000000

LOEWDIN ATOMIC CHARGES
----------------------
   0 S :    0.402588
   1 C :   -0.191830
   2 C :   -0.065623
   3 C :   -0.064906
   4 C :   -0.217734
   5 H :    0.042636
   6 C :   -0.034434
   7 H :    0.034519
   8 H :    0.030214
   9 C :   -0.029251
  10 H :    0.027900
  11 H :    0.013955
  12 C :   -0.067272
  13 H :    0.027187
  14 H :    0.025992
  15 H :    0.023675
  16 S :    0.418685
  17 C :   -0.185038
  18 C :   -0.079551
  19 C :   -0.051634
  20 C :   -0.203025
  21 H :    0.034387
  22 C :   -0.027128
  23 H :    0.039288
  24 H :    0.020824
  25 C :   -0.040182
  26 H :    0.015009
  27 H :    0.034697
  28 C :   -0.082085
  29 H :    0.026324
  30 H :    0.021729
  31 H :    0.032483
  32 H :    0.041165
  33 H :    0.026437

  Mayer bond orders larger than 0.100000
B(  0-S ,  1-C ) :   1.1123 B(  0-S ,  4-C ) :   1.1606 B(  1-C ,  2-C ) :   1.6437
B(  1-C , 32-H ) :   0.9600 B(  2-C ,  3-C ) :   1.2194 B(  2-C ,  6-C ) :   1.0173
B(  3-C ,  4-C ) :   1.5977 B(  3-C ,  5-H ) :   0.9780 B(  4-C , 20-C ) :   0.9980
B(  6-C ,  7-H ) :   0.9379 B(  6-C ,  8-H ) :   0.9419 B(  6-C ,  9-C ) :   1.0627
B(  9-C , 10-H ) :   0.9532 B(  9-C , 11-H ) :   0.9633 B(  9-C , 12-C ) :   1.0798
B( 12-C , 13-H ) :   0.9769 B( 12-C , 14-H ) :   0.9772 B( 12-C , 15-H ) :   0.9764
B( 16-S , 17-C ) :   1.1716 B( 16-S , 20-C ) :   1.1540 B( 17-C , 18-C ) :   1.6043
B( 17-C , 20-C ) :   0.1008 B( 17-C , 33-H ) :   0.9632 B( 18-C , 19-C ) :   1.2534
B( 18-C , 21-H ) :   0.9911 B( 19-C , 20-C ) :   1.5808 B( 19-C , 22-C ) :   1.0476
B( 22-C , 23-H ) :   0.9314 B( 22-C , 24-H ) :   0.9261 B( 22-C , 25-C ) :   1.0666
B( 25-C , 26-H ) :   0.9503 B( 25-C , 27-H ) :   0.9555 B( 25-C , 28-C ) :   1.0828
B( 28-C , 29-H ) :   0.9742 B( 28-C , 30-H ) :   0.9684 B( 28-C , 31-H ) :   0.9704

Dispersion correction           -0.014217879
FINAL SINGLE POINT ENERGY     -1339.877450830508

DIPOLE MOMENT
-------------
                                X             Y             Z
Electronic contribution:     -5.56956     -18.88930     -15.69540
Nuclear contribution   :      5.59540      19.30887      16.06569
                        -----------------------------------------
Total Dipole Moment    :      0.02584       0.41957       0.37029
                        -----------------------------------------
Magnitude (a.u.)       :      0.56020
Magnitude (Debye)      :      1.42392

Rotational constants in cm-1:     0.019412     0.007585     0.006593
Rotational constants in MHz :   581.945621   227.402934   197.642423

                             ****ORCA TERMINATED NORMALLY****
TOTAL RUN TIME: 0 days 0 hours 0 minutes 21 seconds 318 msec
