                         Program Version 4.2.1 -  RELEASE  -
|  1> ! wB97X-D3 SP def2-SVP
|  2> %pal
|  3> nprocs 24
|  4> end
|  5>
|  6> * xyz 0 1
|  7> S 	 -61.782 	 11.2343 	 23.637
|  8> C 	 -61.0804 	 12.306 	 22.5268
|  9> C 	 -60.563 	 11.6784 	 21.3551
| 10> C 	 -60.9395 	 10.2813 	 21.4108
| 11> C 	 -61.5915 	 9.94483 	 22.5405
| 12> H 	 -60.681 	 9.47218 	 20.7783
| 13> C 	 -59.875 	 12.3109 	 20.2401
| 14> H 	 -60.2776 	 13.3887 	 20.3441
| 15> H 	 -60.101 	 11.7829 	 19.2771
| 16> C 	 -58.3533 	 12.4156 	 20.4913
| 17> H 	 -57.9468 	 12.9649 	 19.6319
| 18> H 	 -58.1127 	 12.8795 	 21.43
| 19> C 	 -57.6854 	 11.0117 	 20.4867
| 20> H 	 -58.055 	 10.3636 	 21.3047
| 21> H 	 -57.8302 	 10.5476 	 19.5047
| 22> H 	 -56.5703 	 11.1347 	 20.5105
| 23> S 	 -61.2933 	 7.95946 	 24.5013
| 24> C 	 -61.7641 	 6.39124 	 24.175
| 25> C 	 -62.4003 	 6.36609 	 22.9768
| 26> C 	 -62.5387 	 7.549 	 22.2929
| 27> C 	 -61.9694 	 8.6017 	 22.9626
| 28> H 	 -62.8713 	 5.43102 	 22.7289
| 29> C 	 -63.1168 	 7.51703 	 20.9055
| 30> H 	 -62.8261 	 6.65057 	 20.3274
| 31> H 	 -62.7534 	 8.35656 	 20.3854
| 32> C 	 -64.6369 	 7.47819 	 20.9517
| 33> H 	 -64.9359 	 6.55026 	 21.4862
| 34> H 	 -65.0247 	 7.43771 	 19.9544
| 35> C 	 -65.3326 	 8.73338 	 21.5083
| 36> H 	 -66.3741 	 8.69416 	 21.2958
| 37> H 	 -65.0459 	 9.68524 	 21.038
| 38> H 	 -65.0963 	 8.77237 	 22.5417
| 39> H 	 -60.8389 	 13.3517 	 22.686
| 40> H 	 -61.6556 	 5.56762 	 24.7536
| 41> *
| 42>
| 43>                          ****END OF INPUT****

CARTESIAN COORDINATES (ANGSTROEM)
---------------------------------
  S    -61.782000   11.234300   23.637000
  C    -61.080400   12.306000   22.526800
  C    -60.563000   11.678400   21.355100
  C    -60.939500   10.281300   21.410800
  C    -61.591500    9.944830   22.540500
  H    -60.681000    9.472180   20.778300
  C    -59.875000   12.310900   20.240100
  H    -60.277600   13.388700   20.344100
  H    -60.101000   11.782900   19.277100
  C    -58.353300   12.415600   20.491300
  H    -57.946800   12.964900   19.631900
  H    -58.112700   12.879500   21.430000
  C    -57.685400   11.011700   20.486700
  H    -58.055000   10.363600   21.304700
  H    -57.830200   10.547600   19.504700
  H    -56.570300   11.134700   20.510500
  S    -61.293300    7.959460   24.501300
  C    -61.764100    6.391240   24.175000
  C    -62.400300    6.366090   22.976800
  C    -62.538700    7.549000   22.292900
  C    -61.969400    8.601700   22.962600
  H    -62.871300    5.431020   22.728900
  C    -63.116800    7.517030   20.905500
  H    -62.826100    6.650570   20.327400
  H    -62.753400    8.356560   20.385400
  C    -64.636900    7.478190   20.951700
  H    -64.935900    6.550260   21.486200
  H    -65.024700    7.437710   19.954400
  C    -65.332600    8.733380   21.508300
  H    -66.374100    8.694160   21.295800
  H    -65.045900    9.685240   21.038000
  H    -65.096300    8.772370   22.541700
  H    -60.838900   13.351700   22.686000
  H    -61.655600    5.567620   24.753600

 Total Charge           Charge          ....    0
 Multiplicity           Mult            ....    1
 Number of Electrons    NEL             ....  134
 Basis Dimension        Dim             ....  322

ORBITAL ENERGIES
----------------

  NO   OCC          E(Eh)            E(eV)
   0   2.0000     -88.967772     -2420.9362
   1   2.0000     -88.961270     -2420.7592
   2   2.0000     -10.324916      -280.9552
   3   2.0000     -10.319356      -280.8040
   4   2.0000     -10.310744      -280.5696
   5   2.0000     -10.302278      -280.3392
   6   2.0000     -10.301722      -280.3241
   7   2.0000     -10.299342      -280.2593
   8   2.0000     -10.293444      -280.0988
   9   2.0000     -10.288455      -279.9631
  10   2.0000     -10.287004      -279.9236
  11   2.0000     -10.282435      -279.7993
  12   2.0000     -10.281019      -279.7607
  13   2.0000     -10.280988      -279.7599
  14   2.0000     -10.278208      -279.6843
  15   2.0000     -10.264520      -279.3118
  16   2.0000      -8.084150      -219.9809
  17   2.0000      -8.077024      -219.7870
  18   2.0000      -6.042469      -164.4239
  19   2.0000      -6.038398      -164.3132
  20   2.0000      -6.035401      -164.2316
  21   2.0000      -6.035061      -164.2224
  22   2.0000      -6.031261      -164.1190
  23   2.0000      -6.027974      -164.0295
  24   2.0000      -1.017786       -27.6954
  25   2.0000      -0.996772       -27.1236
  26   2.0000      -0.918373       -24.9902
  27   2.0000      -0.914660       -24.8892
  28   2.0000      -0.871148       -23.7051
  29   2.0000      -0.852729       -23.2039
  30   2.0000      -0.847444       -23.0601
  31   2.0000      -0.816307       -22.2128
  32   2.0000      -0.788034       -21.4435
  33   2.0000      -0.772333       -21.0162
  34   2.0000      -0.703824       -19.1520
  35   2.0000      -0.702496       -19.1159
  36   2.0000      -0.695450       -18.9241
  37   2.0000      -0.659929       -17.9576
  38   2.0000      -0.643874       -17.5207
  39   2.0000      -0.616588       -16.7782
  40   2.0000      -0.604819       -16.4580
  41   2.0000      -0.582619       -15.8539
  42   2.0000      -0.556929       -15.1548
  43   2.0000      -0.548037       -14.9128
  44   2.0000      -0.545047       -14.8315
  45   2.0000      -0.537394       -14.6232
  46   2.0000      -0.519713       -14.1421
  47   2.0000      -0.515192       -14.0191
  48   2.0000      -0.503638       -13.7047
  49   2.0000      -0.499182       -13.5834
  50   2.0000      -0.491327       -13.3697
  51   2.0000      -0.481660       -13.1066
  52   2.0000      -0.470918       -12.8143
  53   2.0000      -0.467564       -12.7231
  54   2.0000      -0.464541       -12.6408
  55   2.0000      -0.448639       -12.2081
  56   2.0000      -0.435369       -11.8470
  57   2.0000      -0.434313       -11.8183
  58   2.0000      -0.429299       -11.6818
  59   2.0000      -0.428586       -11.6624
  60   2.0000      -0.424959       -11.5637
  61   2.0000      -0.416982       -11.3466
  62   2.0000      -0.406914       -11.0727
  63   2.0000      -0.351116        -9.5544
  64   2.0000      -0.332705        -9.0534
  65   2.0000      -0.326365        -8.8808
  66   2.0000      -0.289971        -7.8905
  67   0.0000       0.036442         0.9916
  68   0.0000       0.070267         1.9121
  69   0.0000       0.114148         3.1061
  70   0.0000       0.124174         3.3790
  71   0.0000       0.130694         3.5564

MULLIKEN ATOMIC CHARGES
-----------------------
   0 S :    0.137531
   1 C :   -0.100972
   2 C :   -0.116803
   3 C :    0.040484
   4 C :   -0.172034
   5 H :    0.001302
   6 C :    0.025892
   7 H :    0.042686
   8 H :    0.045472
   9 C :   -0.048791
  10 H :    0.034788
  11 H :    0.030370
  12 C :   -0.096455
  13 H :    0.063778
  14 H :    0.022459
  15 H :    0.039966
  16 S :    0.099877
  17 C :   -0.028986
  18 C :   -0.064097
  19 C :   -0.026397
  20 C :   -0.150168
  21 H :    0.005280
  22 C :    0.134717
  23 H :    0.024320
  24 H :   -0.008394
  25 C :   -0.092364
  26 H :    0.031090
  27 H :    0.018036
  28 C :   -0.033414
  29 H :    0.025714
  30 H :    0.028044
  31 H :    0.036750
  32 H :    0.039468
  33 H :    0.010850
Sum of atomic charges:   -0.0000000

LOEWDIN ATOMIC CHARGES
----------------------
   0 S :    0.452819
   1 C :   -0.224460
   2 C :   -0.059354
   3 C :   -0.062737
   4 C :   -0.210092
   5 H :    0.026601
   6 C :   -0.044293
   7 H :    0.046716
   8 H :    0.039529
   9 C :   -0.034304
  10 H :    0.025626
  11 H :    0.021831
  12 C :   -0.075260
  13 H :    0.030734
  14 H :    0.021157
  15 H :    0.030812
  16 S :    0.416779
  17 C :   -0.188654
  18 C :   -0.077412
  19 C :   -0.060590
  20 C :   -0.187799
  21 H :    0.025800
  22 C :   -0.021766
  23 H :    0.033366
  24 H :    0.018801
  25 C :   -0.035960
  26 H :    0.025682
  27 H :    0.018621
  28 C :   -0.061482
  29 H :    0.022460
  30 H :    0.028533
  31 H :    0.020694
  32 H :    0.024878
  33 H :    0.012725

  Mayer bond orders larger than 0.100000
B(  0-S ,  1-C ) :   1.1606 B(  0-S ,  4-C ) :   1.1647 B(  1-C ,  2-C ) :   1.5945
B(  1-C , 32-H ) :   0.9601 B(  2-C ,  3-C ) :   1.2263 B(  2-C ,  6-C ) :   1.0258
B(  3-C ,  4-C ) :   1.5989 B(  3-C ,  5-H ) :   0.9923 B(  4-C , 20-C ) :   1.0063
B(  6-C ,  7-H ) :   0.9330 B(  6-C ,  8-H ) :   0.9444 B(  6-C ,  9-C ) :   1.0703
B(  9-C , 10-H ) :   0.9566 B(  9-C , 11-H ) :   0.9565 B(  9-C , 12-C ) :   1.0746
B( 12-C , 13-H ) :   0.9724 B( 12-C , 14-H ) :   0.9746 B( 12-C , 15-H ) :   0.9738
B( 16-S , 17-C ) :   1.1726 B( 16-S , 20-C ) :   1.1426 B( 17-C , 18-C ) :   1.5868
B( 17-C , 20-C ) :   0.1023 B( 17-C , 33-H ) :   0.9789 B( 18-C , 19-C ) :   1.2656
B( 18-C , 21-H ) :   0.9910 B( 19-C , 20-C ) :   1.5811 B( 19-C , 22-C ) :   1.0378
B( 22-C , 23-H ) :   0.9367 B( 22-C , 24-H ) :   0.9244 B( 22-C , 25-C ) :   1.0810
B( 25-C , 26-H ) :   0.9567 B( 25-C , 27-H ) :   0.9553 B( 25-C , 28-C ) :   1.0773
B( 28-C , 29-H ) :   0.9747 B( 28-C , 30-H ) :   0.9726 B( 28-C , 31-H ) :   0.9762

Dispersion correction           -0.015055779
FINAL SINGLE POINT ENERGY     -1339.870550392181

DIPOLE MOMENT
-------------
                                X             Y             Z
Electronic contribution:     -0.70068      -1.80254      19.85994
Nuclear contribution   :      0.85082       1.67972     -20.41803
                        -----------------------------------------
Total Dipole Moment    :      0.15014      -0.12282      -0.55808
                        -----------------------------------------
Magnitude (a.u.)       :      0.59083
Magnitude (Debye)      :      1.50178

Rotational constants in cm-1:     0.020082     0.008639     0.007959
Rotational constants in MHz :   602.049961   258.999049   238.598210

                             ****ORCA TERMINATED NORMALLY****
TOTAL RUN TIME: 0 days 0 hours 0 minutes 21 seconds 230 msec
