                         Program Version 4.2.1 -  RELEASE  -
|  1> ! wB97X-D3 SP def2-SVP
|  2> %pal
|  3> nprocs 24
|  4> end
|  5>
|  6> * xyz 0 1
|  7> S 	 -37.0945 	 -5.36087 	 6.47945
|  8> C 	 -37.4979 	 -5.53913 	 8.11453
|  9> C 	 -38.2659 	 -6.68066 	 8.36842
| 10> C 	 -38.2043 	 -7.57142 	 7.19727
| 11> C 	 -37.7509 	 -6.92532 	 6.057
| 12> H 	 -38.6262 	 -8.59221 	 7.17787
| 13> C 	 -39.0045 	 -7.16698 	 9.63704
| 14> H 	 -38.9569 	 -6.38025 	 10.3638
| 15> H 	 -38.5321 	 -8.05785 	 10.1144
| 16> C 	 -40.4243 	 -7.66696 	 9.33862
| 17> H 	 -40.8541 	 -6.70643 	 9.02205
| 18> H 	 -40.4772 	 -8.19737 	 8.40499
| 19> C 	 -41.084 	 -8.63685 	 10.3831
| 20> H 	 -40.4214 	 -9.392 	 10.5951
| 21> H 	 -41.1806 	 -8.20632 	 11.4264
| 22> H 	 -42.0295 	 -8.92721 	 10.0343
| 23> S 	 -36.2473 	 -7.88511 	 3.93542
| 24> C 	 -37.1249 	 -8.28621 	 2.46156
| 25> C 	 -38.4815 	 -8.40712 	 2.73068
| 26> C 	 -38.8637 	 -7.97767 	 4.01738
| 27> C 	 -37.8128 	 -7.42063 	 4.71192
| 28> H 	 -39.0207 	 -8.64304 	 1.83636
| 29> C 	 -40.2828 	 -7.97669 	 4.32881
| 30> H 	 -40.429 	 -8.52204 	 5.1907
| 31> H 	 -40.7639 	 -8.54517 	 3.57029
| 32> C 	 -40.9283 	 -6.57313 	 4.40381
| 33> H 	 -40.4316 	 -5.8172 	 3.83271
| 34> H 	 -40.7251 	 -6.28554 	 5.39106
| 35> C 	 -42.441 	 -6.39698 	 4.24337
| 36> H 	 -42.8334 	 -5.65931 	 4.9547
| 37> H 	 -42.983 	 -7.33146 	 4.40467
| 38> H 	 -42.7447 	 -6.05466 	 3.24664
| 39> H 	 -37.369 	 -4.82957 	 8.92174
| 40> H 	 -36.729 	 -8.51306 	 1.53279
| 41> *
| 42>
| 43>                          ****END OF INPUT****

CARTESIAN COORDINATES (ANGSTROEM)
---------------------------------
  S    -37.094500   -5.360870    6.479450
  C    -37.497900   -5.539130    8.114530
  C    -38.265900   -6.680660    8.368420
  C    -38.204300   -7.571420    7.197270
  C    -37.750900   -6.925320    6.057000
  H    -38.626200   -8.592210    7.177870
  C    -39.004500   -7.166980    9.637040
  H    -38.956900   -6.380250   10.363800
  H    -38.532100   -8.057850   10.114400
  C    -40.424300   -7.666960    9.338620
  H    -40.854100   -6.706430    9.022050
  H    -40.477200   -8.197370    8.404990
  C    -41.084000   -8.636850   10.383100
  H    -40.421400   -9.392000   10.595100
  H    -41.180600   -8.206320   11.426400
  H    -42.029500   -8.927210   10.034300
  S    -36.247300   -7.885110    3.935420
  C    -37.124900   -8.286210    2.461560
  C    -38.481500   -8.407120    2.730680
  C    -38.863700   -7.977670    4.017380
  C    -37.812800   -7.420630    4.711920
  H    -39.020700   -8.643040    1.836360
  C    -40.282800   -7.976690    4.328810
  H    -40.429000   -8.522040    5.190700
  H    -40.763900   -8.545170    3.570290
  C    -40.928300   -6.573130    4.403810
  H    -40.431600   -5.817200    3.832710
  H    -40.725100   -6.285540    5.391060
  C    -42.441000   -6.396980    4.243370
  H    -42.833400   -5.659310    4.954700
  H    -42.983000   -7.331460    4.404670
  H    -42.744700   -6.054660    3.246640
  H    -37.369000   -4.829570    8.921740
  H    -36.729000   -8.513060    1.532790

 Total Charge           Charge          ....    0
 Multiplicity           Mult            ....    1
 Number of Electrons    NEL             ....  134
 Basis Dimension        Dim             ....  322

ORBITAL ENERGIES
----------------

  NO   OCC          E(Eh)            E(eV)
   0   2.0000     -88.967805     -2420.9370
   1   2.0000     -88.961411     -2420.7631
   2   2.0000     -10.325725      -280.9773
   3   2.0000     -10.324207      -280.9360
   4   2.0000     -10.314668      -280.6764
   5   2.0000     -10.311330      -280.5855
   6   2.0000     -10.307419      -280.4791
   7   2.0000     -10.300009      -280.2775
   8   2.0000     -10.298601      -280.2392
   9   2.0000     -10.297055      -280.1971
  10   2.0000     -10.288548      -279.9656
  11   2.0000     -10.287450      -279.9357
  12   2.0000     -10.281706      -279.7794
  13   2.0000     -10.278798      -279.7003
  14   2.0000     -10.277353      -279.6610
  15   2.0000     -10.275092      -279.5995
  16   2.0000      -8.083355      -219.9593
  17   2.0000      -8.075302      -219.7401
  18   2.0000      -6.041837      -164.4067
  19   2.0000      -6.037691      -164.2939
  20   2.0000      -6.034142      -164.1973
  21   2.0000      -6.033839      -164.1891
  22   2.0000      -6.030130      -164.0882
  23   2.0000      -6.025894      -163.9729
  24   2.0000      -1.006855       -27.3979
  25   2.0000      -0.984410       -26.7871
  26   2.0000      -0.912604       -24.8332
  27   2.0000      -0.909989       -24.7621
  28   2.0000      -0.872018       -23.7288
  29   2.0000      -0.853024       -23.2120
  30   2.0000      -0.845671       -23.0119
  31   2.0000      -0.812388       -22.1062
  32   2.0000      -0.787353       -21.4250
  33   2.0000      -0.777229       -21.1495
  34   2.0000      -0.716671       -19.5016
  35   2.0000      -0.705870       -19.2077
  36   2.0000      -0.694178       -18.8895
  37   2.0000      -0.661987       -18.0136
  38   2.0000      -0.640915       -17.4402
  39   2.0000      -0.620328       -16.8800
  40   2.0000      -0.598503       -16.2861
  41   2.0000      -0.572254       -15.5718
  42   2.0000      -0.563662       -15.3380
  43   2.0000      -0.555362       -15.1122
  44   2.0000      -0.535265       -14.5653
  45   2.0000      -0.527540       -14.3551
  46   2.0000      -0.524392       -14.2694
  47   2.0000      -0.512166       -13.9367
  48   2.0000      -0.503825       -13.7098
  49   2.0000      -0.500338       -13.6149
  50   2.0000      -0.491958       -13.3869
  51   2.0000      -0.489390       -13.3170
  52   2.0000      -0.471466       -12.8292
  53   2.0000      -0.463419       -12.6103
  54   2.0000      -0.455461       -12.3937
  55   2.0000      -0.453725       -12.3465
  56   2.0000      -0.442650       -12.0451
  57   2.0000      -0.440596       -11.9892
  58   2.0000      -0.437027       -11.8921
  59   2.0000      -0.430203       -11.7064
  60   2.0000      -0.423737       -11.5305
  61   2.0000      -0.405865       -11.0442
  62   2.0000      -0.404725       -11.0131
  63   2.0000      -0.337247        -9.1770
  64   2.0000      -0.328195        -8.9306
  65   2.0000      -0.323151        -8.7934
  66   2.0000      -0.298663        -8.1270
  67   0.0000       0.026573         0.7231
  68   0.0000       0.066281         1.8036
  69   0.0000       0.105129         2.8607
  70   0.0000       0.114138         3.1058
  71   0.0000       0.125926         3.4266

MULLIKEN ATOMIC CHARGES
-----------------------
   0 S :    0.137540
   1 C :   -0.095736
   2 C :   -0.138843
   3 C :    0.017683
   4 C :   -0.183692
   5 H :    0.033247
   6 C :    0.090122
   7 H :    0.015319
   8 H :    0.028470
   9 C :   -0.118236
  10 H :    0.025327
  11 H :    0.021247
  12 C :    0.007153
  13 H :    0.014816
  14 H :    0.030220
  15 H :    0.037044
  16 S :    0.091714
  17 C :   -0.058752
  18 C :   -0.057080
  19 C :   -0.025145
  20 C :   -0.153887
  21 H :    0.016793
  22 C :    0.171907
  23 H :   -0.002599
  24 H :   -0.001248
  25 C :   -0.051967
  26 H :    0.026865
  27 H :    0.015759
  28 C :   -0.052593
  29 H :    0.035198
  30 H :    0.023282
  31 H :    0.031075
  32 H :    0.044821
  33 H :    0.024174
Sum of atomic charges:    0.0000000

LOEWDIN ATOMIC CHARGES
----------------------
   0 S :    0.435553
   1 C :   -0.216847
   2 C :   -0.063092
   3 C :   -0.054960
   4 C :   -0.211254
   5 H :    0.034326
   6 C :   -0.031932
   7 H :    0.022798
   8 H :    0.030804
   9 C :   -0.047682
  10 H :    0.027236
  11 H :    0.019194
  12 C :   -0.051698
  13 H :    0.015640
  14 H :    0.032797
  15 H :    0.023658
  16 S :    0.373210
  17 C :   -0.160643
  18 C :   -0.071642
  19 C :   -0.044818
  20 C :   -0.185770
  21 H :    0.031662
  22 C :   -0.020801
  23 H :    0.021354
  24 H :    0.025614
  25 C :   -0.035348
  26 H :    0.025190
  27 H :    0.021681
  28 C :   -0.066668
  29 H :    0.030342
  30 H :    0.023662
  31 H :    0.024271
  32 H :    0.030496
  33 H :    0.013667

  Mayer bond orders larger than 0.100000
B(  0-S ,  1-C ) :   1.1542 B(  0-S ,  4-C ) :   1.1437 B(  1-C ,  2-C ) :   1.6184
B(  1-C , 32-H ) :   0.9626 B(  2-C ,  3-C ) :   1.2204 B(  2-C ,  6-C ) :   1.0316
B(  3-C ,  4-C ) :   1.5881 B(  3-C ,  5-H ) :   0.9822 B(  4-C , 20-C ) :   1.0549
B(  6-C ,  7-H ) :   0.9435 B(  6-C ,  8-H ) :   0.9422 B(  6-C ,  9-C ) :   1.0378
B(  9-C , 10-H ) :   0.9579 B(  9-C , 11-H ) :   0.9605 B(  9-C , 12-C ) :   1.0610
B( 12-C , 13-H ) :   0.9696 B( 12-C , 14-H ) :   0.9757 B( 12-C , 15-H ) :   0.9762
B( 16-S , 17-C ) :   1.1471 B( 16-S , 20-C ) :   1.1254 B( 17-C , 18-C ) :   1.6371
B( 17-C , 20-C ) :   0.1072 B( 17-C , 33-H ) :   0.9737 B( 18-C , 19-C ) :   1.2098
B( 18-C , 21-H ) :   0.9930 B( 19-C , 20-C ) :   1.5863 B( 19-C , 22-C ) :   1.0670
B( 22-C , 23-H ) :   0.9007 B( 22-C , 24-H ) :   0.9258 B( 22-C , 25-C ) :   1.0518
B( 25-C , 26-H ) :   0.9623 B( 25-C , 27-H ) :   0.9524 B( 25-C , 28-C ) :   1.0838
B( 28-C , 29-H ) :   0.9769 B( 28-C , 30-H ) :   0.9757 B( 28-C , 31-H ) :   0.9777

Dispersion correction           -0.014815995
FINAL SINGLE POINT ENERGY     -1339.839288135567

DIPOLE MOMENT
-------------
                                X             Y             Z
Electronic contribution:     27.84380       4.71132     -12.12153
Nuclear contribution   :    -28.53577      -4.96678      12.31514
                        -----------------------------------------
Total Dipole Moment    :     -0.69197      -0.25546       0.19361
                        -----------------------------------------
Magnitude (a.u.)       :      0.76261
Magnitude (Debye)      :      1.93840

Rotational constants in cm-1:     0.016811     0.009440     0.007396
Rotational constants in MHz :   503.981824   283.012521   221.741058

                             ****ORCA TERMINATED NORMALLY****
TOTAL RUN TIME: 0 days 0 hours 0 minutes 20 seconds 999 msec
