                         Program Version 4.2.1 -  RELEASE  -
|  1> ! wB97X-D3 SP def2-SVP
|  2> %pal
|  3> nprocs 24
|  4> end
|  5>
|  6> * xyz 0 1
|  7> S 	 28.7379 	 -0.465794 	 -113.924
|  8> C 	 27.959 	 1.05202 	 -114.218
|  9> C 	 27.0035 	 1.42935 	 -113.25
| 10> C 	 27.0236 	 0.535507 	 -112.149
| 11> C 	 27.9615 	 -0.452695 	 -112.282
| 12> H 	 26.3846 	 0.605618 	 -111.275
| 13> C 	 26.0044 	 2.56068 	 -113.417
| 14> H 	 26.6134 	 3.29214 	 -113.951
| 15> H 	 25.887 	 2.96488 	 -112.365
| 16> C 	 24.608 	 2.17904 	 -114.022
| 17> H 	 24.8107 	 1.63843 	 -114.903
| 18> H 	 24.0158 	 1.67323 	 -113.369
| 19> C 	 23.9453 	 3.36708 	 -114.592
| 20> H 	 23.0849 	 2.99271 	 -115.161
| 21> H 	 23.6971 	 4.10137 	 -113.839
| 22> H 	 24.6143 	 3.90674 	 -115.282
| 23> S 	 28.3104 	 -3.15804 	 -112.088
| 24> C 	 28.8007 	 -3.86225 	 -110.618
| 25> C 	 28.9822 	 -2.9289 	 -109.622
| 26> C 	 28.6969 	 -1.60806 	 -110.059
| 27> C 	 28.2795 	 -1.57631 	 -111.368
| 28> H 	 29.2161 	 -3.25897 	 -108.606
| 29> C 	 28.7586 	 -0.355193 	 -109.131
| 30> H 	 28.9241 	 -0.712833 	 -108.137
| 31> H 	 27.7724 	 0.122758 	 -109.15
| 32> C 	 29.7493 	 0.721338 	 -109.538
| 33> H 	 29.9443 	 0.973168 	 -110.564
| 34> H 	 30.703 	 0.300407 	 -109.195
| 35> C 	 29.4198 	 2.00231 	 -108.736
| 36> H 	 28.74 	 2.59156 	 -109.33
| 37> H 	 30.3772 	 2.56502 	 -108.593
| 38> H 	 29.0264 	 1.79258 	 -107.743
| 39> H 	 28.0711 	 1.42707 	 -115.206
| 40> H 	 28.932 	 -4.96119 	 -110.532
| 41> *
| 42>
| 43>                          ****END OF INPUT****

CARTESIAN COORDINATES (ANGSTROEM)
---------------------------------
  S     28.737900   -0.465794  -113.924000
  C     27.959000    1.052020  -114.218000
  C     27.003500    1.429350  -113.250000
  C     27.023600    0.535507  -112.149000
  C     27.961500   -0.452695  -112.282000
  H     26.384600    0.605618  -111.275000
  C     26.004400    2.560680  -113.417000
  H     26.613400    3.292140  -113.951000
  H     25.887000    2.964880  -112.365000
  C     24.608000    2.179040  -114.022000
  H     24.810700    1.638430  -114.903000
  H     24.015800    1.673230  -113.369000
  C     23.945300    3.367080  -114.592000
  H     23.084900    2.992710  -115.161000
  H     23.697100    4.101370  -113.839000
  H     24.614300    3.906740  -115.282000
  S     28.310400   -3.158040  -112.088000
  C     28.800700   -3.862250  -110.618000
  C     28.982200   -2.928900  -109.622000
  C     28.696900   -1.608060  -110.059000
  C     28.279500   -1.576310  -111.368000
  H     29.216100   -3.258970  -108.606000
  C     28.758600   -0.355193  -109.131000
  H     28.924100   -0.712833  -108.137000
  H     27.772400    0.122758  -109.150000
  C     29.749300    0.721338  -109.538000
  H     29.944300    0.973168  -110.564000
  H     30.703000    0.300407  -109.195000
  C     29.419800    2.002310  -108.736000
  H     28.740000    2.591560  -109.330000
  H     30.377200    2.565020  -108.593000
  H     29.026400    1.792580  -107.743000
  H     28.071100    1.427070  -115.206000
  H     28.932000   -4.961190  -110.532000

 Total Charge           Charge          ....    0
 Multiplicity           Mult            ....    1
 Number of Electrons    NEL             ....  134
 Basis Dimension        Dim             ....  322

ORBITAL ENERGIES
----------------

  NO   OCC          E(Eh)            E(eV)
   0   2.0000     -88.965962     -2420.8869
   1   2.0000     -88.962648     -2420.7967
   2   2.0000     -10.332237      -281.1545
   3   2.0000     -10.319889      -280.8185
   4   2.0000     -10.313601      -280.6474
   5   2.0000     -10.310586      -280.5653
   6   2.0000     -10.302046      -280.3329
   7   2.0000     -10.299889      -280.2742
   8   2.0000     -10.297209      -280.2013
   9   2.0000     -10.293810      -280.1088
  10   2.0000     -10.291963      -280.0586
  11   2.0000     -10.290836      -280.0279
  12   2.0000     -10.278039      -279.6797
  13   2.0000     -10.276351      -279.6337
  14   2.0000     -10.276111      -279.6272
  15   2.0000     -10.274706      -279.5890
  16   2.0000      -8.080220      -219.8740
  17   2.0000      -8.078708      -219.8328
  18   2.0000      -6.038575      -164.3180
  19   2.0000      -6.037060      -164.2767
  20   2.0000      -6.035067      -164.2225
  21   2.0000      -6.032962      -164.1652
  22   2.0000      -6.030906      -164.1093
  23   2.0000      -6.029639      -164.0748
  24   2.0000      -1.007262       -27.4090
  25   2.0000      -0.983060       -26.7504
  26   2.0000      -0.915337       -24.9076
  27   2.0000      -0.907680       -24.6992
  28   2.0000      -0.866847       -23.5881
  29   2.0000      -0.856865       -23.3165
  30   2.0000      -0.848749       -23.0956
  31   2.0000      -0.814384       -22.1605
  32   2.0000      -0.777884       -21.1673
  33   2.0000      -0.762481       -20.7482
  34   2.0000      -0.706060       -19.2129
  35   2.0000      -0.699594       -19.0369
  36   2.0000      -0.687176       -18.6990
  37   2.0000      -0.662200       -18.0194
  38   2.0000      -0.642868       -17.4933
  39   2.0000      -0.620411       -16.8822
  40   2.0000      -0.595040       -16.1919
  41   2.0000      -0.580034       -15.7835
  42   2.0000      -0.565791       -15.3960
  43   2.0000      -0.553884       -15.0720
  44   2.0000      -0.532453       -14.4888
  45   2.0000      -0.519526       -14.1370
  46   2.0000      -0.514834       -14.0094
  47   2.0000      -0.512376       -13.9425
  48   2.0000      -0.504053       -13.7160
  49   2.0000      -0.492584       -13.4039
  50   2.0000      -0.486404       -13.2357
  51   2.0000      -0.482375       -13.1261
  52   2.0000      -0.473040       -12.8721
  53   2.0000      -0.463839       -12.6217
  54   2.0000      -0.455874       -12.4050
  55   2.0000      -0.451391       -12.2830
  56   2.0000      -0.447471       -12.1763
  57   2.0000      -0.442397       -12.0382
  58   2.0000      -0.434927       -11.8350
  59   2.0000      -0.425884       -11.5889
  60   2.0000      -0.417651       -11.3649
  61   2.0000      -0.415269       -11.3000
  62   2.0000      -0.407405       -11.0860
  63   2.0000      -0.347402        -9.4533
  64   2.0000      -0.332075        -9.0362
  65   2.0000      -0.328651        -8.9431
  66   2.0000      -0.286660        -7.8004
  67   0.0000       0.031705         0.8627
  68   0.0000       0.064247         1.7483
  69   0.0000       0.106136         2.8881
  70   0.0000       0.121991         3.3195
  71   0.0000       0.140726         3.8294

MULLIKEN ATOMIC CHARGES
-----------------------
   0 S :    0.097462
   1 C :   -0.118406
   2 C :   -0.094621
   3 C :    0.025130
   4 C :   -0.141226
   5 H :    0.016954
   6 C :    0.023777
   7 H :    0.027662
   8 H :    0.028345
   9 C :    0.026454
  10 H :    0.016255
  11 H :    0.013997
  12 C :   -0.050862
  13 H :    0.038570
  14 H :    0.023848
  15 H :    0.023959
  16 S :    0.107557
  17 C :   -0.110144
  18 C :   -0.042557
  19 C :   -0.031416
  20 C :   -0.169306
  21 H :    0.019528
  22 C :    0.087146
  23 H :    0.013173
  24 H :    0.022951
  25 C :   -0.071907
  26 H :    0.048444
  27 H :    0.018168
  28 C :   -0.061644
  29 H :    0.037477
  30 H :    0.037018
  31 H :    0.031176
  32 H :    0.038096
  33 H :    0.068942
Sum of atomic charges:   -0.0000000

LOEWDIN ATOMIC CHARGES
----------------------
   0 S :    0.383092
   1 C :   -0.200631
   2 C :   -0.063889
   3 C :   -0.063426
   4 C :   -0.164821
   5 H :    0.034605
   6 C :   -0.034610
   7 H :    0.032675
   8 H :    0.033555
   9 C :   -0.024358
  10 H :    0.025190
  11 H :    0.013635
  12 C :   -0.059804
  13 H :    0.029651
  14 H :    0.019425
  15 H :    0.025269
  16 S :    0.426888
  17 C :   -0.203473
  18 C :   -0.079810
  19 C :   -0.057594
  20 C :   -0.207162
  21 H :    0.033467
  22 C :   -0.022748
  23 H :    0.025818
  24 H :    0.026770
  25 C :   -0.040694
  26 H :    0.027291
  27 H :    0.022384
  28 C :   -0.063221
  29 H :    0.023232
  30 H :    0.031485
  31 H :    0.022169
  32 H :    0.014571
  33 H :    0.035066

  Mayer bond orders larger than 0.100000
B(  0-S ,  1-C ) :   1.1462 B(  0-S ,  4-C ) :   1.1378 B(  1-C ,  2-C ) :   1.5945
B(  1-C ,  4-C ) :   0.1006 B(  1-C , 32-H ) :   0.9721 B(  2-C ,  3-C ) :   1.2371
B(  2-C ,  6-C ) :   1.0213 B(  3-C ,  4-C ) :   1.5944 B(  3-C ,  5-H ) :   0.9946
B(  4-C , 20-C ) :   1.0225 B(  6-C ,  7-H ) :   0.9447 B(  6-C ,  8-H ) :   0.9354
B(  6-C ,  9-C ) :   1.0544 B(  9-C , 10-H ) :   0.9553 B(  9-C , 11-H ) :   0.9530
B(  9-C , 12-C ) :   1.0899 B( 12-C , 13-H ) :   0.9734 B( 12-C , 14-H ) :   0.9727
B( 12-C , 15-H ) :   0.9759 B( 16-S , 17-C ) :   1.1777 B( 16-S , 20-C ) :   1.1524
B( 17-C , 18-C ) :   1.5832 B( 17-C , 33-H ) :   0.9632 B( 18-C , 19-C ) :   1.2608
B( 18-C , 21-H ) :   0.9926 B( 19-C , 20-C ) :   1.6000 B( 19-C , 22-C ) :   1.0177
B( 22-C , 23-H ) :   0.9317 B( 22-C , 24-H ) :   0.9473 B( 22-C , 25-C ) :   1.0495
B( 25-C , 26-H ) :   0.9643 B( 25-C , 27-H ) :   0.9558 B( 25-C , 28-C ) :   1.0723
B( 28-C , 29-H ) :   0.9778 B( 28-C , 30-H ) :   0.9752 B( 28-C , 31-H ) :   0.9736

Dispersion correction           -0.014224442
FINAL SINGLE POINT ENERGY     -1339.874117389081

DIPOLE MOMENT
-------------
                                X             Y             Z
Electronic contribution:      9.58903     -24.30903      -7.76531
Nuclear contribution   :     -9.88544      24.60191       8.01785
                        -----------------------------------------
Total Dipole Moment    :     -0.29640       0.29288       0.25254
                        -----------------------------------------
Magnitude (a.u.)       :      0.48725
Magnitude (Debye)      :      1.23849

Rotational constants in cm-1:     0.019195     0.008289     0.006750
Rotational constants in MHz :   575.446586   248.488592   202.349548

                             ****ORCA TERMINATED NORMALLY****
TOTAL RUN TIME: 0 days 0 hours 0 minutes 20 seconds 399 msec
