                         Program Version 4.2.1 -  RELEASE  -
|  1> ! wB97X-D3 SP def2-SVP
|  2> %pal
|  3> nprocs 24
|  4> end
|  5>
|  6> * xyz 0 1
|  7> S 	 -37.3079 	 -8.90766 	 18.4827
|  8> C 	 -36.0885 	 -10.2166 	 18.6706
|  9> C 	 -36.7256 	 -11.3884 	 18.8485
| 10> C 	 -38.1648 	 -11.2989 	 18.8794
| 11> C 	 -38.6067 	 -9.99909 	 18.6381
| 12> H 	 -38.7393 	 -12.1886 	 18.9917
| 13> C 	 -35.9057 	 -12.7305 	 18.8446
| 14> H 	 -34.8886 	 -12.4937 	 18.5386
| 15> H 	 -36.1696 	 -13.3236 	 17.9537
| 16> C 	 -36.0046 	 -13.4725 	 20.2353
| 17> H 	 -35.9309 	 -12.7881 	 21.082
| 18> H 	 -37.01 	 -13.9103 	 20.2859
| 19> C 	 -35.1859 	 -14.674 	 20.4062
| 20> H 	 -35.5332 	 -15.1836 	 21.3045
| 21> H 	 -35.2338 	 -15.3795 	 19.5814
| 22> H 	 -34.1103 	 -14.602 	 20.5867
| 23> S 	 -40.536 	 -8.60667 	 20.2049
| 24> C 	 -42.0355 	 -8.45025 	 19.5355
| 25> C 	 -42.2836 	 -9.50386 	 18.6817
| 26> C 	 -41.0883 	 -10.118 	 18.2024
| 27> C 	 -39.994 	 -9.58804 	 18.8597
| 28> H 	 -43.3137 	 -9.70075 	 18.29
| 29> C 	 -41.1044 	 -11.0964 	 16.9843
| 30> H 	 -41.8863 	 -11.8625 	 16.9224
| 31> H 	 -40.3382 	 -11.8874 	 17.147
| 32> C 	 -41.0588 	 -10.5556 	 15.5738
| 33> H 	 -40.6151 	 -9.51338 	 15.5584
| 34> H 	 -42.1068 	 -10.3551 	 15.2531
| 35> C 	 -40.4099 	 -11.5542 	 14.5633
| 36> H 	 -40.9262 	 -12.44 	 14.2801
| 37> H 	 -39.4667 	 -11.7667 	 14.9893
| 38> H 	 -40.246 	 -11.1905 	 13.5813
| 39> H 	 -35.0009 	 -10.0569 	 18.5546
| 40> H 	 -42.8286 	 -7.85683 	 20.041
| 41> *
| 42>
| 43>                          ****END OF INPUT****

CARTESIAN COORDINATES (ANGSTROEM)
---------------------------------
  S    -37.307900   -8.907660   18.482700
  C    -36.088500  -10.216600   18.670600
  C    -36.725600  -11.388400   18.848500
  C    -38.164800  -11.298900   18.879400
  C    -38.606700   -9.999090   18.638100
  H    -38.739300  -12.188600   18.991700
  C    -35.905700  -12.730500   18.844600
  H    -34.888600  -12.493700   18.538600
  H    -36.169600  -13.323600   17.953700
  C    -36.004600  -13.472500   20.235300
  H    -35.930900  -12.788100   21.082000
  H    -37.010000  -13.910300   20.285900
  C    -35.185900  -14.674000   20.406200
  H    -35.533200  -15.183600   21.304500
  H    -35.233800  -15.379500   19.581400
  H    -34.110300  -14.602000   20.586700
  S    -40.536000   -8.606670   20.204900
  C    -42.035500   -8.450250   19.535500
  C    -42.283600   -9.503860   18.681700
  C    -41.088300  -10.118000   18.202400
  C    -39.994000   -9.588040   18.859700
  H    -43.313700   -9.700750   18.290000
  C    -41.104400  -11.096400   16.984300
  H    -41.886300  -11.862500   16.922400
  H    -40.338200  -11.887400   17.147000
  C    -41.058800  -10.555600   15.573800
  H    -40.615100   -9.513380   15.558400
  H    -42.106800  -10.355100   15.253100
  C    -40.409900  -11.554200   14.563300
  H    -40.926200  -12.440000   14.280100
  H    -39.466700  -11.766700   14.989300
  H    -40.246000  -11.190500   13.581300
  H    -35.000900  -10.056900   18.554600
  H    -42.828600   -7.856830   20.041000

 Total Charge           Charge          ....    0
 Multiplicity           Mult            ....    1
 Number of Electrons    NEL             ....  134
 Basis Dimension        Dim             ....  322

ORBITAL ENERGIES
----------------

  NO   OCC          E(Eh)            E(eV)
   0   2.0000     -88.963881     -2420.8303
   1   2.0000     -88.963669     -2420.8245
   2   2.0000     -10.327824      -281.0344
   3   2.0000     -10.323211      -280.9089
   4   2.0000     -10.315564      -280.7008
   5   2.0000     -10.309411      -280.5333
   6   2.0000     -10.304507      -280.3999
   7   2.0000     -10.299884      -280.2741
   8   2.0000     -10.299387      -280.2606
   9   2.0000     -10.293948      -280.1126
  10   2.0000     -10.293178      -280.0916
  11   2.0000     -10.292173      -280.0643
  12   2.0000     -10.290450      -280.0174
  13   2.0000     -10.288995      -279.9778
  14   2.0000     -10.273615      -279.5593
  15   2.0000     -10.269229      -279.4399
  16   2.0000      -8.080596      -219.8842
  17   2.0000      -8.078876      -219.8374
  18   2.0000      -6.038847      -164.3254
  19   2.0000      -6.037427      -164.2867
  20   2.0000      -6.035086      -164.2231
  21   2.0000      -6.033237      -164.1727
  22   2.0000      -6.031169      -164.1165
  23   2.0000      -6.029678      -164.0759
  24   2.0000      -1.014686       -27.6110
  25   2.0000      -0.990208       -26.9449
  26   2.0000      -0.909432       -24.7469
  27   2.0000      -0.904680       -24.6176
  28   2.0000      -0.873216       -23.7614
  29   2.0000      -0.852571       -23.1996
  30   2.0000      -0.842213       -22.9178
  31   2.0000      -0.809509       -22.0279
  32   2.0000      -0.787367       -21.4253
  33   2.0000      -0.775704       -21.1080
  34   2.0000      -0.706728       -19.2310
  35   2.0000      -0.698419       -19.0050
  36   2.0000      -0.691336       -18.8122
  37   2.0000      -0.652628       -17.7589
  38   2.0000      -0.636830       -17.3290
  39   2.0000      -0.621438       -16.9102
  40   2.0000      -0.602627       -16.3983
  41   2.0000      -0.567855       -15.4521
  42   2.0000      -0.556916       -15.1545
  43   2.0000      -0.554375       -15.0853
  44   2.0000      -0.533116       -14.5068
  45   2.0000      -0.519892       -14.1470
  46   2.0000      -0.515371       -14.0239
  47   2.0000      -0.512599       -13.9485
  48   2.0000      -0.504475       -13.7275
  49   2.0000      -0.498834       -13.5740
  50   2.0000      -0.491972       -13.3872
  51   2.0000      -0.479364       -13.0442
  52   2.0000      -0.470361       -12.7992
  53   2.0000      -0.467823       -12.7301
  54   2.0000      -0.455713       -12.4006
  55   2.0000      -0.448921       -12.2158
  56   2.0000      -0.443470       -12.0674
  57   2.0000      -0.438499       -11.9322
  58   2.0000      -0.437777       -11.9125
  59   2.0000      -0.428263       -11.6536
  60   2.0000      -0.418137       -11.3781
  61   2.0000      -0.405097       -11.0233
  62   2.0000      -0.392027       -10.6676
  63   2.0000      -0.340251        -9.2587
  64   2.0000      -0.333095        -9.0640
  65   2.0000      -0.326208        -8.8766
  66   2.0000      -0.298408        -8.1201
  67   0.0000       0.030209         0.8220
  68   0.0000       0.070849         1.9279
  69   0.0000       0.109230         2.9723
  70   0.0000       0.118176         3.2157
  71   0.0000       0.137345         3.7373

MULLIKEN ATOMIC CHARGES
-----------------------
   0 S :    0.101683
   1 C :   -0.153491
   2 C :   -0.080708
   3 C :    0.056283
   4 C :   -0.162895
   5 H :    0.009121
   6 C :    0.054884
   7 H :    0.006219
   8 H :    0.034814
   9 C :   -0.062397
  10 H :    0.040570
  11 H :    0.028420
  12 C :   -0.037462
  13 H :    0.026106
  14 H :    0.021584
  15 H :    0.023725
  16 S :    0.138697
  17 C :   -0.105790
  18 C :   -0.051366
  19 C :   -0.010805
  20 C :   -0.152134
  21 H :    0.032670
  22 C :    0.047465
  23 H :    0.014327
  24 H :    0.003649
  25 C :   -0.072659
  26 H :    0.044686
  27 H :    0.026329
  28 C :   -0.025491
  29 H :    0.022298
  30 H :    0.029591
  31 H :    0.016086
  32 H :    0.064064
  33 H :    0.071926
Sum of atomic charges:   -0.0000000

LOEWDIN ATOMIC CHARGES
----------------------
   0 S :    0.405194
   1 C :   -0.186179
   2 C :   -0.064834
   3 C :   -0.054068
   4 C :   -0.206835
   5 H :    0.025967
   6 C :   -0.029608
   7 H :    0.023443
   8 H :    0.033325
   9 C :   -0.043647
  10 H :    0.030148
  11 H :    0.030343
  12 C :   -0.072024
  13 H :    0.029736
  14 H :    0.024166
  15 H :    0.020843
  16 S :    0.446830
  17 C :   -0.223624
  18 C :   -0.077577
  19 C :   -0.053493
  20 C :   -0.202179
  21 H :    0.035627
  22 C :   -0.047846
  23 H :    0.034750
  24 H :    0.028305
  25 C :   -0.042787
  26 H :    0.032403
  27 H :    0.022700
  28 C :   -0.062204
  29 H :    0.023142
  30 H :    0.022848
  31 H :    0.024382
  32 H :    0.036507
  33 H :    0.036246

  Mayer bond orders larger than 0.100000
B(  0-S ,  1-C ) :   1.1196 B(  0-S ,  4-C ) :   1.1683 B(  1-C ,  2-C ) :   1.6343
B(  1-C , 32-H ) :   0.9663 B(  2-C ,  3-C ) :   1.2493 B(  2-C ,  6-C ) :   1.0114
B(  3-C ,  4-C ) :   1.5479 B(  3-C ,  5-H ) :   0.9946 B(  4-C , 20-C ) :   1.0337
B(  6-C ,  7-H ) :   0.9494 B(  6-C ,  8-H ) :   0.9429 B(  6-C ,  9-C ) :   1.0402
B(  9-C , 10-H ) :   0.9603 B(  9-C , 11-H ) :   0.9529 B(  9-C , 12-C ) :   1.0966
B( 12-C , 13-H ) :   0.9706 B( 12-C , 14-H ) :   0.9688 B( 12-C , 15-H ) :   0.9718
B( 16-S , 17-C ) :   1.1819 B( 16-S , 20-C ) :   1.1651 B( 17-C , 18-C ) :   1.5771
B( 17-C , 33-H ) :   0.9617 B( 18-C , 19-C ) :   1.2669 B( 18-C , 21-H ) :   0.9869
B( 19-C , 20-C ) :   1.5764 B( 19-C , 22-C ) :   1.0337 B( 22-C , 23-H ) :   0.9354
B( 22-C , 24-H ) :   0.9364 B( 22-C , 25-C ) :   1.0466 B( 25-C , 26-H ) :   0.9621
B( 25-C , 27-H ) :   0.9566 B( 25-C , 28-C ) :   1.0681 B( 28-C , 29-H ) :   0.9757
B( 28-C , 30-H ) :   0.9784 B( 28-C , 31-H ) :   0.9712

Dispersion correction           -0.013861200
FINAL SINGLE POINT ENERGY     -1339.845175263355

DIPOLE MOMENT
-------------
                                X             Y             Z
Electronic contribution:     -5.25011      24.68055      10.61212
Nuclear contribution   :      5.23839     -25.37545     -10.76379
                        -----------------------------------------
Total Dipole Moment    :     -0.01172      -0.69490      -0.15168
                        -----------------------------------------
Magnitude (a.u.)       :      0.71136
Magnitude (Debye)      :      1.80812

Rotational constants in cm-1:     0.017324     0.008100     0.006911
Rotational constants in MHz :   519.366194   242.823623   207.181326

                             ****ORCA TERMINATED NORMALLY****
TOTAL RUN TIME: 0 days 0 hours 0 minutes 20 seconds 947 msec
