                         Program Version 4.2.1 -  RELEASE  -
|  1> ! wB97X-D3 SP def2-SVP
|  2> %pal
|  3> nprocs 24
|  4> end
|  5>
|  6> * xyz 0 1
|  7> S 	 -117.253 	 33.845 	 -117.09
|  8> C 	 -115.777 	 32.9219 	 -116.866
|  9> C 	 -114.815 	 33.7054 	 -116.328
| 10> C 	 -115.235 	 35.0436 	 -116.036
| 11> C 	 -116.592 	 35.3013 	 -116.291
| 12> H 	 -114.646 	 35.8025 	 -115.611
| 13> C 	 -113.408 	 33.2335 	 -116.029
| 14> H 	 -113.375 	 32.1838 	 -115.936
| 15> H 	 -113.129 	 33.6042 	 -115.048
| 16> C 	 -112.482 	 33.6113 	 -117.195
| 17> H 	 -112.851 	 33.3051 	 -118.134
| 18> H 	 -112.534 	 34.7151 	 -117.292
| 19> C 	 -111.031 	 33.2666 	 -117.104
| 20> H 	 -110.875 	 32.2908 	 -116.633
| 21> H 	 -110.49 	 33.3688 	 -118.058
| 22> H 	 -110.613 	 34.0169 	 -116.44
| 23> S 	 -118.343 	 37.0101 	 -117.625
| 24> C 	 -118.825 	 38.5232 	 -116.896
| 25> C 	 -118.3 	 38.62 	 -115.651
| 26> C 	 -117.45 	 37.5489 	 -115.199
| 27> C 	 -117.367 	 36.5948 	 -116.196
| 28> H 	 -118.601 	 39.5269 	 -115.264
| 29> C 	 -116.809 	 37.6035 	 -113.807
| 30> H 	 -116.006 	 38.3055 	 -113.795
| 31> H 	 -116.313 	 36.6171 	 -113.72
| 32> C 	 -117.725 	 37.7493 	 -112.675
| 33> H 	 -118.311 	 36.7955 	 -112.447
| 34> H 	 -118.45 	 38.5037 	 -112.876
| 35> C 	 -116.928 	 38.091 	 -111.356
| 36> H 	 -117.595 	 38.1232 	 -110.474
| 37> H 	 -116.45 	 39.0824 	 -111.446
| 38> H 	 -116.075 	 37.4003 	 -111.224
| 39> H 	 -115.622 	 31.9043 	 -117.064
| 40> H 	 -119.409 	 39.2997 	 -117.35
| 41> *
| 42>
| 43>                          ****END OF INPUT****

CARTESIAN COORDINATES (ANGSTROEM)
---------------------------------
  S    -117.253000   33.845000  -117.090000
  C    -115.777000   32.921900  -116.866000
  C    -114.815000   33.705400  -116.328000
  C    -115.235000   35.043600  -116.036000
  C    -116.592000   35.301300  -116.291000
  H    -114.646000   35.802500  -115.611000
  C    -113.408000   33.233500  -116.029000
  H    -113.375000   32.183800  -115.936000
  H    -113.129000   33.604200  -115.048000
  C    -112.482000   33.611300  -117.195000
  H    -112.851000   33.305100  -118.134000
  H    -112.534000   34.715100  -117.292000
  C    -111.031000   33.266600  -117.104000
  H    -110.875000   32.290800  -116.633000
  H    -110.490000   33.368800  -118.058000
  H    -110.613000   34.016900  -116.440000
  S    -118.343000   37.010100  -117.625000
  C    -118.825000   38.523200  -116.896000
  C    -118.300000   38.620000  -115.651000
  C    -117.450000   37.548900  -115.199000
  C    -117.367000   36.594800  -116.196000
  H    -118.601000   39.526900  -115.264000
  C    -116.809000   37.603500  -113.807000
  H    -116.006000   38.305500  -113.795000
  H    -116.313000   36.617100  -113.720000
  C    -117.725000   37.749300  -112.675000
  H    -118.311000   36.795500  -112.447000
  H    -118.450000   38.503700  -112.876000
  C    -116.928000   38.091000  -111.356000
  H    -117.595000   38.123200  -110.474000
  H    -116.450000   39.082400  -111.446000
  H    -116.075000   37.400300  -111.224000
  H    -115.622000   31.904300  -117.064000
  H    -119.409000   39.299700  -117.350000

 Total Charge           Charge          ....    0
 Multiplicity           Mult            ....    1
 Number of Electrons    NEL             ....  134
 Basis Dimension        Dim             ....  322

ORBITAL ENERGIES
----------------

  NO   OCC          E(Eh)            E(eV)
   0   2.0000     -88.964346     -2420.8429
   1   2.0000     -88.963862     -2420.8298
   2   2.0000     -10.340015      -281.3661
   3   2.0000     -10.337785      -281.3054
   4   2.0000     -10.312773      -280.6248
   5   2.0000     -10.310258      -280.5564
   6   2.0000     -10.309044      -280.5233
   7   2.0000     -10.297635      -280.2129
   8   2.0000     -10.294550      -280.1289
   9   2.0000     -10.291180      -280.0372
  10   2.0000     -10.289294      -279.9859
  11   2.0000     -10.288263      -279.9579
  12   2.0000     -10.286123      -279.8996
  13   2.0000     -10.285413      -279.8803
  14   2.0000     -10.279041      -279.7069
  15   2.0000     -10.275453      -279.6093
  16   2.0000      -8.078399      -219.8244
  17   2.0000      -8.078321      -219.8223
  18   2.0000      -6.037018      -164.2756
  19   2.0000      -6.036966      -164.2742
  20   2.0000      -6.032972      -164.1655
  21   2.0000      -6.032882      -164.1631
  22   2.0000      -6.029041      -164.0585
  23   2.0000      -6.028975      -164.0568
  24   2.0000      -1.002404       -27.2768
  25   2.0000      -0.984660       -26.7940
  26   2.0000      -0.916396       -24.9364
  27   2.0000      -0.914041       -24.8723
  28   2.0000      -0.870508       -23.6877
  29   2.0000      -0.849707       -23.1217
  30   2.0000      -0.843107       -22.9421
  31   2.0000      -0.821687       -22.3592
  32   2.0000      -0.782839       -21.3021
  33   2.0000      -0.775248       -21.0956
  34   2.0000      -0.708032       -19.2665
  35   2.0000      -0.700045       -19.0492
  36   2.0000      -0.697911       -18.9911
  37   2.0000      -0.658312       -17.9136
  38   2.0000      -0.644808       -17.5461
  39   2.0000      -0.624873       -17.0036
  40   2.0000      -0.600378       -16.3371
  41   2.0000      -0.572305       -15.5732
  42   2.0000      -0.566773       -15.4227
  43   2.0000      -0.561174       -15.2703
  44   2.0000      -0.531942       -14.4749
  45   2.0000      -0.529646       -14.4124
  46   2.0000      -0.518931       -14.1208
  47   2.0000      -0.513033       -13.9603
  48   2.0000      -0.510068       -13.8797
  49   2.0000      -0.504898       -13.7390
  50   2.0000      -0.498565       -13.5666
  51   2.0000      -0.475896       -12.9498
  52   2.0000      -0.469373       -12.7723
  53   2.0000      -0.462852       -12.5948
  54   2.0000      -0.461776       -12.5656
  55   2.0000      -0.451948       -12.2981
  56   2.0000      -0.445078       -12.1112
  57   2.0000      -0.437297       -11.8995
  58   2.0000      -0.435818       -11.8592
  59   2.0000      -0.420470       -11.4416
  60   2.0000      -0.416373       -11.3301
  61   2.0000      -0.414260       -11.2726
  62   2.0000      -0.407252       -11.0819
  63   2.0000      -0.354061        -9.6345
  64   2.0000      -0.332154        -9.0384
  65   2.0000      -0.328826        -8.9478
  66   2.0000      -0.295338        -8.0366
  67   0.0000       0.029857         0.8125
  68   0.0000       0.073260         1.9935
  69   0.0000       0.110779         3.0144
  70   0.0000       0.124929         3.3995
  71   0.0000       0.140448         3.8218

MULLIKEN ATOMIC CHARGES
-----------------------
   0 S :    0.090827
   1 C :   -0.086941
   2 C :   -0.111745
   3 C :    0.054069
   4 C :   -0.144798
   5 H :   -0.007028
   6 C :    0.113072
   7 H :   -0.000271
   8 H :    0.021946
   9 C :   -0.081228
  10 H :    0.011718
  11 H :    0.017632
  12 C :   -0.017610
  13 H :    0.028031
  14 H :    0.041858
  15 H :    0.021595
  16 S :    0.095701
  17 C :   -0.096109
  18 C :   -0.021553
  19 C :   -0.010227
  20 C :   -0.157613
  21 H :   -0.015231
  22 C :    0.102829
  23 H :    0.027822
  24 H :    0.019734
  25 C :   -0.088697
  26 H :    0.047474
  27 H :    0.026893
  28 C :   -0.069527
  29 H :    0.045531
  30 H :    0.029225
  31 H :    0.034083
  32 H :    0.026429
  33 H :    0.052110
Sum of atomic charges:   -0.0000000

LOEWDIN ATOMIC CHARGES
----------------------
   0 S :    0.383567
   1 C :   -0.183703
   2 C :   -0.061837
   3 C :   -0.059133
   4 C :   -0.175851
   5 H :    0.021174
   6 C :   -0.020922
   7 H :    0.020388
   8 H :    0.029184
   9 C :   -0.043743
  10 H :    0.017247
  11 H :    0.025755
  12 C :   -0.066809
  13 H :    0.023130
  14 H :    0.032360
  15 H :    0.024834
  16 S :    0.387140
  17 C :   -0.178164
  18 C :   -0.068890
  19 C :   -0.052062
  20 C :   -0.180757
  21 H :    0.019285
  22 C :   -0.033244
  23 H :    0.028346
  24 H :    0.035782
  25 C :   -0.041609
  26 H :    0.036961
  27 H :    0.016961
  28 C :   -0.067372
  29 H :    0.028988
  30 H :    0.023834
  31 H :    0.026143
  32 H :    0.022735
  33 H :    0.030280

  Mayer bond orders larger than 0.100000
B(  0-S ,  1-C ) :   1.1243 B(  0-S ,  4-C ) :   1.1477 B(  1-C ,  2-C ) :   1.6335
B(  1-C , 32-H ) :   0.9721 B(  2-C ,  3-C ) :   1.2340 B(  2-C ,  6-C ) :   1.0302
B(  3-C ,  4-C ) :   1.5698 B(  3-C ,  5-H ) :   0.9998 B(  4-C , 20-C ) :   1.0209
B(  6-C ,  7-H ) :   0.9334 B(  6-C ,  8-H ) :   0.9409 B(  6-C ,  9-C ) :   1.0537
B(  9-C , 10-H ) :   0.9557 B(  9-C , 11-H ) :   0.9578 B(  9-C , 12-C ) :   1.0845
B( 12-C , 13-H ) :   0.9728 B( 12-C , 14-H ) :   0.9721 B( 12-C , 15-H ) :   0.9752
B( 16-S , 17-C ) :   1.1275 B( 16-S , 20-C ) :   1.1430 B( 17-C , 18-C ) :   1.6703
B( 17-C , 33-H ) :   0.9674 B( 18-C , 19-C ) :   1.1715 B( 18-C , 21-H ) :   0.9986
B( 19-C , 20-C ) :   1.6326 B( 19-C , 22-C ) :   1.0273 B( 22-C , 23-H ) :   0.9396
B( 22-C , 24-H ) :   0.9170 B( 22-C , 25-C ) :   1.0723 B( 25-C , 26-H ) :   0.9508
B( 25-C , 27-H ) :   0.9601 B( 25-C , 28-C ) :   1.0734 B( 28-C , 29-H ) :   0.9757
B( 28-C , 30-H ) :   0.9759 B( 28-C , 31-H ) :   0.9747

Dispersion correction           -0.013156448
FINAL SINGLE POINT ENERGY     -1339.874543173479

DIPOLE MOMENT
-------------
                                X             Y             Z
Electronic contribution:    -20.85552      -1.23877     -17.06741
Nuclear contribution   :     21.33523       1.51869      17.48753
                        -----------------------------------------
Total Dipole Moment    :      0.47971       0.27992       0.42013
                        -----------------------------------------
Magnitude (a.u.)       :      0.69641
Magnitude (Debye)      :      1.77013

Rotational constants in cm-1:     0.017715     0.007557     0.006094
Rotational constants in MHz :   531.078214   226.565530   182.706370

                             ****ORCA TERMINATED NORMALLY****
TOTAL RUN TIME: 0 days 0 hours 0 minutes 20 seconds 685 msec
