                         Program Version 4.2.1 -  RELEASE  -
|  1> ! wB97X-D3 SP def2-SVP
|  2> %pal
|  3> nprocs 24
|  4> end
|  5>
|  6> * xyz 0 1
|  7> S 	 -105.521 	 53.9117 	 -13.3139
|  8> C 	 -104.806 	 55.0727 	 -14.4472
|  9> C 	 -104.378 	 54.3982 	 -15.6094
| 10> C 	 -104.26 	 52.9769 	 -15.3375
| 11> C 	 -104.74 	 52.556 	 -14.1084
| 12> H 	 -103.862 	 52.2381 	 -15.9593
| 13> C 	 -103.985 	 55.0411 	 -16.914
| 14> H 	 -104.287 	 56.0788 	 -16.7923
| 15> H 	 -104.521 	 54.5403 	 -17.7054
| 16> C 	 -102.532 	 54.9965 	 -17.2259
| 17> H 	 -101.948 	 55.2564 	 -16.3869
| 18> H 	 -102.185 	 53.9941 	 -17.5025
| 19> C 	 -102.128 	 55.8053 	 -18.3992
| 20> H 	 -101.005 	 55.8077 	 -18.4232
| 21> H 	 -102.551 	 55.3351 	 -19.2811
| 22> H 	 -102.426 	 56.8635 	 -18.3343
| 23> S 	 -106.388 	 50.4058 	 -13.9369
| 24> C 	 -105.625 	 48.965 	 -13.3164
| 25> C 	 -104.418 	 49.182 	 -12.6903
| 26> C 	 -103.933 	 50.4907 	 -12.879
| 27> C 	 -104.839 	 51.2017 	 -13.6357
| 28> H 	 -103.919 	 48.4336 	 -12.1578
| 29> C 	 -102.606 	 50.9017 	 -12.2725
| 30> H 	 -102.34 	 51.9662 	 -12.6377
| 31> H 	 -101.858 	 50.1713 	 -12.5936
| 32> C 	 -102.552 	 50.782 	 -10.701
| 33> H 	 -101.638 	 51.1496 	 -10.2614
| 34> H 	 -102.58 	 49.7094 	 -10.4063
| 35> C 	 -103.719 	 51.5417 	 -9.9849
| 36> H 	 -103.594 	 51.3623 	 -8.89227
| 37> H 	 -104.681 	 51.1541 	 -10.2084
| 38> H 	 -103.888 	 52.6185 	 -10.1913
| 39> H 	 -104.969 	 56.1686 	 -14.4111
| 40> H 	 -106.133 	 48.0212 	 -13.1786
| 41> *
| 42>
| 43>                          ****END OF INPUT****

CARTESIAN COORDINATES (ANGSTROEM)
---------------------------------
  S    -105.521000   53.911700  -13.313900
  C    -104.806000   55.072700  -14.447200
  C    -104.378000   54.398200  -15.609400
  C    -104.260000   52.976900  -15.337500
  C    -104.740000   52.556000  -14.108400
  H    -103.862000   52.238100  -15.959300
  C    -103.985000   55.041100  -16.914000
  H    -104.287000   56.078800  -16.792300
  H    -104.521000   54.540300  -17.705400
  C    -102.532000   54.996500  -17.225900
  H    -101.948000   55.256400  -16.386900
  H    -102.185000   53.994100  -17.502500
  C    -102.128000   55.805300  -18.399200
  H    -101.005000   55.807700  -18.423200
  H    -102.551000   55.335100  -19.281100
  H    -102.426000   56.863500  -18.334300
  S    -106.388000   50.405800  -13.936900
  C    -105.625000   48.965000  -13.316400
  C    -104.418000   49.182000  -12.690300
  C    -103.933000   50.490700  -12.879000
  C    -104.839000   51.201700  -13.635700
  H    -103.919000   48.433600  -12.157800
  C    -102.606000   50.901700  -12.272500
  H    -102.340000   51.966200  -12.637700
  H    -101.858000   50.171300  -12.593600
  C    -102.552000   50.782000  -10.701000
  H    -101.638000   51.149600  -10.261400
  H    -102.580000   49.709400  -10.406300
  C    -103.719000   51.541700   -9.984900
  H    -103.594000   51.362300   -8.892270
  H    -104.681000   51.154100  -10.208400
  H    -103.888000   52.618500  -10.191300
  H    -104.969000   56.168600  -14.411100
  H    -106.133000   48.021200  -13.178600

 Total Charge           Charge          ....    0
 Multiplicity           Mult            ....    1
 Number of Electrons    NEL             ....  134
 Basis Dimension        Dim             ....  322

ORBITAL ENERGIES
----------------

  NO   OCC          E(Eh)            E(eV)
   0   2.0000     -88.969039     -2420.9706
   1   2.0000     -88.961552     -2420.7669
   2   2.0000     -10.322092      -280.8784
   3   2.0000     -10.321730      -280.8686
   4   2.0000     -10.318233      -280.7734
   5   2.0000     -10.314448      -280.6704
   6   2.0000     -10.304436      -280.3980
   7   2.0000     -10.301982      -280.3312
   8   2.0000     -10.301604      -280.3209
   9   2.0000     -10.294666      -280.1321
  10   2.0000     -10.288310      -279.9592
  11   2.0000     -10.288037      -279.9517
  12   2.0000     -10.285938      -279.8946
  13   2.0000     -10.277548      -279.6663
  14   2.0000     -10.274014      -279.5701
  15   2.0000     -10.272717      -279.5348
  16   2.0000      -8.083740      -219.9697
  17   2.0000      -8.075832      -219.7546
  18   2.0000      -6.042093      -164.4137
  19   2.0000      -6.038655      -164.3201
  20   2.0000      -6.034430      -164.2052
  21   2.0000      -6.034267      -164.2007
  22   2.0000      -6.030507      -164.0984
  23   2.0000      -6.026433      -163.9876
  24   2.0000      -1.006202       -27.3802
  25   2.0000      -0.980005       -26.6673
  26   2.0000      -0.922963       -25.1151
  27   2.0000      -0.902186       -24.5497
  28   2.0000      -0.870348       -23.6834
  29   2.0000      -0.847727       -23.0678
  30   2.0000      -0.845228       -22.9998
  31   2.0000      -0.811141       -22.0723
  32   2.0000      -0.783241       -21.3131
  33   2.0000      -0.769301       -20.9337
  34   2.0000      -0.706779       -19.2324
  35   2.0000      -0.695402       -18.9229
  36   2.0000      -0.689339       -18.7579
  37   2.0000      -0.664139       -18.0721
  38   2.0000      -0.642717       -17.4892
  39   2.0000      -0.614138       -16.7115
  40   2.0000      -0.591275       -16.0894
  41   2.0000      -0.584241       -15.8980
  42   2.0000      -0.558986       -15.2108
  43   2.0000      -0.545418       -14.8416
  44   2.0000      -0.540457       -14.7066
  45   2.0000      -0.526182       -14.3181
  46   2.0000      -0.513000       -13.9594
  47   2.0000      -0.510614       -13.8945
  48   2.0000      -0.502369       -13.6702
  49   2.0000      -0.500429       -13.6174
  50   2.0000      -0.491326       -13.3697
  51   2.0000      -0.472536       -12.8584
  52   2.0000      -0.466011       -12.6808
  53   2.0000      -0.460473       -12.5301
  54   2.0000      -0.459310       -12.4985
  55   2.0000      -0.451210       -12.2780
  56   2.0000      -0.440335       -11.9821
  57   2.0000      -0.437223       -11.8974
  58   2.0000      -0.432771       -11.7763
  59   2.0000      -0.423735       -11.5304
  60   2.0000      -0.420385       -11.4393
  61   2.0000      -0.418320       -11.3831
  62   2.0000      -0.415492       -11.3061
  63   2.0000      -0.336900        -9.1675
  64   2.0000      -0.323746        -8.8096
  65   2.0000      -0.319625        -8.6974
  66   2.0000      -0.304078        -8.2744
  67   0.0000       0.045196         1.2299
  68   0.0000       0.046228         1.2579
  69   0.0000       0.106081         2.8866
  70   0.0000       0.107142         2.9155
  71   0.0000       0.129680         3.5288

MULLIKEN ATOMIC CHARGES
-----------------------
   0 S :    0.098393
   1 C :   -0.132054
   2 C :   -0.108698
   3 C :    0.064679
   4 C :   -0.174937
   5 H :   -0.013324
   6 C :    0.117418
   7 H :    0.008801
   8 H :    0.029741
   9 C :   -0.071287
  10 H :    0.015393
  11 H :    0.020718
  12 C :   -0.045993
  13 H :    0.038915
  14 H :    0.028580
  15 H :    0.027683
  16 S :    0.128493
  17 C :   -0.073454
  18 C :   -0.026129
  19 C :    0.010561
  20 C :   -0.222861
  21 H :   -0.006633
  22 C :    0.074022
  23 H :    0.054339
  24 H :    0.035467
  25 C :   -0.087641
  26 H :    0.034469
  27 H :    0.031597
  28 C :   -0.067696
  29 H :    0.034112
  30 H :    0.024639
  31 H :    0.042223
  32 H :    0.062013
  33 H :    0.048451
Sum of atomic charges:   -0.0000000

LOEWDIN ATOMIC CHARGES
----------------------
   0 S :    0.385241
   1 C :   -0.201166
   2 C :   -0.054698
   3 C :   -0.053167
   4 C :   -0.200039
   5 H :    0.020443
   6 C :   -0.028386
   7 H :    0.030118
   8 H :    0.034762
   9 C :   -0.047297
  10 H :    0.018091
  11 H :    0.025860
  12 C :   -0.062011
  13 H :    0.033762
  14 H :    0.023398
  15 H :    0.021446
  16 S :    0.405007
  17 C :   -0.179894
  18 C :   -0.061233
  19 C :   -0.047989
  20 C :   -0.200955
  21 H :    0.021328
  22 C :   -0.031923
  23 H :    0.042813
  24 H :    0.034298
  25 C :   -0.037682
  26 H :    0.024408
  27 H :    0.025635
  28 C :   -0.076083
  29 H :    0.029546
  30 H :    0.018399
  31 H :    0.030169
  32 H :    0.032843
  33 H :    0.024956

  Mayer bond orders larger than 0.100000
B(  0-S ,  1-C ) :   1.1356 B(  0-S ,  4-C ) :   1.1357 B(  1-C ,  2-C ) :   1.6097
B(  1-C , 32-H ) :   0.9615 B(  2-C ,  3-C ) :   1.2060 B(  2-C ,  6-C ) :   1.0441
B(  3-C ,  4-C ) :   1.6076 B(  3-C ,  5-H ) :   1.0023 B(  4-C , 20-C ) :   1.0324
B(  6-C ,  7-H ) :   0.9330 B(  6-C ,  8-H ) :   0.9259 B(  6-C ,  9-C ) :   1.0816
B(  9-C , 10-H ) :   0.9528 B(  9-C , 11-H ) :   0.9448 B(  9-C , 12-C ) :   1.0985
B( 12-C , 13-H ) :   0.9727 B( 12-C , 14-H ) :   0.9729 B( 12-C , 15-H ) :   0.9733
B( 16-S , 17-C ) :   1.1425 B( 16-S , 20-C ) :   1.1462 B( 17-C , 18-C ) :   1.6336
B( 17-C , 33-H ) :   0.9639 B( 18-C , 19-C ) :   1.2182 B( 18-C , 21-H ) :   0.9971
B( 19-C , 20-C ) :   1.6159 B( 19-C , 22-C ) :   1.0419 B( 22-C , 23-H ) :   0.9358
B( 22-C , 24-H ) :   0.9354 B( 22-C , 25-C ) :   1.0617 B( 25-C , 26-H ) :   0.9614
B( 25-C , 27-H ) :   0.9536 B( 25-C , 28-C ) :   1.0671 B( 28-C , 29-H ) :   0.9751
B( 28-C , 30-H ) :   0.9722 B( 28-C , 31-H ) :   0.9768

Dispersion correction           -0.014546743
FINAL SINGLE POINT ENERGY     -1339.869743043198

DIPOLE MOMENT
-------------
                                X             Y             Z
Electronic contribution:    -18.76537      -7.60292       3.16828
Nuclear contribution   :     19.19255       7.47730      -3.30070
                        -----------------------------------------
Total Dipole Moment    :      0.42718      -0.12562      -0.13241
                        -----------------------------------------
Magnitude (a.u.)       :      0.46454
Magnitude (Debye)      :      1.18076

Rotational constants in cm-1:     0.021533     0.007371     0.006946
Rotational constants in MHz :   645.551430   220.985733   208.248657

                             ****ORCA TERMINATED NORMALLY****
TOTAL RUN TIME: 0 days 0 hours 0 minutes 20 seconds 216 msec
