                         Program Version 4.2.1 -  RELEASE  -
|  1> ! wB97X-D3 SP def2-SVP
|  2> %pal
|  3> nprocs 24
|  4> end
|  5>
|  6> * xyz 0 1
|  7> S 	 -46.3077 	 8.71675 	 -22.5085
|  8> C 	 -47.5987 	 8.45969 	 -21.2349
|  9> C 	 -48.6872 	 9.19467 	 -21.43
| 10> C 	 -48.5261 	 9.9637 	 -22.5801
| 11> C 	 -47.3479 	 9.91761 	 -23.2255
| 12> H 	 -49.2791 	 10.5711 	 -23.0257
| 13> C 	 -49.9308 	 9.33735 	 -20.5761
| 14> H 	 -50.7696 	 9.46836 	 -21.2752
| 15> H 	 -49.6838 	 10.257 	 -20.0466
| 16> C 	 -50.2491 	 8.10123 	 -19.775
| 17> H 	 -49.4046 	 7.75139 	 -19.1123
| 18> H 	 -50.9384 	 8.36785 	 -18.9764
| 19> C 	 -50.7234 	 6.90169 	 -20.68
| 20> H 	 -51.0133 	 5.95606 	 -20.1266
| 21> H 	 -51.6835 	 6.99033 	 -21.1869
| 22> H 	 -50.0779 	 6.51181 	 -21.462
| 23> S 	 -45.6464 	 10.0504 	 -25.4019
| 24> C 	 -45.6646 	 11.438 	 -26.4313
| 25> C 	 -46.5648 	 12.4031 	 -25.9526
| 26> C 	 -47.3309 	 12.019 	 -24.8105
| 27> C 	 -46.9165 	 10.7477 	 -24.372
| 28> H 	 -46.67 	 13.3954 	 -26.4182
| 29> C 	 -48.2483 	 13.011 	 -24.1927
| 30> H 	 -48.592 	 12.6423 	 -23.2457
| 31> H 	 -49.0549 	 13.2288 	 -24.8709
| 32> C 	 -47.5661 	 14.3733 	 -23.8996
| 33> H 	 -47.1205 	 14.7183 	 -24.8729
| 34> H 	 -46.9276 	 14.282 	 -23.1209
| 35> C 	 -48.4647 	 15.5221 	 -23.5591
| 36> H 	 -48.9937 	 15.2817 	 -22.6411
| 37> H 	 -49.2888 	 15.7613 	 -24.2778
| 38> H 	 -47.8266 	 16.4807 	 -23.4175
| 39> H 	 -47.4661 	 7.81193 	 -20.4295
| 40> H 	 -44.8935 	 11.6683 	 -27.1721
| 41> *
| 42>
| 43>                          ****END OF INPUT****

CARTESIAN COORDINATES (ANGSTROEM)
---------------------------------
  S    -46.307700    8.716750  -22.508500
  C    -47.598700    8.459690  -21.234900
  C    -48.687200    9.194670  -21.430000
  C    -48.526100    9.963700  -22.580100
  C    -47.347900    9.917610  -23.225500
  H    -49.279100   10.571100  -23.025700
  C    -49.930800    9.337350  -20.576100
  H    -50.769600    9.468360  -21.275200
  H    -49.683800   10.257000  -20.046600
  C    -50.249100    8.101230  -19.775000
  H    -49.404600    7.751390  -19.112300
  H    -50.938400    8.367850  -18.976400
  C    -50.723400    6.901690  -20.680000
  H    -51.013300    5.956060  -20.126600
  H    -51.683500    6.990330  -21.186900
  H    -50.077900    6.511810  -21.462000
  S    -45.646400   10.050400  -25.401900
  C    -45.664600   11.438000  -26.431300
  C    -46.564800   12.403100  -25.952600
  C    -47.330900   12.019000  -24.810500
  C    -46.916500   10.747700  -24.372000
  H    -46.670000   13.395400  -26.418200
  C    -48.248300   13.011000  -24.192700
  H    -48.592000   12.642300  -23.245700
  H    -49.054900   13.228800  -24.870900
  C    -47.566100   14.373300  -23.899600
  H    -47.120500   14.718300  -24.872900
  H    -46.927600   14.282000  -23.120900
  C    -48.464700   15.522100  -23.559100
  H    -48.993700   15.281700  -22.641100
  H    -49.288800   15.761300  -24.277800
  H    -47.826600   16.480700  -23.417500
  H    -47.466100    7.811930  -20.429500
  H    -44.893500   11.668300  -27.172100

 Total Charge           Charge          ....    0
 Multiplicity           Mult            ....    1
 Number of Electrons    NEL             ....  134
 Basis Dimension        Dim             ....  322

ORBITAL ENERGIES
----------------

  NO   OCC          E(Eh)            E(eV)
   0   2.0000     -88.967307     -2420.9235
   1   2.0000     -88.961849     -2420.7750
   2   2.0000     -10.333222      -281.1813
   3   2.0000     -10.324702      -280.9494
   4   2.0000     -10.318623      -280.7840
   5   2.0000     -10.306330      -280.4495
   6   2.0000     -10.304906      -280.4107
   7   2.0000     -10.300528      -280.2916
   8   2.0000     -10.298115      -280.2260
   9   2.0000     -10.295860      -280.1646
  10   2.0000     -10.290969      -280.0315
  11   2.0000     -10.290926      -280.0303
  12   2.0000     -10.285737      -279.8891
  13   2.0000     -10.285541      -279.8838
  14   2.0000     -10.281411      -279.7714
  15   2.0000     -10.278368      -279.6886
  16   2.0000      -8.081910      -219.9200
  17   2.0000      -8.075895      -219.7563
  18   2.0000      -6.040417      -164.3681
  19   2.0000      -6.036410      -164.2591
  20   2.0000      -6.034547      -164.2084
  21   2.0000      -6.032730      -164.1589
  22   2.0000      -6.030817      -164.1069
  23   2.0000      -6.026238      -163.9823
  24   2.0000      -1.007053       -27.4033
  25   2.0000      -0.985029       -26.8040
  26   2.0000      -0.919390       -25.0179
  27   2.0000      -0.915442       -24.9104
  28   2.0000      -0.863912       -23.5082
  29   2.0000      -0.858661       -23.3654
  30   2.0000      -0.841151       -22.8889
  31   2.0000      -0.809456       -22.0264
  32   2.0000      -0.787794       -21.4370
  33   2.0000      -0.778254       -21.1774
  34   2.0000      -0.720030       -19.5930
  35   2.0000      -0.701232       -19.0815
  36   2.0000      -0.693334       -18.8666
  37   2.0000      -0.660838       -17.9823
  38   2.0000      -0.639012       -17.3884
  39   2.0000      -0.615583       -16.7509
  40   2.0000      -0.597446       -16.2573
  41   2.0000      -0.580136       -15.7863
  42   2.0000      -0.573092       -15.5946
  43   2.0000      -0.567578       -15.4446
  44   2.0000      -0.531467       -14.4619
  45   2.0000      -0.524365       -14.2687
  46   2.0000      -0.519066       -14.1245
  47   2.0000      -0.509854       -13.8738
  48   2.0000      -0.501587       -13.6489
  49   2.0000      -0.493074       -13.4172
  50   2.0000      -0.489735       -13.3264
  51   2.0000      -0.477780       -13.0010
  52   2.0000      -0.472722       -12.8634
  53   2.0000      -0.463640       -12.6163
  54   2.0000      -0.460220       -12.5232
  55   2.0000      -0.450976       -12.2717
  56   2.0000      -0.446514       -12.1503
  57   2.0000      -0.441978       -12.0268
  58   2.0000      -0.435419       -11.8484
  59   2.0000      -0.428275       -11.6540
  60   2.0000      -0.422066       -11.4850
  61   2.0000      -0.413894       -11.2626
  62   2.0000      -0.409023       -11.1301
  63   2.0000      -0.355818        -9.6823
  64   2.0000      -0.334764        -9.1094
  65   2.0000      -0.329131        -8.9561
  66   2.0000      -0.283894        -7.7252
  67   0.0000       0.024067         0.6549
  68   0.0000       0.081573         2.2197
  69   0.0000       0.096166         2.6168
  70   0.0000       0.120883         3.2894
  71   0.0000       0.136914         3.7256

MULLIKEN ATOMIC CHARGES
-----------------------
   0 S :    0.079555
   1 C :   -0.129857
   2 C :   -0.051719
   3 C :   -0.045933
   4 C :   -0.076406
   5 H :   -0.006032
   6 C :    0.097662
   7 H :    0.035776
   8 H :    0.053710
   9 C :   -0.055417
  10 H :    0.032177
  11 H :    0.028475
  12 C :   -0.085428
  13 H :    0.030472
  14 H :    0.023495
  15 H :    0.047657
  16 S :    0.100656
  17 C :   -0.084547
  18 C :   -0.070838
  19 C :   -0.039068
  20 C :   -0.147581
  21 H :    0.028761
  22 C :    0.111822
  23 H :    0.010110
  24 H :    0.024802
  25 C :   -0.070077
  26 H :    0.031925
  27 H :    0.019919
  28 C :   -0.081374
  29 H :    0.021223
  30 H :    0.033003
  31 H :    0.053357
  32 H :    0.011630
  33 H :    0.068093
Sum of atomic charges:   -0.0000000

LOEWDIN ATOMIC CHARGES
----------------------
   0 S :    0.356658
   1 C :   -0.156749
   2 C :   -0.064315
   3 C :   -0.075232
   4 C :   -0.181310
   5 H :    0.023585
   6 C :   -0.024815
   7 H :    0.037052
   8 H :    0.042258
   9 C :   -0.045396
  10 H :    0.029640
  11 H :    0.028431
  12 C :   -0.083226
  13 H :    0.035082
  14 H :    0.025288
  15 H :    0.029198
  16 S :    0.403620
  17 C :   -0.200235
  18 C :   -0.069877
  19 C :   -0.057258
  20 C :   -0.181399
  21 H :    0.031557
  22 C :   -0.026100
  23 H :    0.024624
  24 H :    0.033168
  25 C :   -0.031225
  26 H :    0.028217
  27 H :    0.013740
  28 C :   -0.073118
  29 H :    0.018296
  30 H :    0.024784
  31 H :    0.039953
  32 H :    0.010685
  33 H :    0.034416

  Mayer bond orders larger than 0.100000
B(  0-S ,  1-C ) :   1.0968 B(  0-S ,  4-C ) :   1.1192 B(  1-C ,  2-C ) :   1.6686
B(  1-C , 32-H ) :   0.9749 B(  2-C ,  3-C ) :   1.2043 B(  2-C ,  6-C ) :   0.9765
B(  3-C ,  4-C ) :   1.6297 B(  3-C ,  5-H ) :   0.9983 B(  4-C , 20-C ) :   1.0450
B(  6-C ,  7-H ) :   0.9444 B(  6-C ,  8-H ) :   0.9335 B(  6-C ,  9-C ) :   1.0838
B(  9-C , 10-H ) :   0.9512 B(  9-C , 11-H ) :   0.9528 B(  9-C , 12-C ) :   1.0541
B( 12-C , 13-H ) :   0.9742 B( 12-C , 14-H ) :   0.9743 B( 12-C , 15-H ) :   0.9798
B( 16-S , 17-C ) :   1.1550 B( 16-S , 20-C ) :   1.1443 B( 17-C , 18-C ) :   1.5987
B( 17-C , 20-C ) :   0.1020 B( 17-C , 33-H ) :   0.9641 B( 18-C , 19-C ) :   1.2527
B( 18-C , 21-H ) :   0.9780 B( 19-C , 20-C ) :   1.5755 B( 19-C , 22-C ) :   1.0610
B( 22-C , 23-H ) :   0.9270 B( 22-C , 24-H ) :   0.9202 B( 22-C , 25-C ) :   1.0718
B( 25-C , 26-H ) :   0.9521 B( 25-C , 27-H ) :   0.9568 B( 25-C , 28-C ) :   1.0889
B( 28-C , 29-H ) :   0.9711 B( 28-C , 30-H ) :   0.9728 B( 28-C , 31-H ) :   0.9716

Dispersion correction           -0.013578727
FINAL SINGLE POINT ENERGY     -1339.861411106346

DIPOLE MOMENT
-------------
                                X             Y             Z
Electronic contribution:     20.44842     -11.40423     -11.69506
Nuclear contribution   :    -21.01779      11.90290      11.99561
                        -----------------------------------------
Total Dipole Moment    :     -0.56937       0.49866       0.30055
                        -----------------------------------------
Magnitude (a.u.)       :      0.81436
Magnitude (Debye)      :      2.06993

Rotational constants in cm-1:     0.019233     0.008080     0.006124
Rotational constants in MHz :   576.605265   242.227280   183.582111

                             ****ORCA TERMINATED NORMALLY****
TOTAL RUN TIME: 0 days 0 hours 0 minutes 21 seconds 263 msec
