                         Program Version 4.2.1 -  RELEASE  -
|  1> ! wB97X-D3 SP def2-SVP
|  2> %pal
|  3> nprocs 24
|  4> end
|  5>
|  6> * xyz 0 1
|  7> S 	 -120.784 	 46.9414 	 -23.8891
|  8> C 	 -119.963 	 45.399 	 -24.0502
|  9> C 	 -120.4 	 44.6206 	 -25.1322
| 10> C 	 -121.12 	 45.5123 	 -26.0319
| 11> C 	 -121.451 	 46.7475 	 -25.5279
| 12> H 	 -121.552 	 45.262 	 -26.9852
| 13> C 	 -119.826 	 43.2878 	 -25.5257
| 14> H 	 -119.04 	 42.9953 	 -24.851
| 15> H 	 -119.399 	 43.3491 	 -26.4886
| 16> C 	 -120.861 	 42.1579 	 -25.5039
| 17> H 	 -121.127 	 41.9316 	 -24.4326
| 18> H 	 -121.62 	 42.6699 	 -26.0497
| 19> C 	 -120.451 	 40.9276 	 -26.2935
| 20> H 	 -121.266 	 40.1975 	 -26.376
| 21> H 	 -120.309 	 41.1011 	 -27.3382
| 22> H 	 -119.528 	 40.3896 	 -25.9185
| 23> S 	 -123.386 	 48.6575 	 -25.1912
| 24> C 	 -124.107 	 49.4687 	 -26.5497
| 25> C 	 -123.567 	 48.9617 	 -27.7199
| 26> C 	 -122.532 	 47.9797 	 -27.5399
| 27> C 	 -122.274 	 47.7734 	 -26.2001
| 28> H 	 -123.923 	 49.3645 	 -28.7089
| 29> C 	 -121.895 	 47.4093 	 -28.8029
| 30> H 	 -122.283 	 47.9779 	 -29.6214
| 31> H 	 -122.236 	 46.438 	 -28.879
| 32> C 	 -120.365 	 47.3895 	 -28.8315
| 33> H 	 -119.905 	 46.6028 	 -28.1378
| 34> H 	 -120.04 	 48.3449 	 -28.4374
| 35> C 	 -119.819 	 47.2406 	 -30.2654
| 36> H 	 -120.168 	 46.4207 	 -30.765
| 37> H 	 -118.678 	 47.0787 	 -30.2696
| 38> H 	 -119.956 	 48.0733 	 -30.8235
| 39> H 	 -119.406 	 44.9987 	 -23.2445
| 40> H 	 -124.718 	 50.3993 	 -26.4846
| 41> *
| 42>
| 43>                          ****END OF INPUT****

CARTESIAN COORDINATES (ANGSTROEM)
---------------------------------
  S    -120.784000   46.941400  -23.889100
  C    -119.963000   45.399000  -24.050200
  C    -120.400000   44.620600  -25.132200
  C    -121.120000   45.512300  -26.031900
  C    -121.451000   46.747500  -25.527900
  H    -121.552000   45.262000  -26.985200
  C    -119.826000   43.287800  -25.525700
  H    -119.040000   42.995300  -24.851000
  H    -119.399000   43.349100  -26.488600
  C    -120.861000   42.157900  -25.503900
  H    -121.127000   41.931600  -24.432600
  H    -121.620000   42.669900  -26.049700
  C    -120.451000   40.927600  -26.293500
  H    -121.266000   40.197500  -26.376000
  H    -120.309000   41.101100  -27.338200
  H    -119.528000   40.389600  -25.918500
  S    -123.386000   48.657500  -25.191200
  C    -124.107000   49.468700  -26.549700
  C    -123.567000   48.961700  -27.719900
  C    -122.532000   47.979700  -27.539900
  C    -122.274000   47.773400  -26.200100
  H    -123.923000   49.364500  -28.708900
  C    -121.895000   47.409300  -28.802900
  H    -122.283000   47.977900  -29.621400
  H    -122.236000   46.438000  -28.879000
  C    -120.365000   47.389500  -28.831500
  H    -119.905000   46.602800  -28.137800
  H    -120.040000   48.344900  -28.437400
  C    -119.819000   47.240600  -30.265400
  H    -120.168000   46.420700  -30.765000
  H    -118.678000   47.078700  -30.269600
  H    -119.956000   48.073300  -30.823500
  H    -119.406000   44.998700  -23.244500
  H    -124.718000   50.399300  -26.484600

 Total Charge           Charge          ....    0
 Multiplicity           Mult            ....    1
 Number of Electrons    NEL             ....  134
 Basis Dimension        Dim             ....  322

ORBITAL ENERGIES
----------------

  NO   OCC          E(Eh)            E(eV)
   0   2.0000     -88.967650     -2420.9328
   1   2.0000     -88.964392     -2420.8442
   2   2.0000     -10.332394      -281.1587
   3   2.0000     -10.329063      -281.0681
   4   2.0000     -10.319070      -280.7962
   5   2.0000     -10.316389      -280.7232
   6   2.0000     -10.308080      -280.4971
   7   2.0000     -10.303572      -280.3744
   8   2.0000     -10.298354      -280.2324
   9   2.0000     -10.296617      -280.1852
  10   2.0000     -10.287939      -279.9491
  11   2.0000     -10.287455      -279.9359
  12   2.0000     -10.287228      -279.9297
  13   2.0000     -10.287104      -279.9263
  14   2.0000     -10.282115      -279.7906
  15   2.0000     -10.268817      -279.4287
  16   2.0000      -8.081912      -219.9200
  17   2.0000      -8.079620      -219.8576
  18   2.0000      -6.040436      -164.3686
  19   2.0000      -6.038180      -164.3072
  20   2.0000      -6.036672      -164.2662
  21   2.0000      -6.033988      -164.1932
  22   2.0000      -6.032510      -164.1529
  23   2.0000      -6.030370      -164.0947
  24   2.0000      -1.006306       -27.3830
  25   2.0000      -0.982876       -26.7454
  26   2.0000      -0.917598       -24.9691
  27   2.0000      -0.911599       -24.8059
  28   2.0000      -0.868183       -23.6245
  29   2.0000      -0.853533       -23.2258
  30   2.0000      -0.846334       -23.0299
  31   2.0000      -0.814976       -22.1766
  32   2.0000      -0.786667       -21.4063
  33   2.0000      -0.776363       -21.1259
  34   2.0000      -0.710038       -19.3211
  35   2.0000      -0.700429       -19.0596
  36   2.0000      -0.689439       -18.7606
  37   2.0000      -0.663638       -18.0585
  38   2.0000      -0.642398       -17.4805
  39   2.0000      -0.622277       -16.9330
  40   2.0000      -0.595601       -16.2071
  41   2.0000      -0.575812       -15.6686
  42   2.0000      -0.567577       -15.4446
  43   2.0000      -0.562529       -15.3072
  44   2.0000      -0.525807       -14.3079
  45   2.0000      -0.522657       -14.2222
  46   2.0000      -0.518333       -14.1046
  47   2.0000      -0.511688       -13.9237
  48   2.0000      -0.502578       -13.6759
  49   2.0000      -0.499187       -13.5836
  50   2.0000      -0.495533       -13.4841
  51   2.0000      -0.490169       -13.3382
  52   2.0000      -0.474550       -12.9131
  53   2.0000      -0.465203       -12.6588
  54   2.0000      -0.459485       -12.5032
  55   2.0000      -0.448603       -12.2071
  56   2.0000      -0.445780       -12.1303
  57   2.0000      -0.435763       -11.8577
  58   2.0000      -0.430362       -11.7108
  59   2.0000      -0.427848       -11.6423
  60   2.0000      -0.422940       -11.5088
  61   2.0000      -0.419786       -11.4230
  62   2.0000      -0.412992       -11.2381
  63   2.0000      -0.355237        -9.6665
  64   2.0000      -0.332368        -9.0442
  65   2.0000      -0.329019        -8.9530
  66   2.0000      -0.287830        -7.8323
  67   0.0000       0.023860         0.6493
  68   0.0000       0.073381         1.9968
  69   0.0000       0.104317         2.8386
  70   0.0000       0.113621         3.0918
  71   0.0000       0.135807         3.6955

MULLIKEN ATOMIC CHARGES
-----------------------
   0 S :    0.105208
   1 C :   -0.103972
   2 C :   -0.074883
   3 C :   -0.004153
   4 C :   -0.121819
   5 H :    0.001859
   6 C :    0.077788
   7 H :    0.010902
   8 H :    0.017703
   9 C :   -0.075765
  10 H :    0.046665
  11 H :    0.019223
  12 C :   -0.047521
  13 H :    0.031582
  14 H :    0.016687
  15 H :    0.040660
  16 S :    0.093475
  17 C :   -0.108098
  18 C :   -0.064577
  19 C :   -0.086541
  20 C :   -0.113344
  21 H :    0.035520
  22 C :    0.138369
  23 H :    0.004549
  24 H :    0.016399
  25 C :   -0.102619
  26 H :    0.053230
  27 H :    0.028463
  28 C :   -0.008072
  29 H :    0.008412
  30 H :    0.032212
  31 H :    0.011838
  32 H :    0.040942
  33 H :    0.079680
Sum of atomic charges:   -0.0000000

LOEWDIN ATOMIC CHARGES
----------------------
   0 S :    0.385551
   1 C :   -0.178526
   2 C :   -0.056796
   3 C :   -0.061574
   4 C :   -0.181762
   5 H :    0.025557
   6 C :   -0.026554
   7 H :    0.025290
   8 H :    0.025901
   9 C :   -0.039764
  10 H :    0.033321
  11 H :    0.021611
  12 C :   -0.074457
  13 H :    0.029599
  14 H :    0.021284
  15 H :    0.030865
  16 S :    0.409492
  17 C :   -0.202803
  18 C :   -0.076918
  19 C :   -0.059856
  20 C :   -0.196110
  21 H :    0.037600
  22 C :   -0.020839
  23 H :    0.028839
  24 H :    0.020305
  25 C :   -0.040391
  26 H :    0.033757
  27 H :    0.023731
  28 C :   -0.055064
  29 H :    0.010519
  30 H :    0.037952
  31 H :    0.010144
  32 H :    0.017725
  33 H :    0.042372

  Mayer bond orders larger than 0.100000
B(  0-S ,  1-C ) :   1.1455 B(  0-S ,  4-C ) :   1.1224 B(  1-C ,  2-C ) :   1.6203
B(  1-C , 32-H ) :   0.9655 B(  2-C ,  3-C ) :   1.2017 B(  2-C ,  6-C ) :   1.0435
B(  3-C ,  4-C ) :   1.6274 B(  3-C ,  5-H ) :   0.9788 B(  4-C , 20-C ) :   1.0372
B(  6-C ,  7-H ) :   0.9396 B(  6-C ,  8-H ) :   0.9457 B(  6-C ,  9-C ) :   1.0467
B(  9-C , 10-H ) :   0.9551 B(  9-C , 11-H ) :   0.9610 B(  9-C , 12-C ) :   1.0914
B( 12-C , 13-H ) :   0.9713 B( 12-C , 14-H ) :   0.9688 B( 12-C , 15-H ) :   0.9728
B( 16-S , 17-C ) :   1.1536 B( 16-S , 20-C ) :   1.1443 B( 17-C , 18-C ) :   1.6063
B( 17-C , 33-H ) :   0.9603 B( 18-C , 19-C ) :   1.2613 B( 18-C , 21-H ) :   0.9777
B( 19-C , 20-C ) :   1.5933 B( 19-C , 22-C ) :   1.0345 B( 22-C , 23-H ) :   0.9321
B( 22-C , 24-H ) :   0.9114 B( 22-C , 25-C ) :   1.0650 B( 25-C , 26-H ) :   0.9478
B( 25-C , 27-H ) :   0.9597 B( 25-C , 28-C ) :   1.0879 B( 28-C , 29-H ) :   0.9742
B( 28-C , 30-H ) :   0.9725 B( 28-C , 31-H ) :   0.9751

Dispersion correction           -0.013960107
FINAL SINGLE POINT ENERGY     -1339.865486662359

DIPOLE MOMENT
-------------
                                X             Y             Z
Electronic contribution:    -10.83335      20.72568      20.16280
Nuclear contribution   :     10.95365     -21.10379     -20.79093
                        -----------------------------------------
Total Dipole Moment    :      0.12030      -0.37811      -0.62813
                        -----------------------------------------
Magnitude (a.u.)       :      0.74296
Magnitude (Debye)      :      1.88844

Rotational constants in cm-1:     0.016981     0.008779     0.006785
Rotational constants in MHz :   509.083250   263.198028   203.412198

                             ****ORCA TERMINATED NORMALLY****
TOTAL RUN TIME: 0 days 0 hours 0 minutes 21 seconds 722 msec
