                         Program Version 4.2.1 -  RELEASE  -
|  1> ! wB97X-D3 SP def2-SVP
|  2> %pal
|  3> nprocs 24
|  4> end
|  5>
|  6> * xyz 0 1
|  7> S 	 49.2062 	 -33.5214 	 -121.052
|  8> C 	 49.2944 	 -32.3475 	 -122.417
|  9> C 	 48.0509 	 -31.8012 	 -122.629
| 10> C 	 47.0342 	 -32.3857 	 -121.815
| 11> C 	 47.49 	 -33.4143 	 -120.991
| 12> H 	 46.0123 	 -32.0577 	 -121.806
| 13> C 	 47.6928 	 -30.8048 	 -123.648
| 14> H 	 48.4017 	 -30.0311 	 -123.641
| 15> H 	 46.7195 	 -30.3513 	 -123.466
| 16> C 	 47.6415 	 -31.4191 	 -125.067
| 17> H 	 47.5058 	 -30.6561 	 -125.851
| 18> H 	 48.4939 	 -31.9825 	 -125.158
| 19> C 	 46.4288 	 -32.3044 	 -125.312
| 20> H 	 46.617 	 -32.8273 	 -126.241
| 21> H 	 46.2899 	 -33.0761 	 -124.552
| 22> H 	 45.4627 	 -31.7856 	 -125.394
| 23> S 	 47.2614 	 -34.1926 	 -118.282
| 24> C 	 45.7321 	 -34.8889 	 -117.745
| 25> C 	 44.9141 	 -35.079 	 -118.807
| 26> C 	 45.3853 	 -34.5239 	 -120.049
| 27> C 	 46.6535 	 -34.0417 	 -119.971
| 28> H 	 43.8798 	 -35.3951 	 -118.634
| 29> C 	 44.4328 	 -34.5535 	 -121.336
| 30> H 	 44.3381 	 -35.6137 	 -121.566
| 31> H 	 44.873 	 -34.1624 	 -122.203
| 32> C 	 42.9599 	 -34.0553 	 -121.141
| 33> H 	 42.6291 	 -34.5805 	 -120.288
| 34> H 	 42.3222 	 -34.3374 	 -122.003
| 35> C 	 42.6498 	 -32.6005 	 -120.718
| 36> H 	 43.0171 	 -31.8791 	 -121.456
| 37> H 	 43.1887 	 -32.4735 	 -119.783
| 38> H 	 41.6035 	 -32.4316 	 -120.461
| 39> H 	 50.2391 	 -32.17 	 -122.935
| 40> H 	 45.4701 	 -35.1971 	 -116.711
| 41> *
| 42>
| 43>                          ****END OF INPUT****

CARTESIAN COORDINATES (ANGSTROEM)
---------------------------------
  S     49.206200  -33.521400  -121.052000
  C     49.294400  -32.347500  -122.417000
  C     48.050900  -31.801200  -122.629000
  C     47.034200  -32.385700  -121.815000
  C     47.490000  -33.414300  -120.991000
  H     46.012300  -32.057700  -121.806000
  C     47.692800  -30.804800  -123.648000
  H     48.401700  -30.031100  -123.641000
  H     46.719500  -30.351300  -123.466000
  C     47.641500  -31.419100  -125.067000
  H     47.505800  -30.656100  -125.851000
  H     48.493900  -31.982500  -125.158000
  C     46.428800  -32.304400  -125.312000
  H     46.617000  -32.827300  -126.241000
  H     46.289900  -33.076100  -124.552000
  H     45.462700  -31.785600  -125.394000
  S     47.261400  -34.192600  -118.282000
  C     45.732100  -34.888900  -117.745000
  C     44.914100  -35.079000  -118.807000
  C     45.385300  -34.523900  -120.049000
  C     46.653500  -34.041700  -119.971000
  H     43.879800  -35.395100  -118.634000
  C     44.432800  -34.553500  -121.336000
  H     44.338100  -35.613700  -121.566000
  H     44.873000  -34.162400  -122.203000
  C     42.959900  -34.055300  -121.141000
  H     42.629100  -34.580500  -120.288000
  H     42.322200  -34.337400  -122.003000
  C     42.649800  -32.600500  -120.718000
  H     43.017100  -31.879100  -121.456000
  H     43.188700  -32.473500  -119.783000
  H     41.603500  -32.431600  -120.461000
  H     50.239100  -32.170000  -122.935000
  H     45.470100  -35.197100  -116.711000

 Total Charge           Charge          ....    0
 Multiplicity           Mult            ....    1
 Number of Electrons    NEL             ....  134
 Basis Dimension        Dim             ....  322

ORBITAL ENERGIES
----------------

  NO   OCC          E(Eh)            E(eV)
   0   2.0000     -88.967621     -2420.9321
   1   2.0000     -88.963868     -2420.8299
   2   2.0000     -10.330889      -281.1178
   3   2.0000     -10.330739      -281.1137
   4   2.0000     -10.322093      -280.8784
   5   2.0000     -10.319919      -280.8193
   6   2.0000     -10.308211      -280.5007
   7   2.0000     -10.300502      -280.2909
   8   2.0000     -10.297161      -280.2000
   9   2.0000     -10.294240      -280.1205
  10   2.0000     -10.292320      -280.0683
  11   2.0000     -10.288800      -279.9725
  12   2.0000     -10.283800      -279.8364
  13   2.0000     -10.281476      -279.7732
  14   2.0000     -10.278007      -279.6788
  15   2.0000     -10.273849      -279.5656
  16   2.0000      -8.082077      -219.9245
  17   2.0000      -8.077929      -219.8116
  18   2.0000      -6.040634      -164.3740
  19   2.0000      -6.036690      -164.2667
  20   2.0000      -6.036612      -164.2646
  21   2.0000      -6.032819      -164.1614
  22   2.0000      -6.032638      -164.1564
  23   2.0000      -6.028340      -164.0395
  24   2.0000      -1.005919       -27.3724
  25   2.0000      -0.983772       -26.7698
  26   2.0000      -0.920106       -25.0373
  27   2.0000      -0.900677       -24.5087
  28   2.0000      -0.870920       -23.6989
  29   2.0000      -0.850880       -23.1536
  30   2.0000      -0.840590       -22.8736
  31   2.0000      -0.814674       -22.1684
  32   2.0000      -0.788051       -21.4440
  33   2.0000      -0.779489       -21.2110
  34   2.0000      -0.707899       -19.2629
  35   2.0000      -0.701273       -19.0826
  36   2.0000      -0.693072       -18.8594
  37   2.0000      -0.657463       -17.8905
  38   2.0000      -0.641202       -17.4480
  39   2.0000      -0.618029       -16.8174
  40   2.0000      -0.598926       -16.2976
  41   2.0000      -0.582137       -15.8408
  42   2.0000      -0.553644       -15.0654
  43   2.0000      -0.548744       -14.9321
  44   2.0000      -0.543554       -14.7909
  45   2.0000      -0.540592       -14.7102
  46   2.0000      -0.519948       -14.1485
  47   2.0000      -0.513355       -13.9691
  48   2.0000      -0.504599       -13.7308
  49   2.0000      -0.498036       -13.5523
  50   2.0000      -0.491698       -13.3798
  51   2.0000      -0.478935       -13.0325
  52   2.0000      -0.471862       -12.8400
  53   2.0000      -0.466162       -12.6849
  54   2.0000      -0.462725       -12.5914
  55   2.0000      -0.446656       -12.1541
  56   2.0000      -0.443949       -12.0805
  57   2.0000      -0.441597       -12.0165
  58   2.0000      -0.432179       -11.7602
  59   2.0000      -0.426204       -11.5976
  60   2.0000      -0.419566       -11.4170
  61   2.0000      -0.415587       -11.3087
  62   2.0000      -0.408741       -11.1224
  63   2.0000      -0.354998        -9.6600
  64   2.0000      -0.332166        -9.0387
  65   2.0000      -0.330721        -8.9994
  66   2.0000      -0.291803        -7.9404
  67   0.0000       0.026458         0.7200
  68   0.0000       0.070971         1.9312
  69   0.0000       0.103899         2.8272
  70   0.0000       0.123567         3.3624
  71   0.0000       0.127950         3.4817

MULLIKEN ATOMIC CHARGES
-----------------------
   0 S :    0.098881
   1 C :   -0.150572
   2 C :   -0.066617
   3 C :    0.005719
   4 C :   -0.126608
   5 H :    0.009788
   6 C :    0.105361
   7 H :    0.014204
   8 H :    0.013416
   9 C :   -0.035291
  10 H :    0.034927
  11 H :    0.007213
  12 C :   -0.075222
  13 H :    0.029869
  14 H :    0.033995
  15 H :    0.030048
  16 S :    0.087790
  17 C :   -0.099978
  18 C :   -0.038488
  19 C :   -0.060952
  20 C :   -0.137482
  21 H :    0.029847
  22 C :    0.108873
  23 H :    0.035525
  24 H :    0.005090
  25 C :   -0.094502
  26 H :    0.010856
  27 H :    0.039441
  28 C :   -0.053141
  29 H :    0.036538
  30 H :    0.030734
  31 H :    0.039110
  32 H :    0.059253
  33 H :    0.072375
Sum of atomic charges:   -0.0000000

LOEWDIN ATOMIC CHARGES
----------------------
   0 S :    0.399822
   1 C :   -0.183922
   2 C :   -0.059011
   3 C :   -0.059661
   4 C :   -0.196683
   5 H :    0.028121
   6 C :   -0.026921
   7 H :    0.024483
   8 H :    0.029111
   9 C :   -0.025393
  10 H :    0.029193
  11 H :    0.011126
  12 C :   -0.068117
  13 H :    0.027157
  14 H :    0.020935
  15 H :    0.023752
  16 S :    0.366406
  17 C :   -0.177816
  18 C :   -0.080321
  19 C :   -0.057360
  20 C :   -0.177007
  21 H :    0.032925
  22 C :   -0.019686
  23 H :    0.039629
  24 H :    0.015792
  25 C :   -0.042021
  26 H :    0.014975
  27 H :    0.027977
  28 C :   -0.067402
  29 H :    0.021166
  30 H :    0.026650
  31 H :    0.029074
  32 H :    0.031158
  33 H :    0.041866

  Mayer bond orders larger than 0.100000
B(  0-S ,  1-C ) :   1.1229 B(  0-S ,  4-C ) :   1.1656 B(  1-C ,  2-C ) :   1.5822
B(  1-C , 32-H ) :   0.9746 B(  2-C ,  3-C ) :   1.2574 B(  2-C ,  6-C ) :   1.0397
B(  3-C ,  4-C ) :   1.5301 B(  3-C ,  5-H ) :   0.9962 B(  4-C , 20-C ) :   1.0512
B(  6-C ,  7-H ) :   0.9277 B(  6-C ,  8-H ) :   0.9408 B(  6-C ,  9-C ) :   1.0725
B(  9-C , 10-H ) :   0.9558 B(  9-C , 11-H ) :   0.9554 B(  9-C , 12-C ) :   1.0845
B( 12-C , 13-H ) :   0.9700 B( 12-C , 14-H ) :   0.9747 B( 12-C , 15-H ) :   0.9757
B( 16-S , 17-C ) :   1.1320 B( 16-S , 20-C ) :   1.1057 B( 17-C , 18-C ) :   1.6615
B( 17-C , 33-H ) :   0.9606 B( 18-C , 19-C ) :   1.2090 B( 18-C , 21-H ) :   0.9787
B( 19-C , 20-C ) :   1.6678 B( 19-C , 22-C ) :   1.0145 B( 22-C , 23-H ) :   0.9339
B( 22-C , 24-H ) :   0.9436 B( 22-C , 25-C ) :   1.0650 B( 25-C , 26-H ) :   0.9559
B( 25-C , 27-H ) :   0.9565 B( 25-C , 28-C ) :   1.0774 B( 28-C , 29-H ) :   0.9763
B( 28-C , 30-H ) :   0.9737 B( 28-C , 31-H ) :   0.9734

Dispersion correction           -0.015025105
FINAL SINGLE POINT ENERGY     -1339.877515031252

DIPOLE MOMENT
-------------
                                X             Y             Z
Electronic contribution:     20.60909      -7.94152      20.26521
Nuclear contribution   :    -21.17972       8.13864     -20.66959
                        -----------------------------------------
Total Dipole Moment    :     -0.57063       0.19712      -0.40438
                        -----------------------------------------
Magnitude (a.u.)       :      0.72664
Magnitude (Debye)      :      1.84696

Rotational constants in cm-1:     0.017904     0.010053     0.006980
Rotational constants in MHz :   536.753215   301.388331   209.246571

                             ****ORCA TERMINATED NORMALLY****
TOTAL RUN TIME: 0 days 0 hours 0 minutes 22 seconds 278 msec
