                         Program Version 4.2.1 -  RELEASE  -
|  1> ! wB97X-D3 SP def2-SVP
|  2> %pal
|  3> nprocs 24
|  4> end
|  5>
|  6> * xyz 0 1
|  7> S 	 -123.261 	 66.8791 	 -42.0075
|  8> C 	 -122.663 	 68.5507 	 -41.6142
|  9> C 	 -122.32 	 69.1771 	 -42.7699
| 10> C 	 -122.161 	 68.2344 	 -43.8381
| 11> C 	 -122.54 	 66.9836 	 -43.4958
| 12> H 	 -121.757 	 68.2987 	 -44.8383
| 13> C 	 -121.803 	 70.5657 	 -42.9787
| 14> H 	 -120.915 	 70.658 	 -43.6606
| 15> H 	 -121.488 	 70.9784 	 -42.0104
| 16> C 	 -122.811 	 71.6573 	 -43.5795
| 17> H 	 -122.242 	 72.6098 	 -43.4863
| 18> H 	 -123.074 	 71.3823 	 -44.5969
| 19> C 	 -124.127 	 71.739 	 -42.7429
| 20> H 	 -124.511 	 70.7491 	 -42.4558
| 21> H 	 -123.936 	 72.163 	 -41.7242
| 22> H 	 -124.952 	 72.1129 	 -43.3383
| 23> S 	 -120.988 	 64.6864 	 -43.6804
| 24> C 	 -120.903 	 63.8802 	 -45.2415
| 25> C 	 -121.863 	 64.3349 	 -46.1657
| 26> C 	 -122.55 	 65.4904 	 -45.6735
| 27> C 	 -122.255 	 65.7832 	 -44.3289
| 28> H 	 -121.899 	 63.7745 	 -47.1008
| 29> C 	 -123.56 	 66.2906 	 -46.5023
| 30> H 	 -123.986 	 67.167 	 -45.9715
| 31> H 	 -124.458 	 65.6767 	 -46.6757
| 32> C 	 -123.065 	 66.6907 	 -47.8754
| 33> H 	 -123.911 	 67.2116 	 -48.372
| 34> H 	 -122.863 	 65.8296 	 -48.5125
| 35> C 	 -121.816 	 67.6222 	 -47.8502
| 36> H 	 -121.821 	 68.0731 	 -48.858
| 37> H 	 -120.915 	 67.077 	 -47.7807
| 38> H 	 -121.898 	 68.4315 	 -47.1215
| 39> H 	 -122.764 	 69.0207 	 -40.697
| 40> H 	 -120.311 	 62.9918 	 -45.4288
| 41> *
| 42>
| 43>                          ****END OF INPUT****

CARTESIAN COORDINATES (ANGSTROEM)
---------------------------------
  S    -123.261000   66.879100  -42.007500
  C    -122.663000   68.550700  -41.614200
  C    -122.320000   69.177100  -42.769900
  C    -122.161000   68.234400  -43.838100
  C    -122.540000   66.983600  -43.495800
  H    -121.757000   68.298700  -44.838300
  C    -121.803000   70.565700  -42.978700
  H    -120.915000   70.658000  -43.660600
  H    -121.488000   70.978400  -42.010400
  C    -122.811000   71.657300  -43.579500
  H    -122.242000   72.609800  -43.486300
  H    -123.074000   71.382300  -44.596900
  C    -124.127000   71.739000  -42.742900
  H    -124.511000   70.749100  -42.455800
  H    -123.936000   72.163000  -41.724200
  H    -124.952000   72.112900  -43.338300
  S    -120.988000   64.686400  -43.680400
  C    -120.903000   63.880200  -45.241500
  C    -121.863000   64.334900  -46.165700
  C    -122.550000   65.490400  -45.673500
  C    -122.255000   65.783200  -44.328900
  H    -121.899000   63.774500  -47.100800
  C    -123.560000   66.290600  -46.502300
  H    -123.986000   67.167000  -45.971500
  H    -124.458000   65.676700  -46.675700
  C    -123.065000   66.690700  -47.875400
  H    -123.911000   67.211600  -48.372000
  H    -122.863000   65.829600  -48.512500
  C    -121.816000   67.622200  -47.850200
  H    -121.821000   68.073100  -48.858000
  H    -120.915000   67.077000  -47.780700
  H    -121.898000   68.431500  -47.121500
  H    -122.764000   69.020700  -40.697000
  H    -120.311000   62.991800  -45.428800

 Total Charge           Charge          ....    0
 Multiplicity           Mult            ....    1
 Number of Electrons    NEL             ....  134
 Basis Dimension        Dim             ....  322

ORBITAL ENERGIES
----------------

  NO   OCC          E(Eh)            E(eV)
   0   2.0000     -88.966831     -2420.9106
   1   2.0000     -88.962925     -2420.8043
   2   2.0000     -10.330492      -281.1070
   3   2.0000     -10.321896      -280.8731
   4   2.0000     -10.318193      -280.7723
   5   2.0000     -10.312206      -280.6094
   6   2.0000     -10.311614      -280.5933
   7   2.0000     -10.302280      -280.3393
   8   2.0000     -10.300710      -280.2966
   9   2.0000     -10.297584      -280.2115
  10   2.0000     -10.295783      -280.1625
  11   2.0000     -10.292603      -280.0760
  12   2.0000     -10.288816      -279.9729
  13   2.0000     -10.284078      -279.8440
  14   2.0000     -10.278573      -279.6942
  15   2.0000     -10.276463      -279.6368
  16   2.0000      -8.080653      -219.8857
  17   2.0000      -8.078922      -219.8386
  18   2.0000      -6.039104      -164.3324
  19   2.0000      -6.037369      -164.2852
  20   2.0000      -6.035334      -164.2298
  21   2.0000      -6.033480      -164.1793
  22   2.0000      -6.031475      -164.1248
  23   2.0000      -6.029417      -164.0688
  24   2.0000      -1.010970       -27.5099
  25   2.0000      -0.979841       -26.6628
  26   2.0000      -0.908422       -24.7194
  27   2.0000      -0.906216       -24.6594
  28   2.0000      -0.863471       -23.4962
  29   2.0000      -0.846369       -23.0309
  30   2.0000      -0.842574       -22.9276
  31   2.0000      -0.811903       -22.0930
  32   2.0000      -0.783849       -21.3296
  33   2.0000      -0.777545       -21.1581
  34   2.0000      -0.704401       -19.1677
  35   2.0000      -0.698137       -18.9973
  36   2.0000      -0.691593       -18.8192
  37   2.0000      -0.651356       -17.7243
  38   2.0000      -0.645158       -17.5557
  39   2.0000      -0.616250       -16.7690
  40   2.0000      -0.596863       -16.2415
  41   2.0000      -0.569794       -15.5049
  42   2.0000      -0.551182       -14.9984
  43   2.0000      -0.547950       -14.9105
  44   2.0000      -0.543343       -14.7851
  45   2.0000      -0.534218       -14.5368
  46   2.0000      -0.520232       -14.1562
  47   2.0000      -0.516704       -14.0602
  48   2.0000      -0.500334       -13.6148
  49   2.0000      -0.497552       -13.5391
  50   2.0000      -0.482749       -13.1363
  51   2.0000      -0.475636       -12.9427
  52   2.0000      -0.471528       -12.8309
  53   2.0000      -0.462805       -12.5936
  54   2.0000      -0.455820       -12.4035
  55   2.0000      -0.446202       -12.1418
  56   2.0000      -0.443119       -12.0579
  57   2.0000      -0.436374       -11.8743
  58   2.0000      -0.432246       -11.7620
  59   2.0000      -0.424061       -11.5393
  60   2.0000      -0.419885       -11.4256
  61   2.0000      -0.416582       -11.3358
  62   2.0000      -0.410121       -11.1600
  63   2.0000      -0.337227        -9.1764
  64   2.0000      -0.332719        -9.0537
  65   2.0000      -0.326728        -8.8907
  66   2.0000      -0.299242        -8.1428
  67   0.0000       0.035025         0.9531
  68   0.0000       0.062229         1.6933
  69   0.0000       0.105385         2.8677
  70   0.0000       0.119542         3.2529
  71   0.0000       0.120685         3.2840

MULLIKEN ATOMIC CHARGES
-----------------------
   0 S :    0.103137
   1 C :   -0.107166
   2 C :   -0.014349
   3 C :    0.039000
   4 C :   -0.161915
   5 H :   -0.011775
   6 C :    0.007054
   7 H :    0.045650
   8 H :    0.018139
   9 C :   -0.072833
  10 H :    0.048334
  11 H :    0.032702
  12 C :   -0.070308
  13 H :    0.026351
  14 H :    0.033335
  15 H :    0.039264
  16 S :    0.107922
  17 C :   -0.107769
  18 C :   -0.046551
  19 C :   -0.011787
  20 C :   -0.149799
  21 H :    0.031586
  22 C :    0.056298
  23 H :    0.032434
  24 H :    0.035982
  25 C :   -0.109409
  26 H :    0.032070
  27 H :    0.029311
  28 C :   -0.038236
  29 H :    0.028840
  30 H :    0.037573
  31 H :    0.039433
  32 H :    0.017599
  33 H :    0.059882
Sum of atomic charges:   -0.0000000

LOEWDIN ATOMIC CHARGES
----------------------
   0 S :    0.409823
   1 C :   -0.161379
   2 C :   -0.058200
   3 C :   -0.066138
   4 C :   -0.222512
   5 H :    0.030042
   6 C :   -0.036496
   7 H :    0.037537
   8 H :    0.026836
   9 C :   -0.034246
  10 H :    0.031144
  11 H :    0.020231
  12 C :   -0.080727
  13 H :    0.024955
  14 H :    0.029652
  15 H :    0.026909
  16 S :    0.389783
  17 C :   -0.178015
  18 C :   -0.075659
  19 C :   -0.050331
  20 C :   -0.188049
  21 H :    0.037255
  22 C :   -0.039698
  23 H :    0.033273
  24 H :    0.036565
  25 C :   -0.044154
  26 H :    0.027663
  27 H :    0.021539
  28 C :   -0.063465
  29 H :    0.031684
  30 H :    0.022037
  31 H :    0.022378
  32 H :    0.012172
  33 H :    0.027590

  Mayer bond orders larger than 0.100000
B(  0-S ,  1-C ) :   1.1111 B(  0-S ,  4-C ) :   1.1612 B(  1-C ,  2-C ) :   1.6234
B(  1-C , 32-H ) :   0.9819 B(  2-C ,  3-C ) :   1.1696 B(  2-C ,  6-C ) :   1.0329
B(  3-C ,  4-C ) :   1.6218 B(  3-C ,  5-H ) :   0.9960 B(  4-C , 20-C ) :   0.9830
B(  6-C ,  7-H ) :   0.9512 B(  6-C ,  8-H ) :   0.9451 B(  6-C ,  9-C ) :   1.0569
B(  9-C , 10-H ) :   0.9603 B(  9-C , 11-H ) :   0.9594 B(  9-C , 12-C ) :   1.0719
B( 12-C , 13-H ) :   0.9719 B( 12-C , 14-H ) :   0.9743 B( 12-C , 15-H ) :   0.9758
B( 16-S , 17-C ) :   1.1677 B( 16-S , 20-C ) :   1.1305 B( 17-C , 18-C ) :   1.6205
B( 17-C , 20-C ) :   0.1029 B( 17-C , 33-H ) :   0.9628 B( 18-C , 19-C ) :   1.2107
B( 18-C , 21-H ) :   0.9901 B( 19-C , 20-C ) :   1.6116 B( 19-C , 22-C ) :   1.0345
B( 22-C , 23-H ) :   0.9400 B( 22-C , 24-H ) :   0.9335 B( 22-C , 25-C ) :   1.0831
B( 25-C , 26-H ) :   0.9577 B( 25-C , 27-H ) :   0.9519 B( 25-C , 28-C ) :   1.0694
B( 28-C , 29-H ) :   0.9715 B( 28-C , 30-H ) :   0.9757 B( 28-C , 31-H ) :   0.9712

Dispersion correction           -0.015253695
FINAL SINGLE POINT ENERGY     -1339.864991280296

DIPOLE MOMENT
-------------
                                X             Y             Z
Electronic contribution:      4.44543     -22.31948      15.43878
Nuclear contribution   :     -4.44533      22.60225     -16.01742
                        -----------------------------------------
Total Dipole Moment    :      0.00011       0.28277      -0.57864
                        -----------------------------------------
Magnitude (a.u.)       :      0.64404
Magnitude (Debye)      :      1.63701

Rotational constants in cm-1:     0.019649     0.009182     0.007086
Rotational constants in MHz :   589.075994   275.258882   212.431222

                             ****ORCA TERMINATED NORMALLY****
TOTAL RUN TIME: 0 days 0 hours 0 minutes 22 seconds 267 msec
