                         Program Version 4.2.1 -  RELEASE  -
|  1> ! wB97X-D3 SP def2-SVP
|  2> %pal
|  3> nprocs 24
|  4> end
|  5>
|  6> * xyz 0 1
|  7> S 	 -87.1619 	 -3.86972 	 -113.695
|  8> C 	 -87.0939 	 -3.45652 	 -115.415
|  9> C 	 -88.2375 	 -3.81866 	 -116.088
| 10> C 	 -89.2439 	 -4.23429 	 -115.216
| 11> C 	 -88.8581 	 -4.25847 	 -113.857
| 12> H 	 -90.2878 	 -4.42468 	 -115.519
| 13> C 	 -88.3842 	 -3.82581 	 -117.589
| 14> H 	 -89.1681 	 -4.53214 	 -117.848
| 15> H 	 -87.4235 	 -3.97832 	 -118.149
| 16> C 	 -88.8721 	 -2.48907 	 -118.117
| 17> H 	 -89.9393 	 -2.46368 	 -117.854
| 18> H 	 -88.3676 	 -1.5763 	 -117.686
| 19> C 	 -88.9166 	 -2.53098 	 -119.712
| 20> H 	 -89.3141 	 -3.55494 	 -119.916
| 21> H 	 -89.4688 	 -1.74069 	 -120.156
| 22> H 	 -87.9299 	 -2.45338 	 -120.138
| 23> S 	 -89.63 	 -6.43241 	 -112.235
| 24> C 	 -90.885 	 -6.17128 	 -111.034
| 25> C 	 -91.2929 	 -4.86216 	 -110.954
| 26> C 	 -90.6055 	 -4.03437 	 -111.942
| 27> C 	 -89.6887 	 -4.7442 	 -112.738
| 28> H 	 -92.0025 	 -4.45643 	 -110.304
| 29> C 	 -90.8515 	 -2.54255 	 -112.097
| 30> H 	 -89.9927 	 -2.0308 	 -111.862
| 31> H 	 -91.645 	 -2.31233 	 -111.389
| 32> C 	 -91.4328 	 -1.96321 	 -113.371
| 33> H 	 -90.6319 	 -1.94076 	 -114.098
| 34> H 	 -91.6907 	 -0.902071 	 -113.293
| 35> C 	 -92.5723 	 -2.75173 	 -113.926
| 36> H 	 -92.7259 	 -2.44611 	 -115.003
| 37> H 	 -93.5366 	 -2.4452 	 -113.513
| 38> H 	 -92.4255 	 -3.81397 	 -113.866
| 39> H 	 -86.2598 	 -2.97275 	 -115.948
| 40> H 	 -91.4716 	 -6.76209 	 -110.44
| 41> *
| 42>
| 43>                          ****END OF INPUT****

CARTESIAN COORDINATES (ANGSTROEM)
---------------------------------
  S    -87.161900   -3.869720  -113.695000
  C    -87.093900   -3.456520  -115.415000
  C    -88.237500   -3.818660  -116.088000
  C    -89.243900   -4.234290  -115.216000
  C    -88.858100   -4.258470  -113.857000
  H    -90.287800   -4.424680  -115.519000
  C    -88.384200   -3.825810  -117.589000
  H    -89.168100   -4.532140  -117.848000
  H    -87.423500   -3.978320  -118.149000
  C    -88.872100   -2.489070  -118.117000
  H    -89.939300   -2.463680  -117.854000
  H    -88.367600   -1.576300  -117.686000
  C    -88.916600   -2.530980  -119.712000
  H    -89.314100   -3.554940  -119.916000
  H    -89.468800   -1.740690  -120.156000
  H    -87.929900   -2.453380  -120.138000
  S    -89.630000   -6.432410  -112.235000
  C    -90.885000   -6.171280  -111.034000
  C    -91.292900   -4.862160  -110.954000
  C    -90.605500   -4.034370  -111.942000
  C    -89.688700   -4.744200  -112.738000
  H    -92.002500   -4.456430  -110.304000
  C    -90.851500   -2.542550  -112.097000
  H    -89.992700   -2.030800  -111.862000
  H    -91.645000   -2.312330  -111.389000
  C    -91.432800   -1.963210  -113.371000
  H    -90.631900   -1.940760  -114.098000
  H    -91.690700   -0.902071  -113.293000
  C    -92.572300   -2.751730  -113.926000
  H    -92.725900   -2.446110  -115.003000
  H    -93.536600   -2.445200  -113.513000
  H    -92.425500   -3.813970  -113.866000
  H    -86.259800   -2.972750  -115.948000
  H    -91.471600   -6.762090  -110.440000

 Total Charge           Charge          ....    0
 Multiplicity           Mult            ....    1
 Number of Electrons    NEL             ....  134
 Basis Dimension        Dim             ....  322

ORBITAL ENERGIES
----------------

  NO   OCC          E(Eh)            E(eV)
   0   2.0000     -88.972461     -2421.0637
   1   2.0000     -88.969554     -2420.9846
   2   2.0000     -10.333029      -281.1760
   3   2.0000     -10.327364      -281.0219
   4   2.0000     -10.316781      -280.7339
   5   2.0000     -10.312374      -280.6140
   6   2.0000     -10.304772      -280.4071
   7   2.0000     -10.298425      -280.2344
   8   2.0000     -10.298030      -280.2237
   9   2.0000     -10.296584      -280.1843
  10   2.0000     -10.292773      -280.0806
  11   2.0000     -10.291438      -280.0443
  12   2.0000     -10.281813      -279.7824
  13   2.0000     -10.278065      -279.6804
  14   2.0000     -10.274816      -279.5919
  15   2.0000     -10.271692      -279.5070
  16   2.0000      -8.086444      -220.0433
  17   2.0000      -8.083451      -219.9619
  18   2.0000      -6.044896      -164.4900
  19   2.0000      -6.042154      -164.4154
  20   2.0000      -6.041059      -164.3856
  21   2.0000      -6.037990      -164.3021
  22   2.0000      -6.037312      -164.2836
  23   2.0000      -6.034130      -164.1970
  24   2.0000      -1.003041       -27.2941
  25   2.0000      -0.982361       -26.7314
  26   2.0000      -0.915587       -24.9144
  27   2.0000      -0.911702       -24.8087
  28   2.0000      -0.867193       -23.5975
  29   2.0000      -0.848940       -23.1008
  30   2.0000      -0.844860       -22.9898
  31   2.0000      -0.814755       -22.1706
  32   2.0000      -0.783780       -21.3277
  33   2.0000      -0.772901       -21.0317
  34   2.0000      -0.710967       -19.3464
  35   2.0000      -0.695060       -18.9136
  36   2.0000      -0.685921       -18.6648
  37   2.0000      -0.664648       -18.0860
  38   2.0000      -0.638344       -17.3702
  39   2.0000      -0.620534       -16.8856
  40   2.0000      -0.586201       -15.9513
  41   2.0000      -0.580570       -15.7981
  42   2.0000      -0.564278       -15.3548
  43   2.0000      -0.562176       -15.2976
  44   2.0000      -0.552301       -15.0289
  45   2.0000      -0.524878       -14.2826
  46   2.0000      -0.513198       -13.9648
  47   2.0000      -0.504298       -13.7226
  48   2.0000      -0.498662       -13.5693
  49   2.0000      -0.498010       -13.5515
  50   2.0000      -0.484051       -13.1717
  51   2.0000      -0.480399       -13.0723
  52   2.0000      -0.470041       -12.7905
  53   2.0000      -0.467165       -12.7122
  54   2.0000      -0.463423       -12.6104
  55   2.0000      -0.446020       -12.1368
  56   2.0000      -0.443362       -12.0645
  57   2.0000      -0.439469       -11.9586
  58   2.0000      -0.438563       -11.9339
  59   2.0000      -0.427419       -11.6307
  60   2.0000      -0.424654       -11.5554
  61   2.0000      -0.418218       -11.3803
  62   2.0000      -0.393371       -10.7042
  63   2.0000      -0.338248        -9.2042
  64   2.0000      -0.332506        -9.0479
  65   2.0000      -0.319028        -8.6812
  66   2.0000      -0.306523        -8.3409
  67   0.0000       0.040189         1.0936
  68   0.0000       0.048086         1.3085
  69   0.0000       0.106812         2.9065
  70   0.0000       0.119808         3.2601
  71   0.0000       0.128871         3.5068

MULLIKEN ATOMIC CHARGES
-----------------------
   0 S :    0.131273
   1 C :   -0.136608
   2 C :   -0.059932
   3 C :    0.039328
   4 C :   -0.190489
   5 H :    0.023171
   6 C :    0.057630
   7 H :    0.029395
   8 H :    0.037545
   9 C :   -0.121510
  10 H :    0.024270
  11 H :    0.046144
  12 C :   -0.036650
  13 H :    0.031620
  14 H :    0.035800
  15 H :    0.028890
  16 S :    0.127649
  17 C :   -0.016826
  18 C :   -0.028091
  19 C :   -0.098594
  20 C :   -0.171959
  21 H :   -0.000133
  22 C :    0.150204
  23 H :    0.018067
  24 H :    0.001252
  25 C :   -0.071992
  26 H :    0.023939
  27 H :    0.024846
  28 C :   -0.061734
  29 H :    0.025197
  30 H :    0.023275
  31 H :    0.048624
  32 H :    0.051551
  33 H :    0.014847
Sum of atomic charges:    0.0000000

LOEWDIN ATOMIC CHARGES
----------------------
   0 S :    0.412971
   1 C :   -0.193933
   2 C :   -0.068584
   3 C :   -0.054320
   4 C :   -0.204202
   5 H :    0.036617
   6 C :   -0.033153
   7 H :    0.033206
   8 H :    0.035892
   9 C :   -0.043822
  10 H :    0.021519
  11 H :    0.026261
  12 C :   -0.063778
  13 H :    0.030463
  14 H :    0.020974
  15 H :    0.019885
  16 S :    0.406714
  17 C :   -0.173279
  18 C :   -0.060473
  19 C :   -0.046834
  20 C :   -0.210347
  21 H :    0.022313
  22 C :   -0.025715
  23 H :    0.023706
  24 H :    0.027895
  25 C :   -0.045166
  26 H :    0.018435
  27 H :    0.027869
  28 C :   -0.069165
  29 H :    0.031286
  30 H :    0.023195
  31 H :    0.022466
  32 H :    0.033170
  33 H :    0.017933

  Mayer bond orders larger than 0.100000
B(  0-S ,  1-C ) :   1.1468 B(  0-S ,  4-C ) :   1.1665 B(  1-C ,  2-C ) :   1.5930
B(  1-C ,  4-C ) :   0.1085 B(  1-C , 32-H ) :   0.9621 B(  2-C ,  3-C ) :   1.2787
B(  2-C ,  6-C ) :   1.0236 B(  3-C ,  4-C ) :   1.5491 B(  3-C ,  5-H ) :   0.9856
B(  4-C , 20-C ) :   1.0268 B(  6-C ,  7-H ) :   0.9332 B(  6-C ,  8-H ) :   0.9479
B(  6-C ,  9-C ) :   1.0571 B(  9-C , 10-H ) :   0.9578 B(  9-C , 11-H ) :   0.9616
B(  9-C , 12-C ) :   1.0645 B( 12-C , 13-H ) :   0.9709 B( 12-C , 14-H ) :   0.9777
B( 12-C , 15-H ) :   0.9782 B( 16-S , 17-C ) :   1.1454 B( 16-S , 20-C ) :   1.1283
B( 17-C , 18-C ) :   1.6232 B( 17-C , 33-H ) :   0.9642 B( 18-C , 19-C ) :   1.2517
B( 18-C , 21-H ) :   0.9889 B( 19-C , 20-C ) :   1.6003 B( 19-C , 22-C ) :   1.0363
B( 22-C , 23-H ) :   0.9241 B( 22-C , 24-H ) :   0.9296 B( 22-C , 25-C ) :   1.0793
B( 25-C , 26-H ) :   0.9513 B( 25-C , 27-H ) :   0.9509 B( 25-C , 28-C ) :   1.0857
B( 28-C , 29-H ) :   0.9705 B( 28-C , 30-H ) :   0.9733 B( 28-C , 31-H ) :   0.9694

Dispersion correction           -0.015491842
FINAL SINGLE POINT ENERGY     -1339.862868828724

DIPOLE MOMENT
-------------
                                X             Y             Z
Electronic contribution:     12.84836     -16.10164      20.98956
Nuclear contribution   :    -13.20564      16.50804     -21.37672
                        -----------------------------------------
Total Dipole Moment    :     -0.35728       0.40640      -0.38716
                        -----------------------------------------
Magnitude (a.u.)       :      0.66536
Magnitude (Debye)      :      1.69121

Rotational constants in cm-1:     0.021214     0.008366     0.007107
Rotational constants in MHz :   635.980619   250.802546   213.053398

                             ****ORCA TERMINATED NORMALLY****
TOTAL RUN TIME: 0 days 0 hours 0 minutes 22 seconds 490 msec
