                         Program Version 4.2.1 -  RELEASE  -
|  1> ! wB97X-D3 SP def2-SVP
|  2> %pal
|  3> nprocs 24
|  4> end
|  5>
|  6> * xyz 0 1
|  7> S 	 -120.191 	 12.5016 	 -8.07099
|  8> C 	 -119.261 	 13.1491 	 -6.65532
|  9> C 	 -117.919 	 13.233 	 -6.95168
| 10> C 	 -117.678 	 12.9135 	 -8.3238
| 11> C 	 -118.808 	 12.4763 	 -9.09203
| 12> H 	 -116.645 	 12.9502 	 -8.71007
| 13> C 	 -116.744 	 13.625 	 -6.06378
| 14> H 	 -116.734 	 14.6727 	 -5.83955
| 15> H 	 -115.84 	 13.3869 	 -6.6635
| 16> C 	 -116.606 	 12.8653 	 -4.75408
| 17> H 	 -117.445 	 13.3376 	 -4.09674
| 18> H 	 -116.856 	 11.8489 	 -4.89512
| 19> C 	 -115.246 	 13.0683 	 -4.12609
| 20> H 	 -115.203 	 12.6561 	 -3.09015
| 21> H 	 -114.481 	 12.5732 	 -4.73566
| 22> H 	 -114.963 	 14.1269 	 -4.16128
| 23> S 	 -119.776 	 13.2196 	 -11.5257
| 24> C 	 -119.439 	 12.1795 	 -12.9585
| 25> C 	 -118.643 	 11.0782 	 -12.5821
| 26> C 	 -118.294 	 11.086 	 -11.1926
| 27> C 	 -118.914 	 12.1006 	 -10.4743
| 28> H 	 -118.384 	 10.3832 	 -13.3705
| 29> C 	 -117.545 	 9.94988 	 -10.667
| 30> H 	 -117.173 	 10.2787 	 -9.67982
| 31> H 	 -116.732 	 9.85031 	 -11.4361
| 32> C 	 -118.356 	 8.64666 	 -10.6906
| 33> H 	 -117.687 	 7.75907 	 -10.5679
| 34> H 	 -118.791 	 8.62131 	 -11.6268
| 35> C 	 -119.466 	 8.71535 	 -9.6371
| 36> H 	 -118.943 	 8.70387 	 -8.67466
| 37> H 	 -120.131 	 7.80646 	 -9.55239
| 38> H 	 -120.035 	 9.64545 	 -9.63029
| 39> H 	 -119.711 	 13.2529 	 -5.73315
| 40> H 	 -119.625 	 12.6551 	 -13.9259
| 41> *
| 42>
| 43>                          ****END OF INPUT****

CARTESIAN COORDINATES (ANGSTROEM)
---------------------------------
  S    -120.191000   12.501600   -8.070990
  C    -119.261000   13.149100   -6.655320
  C    -117.919000   13.233000   -6.951680
  C    -117.678000   12.913500   -8.323800
  C    -118.808000   12.476300   -9.092030
  H    -116.645000   12.950200   -8.710070
  C    -116.744000   13.625000   -6.063780
  H    -116.734000   14.672700   -5.839550
  H    -115.840000   13.386900   -6.663500
  C    -116.606000   12.865300   -4.754080
  H    -117.445000   13.337600   -4.096740
  H    -116.856000   11.848900   -4.895120
  C    -115.246000   13.068300   -4.126090
  H    -115.203000   12.656100   -3.090150
  H    -114.481000   12.573200   -4.735660
  H    -114.963000   14.126900   -4.161280
  S    -119.776000   13.219600  -11.525700
  C    -119.439000   12.179500  -12.958500
  C    -118.643000   11.078200  -12.582100
  C    -118.294000   11.086000  -11.192600
  C    -118.914000   12.100600  -10.474300
  H    -118.384000   10.383200  -13.370500
  C    -117.545000    9.949880  -10.667000
  H    -117.173000   10.278700   -9.679820
  H    -116.732000    9.850310  -11.436100
  C    -118.356000    8.646660  -10.690600
  H    -117.687000    7.759070  -10.567900
  H    -118.791000    8.621310  -11.626800
  C    -119.466000    8.715350   -9.637100
  H    -118.943000    8.703870   -8.674660
  H    -120.131000    7.806460   -9.552390
  H    -120.035000    9.645450   -9.630290
  H    -119.711000   13.252900   -5.733150
  H    -119.625000   12.655100  -13.925900

 Total Charge           Charge          ....    0
 Multiplicity           Mult            ....    1
 Number of Electrons    NEL             ....  134
 Basis Dimension        Dim             ....  322

ORBITAL ENERGIES
----------------

  NO   OCC          E(Eh)            E(eV)
   0   2.0000     -88.967284     -2420.9229
   1   2.0000     -88.962899     -2420.8035
   2   2.0000     -10.333208      -281.1809
   3   2.0000     -10.327359      -281.0217
   4   2.0000     -10.327218      -281.0179
   5   2.0000     -10.314536      -280.6728
   6   2.0000     -10.303865      -280.3824
   7   2.0000     -10.303086      -280.3612
   8   2.0000     -10.301742      -280.3247
   9   2.0000     -10.299580      -280.2658
  10   2.0000     -10.293837      -280.1096
  11   2.0000     -10.289936      -280.0034
  12   2.0000     -10.289416      -279.9892
  13   2.0000     -10.284542      -279.8566
  14   2.0000     -10.283418      -279.8260
  15   2.0000     -10.273444      -279.5546
  16   2.0000      -8.081394      -219.9059
  17   2.0000      -8.077089      -219.7888
  18   2.0000      -6.039882      -164.3536
  19   2.0000      -6.035838      -164.2435
  20   2.0000      -6.035615      -164.2374
  21   2.0000      -6.032352      -164.1487
  22   2.0000      -6.031612      -164.1285
  23   2.0000      -6.027914      -164.0279
  24   2.0000      -1.003358       -27.3028
  25   2.0000      -0.978745       -26.6330
  26   2.0000      -0.919024       -25.0079
  27   2.0000      -0.914182       -24.8762
  28   2.0000      -0.872355       -23.7380
  29   2.0000      -0.845387       -23.0042
  30   2.0000      -0.843875       -22.9630
  31   2.0000      -0.806502       -21.9460
  32   2.0000      -0.783008       -21.3067
  33   2.0000      -0.770621       -20.9697
  34   2.0000      -0.709796       -19.3145
  35   2.0000      -0.702865       -19.1259
  36   2.0000      -0.693991       -18.8845
  37   2.0000      -0.662950       -18.0398
  38   2.0000      -0.643129       -17.5004
  39   2.0000      -0.618304       -16.8249
  40   2.0000      -0.597280       -16.2528
  41   2.0000      -0.569534       -15.4978
  42   2.0000      -0.566845       -15.4246
  43   2.0000      -0.555869       -15.1260
  44   2.0000      -0.541154       -14.7255
  45   2.0000      -0.524631       -14.2759
  46   2.0000      -0.520285       -14.1577
  47   2.0000      -0.510021       -13.8784
  48   2.0000      -0.504684       -13.7331
  49   2.0000      -0.495910       -13.4944
  50   2.0000      -0.493849       -13.4383
  51   2.0000      -0.474559       -12.9134
  52   2.0000      -0.470836       -12.8121
  53   2.0000      -0.460869       -12.5409
  54   2.0000      -0.453488       -12.3400
  55   2.0000      -0.447471       -12.1763
  56   2.0000      -0.443903       -12.0792
  57   2.0000      -0.436898       -11.8886
  58   2.0000      -0.431866       -11.7517
  59   2.0000      -0.424853       -11.5608
  60   2.0000      -0.421594       -11.4722
  61   2.0000      -0.416192       -11.3251
  62   2.0000      -0.411471       -11.1967
  63   2.0000      -0.338887        -9.2216
  64   2.0000      -0.335476        -9.1288
  65   2.0000      -0.324036        -8.8175
  66   2.0000      -0.296422        -8.0660
  67   0.0000       0.030544         0.8311
  68   0.0000       0.054154         1.4736
  69   0.0000       0.106614         2.9011
  70   0.0000       0.110431         3.0050
  71   0.0000       0.126750         3.4490

MULLIKEN ATOMIC CHARGES
-----------------------
   0 S :    0.105908
   1 C :   -0.111733
   2 C :   -0.070681
   3 C :    0.038447
   4 C :   -0.184252
   5 H :    0.018625
   6 C :    0.058720
   7 H :    0.042279
   8 H :    0.014123
   9 C :   -0.096148
  10 H :    0.035370
  11 H :    0.028697
  12 C :   -0.045731
  13 H :    0.050058
  14 H :    0.031336
  15 H :    0.029546
  16 S :    0.091910
  17 C :   -0.112392
  18 C :   -0.048830
  19 C :   -0.033002
  20 C :   -0.153846
  21 H :    0.034612
  22 C :    0.051118
  23 H :    0.026858
  24 H :    0.032716
  25 C :   -0.010388
  26 H :    0.040194
  27 H :    0.004774
  28 C :   -0.068140
  29 H :    0.018554
  30 H :    0.041607
  31 H :    0.039925
  32 H :    0.023139
  33 H :    0.076628
Sum of atomic charges:    0.0000000

LOEWDIN ATOMIC CHARGES
----------------------
   0 S :    0.407400
   1 C :   -0.168019
   2 C :   -0.060406
   3 C :   -0.067178
   4 C :   -0.211474
   5 H :    0.030846
   6 C :   -0.029429
   7 H :    0.031279
   8 H :    0.028659
   9 C :   -0.044207
  10 H :    0.029839
  11 H :    0.017612
  12 C :   -0.067426
  13 H :    0.034154
  14 H :    0.026061
  15 H :    0.026696
  16 S :    0.382473
  17 C :   -0.166393
  18 C :   -0.068671
  19 C :   -0.054561
  20 C :   -0.208108
  21 H :    0.034866
  22 C :   -0.034019
  23 H :    0.030201
  24 H :    0.039512
  25 C :   -0.029845
  26 H :    0.030588
  27 H :    0.010746
  28 C :   -0.071705
  29 H :    0.024912
  30 H :    0.030763
  31 H :    0.023895
  32 H :    0.009982
  33 H :    0.030959

  Mayer bond orders larger than 0.100000
B(  0-S ,  1-C ) :   1.1336 B(  0-S ,  4-C ) :   1.1803 B(  1-C ,  2-C ) :   1.5819
B(  1-C ,  4-C ) :   0.1082 B(  1-C , 32-H ) :   0.9861 B(  2-C ,  3-C ) :   1.2808
B(  2-C ,  6-C ) :   1.0085 B(  3-C ,  4-C ) :   1.5270 B(  3-C ,  5-H ) :   0.9862
B(  4-C , 20-C ) :   1.0356 B(  6-C ,  7-H ) :   0.9343 B(  6-C ,  8-H ) :   0.9460
B(  6-C ,  9-C ) :   1.0607 B(  9-C , 10-H ) :   0.9495 B(  9-C , 11-H ) :   0.9624
B(  9-C , 12-C ) :   1.0870 B( 12-C , 13-H ) :   0.9718 B( 12-C , 14-H ) :   0.9722
B( 12-C , 15-H ) :   0.9712 B( 16-S , 17-C ) :   1.1536 B( 16-S , 20-C ) :   1.1407
B( 17-C , 18-C ) :   1.5978 B( 17-C , 20-C ) :   0.1041 B( 17-C , 33-H ) :   0.9666
B( 18-C , 19-C ) :   1.2154 B( 18-C , 21-H ) :   0.9882 B( 19-C , 20-C ) :   1.5883
B( 19-C , 22-C ) :   1.0590 B( 22-C , 23-H ) :   0.9310 B( 22-C , 24-H ) :   0.9196
B( 22-C , 25-C ) :   1.0706 B( 25-C , 26-H ) :   0.9551 B( 25-C , 27-H ) :   0.9507
B( 25-C , 28-C ) :   1.0642 B( 28-C , 29-H ) :   0.9743 B( 28-C , 30-H ) :   0.9736
B( 28-C , 31-H ) :   0.9746

Dispersion correction           -0.014697726
FINAL SINGLE POINT ENERGY     -1339.873588946459

DIPOLE MOMENT
-------------
                                X             Y             Z
Electronic contribution:    -16.27369      11.18542     -15.48426
Nuclear contribution   :     16.90790     -11.40896      15.59627
                        -----------------------------------------
Total Dipole Moment    :      0.63421      -0.22354       0.11202
                        -----------------------------------------
Magnitude (a.u.)       :      0.68172
Magnitude (Debye)      :      1.73280

Rotational constants in cm-1:     0.022291     0.007590     0.006806
Rotational constants in MHz :   668.261315   227.533401   204.033728

                             ****ORCA TERMINATED NORMALLY****
TOTAL RUN TIME: 0 days 0 hours 0 minutes 21 seconds 942 msec
