                         Program Version 4.2.1 -  RELEASE  -
|  1> ! wB97X-D3 SP def2-SVP
|  2> %pal
|  3> nprocs 24
|  4> end
|  5>
|  6> * xyz 0 1
|  7> S 	 -65.1188 	 -56.2694 	 -83.3044
|  8> C 	 -65.3774 	 -57.965 	 -83.5736
|  9> C 	 -64.5718 	 -58.7344 	 -82.7377
| 10> C 	 -63.9553 	 -57.9032 	 -81.7467
| 11> C 	 -64.3459 	 -56.5786 	 -81.7812
| 12> H 	 -63.2596 	 -58.3269 	 -81.0064
| 13> C 	 -64.3877 	 -60.2173 	 -82.9918
| 14> H 	 -63.322 	 -60.5049 	 -82.8508
| 15> H 	 -64.6031 	 -60.4496 	 -84.0571
| 16> C 	 -65.3248 	 -61.0975 	 -82.1718
| 17> H 	 -66.353 	 -60.8742 	 -82.3866
| 18> H 	 -65.25 	 -62.154 	 -82.565
| 19> C 	 -65.0345 	 -61.0343 	 -80.6866
| 20> H 	 -65.3831 	 -60.087 	 -80.2336
| 21> H 	 -65.4629 	 -61.9211 	 -80.1142
| 22> H 	 -63.9785 	 -60.9799 	 -80.5619
| 23> S 	 -63.2829 	 -54.006 	 -81.543
| 24> C 	 -63.1981 	 -53.2375 	 -80.0225
| 25> C 	 -63.4862 	 -54.1657 	 -79.0234
| 26> C 	 -63.9734 	 -55.4164 	 -79.4603
| 27> C 	 -64.0193 	 -55.5184 	 -80.845
| 28> H 	 -63.2704 	 -53.8808 	 -78.0052
| 29> C 	 -64.5187 	 -56.4633 	 -78.5404
| 30> H 	 -63.9375 	 -56.2948 	 -77.5929
| 31> H 	 -64.2804 	 -57.5375 	 -78.8338
| 32> C 	 -65.9721 	 -56.5109 	 -78.2147
| 33> H 	 -66.5252 	 -57.1527 	 -78.8578
| 34> H 	 -66.3414 	 -55.5548 	 -78.3108
| 35> C 	 -66.2799 	 -56.9612 	 -76.8014
| 36> H 	 -66.4732 	 -58.0556 	 -76.7041
| 37> H 	 -67.1884 	 -56.4256 	 -76.5549
| 38> H 	 -65.5295 	 -56.6834 	 -76.0379
| 39> H 	 -65.7675 	 -58.3738 	 -84.4652
| 40> H 	 -62.7504 	 -52.264 	 -79.8994
| 41> *
| 42>
| 43>                          ****END OF INPUT****

CARTESIAN COORDINATES (ANGSTROEM)
---------------------------------
  S    -65.118800  -56.269400  -83.304400
  C    -65.377400  -57.965000  -83.573600
  C    -64.571800  -58.734400  -82.737700
  C    -63.955300  -57.903200  -81.746700
  C    -64.345900  -56.578600  -81.781200
  H    -63.259600  -58.326900  -81.006400
  C    -64.387700  -60.217300  -82.991800
  H    -63.322000  -60.504900  -82.850800
  H    -64.603100  -60.449600  -84.057100
  C    -65.324800  -61.097500  -82.171800
  H    -66.353000  -60.874200  -82.386600
  H    -65.250000  -62.154000  -82.565000
  C    -65.034500  -61.034300  -80.686600
  H    -65.383100  -60.087000  -80.233600
  H    -65.462900  -61.921100  -80.114200
  H    -63.978500  -60.979900  -80.561900
  S    -63.282900  -54.006000  -81.543000
  C    -63.198100  -53.237500  -80.022500
  C    -63.486200  -54.165700  -79.023400
  C    -63.973400  -55.416400  -79.460300
  C    -64.019300  -55.518400  -80.845000
  H    -63.270400  -53.880800  -78.005200
  C    -64.518700  -56.463300  -78.540400
  H    -63.937500  -56.294800  -77.592900
  H    -64.280400  -57.537500  -78.833800
  C    -65.972100  -56.510900  -78.214700
  H    -66.525200  -57.152700  -78.857800
  H    -66.341400  -55.554800  -78.310800
  C    -66.279900  -56.961200  -76.801400
  H    -66.473200  -58.055600  -76.704100
  H    -67.188400  -56.425600  -76.554900
  H    -65.529500  -56.683400  -76.037900
  H    -65.767500  -58.373800  -84.465200
  H    -62.750400  -52.264000  -79.899400

 Total Charge           Charge          ....    0
 Multiplicity           Mult            ....    1
 Number of Electrons    NEL             ....  134
 Basis Dimension        Dim             ....  322

ORBITAL ENERGIES
----------------

  NO   OCC          E(Eh)            E(eV)
   0   2.0000     -88.965905     -2420.8854
   1   2.0000     -88.962644     -2420.7966
   2   2.0000     -10.331240      -281.1273
   3   2.0000     -10.330661      -281.1116
   4   2.0000     -10.317897      -280.7643
   5   2.0000     -10.309934      -280.5476
   6   2.0000     -10.304739      -280.4062
   7   2.0000     -10.302326      -280.3405
   8   2.0000     -10.298633      -280.2401
   9   2.0000     -10.298496      -280.2363
  10   2.0000     -10.294241      -280.1206
  11   2.0000     -10.291835      -280.0551
  12   2.0000     -10.287050      -279.9249
  13   2.0000     -10.280352      -279.7426
  14   2.0000     -10.276627      -279.6412
  15   2.0000     -10.269306      -279.4420
  16   2.0000      -8.081213      -219.9010
  17   2.0000      -8.077495      -219.7998
  18   2.0000      -6.039646      -164.3471
  19   2.0000      -6.035891      -164.2449
  20   2.0000      -6.035848      -164.2438
  21   2.0000      -6.031956      -164.1379
  22   2.0000      -6.031797      -164.1335
  23   2.0000      -6.028382      -164.0406
  24   2.0000      -1.008674       -27.4474
  25   2.0000      -0.987248       -26.8644
  26   2.0000      -0.916945       -24.9513
  27   2.0000      -0.916118       -24.9288
  28   2.0000      -0.870613       -23.6906
  29   2.0000      -0.856215       -23.2988
  30   2.0000      -0.843119       -22.9424
  31   2.0000      -0.813874       -22.1466
  32   2.0000      -0.783500       -21.3201
  33   2.0000      -0.772158       -21.0115
  34   2.0000      -0.708320       -19.2744
  35   2.0000      -0.701013       -19.0755
  36   2.0000      -0.693454       -18.8698
  37   2.0000      -0.662906       -18.0386
  38   2.0000      -0.640008       -17.4155
  39   2.0000      -0.620324       -16.8799
  40   2.0000      -0.602504       -16.3950
  41   2.0000      -0.572835       -15.5876
  42   2.0000      -0.567323       -15.4376
  43   2.0000      -0.549364       -14.9489
  44   2.0000      -0.540290       -14.7020
  45   2.0000      -0.527481       -14.3535
  46   2.0000      -0.520435       -14.1618
  47   2.0000      -0.511543       -13.9198
  48   2.0000      -0.507649       -13.8138
  49   2.0000      -0.501903       -13.6575
  50   2.0000      -0.492456       -13.4004
  51   2.0000      -0.474375       -12.9084
  52   2.0000      -0.472664       -12.8619
  53   2.0000      -0.467657       -12.7256
  54   2.0000      -0.460343       -12.5266
  55   2.0000      -0.444724       -12.1016
  56   2.0000      -0.441025       -12.0009
  57   2.0000      -0.440102       -11.9758
  58   2.0000      -0.438105       -11.9214
  59   2.0000      -0.430946       -11.7266
  60   2.0000      -0.415203       -11.2983
  61   2.0000      -0.412575       -11.2267
  62   2.0000      -0.404786       -11.0148
  63   2.0000      -0.349629        -9.5139
  64   2.0000      -0.330920        -9.0048
  65   2.0000      -0.328885        -8.9494
  66   2.0000      -0.287897        -7.8341
  67   0.0000       0.019446         0.5292
  68   0.0000       0.065652         1.7865
  69   0.0000       0.100844         2.7441
  70   0.0000       0.118492         3.2243
  71   0.0000       0.123947         3.3728

MULLIKEN ATOMIC CHARGES
-----------------------
   0 S :    0.117216
   1 C :   -0.082125
   2 C :   -0.115047
   3 C :    0.025145
   4 C :   -0.150797
   5 H :    0.022926
   6 C :    0.031478
   7 H :    0.040114
   8 H :    0.025945
   9 C :   -0.058611
  10 H :    0.020211
  11 H :    0.030665
  12 C :   -0.057950
  13 H :    0.042158
  14 H :    0.051317
  15 H :    0.013239
  16 S :    0.084926
  17 C :   -0.085428
  18 C :   -0.052102
  19 C :   -0.004866
  20 C :   -0.138566
  21 H :    0.014608
  22 C :    0.013049
  23 H :    0.020162
  24 H :    0.029059
  25 C :    0.018901
  26 H :    0.027253
  27 H :    0.004114
  28 C :   -0.084703
  29 H :    0.040358
  30 H :    0.030294
  31 H :    0.030586
  32 H :    0.032146
  33 H :    0.064326
Sum of atomic charges:   -0.0000000

LOEWDIN ATOMIC CHARGES
----------------------
   0 S :    0.420470
   1 C :   -0.192410
   2 C :   -0.063258
   3 C :   -0.063359
   4 C :   -0.201980
   5 H :    0.032997
   6 C :   -0.033996
   7 H :    0.034233
   8 H :    0.034051
   9 C :   -0.044835
  10 H :    0.020179
  11 H :    0.028077
  12 C :   -0.071080
  13 H :    0.028027
  14 H :    0.036530
  15 H :    0.015888
  16 S :    0.392315
  17 C :   -0.192194
  18 C :   -0.075489
  19 C :   -0.059938
  20 C :   -0.171580
  21 H :    0.029075
  22 C :   -0.039866
  23 H :    0.033102
  24 H :    0.035076
  25 C :   -0.035770
  26 H :    0.026394
  27 H :    0.014863
  28 C :   -0.064434
  29 H :    0.027662
  30 H :    0.028486
  31 H :    0.023808
  32 H :    0.017755
  33 H :    0.031200

  Mayer bond orders larger than 0.100000
B(  0-S ,  1-C ) :   1.1491 B(  0-S ,  4-C ) :   1.1607 B(  1-C ,  2-C ) :   1.5971
B(  1-C ,  4-C ) :   0.1049 B(  1-C , 32-H ) :   0.9682 B(  2-C ,  3-C ) :   1.2630
B(  2-C ,  6-C ) :   1.0171 B(  3-C ,  4-C ) :   1.5329 B(  3-C ,  5-H ) :   0.9935
B(  4-C , 20-C ) :   1.0640 B(  6-C ,  7-H ) :   0.9462 B(  6-C ,  8-H ) :   0.9402
B(  6-C ,  9-C ) :   1.0802 B(  9-C , 10-H ) :   0.9523 B(  9-C , 11-H ) :   0.9545
B(  9-C , 12-C ) :   1.0742 B( 12-C , 13-H ) :   0.9697 B( 12-C , 14-H ) :   0.9722
B( 12-C , 15-H ) :   0.9744 B( 16-S , 17-C ) :   1.1747 B( 16-S , 20-C ) :   1.1368
B( 17-C , 18-C ) :   1.5716 B( 17-C , 20-C ) :   0.1075 B( 17-C , 33-H ) :   0.9697
B( 18-C , 19-C ) :   1.2550 B( 18-C , 21-H ) :   0.9936 B( 19-C , 20-C ) :   1.5723
B( 19-C , 22-C ) :   1.0594 B( 22-C , 23-H ) :   0.9322 B( 22-C , 24-H ) :   0.9307
B( 22-C , 25-C ) :   1.0725 B( 25-C , 26-H ) :   0.9453 B( 25-C , 27-H ) :   0.9552
B( 25-C , 28-C ) :   1.0824 B( 28-C , 29-H ) :   0.9785 B( 28-C , 30-H ) :   0.9780
B( 28-C , 31-H ) :   0.9765

Dispersion correction           -0.014504912
FINAL SINGLE POINT ENERGY     -1339.872658784457

DIPOLE MOMENT
-------------
                                X             Y             Z
Electronic contribution:      7.77543      23.31776     -18.03493
Nuclear contribution   :     -7.69190     -23.79472      18.36171
                        -----------------------------------------
Total Dipole Moment    :      0.08353      -0.47695       0.32678
                        -----------------------------------------
Magnitude (a.u.)       :      0.58417
Magnitude (Debye)      :      1.48483

Rotational constants in cm-1:     0.017152     0.009912     0.006943
Rotational constants in MHz :   514.200936   297.166497   208.155073

                             ****ORCA TERMINATED NORMALLY****
TOTAL RUN TIME: 0 days 0 hours 0 minutes 22 seconds 227 msec
