                         Program Version 4.2.1 -  RELEASE  -
|  1> ! wB97X-D3 SP def2-SVP
|  2> %pal
|  3> nprocs 24
|  4> end
|  5>
|  6> * xyz 0 1
|  7> S 	 -126.702 	 59.4852 	 -56.6731
|  8> C 	 -125.48 	 59.7425 	 -57.9251
|  9> C 	 -125.845 	 60.7478 	 -58.8007
| 10> C 	 -127.101 	 61.4394 	 -58.4534
| 11> C 	 -127.784 	 60.747 	 -57.4031
| 12> H 	 -127.579 	 62.173 	 -59.0956
| 13> C 	 -125.032 	 61.2026 	 -60.0094
| 14> H 	 -124.08 	 60.5877 	 -60.12
| 15> H 	 -124.823 	 62.2377 	 -59.7745
| 16> C 	 -125.805 	 61.1045 	 -61.3614
| 17> H 	 -125.833 	 60.0615 	 -61.5274
| 18> H 	 -126.791 	 61.5215 	 -61.1902
| 19> C 	 -125.174 	 61.8283 	 -62.5475
| 20> H 	 -125.311 	 62.9208 	 -62.3404
| 21> H 	 -124.154 	 61.5854 	 -62.7537
| 22> H 	 -125.671 	 61.5906 	 -63.4647
| 23> S 	 -130.24 	 61.4035 	 -58.3129
| 24> C 	 -131.418 	 61.97 	 -57.1937
| 25> C 	 -131.007 	 61.6949 	 -55.9048
| 26> C 	 -129.706 	 61.081 	 -55.7586
| 27> C 	 -129.131 	 61.099 	 -56.9924
| 28> H 	 -131.725 	 61.8213 	 -55.1035
| 29> C 	 -129.119 	 60.7224 	 -54.4049
| 30> H 	 -128.962 	 61.4785 	 -53.5927
| 31> H 	 -128.061 	 60.4558 	 -54.5958
| 32> C 	 -129.828 	 59.465 	 -53.7477
| 33> H 	 -130.181 	 58.8706 	 -54.5423
| 34> H 	 -130.832 	 59.6776 	 -53.4269
| 35> C 	 -128.937 	 58.7205 	 -52.878
| 36> H 	 -129.494 	 57.9721 	 -52.3285
| 37> H 	 -128.393 	 59.2687 	 -52.1013
| 38> H 	 -128.209 	 58.138 	 -53.4617
| 39> H 	 -124.746 	 59.0151 	 -58.117
| 40> H 	 -132.368 	 62.4708 	 -57.3457
| 41> *
| 42>
| 43>                          ****END OF INPUT****

CARTESIAN COORDINATES (ANGSTROEM)
---------------------------------
  S    -126.702000   59.485200  -56.673100
  C    -125.480000   59.742500  -57.925100
  C    -125.845000   60.747800  -58.800700
  C    -127.101000   61.439400  -58.453400
  C    -127.784000   60.747000  -57.403100
  H    -127.579000   62.173000  -59.095600
  C    -125.032000   61.202600  -60.009400
  H    -124.080000   60.587700  -60.120000
  H    -124.823000   62.237700  -59.774500
  C    -125.805000   61.104500  -61.361400
  H    -125.833000   60.061500  -61.527400
  H    -126.791000   61.521500  -61.190200
  C    -125.174000   61.828300  -62.547500
  H    -125.311000   62.920800  -62.340400
  H    -124.154000   61.585400  -62.753700
  H    -125.671000   61.590600  -63.464700
  S    -130.240000   61.403500  -58.312900
  C    -131.418000   61.970000  -57.193700
  C    -131.007000   61.694900  -55.904800
  C    -129.706000   61.081000  -55.758600
  C    -129.131000   61.099000  -56.992400
  H    -131.725000   61.821300  -55.103500
  C    -129.119000   60.722400  -54.404900
  H    -128.962000   61.478500  -53.592700
  H    -128.061000   60.455800  -54.595800
  C    -129.828000   59.465000  -53.747700
  H    -130.181000   58.870600  -54.542300
  H    -130.832000   59.677600  -53.426900
  C    -128.937000   58.720500  -52.878000
  H    -129.494000   57.972100  -52.328500
  H    -128.393000   59.268700  -52.101300
  H    -128.209000   58.138000  -53.461700
  H    -124.746000   59.015100  -58.117000
  H    -132.368000   62.470800  -57.345700

 Total Charge           Charge          ....    0
 Multiplicity           Mult            ....    1
 Number of Electrons    NEL             ....  134
 Basis Dimension        Dim             ....  322

ORBITAL ENERGIES
----------------

  NO   OCC          E(Eh)            E(eV)
   0   2.0000     -88.968985     -2420.9691
   1   2.0000     -88.968644     -2420.9599
   2   2.0000     -10.340804      -281.3876
   3   2.0000     -10.326642      -281.0022
   4   2.0000     -10.313492      -280.6444
   5   2.0000     -10.312096      -280.6064
   6   2.0000     -10.307134      -280.4714
   7   2.0000     -10.304078      -280.3882
   8   2.0000     -10.303413      -280.3701
   9   2.0000     -10.298517      -280.2369
  10   2.0000     -10.296060      -280.1700
  11   2.0000     -10.291371      -280.0424
  12   2.0000     -10.282867      -279.8110
  13   2.0000     -10.277141      -279.6552
  14   2.0000     -10.276966      -279.6505
  15   2.0000     -10.273143      -279.5464
  16   2.0000      -8.084024      -219.9775
  17   2.0000      -8.081519      -219.9093
  18   2.0000      -6.042645      -164.4287
  19   2.0000      -6.040319      -164.3654
  20   2.0000      -6.038649      -164.3200
  21   2.0000      -6.036282      -164.2556
  22   2.0000      -6.034466      -164.2062
  23   2.0000      -6.032102      -164.1418
  24   2.0000      -1.007751       -27.4223
  25   2.0000      -0.974952       -26.5298
  26   2.0000      -0.912090       -24.8192
  27   2.0000      -0.906931       -24.6788
  28   2.0000      -0.870894       -23.6982
  29   2.0000      -0.858858       -23.3707
  30   2.0000      -0.844138       -22.9702
  31   2.0000      -0.808483       -21.9999
  32   2.0000      -0.781755       -21.2726
  33   2.0000      -0.771093       -20.9825
  34   2.0000      -0.710603       -19.3365
  35   2.0000      -0.704798       -19.1785
  36   2.0000      -0.695007       -18.9121
  37   2.0000      -0.662603       -18.0303
  38   2.0000      -0.635506       -17.2930
  39   2.0000      -0.613470       -16.6934
  40   2.0000      -0.600818       -16.3491
  41   2.0000      -0.573140       -15.5959
  42   2.0000      -0.558645       -15.2015
  43   2.0000      -0.555830       -15.1249
  44   2.0000      -0.525332       -14.2950
  45   2.0000      -0.520059       -14.1515
  46   2.0000      -0.519519       -14.1368
  47   2.0000      -0.513050       -13.9608
  48   2.0000      -0.508260       -13.8305
  49   2.0000      -0.504571       -13.7301
  50   2.0000      -0.489072       -13.3083
  51   2.0000      -0.482873       -13.1396
  52   2.0000      -0.476608       -12.9692
  53   2.0000      -0.471812       -12.8387
  54   2.0000      -0.461650       -12.5621
  55   2.0000      -0.446180       -12.1412
  56   2.0000      -0.439444       -11.9579
  57   2.0000      -0.437179       -11.8963
  58   2.0000      -0.429478       -11.6867
  59   2.0000      -0.422235       -11.4896
  60   2.0000      -0.420601       -11.4451
  61   2.0000      -0.416171       -11.3246
  62   2.0000      -0.401642       -10.9292
  63   2.0000      -0.353362        -9.6155
  64   2.0000      -0.331179        -9.0118
  65   2.0000      -0.326560        -8.8861
  66   2.0000      -0.287122        -7.8130
  67   0.0000       0.020365         0.5542
  68   0.0000       0.078170         2.1271
  69   0.0000       0.099749         2.7143
  70   0.0000       0.109473         2.9789
  71   0.0000       0.126050         3.4300

MULLIKEN ATOMIC CHARGES
-----------------------
   0 S :    0.088564
   1 C :   -0.105784
   2 C :   -0.084971
   3 C :   -0.001102
   4 C :   -0.129073
   5 H :    0.033593
   6 C :    0.042387
   7 H :    0.031150
   8 H :    0.033254
   9 C :   -0.080208
  10 H :    0.023218
  11 H :    0.026826
  12 C :   -0.026557
  13 H :    0.036315
  14 H :    0.024704
  15 H :    0.029151
  16 S :    0.119485
  17 C :   -0.084554
  18 C :   -0.046741
  19 C :   -0.017259
  20 C :   -0.151834
  21 H :    0.013784
  22 C :    0.024044
  23 H :    0.050150
  24 H :    0.011660
  25 C :   -0.035995
  26 H :    0.007809
  27 H :    0.013035
  28 C :   -0.029578
  29 H :    0.021169
  30 H :    0.031733
  31 H :    0.036451
  32 H :    0.040318
  33 H :    0.054857
Sum of atomic charges:    0.0000000

LOEWDIN ATOMIC CHARGES
----------------------
   0 S :    0.372943
   1 C :   -0.193803
   2 C :   -0.053487
   3 C :   -0.067496
   4 C :   -0.164231
   5 H :    0.026542
   6 C :   -0.031812
   7 H :    0.034024
   8 H :    0.029513
   9 C :   -0.037016
  10 H :    0.018855
  11 H :    0.021902
  12 C :   -0.063014
  13 H :    0.031897
  14 H :    0.020476
  15 H :    0.025207
  16 S :    0.423452
  17 C :   -0.203936
  18 C :   -0.065666
  19 C :   -0.059392
  20 C :   -0.186412
  21 H :    0.026529
  22 C :   -0.035639
  23 H :    0.038371
  24 H :    0.018960
  25 C :   -0.046517
  26 H :    0.023837
  27 H :    0.021395
  28 C :   -0.065244
  29 H :    0.027627
  30 H :    0.025974
  31 H :    0.031421
  32 H :    0.020091
  33 H :    0.034648

  Mayer bond orders larger than 0.100000
B(  0-S ,  1-C ) :   1.1067 B(  0-S ,  4-C ) :   1.1294 B(  1-C ,  2-C ) :   1.6527
B(  1-C , 32-H ) :   0.9688 B(  2-C ,  3-C ) :   1.2008 B(  2-C ,  6-C ) :   1.0258
B(  3-C ,  4-C ) :   1.5618 B(  3-C ,  5-H ) :   0.9779 B(  4-C , 20-C ) :   1.0826
B(  6-C ,  7-H ) :   0.9478 B(  6-C ,  8-H ) :   0.9390 B(  6-C ,  9-C ) :   1.0534
B(  9-C , 10-H ) :   0.9571 B(  9-C , 11-H ) :   0.9585 B(  9-C , 12-C ) :   1.0880
B( 12-C , 13-H ) :   0.9754 B( 12-C , 14-H ) :   0.9738 B( 12-C , 15-H ) :   0.9729
B( 16-S , 17-C ) :   1.1251 B( 16-S , 20-C ) :   1.1440 B( 17-C , 18-C ) :   1.6456
B( 17-C , 33-H ) :   0.9669 B( 18-C , 19-C ) :   1.2023 B( 18-C , 21-H ) :   0.9853
B( 19-C , 20-C ) :   1.5904 B( 19-C , 22-C ) :   1.0488 B( 22-C , 23-H ) :   0.9418
B( 22-C , 24-H ) :   0.9326 B( 22-C , 25-C ) :   1.0304 B( 25-C , 26-H ) :   0.9450
B( 25-C , 27-H ) :   0.9509 B( 25-C , 28-C ) :   1.0976 B( 28-C , 29-H ) :   0.9663
B( 28-C , 30-H ) :   0.9731 B( 28-C , 31-H ) :   0.9706

Dispersion correction           -0.013891925
FINAL SINGLE POINT ENERGY     -1339.860003080373

DIPOLE MOMENT
-------------
                                X             Y             Z
Electronic contribution:     -7.51394       0.94775       1.11472
Nuclear contribution   :      7.45357      -0.96388      -1.23486
                        -----------------------------------------
Total Dipole Moment    :     -0.06038      -0.01612      -0.12014
                        -----------------------------------------
Magnitude (a.u.)       :      0.13542
Magnitude (Debye)      :      0.34422

Rotational constants in cm-1:     0.022350     0.007858     0.006015
Rotational constants in MHz :   670.049264   235.591153   180.324023

                             ****ORCA TERMINATED NORMALLY****
TOTAL RUN TIME: 0 days 0 hours 0 minutes 19 seconds 736 msec
