                         Program Version 4.2.1 -  RELEASE  -
|  1> ! wB97X-D3 SP def2-SVP
|  2> %pal
|  3> nprocs 24
|  4> end
|  5>
|  6> * xyz 0 1
|  7> S 	 37.6381 	 -23.8232 	 -122.142
|  8> C 	 37.5906 	 -23.1125 	 -123.758
|  9> C 	 37.37 	 -24.1355 	 -124.692
| 10> C 	 37.545 	 -25.44 	 -124.138
| 11> C 	 37.8808 	 -25.4444 	 -122.781
| 12> H 	 37.4005 	 -26.3251 	 -124.692
| 13> C 	 36.9399 	 -23.8341 	 -126.083
| 14> H 	 37.2504 	 -22.8007 	 -126.26
| 15> H 	 35.8727 	 -23.7273 	 -126.01
| 16> C 	 37.5587 	 -24.7403 	 -127.185
| 17> H 	 37.4245 	 -25.765 	 -127.077
| 18> H 	 37.079 	 -24.4245 	 -128.128
| 19> C 	 39.0474 	 -24.4646 	 -127.35
| 20> H 	 39.6714 	 -25.1216 	 -128.032
| 21> H 	 39.3066 	 -23.4247 	 -127.507
| 22> H 	 39.4981 	 -24.7443 	 -126.428
| 23> S 	 37.1871 	 -26.9252 	 -120.478
| 24> C 	 37.9144 	 -28.5497 	 -120.373
| 25> C 	 39.0053 	 -28.6382 	 -121.19
| 26> C 	 39.1166 	 -27.5528 	 -122.095
| 27> C 	 38.1071 	 -26.5737 	 -121.958
| 28> H 	 39.6709 	 -29.4859 	 -121.171
| 29> C 	 40.1378 	 -27.5755 	 -123.143
| 30> H 	 40.5249 	 -26.579 	 -123.135
| 31> H 	 39.6467 	 -27.6102 	 -124.119
| 32> C 	 41.3119 	 -28.5769 	 -123.074
| 33> H 	 40.9201 	 -29.5306 	 -122.996
| 34> H 	 41.8596 	 -28.3374 	 -122.104
| 35> C 	 42.2758 	 -28.4295 	 -124.259
| 36> H 	 43.0031 	 -27.6429 	 -124.158
| 37> H 	 41.7919 	 -28.3688 	 -125.259
| 38> H 	 42.8408 	 -29.35 	 -124.189
| 39> H 	 37.5533 	 -22.056 	 -123.986
| 40> H 	 37.5383 	 -29.2541 	 -119.602
| 41> *
| 42>
| 43>                          ****END OF INPUT****

CARTESIAN COORDINATES (ANGSTROEM)
---------------------------------
  S     37.638100  -23.823200  -122.142000
  C     37.590600  -23.112500  -123.758000
  C     37.370000  -24.135500  -124.692000
  C     37.545000  -25.440000  -124.138000
  C     37.880800  -25.444400  -122.781000
  H     37.400500  -26.325100  -124.692000
  C     36.939900  -23.834100  -126.083000
  H     37.250400  -22.800700  -126.260000
  H     35.872700  -23.727300  -126.010000
  C     37.558700  -24.740300  -127.185000
  H     37.424500  -25.765000  -127.077000
  H     37.079000  -24.424500  -128.128000
  C     39.047400  -24.464600  -127.350000
  H     39.671400  -25.121600  -128.032000
  H     39.306600  -23.424700  -127.507000
  H     39.498100  -24.744300  -126.428000
  S     37.187100  -26.925200  -120.478000
  C     37.914400  -28.549700  -120.373000
  C     39.005300  -28.638200  -121.190000
  C     39.116600  -27.552800  -122.095000
  C     38.107100  -26.573700  -121.958000
  H     39.670900  -29.485900  -121.171000
  C     40.137800  -27.575500  -123.143000
  H     40.524900  -26.579000  -123.135000
  H     39.646700  -27.610200  -124.119000
  C     41.311900  -28.576900  -123.074000
  H     40.920100  -29.530600  -122.996000
  H     41.859600  -28.337400  -122.104000
  C     42.275800  -28.429500  -124.259000
  H     43.003100  -27.642900  -124.158000
  H     41.791900  -28.368800  -125.259000
  H     42.840800  -29.350000  -124.189000
  H     37.553300  -22.056000  -123.986000
  H     37.538300  -29.254100  -119.602000

 Total Charge           Charge          ....    0
 Multiplicity           Mult            ....    1
 Number of Electrons    NEL             ....  134
 Basis Dimension        Dim             ....  322

ORBITAL ENERGIES
----------------

  NO   OCC          E(Eh)            E(eV)
   0   2.0000     -88.963467     -2420.8190
   1   2.0000     -88.962407     -2420.7902
   2   2.0000     -10.329602      -281.0828
   3   2.0000     -10.323562      -280.9184
   4   2.0000     -10.322232      -280.8822
   5   2.0000     -10.314094      -280.6608
   6   2.0000     -10.300047      -280.2785
   7   2.0000     -10.299909      -280.2748
   8   2.0000     -10.292836      -280.0823
   9   2.0000     -10.292723      -280.0792
  10   2.0000     -10.291803      -280.0542
  11   2.0000     -10.289990      -280.0049
  12   2.0000     -10.288368      -279.9607
  13   2.0000     -10.281025      -279.7609
  14   2.0000     -10.280270      -279.7404
  15   2.0000     -10.275871      -279.6207
  16   2.0000      -8.077845      -219.8093
  17   2.0000      -8.076456      -219.7715
  18   2.0000      -6.036408      -164.2590
  19   2.0000      -6.035086      -164.2230
  20   2.0000      -6.032544      -164.1539
  21   2.0000      -6.031189      -164.1170
  22   2.0000      -6.028430      -164.0419
  23   2.0000      -6.027012      -164.0033
  24   2.0000      -1.003245       -27.2997
  25   2.0000      -0.980520       -26.6813
  26   2.0000      -0.916184       -24.9306
  27   2.0000      -0.911273       -24.7970
  28   2.0000      -0.872534       -23.7429
  29   2.0000      -0.852667       -23.2023
  30   2.0000      -0.843280       -22.9468
  31   2.0000      -0.817532       -22.2462
  32   2.0000      -0.783239       -21.3130
  33   2.0000      -0.767136       -20.8748
  34   2.0000      -0.717470       -19.5233
  35   2.0000      -0.708304       -19.2739
  36   2.0000      -0.696862       -18.9626
  37   2.0000      -0.648544       -17.6478
  38   2.0000      -0.639996       -17.4152
  39   2.0000      -0.624503       -16.9936
  40   2.0000      -0.601630       -16.3712
  41   2.0000      -0.572034       -15.5658
  42   2.0000      -0.567834       -15.4516
  43   2.0000      -0.559477       -15.2241
  44   2.0000      -0.539115       -14.6701
  45   2.0000      -0.528474       -14.3805
  46   2.0000      -0.517840       -14.0911
  47   2.0000      -0.513253       -13.9663
  48   2.0000      -0.503361       -13.6972
  49   2.0000      -0.496733       -13.5168
  50   2.0000      -0.487118       -13.2552
  51   2.0000      -0.485123       -13.2009
  52   2.0000      -0.473074       -12.8730
  53   2.0000      -0.463661       -12.6169
  54   2.0000      -0.457524       -12.4499
  55   2.0000      -0.452881       -12.3235
  56   2.0000      -0.447590       -12.1796
  57   2.0000      -0.437521       -11.9056
  58   2.0000      -0.435983       -11.8637
  59   2.0000      -0.427949       -11.6451
  60   2.0000      -0.425624       -11.5818
  61   2.0000      -0.415303       -11.3010
  62   2.0000      -0.405418       -11.0320
  63   2.0000      -0.346585        -9.4311
  64   2.0000      -0.328082        -8.9276
  65   2.0000      -0.322583        -8.7779
  66   2.0000      -0.281393        -7.6571
  67   0.0000       0.022194         0.6039
  68   0.0000       0.057427         1.5627
  69   0.0000       0.106463         2.8970
  70   0.0000       0.119114         3.2413
  71   0.0000       0.132607         3.6084

MULLIKEN ATOMIC CHARGES
-----------------------
   0 S :    0.102408
   1 C :   -0.120253
   2 C :   -0.126656
   3 C :    0.043880
   4 C :   -0.169321
   5 H :   -0.001498
   6 C :    0.083628
   7 H :    0.008929
   8 H :    0.046742
   9 C :   -0.031525
  10 H :    0.023372
  11 H :    0.030892
  12 C :   -0.063435
  13 H :    0.037967
  14 H :    0.028974
  15 H :    0.015882
  16 S :    0.092038
  17 C :   -0.106339
  18 C :   -0.023506
  19 C :   -0.049516
  20 C :   -0.136486
  21 H :    0.018239
  22 C :    0.072736
  23 H :    0.023224
  24 H :    0.022217
  25 C :   -0.091482
  26 H :    0.022672
  27 H :    0.041530
  28 C :   -0.018436
  29 H :    0.035659
  30 H :    0.039068
  31 H :    0.026381
  32 H :    0.048770
  33 H :    0.073244
Sum of atomic charges:    0.0000000

LOEWDIN ATOMIC CHARGES
----------------------
   0 S :    0.393885
   1 C :   -0.198165
   2 C :   -0.061639
   3 C :   -0.057776
   4 C :   -0.185253
   5 H :    0.022978
   6 C :   -0.030654
   7 H :    0.033228
   8 H :    0.037462
   9 C :   -0.033278
  10 H :    0.014887
  11 H :    0.028360
  12 C :   -0.070482
  13 H :    0.033568
  14 H :    0.023114
  15 H :    0.019743
  16 S :    0.374404
  17 C :   -0.168071
  18 C :   -0.075222
  19 C :   -0.048586
  20 C :   -0.202812
  21 H :    0.031667
  22 C :   -0.044203
  23 H :    0.034137
  24 H :    0.031963
  25 C :   -0.035461
  26 H :    0.009379
  27 H :    0.036070
  28 C :   -0.060607
  29 H :    0.025175
  30 H :    0.029807
  31 H :    0.029187
  32 H :    0.027460
  33 H :    0.035736

  Mayer bond orders larger than 0.100000
B(  0-S ,  1-C ) :   1.1332 B(  0-S ,  4-C ) :   1.1449 B(  1-C ,  2-C ) :   1.5840
B(  1-C ,  4-C ) :   0.1081 B(  1-C , 32-H ) :   0.9715 B(  2-C ,  3-C ) :   1.2551
B(  2-C ,  6-C ) :   1.0199 B(  3-C ,  4-C ) :   1.5290 B(  3-C ,  5-H ) :   1.0012
B(  4-C , 20-C ) :   1.1134 B(  6-C ,  7-H ) :   0.9348 B(  6-C ,  8-H ) :   0.9319
B(  6-C ,  9-C ) :   1.0597 B(  9-C , 10-H ) :   0.9596 B(  9-C , 11-H ) :   0.9557
B(  9-C , 12-C ) :   1.0708 B( 12-C , 13-H ) :   0.9739 B( 12-C , 14-H ) :   0.9753
B( 12-C , 15-H ) :   0.9714 B( 16-S , 17-C ) :   1.1556 B( 16-S , 20-C ) :   1.1122
B( 17-C , 18-C ) :   1.5776 B( 17-C , 20-C ) :   0.1059 B( 17-C , 33-H ) :   0.9637
B( 18-C , 19-C ) :   1.2606 B( 18-C , 21-H ) :   0.9897 B( 19-C , 20-C ) :   1.5587
B( 19-C , 22-C ) :   1.0492 B( 22-C , 23-H ) :   0.9106 B( 22-C , 24-H ) :   0.9170
B( 22-C , 25-C ) :   1.0827 B( 25-C , 26-H ) :   0.9485 B( 25-C , 27-H ) :   0.9512
B( 25-C , 28-C ) :   1.0818 B( 28-C , 29-H ) :   0.9757 B( 28-C , 30-H ) :   0.9743
B( 28-C , 31-H ) :   0.9726

Dispersion correction           -0.014212323
FINAL SINGLE POINT ENERGY     -1339.862118199349

DIPOLE MOMENT
-------------
                                X             Y             Z
Electronic contribution:    -16.01132       5.64105      25.48566
Nuclear contribution   :     16.28637      -5.95636     -26.10011
                        -----------------------------------------
Total Dipole Moment    :      0.27505      -0.31531      -0.61445
                        -----------------------------------------
Magnitude (a.u.)       :      0.74339
Magnitude (Debye)      :      1.88954

Rotational constants in cm-1:     0.016076     0.009820     0.006792
Rotational constants in MHz :   481.939777   294.408433   203.633683

                             ****ORCA TERMINATED NORMALLY****
TOTAL RUN TIME: 0 days 0 hours 0 minutes 22 seconds 40 msec
