                         Program Version 4.2.1 -  RELEASE  -
|  1> ! wB97X-D3 SP def2-SVP
|  2> %pal
|  3> nprocs 24
|  4> end
|  5>
|  6> * xyz 0 1
|  7> S 	 -97.5138 	 18.2251 	 -121.702
|  8> C 	 -96.7112 	 18.3488 	 -120.138
|  9> C 	 -97.6243 	 18.3425 	 -119.072
| 10> C 	 -98.9515 	 18.2879 	 -119.521
| 11> C 	 -99.089 	 18.394 	 -120.905
| 12> H 	 -99.8394 	 18.3666 	 -118.906
| 13> C 	 -97.2399 	 18.4666 	 -117.565
| 14> H 	 -96.2554 	 18.0707 	 -117.531
| 15> H 	 -97.9802 	 17.8303 	 -117.079
| 16> C 	 -97.376 	 19.9659 	 -117.15
| 17> H 	 -96.5775 	 20.5352 	 -117.738
| 18> H 	 -98.3409 	 20.4064 	 -117.365
| 19> C 	 -97.1754 	 20.2415 	 -115.632
| 20> H 	 -96.964 	 21.3675 	 -115.481
| 21> H 	 -98.167 	 20.1428 	 -115.231
| 22> H 	 -96.4916 	 19.5543 	 -115.136
| 23> S 	 -100.502 	 19.6307 	 -122.912
| 24> C 	 -102.127 	 19.2618 	 -123.232
| 25> C 	 -102.483 	 18.1509 	 -122.455
| 26> C 	 -101.523 	 17.7471 	 -121.51
| 27> C 	 -100.338 	 18.4092 	 -121.707
| 28> H 	 -103.443 	 17.7048 	 -122.536
| 29> C 	 -101.679 	 16.6015 	 -120.536
| 30> H 	 -101.338 	 16.8612 	 -119.512
| 31> H 	 -101.056 	 15.7266 	 -120.738
| 32> C 	 -103.114 	 16.0355 	 -120.368
| 33> H 	 -103.212 	 15.0932 	 -119.836
| 34> H 	 -103.441 	 15.7807 	 -121.411
| 35> C 	 -103.963 	 17.0193 	 -119.632
| 36> H 	 -103.518 	 17.3066 	 -118.678
| 37> H 	 -105.005 	 16.5184 	 -119.523
| 38> H 	 -104.098 	 17.9292 	 -120.214
| 39> H 	 -95.6265 	 18.591 	 -120.047
| 40> H 	 -102.781 	 19.7403 	 -123.947
| 41> *
| 42>
| 43>                          ****END OF INPUT****

CARTESIAN COORDINATES (ANGSTROEM)
---------------------------------
  S    -97.513800   18.225100  -121.702000
  C    -96.711200   18.348800  -120.138000
  C    -97.624300   18.342500  -119.072000
  C    -98.951500   18.287900  -119.521000
  C    -99.089000   18.394000  -120.905000
  H    -99.839400   18.366600  -118.906000
  C    -97.239900   18.466600  -117.565000
  H    -96.255400   18.070700  -117.531000
  H    -97.980200   17.830300  -117.079000
  C    -97.376000   19.965900  -117.150000
  H    -96.577500   20.535200  -117.738000
  H    -98.340900   20.406400  -117.365000
  C    -97.175400   20.241500  -115.632000
  H    -96.964000   21.367500  -115.481000
  H    -98.167000   20.142800  -115.231000
  H    -96.491600   19.554300  -115.136000
  S    -100.502000   19.630700  -122.912000
  C    -102.127000   19.261800  -123.232000
  C    -102.483000   18.150900  -122.455000
  C    -101.523000   17.747100  -121.510000
  C    -100.338000   18.409200  -121.707000
  H    -103.443000   17.704800  -122.536000
  C    -101.679000   16.601500  -120.536000
  H    -101.338000   16.861200  -119.512000
  H    -101.056000   15.726600  -120.738000
  C    -103.114000   16.035500  -120.368000
  H    -103.212000   15.093200  -119.836000
  H    -103.441000   15.780700  -121.411000
  C    -103.963000   17.019300  -119.632000
  H    -103.518000   17.306600  -118.678000
  H    -105.005000   16.518400  -119.523000
  H    -104.098000   17.929200  -120.214000
  H    -95.626500   18.591000  -120.047000
  H    -102.781000   19.740300  -123.947000

 Total Charge           Charge          ....    0
 Multiplicity           Mult            ....    1
 Number of Electrons    NEL             ....  134
 Basis Dimension        Dim             ....  322

ORBITAL ENERGIES
----------------

  NO   OCC          E(Eh)            E(eV)
   0   2.0000     -88.966668     -2420.9061
   1   2.0000     -88.966252     -2420.8948
   2   2.0000     -10.332621      -281.1649
   3   2.0000     -10.322740      -280.8960
   4   2.0000     -10.317497      -280.7534
   5   2.0000     -10.316262      -280.7197
   6   2.0000     -10.302451      -280.3440
   7   2.0000     -10.301536      -280.3190
   8   2.0000     -10.297512      -280.2095
   9   2.0000     -10.294636      -280.1313
  10   2.0000     -10.293004      -280.0869
  11   2.0000     -10.292851      -280.0827
  12   2.0000     -10.291687      -280.0510
  13   2.0000     -10.286590      -279.9123
  14   2.0000     -10.283167      -279.8192
  15   2.0000     -10.280380      -279.7433
  16   2.0000      -8.082702      -219.9415
  17   2.0000      -8.080346      -219.8774
  18   2.0000      -6.040960      -164.3829
  19   2.0000      -6.038839      -164.3252
  20   2.0000      -6.036780      -164.2691
  21   2.0000      -6.035004      -164.2208
  22   2.0000      -6.033894      -164.1906
  23   2.0000      -6.031117      -164.1150
  24   2.0000      -1.012599       -27.5542
  25   2.0000      -0.984467       -26.7887
  26   2.0000      -0.914888       -24.8954
  27   2.0000      -0.904897       -24.6235
  28   2.0000      -0.865580       -23.5536
  29   2.0000      -0.853833       -23.2340
  30   2.0000      -0.844874       -22.9902
  31   2.0000      -0.812297       -22.1037
  32   2.0000      -0.782940       -21.3049
  33   2.0000      -0.769522       -20.9398
  34   2.0000      -0.699839       -19.0436
  35   2.0000      -0.696414       -18.9504
  36   2.0000      -0.692344       -18.8396
  37   2.0000      -0.659921       -17.9574
  38   2.0000      -0.637907       -17.3583
  39   2.0000      -0.622507       -16.9393
  40   2.0000      -0.605703       -16.4820
  41   2.0000      -0.563370       -15.3301
  42   2.0000      -0.559402       -15.2221
  43   2.0000      -0.549213       -14.9449
  44   2.0000      -0.541092       -14.7239
  45   2.0000      -0.530036       -14.4230
  46   2.0000      -0.517736       -14.0883
  47   2.0000      -0.508529       -13.8378
  48   2.0000      -0.503039       -13.6884
  49   2.0000      -0.498024       -13.5519
  50   2.0000      -0.494226       -13.4486
  51   2.0000      -0.484494       -13.1838
  52   2.0000      -0.473110       -12.8740
  53   2.0000      -0.466173       -12.6852
  54   2.0000      -0.461643       -12.5619
  55   2.0000      -0.446935       -12.1617
  56   2.0000      -0.444167       -12.0864
  57   2.0000      -0.439218       -11.9517
  58   2.0000      -0.434454       -11.8221
  59   2.0000      -0.419566       -11.4170
  60   2.0000      -0.417507       -11.3610
  61   2.0000      -0.413916       -11.2632
  62   2.0000      -0.407143       -11.0789
  63   2.0000      -0.344080        -9.3629
  64   2.0000      -0.333087        -9.0637
  65   2.0000      -0.332342        -9.0435
  66   2.0000      -0.289259        -7.8711
  67   0.0000       0.027093         0.7372
  68   0.0000       0.070995         1.9319
  69   0.0000       0.111604         3.0369
  70   0.0000       0.127957         3.4819
  71   0.0000       0.134049         3.6477

MULLIKEN ATOMIC CHARGES
-----------------------
   0 S :    0.104633
   1 C :   -0.144813
   2 C :   -0.115475
   3 C :    0.016440
   4 C :   -0.146540
   5 H :    0.018166
   6 C :    0.110861
   7 H :    0.023870
   8 H :    0.028311
   9 C :   -0.112468
  10 H :    0.039520
  11 H :    0.034478
  12 C :   -0.048752
  13 H :    0.046786
  14 H :    0.024094
  15 H :    0.042106
  16 S :    0.127809
  17 C :   -0.085409
  18 C :   -0.044465
  19 C :   -0.016423
  20 C :   -0.153080
  21 H :    0.006608
  22 C :    0.048765
  23 H :    0.013080
  24 H :    0.044650
  25 C :   -0.096568
  26 H :    0.027903
  27 H :    0.030817
  28 C :   -0.054648
  29 H :    0.030084
  30 H :    0.043485
  31 H :    0.031524
  32 H :    0.065370
  33 H :    0.059284
Sum of atomic charges:   -0.0000000

LOEWDIN ATOMIC CHARGES
----------------------
   0 S :    0.391875
   1 C :   -0.210777
   2 C :   -0.058935
   3 C :   -0.069599
   4 C :   -0.179048
   5 H :    0.029773
   6 C :   -0.019074
   7 H :    0.027020
   8 H :    0.030409
   9 C :   -0.042729
  10 H :    0.029384
  11 H :    0.024317
  12 C :   -0.074190
  13 H :    0.038840
  14 H :    0.020879
  15 H :    0.023496
  16 S :    0.451899
  17 C :   -0.204173
  18 C :   -0.069963
  19 C :   -0.060166
  20 C :   -0.212640
  21 H :    0.022806
  22 C :   -0.033982
  23 H :    0.028051
  24 H :    0.038091
  25 C :   -0.051106
  26 H :    0.025508
  27 H :    0.024530
  28 C :   -0.069568
  29 H :    0.024415
  30 H :    0.035742
  31 H :    0.021391
  32 H :    0.034385
  33 H :    0.033139

  Mayer bond orders larger than 0.100000
B(  0-S ,  1-C ) :   1.1391 B(  0-S ,  4-C ) :   1.1620 B(  1-C ,  2-C ) :   1.6014
B(  1-C ,  4-C ) :   0.1108 B(  1-C , 32-H ) :   0.9604 B(  2-C ,  3-C ) :   1.2694
B(  2-C ,  6-C ) :   1.0088 B(  3-C ,  4-C ) :   1.5739 B(  3-C ,  5-H ) :   0.9838
B(  4-C , 20-C ) :   1.0066 B(  6-C ,  7-H ) :   0.9390 B(  6-C ,  8-H ) :   0.9424
B(  6-C ,  9-C ) :   1.0585 B(  9-C , 10-H ) :   0.9598 B(  9-C , 11-H ) :   0.9652
B(  9-C , 12-C ) :   1.0673 B( 12-C , 13-H ) :   0.9741 B( 12-C , 14-H ) :   0.9795
B( 12-C , 15-H ) :   0.9765 B( 16-S , 17-C ) :   1.1895 B( 16-S , 20-C ) :   1.1753
B( 17-C , 18-C ) :   1.5404 B( 17-C , 20-C ) :   0.1062 B( 17-C , 33-H ) :   0.9705
B( 18-C , 19-C ) :   1.2983 B( 18-C , 21-H ) :   0.9855 B( 19-C , 20-C ) :   1.5669
B( 19-C , 22-C ) :   1.0228 B( 22-C , 23-H ) :   0.9333 B( 22-C , 24-H ) :   0.9332
B( 22-C , 25-C ) :   1.0809 B( 25-C , 26-H ) :   0.9543 B( 25-C , 27-H ) :   0.9463
B( 25-C , 28-C ) :   1.0782 B( 28-C , 29-H ) :   0.9690 B( 28-C , 30-H ) :   0.9725
B( 28-C , 31-H ) :   0.9750

Dispersion correction           -0.013947075
FINAL SINGLE POINT ENERGY     -1339.876094217171

DIPOLE MOMENT
-------------
                                X             Y             Z
Electronic contribution:      8.10622       3.53442     -25.71610
Nuclear contribution   :     -8.42029      -3.62477      26.22653
                        -----------------------------------------
Total Dipole Moment    :     -0.31407      -0.09035       0.51042
                        -----------------------------------------
Magnitude (a.u.)       :      0.60608
Magnitude (Debye)      :      1.54054

Rotational constants in cm-1:     0.018326     0.008078     0.006552
Rotational constants in MHz :   549.395833   242.179921   196.415070

                             ****ORCA TERMINATED NORMALLY****
TOTAL RUN TIME: 0 days 0 hours 0 minutes 21 seconds 474 msec
