                         Program Version 4.2.1 -  RELEASE  -
|  1> ! wB97X-D3 SP def2-SVP
|  2> %pal
|  3> nprocs 24
|  4> end
|  5>
|  6> * xyz 0 1
|  7> S 	 -39.6378 	 15.5825 	 17.9525
|  8> C 	 -41.0245 	 16.0661 	 18.8724
|  9> C 	 -42.1325 	 16.3454 	 18.0967
| 10> C 	 -41.8109 	 16.3053 	 16.7068
| 11> C 	 -40.4603 	 15.9785 	 16.4558
| 12> H 	 -42.479 	 16.5088 	 15.8506
| 13> C 	 -43.4951 	 16.7047 	 18.6512
| 14> H 	 -43.6705 	 17.7618 	 18.3279
| 15> H 	 -43.3605 	 16.5493 	 19.784
| 16> C 	 -44.6942 	 15.8751 	 18.1044
| 17> H 	 -44.8476 	 16.1107 	 16.9743
| 18> H 	 -44.4248 	 14.7826 	 18.0231
| 19> C 	 -46.1143 	 16.0613 	 18.6053
| 20> H 	 -46.5444 	 16.9835 	 18.3253
| 21> H 	 -46.763 	 15.2424 	 18.248
| 22> H 	 -46.0901 	 16.1054 	 19.7074
| 23> S 	 -38.9778 	 14.2802 	 14.8102
| 24> C 	 -38.5909 	 14.6781 	 13.2114
| 25> C 	 -38.9938 	 16.0139 	 13.0709
| 26> C 	 -39.784 	 16.6179 	 14.0934
| 27> C 	 -39.922 	 15.7246 	 15.1234
| 28> H 	 -38.6619 	 16.6433 	 12.2846
| 29> C 	 -40.436 	 18.0579 	 14.0563
| 30> H 	 -40.6058 	 18.3898 	 15.0356
| 31> H 	 -41.3892 	 18.0226 	 13.5073
| 32> C 	 -39.6203 	 19.1761 	 13.4211
| 33> H 	 -38.5257 	 18.9733 	 13.5406
| 34> H 	 -39.7502 	 20.0977 	 14.0282
| 35> C 	 -40.0524 	 19.4759 	 11.9401
| 36> H 	 -39.3983 	 20.1583 	 11.4004
| 37> H 	 -41.0861 	 19.8829 	 11.9561
| 38> H 	 -39.9485 	 18.5394 	 11.3495
| 39> H 	 -41.1653 	 16.0124 	 19.9381
| 40> H 	 -37.8475 	 14.3106 	 12.5904
| 41> *
| 42>
| 43>                          ****END OF INPUT****

CARTESIAN COORDINATES (ANGSTROEM)
---------------------------------
  S    -39.637800   15.582500   17.952500
  C    -41.024500   16.066100   18.872400
  C    -42.132500   16.345400   18.096700
  C    -41.810900   16.305300   16.706800
  C    -40.460300   15.978500   16.455800
  H    -42.479000   16.508800   15.850600
  C    -43.495100   16.704700   18.651200
  H    -43.670500   17.761800   18.327900
  H    -43.360500   16.549300   19.784000
  C    -44.694200   15.875100   18.104400
  H    -44.847600   16.110700   16.974300
  H    -44.424800   14.782600   18.023100
  C    -46.114300   16.061300   18.605300
  H    -46.544400   16.983500   18.325300
  H    -46.763000   15.242400   18.248000
  H    -46.090100   16.105400   19.707400
  S    -38.977800   14.280200   14.810200
  C    -38.590900   14.678100   13.211400
  C    -38.993800   16.013900   13.070900
  C    -39.784000   16.617900   14.093400
  C    -39.922000   15.724600   15.123400
  H    -38.661900   16.643300   12.284600
  C    -40.436000   18.057900   14.056300
  H    -40.605800   18.389800   15.035600
  H    -41.389200   18.022600   13.507300
  C    -39.620300   19.176100   13.421100
  H    -38.525700   18.973300   13.540600
  H    -39.750200   20.097700   14.028200
  C    -40.052400   19.475900   11.940100
  H    -39.398300   20.158300   11.400400
  H    -41.086100   19.882900   11.956100
  H    -39.948500   18.539400   11.349500
  H    -41.165300   16.012400   19.938100
  H    -37.847500   14.310600   12.590400

 Total Charge           Charge          ....    0
 Multiplicity           Mult            ....    1
 Number of Electrons    NEL             ....  134
 Basis Dimension        Dim             ....  322

ORBITAL ENERGIES
----------------

  NO   OCC          E(Eh)            E(eV)
   0   2.0000     -88.972550     -2421.0662
   1   2.0000     -88.964504     -2420.8472
   2   2.0000     -10.331539      -281.1355
   3   2.0000     -10.325279      -280.9651
   4   2.0000     -10.312051      -280.6052
   5   2.0000     -10.310996      -280.5765
   6   2.0000     -10.308186      -280.5000
   7   2.0000     -10.303102      -280.3616
   8   2.0000     -10.301597      -280.3207
   9   2.0000     -10.298428      -280.2345
  10   2.0000     -10.298330      -280.2318
  11   2.0000     -10.293335      -280.0959
  12   2.0000     -10.292303      -280.0678
  13   2.0000     -10.290522      -280.0193
  14   2.0000     -10.286206      -279.9019
  15   2.0000     -10.280331      -279.7420
  16   2.0000      -8.086957      -220.0573
  17   2.0000      -8.080015      -219.8684
  18   2.0000      -6.045488      -164.5061
  19   2.0000      -6.041538      -164.3986
  20   2.0000      -6.038492      -164.3157
  21   2.0000      -6.037698      -164.2941
  22   2.0000      -6.034320      -164.2022
  23   2.0000      -6.030829      -164.1072
  24   2.0000      -1.010722       -27.5031
  25   2.0000      -0.988585       -26.9008
  26   2.0000      -0.908071       -24.7099
  27   2.0000      -0.906505       -24.6673
  28   2.0000      -0.872190       -23.7335
  29   2.0000      -0.854015       -23.2389
  30   2.0000      -0.841244       -22.8914
  31   2.0000      -0.813022       -22.1235
  32   2.0000      -0.785737       -21.3810
  33   2.0000      -0.776175       -21.1208
  34   2.0000      -0.708696       -19.2846
  35   2.0000      -0.696882       -18.9631
  36   2.0000      -0.688695       -18.7403
  37   2.0000      -0.657786       -17.8993
  38   2.0000      -0.637351       -17.3432
  39   2.0000      -0.615662       -16.7530
  40   2.0000      -0.601137       -16.3578
  41   2.0000      -0.570461       -15.5230
  42   2.0000      -0.556507       -15.1433
  43   2.0000      -0.555808       -15.1243
  44   2.0000      -0.537775       -14.6336
  45   2.0000      -0.525064       -14.2877
  46   2.0000      -0.516724       -14.0608
  47   2.0000      -0.513763       -13.9802
  48   2.0000      -0.505095       -13.7443
  49   2.0000      -0.502545       -13.6750
  50   2.0000      -0.491531       -13.3752
  51   2.0000      -0.479246       -13.0409
  52   2.0000      -0.475791       -12.9469
  53   2.0000      -0.467290       -12.7156
  54   2.0000      -0.463079       -12.6010
  55   2.0000      -0.455142       -12.3850
  56   2.0000      -0.437179       -11.8962
  57   2.0000      -0.434608       -11.8263
  58   2.0000      -0.433135       -11.7862
  59   2.0000      -0.426619       -11.6089
  60   2.0000      -0.422498       -11.4968
  61   2.0000      -0.410613       -11.1733
  62   2.0000      -0.402326       -10.9478
  63   2.0000      -0.349542        -9.5115
  64   2.0000      -0.332811        -9.0563
  65   2.0000      -0.327161        -8.9025
  66   2.0000      -0.292309        -7.9541
  67   0.0000       0.027608         0.7513
  68   0.0000       0.068714         1.8698
  69   0.0000       0.117959         3.2098
  70   0.0000       0.123580         3.3628
  71   0.0000       0.128142         3.4869

MULLIKEN ATOMIC CHARGES
-----------------------
   0 S :    0.129865
   1 C :   -0.111482
   2 C :   -0.092243
   3 C :    0.002347
   4 C :   -0.161376
   5 H :    0.030014
   6 C :    0.079374
   7 H :    0.049795
   8 H :    0.034268
   9 C :   -0.162511
  10 H :    0.032112
  11 H :    0.043939
  12 C :   -0.013746
  13 H :    0.020872
  14 H :    0.048128
  15 H :    0.023733
  16 S :    0.105820
  17 C :   -0.036169
  18 C :   -0.062047
  19 C :   -0.046509
  20 C :   -0.170013
  21 H :    0.000542
  22 C :    0.114825
  23 H :    0.021160
  24 H :    0.042152
  25 C :   -0.127633
  26 H :    0.040183
  27 H :    0.034859
  28 C :   -0.071270
  29 H :    0.034671
  30 H :    0.047870
  31 H :    0.036001
  32 H :    0.037948
  33 H :    0.044519
Sum of atomic charges:    0.0000000

LOEWDIN ATOMIC CHARGES
----------------------
   0 S :    0.419599
   1 C :   -0.206751
   2 C :   -0.068456
   3 C :   -0.059571
   4 C :   -0.194743
   5 H :    0.035958
   6 C :   -0.036142
   7 H :    0.040642
   8 H :    0.037612
   9 C :   -0.062311
  10 H :    0.030363
  11 H :    0.029639
  12 C :   -0.064957
  13 H :    0.017488
  14 H :    0.037010
  15 H :    0.023937
  16 S :    0.429218
  17 C :   -0.206867
  18 C :   -0.066137
  19 C :   -0.056334
  20 C :   -0.198714
  21 H :    0.017084
  22 C :   -0.022704
  23 H :    0.025764
  24 H :    0.035713
  25 C :   -0.051149
  26 H :    0.028097
  27 H :    0.028082
  28 C :   -0.072585
  29 H :    0.024319
  30 H :    0.030401
  31 H :    0.026375
  32 H :    0.026302
  33 H :    0.023819

  Mayer bond orders larger than 0.100000
B(  0-S ,  1-C ) :   1.1406 B(  0-S ,  4-C ) :   1.1546 B(  1-C ,  2-C ) :   1.6167
B(  1-C , 32-H ) :   0.9591 B(  2-C ,  3-C ) :   1.2465 B(  2-C ,  6-C ) :   1.0268
B(  3-C ,  4-C ) :   1.5448 B(  3-C ,  5-H ) :   0.9899 B(  4-C , 20-C ) :   1.0610
B(  6-C ,  7-H ) :   0.9349 B(  6-C ,  8-H ) :   0.9374 B(  6-C ,  9-C ) :   1.0523
B(  9-C , 10-H ) :   0.9497 B(  9-C , 11-H ) :   0.9615 B(  9-C , 12-C ) :   1.0842
B( 12-C , 13-H ) :   0.9742 B( 12-C , 14-H ) :   0.9716 B( 12-C , 15-H ) :   0.9735
B( 16-S , 17-C ) :   1.1611 B( 16-S , 20-C ) :   1.1607 B( 17-C , 18-C ) :   1.5654
B( 17-C , 33-H ) :   0.9736 B( 18-C , 19-C ) :   1.3004 B( 18-C , 21-H ) :   0.9798
B( 19-C , 20-C ) :   1.5669 B( 19-C , 22-C ) :   1.0297 B( 22-C , 23-H ) :   0.9274
B( 22-C , 24-H ) :   0.9418 B( 22-C , 25-C ) :   1.0513 B( 25-C , 26-H ) :   0.9608
B( 25-C , 27-H ) :   0.9632 B( 25-C , 28-C ) :   1.0679 B( 28-C , 29-H ) :   0.9750
B( 28-C , 30-H ) :   0.9735 B( 28-C , 31-H ) :   0.9776

Dispersion correction           -0.013586977
FINAL SINGLE POINT ENERGY     -1339.863184083681

DIPOLE MOMENT
-------------
                                X             Y             Z
Electronic contribution:     20.64243     -16.90254       4.88055
Nuclear contribution   :    -21.01632      17.42197      -4.97188
                        -----------------------------------------
Total Dipole Moment    :     -0.37389       0.51943      -0.09132
                        -----------------------------------------
Magnitude (a.u.)       :      0.64648
Magnitude (Debye)      :      1.64322

Rotational constants in cm-1:     0.017915     0.007655     0.006287
Rotational constants in MHz :   537.087819   229.486327   188.473938

                             ****ORCA TERMINATED NORMALLY****
TOTAL RUN TIME: 0 days 0 hours 0 minutes 19 seconds 845 msec
