                         Program Version 4.2.1 -  RELEASE  -
|  1> ! wB97X-D3 SP def2-SVP
|  2> %pal
|  3> nprocs 24
|  4> end
|  5>
|  6> * xyz 0 1
|  7> S 	 -91.0377 	 -31.438 	 -73.7888
|  8> C 	 -90.6424 	 -32.0107 	 -75.3865
|  9> C 	 -89.7424 	 -31.178 	 -76.0312
| 10> C 	 -89.1655 	 -30.2547 	 -75.0697
| 11> C 	 -89.9286 	 -30.1664 	 -73.8929
| 12> H 	 -88.3358 	 -29.5704 	 -75.2881
| 13> C 	 -89.1792 	 -31.4178 	 -77.4215
| 14> H 	 -88.3701 	 -32.0469 	 -77.1769
| 15> H 	 -88.8318 	 -30.4029 	 -77.7742
| 16> C 	 -90.0088 	 -32.1644 	 -78.5532
| 17> H 	 -89.3777 	 -32.2394 	 -79.4911
| 18> H 	 -90.4344 	 -33.1367 	 -78.3349
| 19> C 	 -91.2754 	 -31.4567 	 -79.04
| 20> H 	 -91.9958 	 -32.1251 	 -79.4802
| 21> H 	 -91.7873 	 -30.8314 	 -78.3649
| 22> H 	 -90.8958 	 -30.8198 	 -79.8381
| 23> S 	 -89.0674 	 -30.1718 	 -71.2988
| 24> C 	 -89.0696 	 -28.6916 	 -70.3448
| 25> C 	 -89.3064 	 -27.6277 	 -71.1465
| 26> C 	 -89.6061 	 -27.9258 	 -72.5418
| 27> C 	 -89.6787 	 -29.2945 	 -72.7436
| 28> H 	 -89.406 	 -26.6198 	 -70.7332
| 29> C 	 -89.8222 	 -26.8683 	 -73.6137
| 30> H 	 -90.1706 	 -25.9162 	 -73.0908
| 31> H 	 -90.6674 	 -27.3371 	 -74.1689
| 32> C 	 -88.6262 	 -26.5926 	 -74.5046
| 33> H 	 -88.1728 	 -27.4297 	 -74.7675
| 34> H 	 -87.9279 	 -25.9978 	 -73.8713
| 35> C 	 -88.9311 	 -25.808 	 -75.8053
| 36> H 	 -89.5916 	 -26.4272 	 -76.3997
| 37> H 	 -88.0274 	 -25.5972 	 -76.3822
| 38> H 	 -89.4256 	 -24.8736 	 -75.6478
| 39> H 	 -91.1662 	 -32.7828 	 -75.9109
| 40> H 	 -89.0971 	 -28.6473 	 -69.2925
| 41> *
| 42>
| 43>                          ****END OF INPUT****

CARTESIAN COORDINATES (ANGSTROEM)
---------------------------------
  S    -91.037700  -31.438000  -73.788800
  C    -90.642400  -32.010700  -75.386500
  C    -89.742400  -31.178000  -76.031200
  C    -89.165500  -30.254700  -75.069700
  C    -89.928600  -30.166400  -73.892900
  H    -88.335800  -29.570400  -75.288100
  C    -89.179200  -31.417800  -77.421500
  H    -88.370100  -32.046900  -77.176900
  H    -88.831800  -30.402900  -77.774200
  C    -90.008800  -32.164400  -78.553200
  H    -89.377700  -32.239400  -79.491100
  H    -90.434400  -33.136700  -78.334900
  C    -91.275400  -31.456700  -79.040000
  H    -91.995800  -32.125100  -79.480200
  H    -91.787300  -30.831400  -78.364900
  H    -90.895800  -30.819800  -79.838100
  S    -89.067400  -30.171800  -71.298800
  C    -89.069600  -28.691600  -70.344800
  C    -89.306400  -27.627700  -71.146500
  C    -89.606100  -27.925800  -72.541800
  C    -89.678700  -29.294500  -72.743600
  H    -89.406000  -26.619800  -70.733200
  C    -89.822200  -26.868300  -73.613700
  H    -90.170600  -25.916200  -73.090800
  H    -90.667400  -27.337100  -74.168900
  C    -88.626200  -26.592600  -74.504600
  H    -88.172800  -27.429700  -74.767500
  H    -87.927900  -25.997800  -73.871300
  C    -88.931100  -25.808000  -75.805300
  H    -89.591600  -26.427200  -76.399700
  H    -88.027400  -25.597200  -76.382200
  H    -89.425600  -24.873600  -75.647800
  H    -91.166200  -32.782800  -75.910900
  H    -89.097100  -28.647300  -69.292500

 Total Charge           Charge          ....    0
 Multiplicity           Mult            ....    1
 Number of Electrons    NEL             ....  134
 Basis Dimension        Dim             ....  322

ORBITAL ENERGIES
----------------

  NO   OCC          E(Eh)            E(eV)
   0   2.0000     -88.967603     -2420.9315
   1   2.0000     -88.958030     -2420.6711
   2   2.0000     -10.328711      -281.0585
   3   2.0000     -10.328396      -281.0499
   4   2.0000     -10.311473      -280.5895
   5   2.0000     -10.310558      -280.5645
   6   2.0000     -10.306673      -280.4588
   7   2.0000     -10.306432      -280.4523
   8   2.0000     -10.303194      -280.3642
   9   2.0000     -10.301332      -280.3135
  10   2.0000     -10.298779      -280.2440
  11   2.0000     -10.298121      -280.2261
  12   2.0000     -10.292614      -280.0763
  13   2.0000     -10.279728      -279.7256
  14   2.0000     -10.276652      -279.6419
  15   2.0000     -10.269845      -279.4567
  16   2.0000      -8.083353      -219.9592
  17   2.0000      -8.072393      -219.6610
  18   2.0000      -6.041744      -164.4042
  19   2.0000      -6.037567      -164.2905
  20   2.0000      -6.034316      -164.2021
  21   2.0000      -6.031105      -164.1147
  22   2.0000      -6.027042      -164.0042
  23   2.0000      -6.022848      -163.8900
  24   2.0000      -1.008581       -27.4449
  25   2.0000      -0.981676       -26.7128
  26   2.0000      -0.910571       -24.7779
  27   2.0000      -0.909715       -24.7546
  28   2.0000      -0.869859       -23.6701
  29   2.0000      -0.853194       -23.2166
  30   2.0000      -0.845536       -23.0082
  31   2.0000      -0.812792       -22.1172
  32   2.0000      -0.785921       -21.3860
  33   2.0000      -0.773768       -21.0553
  34   2.0000      -0.708745       -19.2859
  35   2.0000      -0.704277       -19.1643
  36   2.0000      -0.695283       -18.9196
  37   2.0000      -0.661249       -17.9935
  38   2.0000      -0.638981       -17.3876
  39   2.0000      -0.607588       -16.5333
  40   2.0000      -0.590318       -16.0634
  41   2.0000      -0.575010       -15.6468
  42   2.0000      -0.571852       -15.5609
  43   2.0000      -0.557542       -15.1715
  44   2.0000      -0.541730       -14.7412
  45   2.0000      -0.522283       -14.2120
  46   2.0000      -0.521780       -14.1984
  47   2.0000      -0.518182       -14.1004
  48   2.0000      -0.510306       -13.8861
  49   2.0000      -0.497366       -13.5340
  50   2.0000      -0.492257       -13.3950
  51   2.0000      -0.479589       -13.0503
  52   2.0000      -0.476060       -12.9543
  53   2.0000      -0.461323       -12.5532
  54   2.0000      -0.456518       -12.4225
  55   2.0000      -0.449526       -12.2322
  56   2.0000      -0.444360       -12.0917
  57   2.0000      -0.439906       -11.9704
  58   2.0000      -0.432338       -11.7645
  59   2.0000      -0.426441       -11.6041
  60   2.0000      -0.418346       -11.3838
  61   2.0000      -0.415171       -11.2974
  62   2.0000      -0.414474       -11.2784
  63   2.0000      -0.337459        -9.1827
  64   2.0000      -0.328833        -8.9480
  65   2.0000      -0.321919        -8.7598
  66   2.0000      -0.303402        -8.2560
  67   0.0000       0.030500         0.8299
  68   0.0000       0.068776         1.8715
  69   0.0000       0.114606         3.1186
  70   0.0000       0.118879         3.2349
  71   0.0000       0.122661         3.3378

MULLIKEN ATOMIC CHARGES
-----------------------
   0 S :    0.133675
   1 C :   -0.115613
   2 C :   -0.110682
   3 C :    0.017713
   4 C :   -0.160931
   5 H :    0.027154
   6 C :    0.069950
   7 H :    0.049576
   8 H :    0.039293
   9 C :   -0.102844
  10 H :    0.046578
  11 H :    0.031670
  12 C :   -0.046876
  13 H :    0.028382
  14 H :    0.030266
  15 H :    0.020136
  16 S :    0.080715
  17 C :   -0.062248
  18 C :   -0.039020
  19 C :   -0.038539
  20 C :   -0.170106
  21 H :    0.020311
  22 C :    0.034261
  23 H :    0.031876
  24 H :    0.039919
  25 C :    0.004972
  26 H :   -0.025217
  27 H :    0.026425
  28 C :   -0.036251
  29 H :    0.025124
  30 H :    0.036105
  31 H :    0.025316
  32 H :    0.042490
  33 H :    0.046419
Sum of atomic charges:   -0.0000000

LOEWDIN ATOMIC CHARGES
----------------------
   0 S :    0.444495
   1 C :   -0.205544
   2 C :   -0.060208
   3 C :   -0.062132
   4 C :   -0.224475
   5 H :    0.030706
   6 C :   -0.030374
   7 H :    0.037479
   8 H :    0.038243
   9 C :   -0.045601
  10 H :    0.037376
  11 H :    0.022110
  12 C :   -0.067387
  13 H :    0.024262
  14 H :    0.017955
  15 H :    0.025106
  16 S :    0.370282
  17 C :   -0.173296
  18 C :   -0.074065
  19 C :   -0.053149
  20 C :   -0.183860
  21 H :    0.031363
  22 C :   -0.034650
  23 H :    0.036141
  24 H :    0.037500
  25 C :   -0.027149
  26 H :   -0.002200
  27 H :    0.029738
  28 C :   -0.057475
  29 H :    0.023255
  30 H :    0.028537
  31 H :    0.020505
  32 H :    0.022328
  33 H :    0.024181

  Mayer bond orders larger than 0.100000
B(  0-S ,  1-C ) :   1.1469 B(  0-S ,  4-C ) :   1.1821 B(  1-C ,  2-C ) :   1.5988
B(  1-C , 32-H ) :   0.9680 B(  2-C ,  3-C ) :   1.2492 B(  2-C ,  6-C ) :   1.0039
B(  3-C ,  4-C ) :   1.5548 B(  3-C ,  5-H ) :   0.9838 B(  4-C , 20-C ) :   1.0089
B(  6-C ,  7-H ) :   0.9377 B(  6-C ,  8-H ) :   0.9440 B(  6-C ,  9-C ) :   1.0678
B(  9-C , 10-H ) :   0.9649 B(  9-C , 11-H ) :   0.9646 B(  9-C , 12-C ) :   1.0552
B( 12-C , 13-H ) :   0.9799 B( 12-C , 14-H ) :   0.9798 B( 12-C , 15-H ) :   0.9820
B( 16-S , 17-C ) :   1.1262 B( 16-S , 20-C ) :   1.1305 B( 17-C , 18-C ) :   1.6536
B( 17-C , 33-H ) :   0.9697 B( 18-C , 19-C ) :   1.2080 B( 18-C , 21-H ) :   0.9822
B( 19-C , 20-C ) :   1.6413 B( 19-C , 22-C ) :   1.0374 B( 22-C , 23-H ) :   0.9347
B( 22-C , 24-H ) :   0.9325 B( 22-C , 25-C ) :   1.0704 B( 25-C , 26-H ) :   0.9536
B( 25-C , 27-H ) :   0.9468 B( 25-C , 28-C ) :   1.0840 B( 28-C , 29-H ) :   0.9753
B( 28-C , 30-H ) :   0.9747 B( 28-C , 31-H ) :   0.9764

Dispersion correction           -0.014319380
FINAL SINGLE POINT ENERGY     -1339.857421400662

DIPOLE MOMENT
-------------
                                X             Y             Z
Electronic contribution:     -1.58588     -11.28024      27.23260
Nuclear contribution   :      1.67947      11.58967     -27.81668
                        -----------------------------------------
Total Dipole Moment    :      0.09359       0.30943      -0.58408
                        -----------------------------------------
Magnitude (a.u.)       :      0.66757
Magnitude (Debye)      :      1.69684

Rotational constants in cm-1:     0.019629     0.008559     0.006445
Rotational constants in MHz :   588.476118   256.588708   193.221976

                             ****ORCA TERMINATED NORMALLY****
TOTAL RUN TIME: 0 days 0 hours 0 minutes 21 seconds 517 msec
