                         Program Version 4.2.1 -  RELEASE  -
|  1> ! wB97X-D3 SP def2-SVP
|  2> %pal
|  3> nprocs 24
|  4> end
|  5>
|  6> * xyz 0 1
|  7> S 	 -57.3226 	 4.83421 	 -21.328
|  8> C 	 -58.8932 	 5.70172 	 -21.1229
|  9> C 	 -60.0086 	 4.95987 	 -21.5049
| 10> C 	 -59.574 	 3.66349 	 -21.9322
| 11> C 	 -58.1797 	 3.52743 	 -22.1263
| 12> H 	 -60.1863 	 2.93701 	 -22.3975
| 13> C 	 -61.4115 	 5.42331 	 -21.4774
| 14> H 	 -61.5325 	 6.40769 	 -20.9306
| 15> H 	 -61.7826 	 4.68194 	 -20.7708
| 16> C 	 -62.1463 	 5.56194 	 -22.7895
| 17> H 	 -61.7227 	 6.4446 	 -23.2232
| 18> H 	 -61.8669 	 4.72585 	 -23.3887
| 19> C 	 -63.648 	 5.60772 	 -22.5653
| 20> H 	 -63.8697 	 6.42115 	 -21.8611
| 21> H 	 -64.1347 	 5.90781 	 -23.487
| 22> H 	 -64.0528 	 4.64773 	 -22.235
| 23> S 	 -57.4664 	 0.847629 	 -22.221
| 24> C 	 -56.7504 	 0.316619 	 -23.777
| 25> C 	 -56.5957 	 1.38515 	 -24.6889
| 26> C 	 -57.1906 	 2.59533 	 -24.2907
| 27> C 	 -57.5923 	 2.49867 	 -22.9511
| 28> H 	 -56.1058 	 1.21996 	 -25.6352
| 29> C 	 -57.1719 	 3.8638 	 -25.1455
| 30> H 	 -56.3801 	 3.6525 	 -25.8626
| 31> H 	 -56.8275 	 4.542 	 -24.405
| 32> C 	 -58.5359 	 4.21554 	 -25.7544
| 33> H 	 -58.3149 	 5.17528 	 -26.1985
| 34> H 	 -59.3041 	 4.43397 	 -24.9927
| 35> C 	 -59.1105 	 3.11424 	 -26.749
| 36> H 	 -59.1442 	 2.13777 	 -26.2993
| 37> H 	 -58.4363 	 3.00154 	 -27.5922
| 38> H 	 -60.0726 	 3.23311 	 -27.2342
| 39> H 	 -59.0432 	 6.69011 	 -20.6521
| 40> H 	 -56.4275 	 -0.655813 	 -24.0469
| 41> *
| 42>
| 43>                          ****END OF INPUT****

CARTESIAN COORDINATES (ANGSTROEM)
---------------------------------
  S    -57.322600    4.834210  -21.328000
  C    -58.893200    5.701720  -21.122900
  C    -60.008600    4.959870  -21.504900
  C    -59.574000    3.663490  -21.932200
  C    -58.179700    3.527430  -22.126300
  H    -60.186300    2.937010  -22.397500
  C    -61.411500    5.423310  -21.477400
  H    -61.532500    6.407690  -20.930600
  H    -61.782600    4.681940  -20.770800
  C    -62.146300    5.561940  -22.789500
  H    -61.722700    6.444600  -23.223200
  H    -61.866900    4.725850  -23.388700
  C    -63.648000    5.607720  -22.565300
  H    -63.869700    6.421150  -21.861100
  H    -64.134700    5.907810  -23.487000
  H    -64.052800    4.647730  -22.235000
  S    -57.466400    0.847629  -22.221000
  C    -56.750400    0.316619  -23.777000
  C    -56.595700    1.385150  -24.688900
  C    -57.190600    2.595330  -24.290700
  C    -57.592300    2.498670  -22.951100
  H    -56.105800    1.219960  -25.635200
  C    -57.171900    3.863800  -25.145500
  H    -56.380100    3.652500  -25.862600
  H    -56.827500    4.542000  -24.405000
  C    -58.535900    4.215540  -25.754400
  H    -58.314900    5.175280  -26.198500
  H    -59.304100    4.433970  -24.992700
  C    -59.110500    3.114240  -26.749000
  H    -59.144200    2.137770  -26.299300
  H    -58.436300    3.001540  -27.592200
  H    -60.072600    3.233110  -27.234200
  H    -59.043200    6.690110  -20.652100
  H    -56.427500   -0.655813  -24.046900

 Total Charge           Charge          ....    0
 Multiplicity           Mult            ....    1
 Number of Electrons    NEL             ....  134
 Basis Dimension        Dim             ....  322

ORBITAL ENERGIES
----------------

  NO   OCC          E(Eh)            E(eV)
   0   2.0000     -88.970122     -2421.0001
   1   2.0000     -88.969895     -2420.9939
   2   2.0000     -10.328172      -281.0438
   3   2.0000     -10.325989      -280.9845
   4   2.0000     -10.318840      -280.7899
   5   2.0000     -10.316832      -280.7353
   6   2.0000     -10.302107      -280.3346
   7   2.0000     -10.301267      -280.3117
   8   2.0000     -10.292701      -280.0786
   9   2.0000     -10.292670      -280.0778
  10   2.0000     -10.292606      -280.0761
  11   2.0000     -10.292594      -280.0757
  12   2.0000     -10.291212      -280.0381
  13   2.0000     -10.283418      -279.8260
  14   2.0000     -10.281761      -279.7809
  15   2.0000     -10.277387      -279.6619
  16   2.0000      -8.083058      -219.9512
  17   2.0000      -8.082829      -219.9450
  18   2.0000      -6.041587      -164.3999
  19   2.0000      -6.041340      -164.3932
  20   2.0000      -6.037856      -164.2984
  21   2.0000      -6.037785      -164.2965
  22   2.0000      -6.033819      -164.1886
  23   2.0000      -6.033553      -164.1813
  24   2.0000      -0.996458       -27.1150
  25   2.0000      -0.973174       -26.4814
  26   2.0000      -0.920780       -25.0557
  27   2.0000      -0.903940       -24.5975
  28   2.0000      -0.866983       -23.5918
  29   2.0000      -0.847936       -23.0735
  30   2.0000      -0.842545       -22.9268
  31   2.0000      -0.806383       -21.9428
  32   2.0000      -0.786617       -21.4049
  33   2.0000      -0.771714       -20.9994
  34   2.0000      -0.715049       -19.4575
  35   2.0000      -0.707263       -19.2456
  36   2.0000      -0.692397       -18.8411
  37   2.0000      -0.662575       -18.0296
  38   2.0000      -0.634602       -17.2684
  39   2.0000      -0.615543       -16.7498
  40   2.0000      -0.583470       -15.8770
  41   2.0000      -0.571145       -15.5417
  42   2.0000      -0.563336       -15.3292
  43   2.0000      -0.554372       -15.0852
  44   2.0000      -0.538966       -14.6660
  45   2.0000      -0.524215       -14.2646
  46   2.0000      -0.516789       -14.0625
  47   2.0000      -0.509577       -13.8663
  48   2.0000      -0.500726       -13.6254
  49   2.0000      -0.490774       -13.3547
  50   2.0000      -0.485094       -13.2001
  51   2.0000      -0.476687       -12.9713
  52   2.0000      -0.467976       -12.7343
  53   2.0000      -0.463627       -12.6159
  54   2.0000      -0.458901       -12.4873
  55   2.0000      -0.452531       -12.3140
  56   2.0000      -0.445602       -12.1255
  57   2.0000      -0.441978       -12.0268
  58   2.0000      -0.436287       -11.8720
  59   2.0000      -0.431402       -11.7390
  60   2.0000      -0.424417       -11.5490
  61   2.0000      -0.415540       -11.3074
  62   2.0000      -0.412495       -11.2246
  63   2.0000      -0.336281        -9.1507
  64   2.0000      -0.329985        -8.9793
  65   2.0000      -0.316330        -8.6078
  66   2.0000      -0.296953        -8.0805
  67   0.0000       0.033818         0.9202
  68   0.0000       0.048381         1.3165
  69   0.0000       0.101259         2.7554
  70   0.0000       0.115462         3.1419
  71   0.0000       0.124728         3.3940

MULLIKEN ATOMIC CHARGES
-----------------------
   0 S :    0.116155
   1 C :   -0.133661
   2 C :   -0.094764
   3 C :    0.070720
   4 C :   -0.192726
   5 H :    0.001810
   6 C :    0.021665
   7 H :    0.020894
   8 H :    0.038149
   9 C :   -0.038744
  10 H :    0.026861
  11 H :    0.024149
  12 C :   -0.028562
  13 H :    0.028192
  14 H :    0.030752
  15 H :    0.040860
  16 S :    0.116317
  17 C :   -0.077465
  18 C :   -0.045747
  19 C :   -0.048880
  20 C :   -0.201181
  21 H :    0.014242
  22 C :    0.115007
  23 H :    0.021573
  24 H :    0.025167
  25 C :   -0.044454
  26 H :    0.030063
  27 H :    0.043246
  28 C :   -0.057095
  29 H :    0.037127
  30 H :    0.017647
  31 H :    0.034700
  32 H :    0.048972
  33 H :    0.039011
Sum of atomic charges:   -0.0000000

LOEWDIN ATOMIC CHARGES
----------------------
   0 S :    0.383852
   1 C :   -0.193561
   2 C :   -0.062396
   3 C :   -0.052891
   4 C :   -0.199879
   5 H :    0.020642
   6 C :   -0.040552
   7 H :    0.033254
   8 H :    0.037185
   9 C :   -0.035423
  10 H :    0.026190
  11 H :    0.019361
  12 C :   -0.058234
  13 H :    0.026901
  14 H :    0.026102
  15 H :    0.028833
  16 S :    0.375185
  17 C :   -0.171866
  18 C :   -0.070532
  19 C :   -0.047924
  20 C :   -0.190509
  21 H :    0.028160
  22 C :   -0.020855
  23 H :    0.031665
  24 H :    0.030261
  25 C :   -0.032270
  26 H :    0.024730
  27 H :    0.029334
  28 C :   -0.070910
  29 H :    0.026042
  30 H :    0.022421
  31 H :    0.027034
  32 H :    0.030710
  33 H :    0.019941

  Mayer bond orders larger than 0.100000
B(  0-S ,  1-C ) :   1.1188 B(  0-S ,  4-C ) :   1.1403 B(  1-C ,  2-C ) :   1.6303
B(  1-C , 32-H ) :   0.9588 B(  2-C ,  3-C ) :   1.2353 B(  2-C ,  6-C ) :   1.0177
B(  3-C ,  4-C ) :   1.5780 B(  3-C ,  5-H ) :   0.9838 B(  4-C , 20-C ) :   1.0473
B(  6-C ,  7-H ) :   0.9368 B(  6-C ,  8-H ) :   0.9379 B(  6-C ,  9-C ) :   1.0529
B(  9-C , 10-H ) :   0.9509 B(  9-C , 11-H ) :   0.9580 B(  9-C , 12-C ) :   1.0852
B( 12-C , 13-H ) :   0.9723 B( 12-C , 14-H ) :   0.9726 B( 12-C , 15-H ) :   0.9757
B( 16-S , 17-C ) :   1.1411 B( 16-S , 20-C ) :   1.1322 B( 17-C , 18-C ) :   1.6173
B( 17-C , 20-C ) :   0.1135 B( 17-C , 33-H ) :   0.9692 B( 18-C , 19-C ) :   1.2458
B( 18-C , 21-H ) :   0.9813 B( 19-C , 20-C ) :   1.5912 B( 19-C , 22-C ) :   1.0023
B( 22-C , 23-H ) :   0.9392 B( 22-C , 24-H ) :   0.9224 B( 22-C , 25-C ) :   1.0701
B( 25-C , 26-H ) :   0.9579 B( 25-C , 27-H ) :   0.9574 B( 25-C , 28-C ) :   1.0514
B( 28-C , 29-H ) :   0.9768 B( 28-C , 30-H ) :   0.9766 B( 28-C , 31-H ) :   0.9788

Dispersion correction           -0.015624850
FINAL SINGLE POINT ENERGY     -1339.860225624065

DIPOLE MOMENT
-------------
                                X             Y             Z
Electronic contribution:     20.86291     -10.83144      15.89470
Nuclear contribution   :    -21.33392      11.07680     -16.39911
                        -----------------------------------------
Total Dipole Moment    :     -0.47101       0.24536      -0.50441
                        -----------------------------------------
Magnitude (a.u.)       :      0.73245
Magnitude (Debye)      :      1.86174

Rotational constants in cm-1:     0.017937     0.009087     0.007679
Rotational constants in MHz :   537.749812   272.430677   230.195844

                             ****ORCA TERMINATED NORMALLY****
TOTAL RUN TIME: 0 days 0 hours 0 minutes 21 seconds 300 msec
