                         Program Version 4.2.1 -  RELEASE  -
|  1> ! wB97X-D3 SP def2-SVP
|  2> %pal
|  3> nprocs 24
|  4> end
|  5>
|  6> * xyz 0 1
|  7> S 	 30.8516 	 -29.8442 	 -131.223
|  8> C 	 30.5767 	 -28.32 	 -132.018
|  9> C 	 29.2861 	 -27.8532 	 -131.697
| 10> C 	 28.6234 	 -28.6184 	 -130.697
| 11> C 	 29.4216 	 -29.6748 	 -130.259
| 12> H 	 27.6026 	 -28.5831 	 -130.357
| 13> C 	 28.646 	 -26.6052 	 -132.086
| 14> H 	 29.3168 	 -26.0611 	 -132.744
| 15> H 	 28.614 	 -25.9787 	 -131.215
| 16> C 	 27.2655 	 -26.66 	 -132.855
| 17> H 	 27.5297 	 -27.2234 	 -133.763
| 18> H 	 26.6683 	 -27.3241 	 -132.261
| 19> C 	 26.5872 	 -25.3021 	 -133.111
| 20> H 	 26.8557 	 -24.8761 	 -134.102
| 21> H 	 25.5258 	 -25.4372 	 -133.034
| 22> H 	 26.8442 	 -24.6207 	 -132.299
| 23> S 	 29.1539 	 -32.3978 	 -130.172
| 24> C 	 28.4033 	 -33.2522 	 -128.776
| 25> C 	 28.1066 	 -32.2828 	 -127.823
| 26> C 	 28.4455 	 -30.9236 	 -128.123
| 27> C 	 29.0635 	 -30.8102 	 -129.376
| 28> H 	 27.711 	 -32.6595 	 -126.927
| 29> C 	 28.1884 	 -29.8299 	 -127.066
| 30> H 	 28.3684 	 -30.37 	 -126.149
| 31> H 	 27.1667 	 -29.556 	 -127.086
| 32> C 	 29.1128 	 -28.5172 	 -127.18
| 33> H 	 28.9022 	 -27.9376 	 -128.046
| 34> H 	 30.1615 	 -28.8725 	 -127.182
| 35> C 	 28.7629 	 -27.5504 	 -126
| 36> H 	 29.7062 	 -26.9993 	 -125.794
| 37> H 	 28.6024 	 -28.0048 	 -125.101
| 38> H 	 27.9781 	 -26.8259 	 -126.102
| 39> H 	 31.2032 	 -27.9734 	 -132.83
| 40> H 	 28.354 	 -34.3065 	 -128.643
| 41> *
| 42>
| 43>                          ****END OF INPUT****

CARTESIAN COORDINATES (ANGSTROEM)
---------------------------------
  S     30.851600  -29.844200  -131.223000
  C     30.576700  -28.320000  -132.018000
  C     29.286100  -27.853200  -131.697000
  C     28.623400  -28.618400  -130.697000
  C     29.421600  -29.674800  -130.259000
  H     27.602600  -28.583100  -130.357000
  C     28.646000  -26.605200  -132.086000
  H     29.316800  -26.061100  -132.744000
  H     28.614000  -25.978700  -131.215000
  C     27.265500  -26.660000  -132.855000
  H     27.529700  -27.223400  -133.763000
  H     26.668300  -27.324100  -132.261000
  C     26.587200  -25.302100  -133.111000
  H     26.855700  -24.876100  -134.102000
  H     25.525800  -25.437200  -133.034000
  H     26.844200  -24.620700  -132.299000
  S     29.153900  -32.397800  -130.172000
  C     28.403300  -33.252200  -128.776000
  C     28.106600  -32.282800  -127.823000
  C     28.445500  -30.923600  -128.123000
  C     29.063500  -30.810200  -129.376000
  H     27.711000  -32.659500  -126.927000
  C     28.188400  -29.829900  -127.066000
  H     28.368400  -30.370000  -126.149000
  H     27.166700  -29.556000  -127.086000
  C     29.112800  -28.517200  -127.180000
  H     28.902200  -27.937600  -128.046000
  H     30.161500  -28.872500  -127.182000
  C     28.762900  -27.550400  -126.000000
  H     29.706200  -26.999300  -125.794000
  H     28.602400  -28.004800  -125.101000
  H     27.978100  -26.825900  -126.102000
  H     31.203200  -27.973400  -132.830000
  H     28.354000  -34.306500  -128.643000

 Total Charge           Charge          ....    0
 Multiplicity           Mult            ....    1
 Number of Electrons    NEL             ....  134
 Basis Dimension        Dim             ....  322

ORBITAL ENERGIES
----------------

  NO   OCC          E(Eh)            E(eV)
   0   2.0000     -88.966698     -2420.9069
   1   2.0000     -88.961227     -2420.7581
   2   2.0000     -10.331841      -281.1437
   3   2.0000     -10.331044      -281.1220
   4   2.0000     -10.319714      -280.8137
   5   2.0000     -10.316397      -280.7234
   6   2.0000     -10.307628      -280.4848
   7   2.0000     -10.301629      -280.3216
   8   2.0000     -10.293558      -280.1019
   9   2.0000     -10.293341      -280.0960
  10   2.0000     -10.291938      -280.0579
  11   2.0000     -10.290288      -280.0130
  12   2.0000     -10.289017      -279.9784
  13   2.0000     -10.283238      -279.8211
  14   2.0000     -10.283161      -279.8190
  15   2.0000     -10.269610      -279.4503
  16   2.0000      -8.081779      -219.9164
  17   2.0000      -8.074832      -219.7274
  18   2.0000      -6.040121      -164.3601
  19   2.0000      -6.036223      -164.2540
  20   2.0000      -6.033601      -164.1826
  21   2.0000      -6.032709      -164.1584
  22   2.0000      -6.029374      -164.0676
  23   2.0000      -6.025473      -163.9615
  24   2.0000      -1.004470       -27.3330
  25   2.0000      -0.977245       -26.5922
  26   2.0000      -0.911829       -24.8121
  27   2.0000      -0.895617       -24.3710
  28   2.0000      -0.866207       -23.5707
  29   2.0000      -0.851611       -23.1735
  30   2.0000      -0.844420       -22.9778
  31   2.0000      -0.815154       -22.1815
  32   2.0000      -0.778887       -21.1946
  33   2.0000      -0.770133       -20.9564
  34   2.0000      -0.714224       -19.4350
  35   2.0000      -0.705942       -19.2097
  36   2.0000      -0.689690       -18.7674
  37   2.0000      -0.661055       -17.9882
  38   2.0000      -0.645117       -17.5545
  39   2.0000      -0.621710       -16.9176
  40   2.0000      -0.586729       -15.9657
  41   2.0000      -0.567087       -15.4312
  42   2.0000      -0.565617       -15.3912
  43   2.0000      -0.559011       -15.2115
  44   2.0000      -0.525925       -14.3111
  45   2.0000      -0.519513       -14.1367
  46   2.0000      -0.515085       -14.0162
  47   2.0000      -0.510131       -13.8814
  48   2.0000      -0.509275       -13.8581
  49   2.0000      -0.499269       -13.5858
  50   2.0000      -0.493441       -13.4272
  51   2.0000      -0.486839       -13.2476
  52   2.0000      -0.469997       -12.7893
  53   2.0000      -0.466652       -12.6983
  54   2.0000      -0.462792       -12.5932
  55   2.0000      -0.450061       -12.2468
  56   2.0000      -0.444868       -12.1055
  57   2.0000      -0.435628       -11.8540
  58   2.0000      -0.431990       -11.7551
  59   2.0000      -0.427277       -11.6268
  60   2.0000      -0.417630       -11.3643
  61   2.0000      -0.410970       -11.1831
  62   2.0000      -0.406100       -11.0506
  63   2.0000      -0.345316        -9.3965
  64   2.0000      -0.326893        -8.8952
  65   2.0000      -0.325694        -8.8626
  66   2.0000      -0.292149        -7.9498
  67   0.0000       0.026854         0.7307
  68   0.0000       0.066587         1.8119
  69   0.0000       0.106371         2.8945
  70   0.0000       0.116593         3.1727
  71   0.0000       0.133559         3.6343

MULLIKEN ATOMIC CHARGES
-----------------------
   0 S :    0.107918
   1 C :   -0.105320
   2 C :   -0.092270
   3 C :    0.039383
   4 C :   -0.157238
   5 H :    0.023787
   6 C :    0.043819
   7 H :    0.001753
   8 H :    0.029045
   9 C :   -0.088420
  10 H :    0.035667
  11 H :    0.016888
  12 C :   -0.024103
  13 H :    0.049620
  14 H :    0.033136
  15 H :    0.029362
  16 S :    0.076757
  17 C :   -0.087005
  18 C :   -0.033113
  19 C :   -0.031569
  20 C :   -0.150602
  21 H :   -0.000602
  22 C :    0.071229
  23 H :    0.024650
  24 H :    0.029876
  25 C :   -0.082516
  26 H :    0.041587
  27 H :    0.049398
  28 C :   -0.017970
  29 H :    0.026901
  30 H :   -0.002809
  31 H :    0.033057
  32 H :    0.054853
  33 H :    0.054850
Sum of atomic charges:    0.0000000

LOEWDIN ATOMIC CHARGES
----------------------
   0 S :    0.424326
   1 C :   -0.205381
   2 C :   -0.061977
   3 C :   -0.059782
   4 C :   -0.193789
   5 H :    0.033757
   6 C :   -0.040432
   7 H :    0.023426
   8 H :    0.028016
   9 C :   -0.036011
  10 H :    0.029107
  11 H :    0.014776
  12 C :   -0.064371
  13 H :    0.033465
  14 H :    0.027884
  15 H :    0.027540
  16 S :    0.369532
  17 C :   -0.167689
  18 C :   -0.066224
  19 C :   -0.062693
  20 C :   -0.191078
  21 H :    0.021238
  22 C :   -0.024037
  23 H :    0.030828
  24 H :    0.026222
  25 C :   -0.028851
  26 H :    0.021669
  27 H :    0.032622
  28 C :   -0.065039
  29 H :    0.034708
  30 H :    0.007931
  31 H :    0.023696
  32 H :    0.029568
  33 H :    0.027040

  Mayer bond orders larger than 0.100000
B(  0-S ,  1-C ) :   1.1417 B(  0-S ,  4-C ) :   1.1797 B(  1-C ,  2-C ) :   1.5728
B(  1-C ,  4-C ) :   0.1003 B(  1-C , 32-H ) :   0.9705 B(  2-C ,  3-C ) :   1.2455
B(  2-C ,  6-C ) :   1.0495 B(  3-C ,  4-C ) :   1.5532 B(  3-C ,  5-H ) :   0.9904
B(  4-C , 20-C ) :   1.0128 B(  6-C ,  7-H ) :   0.9375 B(  6-C ,  8-H ) :   0.9371
B(  6-C ,  9-C ) :   1.0463 B(  9-C , 10-H ) :   0.9568 B(  9-C , 11-H ) :   0.9661
B(  9-C , 12-C ) :   1.0689 B( 12-C , 13-H ) :   0.9771 B( 12-C , 14-H ) :   0.9748
B( 12-C , 15-H ) :   0.9752 B( 16-S , 17-C ) :   1.1315 B( 16-S , 20-C ) :   1.1385
B( 17-C , 18-C ) :   1.6203 B( 17-C , 20-C ) :   0.1019 B( 17-C , 33-H ) :   0.9727
B( 18-C , 19-C ) :   1.2345 B( 18-C , 21-H ) :   0.9941 B( 19-C , 20-C ) :   1.6052
B( 19-C , 22-C ) :   1.0158 B( 22-C , 23-H ) :   0.9414 B( 22-C , 24-H ) :   0.9332
B( 22-C , 25-C ) :   1.0705 B( 25-C , 26-H ) :   0.9519 B( 25-C , 27-H ) :   0.9627
B( 25-C , 28-C ) :   1.0704 B( 28-C , 29-H ) :   0.9722 B( 28-C , 30-H ) :   0.9739
B( 28-C , 31-H ) :   0.9791

Dispersion correction           -0.014002547
FINAL SINGLE POINT ENERGY     -1339.860900880327

DIPOLE MOMENT
-------------
                                X             Y             Z
Electronic contribution:     12.45645     -25.00954      -5.97481
Nuclear contribution   :    -12.89109      25.43136       6.21884
                        -----------------------------------------
Total Dipole Moment    :     -0.43464       0.42182       0.24402
                        -----------------------------------------
Magnitude (a.u.)       :      0.65298
Magnitude (Debye)      :      1.65975

Rotational constants in cm-1:     0.016892     0.008652     0.007023
Rotational constants in MHz :   506.398288   259.394541   210.533137

                             ****ORCA TERMINATED NORMALLY****
TOTAL RUN TIME: 0 days 0 hours 0 minutes 20 seconds 229 msec
