                         Program Version 4.2.1 -  RELEASE  -
|  1> ! wB97X-D3 SP def2-SVP
|  2> %pal
|  3> nprocs 24
|  4> end
|  5>
|  6> * xyz 0 1
|  7> S 	 -112.802 	 14.4562 	 -5.52236
|  8> C 	 -113.055 	 13.4309 	 -4.15611
|  9> C 	 -113.538 	 12.1884 	 -4.49443
| 10> C 	 -114.015 	 12.1976 	 -5.88194
| 11> C 	 -113.852 	 13.4543 	 -6.46004
| 12> H 	 -114.588 	 11.4048 	 -6.38524
| 13> C 	 -113.447 	 10.9638 	 -3.62291
| 14> H 	 -112.951 	 11.3355 	 -2.72767
| 15> H 	 -112.972 	 10.0973 	 -4.09882
| 16> C 	 -114.825 	 10.3597 	 -3.17248
| 17> H 	 -115.407 	 11.3012 	 -3.03659
| 18> H 	 -115.279 	 9.84918 	 -4.03045
| 19> C 	 -114.755 	 9.37692 	 -2.05995
| 20> H 	 -114.609 	 8.42895 	 -2.55322
| 21> H 	 -113.946 	 9.5246 	 -1.37331
| 22> H 	 -115.652 	 9.37064 	 -1.41977
| 23> S 	 -112.932 	 13.9083 	 -8.94661
| 24> C 	 -113.959 	 14.1091 	 -10.288
| 25> C 	 -115.296 	 13.9637 	 -9.9686
| 26> C 	 -115.467 	 13.6171 	 -8.5911
| 27> C 	 -114.259 	 13.6354 	 -7.87229
| 28> H 	 -115.953 	 13.9703 	 -10.844
| 29> C 	 -116.817 	 13.2716 	 -8.00922
| 30> H 	 -116.724 	 13.3408 	 -6.95035
| 31> H 	 -117.041 	 12.2132 	 -8.12354
| 32> C 	 -118.025 	 14.2309 	 -8.35994
| 33> H 	 -118.918 	 13.8891 	 -7.88772
| 34> H 	 -118.212 	 14.2328 	 -9.43365
| 35> C 	 -117.664 	 15.7084 	 -7.92856
| 36> H 	 -118.541 	 16.3212 	 -8.06366
| 37> H 	 -116.849 	 16.1181 	 -8.52332
| 38> H 	 -117.348 	 15.795 	 -6.88975
| 39> H 	 -112.608 	 13.7344 	 -3.18682
| 40> H 	 -113.629 	 14.3521 	 -11.2968
| 41> *
| 42>
| 43>                          ****END OF INPUT****

CARTESIAN COORDINATES (ANGSTROEM)
---------------------------------
  S    -112.802000   14.456200   -5.522360
  C    -113.055000   13.430900   -4.156110
  C    -113.538000   12.188400   -4.494430
  C    -114.015000   12.197600   -5.881940
  C    -113.852000   13.454300   -6.460040
  H    -114.588000   11.404800   -6.385240
  C    -113.447000   10.963800   -3.622910
  H    -112.951000   11.335500   -2.727670
  H    -112.972000   10.097300   -4.098820
  C    -114.825000   10.359700   -3.172480
  H    -115.407000   11.301200   -3.036590
  H    -115.279000    9.849180   -4.030450
  C    -114.755000    9.376920   -2.059950
  H    -114.609000    8.428950   -2.553220
  H    -113.946000    9.524600   -1.373310
  H    -115.652000    9.370640   -1.419770
  S    -112.932000   13.908300   -8.946610
  C    -113.959000   14.109100  -10.288000
  C    -115.296000   13.963700   -9.968600
  C    -115.467000   13.617100   -8.591100
  C    -114.259000   13.635400   -7.872290
  H    -115.953000   13.970300  -10.844000
  C    -116.817000   13.271600   -8.009220
  H    -116.724000   13.340800   -6.950350
  H    -117.041000   12.213200   -8.123540
  C    -118.025000   14.230900   -8.359940
  H    -118.918000   13.889100   -7.887720
  H    -118.212000   14.232800   -9.433650
  C    -117.664000   15.708400   -7.928560
  H    -118.541000   16.321200   -8.063660
  H    -116.849000   16.118100   -8.523320
  H    -117.348000   15.795000   -6.889750
  H    -112.608000   13.734400   -3.186820
  H    -113.629000   14.352100  -11.296800

 Total Charge           Charge          ....    0
 Multiplicity           Mult            ....    1
 Number of Electrons    NEL             ....  134
 Basis Dimension        Dim             ....  322

ORBITAL ENERGIES
----------------

  NO   OCC          E(Eh)            E(eV)
   0   2.0000     -88.968732     -2420.9623
   1   2.0000     -88.961418     -2420.7632
   2   2.0000     -10.330077      -281.0957
   3   2.0000     -10.325005      -280.9577
   4   2.0000     -10.316449      -280.7248
   5   2.0000     -10.310147      -280.5534
   6   2.0000     -10.305881      -280.4373
   7   2.0000     -10.305095      -280.4159
   8   2.0000     -10.298983      -280.2496
   9   2.0000     -10.293693      -280.1056
  10   2.0000     -10.291581      -280.0482
  11   2.0000     -10.287776      -279.9446
  12   2.0000     -10.285454      -279.8814
  13   2.0000     -10.284920      -279.8669
  14   2.0000     -10.275962      -279.6231
  15   2.0000     -10.271428      -279.4998
  16   2.0000      -8.084377      -219.9871
  17   2.0000      -8.077628      -219.8034
  18   2.0000      -6.042866      -164.4347
  19   2.0000      -6.039034      -164.3305
  20   2.0000      -6.035949      -164.2465
  21   2.0000      -6.034819      -164.2158
  22   2.0000      -6.031817      -164.1341
  23   2.0000      -6.028625      -164.0472
  24   2.0000      -1.010612       -27.5002
  25   2.0000      -0.989023       -26.9127
  26   2.0000      -0.913612       -24.8606
  27   2.0000      -0.900069       -24.4921
  28   2.0000      -0.871109       -23.7041
  29   2.0000      -0.852879       -23.2080
  30   2.0000      -0.841124       -22.8882
  31   2.0000      -0.813644       -22.1404
  32   2.0000      -0.781507       -21.2659
  33   2.0000      -0.770256       -20.9597
  34   2.0000      -0.707001       -19.2385
  35   2.0000      -0.696221       -18.9451
  36   2.0000      -0.688622       -18.7384
  37   2.0000      -0.653076       -17.7711
  38   2.0000      -0.640699       -17.4343
  39   2.0000      -0.617859       -16.8128
  40   2.0000      -0.594378       -16.1739
  41   2.0000      -0.581157       -15.8141
  42   2.0000      -0.560215       -15.2442
  43   2.0000      -0.545661       -14.8482
  44   2.0000      -0.533138       -14.5074
  45   2.0000      -0.521784       -14.1985
  46   2.0000      -0.519194       -14.1280
  47   2.0000      -0.514077       -13.9888
  48   2.0000      -0.497779       -13.5452
  49   2.0000      -0.496157       -13.5011
  50   2.0000      -0.489937       -13.3319
  51   2.0000      -0.477988       -13.0067
  52   2.0000      -0.477055       -12.9813
  53   2.0000      -0.470316       -12.7980
  54   2.0000      -0.457641       -12.4530
  55   2.0000      -0.446789       -12.1578
  56   2.0000      -0.443733       -12.0746
  57   2.0000      -0.433041       -11.7836
  58   2.0000      -0.427469       -11.6320
  59   2.0000      -0.426485       -11.6052
  60   2.0000      -0.422182       -11.4882
  61   2.0000      -0.417975       -11.3737
  62   2.0000      -0.409493       -11.1429
  63   2.0000      -0.342659        -9.3242
  64   2.0000      -0.327961        -8.9243
  65   2.0000      -0.325364        -8.8536
  66   2.0000      -0.295058        -8.0289
  67   0.0000       0.036040         0.9807
  68   0.0000       0.064564         1.7569
  69   0.0000       0.103770         2.8237
  70   0.0000       0.126485         3.4418
  71   0.0000       0.137842         3.7509

MULLIKEN ATOMIC CHARGES
-----------------------
   0 S :    0.125362
   1 C :   -0.140396
   2 C :   -0.076679
   3 C :    0.015546
   4 C :   -0.134913
   5 H :    0.033589
   6 C :    0.075101
   7 H :    0.013744
   8 H :    0.042087
   9 C :   -0.131458
  10 H :    0.034042
  11 H :    0.028510
  12 C :   -0.006321
  13 H :    0.029721
  14 H :    0.020045
  15 H :    0.042253
  16 S :    0.109686
  17 C :   -0.102493
  18 C :   -0.051772
  19 C :   -0.038941
  20 C :   -0.184660
  21 H :    0.028430
  22 C :    0.073187
  23 H :    0.008831
  24 H :    0.035920
  25 C :   -0.062738
  26 H :    0.025808
  27 H :    0.029688
  28 C :   -0.064176
  29 H :    0.030760
  30 H :    0.044805
  31 H :    0.032446
  32 H :    0.061112
  33 H :    0.053874
Sum of atomic charges:    0.0000000

LOEWDIN ATOMIC CHARGES
----------------------
   0 S :    0.420819
   1 C :   -0.204043
   2 C :   -0.063248
   3 C :   -0.054944
   4 C :   -0.208863
   5 H :    0.035909
   6 C :   -0.030074
   7 H :    0.028286
   8 H :    0.034981
   9 C :   -0.051259
  10 H :    0.023477
  11 H :    0.021432
  12 C :   -0.065159
  13 H :    0.029179
  14 H :    0.020818
  15 H :    0.034703
  16 S :    0.431942
  17 C :   -0.202510
  18 C :   -0.080677
  19 C :   -0.057467
  20 C :   -0.203259
  21 H :    0.037688
  22 C :   -0.035984
  23 H :    0.024959
  24 H :    0.030685
  25 C :   -0.029463
  26 H :    0.020222
  27 H :    0.019841
  28 C :   -0.064368
  29 H :    0.022629
  30 H :    0.028093
  31 H :    0.025241
  32 H :    0.031544
  33 H :    0.028871

  Mayer bond orders larger than 0.100000
B(  0-S ,  1-C ) :   1.1407 B(  0-S ,  4-C ) :   1.1545 B(  1-C ,  2-C ) :   1.6173
B(  1-C , 32-H ) :   0.9615 B(  2-C ,  3-C ) :   1.2078 B(  2-C ,  6-C ) :   1.0478
B(  3-C ,  4-C ) :   1.5705 B(  3-C ,  5-H ) :   0.9930 B(  4-C , 20-C ) :   1.0223
B(  6-C ,  7-H ) :   0.9353 B(  6-C ,  8-H ) :   0.9431 B(  6-C ,  9-C ) :   1.0470
B(  9-C , 10-H ) :   0.9629 B(  9-C , 11-H ) :   0.9607 B(  9-C , 12-C ) :   1.0734
B( 12-C , 13-H ) :   0.9741 B( 12-C , 14-H ) :   0.9760 B( 12-C , 15-H ) :   0.9732
B( 16-S , 17-C ) :   1.1761 B( 16-S , 20-C ) :   1.1659 B( 17-C , 18-C ) :   1.6097
B( 17-C , 33-H ) :   0.9636 B( 18-C , 19-C ) :   1.2296 B( 18-C , 21-H ) :   0.9920
B( 19-C , 20-C ) :   1.5915 B( 19-C , 22-C ) :   1.0412 B( 22-C , 23-H ) :   0.9312
B( 22-C , 24-H ) :   0.9347 B( 22-C , 25-C ) :   1.0655 B( 25-C , 26-H ) :   0.9598
B( 25-C , 27-H ) :   0.9571 B( 25-C , 28-C ) :   1.0696 B( 28-C , 29-H ) :   0.9763
B( 28-C , 30-H ) :   0.9739 B( 28-C , 31-H ) :   0.9787

Dispersion correction           -0.014068894
FINAL SINGLE POINT ENERGY     -1339.870607037128

DIPOLE MOMENT
-------------
                                X             Y             Z
Electronic contribution:     19.61644      11.09507     -11.79590
Nuclear contribution   :    -19.91550     -11.54939      11.95598
                        -----------------------------------------
Total Dipole Moment    :     -0.29906      -0.45432       0.16008
                        -----------------------------------------
Magnitude (a.u.)       :      0.56698
Magnitude (Debye)      :      1.44115

Rotational constants in cm-1:     0.019520     0.007770     0.006592
Rotational constants in MHz :   585.197098   232.926859   197.617509

                             ****ORCA TERMINATED NORMALLY****
TOTAL RUN TIME: 0 days 0 hours 0 minutes 21 seconds 312 msec
