                         Program Version 4.2.1 -  RELEASE  -
|  1> ! wB97X-D3 SP def2-SVP
|  2> %pal
|  3> nprocs 24
|  4> end
|  5>
|  6> * xyz 0 1
|  7> S 	 -106.096 	 11.2834 	 -8.89613
|  8> C 	 -105.43 	 12.1496 	 -7.51511
|  9> C 	 -106.313 	 12.2282 	 -6.46805
| 10> C 	 -107.607 	 11.7854 	 -6.84233
| 11> C 	 -107.659 	 11.3237 	 -8.1046
| 12> H 	 -108.455 	 11.7884 	 -6.19372
| 13> C 	 -106.005 	 12.6897 	 -5.07212
| 14> H 	 -106.449 	 13.6772 	 -5.04001
| 15> H 	 -104.936 	 12.8918 	 -5.01422
| 16> C 	 -106.387 	 11.8353 	 -3.92046
| 17> H 	 -106.334 	 10.7886 	 -4.21914
| 18> H 	 -105.682 	 12.0231 	 -3.102
| 19> C 	 -107.758 	 12.107 	 -3.33476
| 20> H 	 -107.985 	 13.1328 	 -3.11521
| 21> H 	 -108.463 	 11.7374 	 -4.02401
| 22> H 	 -107.898 	 11.6231 	 -2.38241
| 23> S 	 -108.522 	 9.38483 	 -9.72256
| 24> C 	 -110.243 	 9.14463 	 -9.94678
| 25> C 	 -111.037 	 10.1092 	 -9.2802
| 26> C 	 -110.225 	 11.1012 	 -8.61938
| 27> C 	 -108.844 	 10.7893 	 -8.72302
| 28> H 	 -112.11 	 10.1358 	 -9.29911
| 29> C 	 -110.841 	 12.287 	 -7.82284
| 30> H 	 -110.036 	 13.0037 	 -7.76259
| 31> H 	 -111.134 	 11.9048 	 -6.86548
| 32> C 	 -112.076 	 12.9228 	 -8.44409
| 33> H 	 -112.929 	 12.232 	 -8.58271
| 34> H 	 -111.819 	 13.331 	 -9.46253
| 35> C 	 -112.64 	 14.1384 	 -7.66123
| 36> H 	 -111.877 	 14.8924 	 -7.43933
| 37> H 	 -113.253 	 13.8616 	 -6.75979
| 38> H 	 -113.343 	 14.5561 	 -8.41955
| 39> H 	 -104.426 	 12.3231 	 -7.36394
| 40> H 	 -110.649 	 8.38111 	 -10.5561
| 41> *
| 42>
| 43>                          ****END OF INPUT****

CARTESIAN COORDINATES (ANGSTROEM)
---------------------------------
  S    -106.096000   11.283400   -8.896130
  C    -105.430000   12.149600   -7.515110
  C    -106.313000   12.228200   -6.468050
  C    -107.607000   11.785400   -6.842330
  C    -107.659000   11.323700   -8.104600
  H    -108.455000   11.788400   -6.193720
  C    -106.005000   12.689700   -5.072120
  H    -106.449000   13.677200   -5.040010
  H    -104.936000   12.891800   -5.014220
  C    -106.387000   11.835300   -3.920460
  H    -106.334000   10.788600   -4.219140
  H    -105.682000   12.023100   -3.102000
  C    -107.758000   12.107000   -3.334760
  H    -107.985000   13.132800   -3.115210
  H    -108.463000   11.737400   -4.024010
  H    -107.898000   11.623100   -2.382410
  S    -108.522000    9.384830   -9.722560
  C    -110.243000    9.144630   -9.946780
  C    -111.037000   10.109200   -9.280200
  C    -110.225000   11.101200   -8.619380
  C    -108.844000   10.789300   -8.723020
  H    -112.110000   10.135800   -9.299110
  C    -110.841000   12.287000   -7.822840
  H    -110.036000   13.003700   -7.762590
  H    -111.134000   11.904800   -6.865480
  C    -112.076000   12.922800   -8.444090
  H    -112.929000   12.232000   -8.582710
  H    -111.819000   13.331000   -9.462530
  C    -112.640000   14.138400   -7.661230
  H    -111.877000   14.892400   -7.439330
  H    -113.253000   13.861600   -6.759790
  H    -113.343000   14.556100   -8.419550
  H    -104.426000   12.323100   -7.363940
  H    -110.649000    8.381110  -10.556100

 Total Charge           Charge          ....    0
 Multiplicity           Mult            ....    1
 Number of Electrons    NEL             ....  134
 Basis Dimension        Dim             ....  322

ORBITAL ENERGIES
----------------

  NO   OCC          E(Eh)            E(eV)
   0   2.0000     -88.967506     -2420.9289
   1   2.0000     -88.965781     -2420.8820
   2   2.0000     -10.325876      -280.9814
   3   2.0000     -10.323252      -280.9100
   4   2.0000     -10.317485      -280.7530
   5   2.0000     -10.308735      -280.5149
   6   2.0000     -10.303665      -280.3770
   7   2.0000     -10.298125      -280.2262
   8   2.0000     -10.295190      -280.1464
   9   2.0000     -10.293734      -280.1068
  10   2.0000     -10.293161      -280.0911
  11   2.0000     -10.286765      -279.9171
  12   2.0000     -10.285241      -279.8756
  13   2.0000     -10.284008      -279.8421
  14   2.0000     -10.283896      -279.8390
  15   2.0000     -10.270090      -279.4633
  16   2.0000      -8.082136      -219.9261
  17   2.0000      -8.080486      -219.8812
  18   2.0000      -6.040518      -164.3709
  19   2.0000      -6.039120      -164.3328
  20   2.0000      -6.036742      -164.2681
  21   2.0000      -6.035286      -164.2285
  22   2.0000      -6.032972      -164.1655
  23   2.0000      -6.030838      -164.1074
  24   2.0000      -1.008784       -27.4504
  25   2.0000      -0.979630       -26.6571
  26   2.0000      -0.921025       -25.0624
  27   2.0000      -0.907809       -24.7027
  28   2.0000      -0.871501       -23.7148
  29   2.0000      -0.854627       -23.2556
  30   2.0000      -0.845148       -22.9976
  31   2.0000      -0.816094       -22.2071
  32   2.0000      -0.787011       -21.4157
  33   2.0000      -0.772783       -21.0285
  34   2.0000      -0.706089       -19.2136
  35   2.0000      -0.700808       -19.0699
  36   2.0000      -0.694950       -18.9106
  37   2.0000      -0.658251       -17.9119
  38   2.0000      -0.641089       -17.4449
  39   2.0000      -0.627429       -17.0732
  40   2.0000      -0.594244       -16.1702
  41   2.0000      -0.573934       -15.6175
  42   2.0000      -0.569057       -15.4848
  43   2.0000      -0.553090       -15.0503
  44   2.0000      -0.538778       -14.6609
  45   2.0000      -0.526692       -14.3320
  46   2.0000      -0.521491       -14.1905
  47   2.0000      -0.511849       -13.9281
  48   2.0000      -0.505795       -13.7634
  49   2.0000      -0.500573       -13.6213
  50   2.0000      -0.494125       -13.4458
  51   2.0000      -0.489713       -13.3258
  52   2.0000      -0.470234       -12.7957
  53   2.0000      -0.462996       -12.5988
  54   2.0000      -0.457619       -12.4524
  55   2.0000      -0.454916       -12.3789
  56   2.0000      -0.448230       -12.1970
  57   2.0000      -0.436402       -11.8751
  58   2.0000      -0.430924       -11.7260
  59   2.0000      -0.425631       -11.5820
  60   2.0000      -0.422824       -11.5056
  61   2.0000      -0.417151       -11.3513
  62   2.0000      -0.413079       -11.2405
  63   2.0000      -0.352723        -9.5981
  64   2.0000      -0.334747        -9.1089
  65   2.0000      -0.328444        -8.9374
  66   2.0000      -0.281272        -7.6538
  67   0.0000       0.025353         0.6899
  68   0.0000       0.073904         2.0110
  69   0.0000       0.098429         2.6784
  70   0.0000       0.124464         3.3868
  71   0.0000       0.138905         3.7798

MULLIKEN ATOMIC CHARGES
-----------------------
   0 S :    0.102028
   1 C :   -0.082170
   2 C :   -0.103457
   3 C :   -0.008038
   4 C :   -0.100106
   5 H :   -0.006699
   6 C :    0.099361
   7 H :    0.031023
   8 H :    0.007316
   9 C :   -0.072325
  10 H :    0.040765
  11 H :    0.030832
  12 C :   -0.021143
  13 H :    0.020525
  14 H :    0.016656
  15 H :    0.025249
  16 S :    0.100138
  17 C :   -0.074436
  18 C :   -0.033449
  19 C :   -0.059796
  20 C :   -0.154814
  21 H :    0.014170
  22 C :    0.110498
  23 H :    0.030487
  24 H :    0.034035
  25 C :   -0.138041
  26 H :    0.035980
  27 H :    0.040174
  28 C :   -0.065039
  29 H :    0.040846
  30 H :    0.045920
  31 H :    0.038450
  32 H :    0.010227
  33 H :    0.044832
Sum of atomic charges:    0.0000000

LOEWDIN ATOMIC CHARGES
----------------------
   0 S :    0.387585
   1 C :   -0.186414
   2 C :   -0.053303
   3 C :   -0.066414
   4 C :   -0.185617
   5 H :    0.026446
   6 C :   -0.034467
   7 H :    0.034931
   8 H :    0.030982
   9 C :   -0.041190
  10 H :    0.030961
  11 H :    0.029508
  12 C :   -0.058975
  13 H :    0.021641
  14 H :    0.015198
  15 H :    0.026685
  16 S :    0.406055
  17 C :   -0.180597
  18 C :   -0.064727
  19 C :   -0.053158
  20 C :   -0.193508
  21 H :    0.027656
  22 C :   -0.030107
  23 H :    0.031206
  24 H :    0.029113
  25 C :   -0.048303
  26 H :    0.023790
  27 H :    0.030659
  28 C :   -0.071015
  29 H :    0.025041
  30 H :    0.028522
  31 H :    0.033537
  32 H :    0.009420
  33 H :    0.018860

  Mayer bond orders larger than 0.100000
B(  0-S ,  1-C ) :   1.1099 B(  0-S ,  4-C ) :   1.1321 B(  1-C ,  2-C ) :   1.6510
B(  1-C , 32-H ) :   0.9675 B(  2-C ,  3-C ) :   1.2062 B(  2-C ,  6-C ) :   1.0306
B(  3-C ,  4-C ) :   1.5932 B(  3-C ,  5-H ) :   1.0012 B(  4-C , 20-C ) :   1.0660
B(  6-C ,  7-H ) :   0.9292 B(  6-C ,  8-H ) :   0.9305 B(  6-C ,  9-C ) :   1.0633
B(  9-C , 10-H ) :   0.9587 B(  9-C , 11-H ) :   0.9552 B(  9-C , 12-C ) :   1.0841
B( 12-C , 13-H ) :   0.9726 B( 12-C , 14-H ) :   0.9769 B( 12-C , 15-H ) :   0.9671
B( 16-S , 17-C ) :   1.1583 B( 16-S , 20-C ) :   1.1429 B( 17-C , 18-C ) :   1.5888
B( 17-C , 20-C ) :   0.1054 B( 17-C , 33-H ) :   0.9740 B( 18-C , 19-C ) :   1.2531
B( 18-C , 21-H ) :   0.9891 B( 19-C , 20-C ) :   1.5772 B( 19-C , 22-C ) :   1.0313
B( 22-C , 23-H ) :   0.9331 B( 22-C , 24-H ) :   0.9285 B( 22-C , 25-C ) :   1.0729
B( 25-C , 26-H ) :   0.9490 B( 25-C , 27-H ) :   0.9597 B( 25-C , 28-C ) :   1.0833
B( 28-C , 29-H ) :   0.9744 B( 28-C , 30-H ) :   0.9742 B( 28-C , 31-H ) :   0.9760

Dispersion correction           -0.013826732
FINAL SINGLE POINT ENERGY     -1339.879601816192

DIPOLE MOMENT
-------------
                                X             Y             Z
Electronic contribution:     14.39371     -15.23359     -21.56324
Nuclear contribution   :    -14.78320      15.48009      22.16696
                        -----------------------------------------
Total Dipole Moment    :     -0.38948       0.24649       0.60373
                        -----------------------------------------
Magnitude (a.u.)       :      0.75957
Magnitude (Debye)      :      1.93067

Rotational constants in cm-1:     0.015233     0.009746     0.006918
Rotational constants in MHz :   456.667472   292.173464   207.407920

                             ****ORCA TERMINATED NORMALLY****
TOTAL RUN TIME: 0 days 0 hours 0 minutes 20 seconds 417 msec
