                         Program Version 4.2.1 -  RELEASE  -
|  1> ! wB97X-D3 SP def2-SVP
|  2> %pal
|  3> nprocs 24
|  4> end
|  5>
|  6> * xyz 0 1
|  7> S 	 -115.709 	 24.2317 	 -116.983
|  8> C 	 -117.334 	 23.6841 	 -117.583
|  9> C 	 -117.659 	 24.3604 	 -118.734
| 10> C 	 -116.713 	 25.3849 	 -119.083
| 11> C 	 -115.598 	 25.4566 	 -118.256
| 12> H 	 -116.846 	 26.1028 	 -119.852
| 13> C 	 -118.983 	 24.1036 	 -119.476
| 14> H 	 -119.319 	 23.094 	 -119.223
| 15> H 	 -118.773 	 24.1153 	 -120.595
| 16> C 	 -120.165 	 25.0021 	 -119.17
| 17> H 	 -120.106 	 26.0372 	 -119.538
| 18> H 	 -120.955 	 24.5979 	 -119.847
| 19> C 	 -120.565 	 25.1356 	 -117.693
| 20> H 	 -121.466 	 25.7671 	 -117.585
| 21> H 	 -120.749 	 24.2204 	 -117.07
| 22> H 	 -119.703 	 25.6097 	 -117.183
| 23> S 	 -114.429 	 27.2695 	 -116.651
| 24> C 	 -113.215 	 28.3292 	 -117.268
| 25> C 	 -113.018 	 28.1552 	 -118.674
| 26> C 	 -113.826 	 27.1342 	 -119.155
| 27> C 	 -114.597 	 26.5481 	 -118.212
| 28> H 	 -112.269 	 28.7181 	 -119.228
| 29> C 	 -113.678 	 26.7311 	 -120.607
| 30> H 	 -114.299 	 25.8354 	 -120.676
| 31> H 	 -112.555 	 26.457 	 -120.703
| 32> C 	 -113.998 	 27.7851 	 -121.624
| 33> H 	 -113.521 	 27.6163 	 -122.63
| 34> H 	 -113.495 	 28.7313 	 -121.366
| 35> C 	 -115.445 	 28.0707 	 -121.864
| 36> H 	 -115.936 	 28.3711 	 -120.917
| 37> H 	 -116.062 	 27.2568 	 -122.318
| 38> H 	 -115.561 	 28.8822 	 -122.571
| 39> H 	 -117.949 	 22.7865 	 -117.127
| 40> H 	 -112.795 	 29.1168 	 -116.705
| 41> *
| 42>
| 43>                          ****END OF INPUT****

CARTESIAN COORDINATES (ANGSTROEM)
---------------------------------
  S    -115.709000   24.231700  -116.983000
  C    -117.334000   23.684100  -117.583000
  C    -117.659000   24.360400  -118.734000
  C    -116.713000   25.384900  -119.083000
  C    -115.598000   25.456600  -118.256000
  H    -116.846000   26.102800  -119.852000
  C    -118.983000   24.103600  -119.476000
  H    -119.319000   23.094000  -119.223000
  H    -118.773000   24.115300  -120.595000
  C    -120.165000   25.002100  -119.170000
  H    -120.106000   26.037200  -119.538000
  H    -120.955000   24.597900  -119.847000
  C    -120.565000   25.135600  -117.693000
  H    -121.466000   25.767100  -117.585000
  H    -120.749000   24.220400  -117.070000
  H    -119.703000   25.609700  -117.183000
  S    -114.429000   27.269500  -116.651000
  C    -113.215000   28.329200  -117.268000
  C    -113.018000   28.155200  -118.674000
  C    -113.826000   27.134200  -119.155000
  C    -114.597000   26.548100  -118.212000
  H    -112.269000   28.718100  -119.228000
  C    -113.678000   26.731100  -120.607000
  H    -114.299000   25.835400  -120.676000
  H    -112.555000   26.457000  -120.703000
  C    -113.998000   27.785100  -121.624000
  H    -113.521000   27.616300  -122.630000
  H    -113.495000   28.731300  -121.366000
  C    -115.445000   28.070700  -121.864000
  H    -115.936000   28.371100  -120.917000
  H    -116.062000   27.256800  -122.318000
  H    -115.561000   28.882200  -122.571000
  H    -117.949000   22.786500  -117.127000
  H    -112.795000   29.116800  -116.705000

 Total Charge           Charge          ....    0
 Multiplicity           Mult            ....    1
 Number of Electrons    NEL             ....  134
 Basis Dimension        Dim             ....  322

ORBITAL ENERGIES
----------------

  NO   OCC          E(Eh)            E(eV)
   0   2.0000     -88.968547     -2420.9572
   1   2.0000     -88.966561     -2420.9032
   2   2.0000     -10.335008      -281.2299
   3   2.0000     -10.327151      -281.0161
   4   2.0000     -10.323116      -280.9063
   5   2.0000     -10.316880      -280.7366
   6   2.0000     -10.304019      -280.3866
   7   2.0000     -10.299913      -280.2749
   8   2.0000     -10.295396      -280.1520
   9   2.0000     -10.295176      -280.1460
  10   2.0000     -10.294719      -280.1335
  11   2.0000     -10.294267      -280.1213
  12   2.0000     -10.290802      -280.0270
  13   2.0000     -10.289427      -279.9895
  14   2.0000     -10.282091      -279.7899
  15   2.0000     -10.279654      -279.7236
  16   2.0000      -8.084031      -219.9777
  17   2.0000      -8.079891      -219.8650
  18   2.0000      -6.042295      -164.4192
  19   2.0000      -6.038568      -164.3178
  20   2.0000      -6.038391      -164.3130
  21   2.0000      -6.035025      -164.2214
  22   2.0000      -6.034590      -164.2095
  23   2.0000      -6.030548      -164.0995
  24   2.0000      -1.011019       -27.5112
  25   2.0000      -0.980432       -26.6789
  26   2.0000      -0.917131       -24.9564
  27   2.0000      -0.908457       -24.7204
  28   2.0000      -0.864037       -23.5116
  29   2.0000      -0.858786       -23.3688
  30   2.0000      -0.838820       -22.8255
  31   2.0000      -0.810149       -22.0453
  32   2.0000      -0.784158       -21.3380
  33   2.0000      -0.775768       -21.1097
  34   2.0000      -0.705113       -19.1871
  35   2.0000      -0.697227       -18.9725
  36   2.0000      -0.689842       -18.7716
  37   2.0000      -0.665943       -18.1212
  38   2.0000      -0.633921       -17.2499
  39   2.0000      -0.617839       -16.8123
  40   2.0000      -0.595000       -16.1908
  41   2.0000      -0.562671       -15.3111
  42   2.0000      -0.559772       -15.2322
  43   2.0000      -0.547625       -14.9016
  44   2.0000      -0.539634       -14.6842
  45   2.0000      -0.534475       -14.5438
  46   2.0000      -0.522467       -14.2171
  47   2.0000      -0.511544       -13.9198
  48   2.0000      -0.500418       -13.6171
  49   2.0000      -0.495580       -13.4854
  50   2.0000      -0.488400       -13.2900
  51   2.0000      -0.479410       -13.0454
  52   2.0000      -0.469505       -12.7759
  53   2.0000      -0.461805       -12.5664
  54   2.0000      -0.453777       -12.3479
  55   2.0000      -0.449681       -12.2364
  56   2.0000      -0.444564       -12.0972
  57   2.0000      -0.440753       -11.9935
  58   2.0000      -0.436480       -11.8772
  59   2.0000      -0.429974       -11.7002
  60   2.0000      -0.419261       -11.4087
  61   2.0000      -0.406273       -11.0553
  62   2.0000      -0.404799       -11.0151
  63   2.0000      -0.345985        -9.4147
  64   2.0000      -0.337085        -9.1725
  65   2.0000      -0.330115        -8.9829
  66   2.0000      -0.292392        -7.9564
  67   0.0000       0.030242         0.8229
  68   0.0000       0.067022         1.8238
  69   0.0000       0.106297         2.8925
  70   0.0000       0.116693         3.1754
  71   0.0000       0.125869         3.4251

MULLIKEN ATOMIC CHARGES
-----------------------
   0 S :    0.088642
   1 C :   -0.176963
   2 C :   -0.079736
   3 C :    0.059144
   4 C :   -0.147014
   5 H :   -0.014391
   6 C :    0.051176
   7 H :    0.021320
   8 H :    0.042429
   9 C :   -0.068734
  10 H :    0.028446
  11 H :    0.031002
  12 C :   -0.083880
  13 H :    0.042403
  14 H :    0.030724
  15 H :    0.051357
  16 S :    0.128929
  17 C :   -0.086568
  18 C :   -0.054319
  19 C :   -0.036791
  20 C :   -0.160735
  21 H :    0.025392
  22 C :    0.071729
  23 H :    0.022721
  24 H :    0.051268
  25 C :   -0.070067
  26 H :    0.029744
  27 H :    0.020482
  28 C :   -0.063883
  29 H :    0.044022
  30 H :    0.036910
  31 H :    0.027749
  32 H :    0.092822
  33 H :    0.044669
Sum of atomic charges:   -0.0000000

LOEWDIN ATOMIC CHARGES
----------------------
   0 S :    0.364429
   1 C :   -0.197381
   2 C :   -0.069535
   3 C :   -0.061512
   4 C :   -0.182136
   5 H :    0.023565
   6 C :   -0.033804
   7 H :    0.030163
   8 H :    0.039866
   9 C :   -0.050455
  10 H :    0.025648
  11 H :    0.028058
  12 C :   -0.076995
  13 H :    0.030259
  14 H :    0.024704
  15 H :    0.032919
  16 S :    0.438617
  17 C :   -0.185169
  18 C :   -0.066390
  19 C :   -0.069392
  20 C :   -0.208078
  21 H :    0.032806
  22 C :   -0.031218
  23 H :    0.028713
  24 H :    0.047799
  25 C :   -0.053109
  26 H :    0.030477
  27 H :    0.025483
  28 C :   -0.071752
  29 H :    0.027165
  30 H :    0.026904
  31 H :    0.026533
  32 H :    0.055308
  33 H :    0.017510

  Mayer bond orders larger than 0.100000
B(  0-S ,  1-C ) :   1.1119 B(  0-S ,  4-C ) :   1.1430 B(  1-C ,  2-C ) :   1.6306
B(  1-C , 32-H ) :   0.9506 B(  2-C ,  3-C ) :   1.2214 B(  2-C ,  6-C ) :   1.0219
B(  3-C ,  4-C ) :   1.5834 B(  3-C ,  5-H ) :   0.9970 B(  4-C , 20-C ) :   1.0069
B(  6-C ,  7-H ) :   0.9419 B(  6-C ,  8-H ) :   0.9405 B(  6-C ,  9-C ) :   1.0750
B(  9-C , 10-H ) :   0.9535 B(  9-C , 11-H ) :   0.9531 B(  9-C , 12-C ) :   1.0666
B( 12-C , 13-H ) :   0.9739 B( 12-C , 14-H ) :   0.9769 B( 12-C , 15-H ) :   0.9700
B( 16-S , 17-C ) :   1.1837 B( 16-S , 20-C ) :   1.1558 B( 17-C , 18-C ) :   1.5613
B( 17-C , 20-C ) :   0.1032 B( 17-C , 33-H ) :   0.9744 B( 18-C , 19-C ) :   1.2656
B( 18-C , 21-H ) :   0.9914 B( 19-C , 20-C ) :   1.5996 B( 19-C , 22-C ) :   1.0293
B( 22-C , 23-H ) :   0.9357 B( 22-C , 24-H ) :   0.9339 B( 22-C , 25-C ) :   1.0680
B( 25-C , 26-H ) :   0.9503 B( 25-C , 27-H ) :   0.9501 B( 25-C , 28-C ) :   1.0899
B( 28-C , 29-H ) :   0.9695 B( 28-C , 30-H ) :   0.9702 B( 28-C , 31-H ) :   0.9673

Dispersion correction           -0.014893045
FINAL SINGLE POINT ENERGY     -1339.883340095254

DIPOLE MOMENT
-------------
                                X             Y             Z
Electronic contribution:     15.69804      -3.90714      19.30319
Nuclear contribution   :    -15.92339       4.19803     -19.83632
                        -----------------------------------------
Total Dipole Moment    :     -0.22534       0.29089      -0.53313
                        -----------------------------------------
Magnitude (a.u.)       :      0.64779
Magnitude (Debye)      :      1.64654

Rotational constants in cm-1:     0.019167     0.008965     0.007146
Rotational constants in MHz :   574.603702   268.758993   214.223483

                             ****ORCA TERMINATED NORMALLY****
TOTAL RUN TIME: 0 days 0 hours 0 minutes 21 seconds 882 msec
