                         Program Version 4.2.1 -  RELEASE  -
|  1> ! wB97X-D3 SP def2-SVP
|  2> %pal
|  3> nprocs 24
|  4> end
|  5>
|  6> * xyz 0 1
|  7> S 	 -38.2064 	 -10.7931 	 19.7194
|  8> C 	 -38.4252 	 -12.547 	 20.0494
|  9> C 	 -38.6239 	 -13.2427 	 18.8619
| 10> C 	 -38.5802 	 -12.3768 	 17.742
| 11> C 	 -38.2017 	 -11.0479 	 17.959
| 12> H 	 -38.685 	 -12.6555 	 16.713
| 13> C 	 -38.9002 	 -14.7763 	 18.7628
| 14> H 	 -39.7737 	 -14.9322 	 18.0943
| 15> H 	 -39.2579 	 -15.0356 	 19.716
| 16> C 	 -37.7545 	 -15.6378 	 18.2118
| 17> H 	 -38.1394 	 -16.5988 	 18.0885
| 18> H 	 -37.4104 	 -15.2537 	 17.2847
| 19> C 	 -36.5108 	 -15.8312 	 19.0932
| 20> H 	 -36.6695 	 -16.663 	 19.8564
| 21> H 	 -35.7433 	 -16.21 	 18.4829
| 22> H 	 -36.1258 	 -14.8626 	 19.4719
| 23> S 	 -38.9497 	 -8.45361 	 17.1365
| 24> C 	 -38.439 	 -7.89338 	 15.5349
| 25> C 	 -37.525 	 -8.79562 	 15.0233
| 26> C 	 -37.2389 	 -9.89928 	 15.8397
| 27> C 	 -38.0073 	 -9.96386 	 16.9928
| 28> H 	 -37.1247 	 -8.54816 	 14.0282
| 29> C 	 -36.1051 	 -10.8879 	 15.5161
| 30> H 	 -36.4141 	 -11.6026 	 14.6826
| 31> H 	 -35.8755 	 -11.5054 	 16.4197
| 32> C 	 -34.7221 	 -10.4016 	 14.9738
| 33> H 	 -34.8758 	 -9.89338 	 14.067
| 34> H 	 -34.1614 	 -11.2676 	 14.6378
| 35> C 	 -33.7762 	 -9.75413 	 15.9412
| 36> H 	 -34.1031 	 -8.7703 	 16.2083
| 37> H 	 -32.8616 	 -9.51498 	 15.4018
| 38> H 	 -33.7323 	 -10.4377 	 16.8309
| 39> H 	 -38.3569 	 -13.008 	 21.0559
| 40> H 	 -38.6506 	 -6.8693 	 15.022
| 41> *
| 42>
| 43>                          ****END OF INPUT****

CARTESIAN COORDINATES (ANGSTROEM)
---------------------------------
  S    -38.206400  -10.793100   19.719400
  C    -38.425200  -12.547000   20.049400
  C    -38.623900  -13.242700   18.861900
  C    -38.580200  -12.376800   17.742000
  C    -38.201700  -11.047900   17.959000
  H    -38.685000  -12.655500   16.713000
  C    -38.900200  -14.776300   18.762800
  H    -39.773700  -14.932200   18.094300
  H    -39.257900  -15.035600   19.716000
  C    -37.754500  -15.637800   18.211800
  H    -38.139400  -16.598800   18.088500
  H    -37.410400  -15.253700   17.284700
  C    -36.510800  -15.831200   19.093200
  H    -36.669500  -16.663000   19.856400
  H    -35.743300  -16.210000   18.482900
  H    -36.125800  -14.862600   19.471900
  S    -38.949700   -8.453610   17.136500
  C    -38.439000   -7.893380   15.534900
  C    -37.525000   -8.795620   15.023300
  C    -37.238900   -9.899280   15.839700
  C    -38.007300   -9.963860   16.992800
  H    -37.124700   -8.548160   14.028200
  C    -36.105100  -10.887900   15.516100
  H    -36.414100  -11.602600   14.682600
  H    -35.875500  -11.505400   16.419700
  C    -34.722100  -10.401600   14.973800
  H    -34.875800   -9.893380   14.067000
  H    -34.161400  -11.267600   14.637800
  C    -33.776200   -9.754130   15.941200
  H    -34.103100   -8.770300   16.208300
  H    -32.861600   -9.514980   15.401800
  H    -33.732300  -10.437700   16.830900
  H    -38.356900  -13.008000   21.055900
  H    -38.650600   -6.869300   15.022000

 Total Charge           Charge          ....    0
 Multiplicity           Mult            ....    1
 Number of Electrons    NEL             ....  134
 Basis Dimension        Dim             ....  322

ORBITAL ENERGIES
----------------

  NO   OCC          E(Eh)            E(eV)
   0   2.0000     -88.966459     -2420.9004
   1   2.0000     -88.965514     -2420.8747
   2   2.0000     -10.336002      -281.2569
   3   2.0000     -10.333551      -281.1902
   4   2.0000     -10.329167      -281.0709
   5   2.0000     -10.323890      -280.9273
   6   2.0000     -10.307464      -280.4803
   7   2.0000     -10.305829      -280.4359
   8   2.0000     -10.300203      -280.2828
   9   2.0000     -10.295627      -280.1583
  10   2.0000     -10.295443      -280.1532
  11   2.0000     -10.295130      -280.1447
  12   2.0000     -10.280954      -279.7590
  13   2.0000     -10.279782      -279.7271
  14   2.0000     -10.278307      -279.6870
  15   2.0000     -10.273653      -279.5603
  16   2.0000      -8.080281      -219.8756
  17   2.0000      -8.079083      -219.8430
  18   2.0000      -6.038911      -164.3271
  19   2.0000      -6.037698      -164.2941
  20   2.0000      -6.034869      -164.2171
  21   2.0000      -6.033764      -164.1871
  22   2.0000      -6.030977      -164.1112
  23   2.0000      -6.029770      -164.0784
  24   2.0000      -1.000980       -27.2380
  25   2.0000      -0.979268       -26.6472
  26   2.0000      -0.909054       -24.7366
  27   2.0000      -0.904813       -24.6212
  28   2.0000      -0.868616       -23.6362
  29   2.0000      -0.851168       -23.1615
  30   2.0000      -0.841138       -22.8885
  31   2.0000      -0.813644       -22.1404
  32   2.0000      -0.784777       -21.3549
  33   2.0000      -0.774004       -21.0617
  34   2.0000      -0.709580       -19.3087
  35   2.0000      -0.695164       -18.9164
  36   2.0000      -0.691946       -18.8288
  37   2.0000      -0.650980       -17.7141
  38   2.0000      -0.641342       -17.4518
  39   2.0000      -0.617215       -16.7953
  40   2.0000      -0.592933       -16.1345
  41   2.0000      -0.572388       -15.5755
  42   2.0000      -0.552035       -15.0216
  43   2.0000      -0.546730       -14.8773
  44   2.0000      -0.543179       -14.7807
  45   2.0000      -0.538606       -14.6562
  46   2.0000      -0.520606       -14.1664
  47   2.0000      -0.517465       -14.0809
  48   2.0000      -0.505946       -13.7675
  49   2.0000      -0.491113       -13.3639
  50   2.0000      -0.484994       -13.1974
  51   2.0000      -0.477485       -12.9930
  52   2.0000      -0.470122       -12.7927
  53   2.0000      -0.464934       -12.6515
  54   2.0000      -0.462450       -12.5839
  55   2.0000      -0.439762       -11.9665
  56   2.0000      -0.436009       -11.8644
  57   2.0000      -0.433733       -11.8025
  58   2.0000      -0.432200       -11.7608
  59   2.0000      -0.426454       -11.6044
  60   2.0000      -0.420608       -11.4453
  61   2.0000      -0.413782       -11.2596
  62   2.0000      -0.408873       -11.1260
  63   2.0000      -0.345895        -9.4123
  64   2.0000      -0.331719        -9.0265
  65   2.0000      -0.330947        -9.0055
  66   2.0000      -0.292903        -7.9703
  67   0.0000       0.022830         0.6212
  68   0.0000       0.063418         1.7257
  69   0.0000       0.106179         2.8893
  70   0.0000       0.122936         3.3453
  71   0.0000       0.130350         3.5470

MULLIKEN ATOMIC CHARGES
-----------------------
   0 S :    0.090909
   1 C :   -0.137795
   2 C :   -0.100274
   3 C :    0.049800
   4 C :   -0.170492
   5 H :    0.003971
   6 C :    0.097584
   7 H :    0.034601
   8 H :    0.000843
   9 C :   -0.031075
  10 H :    0.016268
  11 H :    0.019834
  12 C :   -0.060468
  13 H :    0.038691
  14 H :    0.016970
  15 H :    0.042394
  16 S :    0.099142
  17 C :   -0.134538
  18 C :   -0.057819
  19 C :    0.019102
  20 C :   -0.149258
  21 H :    0.029586
  22 C :    0.006085
  23 H :    0.043602
  24 H :    0.036869
  25 C :   -0.071477
  26 H :    0.006629
  27 H :    0.017980
  28 C :   -0.015923
  29 H :    0.022350
  30 H :    0.029587
  31 H :    0.042891
  32 H :    0.067145
  33 H :    0.096284
Sum of atomic charges:    0.0000000

LOEWDIN ATOMIC CHARGES
----------------------
   0 S :    0.372628
   1 C :   -0.184911
   2 C :   -0.066608
   3 C :   -0.057412
   4 C :   -0.184909
   5 H :    0.027480
   6 C :   -0.020893
   7 H :    0.038539
   8 H :    0.020135
   9 C :   -0.032731
  10 H :    0.019567
  11 H :    0.020637
  12 C :   -0.068241
  13 H :    0.031950
  14 H :    0.018889
  15 H :    0.028535
  16 S :    0.384249
  17 C :   -0.194837
  18 C :   -0.081401
  19 C :   -0.061272
  20 C :   -0.189158
  21 H :    0.036298
  22 C :   -0.037369
  23 H :    0.039893
  24 H :    0.032247
  25 C :   -0.045874
  26 H :    0.011702
  27 H :    0.027235
  28 C :   -0.063572
  29 H :    0.019815
  30 H :    0.029214
  31 H :    0.034869
  32 H :    0.037682
  33 H :    0.057624

  Mayer bond orders larger than 0.100000
B(  0-S ,  1-C ) :   1.1375 B(  0-S ,  4-C ) :   1.1349 B(  1-C ,  2-C ) :   1.6039
B(  1-C ,  4-C ) :   0.1056 B(  1-C , 32-H ) :   0.9637 B(  2-C ,  3-C ) :   1.2425
B(  2-C ,  6-C ) :   1.0116 B(  3-C ,  4-C ) :   1.5735 B(  3-C ,  5-H ) :   0.9960
B(  4-C , 20-C ) :   1.0516 B(  6-C ,  7-H ) :   0.9426 B(  6-C ,  8-H ) :   0.9405
B(  6-C ,  9-C ) :   1.0681 B(  9-C , 10-H ) :   0.9536 B(  9-C , 11-H ) :   0.9584
B(  9-C , 12-C ) :   1.0851 B( 12-C , 13-H ) :   0.9762 B( 12-C , 14-H ) :   0.9721
B( 12-C , 15-H ) :   0.9746 B( 16-S , 17-C ) :   1.1525 B( 16-S , 20-C ) :   1.1261
B( 17-C , 18-C ) :   1.6127 B( 17-C , 20-C ) :   0.1039 B( 17-C , 33-H ) :   0.9521
B( 18-C , 19-C ) :   1.2433 B( 18-C , 21-H ) :   0.9862 B( 19-C , 20-C ) :   1.5867
B( 19-C , 22-C ) :   1.0321 B( 22-C , 23-H ) :   0.9328 B( 22-C , 24-H ) :   0.9420
B( 22-C , 25-C ) :   1.0827 B( 25-C , 26-H ) :   0.9463 B( 25-C , 27-H ) :   0.9499
B( 25-C , 28-C ) :   1.0847 B( 28-C , 29-H ) :   0.9756 B( 28-C , 30-H ) :   0.9687
B( 28-C , 31-H ) :   0.9701

Dispersion correction           -0.013981885
FINAL SINGLE POINT ENERGY     -1339.864323915142

DIPOLE MOMENT
-------------
                                X             Y             Z
Electronic contribution:    -17.45527      20.47700       7.64899
Nuclear contribution   :     17.77156     -21.01056      -8.20160
                        -----------------------------------------
Total Dipole Moment    :      0.31630      -0.53356      -0.55261
                        -----------------------------------------
Magnitude (a.u.)       :      0.83073
Magnitude (Debye)      :      2.11154

Rotational constants in cm-1:     0.018259     0.008502     0.006731
Rotational constants in MHz :   547.394224   254.885180   201.798965

                             ****ORCA TERMINATED NORMALLY****
TOTAL RUN TIME: 0 days 0 hours 0 minutes 21 seconds 352 msec
