                         Program Version 4.2.1 -  RELEASE  -
|  1> ! wB97X-D3 SP def2-SVP
|  2> %pal
|  3> nprocs 24
|  4> end
|  5>
|  6> * xyz 0 1
|  7> S 	 -35.6063 	 -4.24081 	 5.51839
|  8> C 	 -35.4416 	 -3.72334 	 7.20537
|  9> C 	 -36.1518 	 -4.59304 	 8.07415
| 10> C 	 -36.7579 	 -5.63946 	 7.34432
| 11> C 	 -36.5963 	 -5.61554 	 5.98452
| 12> H 	 -37.2908 	 -6.44093 	 7.77395
| 13> C 	 -36.1245 	 -4.48344 	 9.56432
| 14> H 	 -37.0037 	 -5.02399 	 9.93359
| 15> H 	 -36.3491 	 -3.42312 	 9.95214
| 16> C 	 -34.8376 	 -5.10008 	 10.2367
| 17> H 	 -34.6969 	 -6.12799 	 9.86702
| 18> H 	 -33.9453 	 -4.46452 	 9.92104
| 19> C 	 -34.906 	 -5.15252 	 11.7607
| 20> H 	 -34.8085 	 -4.20184 	 12.2611
| 21> H 	 -35.7084 	 -5.79743 	 12.0732
| 22> H 	 -34.0672 	 -5.71373 	 12.134
| 23> S 	 -35.953 	 -7.70137 	 4.3107
| 24> C 	 -37.0654 	 -8.2044 	 3.07287
| 25> C 	 -38.3251 	 -7.6575 	 3.3396
| 26> C 	 -38.3306 	 -6.69524 	 4.41811
| 27> C 	 -37.0647 	 -6.46964 	 4.96289
| 28> H 	 -39.2332 	 -8.03943 	 2.87069
| 29> C 	 -39.6221 	 -6.08172 	 4.94507
| 30> H 	 -39.4154 	 -5.54092 	 5.83844
| 31> H 	 -40.4007 	 -6.8231 	 5.2369
| 32> C 	 -40.3566 	 -5.25095 	 3.90016
| 33> H 	 -40.3254 	 -5.75393 	 2.89554
| 34> H 	 -39.7923 	 -4.3211 	 3.77116
| 35> C 	 -41.8127 	 -4.88631 	 4.37952
| 36> H 	 -41.8147 	 -4.17542 	 5.25739
| 37> H 	 -42.4052 	 -5.72528 	 4.6493
| 38> H 	 -42.3255 	 -4.45044 	 3.55746
| 39> H 	 -34.9079 	 -2.76695 	 7.41548
| 40> H 	 -36.894 	 -8.87907 	 2.30711
| 41> *
| 42>
| 43>                          ****END OF INPUT****

CARTESIAN COORDINATES (ANGSTROEM)
---------------------------------
  S    -35.606300   -4.240810    5.518390
  C    -35.441600   -3.723340    7.205370
  C    -36.151800   -4.593040    8.074150
  C    -36.757900   -5.639460    7.344320
  C    -36.596300   -5.615540    5.984520
  H    -37.290800   -6.440930    7.773950
  C    -36.124500   -4.483440    9.564320
  H    -37.003700   -5.023990    9.933590
  H    -36.349100   -3.423120    9.952140
  C    -34.837600   -5.100080   10.236700
  H    -34.696900   -6.127990    9.867020
  H    -33.945300   -4.464520    9.921040
  C    -34.906000   -5.152520   11.760700
  H    -34.808500   -4.201840   12.261100
  H    -35.708400   -5.797430   12.073200
  H    -34.067200   -5.713730   12.134000
  S    -35.953000   -7.701370    4.310700
  C    -37.065400   -8.204400    3.072870
  C    -38.325100   -7.657500    3.339600
  C    -38.330600   -6.695240    4.418110
  C    -37.064700   -6.469640    4.962890
  H    -39.233200   -8.039430    2.870690
  C    -39.622100   -6.081720    4.945070
  H    -39.415400   -5.540920    5.838440
  H    -40.400700   -6.823100    5.236900
  C    -40.356600   -5.250950    3.900160
  H    -40.325400   -5.753930    2.895540
  H    -39.792300   -4.321100    3.771160
  C    -41.812700   -4.886310    4.379520
  H    -41.814700   -4.175420    5.257390
  H    -42.405200   -5.725280    4.649300
  H    -42.325500   -4.450440    3.557460
  H    -34.907900   -2.766950    7.415480
  H    -36.894000   -8.879070    2.307110

 Total Charge           Charge          ....    0
 Multiplicity           Mult            ....    1
 Number of Electrons    NEL             ....  134
 Basis Dimension        Dim             ....  322

ORBITAL ENERGIES
----------------

  NO   OCC          E(Eh)            E(eV)
   0   2.0000     -88.964197     -2420.8389
   1   2.0000     -88.962458     -2420.7916
   2   2.0000     -10.324292      -280.9383
   3   2.0000     -10.323922      -280.9282
   4   2.0000     -10.322934      -280.9013
   5   2.0000     -10.315932      -280.7108
   6   2.0000     -10.306117      -280.4437
   7   2.0000     -10.305160      -280.4177
   8   2.0000     -10.299575      -280.2657
   9   2.0000     -10.295915      -280.1661
  10   2.0000     -10.295714      -280.1606
  11   2.0000     -10.292333      -280.0686
  12   2.0000     -10.287715      -279.9430
  13   2.0000     -10.286966      -279.9226
  14   2.0000     -10.277408      -279.6625
  15   2.0000     -10.274485      -279.5829
  16   2.0000      -8.078661      -219.8315
  17   2.0000      -8.076996      -219.7862
  18   2.0000      -6.036984      -164.2747
  19   2.0000      -6.035587      -164.2367
  20   2.0000      -6.033091      -164.1688
  21   2.0000      -6.031545      -164.1267
  22   2.0000      -6.029735      -164.0774
  23   2.0000      -6.027650      -164.0207
  24   2.0000      -1.004307       -27.3286
  25   2.0000      -0.979072       -26.6419
  26   2.0000      -0.907416       -24.6920
  27   2.0000      -0.904945       -24.6248
  28   2.0000      -0.870282       -23.6816
  29   2.0000      -0.850667       -23.1478
  30   2.0000      -0.841117       -22.8880
  31   2.0000      -0.813701       -22.1419
  32   2.0000      -0.781971       -21.2785
  33   2.0000      -0.768436       -20.9102
  34   2.0000      -0.704296       -19.1649
  35   2.0000      -0.697893       -18.9906
  36   2.0000      -0.696504       -18.9528
  37   2.0000      -0.658086       -17.9074
  38   2.0000      -0.648094       -17.6355
  39   2.0000      -0.619835       -16.8666
  40   2.0000      -0.598548       -16.2873
  41   2.0000      -0.567430       -15.4405
  42   2.0000      -0.561652       -15.2833
  43   2.0000      -0.558051       -15.1853
  44   2.0000      -0.525928       -14.3112
  45   2.0000      -0.523209       -14.2373
  46   2.0000      -0.516465       -14.0537
  47   2.0000      -0.509286       -13.8584
  48   2.0000      -0.504136       -13.7182
  49   2.0000      -0.500602       -13.6221
  50   2.0000      -0.497367       -13.5340
  51   2.0000      -0.472902       -12.8683
  52   2.0000      -0.465797       -12.6750
  53   2.0000      -0.462211       -12.5774
  54   2.0000      -0.459262       -12.4971
  55   2.0000      -0.448696       -12.2096
  56   2.0000      -0.443980       -12.0813
  57   2.0000      -0.437547       -11.9063
  58   2.0000      -0.430669       -11.7191
  59   2.0000      -0.424849       -11.5607
  60   2.0000      -0.417310       -11.3556
  61   2.0000      -0.416245       -11.3266
  62   2.0000      -0.415084       -11.2950
  63   2.0000      -0.337309        -9.1787
  64   2.0000      -0.322526        -8.7764
  65   2.0000      -0.321487        -8.7481
  66   2.0000      -0.304736        -8.2923
  67   0.0000       0.034186         0.9302
  68   0.0000       0.052309         1.4234
  69   0.0000       0.104325         2.8388
  70   0.0000       0.118854         3.2342
  71   0.0000       0.128567         3.4985

MULLIKEN ATOMIC CHARGES
-----------------------
   0 S :    0.114671
   1 C :   -0.148748
   2 C :   -0.065195
   3 C :    0.076460
   4 C :   -0.197640
   5 H :   -0.007513
   6 C :    0.033163
   7 H :    0.012536
   8 H :    0.041795
   9 C :   -0.094074
  10 H :    0.035337
  11 H :    0.039525
  12 C :   -0.017104
  13 H :    0.036829
  14 H :    0.025443
  15 H :    0.019748
  16 S :    0.108830
  17 C :   -0.060004
  18 C :   -0.044263
  19 C :   -0.000801
  20 C :   -0.182241
  21 H :    0.027124
  22 C :    0.090771
  23 H :    0.014278
  24 H :    0.026767
  25 C :   -0.123295
  26 H :    0.040279
  27 H :    0.034054
  28 C :   -0.036752
  29 H :    0.042724
  30 H :    0.021091
  31 H :    0.027901
  32 H :    0.072385
  33 H :    0.035920
Sum of atomic charges:   -0.0000000

LOEWDIN ATOMIC CHARGES
----------------------
   0 S :    0.406620
   1 C :   -0.189572
   2 C :   -0.067958
   3 C :   -0.051194
   4 C :   -0.203112
   5 H :    0.026660
   6 C :   -0.044560
   7 H :    0.026733
   8 H :    0.039262
   9 C :   -0.038549
  10 H :    0.027799
  11 H :    0.029952
  12 C :   -0.069190
  13 H :    0.025672
  14 H :    0.024834
  15 H :    0.027610
  16 S :    0.401049
  17 C :   -0.174122
  18 C :   -0.074268
  19 C :   -0.045246
  20 C :   -0.205479
  21 H :    0.031448
  22 C :   -0.034200
  23 H :    0.024102
  24 H :    0.034442
  25 C :   -0.042038
  26 H :    0.027296
  27 H :    0.026026
  28 C :   -0.065930
  29 H :    0.033731
  30 H :    0.016809
  31 H :    0.022807
  32 H :    0.035142
  33 H :    0.017423

  Mayer bond orders larger than 0.100000
B(  0-S ,  1-C ) :   1.1664 B(  0-S ,  4-C ) :   1.1546 B(  1-C ,  2-C ) :   1.5521
B(  1-C ,  4-C ) :   0.1118 B(  1-C , 32-H ) :   0.9688 B(  2-C ,  3-C ) :   1.2620
B(  2-C ,  6-C ) :   1.0364 B(  3-C ,  4-C ) :   1.5710 B(  3-C ,  5-H ) :   1.0044
B(  4-C , 20-C ) :   1.0440 B(  6-C ,  7-H ) :   0.9367 B(  6-C ,  8-H ) :   0.9412
B(  6-C ,  9-C ) :   1.0511 B(  9-C , 10-H ) :   0.9562 B(  9-C , 11-H ) :   0.9563
B(  9-C , 12-C ) :   1.0920 B( 12-C , 13-H ) :   0.9740 B( 12-C , 14-H ) :   0.9708
B( 12-C , 15-H ) :   0.9687 B( 16-S , 17-C ) :   1.1624 B( 16-S , 20-C ) :   1.1340
B( 17-C , 18-C ) :   1.5915 B( 17-C , 20-C ) :   0.1067 B( 17-C , 33-H ) :   0.9789
B( 18-C , 19-C ) :   1.2443 B( 18-C , 21-H ) :   0.9824 B( 19-C , 20-C ) :   1.5839
B( 19-C , 22-C ) :   1.0495 B( 22-C , 23-H ) :   0.9303 B( 22-C , 24-H ) :   0.9424
B( 22-C , 25-C ) :   1.0478 B( 25-C , 26-H ) :   0.9632 B( 25-C , 27-H ) :   0.9522
B( 25-C , 28-C ) :   1.0749 B( 28-C , 29-H ) :   0.9752 B( 28-C , 30-H ) :   0.9753
B( 28-C , 31-H ) :   0.9745

Dispersion correction           -0.013565604
FINAL SINGLE POINT ENERGY     -1339.879418817724

DIPOLE MOMENT
-------------
                                X             Y             Z
Electronic contribution:     13.96791      -5.33621     -17.26765
Nuclear contribution   :    -14.36715       5.27658      17.71333
                        -----------------------------------------
Total Dipole Moment    :     -0.39924      -0.05963       0.44568
                        -----------------------------------------
Magnitude (a.u.)       :      0.60131
Magnitude (Debye)      :      1.52842

Rotational constants in cm-1:     0.019292     0.007272     0.006253
Rotational constants in MHz :   578.353465   217.998173   187.445284

                             ****ORCA TERMINATED NORMALLY****
TOTAL RUN TIME: 0 days 0 hours 0 minutes 19 seconds 623 msec
