                         Program Version 4.2.1 -  RELEASE  -
|  1> ! wB97X-D3 SP def2-SVP
|  2> %pal
|  3> nprocs 24
|  4> end
|  5>
|  6> * xyz 0 1
|  7> S 	 -114.682 	 49.4995 	 -118.251
|  8> C 	 -114.837 	 47.8311 	 -118.58
|  9> C 	 -115.847 	 47.1684 	 -117.932
| 10> C 	 -116.571 	 48.1364 	 -117.117
| 11> C 	 -116.053 	 49.4047 	 -117.178
| 12> H 	 -117.396 	 47.8513 	 -116.404
| 13> C 	 -116.146 	 45.7307 	 -117.979
| 14> H 	 -115.183 	 45.3323 	 -118.245
| 15> H 	 -116.69 	 45.503 	 -118.935
| 16> C 	 -116.687 	 45.0842 	 -116.713
| 17> H 	 -117.641 	 45.5077 	 -116.466
| 18> H 	 -116.957 	 44.0254 	 -116.845
| 19> C 	 -115.703 	 45.2677 	 -115.529
| 20> H 	 -115.483 	 46.3318 	 -115.216
| 21> H 	 -116.112 	 44.8017 	 -114.689
| 22> H 	 -114.771 	 44.7667 	 -115.799
| 23> S 	 -115.282 	 51.2513 	 -115.116
| 24> C 	 -116.532 	 52.2503 	 -114.412
| 25> C 	 -117.771 	 52.0475 	 -115.013
| 26> C 	 -117.673 	 51.0516 	 -115.976
| 27> C 	 -116.424 	 50.5374 	 -116.285
| 28> H 	 -118.674 	 52.6171 	 -114.798
| 29> C 	 -118.865 	 50.7313 	 -116.854
| 30> H 	 -118.505 	 50.0767 	 -117.683
| 31> H 	 -119.065 	 51.6378 	 -117.505
| 32> C 	 -120.119 	 50.2413 	 -116.134
| 33> H 	 -120.97 	 50.3803 	 -116.713
| 34> H 	 -120.374 	 50.8104 	 -115.241
| 35> C 	 -120.046 	 48.8208 	 -115.777
| 36> H 	 -119.132 	 48.8249 	 -115.056
| 37> H 	 -119.727 	 48.1526 	 -116.54
| 38> H 	 -121.001 	 48.5117 	 -115.271
| 39> H 	 -114.07 	 47.3414 	 -119.087
| 40> H 	 -116.343 	 52.8851 	 -113.562
| 41> *
| 42>
| 43>                          ****END OF INPUT****

CARTESIAN COORDINATES (ANGSTROEM)
---------------------------------
  S    -114.682000   49.499500  -118.251000
  C    -114.837000   47.831100  -118.580000
  C    -115.847000   47.168400  -117.932000
  C    -116.571000   48.136400  -117.117000
  C    -116.053000   49.404700  -117.178000
  H    -117.396000   47.851300  -116.404000
  C    -116.146000   45.730700  -117.979000
  H    -115.183000   45.332300  -118.245000
  H    -116.690000   45.503000  -118.935000
  C    -116.687000   45.084200  -116.713000
  H    -117.641000   45.507700  -116.466000
  H    -116.957000   44.025400  -116.845000
  C    -115.703000   45.267700  -115.529000
  H    -115.483000   46.331800  -115.216000
  H    -116.112000   44.801700  -114.689000
  H    -114.771000   44.766700  -115.799000
  S    -115.282000   51.251300  -115.116000
  C    -116.532000   52.250300  -114.412000
  C    -117.771000   52.047500  -115.013000
  C    -117.673000   51.051600  -115.976000
  C    -116.424000   50.537400  -116.285000
  H    -118.674000   52.617100  -114.798000
  C    -118.865000   50.731300  -116.854000
  H    -118.505000   50.076700  -117.683000
  H    -119.065000   51.637800  -117.505000
  C    -120.119000   50.241300  -116.134000
  H    -120.970000   50.380300  -116.713000
  H    -120.374000   50.810400  -115.241000
  C    -120.046000   48.820800  -115.777000
  H    -119.132000   48.824900  -115.056000
  H    -119.727000   48.152600  -116.540000
  H    -121.001000   48.511700  -115.271000
  H    -114.070000   47.341400  -119.087000
  H    -116.343000   52.885100  -113.562000

 Total Charge           Charge          ....    0
 Multiplicity           Mult            ....    1
 Number of Electrons    NEL             ....  134
 Basis Dimension        Dim             ....  322

ORBITAL ENERGIES
----------------

  NO   OCC          E(Eh)            E(eV)
   0   2.0000     -88.965867     -2420.8843
   1   2.0000     -88.965238     -2420.8672
   2   2.0000     -10.329134      -281.0700
   3   2.0000     -10.326576      -281.0004
   4   2.0000     -10.320289      -280.8294
   5   2.0000     -10.303788      -280.3803
   6   2.0000     -10.299428      -280.2617
   7   2.0000     -10.297173      -280.2003
   8   2.0000     -10.295207      -280.1468
   9   2.0000     -10.292703      -280.0787
  10   2.0000     -10.291650      -280.0500
  11   2.0000     -10.290655      -280.0230
  12   2.0000     -10.288230      -279.9570
  13   2.0000     -10.278639      -279.6960
  14   2.0000     -10.276775      -279.6453
  15   2.0000     -10.274628      -279.5869
  16   2.0000      -8.081661      -219.9132
  17   2.0000      -8.079440      -219.8527
  18   2.0000      -6.040027      -164.3575
  19   2.0000      -6.037872      -164.2989
  20   2.0000      -6.036106      -164.2508
  21   2.0000      -6.033945      -164.1920
  22   2.0000      -6.032441      -164.1511
  23   2.0000      -6.030394      -164.0954
  24   2.0000      -1.007188       -27.4070
  25   2.0000      -0.987776       -26.8788
  26   2.0000      -0.918309       -24.9885
  27   2.0000      -0.913903       -24.8686
  28   2.0000      -0.868018       -23.6200
  29   2.0000      -0.853642       -23.2288
  30   2.0000      -0.846500       -23.0344
  31   2.0000      -0.816548       -22.2194
  32   2.0000      -0.782058       -21.2809
  33   2.0000      -0.767220       -20.8771
  34   2.0000      -0.713643       -19.4192
  35   2.0000      -0.699479       -19.0338
  36   2.0000      -0.693924       -18.8826
  37   2.0000      -0.655449       -17.8357
  38   2.0000      -0.641763       -17.4632
  39   2.0000      -0.623273       -16.9601
  40   2.0000      -0.599529       -16.3140
  41   2.0000      -0.566791       -15.4232
  42   2.0000      -0.561447       -15.2778
  43   2.0000      -0.560107       -15.2413
  44   2.0000      -0.535238       -14.5646
  45   2.0000      -0.532325       -14.4853
  46   2.0000      -0.522236       -14.2108
  47   2.0000      -0.511948       -13.9308
  48   2.0000      -0.496295       -13.5049
  49   2.0000      -0.495459       -13.4821
  50   2.0000      -0.491034       -13.3617
  51   2.0000      -0.477198       -12.9852
  52   2.0000      -0.472726       -12.8635
  53   2.0000      -0.463420       -12.6103
  54   2.0000      -0.459512       -12.5040
  55   2.0000      -0.449886       -12.2420
  56   2.0000      -0.444522       -12.0960
  57   2.0000      -0.438138       -11.9223
  58   2.0000      -0.434979       -11.8364
  59   2.0000      -0.425295       -11.5729
  60   2.0000      -0.420687       -11.4475
  61   2.0000      -0.418727       -11.3941
  62   2.0000      -0.401211       -10.9175
  63   2.0000      -0.344854        -9.3840
  64   2.0000      -0.331110        -9.0100
  65   2.0000      -0.326153        -8.8751
  66   2.0000      -0.293661        -7.9909
  67   0.0000       0.034121         0.9285
  68   0.0000       0.067793         1.8447
  69   0.0000       0.119583         3.2540
  70   0.0000       0.121538         3.3072
  71   0.0000       0.125678         3.4199

MULLIKEN ATOMIC CHARGES
-----------------------
   0 S :    0.120681
   1 C :   -0.100213
   2 C :   -0.123264
   3 C :    0.018329
   4 C :   -0.180542
   5 H :    0.022041
   6 C :    0.098144
   7 H :   -0.000728
   8 H :    0.048787
   9 C :   -0.064125
  10 H :    0.021572
  11 H :    0.031942
  12 C :   -0.051614
  13 H :    0.058757
  14 H :    0.021524
  15 H :    0.031247
  16 S :    0.099707
  17 C :   -0.096908
  18 C :   -0.014544
  19 C :   -0.046293
  20 C :   -0.121188
  21 H :    0.028869
  22 C :   -0.010278
  23 H :    0.030052
  24 H :    0.041213
  25 C :   -0.002903
  26 H :    0.001121
  27 H :    0.018757
  28 C :   -0.077167
  29 H :    0.042358
  30 H :    0.027964
  31 H :    0.046510
  32 H :    0.021245
  33 H :    0.058946
Sum of atomic charges:   -0.0000000

LOEWDIN ATOMIC CHARGES
----------------------
   0 S :    0.423682
   1 C :   -0.199991
   2 C :   -0.060273
   3 C :   -0.062332
   4 C :   -0.200585
   5 H :    0.038796
   6 C :   -0.041645
   7 H :    0.028903
   8 H :    0.043557
   9 C :   -0.039845
  10 H :    0.018182
  11 H :    0.031581
  12 C :   -0.060731
  13 H :    0.037282
  14 H :    0.017402
  15 H :    0.026130
  16 S :    0.395280
  17 C :   -0.173568
  18 C :   -0.073964
  19 C :   -0.065518
  20 C :   -0.198516
  21 H :    0.037372
  22 C :   -0.039782
  23 H :    0.034062
  24 H :    0.039516
  25 C :   -0.045503
  26 H :    0.013222
  27 H :    0.025210
  28 C :   -0.067345
  29 H :    0.033514
  30 H :    0.014562
  31 H :    0.032999
  32 H :    0.011469
  33 H :    0.026877

  Mayer bond orders larger than 0.100000
B(  0-S ,  1-C ) :   1.1465 B(  0-S ,  4-C ) :   1.1531 B(  1-C ,  2-C ) :   1.6283
B(  1-C , 32-H ) :   0.9664 B(  2-C ,  3-C ) :   1.2305 B(  2-C ,  6-C ) :   1.0142
B(  3-C ,  4-C ) :   1.5910 B(  3-C ,  5-H ) :   0.9738 B(  4-C , 20-C ) :   1.0144
B(  6-C ,  7-H ) :   0.9295 B(  6-C ,  8-H ) :   0.9242 B(  6-C ,  9-C ) :   1.0742
B(  9-C , 10-H ) :   0.9495 B(  9-C , 11-H ) :   0.9517 B(  9-C , 12-C ) :   1.0750
B( 12-C , 13-H ) :   0.9716 B( 12-C , 14-H ) :   0.9733 B( 12-C , 15-H ) :   0.9762
B( 16-S , 17-C ) :   1.1844 B( 16-S , 20-C ) :   1.1230 B( 17-C , 18-C ) :   1.5561
B( 17-C , 20-C ) :   0.1035 B( 17-C , 33-H ) :   0.9682 B( 18-C , 19-C ) :   1.2730
B( 18-C , 21-H ) :   0.9925 B( 19-C , 20-C ) :   1.5810 B( 19-C , 22-C ) :   1.0418
B( 22-C , 23-H ) :   0.9416 B( 22-C , 24-H ) :   0.9402 B( 22-C , 25-C ) :   1.0552
B( 25-C , 26-H ) :   0.9453 B( 25-C , 27-H ) :   0.9541 B( 25-C , 28-C ) :   1.0867
B( 28-C , 29-H ) :   0.9697 B( 28-C , 30-H ) :   0.9691 B( 28-C , 31-H ) :   0.9656

Dispersion correction           -0.015727567
FINAL SINGLE POINT ENERGY     -1339.874369495140

DIPOLE MOMENT
-------------
                                X             Y             Z
Electronic contribution:     17.84233      18.71554      -3.63994
Nuclear contribution   :    -18.31140     -19.12282       3.75143
                        -----------------------------------------
Total Dipole Moment    :     -0.46907      -0.40729       0.11149
                        -----------------------------------------
Magnitude (a.u.)       :      0.63114
Magnitude (Debye)      :      1.60423

Rotational constants in cm-1:     0.017808     0.010029     0.008014
Rotational constants in MHz :   533.857406   300.650961   240.241609

                             ****ORCA TERMINATED NORMALLY****
TOTAL RUN TIME: 0 days 0 hours 0 minutes 23 seconds 206 msec
