                         Program Version 4.2.1 -  RELEASE  -
|  1> ! wB97X-D3 SP def2-SVP
|  2> %pal
|  3> nprocs 24
|  4> end
|  5>
|  6> * xyz 0 1
|  7> S 	 -63.085 	 1.12951 	 -24.0712
|  8> C 	 -64.3826 	 2.1801 	 -24.6714
|  9> C 	 -64.7298 	 3.17172 	 -23.725
| 10> C 	 -63.6828 	 3.27409 	 -22.7542
| 11> C 	 -62.698 	 2.32984 	 -22.7868
| 12> H 	 -63.602 	 4.10811 	 -22.1114
| 13> C 	 -65.8451 	 4.20652 	 -23.7767
| 14> H 	 -65.3179 	 5.20127 	 -23.717
| 15> H 	 -66.3471 	 4.16347 	 -22.8022
| 16> C 	 -66.9477 	 3.95687 	 -24.9162
| 17> H 	 -66.3244 	 3.73805 	 -25.7808
| 18> H 	 -67.5269 	 3.06139 	 -24.7342
| 19> C 	 -67.8657 	 5.11818 	 -25.2169
| 20> H 	 -68.1106 	 5.72046 	 -24.3558
| 21> H 	 -67.2978 	 5.88682 	 -25.7843
| 22> H 	 -68.7236 	 4.85577 	 -25.755
| 23> S 	 -61.0764 	 0.802426 	 -21.1218
| 24> C 	 -59.55 	 1.34961 	 -20.6053
| 25> C 	 -59.4427 	 2.72055 	 -20.8727
| 26> C 	 -60.5501 	 3.23939 	 -21.6174
| 27> C 	 -61.575 	 2.33067 	 -21.8809
| 28> H 	 -58.5533 	 3.30154 	 -20.7066
| 29> C 	 -60.5098 	 4.65847 	 -22.2212
| 30> H 	 -61.3691 	 4.90836 	 -22.8615
| 31> H 	 -59.6313 	 4.75766 	 -22.8803
| 32> C 	 -60.4919 	 5.81066 	 -21.2715
| 33> H 	 -59.8587 	 5.51501 	 -20.4341
| 34> H 	 -61.4596 	 5.86023 	 -20.7509
| 35> C 	 -59.9757 	 7.08518 	 -21.8234
| 36> H 	 -58.9497 	 6.96445 	 -22.2234
| 37> H 	 -59.7302 	 7.79056 	 -20.9795
| 38> H 	 -60.6108 	 7.68049 	 -22.441
| 39> H 	 -64.9947 	 2.01219 	 -25.4952
| 40> H 	 -58.7655 	 0.822269 	 -20.1332
| 41> *
| 42>
| 43>                          ****END OF INPUT****

CARTESIAN COORDINATES (ANGSTROEM)
---------------------------------
  S    -63.085000    1.129510  -24.071200
  C    -64.382600    2.180100  -24.671400
  C    -64.729800    3.171720  -23.725000
  C    -63.682800    3.274090  -22.754200
  C    -62.698000    2.329840  -22.786800
  H    -63.602000    4.108110  -22.111400
  C    -65.845100    4.206520  -23.776700
  H    -65.317900    5.201270  -23.717000
  H    -66.347100    4.163470  -22.802200
  C    -66.947700    3.956870  -24.916200
  H    -66.324400    3.738050  -25.780800
  H    -67.526900    3.061390  -24.734200
  C    -67.865700    5.118180  -25.216900
  H    -68.110600    5.720460  -24.355800
  H    -67.297800    5.886820  -25.784300
  H    -68.723600    4.855770  -25.755000
  S    -61.076400    0.802426  -21.121800
  C    -59.550000    1.349610  -20.605300
  C    -59.442700    2.720550  -20.872700
  C    -60.550100    3.239390  -21.617400
  C    -61.575000    2.330670  -21.880900
  H    -58.553300    3.301540  -20.706600
  C    -60.509800    4.658470  -22.221200
  H    -61.369100    4.908360  -22.861500
  H    -59.631300    4.757660  -22.880300
  C    -60.491900    5.810660  -21.271500
  H    -59.858700    5.515010  -20.434100
  H    -61.459600    5.860230  -20.750900
  C    -59.975700    7.085180  -21.823400
  H    -58.949700    6.964450  -22.223400
  H    -59.730200    7.790560  -20.979500
  H    -60.610800    7.680490  -22.441000
  H    -64.994700    2.012190  -25.495200
  H    -58.765500    0.822269  -20.133200

 Total Charge           Charge          ....    0
 Multiplicity           Mult            ....    1
 Number of Electrons    NEL             ....  134
 Basis Dimension        Dim             ....  322

ORBITAL ENERGIES
----------------

  NO   OCC          E(Eh)            E(eV)
   0   2.0000     -88.968974     -2420.9689
   1   2.0000     -88.963594     -2420.8225
   2   2.0000     -10.332015      -281.1484
   3   2.0000     -10.329386      -281.0769
   4   2.0000     -10.317913      -280.7647
   5   2.0000     -10.316256      -280.7196
   6   2.0000     -10.306775      -280.4616
   7   2.0000     -10.306750      -280.4609
   8   2.0000     -10.306499      -280.4541
   9   2.0000     -10.295160      -280.1455
  10   2.0000     -10.294737      -280.1340
  11   2.0000     -10.289993      -280.0049
  12   2.0000     -10.287138      -279.9273
  13   2.0000     -10.280132      -279.7366
  14   2.0000     -10.279676      -279.7242
  15   2.0000     -10.277491      -279.6647
  16   2.0000      -8.082238      -219.9289
  17   2.0000      -8.078789      -219.8350
  18   2.0000      -6.041050      -164.3853
  19   2.0000      -6.037235      -164.2815
  20   2.0000      -6.037118      -164.2783
  21   2.0000      -6.032987      -164.1659
  22   2.0000      -6.032571      -164.1546
  23   2.0000      -6.029815      -164.0796
  24   2.0000      -1.004243       -27.3268
  25   2.0000      -0.981488       -26.7076
  26   2.0000      -0.916366       -24.9356
  27   2.0000      -0.907193       -24.6860
  28   2.0000      -0.872017       -23.7288
  29   2.0000      -0.855241       -23.2723
  30   2.0000      -0.847830       -23.0706
  31   2.0000      -0.814601       -22.1664
  32   2.0000      -0.783359       -21.3163
  33   2.0000      -0.773078       -21.0365
  34   2.0000      -0.720763       -19.6130
  35   2.0000      -0.700512       -19.0619
  36   2.0000      -0.694458       -18.8972
  37   2.0000      -0.661579       -18.0025
  38   2.0000      -0.641307       -17.4508
  39   2.0000      -0.617029       -16.7902
  40   2.0000      -0.600958       -16.3529
  41   2.0000      -0.571157       -15.5420
  42   2.0000      -0.568151       -15.4602
  43   2.0000      -0.563391       -15.3307
  44   2.0000      -0.530497       -14.4356
  45   2.0000      -0.524413       -14.2700
  46   2.0000      -0.520653       -14.1677
  47   2.0000      -0.517412       -14.0795
  48   2.0000      -0.509647       -13.8682
  49   2.0000      -0.502229       -13.6664
  50   2.0000      -0.492880       -13.4119
  51   2.0000      -0.480282       -13.0691
  52   2.0000      -0.478009       -13.0073
  53   2.0000      -0.468089       -12.7374
  54   2.0000      -0.459121       -12.4933
  55   2.0000      -0.453783       -12.3481
  56   2.0000      -0.449452       -12.2302
  57   2.0000      -0.439136       -11.9495
  58   2.0000      -0.430018       -11.7014
  59   2.0000      -0.428023       -11.6471
  60   2.0000      -0.415064       -11.2945
  61   2.0000      -0.409364       -11.1394
  62   2.0000      -0.402600       -10.9553
  63   2.0000      -0.349931        -9.5221
  64   2.0000      -0.329649        -8.9702
  65   2.0000      -0.326910        -8.8957
  66   2.0000      -0.290094        -7.8939
  67   0.0000       0.026301         0.7157
  68   0.0000       0.063584         1.7302
  69   0.0000       0.112341         3.0569
  70   0.0000       0.118163         3.2154
  71   0.0000       0.124414         3.3855

MULLIKEN ATOMIC CHARGES
-----------------------
   0 S :    0.117716
   1 C :   -0.105580
   2 C :   -0.082521
   3 C :    0.017117
   4 C :   -0.098569
   5 H :   -0.004433
   6 C :    0.021777
   7 H :    0.046741
   8 H :    0.039355
   9 C :   -0.087762
  10 H :    0.032654
  11 H :    0.039884
  12 C :   -0.009776
  13 H :    0.022487
  14 H :    0.024398
  15 H :    0.032924
  16 S :    0.098440
  17 C :   -0.068050
  18 C :   -0.032651
  19 C :   -0.032399
  20 C :   -0.171979
  21 H :    0.018268
  22 C :    0.045959
  23 H :    0.022006
  24 H :    0.025644
  25 C :   -0.073451
  26 H :    0.009709
  27 H :    0.020538
  28 C :   -0.037684
  29 H :    0.030754
  30 H :    0.026955
  31 H :    0.034733
  32 H :    0.026375
  33 H :    0.050422
Sum of atomic charges:   -0.0000000

LOEWDIN ATOMIC CHARGES
----------------------
   0 S :    0.377350
   1 C :   -0.182208
   2 C :   -0.058139
   3 C :   -0.051111
   4 C :   -0.179747
   5 H :    0.022281
   6 C :   -0.036785
   7 H :    0.040598
   8 H :    0.035198
   9 C :   -0.038446
  10 H :    0.022994
  11 H :    0.026738
  12 C :   -0.063758
  13 H :    0.025101
  14 H :    0.031566
  15 H :    0.021428
  16 S :    0.415434
  17 C :   -0.189935
  18 C :   -0.075268
  19 C :   -0.052371
  20 C :   -0.191557
  21 H :    0.028237
  22 C :   -0.036273
  23 H :    0.029098
  24 H :    0.030446
  25 C :   -0.054279
  26 H :    0.020873
  27 H :    0.024497
  28 C :   -0.068962
  29 H :    0.031222
  30 H :    0.035566
  31 H :    0.020403
  32 H :    0.011709
  33 H :    0.028100

  Mayer bond orders larger than 0.100000
B(  0-S ,  1-C ) :   1.1267 B(  0-S ,  4-C ) :   1.1016 B(  1-C ,  2-C ) :   1.6196
B(  1-C , 32-H ) :   0.9675 B(  2-C ,  3-C ) :   1.2215 B(  2-C ,  6-C ) :   1.0135
B(  3-C ,  4-C ) :   1.5891 B(  3-C ,  5-H ) :   1.0010 B(  4-C , 20-C ) :   1.0849
B(  6-C ,  7-H ) :   0.9484 B(  6-C ,  8-H ) :   0.9334 B(  6-C ,  9-C ) :   1.0450
B(  9-C , 10-H ) :   0.9574 B(  9-C , 11-H ) :   0.9609 B(  9-C , 12-C ) :   1.0870
B( 12-C , 13-H ) :   0.9735 B( 12-C , 14-H ) :   0.9722 B( 12-C , 15-H ) :   0.9737
B( 16-S , 17-C ) :   1.1826 B( 16-S , 20-C ) :   1.1232 B( 17-C , 18-C ) :   1.5616
B( 17-C , 33-H ) :   0.9737 B( 18-C , 19-C ) :   1.2787 B( 18-C , 21-H ) :   0.9871
B( 19-C , 20-C ) :   1.5739 B( 19-C , 22-C ) :   1.0362 B( 22-C , 23-H ) :   0.9390
B( 22-C , 24-H ) :   0.9399 B( 22-C , 25-C ) :   1.0606 B( 25-C , 26-H ) :   0.9533
B( 25-C , 27-H ) :   0.9453 B( 25-C , 28-C ) :   1.0920 B( 28-C , 29-H ) :   0.9666
B( 28-C , 30-H ) :   0.9675 B( 28-C , 31-H ) :   0.9763

Dispersion correction           -0.013398596
FINAL SINGLE POINT ENERGY     -1339.860722171866

DIPOLE MOMENT
-------------
                                X             Y             Z
Electronic contribution:      9.68457     -28.66620       4.77530
Nuclear contribution   :     -9.80619      29.42629      -4.83156
                        -----------------------------------------
Total Dipole Moment    :     -0.12162       0.76009      -0.05626
                        -----------------------------------------
Magnitude (a.u.)       :      0.77181
Magnitude (Debye)      :      1.96178

Rotational constants in cm-1:     0.018400     0.007738     0.005775
Rotational constants in MHz :   551.630447   231.983979   173.115953

                             ****ORCA TERMINATED NORMALLY****
TOTAL RUN TIME: 0 days 0 hours 0 minutes 20 seconds 738 msec
