                         Program Version 4.2.1 -  RELEASE  -
|  1> ! wB97X-D3 SP def2-SVP
|  2> %pal
|  3> nprocs 24
|  4> end
|  5>
|  6> * xyz 0 1
|  7> S 	 -40.7382 	 -0.608217 	 -5.38105
|  8> C 	 -39.6796 	 -0.671533 	 -3.98844
|  9> C 	 -38.4894 	 0.0270812 	 -4.16184
| 10> C 	 -38.5148 	 0.64055 	 -5.47504
| 11> C 	 -39.6134 	 0.429585 	 -6.2572
| 12> H 	 -37.6921 	 1.28861 	 -5.92633
| 13> C 	 -37.4041 	 0.249374 	 -3.11636
| 14> H 	 -37.5882 	 -0.345588 	 -2.21457
| 15> H 	 -37.6161 	 1.26865 	 -2.69164
| 16> C 	 -35.9891 	 0.0452706 	 -3.55749
| 17> H 	 -35.7496 	 -1.03143 	 -3.65933
| 18> H 	 -35.9082 	 0.465041 	 -4.59394
| 19> C 	 -34.9219 	 0.63874 	 -2.65398
| 20> H 	 -34.9143 	 1.64727 	 -2.38973
| 21> H 	 -34.8954 	 0.0518755 	 -1.83637
| 22> H 	 -33.9717 	 0.34047 	 -3.15361
| 23> S 	 -38.6109 	 0.105175 	 -8.77071
| 24> C 	 -39.4512 	 0.919056 	 -9.98756
| 25> C 	 -40.5784 	 1.62932 	 -9.57446
| 26> C 	 -40.828 	 1.53947 	 -8.14462
| 27> C 	 -39.8278 	 0.773398 	 -7.63717
| 28> H 	 -41.0833 	 2.18476 	 -10.2318
| 29> C 	 -42.0727 	 2.15842 	 -7.49143
| 30> H 	 -42.2746 	 3.12626 	 -7.95232
| 31> H 	 -41.6789 	 2.43396 	 -6.49919
| 32> C 	 -43.3099 	 1.18081 	 -7.44266
| 33> H 	 -42.9449 	 0.317918 	 -6.87405
| 34> H 	 -43.3383 	 0.889628 	 -8.47618
| 35> C 	 -44.6764 	 1.73885 	 -7.07416
| 36> H 	 -45.5203 	 0.962154 	 -7.13215
| 37> H 	 -44.8247 	 2.55001 	 -7.78207
| 38> H 	 -44.6943 	 2.30658 	 -6.08407
| 39> H 	 -39.8077 	 -1.34692 	 -3.16197
| 40> H 	 -39.2079 	 0.943534 	 -11.0458
| 41> *
| 42>
| 43>                          ****END OF INPUT****

CARTESIAN COORDINATES (ANGSTROEM)
---------------------------------
  S    -40.738200   -0.608217   -5.381050
  C    -39.679600   -0.671533   -3.988440
  C    -38.489400    0.027081   -4.161840
  C    -38.514800    0.640550   -5.475040
  C    -39.613400    0.429585   -6.257200
  H    -37.692100    1.288610   -5.926330
  C    -37.404100    0.249374   -3.116360
  H    -37.588200   -0.345588   -2.214570
  H    -37.616100    1.268650   -2.691640
  C    -35.989100    0.045271   -3.557490
  H    -35.749600   -1.031430   -3.659330
  H    -35.908200    0.465041   -4.593940
  C    -34.921900    0.638740   -2.653980
  H    -34.914300    1.647270   -2.389730
  H    -34.895400    0.051875   -1.836370
  H    -33.971700    0.340470   -3.153610
  S    -38.610900    0.105175   -8.770710
  C    -39.451200    0.919056   -9.987560
  C    -40.578400    1.629320   -9.574460
  C    -40.828000    1.539470   -8.144620
  C    -39.827800    0.773398   -7.637170
  H    -41.083300    2.184760  -10.231800
  C    -42.072700    2.158420   -7.491430
  H    -42.274600    3.126260   -7.952320
  H    -41.678900    2.433960   -6.499190
  C    -43.309900    1.180810   -7.442660
  H    -42.944900    0.317918   -6.874050
  H    -43.338300    0.889628   -8.476180
  C    -44.676400    1.738850   -7.074160
  H    -45.520300    0.962154   -7.132150
  H    -44.824700    2.550010   -7.782070
  H    -44.694300    2.306580   -6.084070
  H    -39.807700   -1.346920   -3.161970
  H    -39.207900    0.943534  -11.045800

 Total Charge           Charge          ....    0
 Multiplicity           Mult            ....    1
 Number of Electrons    NEL             ....  134
 Basis Dimension        Dim             ....  322

ORBITAL ENERGIES
----------------

  NO   OCC          E(Eh)            E(eV)
   0   2.0000     -88.970750     -2421.0172
   1   2.0000     -88.962176     -2420.7839
   2   2.0000     -10.322497      -280.8894
   3   2.0000     -10.320989      -280.8484
   4   2.0000     -10.311753      -280.5971
   5   2.0000     -10.311559      -280.5918
   6   2.0000     -10.304470      -280.3989
   7   2.0000     -10.303881      -280.3829
   8   2.0000     -10.298404      -280.2338
   9   2.0000     -10.295370      -280.1512
  10   2.0000     -10.294854      -280.1372
  11   2.0000     -10.289991      -280.0049
  12   2.0000     -10.288314      -279.9592
  13   2.0000     -10.287414      -279.9348
  14   2.0000     -10.283435      -279.8265
  15   2.0000     -10.266897      -279.3765
  16   2.0000      -8.085838      -220.0268
  17   2.0000      -8.076422      -219.7706
  18   2.0000      -6.044230      -164.4719
  19   2.0000      -6.040545      -164.3716
  20   2.0000      -6.036447      -164.2601
  21   2.0000      -6.034936      -164.2190
  22   2.0000      -6.031000      -164.1119
  23   2.0000      -6.027221      -164.0090
  24   2.0000      -1.006800       -27.3964
  25   2.0000      -0.981344       -26.7037
  26   2.0000      -0.914863       -24.8947
  27   2.0000      -0.906009       -24.6538
  28   2.0000      -0.870626       -23.6909
  29   2.0000      -0.855388       -23.2763
  30   2.0000      -0.845075       -22.9957
  31   2.0000      -0.810270       -22.0486
  32   2.0000      -0.788495       -21.4561
  33   2.0000      -0.774532       -21.0761
  34   2.0000      -0.706592       -19.2274
  35   2.0000      -0.697027       -18.9671
  36   2.0000      -0.688305       -18.7297
  37   2.0000      -0.668633       -18.1944
  38   2.0000      -0.636769       -17.3274
  39   2.0000      -0.614298       -16.7159
  40   2.0000      -0.593652       -16.1541
  41   2.0000      -0.565842       -15.3974
  42   2.0000      -0.564210       -15.3529
  43   2.0000      -0.557616       -15.1735
  44   2.0000      -0.530390       -14.4327
  45   2.0000      -0.522641       -14.2218
  46   2.0000      -0.517723       -14.0880
  47   2.0000      -0.511494       -13.9185
  48   2.0000      -0.503340       -13.6966
  49   2.0000      -0.495287       -13.4774
  50   2.0000      -0.493691       -13.4340
  51   2.0000      -0.476542       -12.9674
  52   2.0000      -0.470199       -12.7948
  53   2.0000      -0.465615       -12.6700
  54   2.0000      -0.458387       -12.4733
  55   2.0000      -0.451086       -12.2747
  56   2.0000      -0.442707       -12.0467
  57   2.0000      -0.438846       -11.9416
  58   2.0000      -0.433594       -11.7987
  59   2.0000      -0.430708       -11.7202
  60   2.0000      -0.417966       -11.3734
  61   2.0000      -0.409374       -11.1396
  62   2.0000      -0.408983       -11.1290
  63   2.0000      -0.342420        -9.3177
  64   2.0000      -0.331683        -9.0256
  65   2.0000      -0.326769        -8.8918
  66   2.0000      -0.295203        -8.0329
  67   0.0000       0.040340         1.0977
  68   0.0000       0.065941         1.7944
  69   0.0000       0.102211         2.7813
  70   0.0000       0.113613         3.0916
  71   0.0000       0.129842         3.5332

MULLIKEN ATOMIC CHARGES
-----------------------
   0 S :    0.094050
   1 C :   -0.112709
   2 C :   -0.081822
   3 C :   -0.017904
   4 C :   -0.166645
   5 H :    0.036181
   6 C :    0.071625
   7 H :    0.008418
   8 H :    0.045448
   9 C :   -0.117582
  10 H :    0.035749
  11 H :    0.032685
  12 C :    0.020889
  13 H :    0.031473
  14 H :   -0.002477
  15 H :    0.025552
  16 S :    0.146582
  17 C :   -0.079959
  18 C :    0.006411
  19 C :   -0.038345
  20 C :   -0.188342
  21 H :   -0.043581
  22 C :    0.074237
  23 H :    0.018740
  24 H :    0.030348
  25 C :   -0.047898
  26 H :    0.030419
  27 H :    0.021913
  28 C :   -0.054277
  29 H :    0.062472
  30 H :    0.023726
  31 H :    0.041865
  32 H :    0.043473
  33 H :    0.049284
Sum of atomic charges:   -0.0000000

LOEWDIN ATOMIC CHARGES
----------------------
   0 S :    0.400554
   1 C :   -0.195904
   2 C :   -0.061903
   3 C :   -0.077520
   4 C :   -0.197854
   5 H :    0.038412
   6 C :   -0.040897
   7 H :    0.027934
   8 H :    0.041642
   9 C :   -0.044796
  10 H :    0.032170
  11 H :    0.024491
  12 C :   -0.052509
  13 H :    0.018187
  14 H :    0.010804
  15 H :    0.037307
  16 S :    0.423739
  17 C :   -0.203131
  18 C :   -0.056306
  19 C :   -0.042833
  20 C :   -0.189152
  21 H :    0.004043
  22 C :   -0.029109
  23 H :    0.028223
  24 H :    0.030803
  25 C :   -0.041166
  26 H :    0.015335
  27 H :    0.023827
  28 C :   -0.075609
  29 H :    0.041081
  30 H :    0.024077
  31 H :    0.032702
  32 H :    0.024539
  33 H :    0.028822

  Mayer bond orders larger than 0.100000
B(  0-S ,  1-C ) :   1.1424 B(  0-S ,  4-C ) :   1.1262 B(  1-C ,  2-C ) :   1.6296
B(  1-C , 32-H ) :   0.9639 B(  2-C ,  3-C ) :   1.2120 B(  2-C ,  6-C ) :   1.0253
B(  3-C ,  4-C ) :   1.6283 B(  3-C ,  5-H ) :   0.9767 B(  4-C , 20-C ) :   1.0345
B(  6-C ,  7-H ) :   0.9342 B(  6-C ,  8-H ) :   0.9408 B(  6-C ,  9-C ) :   1.0530
B(  9-C , 10-H ) :   0.9510 B(  9-C , 11-H ) :   0.9620 B(  9-C , 12-C ) :   1.0845
B( 12-C , 13-H ) :   0.9786 B( 12-C , 14-H ) :   0.9679 B( 12-C , 15-H ) :   0.9687
B( 16-S , 17-C ) :   1.1462 B( 16-S , 20-C ) :   1.1331 B( 17-C , 18-C ) :   1.6429
B( 17-C , 33-H ) :   0.9622 B( 18-C , 19-C ) :   1.1965 B( 18-C , 21-H ) :   1.0026
B( 19-C , 20-C ) :   1.6378 B( 19-C , 22-C ) :   1.0416 B( 22-C , 23-H ) :   0.9340
B( 22-C , 24-H ) :   0.9226 B( 22-C , 25-C ) :   1.0433 B( 25-C , 26-H ) :   0.9488
B( 25-C , 27-H ) :   0.9570 B( 25-C , 28-C ) :   1.0755 B( 28-C , 29-H ) :   0.9716
B( 28-C , 30-H ) :   0.9712 B( 28-C , 31-H ) :   0.9743

Dispersion correction           -0.013981695
FINAL SINGLE POINT ENERGY     -1339.861496184347

DIPOLE MOMENT
-------------
                                X             Y             Z
Electronic contribution:     -0.16464      -7.45072     -12.13788
Nuclear contribution   :      0.30528       7.69215      12.24608
                        -----------------------------------------
Total Dipole Moment    :      0.14064       0.24142       0.10821
                        -----------------------------------------
Magnitude (a.u.)       :      0.29963
Magnitude (Debye)      :      0.76159

Rotational constants in cm-1:     0.020742     0.007775     0.006211
Rotational constants in MHz :   621.839086   233.096826   186.197720

                             ****ORCA TERMINATED NORMALLY****
TOTAL RUN TIME: 0 days 0 hours 0 minutes 21 seconds 208 msec
