                         Program Version 4.2.1 -  RELEASE  -
|  1> ! wB97X-D3 SP def2-SVP
|  2> %pal
|  3> nprocs 24
|  4> end
|  5>
|  6> * xyz 0 1
|  7> S 	 -104.621 	 27.494 	 -119.105
|  8> C 	 -104.548 	 29.1625 	 -119.229
|  9> C 	 -105.855 	 29.7355 	 -119.225
| 10> C 	 -106.849 	 28.7394 	 -119.031
| 11> C 	 -106.375 	 27.4819 	 -118.951
| 12> H 	 -107.935 	 28.9293 	 -118.976
| 13> C 	 -106.195 	 31.3013 	 -119.375
| 14> H 	 -107.277 	 31.3896 	 -119.507
| 15> H 	 -105.696 	 31.7615 	 -120.251
| 16> C 	 -105.785 	 32.1683 	 -118.174
| 17> H 	 -104.783 	 32.016 	 -118.146
| 18> H 	 -105.94 	 33.2516 	 -118.415
| 19> C 	 -106.758 	 31.9545 	 -117.015
| 20> H 	 -106.99 	 30.8435 	 -116.876
| 21> H 	 -106.437 	 32.5277 	 -116.149
| 22> H 	 -107.767 	 32.3574 	 -117.289
| 23> S 	 -106.836 	 25.1185 	 -120.346
| 24> C 	 -108.197 	 24.098 	 -119.993
| 25> C 	 -108.847 	 24.5659 	 -118.936
| 26> C 	 -108.26 	 25.7933 	 -118.382
| 27> C 	 -107.108 	 26.2475 	 -119.043
| 28> H 	 -109.763 	 24.1045 	 -118.699
| 29> C 	 -108.972 	 26.4481 	 -117.178
| 30> H 	 -110.063 	 26.3019 	 -117.324
| 31> H 	 -108.648 	 27.4974 	 -117.197
| 32> C 	 -108.657 	 25.9698 	 -115.721
| 33> H 	 -109.095 	 24.9738 	 -115.534
| 34> H 	 -109.113 	 26.4913 	 -115.005
| 35> C 	 -107.151 	 25.9554 	 -115.42
| 36> H 	 -106.677 	 26.9168 	 -115.686
| 37> H 	 -106.682 	 25.2826 	 -116.078
| 38> H 	 -106.938 	 25.6587 	 -114.365
| 39> H 	 -103.593 	 29.6621 	 -119.318
| 40> H 	 -108.332 	 23.1578 	 -120.541
| 41> *
| 42>
| 43>                          ****END OF INPUT****

CARTESIAN COORDINATES (ANGSTROEM)
---------------------------------
  S    -104.621000   27.494000  -119.105000
  C    -104.548000   29.162500  -119.229000
  C    -105.855000   29.735500  -119.225000
  C    -106.849000   28.739400  -119.031000
  C    -106.375000   27.481900  -118.951000
  H    -107.935000   28.929300  -118.976000
  C    -106.195000   31.301300  -119.375000
  H    -107.277000   31.389600  -119.507000
  H    -105.696000   31.761500  -120.251000
  C    -105.785000   32.168300  -118.174000
  H    -104.783000   32.016000  -118.146000
  H    -105.940000   33.251600  -118.415000
  C    -106.758000   31.954500  -117.015000
  H    -106.990000   30.843500  -116.876000
  H    -106.437000   32.527700  -116.149000
  H    -107.767000   32.357400  -117.289000
  S    -106.836000   25.118500  -120.346000
  C    -108.197000   24.098000  -119.993000
  C    -108.847000   24.565900  -118.936000
  C    -108.260000   25.793300  -118.382000
  C    -107.108000   26.247500  -119.043000
  H    -109.763000   24.104500  -118.699000
  C    -108.972000   26.448100  -117.178000
  H    -110.063000   26.301900  -117.324000
  H    -108.648000   27.497400  -117.197000
  C    -108.657000   25.969800  -115.721000
  H    -109.095000   24.973800  -115.534000
  H    -109.113000   26.491300  -115.005000
  C    -107.151000   25.955400  -115.420000
  H    -106.677000   26.916800  -115.686000
  H    -106.682000   25.282600  -116.078000
  H    -106.938000   25.658700  -114.365000
  H    -103.593000   29.662100  -119.318000
  H    -108.332000   23.157800  -120.541000

 Total Charge           Charge          ....    0
 Multiplicity           Mult            ....    1
 Number of Electrons    NEL             ....  134
 Basis Dimension        Dim             ....  322

ORBITAL ENERGIES
----------------

  NO   OCC          E(Eh)            E(eV)
   0   2.0000     -88.969397     -2420.9804
   1   2.0000     -88.958237     -2420.6767
   2   2.0000     -10.330003      -281.0937
   3   2.0000     -10.327902      -281.0365
   4   2.0000     -10.319055      -280.7958
   5   2.0000     -10.313910      -280.6558
   6   2.0000     -10.312563      -280.6191
   7   2.0000     -10.309370      -280.5322
   8   2.0000     -10.299161      -280.2544
   9   2.0000     -10.298082      -280.2251
  10   2.0000     -10.295674      -280.1595
  11   2.0000     -10.288573      -279.9663
  12   2.0000     -10.285421      -279.8805
  13   2.0000     -10.281247      -279.7670
  14   2.0000     -10.275021      -279.5975
  15   2.0000     -10.267799      -279.4010
  16   2.0000      -8.085420      -220.0155
  17   2.0000      -8.073874      -219.7013
  18   2.0000      -6.043669      -164.4566
  19   2.0000      -6.039598      -164.3458
  20   2.0000      -6.036522      -164.2621
  21   2.0000      -6.032441      -164.1511
  22   2.0000      -6.028134      -164.0339
  23   2.0000      -6.024598      -163.9377
  24   2.0000      -1.014488       -27.6056
  25   2.0000      -0.990436       -26.9511
  26   2.0000      -0.909346       -24.7446
  27   2.0000      -0.901085       -24.5198
  28   2.0000      -0.880276       -23.9535
  29   2.0000      -0.853664       -23.2294
  30   2.0000      -0.839257       -22.8373
  31   2.0000      -0.817093       -22.2342
  32   2.0000      -0.778904       -21.1950
  33   2.0000      -0.767905       -20.8957
  34   2.0000      -0.708266       -19.2729
  35   2.0000      -0.702540       -19.1171
  36   2.0000      -0.693613       -18.8742
  37   2.0000      -0.662755       -18.0345
  38   2.0000      -0.647258       -17.6128
  39   2.0000      -0.618629       -16.8338
  40   2.0000      -0.590110       -16.0577
  41   2.0000      -0.575341       -15.6558
  42   2.0000      -0.553880       -15.0718
  43   2.0000      -0.551527       -15.0078
  44   2.0000      -0.545540       -14.8449
  45   2.0000      -0.539587       -14.6829
  46   2.0000      -0.517164       -14.0728
  47   2.0000      -0.507541       -13.8109
  48   2.0000      -0.505953       -13.7677
  49   2.0000      -0.500426       -13.6173
  50   2.0000      -0.492980       -13.4147
  51   2.0000      -0.482680       -13.1344
  52   2.0000      -0.469314       -12.7707
  53   2.0000      -0.463812       -12.6210
  54   2.0000      -0.455163       -12.3856
  55   2.0000      -0.448052       -12.1921
  56   2.0000      -0.445693       -12.1279
  57   2.0000      -0.434903       -11.8343
  58   2.0000      -0.429218       -11.6796
  59   2.0000      -0.427961       -11.6454
  60   2.0000      -0.416131       -11.3235
  61   2.0000      -0.405447       -11.0328
  62   2.0000      -0.403308       -10.9746
  63   2.0000      -0.361323        -9.8321
  64   2.0000      -0.334330        -9.0976
  65   2.0000      -0.323957        -8.8153
  66   2.0000      -0.294259        -8.0072
  67   0.0000       0.030306         0.8247
  68   0.0000       0.070959         1.9309
  69   0.0000       0.117087         3.1861
  70   0.0000       0.121800         3.3144
  71   0.0000       0.125340         3.4107

MULLIKEN ATOMIC CHARGES
-----------------------
   0 S :    0.128114
   1 C :   -0.120517
   2 C :   -0.100084
   3 C :    0.034827
   4 C :   -0.184966
   5 H :    0.032112
   6 C :    0.033897
   7 H :    0.013710
   8 H :    0.039299
   9 C :   -0.035763
  10 H :    0.008080
  11 H :    0.031459
  12 C :   -0.069187
  13 H :    0.046308
  14 H :    0.043963
  15 H :    0.025913
  16 S :    0.082238
  17 C :   -0.099679
  18 C :    0.000209
  19 C :   -0.084796
  20 C :   -0.101770
  21 H :    0.006150
  22 C :    0.044862
  23 H :    0.035847
  24 H :    0.018765
  25 C :   -0.003693
  26 H :    0.011775
  27 H :   -0.002873
  28 C :   -0.063885
  29 H :    0.030595
  30 H :    0.028479
  31 H :    0.039709
  32 H :    0.059006
  33 H :    0.071896
Sum of atomic charges:    0.0000000

LOEWDIN ATOMIC CHARGES
----------------------
   0 S :    0.445461
   1 C :   -0.214300
   2 C :   -0.064669
   3 C :   -0.061236
   4 C :   -0.201924
   5 H :    0.039970
   6 C :   -0.025071
   7 H :    0.022975
   8 H :    0.033403
   9 C :   -0.040858
  10 H :    0.006311
  11 H :    0.030916
  12 C :   -0.070620
  13 H :    0.032320
  14 H :    0.026059
  15 H :    0.028133
  16 S :    0.400676
  17 C :   -0.181801
  18 C :   -0.073509
  19 C :   -0.056447
  20 C :   -0.204501
  21 H :    0.026805
  22 C :   -0.032668
  23 H :    0.034968
  24 H :    0.027265
  25 C :   -0.031636
  26 H :    0.022594
  27 H :    0.004872
  28 C :   -0.064339
  29 H :    0.026680
  30 H :    0.018045
  31 H :    0.030089
  32 H :    0.028611
  33 H :    0.037424

  Mayer bond orders larger than 0.100000
B(  0-S ,  1-C ) :   1.1917 B(  0-S ,  4-C ) :   1.1561 B(  1-C ,  2-C ) :   1.5450
B(  1-C ,  4-C ) :   0.1038 B(  1-C , 32-H ) :   0.9735 B(  2-C ,  3-C ) :   1.2895
B(  2-C ,  6-C ) :   1.0039 B(  3-C ,  4-C ) :   1.5651 B(  3-C ,  5-H ) :   0.9832
B(  4-C , 20-C ) :   1.0401 B(  6-C ,  7-H ) :   0.9487 B(  6-C ,  8-H ) :   0.9486
B(  6-C ,  9-C ) :   1.0689 B(  9-C , 10-H ) :   0.9638 B(  9-C , 11-H ) :   0.9537
B(  9-C , 12-C ) :   1.0625 B( 12-C , 13-H ) :   0.9775 B( 12-C , 14-H ) :   0.9746
B( 12-C , 15-H ) :   0.9708 B( 16-S , 17-C ) :   1.1522 B( 16-S , 20-C ) :   1.1342
B( 17-C , 18-C ) :   1.6241 B( 17-C , 33-H ) :   0.9638 B( 18-C , 19-C ) :   1.2163
B( 18-C , 21-H ) :   1.0022 B( 19-C , 20-C ) :   1.5885 B( 19-C , 22-C ) :   1.0477
B( 22-C , 23-H ) :   0.9386 B( 22-C , 24-H ) :   0.9336 B( 22-C , 25-C ) :   1.0755
B( 25-C , 26-H ) :   0.9500 B( 25-C , 27-H ) :   0.9541 B( 25-C , 28-C ) :   1.0745
B( 28-C , 29-H ) :   0.9755 B( 28-C , 30-H ) :   0.9750 B( 28-C , 31-H ) :   0.9736

Dispersion correction           -0.014890190
FINAL SINGLE POINT ENERGY     -1339.860403434443

DIPOLE MOMENT
-------------
                                X             Y             Z
Electronic contribution:      8.91663     -16.88849     -17.89148
Nuclear contribution   :     -9.28264      17.25812      18.02424
                        -----------------------------------------
Total Dipole Moment    :     -0.36601       0.36963       0.13276
                        -----------------------------------------
Magnitude (a.u.)       :      0.53685
Magnitude (Debye)      :      1.36457

Rotational constants in cm-1:     0.019933     0.008823     0.007229
Rotational constants in MHz :   597.572676   264.499366   216.727888

                             ****ORCA TERMINATED NORMALLY****
TOTAL RUN TIME: 0 days 0 hours 0 minutes 21 seconds 7 msec
