                         Program Version 4.2.1 -  RELEASE  -
|  1> ! wB97X-D3 SP def2-SVP
|  2> %pal
|  3> nprocs 24
|  4> end
|  5>
|  6> * xyz 0 1
|  7> S 	 -66.6878 	 -46.5032 	 -89.228
|  8> C 	 -65.1024 	 -46.6412 	 -90.0215
|  9> C 	 -64.2678 	 -47.6008 	 -89.3993
| 10> C 	 -64.8213 	 -48.0475 	 -88.134
| 11> C 	 -66.0811 	 -47.6017 	 -87.908
| 12> H 	 -64.3665 	 -48.6102 	 -87.3402
| 13> C 	 -62.913 	 -48.0027 	 -89.8034
| 14> H 	 -62.8464 	 -47.9527 	 -90.8683
| 15> H 	 -62.7515 	 -49.0535 	 -89.4862
| 16> C 	 -61.8223 	 -47.0527 	 -89.2246
| 17> H 	 -61.9827 	 -46.128 	 -89.9027
| 18> H 	 -62.0318 	 -46.7713 	 -88.2454
| 19> C 	 -60.3972 	 -47.5946 	 -89.2606
| 20> H 	 -60.3481 	 -48.4623 	 -88.6355
| 21> H 	 -60.0459 	 -47.8678 	 -90.2641
| 22> H 	 -59.7482 	 -46.8312 	 -88.8598
| 23> S 	 -67.2896 	 -46.398 	 -85.8158
| 24> C 	 -67.8796 	 -47.3273 	 -84.5012
| 25> C 	 -67.8857 	 -48.6613 	 -84.7514
| 26> C 	 -67.3915 	 -48.9522 	 -86.0847
| 27> C 	 -66.8963 	 -47.8118 	 -86.709
| 28> H 	 -68.1869 	 -49.4463 	 -84.0603
| 29> C 	 -67.1229 	 -50.4257 	 -86.4606
| 30> H 	 -67.0606 	 -51.0544 	 -85.5402
| 31> H 	 -66.1164 	 -50.4847 	 -86.8264
| 32> C 	 -68.2632 	 -51.1153 	 -87.3058
| 33> H 	 -68.2363 	 -50.5789 	 -88.2114
| 34> H 	 -69.3092 	 -50.9252 	 -86.9825
| 35> C 	 -68.1145 	 -52.6677 	 -87.5326
| 36> H 	 -68.967 	 -52.982 	 -88.1394
| 37> H 	 -67.9992 	 -53.0975 	 -86.5718
| 38> H 	 -67.162 	 -52.897 	 -87.9819
| 39> H 	 -64.9098 	 -46.2299 	 -91.0079
| 40> H 	 -68.0805 	 -46.9691 	 -83.5168
| 41> *
| 42>
| 43>                          ****END OF INPUT****

CARTESIAN COORDINATES (ANGSTROEM)
---------------------------------
  S    -66.687800  -46.503200  -89.228000
  C    -65.102400  -46.641200  -90.021500
  C    -64.267800  -47.600800  -89.399300
  C    -64.821300  -48.047500  -88.134000
  C    -66.081100  -47.601700  -87.908000
  H    -64.366500  -48.610200  -87.340200
  C    -62.913000  -48.002700  -89.803400
  H    -62.846400  -47.952700  -90.868300
  H    -62.751500  -49.053500  -89.486200
  C    -61.822300  -47.052700  -89.224600
  H    -61.982700  -46.128000  -89.902700
  H    -62.031800  -46.771300  -88.245400
  C    -60.397200  -47.594600  -89.260600
  H    -60.348100  -48.462300  -88.635500
  H    -60.045900  -47.867800  -90.264100
  H    -59.748200  -46.831200  -88.859800
  S    -67.289600  -46.398000  -85.815800
  C    -67.879600  -47.327300  -84.501200
  C    -67.885700  -48.661300  -84.751400
  C    -67.391500  -48.952200  -86.084700
  C    -66.896300  -47.811800  -86.709000
  H    -68.186900  -49.446300  -84.060300
  C    -67.122900  -50.425700  -86.460600
  H    -67.060600  -51.054400  -85.540200
  H    -66.116400  -50.484700  -86.826400
  C    -68.263200  -51.115300  -87.305800
  H    -68.236300  -50.578900  -88.211400
  H    -69.309200  -50.925200  -86.982500
  C    -68.114500  -52.667700  -87.532600
  H    -68.967000  -52.982000  -88.139400
  H    -67.999200  -53.097500  -86.571800
  H    -67.162000  -52.897000  -87.981900
  H    -64.909800  -46.229900  -91.007900
  H    -68.080500  -46.969100  -83.516800

 Total Charge           Charge          ....    0
 Multiplicity           Mult            ....    1
 Number of Electrons    NEL             ....  134
 Basis Dimension        Dim             ....  322

ORBITAL ENERGIES
----------------

  NO   OCC          E(Eh)            E(eV)
   0   2.0000     -88.965509     -2420.8746
   1   2.0000     -88.964602     -2420.8499
   2   2.0000     -10.331788      -281.1423
   3   2.0000     -10.324071      -280.9323
   4   2.0000     -10.319216      -280.8001
   5   2.0000     -10.309300      -280.5303
   6   2.0000     -10.305959      -280.4394
   7   2.0000     -10.305228      -280.4195
   8   2.0000     -10.296067      -280.1702
   9   2.0000     -10.294322      -280.1227
  10   2.0000     -10.291723      -280.0520
  11   2.0000     -10.289518      -279.9920
  12   2.0000     -10.288319      -279.9594
  13   2.0000     -10.284466      -279.8545
  14   2.0000     -10.277450      -279.6636
  15   2.0000     -10.276152      -279.6283
  16   2.0000      -8.080679      -219.8865
  17   2.0000      -8.078799      -219.8353
  18   2.0000      -6.039138      -164.3333
  19   2.0000      -6.037407      -164.2862
  20   2.0000      -6.034951      -164.2194
  21   2.0000      -6.033726      -164.1860
  22   2.0000      -6.031442      -164.1239
  23   2.0000      -6.029334      -164.0665
  24   2.0000      -1.008087       -27.4314
  25   2.0000      -0.978938       -26.6383
  26   2.0000      -0.912610       -24.8334
  27   2.0000      -0.897878       -24.4325
  28   2.0000      -0.868728       -23.6393
  29   2.0000      -0.850719       -23.1492
  30   2.0000      -0.846597       -23.0371
  31   2.0000      -0.819147       -22.2901
  32   2.0000      -0.780651       -21.2426
  33   2.0000      -0.767180       -20.8760
  34   2.0000      -0.705310       -19.1925
  35   2.0000      -0.700284       -19.0557
  36   2.0000      -0.693655       -18.8753
  37   2.0000      -0.663155       -18.0454
  38   2.0000      -0.645329       -17.5603
  39   2.0000      -0.620279       -16.8787
  40   2.0000      -0.594895       -16.1879
  41   2.0000      -0.565366       -15.3844
  42   2.0000      -0.561077       -15.2677
  43   2.0000      -0.550209       -14.9719
  44   2.0000      -0.533330       -14.5127
  45   2.0000      -0.526492       -14.3266
  46   2.0000      -0.518109       -14.0985
  47   2.0000      -0.507994       -13.8232
  48   2.0000      -0.505422       -13.7532
  49   2.0000      -0.499054       -13.5800
  50   2.0000      -0.494993       -13.4694
  51   2.0000      -0.480759       -13.0821
  52   2.0000      -0.471627       -12.8336
  53   2.0000      -0.461395       -12.5552
  54   2.0000      -0.453890       -12.3510
  55   2.0000      -0.451225       -12.2785
  56   2.0000      -0.444358       -12.0916
  57   2.0000      -0.442894       -12.0518
  58   2.0000      -0.435088       -11.8393
  59   2.0000      -0.426582       -11.6079
  60   2.0000      -0.420109       -11.4318
  61   2.0000      -0.417610       -11.3637
  62   2.0000      -0.404889       -11.0176
  63   2.0000      -0.347573        -9.4580
  64   2.0000      -0.328897        -8.9497
  65   2.0000      -0.324469        -8.8293
  66   2.0000      -0.296417        -8.0659
  67   0.0000       0.036863         1.0031
  68   0.0000       0.062010         1.6874
  69   0.0000       0.104293         2.8380
  70   0.0000       0.117927         3.2090
  71   0.0000       0.134350         3.6559

MULLIKEN ATOMIC CHARGES
-----------------------
   0 S :    0.093445
   1 C :   -0.120376
   2 C :   -0.094678
   3 C :    0.040645
   4 C :   -0.143739
   5 H :    0.017244
   6 C :    0.070241
   7 H :    0.018073
   8 H :    0.025027
   9 C :   -0.086499
  10 H :    0.033189
  11 H :    0.019080
  12 C :   -0.016411
  13 H :    0.025719
  14 H :    0.030322
  15 H :    0.037260
  16 S :    0.125828
  17 C :   -0.065318
  18 C :   -0.045528
  19 C :   -0.018685
  20 C :   -0.188974
  21 H :    0.026322
  22 C :    0.045291
  23 H :    0.012662
  24 H :    0.018726
  25 C :   -0.087981
  26 H :    0.022086
  27 H :    0.032399
  28 C :   -0.017029
  29 H :    0.052332
  30 H :    0.018221
  31 H :    0.022054
  32 H :    0.053706
  33 H :    0.045344
Sum of atomic charges:    0.0000000

LOEWDIN ATOMIC CHARGES
----------------------
   0 S :    0.356073
   1 C :   -0.191329
   2 C :   -0.054428
   3 C :   -0.057529
   4 C :   -0.166820
   5 H :    0.033645
   6 C :   -0.036879
   7 H :    0.026702
   8 H :    0.030682
   9 C :   -0.033006
  10 H :    0.032626
  11 H :    0.013551
  12 C :   -0.061145
  13 H :    0.022180
  14 H :    0.025403
  15 H :    0.028862
  16 S :    0.436942
  17 C :   -0.194215
  18 C :   -0.068811
  19 C :   -0.053333
  20 C :   -0.215879
  21 H :    0.033947
  22 C :   -0.031451
  23 H :    0.027093
  24 H :    0.025449
  25 C :   -0.040607
  26 H :    0.016272
  27 H :    0.028282
  28 C :   -0.059721
  29 H :    0.033462
  30 H :    0.018528
  31 H :    0.022755
  32 H :    0.026530
  33 H :    0.026171

  Mayer bond orders larger than 0.100000
B(  0-S ,  1-C ) :   1.1193 B(  0-S ,  4-C ) :   1.1163 B(  1-C ,  2-C ) :   1.6339
B(  1-C , 32-H ) :   0.9643 B(  2-C ,  3-C ) :   1.1784 B(  2-C ,  6-C ) :   1.0572
B(  3-C ,  4-C ) :   1.6643 B(  3-C ,  5-H ) :   0.9847 B(  4-C , 20-C ) :   1.0120
B(  6-C ,  7-H ) :   0.9334 B(  6-C ,  8-H ) :   0.9386 B(  6-C ,  9-C ) :   1.0472
B(  9-C , 10-H ) :   0.9533 B(  9-C , 11-H ) :   0.9635 B(  9-C , 12-C ) :   1.0825
B( 12-C , 13-H ) :   0.9734 B( 12-C , 14-H ) :   0.9743 B( 12-C , 15-H ) :   0.9723
B( 16-S , 17-C ) :   1.1529 B( 16-S , 20-C ) :   1.1579 B( 17-C , 18-C ) :   1.6216
B( 17-C , 33-H ) :   0.9681 B( 18-C , 19-C ) :   1.2401 B( 18-C , 21-H ) :   0.9867
B( 19-C , 20-C ) :   1.5964 B( 19-C , 22-C ) :   1.0357 B( 22-C , 23-H ) :   0.9472
B( 22-C , 24-H ) :   0.9441 B( 22-C , 25-C ) :   1.0339 B( 25-C , 26-H ) :   0.9586
B( 25-C , 27-H ) :   0.9620 B( 25-C , 28-C ) :   1.0739 B( 28-C , 29-H ) :   0.9759
B( 28-C , 30-H ) :   0.9755 B( 28-C , 31-H ) :   0.9751

Dispersion correction           -0.013557483
FINAL SINGLE POINT ENERGY     -1339.870238433750

DIPOLE MOMENT
-------------
                                X             Y             Z
Electronic contribution:    -15.27753      19.65652       4.84481
Nuclear contribution   :     15.78660     -20.15758      -4.68864
                        -----------------------------------------
Total Dipole Moment    :      0.50907      -0.50106       0.15617
                        -----------------------------------------
Magnitude (a.u.)       :      0.73116
Magnitude (Debye)      :      1.85846

Rotational constants in cm-1:     0.016976     0.007824     0.006673
Rotational constants in MHz :   508.920748   234.562807   200.059480

                             ****ORCA TERMINATED NORMALLY****
TOTAL RUN TIME: 0 days 0 hours 0 minutes 19 seconds 673 msec
