                         Program Version 4.2.1 -  RELEASE  -
|  1> ! wB97X-D3 SP def2-SVP
|  2> %pal
|  3> nprocs 24
|  4> end
|  5>
|  6> * xyz 0 1
|  7> S 	 -73.5838 	 7.28082 	 -111.88
|  8> C 	 -74.511 	 7.34461 	 -110.434
|  9> C 	 -73.8156 	 7.99603 	 -109.416
| 10> C 	 -72.5537 	 8.46131 	 -109.898
| 11> C 	 -72.3929 	 8.31258 	 -111.228
| 12> H 	 -71.795 	 8.98132 	 -109.309
| 13> C 	 -74.2794 	 8.00046 	 -107.985
| 14> H 	 -74.0927 	 7.06748 	 -107.431
| 15> H 	 -75.3571 	 8.09397 	 -107.99
| 16> C 	 -73.7663 	 9.15488 	 -107.169
| 17> H 	 -72.6859 	 9.06163 	 -107.013
| 18> H 	 -73.9167 	 10.087 	 -107.672
| 19> C 	 -74.4171 	 9.20167 	 -105.803
| 20> H 	 -74.0236 	 10.1063 	 -105.299
| 21> H 	 -75.4502 	 9.20647 	 -105.918
| 22> H 	 -74.1643 	 8.38958 	 -105.123
| 23> S 	 -71.7232 	 10.037 	 -113.25
| 24> C 	 -70.0321 	 10.4013 	 -113.476
| 25> C 	 -69.255 	 9.60781 	 -112.676
| 26> C 	 -69.9292 	 8.66311 	 -111.845
| 27> C 	 -71.269 	 8.87585 	 -111.986
| 28> H 	 -68.2243 	 9.52831 	 -112.782
| 29> C 	 -69.2595 	 7.58752 	 -110.985
| 30> H 	 -69.6178 	 7.67668 	 -109.914
| 31> H 	 -68.1513 	 7.73764 	 -111.033
| 32> C 	 -69.4306 	 6.15915 	 -111.595
| 33> H 	 -70.501 	 5.83642 	 -111.69
| 34> H 	 -68.9916 	 5.4403 	 -110.932
| 35> C 	 -68.6707 	 5.98371 	 -112.863
| 36> H 	 -67.6568 	 6.19735 	 -112.661
| 37> H 	 -69.1381 	 6.60719 	 -113.724
| 38> H 	 -68.836 	 4.93415 	 -113.198
| 39> H 	 -75.4559 	 6.83888 	 -110.243
| 40> H 	 -69.723 	 11.1621 	 -114.148
| 41> *
| 42>
| 43>                          ****END OF INPUT****

CARTESIAN COORDINATES (ANGSTROEM)
---------------------------------
  S    -73.583800    7.280820  -111.880000
  C    -74.511000    7.344610  -110.434000
  C    -73.815600    7.996030  -109.416000
  C    -72.553700    8.461310  -109.898000
  C    -72.392900    8.312580  -111.228000
  H    -71.795000    8.981320  -109.309000
  C    -74.279400    8.000460  -107.985000
  H    -74.092700    7.067480  -107.431000
  H    -75.357100    8.093970  -107.990000
  C    -73.766300    9.154880  -107.169000
  H    -72.685900    9.061630  -107.013000
  H    -73.916700   10.087000  -107.672000
  C    -74.417100    9.201670  -105.803000
  H    -74.023600   10.106300  -105.299000
  H    -75.450200    9.206470  -105.918000
  H    -74.164300    8.389580  -105.123000
  S    -71.723200   10.037000  -113.250000
  C    -70.032100   10.401300  -113.476000
  C    -69.255000    9.607810  -112.676000
  C    -69.929200    8.663110  -111.845000
  C    -71.269000    8.875850  -111.986000
  H    -68.224300    9.528310  -112.782000
  C    -69.259500    7.587520  -110.985000
  H    -69.617800    7.676680  -109.914000
  H    -68.151300    7.737640  -111.033000
  C    -69.430600    6.159150  -111.595000
  H    -70.501000    5.836420  -111.690000
  H    -68.991600    5.440300  -110.932000
  C    -68.670700    5.983710  -112.863000
  H    -67.656800    6.197350  -112.661000
  H    -69.138100    6.607190  -113.724000
  H    -68.836000    4.934150  -113.198000
  H    -75.455900    6.838880  -110.243000
  H    -69.723000   11.162100  -114.148000

 Total Charge           Charge          ....    0
 Multiplicity           Mult            ....    1
 Number of Electrons    NEL             ....  134
 Basis Dimension        Dim             ....  322

ORBITAL ENERGIES
----------------

  NO   OCC          E(Eh)            E(eV)
   0   2.0000     -88.965425     -2420.8723
   1   2.0000     -88.963009     -2420.8066
   2   2.0000     -10.322346      -280.8853
   3   2.0000     -10.317179      -280.7447
   4   2.0000     -10.313717      -280.6505
   5   2.0000     -10.309033      -280.5231
   6   2.0000     -10.304964      -280.4123
   7   2.0000     -10.300189      -280.2824
   8   2.0000     -10.297555      -280.2107
   9   2.0000     -10.287727      -279.9433
  10   2.0000     -10.286920      -279.9213
  11   2.0000     -10.286691      -279.9151
  12   2.0000     -10.283250      -279.8214
  13   2.0000     -10.278774      -279.6997
  14   2.0000     -10.278185      -279.6836
  15   2.0000     -10.272429      -279.5270
  16   2.0000      -8.081220      -219.9012
  17   2.0000      -8.077895      -219.8107
  18   2.0000      -6.039564      -164.3449
  19   2.0000      -6.036250      -164.2547
  20   2.0000      -6.035618      -164.2375
  21   2.0000      -6.032555      -164.1542
  22   2.0000      -6.032060      -164.1407
  23   2.0000      -6.028632      -164.0474
  24   2.0000      -1.012405       -27.5489
  25   2.0000      -0.987990       -26.8846
  26   2.0000      -0.919088       -25.0097
  27   2.0000      -0.910298       -24.7705
  28   2.0000      -0.869575       -23.6623
  29   2.0000      -0.854377       -23.2488
  30   2.0000      -0.848116       -23.0784
  31   2.0000      -0.814272       -22.1575
  32   2.0000      -0.782033       -21.2802
  33   2.0000      -0.771287       -20.9878
  34   2.0000      -0.708944       -19.2913
  35   2.0000      -0.692806       -18.8522
  36   2.0000      -0.682488       -18.5714
  37   2.0000      -0.665886       -18.1197
  38   2.0000      -0.643128       -17.5004
  39   2.0000      -0.618929       -16.8419
  40   2.0000      -0.597565       -16.2606
  41   2.0000      -0.575982       -15.6733
  42   2.0000      -0.564880       -15.3712
  43   2.0000      -0.559926       -15.2364
  44   2.0000      -0.549587       -14.9550
  45   2.0000      -0.524092       -14.2613
  46   2.0000      -0.518934       -14.1209
  47   2.0000      -0.506852       -13.7922
  48   2.0000      -0.499180       -13.5834
  49   2.0000      -0.497735       -13.5441
  50   2.0000      -0.485675       -13.2159
  51   2.0000      -0.480611       -13.0781
  52   2.0000      -0.470689       -12.8081
  53   2.0000      -0.467378       -12.7180
  54   2.0000      -0.459207       -12.4957
  55   2.0000      -0.451558       -12.2875
  56   2.0000      -0.438888       -11.9428
  57   2.0000      -0.437532       -11.9058
  58   2.0000      -0.433666       -11.8007
  59   2.0000      -0.426100       -11.5948
  60   2.0000      -0.421562       -11.4713
  61   2.0000      -0.417298       -11.3553
  62   2.0000      -0.412831       -11.2337
  63   2.0000      -0.340522        -9.2661
  64   2.0000      -0.332053        -9.0356
  65   2.0000      -0.325940        -8.8693
  66   2.0000      -0.297361        -8.0916
  67   0.0000       0.039751         1.0817
  68   0.0000       0.066522         1.8102
  69   0.0000       0.114301         3.1103
  70   0.0000       0.117461         3.1963
  71   0.0000       0.134950         3.6722

MULLIKEN ATOMIC CHARGES
-----------------------
   0 S :    0.129267
   1 C :   -0.122304
   2 C :   -0.078689
   3 C :    0.021865
   4 C :   -0.155407
   5 H :    0.016225
   6 C :    0.068765
   7 H :    0.040787
   8 H :    0.010624
   9 C :   -0.106659
  10 H :    0.028446
  11 H :    0.028640
  12 C :   -0.015758
  13 H :    0.034195
  14 H :    0.015810
  15 H :    0.026033
  16 S :    0.108928
  17 C :   -0.074789
  18 C :    0.001868
  19 C :   -0.028055
  20 C :   -0.203886
  21 H :   -0.012910
  22 C :    0.065160
  23 H :    0.050662
  24 H :    0.018945
  25 C :   -0.071890
  26 H :    0.039830
  27 H :    0.021357
  28 C :   -0.072310
  29 H :    0.025585
  30 H :    0.056499
  31 H :    0.039579
  32 H :    0.045210
  33 H :    0.048377
Sum of atomic charges:    0.0000000

LOEWDIN ATOMIC CHARGES
----------------------
   0 S :    0.435740
   1 C :   -0.209757
   2 C :   -0.062842
   3 C :   -0.065851
   4 C :   -0.215132
   5 H :    0.032182
   6 C :   -0.035754
   7 H :    0.035432
   8 H :    0.028351
   9 C :   -0.042850
  10 H :    0.022128
  11 H :    0.023039
  12 C :   -0.057778
  13 H :    0.032311
  14 H :    0.013775
  15 H :    0.024532
  16 S :    0.396329
  17 C :   -0.177258
  18 C :   -0.064364
  19 C :   -0.058103
  20 C :   -0.184068
  21 H :    0.017133
  22 C :   -0.030533
  23 H :    0.039847
  24 H :    0.031847
  25 C :   -0.044839
  26 H :    0.026211
  27 H :    0.020673
  28 C :   -0.068942
  29 H :    0.015993
  30 H :    0.037337
  31 H :    0.032609
  32 H :    0.029461
  33 H :    0.023139

  Mayer bond orders larger than 0.100000
B(  0-S ,  1-C ) :   1.1461 B(  0-S ,  4-C ) :   1.1674 B(  1-C ,  2-C ) :   1.5972
B(  1-C , 32-H ) :   0.9707 B(  2-C ,  3-C ) :   1.2523 B(  2-C ,  6-C ) :   1.0239
B(  3-C ,  4-C ) :   1.5809 B(  3-C ,  5-H ) :   0.9928 B(  4-C , 20-C ) :   0.9973
B(  6-C ,  7-H ) :   0.9335 B(  6-C ,  8-H ) :   0.9357 B(  6-C ,  9-C ) :   1.0817
B(  9-C , 10-H ) :   0.9429 B(  9-C , 11-H ) :   0.9589 B(  9-C , 12-C ) :   1.0943
B( 12-C , 13-H ) :   0.9714 B( 12-C , 14-H ) :   0.9741 B( 12-C , 15-H ) :   0.9720
B( 16-S , 17-C ) :   1.1414 B( 16-S , 20-C ) :   1.1531 B( 17-C , 18-C ) :   1.6084
B( 17-C , 33-H ) :   0.9764 B( 18-C , 19-C ) :   1.2387 B( 18-C , 21-H ) :   0.9887
B( 19-C , 20-C ) :   1.6183 B( 19-C , 22-C ) :   1.0372 B( 22-C , 23-H ) :   0.9318
B( 22-C , 24-H ) :   0.9349 B( 22-C , 25-C ) :   1.0667 B( 25-C , 26-H ) :   0.9556
B( 25-C , 27-H ) :   0.9544 B( 25-C , 28-C ) :   1.0779 B( 28-C , 29-H ) :   0.9736
B( 28-C , 30-H ) :   0.9723 B( 28-C , 31-H ) :   0.9704

Dispersion correction           -0.014647518
FINAL SINGLE POINT ENERGY     -1339.884564648022

DIPOLE MOMENT
-------------
                                X             Y             Z
Electronic contribution:     -6.15500       6.61594     -20.04874
Nuclear contribution   :      6.44160      -6.81603      20.55378
                        -----------------------------------------
Total Dipole Moment    :      0.28661      -0.20009       0.50504
                        -----------------------------------------
Magnitude (a.u.)       :      0.61420
Magnitude (Debye)      :      1.56118

Rotational constants in cm-1:     0.020308     0.007796     0.007437
Rotational constants in MHz :   608.808341   233.706347   222.940985

                             ****ORCA TERMINATED NORMALLY****
TOTAL RUN TIME: 0 days 0 hours 0 minutes 21 seconds 955 msec
