                         Program Version 4.2.1 -  RELEASE  -
|  1> ! wB97X-D3 SP def2-SVP
|  2> %pal
|  3> nprocs 24
|  4> end
|  5>
|  6> * xyz 0 1
|  7> S 	 45.6108 	 -18.7218 	 -110.922
|  8> C 	 46.8965 	 -18.9264 	 -109.821
|  9> C 	 46.5077 	 -19.6018 	 -108.719
| 10> C 	 45.086 	 -19.9339 	 -108.783
| 11> C 	 44.4771 	 -19.6848 	 -110.004
| 12> H 	 44.5635 	 -20.3599 	 -107.93
| 13> C 	 47.3188 	 -19.9111 	 -107.533
| 14> H 	 46.7186 	 -20.2026 	 -106.684
| 15> H 	 47.8154 	 -19.0041 	 -107.184
| 16> C 	 48.3904 	 -20.9767 	 -107.74
| 17> H 	 49.2187 	 -20.5813 	 -108.291
| 18> H 	 48.7621 	 -21.2437 	 -106.808
| 19> C 	 47.9201 	 -22.1643 	 -108.558
| 20> H 	 48.7148 	 -22.8044 	 -108.893
| 21> H 	 47.1034 	 -22.7623 	 -108.148
| 22> H 	 47.5565 	 -21.7348 	 -109.516
| 23> S 	 41.8265 	 -18.9768 	 -110.489
| 24> C 	 40.6699 	 -20.2106 	 -111.054
| 25> C 	 41.3062 	 -21.4483 	 -111.078
| 26> C 	 42.6988 	 -21.4271 	 -110.681
| 27> C 	 43.1903 	 -20.1145 	 -110.539
| 28> H 	 40.7168 	 -22.289 	 -111.499
| 29> C 	 43.5125 	 -22.7063 	 -110.76
| 30> H 	 42.8605 	 -23.5361 	 -110.42
| 31> H 	 44.3867 	 -22.6275 	 -110.057
| 32> C 	 43.8999 	 -23.1266 	 -112.199
| 33> H 	 43.1531 	 -23.0337 	 -113.063
| 34> H 	 44.2573 	 -24.2062 	 -112.156
| 35> C 	 45.1514 	 -22.4437 	 -112.774
| 36> H 	 45.2107 	 -22.6977 	 -113.903
| 37> H 	 46.024 	 -22.7892 	 -112.232
| 38> H 	 45.1492 	 -21.3498 	 -112.717
| 39> H 	 47.862 	 -18.439 	 -109.955
| 40> H 	 39.5917 	 -20.1312 	 -111.221
| 41> *
| 42>
| 43>                          ****END OF INPUT****

CARTESIAN COORDINATES (ANGSTROEM)
---------------------------------
  S     45.610800  -18.721800  -110.922000
  C     46.896500  -18.926400  -109.821000
  C     46.507700  -19.601800  -108.719000
  C     45.086000  -19.933900  -108.783000
  C     44.477100  -19.684800  -110.004000
  H     44.563500  -20.359900  -107.930000
  C     47.318800  -19.911100  -107.533000
  H     46.718600  -20.202600  -106.684000
  H     47.815400  -19.004100  -107.184000
  C     48.390400  -20.976700  -107.740000
  H     49.218700  -20.581300  -108.291000
  H     48.762100  -21.243700  -106.808000
  C     47.920100  -22.164300  -108.558000
  H     48.714800  -22.804400  -108.893000
  H     47.103400  -22.762300  -108.148000
  H     47.556500  -21.734800  -109.516000
  S     41.826500  -18.976800  -110.489000
  C     40.669900  -20.210600  -111.054000
  C     41.306200  -21.448300  -111.078000
  C     42.698800  -21.427100  -110.681000
  C     43.190300  -20.114500  -110.539000
  H     40.716800  -22.289000  -111.499000
  C     43.512500  -22.706300  -110.760000
  H     42.860500  -23.536100  -110.420000
  H     44.386700  -22.627500  -110.057000
  C     43.899900  -23.126600  -112.199000
  H     43.153100  -23.033700  -113.063000
  H     44.257300  -24.206200  -112.156000
  C     45.151400  -22.443700  -112.774000
  H     45.210700  -22.697700  -113.903000
  H     46.024000  -22.789200  -112.232000
  H     45.149200  -21.349800  -112.717000
  H     47.862000  -18.439000  -109.955000
  H     39.591700  -20.131200  -111.221000

 Total Charge           Charge          ....    0
 Multiplicity           Mult            ....    1
 Number of Electrons    NEL             ....  134
 Basis Dimension        Dim             ....  322

ORBITAL ENERGIES
----------------

  NO   OCC          E(Eh)            E(eV)
   0   2.0000     -88.965849     -2420.8838
   1   2.0000     -88.962080     -2420.7813
   2   2.0000     -10.332976      -281.1746
   3   2.0000     -10.331210      -281.1265
   4   2.0000     -10.324254      -280.9372
   5   2.0000     -10.311787      -280.5980
   6   2.0000     -10.310836      -280.5721
   7   2.0000     -10.299911      -280.2748
   8   2.0000     -10.299287      -280.2579
   9   2.0000     -10.298294      -280.2308
  10   2.0000     -10.297066      -280.1974
  11   2.0000     -10.295391      -280.1518
  12   2.0000     -10.286657      -279.9142
  13   2.0000     -10.277892      -279.6756
  14   2.0000     -10.274302      -279.5780
  15   2.0000     -10.271993      -279.5152
  16   2.0000      -8.079549      -219.8557
  17   2.0000      -8.077775      -219.8074
  18   2.0000      -6.038271      -164.3097
  19   2.0000      -6.036308      -164.2563
  20   2.0000      -6.034133      -164.1971
  21   2.0000      -6.031910      -164.1366
  22   2.0000      -6.030190      -164.0898
  23   2.0000      -6.028664      -164.0483
  24   2.0000      -1.007761       -27.4226
  25   2.0000      -0.982337       -26.7307
  26   2.0000      -0.920316       -25.0431
  27   2.0000      -0.901191       -24.5227
  28   2.0000      -0.871060       -23.7027
  29   2.0000      -0.846177       -23.0257
  30   2.0000      -0.840993       -22.8846
  31   2.0000      -0.814582       -22.1659
  32   2.0000      -0.784852       -21.3569
  33   2.0000      -0.770526       -20.9671
  34   2.0000      -0.706265       -19.2184
  35   2.0000      -0.703857       -19.1529
  36   2.0000      -0.681886       -18.5551
  37   2.0000      -0.653658       -17.7869
  38   2.0000      -0.643518       -17.5110
  39   2.0000      -0.613529       -16.6950
  40   2.0000      -0.591422       -16.0934
  41   2.0000      -0.581420       -15.8212
  42   2.0000      -0.556737       -15.1496
  43   2.0000      -0.549536       -14.9536
  44   2.0000      -0.540711       -14.7135
  45   2.0000      -0.531802       -14.4711
  46   2.0000      -0.520959       -14.1760
  47   2.0000      -0.512068       -13.9341
  48   2.0000      -0.508732       -13.8433
  49   2.0000      -0.496795       -13.5185
  50   2.0000      -0.490756       -13.3541
  51   2.0000      -0.474558       -12.9134
  52   2.0000      -0.473292       -12.8789
  53   2.0000      -0.460942       -12.5429
  54   2.0000      -0.457527       -12.4499
  55   2.0000      -0.443536       -12.0692
  56   2.0000      -0.433891       -11.8068
  57   2.0000      -0.432898       -11.7797
  58   2.0000      -0.426904       -11.6166
  59   2.0000      -0.423393       -11.5211
  60   2.0000      -0.416732       -11.3399
  61   2.0000      -0.414510       -11.2794
  62   2.0000      -0.408104       -11.1051
  63   2.0000      -0.338213        -9.2032
  64   2.0000      -0.326150        -8.8750
  65   2.0000      -0.324490        -8.8298
  66   2.0000      -0.307298        -8.3620
  67   0.0000       0.033395         0.9087
  68   0.0000       0.056528         1.5382
  69   0.0000       0.109826         2.9885
  70   0.0000       0.117176         3.1885
  71   0.0000       0.129375         3.5205

MULLIKEN ATOMIC CHARGES
-----------------------
   0 S :    0.110410
   1 C :   -0.111933
   2 C :   -0.136365
   3 C :    0.047832
   4 C :   -0.174891
   5 H :    0.015631
   6 C :    0.088245
   7 H :    0.013461
   8 H :    0.029448
   9 C :   -0.027993
  10 H :    0.015370
  11 H :    0.011128
  12 C :   -0.066607
  13 H :    0.027800
  14 H :    0.032577
  15 H :    0.041905
  16 S :    0.099000
  17 C :   -0.096683
  18 C :   -0.060234
  19 C :   -0.021130
  20 C :   -0.135463
  21 H :    0.038157
  22 C :    0.066106
  23 H :    0.032274
  24 H :    0.043774
  25 C :   -0.114695
  26 H :    0.050193
  27 H :    0.038749
  28 C :   -0.076279
  29 H :    0.039415
  30 H :    0.029737
  31 H :    0.031260
  32 H :    0.052834
  33 H :    0.066964
Sum of atomic charges:    0.0000000

LOEWDIN ATOMIC CHARGES
----------------------
   0 S :    0.427145
   1 C :   -0.203910
   2 C :   -0.073103
   3 C :   -0.053505
   4 C :   -0.205053
   5 H :    0.030370
   6 C :   -0.032898
   7 H :    0.029027
   8 H :    0.035200
   9 C :   -0.030057
  10 H :    0.021782
  11 H :    0.014193
  12 C :   -0.069908
  13 H :    0.023514
  14 H :    0.021666
  15 H :    0.031331
  16 S :    0.385776
  17 C :   -0.178801
  18 C :   -0.077006
  19 C :   -0.046331
  20 C :   -0.202663
  21 H :    0.038277
  22 C :   -0.038115
  23 H :    0.037088
  24 H :    0.038829
  25 C :   -0.053250
  26 H :    0.034713
  27 H :    0.031435
  28 C :   -0.074998
  29 H :    0.034256
  30 H :    0.018662
  31 H :    0.015795
  32 H :    0.032711
  33 H :    0.037828

  Mayer bond orders larger than 0.100000
B(  0-S ,  1-C ) :   1.1551 B(  0-S ,  4-C ) :   1.1563 B(  1-C ,  2-C ) :   1.5979
B(  1-C , 32-H ) :   0.9711 B(  2-C ,  3-C ) :   1.2411 B(  2-C ,  6-C ) :   1.0340
B(  3-C ,  4-C ) :   1.5672 B(  3-C ,  5-H ) :   0.9992 B(  4-C , 20-C ) :   1.0153
B(  6-C ,  7-H ) :   0.9372 B(  6-C ,  8-H ) :   0.9357 B(  6-C ,  9-C ) :   1.0754
B(  9-C , 10-H ) :   0.9515 B(  9-C , 11-H ) :   0.9554 B(  9-C , 12-C ) :   1.0883
B( 12-C , 13-H ) :   0.9721 B( 12-C , 14-H ) :   0.9774 B( 12-C , 15-H ) :   0.9611
B( 16-S , 17-C ) :   1.1453 B( 16-S , 20-C ) :   1.1338 B( 17-C , 18-C ) :   1.6331
B( 17-C , 20-C ) :   0.1006 B( 17-C , 33-H ) :   0.9642 B( 18-C , 19-C ) :   1.2214
B( 18-C , 21-H ) :   0.9800 B( 19-C , 20-C ) :   1.5867 B( 19-C , 22-C ) :   1.0608
B( 22-C , 23-H ) :   0.9303 B( 22-C , 24-H ) :   0.9336 B( 22-C , 25-C ) :   1.0521
B( 25-C , 26-H ) :   0.9626 B( 25-C , 27-H ) :   0.9566 B( 25-C , 28-C ) :   1.0698
B( 28-C , 29-H ) :   0.9737 B( 28-C , 30-H ) :   0.9783 B( 28-C , 31-H ) :   0.9735

Dispersion correction           -0.016122468
FINAL SINGLE POINT ENERGY     -1339.875709222690

DIPOLE MOMENT
-------------
                                X             Y             Z
Electronic contribution:    -16.21637      20.21438      -2.36171
Nuclear contribution   :     16.40941     -20.72549       2.68783
                        -----------------------------------------
Total Dipole Moment    :      0.19304      -0.51111       0.32612
                        -----------------------------------------
Magnitude (a.u.)       :      0.63628
Magnitude (Debye)      :      1.61729

Rotational constants in cm-1:     0.020411     0.009383     0.007861
Rotational constants in MHz :   611.901083   281.303322   235.665561

                             ****ORCA TERMINATED NORMALLY****
TOTAL RUN TIME: 0 days 0 hours 0 minutes 22 seconds 892 msec
