                         Program Version 4.2.1 -  RELEASE  -
|  1> ! wB97X-D3 SP def2-SVP
|  2> %pal
|  3> nprocs 24
|  4> end
|  5>
|  6> * xyz 0 1
|  7> S 	 -95.9727 	 45.999 	 -89.169
|  8> C 	 -96.1779 	 44.2354 	 -88.923
|  9> C 	 -95.9924 	 43.5496 	 -90.1305
| 10> C 	 -95.8766 	 44.483 	 -91.2062
| 11> C 	 -95.9077 	 45.7901 	 -90.8396
| 12> H 	 -95.8364 	 44.281 	 -92.2347
| 13> C 	 -95.9757 	 42.0373 	 -90.2528
| 14> H 	 -96.4956 	 41.5994 	 -91.1026
| 15> H 	 -96.6456 	 41.8214 	 -89.44
| 16> C 	 -94.6425 	 41.2835 	 -90.0031
| 17> H 	 -94.2421 	 41.6491 	 -89.0808
| 18> H 	 -94.8875 	 40.1797 	 -90.0092
| 19> C 	 -93.6004 	 41.6759 	 -91.1136
| 20> H 	 -92.6269 	 41.2736 	 -90.815
| 21> H 	 -93.7878 	 41.2271 	 -92.0765
| 22> H 	 -93.4912 	 42.7222 	 -91.1992
| 23> S 	 -97.0299 	 48.2276 	 -91.5453
| 24> C 	 -96.3379 	 49.0819 	 -92.8787
| 25> C 	 -95.3501 	 48.3729 	 -93.4649
| 26> C 	 -95.1585 	 47.0979 	 -92.9787
| 27> C 	 -95.9072 	 46.9002 	 -91.8111
| 28> H 	 -94.8299 	 48.7391 	 -94.3922
| 29> C 	 -94.0953 	 46.1141 	 -93.5155
| 30> H 	 -93.9098 	 45.3821 	 -92.6993
| 31> H 	 -93.2281 	 46.7729 	 -93.6763
| 32> C 	 -94.5002 	 45.508 	 -94.8256
| 33> H 	 -94.8837 	 46.3012 	 -95.5871
| 34> H 	 -95.3249 	 44.7734 	 -94.7509
| 35> C 	 -93.3927 	 44.6171 	 -95.4498
| 36> H 	 -92.6026 	 45.2538 	 -95.7711
| 37> H 	 -93.723 	 44.1229 	 -96.3764
| 38> H 	 -93.0028 	 43.8779 	 -94.751
| 39> H 	 -96.2411 	 43.6347 	 -88.0537
| 40> H 	 -96.5971 	 50.1327 	 -93.0672
| 41> *
| 42>
| 43>                          ****END OF INPUT****

CARTESIAN COORDINATES (ANGSTROEM)
---------------------------------
  S    -95.972700   45.999000  -89.169000
  C    -96.177900   44.235400  -88.923000
  C    -95.992400   43.549600  -90.130500
  C    -95.876600   44.483000  -91.206200
  C    -95.907700   45.790100  -90.839600
  H    -95.836400   44.281000  -92.234700
  C    -95.975700   42.037300  -90.252800
  H    -96.495600   41.599400  -91.102600
  H    -96.645600   41.821400  -89.440000
  C    -94.642500   41.283500  -90.003100
  H    -94.242100   41.649100  -89.080800
  H    -94.887500   40.179700  -90.009200
  C    -93.600400   41.675900  -91.113600
  H    -92.626900   41.273600  -90.815000
  H    -93.787800   41.227100  -92.076500
  H    -93.491200   42.722200  -91.199200
  S    -97.029900   48.227600  -91.545300
  C    -96.337900   49.081900  -92.878700
  C    -95.350100   48.372900  -93.464900
  C    -95.158500   47.097900  -92.978700
  C    -95.907200   46.900200  -91.811100
  H    -94.829900   48.739100  -94.392200
  C    -94.095300   46.114100  -93.515500
  H    -93.909800   45.382100  -92.699300
  H    -93.228100   46.772900  -93.676300
  C    -94.500200   45.508000  -94.825600
  H    -94.883700   46.301200  -95.587100
  H    -95.324900   44.773400  -94.750900
  C    -93.392700   44.617100  -95.449800
  H    -92.602600   45.253800  -95.771100
  H    -93.723000   44.122900  -96.376400
  H    -93.002800   43.877900  -94.751000
  H    -96.241100   43.634700  -88.053700
  H    -96.597100   50.132700  -93.067200

 Total Charge           Charge          ....    0
 Multiplicity           Mult            ....    1
 Number of Electrons    NEL             ....  134
 Basis Dimension        Dim             ....  322

ORBITAL ENERGIES
----------------

  NO   OCC          E(Eh)            E(eV)
   0   2.0000     -88.971255     -2421.0309
   1   2.0000     -88.964966     -2420.8598
   2   2.0000     -10.327189      -281.0171
   3   2.0000     -10.322446      -280.8880
   4   2.0000     -10.314876      -280.6821
   5   2.0000     -10.313471      -280.6438
   6   2.0000     -10.304289      -280.3939
   7   2.0000     -10.299751      -280.2705
   8   2.0000     -10.297677      -280.2140
   9   2.0000     -10.296421      -280.1799
  10   2.0000     -10.295368      -280.1512
  11   2.0000     -10.290353      -280.0147
  12   2.0000     -10.290338      -280.0143
  13   2.0000     -10.283241      -279.8212
  14   2.0000     -10.277592      -279.6675
  15   2.0000     -10.274642      -279.5872
  16   2.0000      -8.086070      -220.0331
  17   2.0000      -8.080196      -219.8733
  18   2.0000      -6.044609      -164.4822
  19   2.0000      -6.040617      -164.3735
  20   2.0000      -6.038553      -164.3174
  21   2.0000      -6.036714      -164.2673
  22   2.0000      -6.034606      -164.2100
  23   2.0000      -6.031117      -164.1150
  24   2.0000      -1.013281       -27.5728
  25   2.0000      -0.990716       -26.9588
  26   2.0000      -0.912391       -24.8274
  27   2.0000      -0.911239       -24.7961
  28   2.0000      -0.866689       -23.5838
  29   2.0000      -0.854779       -23.2597
  30   2.0000      -0.845417       -23.0050
  31   2.0000      -0.815486       -22.1905
  32   2.0000      -0.787158       -21.4197
  33   2.0000      -0.775149       -21.0929
  34   2.0000      -0.703851       -19.1528
  35   2.0000      -0.702060       -19.1040
  36   2.0000      -0.692906       -18.8549
  37   2.0000      -0.659806       -17.9542
  38   2.0000      -0.639690       -17.4069
  39   2.0000      -0.616940       -16.7878
  40   2.0000      -0.598119       -16.2757
  41   2.0000      -0.579826       -15.7779
  42   2.0000      -0.565045       -15.3756
  43   2.0000      -0.545916       -14.8551
  44   2.0000      -0.541107       -14.7243
  45   2.0000      -0.527937       -14.3659
  46   2.0000      -0.517460       -14.0808
  47   2.0000      -0.511558       -13.9202
  48   2.0000      -0.501556       -13.6480
  49   2.0000      -0.497864       -13.5476
  50   2.0000      -0.488920       -13.3042
  51   2.0000      -0.484648       -13.1879
  52   2.0000      -0.469964       -12.7884
  53   2.0000      -0.466315       -12.6891
  54   2.0000      -0.464356       -12.6358
  55   2.0000      -0.449874       -12.2417
  56   2.0000      -0.447325       -12.1723
  57   2.0000      -0.440110       -11.9760
  58   2.0000      -0.432541       -11.7700
  59   2.0000      -0.429507       -11.6875
  60   2.0000      -0.424710       -11.5569
  61   2.0000      -0.416719       -11.3395
  62   2.0000      -0.409757       -11.1500
  63   2.0000      -0.347770        -9.4633
  64   2.0000      -0.336749        -9.1634
  65   2.0000      -0.332584        -9.0501
  66   2.0000      -0.290166        -7.8958
  67   0.0000       0.028635         0.7792
  68   0.0000       0.076550         2.0830
  69   0.0000       0.110697         3.0122
  70   0.0000       0.123472         3.3599
  71   0.0000       0.126547         3.4435

MULLIKEN ATOMIC CHARGES
-----------------------
   0 S :    0.127875
   1 C :   -0.096570
   2 C :   -0.102901
   3 C :    0.029690
   4 C :   -0.133178
   5 H :   -0.023196
   6 C :    0.055122
   7 H :    0.028726
   8 H :    0.012911
   9 C :   -0.049257
  10 H :    0.020334
  11 H :    0.049882
  12 C :   -0.049917
  13 H :    0.027221
  14 H :    0.025537
  15 H :    0.034808
  16 S :    0.109548
  17 C :   -0.100893
  18 C :   -0.039801
  19 C :   -0.028599
  20 C :   -0.176550
  21 H :    0.029716
  22 C :    0.072709
  23 H :    0.040967
  24 H :    0.031058
  25 C :   -0.128979
  26 H :    0.045779
  27 H :    0.035601
  28 C :   -0.029025
  29 H :    0.018086
  30 H :    0.035096
  31 H :    0.035502
  32 H :    0.026863
  33 H :    0.065831
Sum of atomic charges:    0.0000000

LOEWDIN ATOMIC CHARGES
----------------------
   0 S :    0.423909
   1 C :   -0.190351
   2 C :   -0.052237
   3 C :   -0.069048
   4 C :   -0.213041
   5 H :    0.020519
   6 C :   -0.040325
   7 H :    0.030004
   8 H :    0.030190
   9 C :   -0.028715
  10 H :    0.019376
  11 H :    0.034363
  12 C :   -0.063747
  13 H :    0.026298
  14 H :    0.021212
  15 H :    0.019165
  16 S :    0.410191
  17 C :   -0.194123
  18 C :   -0.082014
  19 C :   -0.057811
  20 C :   -0.191942
  21 H :    0.039742
  22 C :   -0.030493
  23 H :    0.035414
  24 H :    0.034894
  25 C :   -0.051610
  26 H :    0.034711
  27 H :    0.023633
  28 C :   -0.065212
  29 H :    0.017152
  30 H :    0.028558
  31 H :    0.026085
  32 H :    0.021544
  33 H :    0.033710

  Mayer bond orders larger than 0.100000
B(  0-S ,  1-C ) :   1.1235 B(  0-S ,  4-C ) :   1.1621 B(  1-C ,  2-C ) :   1.6199
B(  1-C , 32-H ) :   0.9653 B(  2-C ,  3-C ) :   1.2246 B(  2-C ,  6-C ) :   1.0104
B(  3-C ,  4-C ) :   1.5635 B(  3-C ,  5-H ) :   1.0102 B(  4-C , 20-C ) :   1.0263
B(  6-C ,  7-H ) :   0.9490 B(  6-C ,  8-H ) :   0.9318 B(  6-C ,  9-C ) :   1.0707
B(  9-C , 10-H ) :   0.9545 B(  9-C , 11-H ) :   0.9558 B(  9-C , 12-C ) :   1.0756
B( 12-C , 13-H ) :   0.9746 B( 12-C , 14-H ) :   0.9770 B( 12-C , 15-H ) :   0.9768
B( 16-S , 17-C ) :   1.1571 B( 16-S , 20-C ) :   1.1591 B( 17-C , 18-C ) :   1.5942
B( 17-C , 20-C ) :   0.1055 B( 17-C , 33-H ) :   0.9646 B( 18-C , 19-C ) :   1.2859
B( 18-C , 21-H ) :   0.9758 B( 19-C , 20-C ) :   1.5675 B( 19-C , 22-C ) :   1.0222
B( 22-C , 23-H ) :   0.9309 B( 22-C , 24-H ) :   0.9371 B( 22-C , 25-C ) :   1.0623
B( 25-C , 26-H ) :   0.9549 B( 25-C , 27-H ) :   0.9519 B( 25-C , 28-C ) :   1.0779
B( 28-C , 29-H ) :   0.9752 B( 28-C , 30-H ) :   0.9753 B( 28-C , 31-H ) :   0.9724

Dispersion correction           -0.014702933
FINAL SINGLE POINT ENERGY     -1339.877218715570

DIPOLE MOMENT
-------------
                                X             Y             Z
Electronic contribution:    -15.23881      23.56278      15.16846
Nuclear contribution   :     15.56285     -23.98142     -15.57065
                        -----------------------------------------
Total Dipole Moment    :      0.32404      -0.41864      -0.40219
                        -----------------------------------------
Magnitude (a.u.)       :      0.66484
Magnitude (Debye)      :      1.68990

Rotational constants in cm-1:     0.016949     0.010326     0.006780
Rotational constants in MHz :   508.131182   309.559806   203.273660

                             ****ORCA TERMINATED NORMALLY****
TOTAL RUN TIME: 0 days 0 hours 0 minutes 22 seconds 283 msec
