                         Program Version 4.2.1 -  RELEASE  -
|  1> ! wB97X-D3 SP def2-SVP
|  2> %pal
|  3> nprocs 24
|  4> end
|  5>
|  6> * xyz 0 1
|  7> S 	 -33.3665 	 -28.0284 	 -98.8127
|  8> C 	 -32.2751 	 -27.5459 	 -100.068
|  9> C 	 -32.636 	 -28.0991 	 -101.317
| 10> C 	 -33.6041 	 -29.1749 	 -101.138
| 11> C 	 -34.0491 	 -29.3326 	 -99.8731
| 12> H 	 -33.9755 	 -29.7846 	 -102.023
| 13> C 	 -31.8937 	 -27.8689 	 -102.627
| 14> H 	 -31.1582 	 -28.5693 	 -102.904
| 15> H 	 -31.3477 	 -26.9599 	 -102.49
| 16> C 	 -32.8409 	 -27.6454 	 -103.83
| 17> H 	 -33.1505 	 -28.6616 	 -104.086
| 18> H 	 -33.7895 	 -27.1586 	 -103.511
| 19> C 	 -32.2426 	 -27.0281 	 -105.112
| 20> H 	 -31.5556 	 -27.6517 	 -105.63
| 21> H 	 -32.9213 	 -26.8014 	 -105.903
| 22> H 	 -31.7127 	 -26.1353 	 -104.869
| 23> S 	 -36.202 	 -29.6057 	 -98.2623
| 24> C 	 -37.1656 	 -31.108 	 -98.3123
| 25> C 	 -36.5889 	 -32.0348 	 -99.1309
| 26> C 	 -35.4314 	 -31.5464 	 -99.8132
| 27> C 	 -35.1553 	 -30.2512 	 -99.4944
| 28> H 	 -36.977 	 -33.0448 	 -99.2249
| 29> C 	 -34.7033 	 -32.5025 	 -100.633
| 30> H 	 -33.974 	 -31.8623 	 -101.192
| 31> H 	 -35.2889 	 -33.0218 	 -101.342
| 32> C 	 -33.9107 	 -33.5519 	 -99.8554
| 33> H 	 -34.6314 	 -34.3037 	 -99.5468
| 34> H 	 -33.5301 	 -33.0908 	 -98.9385
| 35> C 	 -32.7238 	 -34.2838 	 -100.602
| 36> H 	 -32.644 	 -33.8569 	 -101.544
| 37> H 	 -32.8508 	 -35.321 	 -100.691
| 38> H 	 -31.7558 	 -34.1774 	 -100.12
| 39> H 	 -31.503 	 -26.818 	 -99.9059
| 40> H 	 -37.951 	 -31.3905 	 -97.6912
| 41> *
| 42>
| 43>                          ****END OF INPUT****

CARTESIAN COORDINATES (ANGSTROEM)
---------------------------------
  S    -33.366500  -28.028400  -98.812700
  C    -32.275100  -27.545900  -100.068000
  C    -32.636000  -28.099100  -101.317000
  C    -33.604100  -29.174900  -101.138000
  C    -34.049100  -29.332600  -99.873100
  H    -33.975500  -29.784600  -102.023000
  C    -31.893700  -27.868900  -102.627000
  H    -31.158200  -28.569300  -102.904000
  H    -31.347700  -26.959900  -102.490000
  C    -32.840900  -27.645400  -103.830000
  H    -33.150500  -28.661600  -104.086000
  H    -33.789500  -27.158600  -103.511000
  C    -32.242600  -27.028100  -105.112000
  H    -31.555600  -27.651700  -105.630000
  H    -32.921300  -26.801400  -105.903000
  H    -31.712700  -26.135300  -104.869000
  S    -36.202000  -29.605700  -98.262300
  C    -37.165600  -31.108000  -98.312300
  C    -36.588900  -32.034800  -99.130900
  C    -35.431400  -31.546400  -99.813200
  C    -35.155300  -30.251200  -99.494400
  H    -36.977000  -33.044800  -99.224900
  C    -34.703300  -32.502500  -100.633000
  H    -33.974000  -31.862300  -101.192000
  H    -35.288900  -33.021800  -101.342000
  C    -33.910700  -33.551900  -99.855400
  H    -34.631400  -34.303700  -99.546800
  H    -33.530100  -33.090800  -98.938500
  C    -32.723800  -34.283800  -100.602000
  H    -32.644000  -33.856900  -101.544000
  H    -32.850800  -35.321000  -100.691000
  H    -31.755800  -34.177400  -100.120000
  H    -31.503000  -26.818000  -99.905900
  H    -37.951000  -31.390500  -97.691200

 Total Charge           Charge          ....    0
 Multiplicity           Mult            ....    1
 Number of Electrons    NEL             ....  134
 Basis Dimension        Dim             ....  322

ORBITAL ENERGIES
----------------

  NO   OCC          E(Eh)            E(eV)
   0   2.0000     -88.969083     -2420.9718
   1   2.0000     -88.965093     -2420.8633
   2   2.0000     -10.333807      -281.1972
   3   2.0000     -10.328018      -281.0397
   4   2.0000     -10.319541      -280.8090
   5   2.0000     -10.311369      -280.5866
   6   2.0000     -10.308650      -280.5126
   7   2.0000     -10.299319      -280.2587
   8   2.0000     -10.295142      -280.1451
   9   2.0000     -10.289991      -280.0049
  10   2.0000     -10.289607      -279.9944
  11   2.0000     -10.288458      -279.9632
  12   2.0000     -10.284714      -279.8613
  13   2.0000     -10.284555      -279.8570
  14   2.0000     -10.273470      -279.5553
  15   2.0000     -10.269252      -279.4406
  16   2.0000      -8.083099      -219.9523
  17   2.0000      -8.079622      -219.8577
  18   2.0000      -6.041810      -164.4060
  19   2.0000      -6.038308      -164.3107
  20   2.0000      -6.037845      -164.2981
  21   2.0000      -6.034298      -164.2016
  22   2.0000      -6.033545      -164.1811
  23   2.0000      -6.030077      -164.0867
  24   2.0000      -1.006379       -27.3850
  25   2.0000      -0.982543       -26.7364
  26   2.0000      -0.912250       -24.8236
  27   2.0000      -0.907772       -24.7017
  28   2.0000      -0.870700       -23.6930
  29   2.0000      -0.851740       -23.1770
  30   2.0000      -0.844407       -22.9775
  31   2.0000      -0.820302       -22.3215
  32   2.0000      -0.783550       -21.3215
  33   2.0000      -0.775588       -21.1048
  34   2.0000      -0.711031       -19.3481
  35   2.0000      -0.701346       -19.0846
  36   2.0000      -0.694632       -18.9019
  37   2.0000      -0.665962       -18.1218
  38   2.0000      -0.642848       -17.4928
  39   2.0000      -0.621038       -16.8993
  40   2.0000      -0.600044       -16.3280
  41   2.0000      -0.572372       -15.5750
  42   2.0000      -0.565661       -15.3924
  43   2.0000      -0.556741       -15.1497
  44   2.0000      -0.525744       -14.3062
  45   2.0000      -0.524298       -14.2669
  46   2.0000      -0.513679       -13.9779
  47   2.0000      -0.508016       -13.8238
  48   2.0000      -0.506791       -13.7905
  49   2.0000      -0.501814       -13.6550
  50   2.0000      -0.497953       -13.5500
  51   2.0000      -0.487167       -13.2565
  52   2.0000      -0.469865       -12.7857
  53   2.0000      -0.465751       -12.6737
  54   2.0000      -0.458949       -12.4886
  55   2.0000      -0.454136       -12.3577
  56   2.0000      -0.451119       -12.2756
  57   2.0000      -0.434719       -11.8293
  58   2.0000      -0.432027       -11.7560
  59   2.0000      -0.424810       -11.5597
  60   2.0000      -0.420858       -11.4521
  61   2.0000      -0.414120       -11.2688
  62   2.0000      -0.407508       -11.0889
  63   2.0000      -0.360721        -9.8157
  64   2.0000      -0.334305        -9.0969
  65   2.0000      -0.325450        -8.8560
  66   2.0000      -0.288403        -7.8478
  67   0.0000       0.028149         0.7660
  68   0.0000       0.068035         1.8513
  69   0.0000       0.099555         2.7090
  70   0.0000       0.117510         3.1976
  71   0.0000       0.131264         3.5719

MULLIKEN ATOMIC CHARGES
-----------------------
   0 S :    0.100227
   1 C :   -0.111293
   2 C :   -0.091392
   3 C :   -0.020711
   4 C :   -0.101026
   5 H :    0.054042
   6 C :    0.100561
   7 H :    0.032922
   8 H :    0.000231
   9 C :   -0.126008
  10 H :    0.022370
  11 H :    0.043485
  12 C :   -0.003594
  13 H :    0.014343
  14 H :    0.027738
  15 H :    0.021224
  16 S :    0.085109
  17 C :   -0.050677
  18 C :   -0.038902
  19 C :   -0.066671
  20 C :   -0.138016
  21 H :    0.020863
  22 C :    0.094645
  23 H :    0.006159
  24 H :    0.019644
  25 C :   -0.100988
  26 H :    0.022418
  27 H :    0.038739
  28 C :   -0.000475
  29 H :    0.009940
  30 H :    0.021702
  31 H :    0.033168
  32 H :    0.050485
  33 H :    0.029739
Sum of atomic charges:    0.0000000

LOEWDIN ATOMIC CHARGES
----------------------
   0 S :    0.379869
   1 C :   -0.190220
   2 C :   -0.058656
   3 C :   -0.068835
   4 C :   -0.175423
   5 H :    0.044123
   6 C :   -0.027929
   7 H :    0.026537
   8 H :    0.023153
   9 C :   -0.043106
  10 H :    0.019467
  11 H :    0.029689
  12 C :   -0.062227
  13 H :    0.021905
  14 H :    0.027863
  15 H :    0.021036
  16 S :    0.387796
  17 C :   -0.165373
  18 C :   -0.059616
  19 C :   -0.067370
  20 C :   -0.182337
  21 H :    0.033043
  22 C :   -0.035706
  23 H :    0.030153
  24 H :    0.024935
  25 C :   -0.034691
  26 H :    0.019822
  27 H :    0.027500
  28 C :   -0.056869
  29 H :    0.015869
  30 H :    0.020203
  31 H :    0.031310
  32 H :    0.026237
  33 H :    0.017850

  Mayer bond orders larger than 0.100000
B(  0-S ,  1-C ) :   1.1411 B(  0-S ,  4-C ) :   1.1108 B(  1-C ,  2-C ) :   1.6145
B(  1-C , 32-H ) :   0.9706 B(  2-C ,  3-C ) :   1.2137 B(  2-C ,  6-C ) :   1.0363
B(  3-C ,  4-C ) :   1.6229 B(  3-C ,  5-H ) :   0.9720 B(  4-C , 20-C ) :   1.0333
B(  6-C ,  7-H ) :   0.9456 B(  6-C ,  8-H ) :   0.9375 B(  6-C ,  9-C ) :   1.0441
B(  9-C , 10-H ) :   0.9529 B(  9-C , 11-H ) :   0.9646 B(  9-C , 12-C ) :   1.0841
B( 12-C , 13-H ) :   0.9709 B( 12-C , 14-H ) :   0.9728 B( 12-C , 15-H ) :   0.9764
B( 16-S , 17-C ) :   1.1242 B( 16-S , 20-C ) :   1.1220 B( 17-C , 18-C ) :   1.6514
B( 17-C , 33-H ) :   0.9716 B( 18-C , 19-C ) :   1.2077 B( 18-C , 21-H ) :   0.9878
B( 19-C , 20-C ) :   1.6390 B( 19-C , 22-C ) :   1.0691 B( 22-C , 23-H ) :   0.9186
B( 22-C , 24-H ) :   0.9248 B( 22-C , 25-C ) :   1.0689 B( 25-C , 26-H ) :   0.9579
B( 25-C , 27-H ) :   0.9633 B( 25-C , 28-C ) :   1.0654 B( 28-C , 29-H ) :   0.9787
B( 28-C , 30-H ) :   0.9773 B( 28-C , 31-H ) :   0.9786

Dispersion correction           -0.013444872
FINAL SINGLE POINT ENERGY     -1339.862291741173

DIPOLE MOMENT
-------------
                                X             Y             Z
Electronic contribution:    -12.34550      10.67424      23.80191
Nuclear contribution   :     12.61677     -11.06711     -24.37326
                        -----------------------------------------
Total Dipole Moment    :      0.27127      -0.39287      -0.57134
                        -----------------------------------------
Magnitude (a.u.)       :      0.74456
Magnitude (Debye)      :      1.89251

Rotational constants in cm-1:     0.016926     0.008231     0.006601
Rotational constants in MHz :   507.429185   246.747858   197.902132

                             ****ORCA TERMINATED NORMALLY****
TOTAL RUN TIME: 0 days 0 hours 0 minutes 20 seconds 43 msec
