                         Program Version 4.2.1 -  RELEASE  -
|  1> ! wB97X-D3 SP def2-SVP
|  2> %pal
|  3> nprocs 24
|  4> end
|  5>
|  6> * xyz 0 1
|  7> S 	 -62.951 	 15.0144 	 -88.89
|  8> C 	 -63.7607 	 16.3999 	 -88.1307
|  9> C 	 -64.1192 	 16.1545 	 -86.8591
| 10> C 	 -63.8636 	 14.8056 	 -86.4703
| 11> C 	 -63.2689 	 14.0327 	 -87.4939
| 12> H 	 -64.0156 	 14.3322 	 -85.5666
| 13> C 	 -64.7069 	 17.2317 	 -85.9265
| 14> H 	 -64.4138 	 18.2029 	 -86.4661
| 15> H 	 -64.2701 	 17.0888 	 -84.9341
| 16> C 	 -66.2041 	 17.1097 	 -85.6165
| 17> H 	 -66.4288 	 16.1297 	 -85.2112
| 18> H 	 -66.4626 	 17.6984 	 -84.8415
| 19> C 	 -67.1335 	 17.32 	 -86.8637
| 20> H 	 -68.1211 	 16.8375 	 -86.6015
| 21> H 	 -67.1809 	 18.3213 	 -87.1971
| 22> H 	 -66.8642 	 16.7184 	 -87.7807
| 23> S 	 -64.0322 	 11.2955 	 -87.5741
| 24> C 	 -62.7988 	 10.1606 	 -87.8907
| 25> C 	 -61.5413 	 10.667 	 -87.6839
| 26> C 	 -61.5896 	 12.1154 	 -87.5391
| 27> C 	 -62.8482 	 12.652 	 -87.4102
| 28> H 	 -60.7346 	 10.0166 	 -87.7471
| 29> C 	 -60.2954 	 12.9148 	 -87.4182
| 30> H 	 -60.4654 	 13.9172 	 -87.8026
| 31> H 	 -59.6028 	 12.4269 	 -88.0344
| 32> C 	 -59.7274 	 13.0532 	 -86.0181
| 33> H 	 -59.6486 	 11.9338 	 -85.73
| 34> H 	 -60.5255 	 13.3955 	 -85.3012
| 35> C 	 -58.3395 	 13.7496 	 -85.8982
| 36> H 	 -58.5399 	 14.72 	 -86.2712
| 37> H 	 -57.5602 	 13.2444 	 -86.4942
| 38> H 	 -57.9597 	 13.7703 	 -84.8239
| 39> H 	 -63.832 	 17.2864 	 -88.6491
| 40> H 	 -62.8822 	 9.08294 	 -87.8328
| 41> *
| 42>
| 43>                          ****END OF INPUT****

CARTESIAN COORDINATES (ANGSTROEM)
---------------------------------
  S    -62.951000   15.014400  -88.890000
  C    -63.760700   16.399900  -88.130700
  C    -64.119200   16.154500  -86.859100
  C    -63.863600   14.805600  -86.470300
  C    -63.268900   14.032700  -87.493900
  H    -64.015600   14.332200  -85.566600
  C    -64.706900   17.231700  -85.926500
  H    -64.413800   18.202900  -86.466100
  H    -64.270100   17.088800  -84.934100
  C    -66.204100   17.109700  -85.616500
  H    -66.428800   16.129700  -85.211200
  H    -66.462600   17.698400  -84.841500
  C    -67.133500   17.320000  -86.863700
  H    -68.121100   16.837500  -86.601500
  H    -67.180900   18.321300  -87.197100
  H    -66.864200   16.718400  -87.780700
  S    -64.032200   11.295500  -87.574100
  C    -62.798800   10.160600  -87.890700
  C    -61.541300   10.667000  -87.683900
  C    -61.589600   12.115400  -87.539100
  C    -62.848200   12.652000  -87.410200
  H    -60.734600   10.016600  -87.747100
  C    -60.295400   12.914800  -87.418200
  H    -60.465400   13.917200  -87.802600
  H    -59.602800   12.426900  -88.034400
  C    -59.727400   13.053200  -86.018100
  H    -59.648600   11.933800  -85.730000
  H    -60.525500   13.395500  -85.301200
  C    -58.339500   13.749600  -85.898200
  H    -58.539900   14.720000  -86.271200
  H    -57.560200   13.244400  -86.494200
  H    -57.959700   13.770300  -84.823900
  H    -63.832000   17.286400  -88.649100
  H    -62.882200    9.082940  -87.832800

 Total Charge           Charge          ....    0
 Multiplicity           Mult            ....    1
 Number of Electrons    NEL             ....  134
 Basis Dimension        Dim             ....  322

ORBITAL ENERGIES
----------------

  NO   OCC          E(Eh)            E(eV)
   0   2.0000     -88.966150     -2420.8920
   1   2.0000     -88.962399     -2420.7899
   2   2.0000     -10.330301      -281.1018
   3   2.0000     -10.326251      -280.9916
   4   2.0000     -10.313883      -280.6550
   5   2.0000     -10.308279      -280.5025
   6   2.0000     -10.305843      -280.4362
   7   2.0000     -10.301506      -280.3182
   8   2.0000     -10.300481      -280.2903
   9   2.0000     -10.292720      -280.0791
  10   2.0000     -10.291723      -280.0520
  11   2.0000     -10.290153      -280.0093
  12   2.0000     -10.284485      -279.8551
  13   2.0000     -10.281571      -279.7758
  14   2.0000     -10.281496      -279.7737
  15   2.0000     -10.280116      -279.7362
  16   2.0000      -8.080591      -219.8841
  17   2.0000      -8.077347      -219.7958
  18   2.0000      -6.039017      -164.3300
  19   2.0000      -6.035974      -164.2472
  20   2.0000      -6.035163      -164.2251
  21   2.0000      -6.031796      -164.1335
  22   2.0000      -6.031420      -164.1233
  23   2.0000      -6.027974      -164.0295
  24   2.0000      -1.005598       -27.3637
  25   2.0000      -0.985084       -26.8055
  26   2.0000      -0.910721       -24.7820
  27   2.0000      -0.905818       -24.6486
  28   2.0000      -0.871941       -23.7267
  29   2.0000      -0.845534       -23.0081
  30   2.0000      -0.843245       -22.9459
  31   2.0000      -0.816405       -22.2155
  32   2.0000      -0.783751       -21.3269
  33   2.0000      -0.774631       -21.0788
  34   2.0000      -0.713600       -19.4180
  35   2.0000      -0.701293       -19.0832
  36   2.0000      -0.686899       -18.6915
  37   2.0000      -0.663153       -18.0453
  38   2.0000      -0.651032       -17.7155
  39   2.0000      -0.614605       -16.7243
  40   2.0000      -0.591120       -16.0852
  41   2.0000      -0.573421       -15.6036
  42   2.0000      -0.561054       -15.2670
  43   2.0000      -0.548960       -14.9380
  44   2.0000      -0.542564       -14.7639
  45   2.0000      -0.526604       -14.3296
  46   2.0000      -0.516921       -14.0661
  47   2.0000      -0.515855       -14.0371
  48   2.0000      -0.505733       -13.7617
  49   2.0000      -0.500398       -13.6165
  50   2.0000      -0.489906       -13.3310
  51   2.0000      -0.481916       -13.1136
  52   2.0000      -0.467478       -12.7207
  53   2.0000      -0.463818       -12.6211
  54   2.0000      -0.459159       -12.4944
  55   2.0000      -0.450220       -12.2511
  56   2.0000      -0.447680       -12.1820
  57   2.0000      -0.435424       -11.8485
  58   2.0000      -0.432141       -11.7591
  59   2.0000      -0.420721       -11.4484
  60   2.0000      -0.416677       -11.3383
  61   2.0000      -0.414116       -11.2687
  62   2.0000      -0.400959       -10.9107
  63   2.0000      -0.337192        -9.1755
  64   2.0000      -0.332420        -9.0456
  65   2.0000      -0.328023        -8.9260
  66   2.0000      -0.305077        -8.3016
  67   0.0000       0.036316         0.9882
  68   0.0000       0.057296         1.5591
  69   0.0000       0.106982         2.9111
  70   0.0000       0.120171         3.2700
  71   0.0000       0.127759         3.4765

MULLIKEN ATOMIC CHARGES
-----------------------
   0 S :    0.116710
   1 C :   -0.122119
   2 C :   -0.034056
   3 C :    0.054766
   4 C :   -0.172452
   5 H :   -0.021294
   6 C :    0.053784
   7 H :    0.038146
   8 H :    0.030727
   9 C :   -0.010516
  10 H :    0.016435
  11 H :    0.005534
  12 C :   -0.087604
  13 H :    0.038710
  14 H :    0.031703
  15 H :    0.043258
  16 S :    0.100025
  17 C :   -0.070130
  18 C :   -0.025496
  19 C :   -0.076326
  20 C :   -0.143716
  21 H :   -0.001488
  22 C :    0.120330
  23 H :    0.011055
  24 H :    0.002714
  25 C :   -0.122210
  26 H :    0.016043
  27 H :    0.038508
  28 C :   -0.028454
  29 H :    0.032088
  30 H :    0.037191
  31 H :    0.052019
  32 H :    0.016821
  33 H :    0.059292
Sum of atomic charges:   -0.0000000

LOEWDIN ATOMIC CHARGES
----------------------
   0 S :    0.408965
   1 C :   -0.172908
   2 C :   -0.062330
   3 C :   -0.048263
   4 C :   -0.194419
   5 H :    0.017590
   6 C :   -0.027057
   7 H :    0.038169
   8 H :    0.034578
   9 C :   -0.033172
  10 H :    0.026202
  11 H :    0.009836
  12 C :   -0.072835
  13 H :    0.033703
  14 H :    0.015892
  15 H :    0.032938
  16 S :    0.396223
  17 C :   -0.191286
  18 C :   -0.066892
  19 C :   -0.042412
  20 C :   -0.196376
  21 H :    0.020870
  22 C :   -0.031709
  23 H :    0.018166
  24 H :    0.020311
  25 C :   -0.050809
  26 H :    0.022799
  27 H :    0.028949
  28 C :   -0.065313
  29 H :    0.020727
  30 H :    0.028560
  31 H :    0.038235
  32 H :    0.009901
  33 H :    0.033166

  Mayer bond orders larger than 0.100000
B(  0-S ,  1-C ) :   1.1342 B(  0-S ,  4-C ) :   1.1538 B(  1-C ,  2-C ) :   1.6179
B(  1-C , 32-H ) :   0.9814 B(  2-C ,  3-C ) :   1.2152 B(  2-C ,  6-C ) :   1.0133
B(  3-C ,  4-C ) :   1.5733 B(  3-C ,  5-H ) :   1.0072 B(  4-C , 20-C ) :   1.0466
B(  6-C ,  7-H ) :   0.9477 B(  6-C ,  8-H ) :   0.9357 B(  6-C ,  9-C ) :   1.0762
B(  9-C , 10-H ) :   0.9528 B(  9-C , 11-H ) :   0.9548 B(  9-C , 12-C ) :   1.0635
B( 12-C , 13-H ) :   0.9760 B( 12-C , 14-H ) :   0.9801 B( 12-C , 15-H ) :   0.9769
B( 16-S , 17-C ) :   1.1723 B( 16-S , 20-C ) :   1.1049 B( 17-C , 18-C ) :   1.6333
B( 17-C , 33-H ) :   0.9533 B( 18-C , 19-C ) :   1.2118 B( 18-C , 21-H ) :   0.9990
B( 19-C , 20-C ) :   1.6199 B( 19-C , 22-C ) :   1.0531 B( 22-C , 23-H ) :   0.9199
B( 22-C , 24-H ) :   0.9259 B( 22-C , 25-C ) :   1.0669 B( 25-C , 26-H ) :   0.9539
B( 25-C , 27-H ) :   0.9556 B( 25-C , 28-C ) :   1.0630 B( 28-C , 29-H ) :   0.9769
B( 28-C , 30-H ) :   0.9739 B( 28-C , 31-H ) :   0.9741

Dispersion correction           -0.014418362
FINAL SINGLE POINT ENERGY     -1339.860271595440

DIPOLE MOMENT
-------------
                                X             Y             Z
Electronic contribution:     -4.36720     -13.02871     -11.95352
Nuclear contribution   :      4.60155      13.20291      12.33568
                        -----------------------------------------
Total Dipole Moment    :      0.23435       0.17420       0.38216
                        -----------------------------------------
Magnitude (a.u.)       :      0.48095
Magnitude (Debye)      :      1.22247

Rotational constants in cm-1:     0.019516     0.008123     0.006712
Rotational constants in MHz :   585.063292   243.527511   201.233555

                             ****ORCA TERMINATED NORMALLY****
TOTAL RUN TIME: 0 days 0 hours 0 minutes 21 seconds 490 msec
