                         Program Version 4.2.1 -  RELEASE  -
|  1> ! wB97X-D3 SP def2-SVP
|  2> %pal
|  3> nprocs 24
|  4> end
|  5>
|  6> * xyz 0 1
|  7> S 	 44.788 	 -16.7031 	 -106.567
|  8> C 	 43.9991 	 -17.2226 	 -108.033
|  9> C 	 44.198 	 -16.3391 	 -109.089
| 10> C 	 44.8702 	 -15.2113 	 -108.673
| 11> C 	 45.2427 	 -15.1712 	 -107.379
| 12> H 	 45.0563 	 -14.2661 	 -109.203
| 13> C 	 43.8212 	 -16.549 	 -110.534
| 14> H 	 42.9566 	 -17.1868 	 -110.552
| 15> H 	 44.4516 	 -17.1269 	 -111.134
| 16> C 	 43.3969 	 -15.3057 	 -111.334
| 17> H 	 42.716 	 -14.5974 	 -110.796
| 18> H 	 44.2735 	 -14.7121 	 -111.431
| 19> C 	 42.7601 	 -15.6744 	 -112.661
| 20> H 	 41.9179 	 -16.2991 	 -112.456
| 21> H 	 42.3591 	 -14.7838 	 -113.188
| 22> H 	 43.4017 	 -16.2207 	 -113.329
| 23> S 	 44.7437 	 -13.4553 	 -105.452
| 24> C 	 45.8461 	 -12.116 	 -105.139
| 25> C 	 46.8981 	 -12.1265 	 -105.988
| 26> C 	 46.8671 	 -13.2092 	 -106.939
| 27> C 	 45.7664 	 -14.0684 	 -106.668
| 28> H 	 47.649 	 -11.3285 	 -106.027
| 29> C 	 48.0237 	 -13.3821 	 -107.847
| 30> H 	 48.3573 	 -14.4458 	 -107.775
| 31> H 	 48.8431 	 -12.8295 	 -107.412
| 32> C 	 47.889 	 -12.8609 	 -109.278
| 33> H 	 47.6658 	 -13.6641 	 -109.951
| 34> H 	 48.9142 	 -12.407 	 -109.447
| 35> C 	 46.8633 	 -11.78 	 -109.504
| 36> H 	 45.9063 	 -12.0892 	 -109.097
| 37> H 	 46.5673 	 -11.6269 	 -110.559
| 38> H 	 47.2728 	 -10.8067 	 -109.196
| 39> H 	 43.5293 	 -18.2041 	 -108.099
| 40> H 	 45.5708 	 -11.2351 	 -104.609
| 41> *
| 42>
| 43>                          ****END OF INPUT****

CARTESIAN COORDINATES (ANGSTROEM)
---------------------------------
  S     44.788000  -16.703100  -106.567000
  C     43.999100  -17.222600  -108.033000
  C     44.198000  -16.339100  -109.089000
  C     44.870200  -15.211300  -108.673000
  C     45.242700  -15.171200  -107.379000
  H     45.056300  -14.266100  -109.203000
  C     43.821200  -16.549000  -110.534000
  H     42.956600  -17.186800  -110.552000
  H     44.451600  -17.126900  -111.134000
  C     43.396900  -15.305700  -111.334000
  H     42.716000  -14.597400  -110.796000
  H     44.273500  -14.712100  -111.431000
  C     42.760100  -15.674400  -112.661000
  H     41.917900  -16.299100  -112.456000
  H     42.359100  -14.783800  -113.188000
  H     43.401700  -16.220700  -113.329000
  S     44.743700  -13.455300  -105.452000
  C     45.846100  -12.116000  -105.139000
  C     46.898100  -12.126500  -105.988000
  C     46.867100  -13.209200  -106.939000
  C     45.766400  -14.068400  -106.668000
  H     47.649000  -11.328500  -106.027000
  C     48.023700  -13.382100  -107.847000
  H     48.357300  -14.445800  -107.775000
  H     48.843100  -12.829500  -107.412000
  C     47.889000  -12.860900  -109.278000
  H     47.665800  -13.664100  -109.951000
  H     48.914200  -12.407000  -109.447000
  C     46.863300  -11.780000  -109.504000
  H     45.906300  -12.089200  -109.097000
  H     46.567300  -11.626900  -110.559000
  H     47.272800  -10.806700  -109.196000
  H     43.529300  -18.204100  -108.099000
  H     45.570800  -11.235100  -104.609000

 Total Charge           Charge          ....    0
 Multiplicity           Mult            ....    1
 Number of Electrons    NEL             ....  134
 Basis Dimension        Dim             ....  322

ORBITAL ENERGIES
----------------

  NO   OCC          E(Eh)            E(eV)
   0   2.0000     -88.965622     -2420.8777
   1   2.0000     -88.964575     -2420.8492
   2   2.0000     -10.321571      -280.8642
   3   2.0000     -10.321183      -280.8537
   4   2.0000     -10.315363      -280.6953
   5   2.0000     -10.309678      -280.5406
   6   2.0000     -10.301967      -280.3308
   7   2.0000     -10.299089      -280.2525
   8   2.0000     -10.291291      -280.0403
   9   2.0000     -10.287375      -279.9337
  10   2.0000     -10.285979      -279.8957
  11   2.0000     -10.285463      -279.8817
  12   2.0000     -10.285446      -279.8812
  13   2.0000     -10.285124      -279.8725
  14   2.0000     -10.277584      -279.6673
  15   2.0000     -10.277220      -279.6574
  16   2.0000      -8.080057      -219.8695
  17   2.0000      -8.079969      -219.8671
  18   2.0000      -6.038509      -164.3162
  19   2.0000      -6.038322      -164.3111
  20   2.0000      -6.034634      -164.2107
  21   2.0000      -6.034386      -164.2040
  22   2.0000      -6.030874      -164.1084
  23   2.0000      -6.030828      -164.1072
  24   2.0000      -1.012586       -27.5539
  25   2.0000      -0.986713       -26.8498
  26   2.0000      -0.916895       -24.9500
  27   2.0000      -0.913691       -24.8628
  28   2.0000      -0.877856       -23.8877
  29   2.0000      -0.853258       -23.2183
  30   2.0000      -0.848569       -23.0907
  31   2.0000      -0.818850       -22.2820
  32   2.0000      -0.785543       -21.3757
  33   2.0000      -0.772025       -21.0079
  34   2.0000      -0.716582       -19.4992
  35   2.0000      -0.699312       -19.0293
  36   2.0000      -0.684590       -18.6286
  37   2.0000      -0.664892       -18.0926
  38   2.0000      -0.649797       -17.6819
  39   2.0000      -0.622599       -16.9418
  40   2.0000      -0.589704       -16.0466
  41   2.0000      -0.574025       -15.6200
  42   2.0000      -0.571061       -15.5394
  43   2.0000      -0.560766       -15.2592
  44   2.0000      -0.543675       -14.7941
  45   2.0000      -0.526759       -14.3338
  46   2.0000      -0.515037       -14.0149
  47   2.0000      -0.508901       -13.8479
  48   2.0000      -0.502855       -13.6834
  49   2.0000      -0.499832       -13.6011
  50   2.0000      -0.493465       -13.4279
  51   2.0000      -0.481302       -13.0969
  52   2.0000      -0.474059       -12.8998
  53   2.0000      -0.468055       -12.7364
  54   2.0000      -0.456483       -12.4215
  55   2.0000      -0.450420       -12.2566
  56   2.0000      -0.444415       -12.0931
  57   2.0000      -0.439793       -11.9674
  58   2.0000      -0.437148       -11.8954
  59   2.0000      -0.428206       -11.6521
  60   2.0000      -0.413911       -11.2631
  61   2.0000      -0.413725       -11.2580
  62   2.0000      -0.408018       -11.1027
  63   2.0000      -0.352571        -9.5939
  64   2.0000      -0.332361        -9.0440
  65   2.0000      -0.325703        -8.8628
  66   2.0000      -0.290175        -7.8961
  67   0.0000       0.030647         0.8339
  68   0.0000       0.064780         1.7627
  69   0.0000       0.114589         3.1181
  70   0.0000       0.116685         3.1752
  71   0.0000       0.122800         3.3416

MULLIKEN ATOMIC CHARGES
-----------------------
   0 S :    0.108804
   1 C :   -0.138586
   2 C :   -0.028376
   3 C :    0.021021
   4 C :   -0.167463
   5 H :    0.002688
   6 C :    0.104205
   7 H :   -0.005455
   8 H :    0.021249
   9 C :   -0.112812
  10 H :    0.035426
  11 H :    0.023710
  12 C :   -0.025164
  13 H :    0.021708
  14 H :    0.038925
  15 H :    0.027457
  16 S :    0.115689
  17 C :   -0.073266
  18 C :   -0.036133
  19 C :   -0.081996
  20 C :   -0.159411
  21 H :    0.023082
  22 C :    0.090833
  23 H :    0.046941
  24 H :    0.008134
  25 C :   -0.085052
  26 H :    0.031476
  27 H :    0.033792
  28 C :   -0.046808
  29 H :    0.043265
  30 H :    0.027841
  31 H :    0.033112
  32 H :    0.051267
  33 H :    0.049896
Sum of atomic charges:    0.0000000

LOEWDIN ATOMIC CHARGES
----------------------
   0 S :    0.389172
   1 C :   -0.191208
   2 C :   -0.064305
   3 C :   -0.065535
   4 C :   -0.187139
   5 H :    0.036057
   6 C :   -0.028011
   7 H :    0.026697
   8 H :    0.026249
   9 C :   -0.043095
  10 H :    0.029999
  11 H :    0.013700
  12 C :   -0.060868
  13 H :    0.022237
  14 H :    0.033071
  15 H :    0.021766
  16 S :    0.430173
  17 C :   -0.185680
  18 C :   -0.066698
  19 C :   -0.056986
  20 C :   -0.217269
  21 H :    0.032810
  22 C :   -0.039680
  23 H :    0.043652
  24 H :    0.029416
  25 C :   -0.044555
  26 H :    0.020115
  27 H :    0.033797
  28 C :   -0.071876
  29 H :    0.022974
  30 H :    0.029624
  31 H :    0.027424
  32 H :    0.028293
  33 H :    0.025680

  Mayer bond orders larger than 0.100000
B(  0-S ,  1-C ) :   1.1499 B(  0-S ,  4-C ) :   1.1290 B(  1-C ,  2-C ) :   1.5968
B(  1-C ,  4-C ) :   0.1021 B(  1-C , 32-H ) :   0.9682 B(  2-C ,  3-C ) :   1.2488
B(  2-C ,  6-C ) :   1.0100 B(  3-C ,  4-C ) :   1.6132 B(  3-C ,  5-H ) :   0.9813
B(  4-C , 20-C ) :   1.0404 B(  6-C ,  7-H ) :   0.9339 B(  6-C ,  8-H ) :   0.9342
B(  6-C ,  9-C ) :   1.0583 B(  9-C , 10-H ) :   0.9608 B(  9-C , 11-H ) :   0.9465
B(  9-C , 12-C ) :   1.0880 B( 12-C , 13-H ) :   0.9734 B( 12-C , 14-H ) :   0.9716
B( 12-C , 15-H ) :   0.9737 B( 16-S , 17-C ) :   1.1429 B( 16-S , 20-C ) :   1.1712
B( 17-C , 18-C ) :   1.6196 B( 17-C , 33-H ) :   0.9666 B( 18-C , 19-C ) :   1.2550
B( 18-C , 21-H ) :   0.9795 B( 19-C , 20-C ) :   1.5448 B( 19-C , 22-C ) :   1.0571
B( 22-C , 23-H ) :   0.9363 B( 22-C , 24-H ) :   0.9346 B( 22-C , 25-C ) :   1.0409
B( 25-C , 26-H ) :   0.9540 B( 25-C , 27-H ) :   0.9609 B( 25-C , 28-C ) :   1.1134
B( 28-C , 29-H ) :   0.9543 B( 28-C , 30-H ) :   0.9727 B( 28-C , 31-H ) :   0.9723

Dispersion correction           -0.015084503
FINAL SINGLE POINT ENERGY     -1339.869045939282

DIPOLE MOMENT
-------------
                                X             Y             Z
Electronic contribution:     -2.15417      -6.89093      28.65756
Nuclear contribution   :      2.27137       7.16944     -29.32920
                        -----------------------------------------
Total Dipole Moment    :      0.11720       0.27851      -0.67164
                        -----------------------------------------
Magnitude (a.u.)       :      0.73648
Magnitude (Debye)      :      1.87199

Rotational constants in cm-1:     0.018033     0.009613     0.007317
Rotational constants in MHz :   540.614943   288.202681   219.348069

                             ****ORCA TERMINATED NORMALLY****
TOTAL RUN TIME: 0 days 0 hours 0 minutes 21 seconds 298 msec
