                         Program Version 4.2.1 -  RELEASE  -
|  1> ! wB97X-D3 SP def2-SVP
|  2> %pal
|  3> nprocs 24
|  4> end
|  5>
|  6> * xyz 0 1
|  7> S 	 27.0759 	 -24.8324 	 -122.077
|  8> C 	 27.5991 	 -24.4925 	 -123.724
|  9> C 	 26.6979 	 -24.9654 	 -124.648
| 10> C 	 25.5757 	 -25.5257 	 -124.016
| 11> C 	 25.6099 	 -25.5103 	 -122.615
| 12> H 	 24.6549 	 -25.9809 	 -124.422
| 13> C 	 26.8859 	 -24.9676 	 -126.162
| 14> H 	 27.168 	 -23.8971 	 -126.385
| 15> H 	 25.9299 	 -25.1938 	 -126.586
| 16> C 	 27.8832 	 -25.9359 	 -126.731
| 17> H 	 28.8368 	 -25.8979 	 -126.125
| 18> H 	 27.5835 	 -27.0205 	 -126.59
| 19> C 	 28.2292 	 -25.6679 	 -128.226
| 20> H 	 28.915 	 -24.8078 	 -128.267
| 21> H 	 28.7138 	 -26.6056 	 -128.598
| 22> H 	 27.3928 	 -25.371 	 -128.831
| 23> S 	 25.0068 	 -27.1843 	 -120.598
| 24> C 	 23.5635 	 -26.9875 	 -119.726
| 25> C 	 22.6238 	 -26.2926 	 -120.518
| 26> C 	 23.1767 	 -25.6098 	 -121.634
| 27> C 	 24.5192 	 -25.9148 	 -121.739
| 28> H 	 21.5928 	 -26.1836 	 -120.331
| 29> C 	 22.4457 	 -24.589 	 -122.48
| 30> H 	 21.4386 	 -24.8959 	 -122.814
| 31> H 	 23.0736 	 -24.4188 	 -123.279
| 32> C 	 22.4344 	 -23.1872 	 -121.69
| 33> H 	 22.148 	 -23.3734 	 -120.632
| 34> H 	 21.6793 	 -22.5786 	 -122.224
| 35> C 	 23.7837 	 -22.3488 	 -121.74
| 36> H 	 23.8823 	 -21.5156 	 -121.096
| 37> H 	 24.1715 	 -22.0556 	 -122.782
| 38> H 	 24.6766 	 -22.8319 	 -121.457
| 39> H 	 28.5468 	 -23.9769 	 -123.855
| 40> H 	 23.2516 	 -27.6808 	 -118.956
| 41> *
| 42>
| 43>                          ****END OF INPUT****

CARTESIAN COORDINATES (ANGSTROEM)
---------------------------------
  S     27.075900  -24.832400  -122.077000
  C     27.599100  -24.492500  -123.724000
  C     26.697900  -24.965400  -124.648000
  C     25.575700  -25.525700  -124.016000
  C     25.609900  -25.510300  -122.615000
  H     24.654900  -25.980900  -124.422000
  C     26.885900  -24.967600  -126.162000
  H     27.168000  -23.897100  -126.385000
  H     25.929900  -25.193800  -126.586000
  C     27.883200  -25.935900  -126.731000
  H     28.836800  -25.897900  -126.125000
  H     27.583500  -27.020500  -126.590000
  C     28.229200  -25.667900  -128.226000
  H     28.915000  -24.807800  -128.267000
  H     28.713800  -26.605600  -128.598000
  H     27.392800  -25.371000  -128.831000
  S     25.006800  -27.184300  -120.598000
  C     23.563500  -26.987500  -119.726000
  C     22.623800  -26.292600  -120.518000
  C     23.176700  -25.609800  -121.634000
  C     24.519200  -25.914800  -121.739000
  H     21.592800  -26.183600  -120.331000
  C     22.445700  -24.589000  -122.480000
  H     21.438600  -24.895900  -122.814000
  H     23.073600  -24.418800  -123.279000
  C     22.434400  -23.187200  -121.690000
  H     22.148000  -23.373400  -120.632000
  H     21.679300  -22.578600  -122.224000
  C     23.783700  -22.348800  -121.740000
  H     23.882300  -21.515600  -121.096000
  H     24.171500  -22.055600  -122.782000
  H     24.676600  -22.831900  -121.457000
  H     28.546800  -23.976900  -123.855000
  H     23.251600  -27.680800  -118.956000

 Total Charge           Charge          ....    0
 Multiplicity           Mult            ....    1
 Number of Electrons    NEL             ....  134
 Basis Dimension        Dim             ....  322

ORBITAL ENERGIES
----------------

  NO   OCC          E(Eh)            E(eV)
   0   2.0000     -88.967624     -2420.9321
   1   2.0000     -88.963063     -2420.8080
   2   2.0000     -10.324550      -280.9453
   3   2.0000     -10.324102      -280.9331
   4   2.0000     -10.315112      -280.6885
   5   2.0000     -10.314192      -280.6634
   6   2.0000     -10.302427      -280.3433
   7   2.0000     -10.301822      -280.3268
   8   2.0000     -10.299516      -280.2641
   9   2.0000     -10.294749      -280.1344
  10   2.0000     -10.293827      -280.1093
  11   2.0000     -10.293553      -280.1018
  12   2.0000     -10.292872      -280.0833
  13   2.0000     -10.290875      -280.0290
  14   2.0000     -10.283785      -279.8360
  15   2.0000     -10.272957      -279.5414
  16   2.0000      -8.082643      -219.9399
  17   2.0000      -8.078590      -219.8296
  18   2.0000      -6.040936      -164.3822
  19   2.0000      -6.036926      -164.2731
  20   2.0000      -6.036861      -164.2713
  21   2.0000      -6.033787      -164.1877
  22   2.0000      -6.033152      -164.1704
  23   2.0000      -6.029383      -164.0679
  24   2.0000      -1.011167       -27.5153
  25   2.0000      -0.988433       -26.8966
  26   2.0000      -0.913121       -24.8473
  27   2.0000      -0.902157       -24.5489
  28   2.0000      -0.866969       -23.5914
  29   2.0000      -0.849162       -23.1069
  30   2.0000      -0.841838       -22.9076
  31   2.0000      -0.806726       -21.9521
  32   2.0000      -0.786374       -21.3983
  33   2.0000      -0.775032       -21.0897
  34   2.0000      -0.705775       -19.2051
  35   2.0000      -0.698756       -19.0141
  36   2.0000      -0.693406       -18.8685
  37   2.0000      -0.665028       -18.0963
  38   2.0000      -0.647395       -17.6165
  39   2.0000      -0.613082       -16.6828
  40   2.0000      -0.596325       -16.2268
  41   2.0000      -0.570888       -15.5346
  42   2.0000      -0.555259       -15.1094
  43   2.0000      -0.547093       -14.8871
  44   2.0000      -0.536364       -14.5952
  45   2.0000      -0.524818       -14.2810
  46   2.0000      -0.516557       -14.0562
  47   2.0000      -0.508448       -13.8356
  48   2.0000      -0.502242       -13.6667
  49   2.0000      -0.494942       -13.4681
  50   2.0000      -0.489873       -13.3301
  51   2.0000      -0.475086       -12.9277
  52   2.0000      -0.472292       -12.8517
  53   2.0000      -0.462031       -12.5725
  54   2.0000      -0.460585       -12.5332
  55   2.0000      -0.447883       -12.1875
  56   2.0000      -0.445989       -12.1360
  57   2.0000      -0.439417       -11.9571
  58   2.0000      -0.431551       -11.7431
  59   2.0000      -0.425995       -11.5919
  60   2.0000      -0.420378       -11.4391
  61   2.0000      -0.412879       -11.2350
  62   2.0000      -0.410667       -11.1748
  63   2.0000      -0.340721        -9.2715
  64   2.0000      -0.335263        -9.1230
  65   2.0000      -0.326128        -8.8744
  66   2.0000      -0.292844        -7.9687
  67   0.0000       0.029714         0.8086
  68   0.0000       0.064244         1.7482
  69   0.0000       0.106315         2.8930
  70   0.0000       0.121331         3.3016
  71   0.0000       0.136554         3.7158

MULLIKEN ATOMIC CHARGES
-----------------------
   0 S :    0.124681
   1 C :   -0.161357
   2 C :   -0.048767
   3 C :    0.021686
   4 C :   -0.172503
   5 H :    0.021949
   6 C :    0.090587
   7 H :    0.037843
   8 H :    0.013666
   9 C :   -0.108481
  10 H :    0.031690
  11 H :    0.037476
  12 C :   -0.047804
  13 H :    0.033573
  14 H :    0.049359
  15 H :    0.031115
  16 S :    0.107973
  17 C :   -0.066558
  18 C :   -0.045870
  19 C :   -0.042720
  20 C :   -0.201874
  21 H :   -0.002190
  22 C :    0.132819
  23 H :    0.039429
  24 H :   -0.011036
  25 C :   -0.078071
  26 H :    0.044081
  27 H :    0.041706
  28 C :   -0.048401
  29 H :    0.024988
  30 H :    0.031430
  31 H :    0.002621
  32 H :    0.053776
  33 H :    0.063182
Sum of atomic charges:    0.0000000

LOEWDIN ATOMIC CHARGES
----------------------
   0 S :    0.432642
   1 C :   -0.194546
   2 C :   -0.065421
   3 C :   -0.072207
   4 C :   -0.222671
   5 H :    0.035732
   6 C :   -0.032430
   7 H :    0.039233
   8 H :    0.026178
   9 C :   -0.050883
  10 H :    0.026992
  11 H :    0.029139
  12 C :   -0.066250
  13 H :    0.026635
  14 H :    0.035255
  15 H :    0.020809
  16 S :    0.419849
  17 C :   -0.205465
  18 C :   -0.064595
  19 C :   -0.054350
  20 C :   -0.189151
  21 H :    0.019835
  22 C :   -0.019902
  23 H :    0.036119
  24 H :    0.017227
  25 C :   -0.028166
  26 H :    0.027548
  27 H :    0.026266
  28 C :   -0.082643
  29 H :    0.023377
  30 H :    0.035435
  31 H :    0.015145
  32 H :    0.026945
  33 H :    0.028317

  Mayer bond orders larger than 0.100000
B(  0-S ,  1-C ) :   1.1548 B(  0-S ,  4-C ) :   1.1811 B(  1-C ,  2-C ) :   1.5594
B(  1-C ,  4-C ) :   0.1046 B(  1-C , 32-H ) :   0.9783 B(  2-C ,  3-C ) :   1.2696
B(  2-C ,  6-C ) :   1.0080 B(  3-C ,  4-C ) :   1.5452 B(  3-C ,  5-H ) :   0.9894
B(  4-C , 20-C ) :   1.0107 B(  6-C ,  7-H ) :   0.9408 B(  6-C ,  8-H ) :   0.9336
B(  6-C ,  9-C ) :   1.0691 B(  9-C , 10-H ) :   0.9579 B(  9-C , 11-H ) :   0.9561
B(  9-C , 12-C ) :   1.0655 B( 12-C , 13-H ) :   0.9768 B( 12-C , 14-H ) :   0.9760
B( 12-C , 15-H ) :   0.9774 B( 16-S , 17-C ) :   1.1681 B( 16-S , 20-C ) :   1.1681
B( 17-C , 18-C ) :   1.5656 B( 17-C , 20-C ) :   0.1081 B( 17-C , 33-H ) :   0.9668
B( 18-C , 19-C ) :   1.2615 B( 18-C , 21-H ) :   0.9884 B( 19-C , 20-C ) :   1.5867
B( 19-C , 22-C ) :   1.0509 B( 22-C , 23-H ) :   0.9376 B( 22-C , 24-H ) :   0.9218
B( 22-C , 25-C ) :   1.0518 B( 25-C , 26-H ) :   0.9626 B( 25-C , 27-H ) :   0.9601
B( 25-C , 28-C ) :   1.0622 B( 28-C , 29-H ) :   0.9748 B( 28-C , 30-H ) :   0.9727
B( 28-C , 31-H ) :   0.9684

Dispersion correction           -0.015118446
FINAL SINGLE POINT ENERGY     -1339.865254650255

DIPOLE MOMENT
-------------
                                X             Y             Z
Electronic contribution:      1.97576     -10.88303      20.54261
Nuclear contribution   :     -2.19523      10.98781     -21.05324
                        -----------------------------------------
Total Dipole Moment    :     -0.21947       0.10478      -0.51062
                        -----------------------------------------
Magnitude (a.u.)       :      0.56558
Magnitude (Debye)      :      1.43759

Rotational constants in cm-1:     0.022410     0.007649     0.006923
Rotational constants in MHz :   671.823514   229.306148   207.534879

                             ****ORCA TERMINATED NORMALLY****
TOTAL RUN TIME: 0 days 0 hours 0 minutes 20 seconds 909 msec
