                         Program Version 4.2.1 -  RELEASE  -
|  1> ! wB97X-D3 SP def2-SVP
|  2> %pal
|  3> nprocs 24
|  4> end
|  5>
|  6> * xyz 0 1
|  7> S 	 -53.8999 	 17.0572 	 28.793
|  8> C 	 -55.1949 	 16.1538 	 28.1728
|  9> C 	 -54.8072 	 14.9191 	 27.6811
| 10> C 	 -53.3387 	 14.8388 	 27.6376
| 11> C 	 -52.7121 	 15.9873 	 28.121
| 12> H 	 -52.7859 	 14.0281 	 27.1973
| 13> C 	 -55.6919 	 13.7343 	 27.2441
| 14> H 	 -56.2695 	 14.0557 	 26.365
| 15> H 	 -56.4584 	 13.6203 	 28.0811
| 16> C 	 -55.0024 	 12.4055 	 26.969
| 17> H 	 -54.1896 	 12.4963 	 26.2541
| 18> H 	 -54.5864 	 12.0711 	 27.9151
| 19> C 	 -55.928 	 11.3033 	 26.3174
| 20> H 	 -55.3508 	 10.473 	 25.9484
| 21> H 	 -56.6549 	 11.0281 	 27.1145
| 22> H 	 -56.5514 	 11.8353 	 25.5938
| 23> S 	 -50.2475 	 14.8709 	 28.5988
| 24> C 	 -48.8438 	 15.7444 	 28.3125
| 25> C 	 -49.1212 	 17.083 	 27.9716
| 26> C 	 -50.558 	 17.3959 	 27.9123
| 27> C 	 -51.2979 	 16.237 	 28.1063
| 28> H 	 -48.1616 	 17.6756 	 27.7965
| 29> C 	 -51.1205 	 18.7229 	 27.5242
| 30> H 	 -52.0298 	 18.5609 	 26.9214
| 31> H 	 -50.4639 	 19.349 	 26.9352
| 32> C 	 -51.46 	 19.6934 	 28.6621
| 33> H 	 -52.3451 	 19.2637 	 29.1053
| 34> H 	 -51.6318 	 20.7577 	 28.34
| 35> C 	 -50.3665 	 19.9425 	 29.6059
| 36> H 	 -50.6082 	 20.7363 	 30.2991
| 37> H 	 -49.4288 	 20.1933 	 29.1508
| 38> H 	 -50.1488 	 19.0458 	 30.1818
| 39> H 	 -56.2005 	 16.4065 	 28.2009
| 40> H 	 -47.8324 	 15.4102 	 28.404
| 41> *
| 42>
| 43>                          ****END OF INPUT****

CARTESIAN COORDINATES (ANGSTROEM)
---------------------------------
  S    -53.899900   17.057200   28.793000
  C    -55.194900   16.153800   28.172800
  C    -54.807200   14.919100   27.681100
  C    -53.338700   14.838800   27.637600
  C    -52.712100   15.987300   28.121000
  H    -52.785900   14.028100   27.197300
  C    -55.691900   13.734300   27.244100
  H    -56.269500   14.055700   26.365000
  H    -56.458400   13.620300   28.081100
  C    -55.002400   12.405500   26.969000
  H    -54.189600   12.496300   26.254100
  H    -54.586400   12.071100   27.915100
  C    -55.928000   11.303300   26.317400
  H    -55.350800   10.473000   25.948400
  H    -56.654900   11.028100   27.114500
  H    -56.551400   11.835300   25.593800
  S    -50.247500   14.870900   28.598800
  C    -48.843800   15.744400   28.312500
  C    -49.121200   17.083000   27.971600
  C    -50.558000   17.395900   27.912300
  C    -51.297900   16.237000   28.106300
  H    -48.161600   17.675600   27.796500
  C    -51.120500   18.722900   27.524200
  H    -52.029800   18.560900   26.921400
  H    -50.463900   19.349000   26.935200
  C    -51.460000   19.693400   28.662100
  H    -52.345100   19.263700   29.105300
  H    -51.631800   20.757700   28.340000
  C    -50.366500   19.942500   29.605900
  H    -50.608200   20.736300   30.299100
  H    -49.428800   20.193300   29.150800
  H    -50.148800   19.045800   30.181800
  H    -56.200500   16.406500   28.200900
  H    -47.832400   15.410200   28.404000

 Total Charge           Charge          ....    0
 Multiplicity           Mult            ....    1
 Number of Electrons    NEL             ....  134
 Basis Dimension        Dim             ....  322

ORBITAL ENERGIES
----------------

  NO   OCC          E(Eh)            E(eV)
   0   2.0000     -88.970059     -2420.9984
   1   2.0000     -88.965723     -2420.8804
   2   2.0000     -10.328730      -281.0590
   3   2.0000     -10.327579      -281.0277
   4   2.0000     -10.312712      -280.6232
   5   2.0000     -10.311828      -280.5991
   6   2.0000     -10.306509      -280.4544
   7   2.0000     -10.305950      -280.4392
   8   2.0000     -10.302697      -280.3506
   9   2.0000     -10.302316      -280.3403
  10   2.0000     -10.294743      -280.1342
  11   2.0000     -10.289347      -279.9874
  12   2.0000     -10.286793      -279.9179
  13   2.0000     -10.285107      -279.8720
  14   2.0000     -10.276763      -279.6449
  15   2.0000     -10.262481      -279.2563
  16   2.0000      -8.085167      -220.0086
  17   2.0000      -8.080959      -219.8941
  18   2.0000      -6.043721      -164.4580
  19   2.0000      -6.039559      -164.3448
  20   2.0000      -6.039411      -164.3407
  21   2.0000      -6.035937      -164.2462
  22   2.0000      -6.035372      -164.2308
  23   2.0000      -6.031766      -164.1327
  24   2.0000      -1.009286       -27.4641
  25   2.0000      -0.985864       -26.8267
  26   2.0000      -0.917201       -24.9583
  27   2.0000      -0.908834       -24.7306
  28   2.0000      -0.874342       -23.7921
  29   2.0000      -0.852439       -23.1960
  30   2.0000      -0.845284       -23.0013
  31   2.0000      -0.808256       -21.9938
  32   2.0000      -0.785817       -21.3832
  33   2.0000      -0.774908       -21.0863
  34   2.0000      -0.713354       -19.4113
  35   2.0000      -0.694180       -18.8896
  36   2.0000      -0.683872       -18.6091
  37   2.0000      -0.663240       -18.0477
  38   2.0000      -0.635424       -17.2908
  39   2.0000      -0.613986       -16.7074
  40   2.0000      -0.592533       -16.1237
  41   2.0000      -0.570122       -15.5138
  42   2.0000      -0.569027       -15.4840
  43   2.0000      -0.563605       -15.3365
  44   2.0000      -0.550072       -14.9682
  45   2.0000      -0.534039       -14.5319
  46   2.0000      -0.512808       -13.9542
  47   2.0000      -0.509920       -13.8756
  48   2.0000      -0.503803       -13.7092
  49   2.0000      -0.496192       -13.5021
  50   2.0000      -0.487650       -13.2696
  51   2.0000      -0.482588       -13.1319
  52   2.0000      -0.477807       -13.0018
  53   2.0000      -0.462802       -12.5935
  54   2.0000      -0.459873       -12.5138
  55   2.0000      -0.454904       -12.3786
  56   2.0000      -0.441515       -12.0142
  57   2.0000      -0.436012       -11.8645
  58   2.0000      -0.430716       -11.7204
  59   2.0000      -0.425122       -11.5682
  60   2.0000      -0.417008       -11.3474
  61   2.0000      -0.411332       -11.1929
  62   2.0000      -0.403006       -10.9664
  63   2.0000      -0.353113        -9.6087
  64   2.0000      -0.327948        -8.9239
  65   2.0000      -0.325866        -8.8673
  66   2.0000      -0.288121        -7.8402
  67   0.0000       0.025065         0.6821
  68   0.0000       0.081370         2.2142
  69   0.0000       0.103823         2.8252
  70   0.0000       0.115365         3.1392
  71   0.0000       0.129191         3.5155

MULLIKEN ATOMIC CHARGES
-----------------------
   0 S :    0.126239
   1 C :   -0.087578
   2 C :   -0.093437
   3 C :   -0.010685
   4 C :   -0.124940
   5 H :    0.012125
   6 C :    0.038989
   7 H :    0.036811
   8 H :    0.043705
   9 C :   -0.112257
  10 H :    0.038363
  11 H :    0.036231
  12 C :   -0.029606
  13 H :    0.050473
  14 H :    0.030886
  15 H :    0.027017
  16 S :    0.116707
  17 C :   -0.085855
  18 C :   -0.082452
  19 C :   -0.018304
  20 C :   -0.152436
  21 H :    0.044468
  22 C :    0.060670
  23 H :    0.039574
  24 H :    0.014995
  25 C :   -0.075941
  26 H :    0.021370
  27 H :    0.031889
  28 C :   -0.034535
  29 H :    0.030299
  30 H :    0.012265
  31 H :    0.030174
  32 H :    0.015316
  33 H :    0.049458
Sum of atomic charges:   -0.0000000

LOEWDIN ATOMIC CHARGES
----------------------
   0 S :    0.454038
   1 C :   -0.209472
   2 C :   -0.056262
   3 C :   -0.066176
   4 C :   -0.205197
   5 H :    0.024553
   6 C :   -0.039997
   7 H :    0.031962
   8 H :    0.040104
   9 C :   -0.044544
  10 H :    0.021657
  11 H :    0.024295
  12 C :   -0.058894
  13 H :    0.027593
  14 H :    0.028512
  15 H :    0.025017
  16 S :    0.423925
  17 C :   -0.211206
  18 C :   -0.083712
  19 C :   -0.050712
  20 C :   -0.183640
  21 H :    0.043620
  22 C :   -0.038304
  23 H :    0.034323
  24 H :    0.029537
  25 C :   -0.044840
  26 H :    0.005458
  27 H :    0.032083
  28 C :   -0.066669
  29 H :    0.026456
  30 H :    0.019207
  31 H :    0.023384
  32 H :    0.015713
  33 H :    0.028191

  Mayer bond orders larger than 0.100000
B(  0-S ,  1-C ) :   1.1489 B(  0-S ,  4-C ) :   1.1483 B(  1-C ,  2-C ) :   1.6110
B(  1-C , 32-H ) :   0.9791 B(  2-C ,  3-C ) :   1.2598 B(  2-C ,  6-C ) :   0.9995
B(  3-C ,  4-C ) :   1.5274 B(  3-C ,  5-H ) :   0.9917 B(  4-C , 20-C ) :   1.0818
B(  6-C ,  7-H ) :   0.9335 B(  6-C ,  8-H ) :   0.9419 B(  6-C ,  9-C ) :   1.0883
B(  9-C , 10-H ) :   0.9488 B(  9-C , 11-H ) :   0.9541 B(  9-C , 12-C ) :   1.0727
B( 12-C , 13-H ) :   0.9762 B( 12-C , 14-H ) :   0.9763 B( 12-C , 15-H ) :   0.9759
B( 16-S , 17-C ) :   1.1661 B( 16-S , 20-C ) :   1.1305 B( 17-C , 18-C ) :   1.6227
B( 17-C , 33-H ) :   0.9681 B( 18-C , 19-C ) :   1.2002 B( 18-C , 21-H ) :   0.9806
B( 19-C , 20-C ) :   1.5729 B( 19-C , 22-C ) :   1.0539 B( 22-C , 23-H ) :   0.9341
B( 22-C , 24-H ) :   0.9358 B( 22-C , 25-C ) :   1.0676 B( 25-C , 26-H ) :   0.9483
B( 25-C , 27-H ) :   0.9584 B( 25-C , 28-C ) :   1.0887 B( 28-C , 29-H ) :   0.9719
B( 28-C , 30-H ) :   0.9699 B( 28-C , 31-H ) :   0.9642

Dispersion correction           -0.014332202
FINAL SINGLE POINT ENERGY     -1339.873360584771

DIPOLE MOMENT
-------------
                                X             Y             Z
Electronic contribution:      7.22862       0.74663       5.05703
Nuclear contribution   :     -7.33400      -0.83755      -5.26876
                        -----------------------------------------
Total Dipole Moment    :     -0.10538      -0.09092      -0.21173
                        -----------------------------------------
Magnitude (a.u.)       :      0.25338
Magnitude (Debye)      :      0.64404

Rotational constants in cm-1:     0.024028     0.007840     0.006228
Rotational constants in MHz :   720.330588   235.050491   186.696440

                             ****ORCA TERMINATED NORMALLY****
TOTAL RUN TIME: 0 days 0 hours 0 minutes 20 seconds 325 msec
