                         Program Version 4.2.1 -  RELEASE  -
|  1> ! wB97X-D3 SP def2-SVP
|  2> %pal
|  3> nprocs 24
|  4> end
|  5>
|  6> * xyz 0 1
|  7> S 	 -124.11 	 58.8323 	 -55.391
|  8> C 	 -124.332 	 59.8921 	 -56.7375
|  9> C 	 -124.522 	 61.2474 	 -56.3935
| 10> C 	 -124.427 	 61.4013 	 -54.9952
| 11> C 	 -124.196 	 60.2291 	 -54.3205
| 12> H 	 -124.482 	 62.2913 	 -54.4899
| 13> C 	 -124.637 	 62.3691 	 -57.3782
| 14> H 	 -124.868 	 61.9495 	 -58.3471
| 15> H 	 -123.642 	 62.823 	 -57.5474
| 16> C 	 -125.678 	 63.4302 	 -56.9857
| 17> H 	 -126.079 	 63.8999 	 -57.9146
| 18> H 	 -126.482 	 63.0294 	 -56.3108
| 19> C 	 -125.122 	 64.6612 	 -56.12
| 20> H 	 -125.747 	 65.555 	 -56.2356
| 21> H 	 -125.152 	 64.2212 	 -55.0963
| 22> H 	 -124.102 	 64.8951 	 -56.3189
| 23> S 	 -125.743 	 60.2725 	 -52.1284
| 24> C 	 -125.062 	 60.2555 	 -50.518
| 25> C 	 -123.73 	 59.8722 	 -50.5236
| 26> C 	 -123.271 	 59.8037 	 -51.8933
| 27> C 	 -124.237 	 60.0258 	 -52.8661
| 28> H 	 -123.129 	 59.7489 	 -49.5797
| 29> C 	 -121.768 	 59.6794 	 -52.2484
| 30> H 	 -121.653 	 59.6615 	 -53.3702
| 31> H 	 -121.507 	 58.6232 	 -52.0753
| 32> C 	 -120.832 	 60.722 	 -51.6005
| 33> H 	 -120.976 	 60.7989 	 -50.5452
| 34> H 	 -121.201 	 61.6022 	 -51.9858
| 35> C 	 -119.343 	 60.6402 	 -51.9843
| 36> H 	 -118.707 	 61.5495 	 -52.0364
| 37> H 	 -119.312 	 60.2461 	 -52.9758
| 38> H 	 -118.786 	 59.934 	 -51.3707
| 39> H 	 -124.419 	 59.6095 	 -57.782
| 40> H 	 -125.65 	 60.3586 	 -49.6088
| 41> *
| 42>
| 43>                          ****END OF INPUT****

CARTESIAN COORDINATES (ANGSTROEM)
---------------------------------
  S    -124.110000   58.832300  -55.391000
  C    -124.332000   59.892100  -56.737500
  C    -124.522000   61.247400  -56.393500
  C    -124.427000   61.401300  -54.995200
  C    -124.196000   60.229100  -54.320500
  H    -124.482000   62.291300  -54.489900
  C    -124.637000   62.369100  -57.378200
  H    -124.868000   61.949500  -58.347100
  H    -123.642000   62.823000  -57.547400
  C    -125.678000   63.430200  -56.985700
  H    -126.079000   63.899900  -57.914600
  H    -126.482000   63.029400  -56.310800
  C    -125.122000   64.661200  -56.120000
  H    -125.747000   65.555000  -56.235600
  H    -125.152000   64.221200  -55.096300
  H    -124.102000   64.895100  -56.318900
  S    -125.743000   60.272500  -52.128400
  C    -125.062000   60.255500  -50.518000
  C    -123.730000   59.872200  -50.523600
  C    -123.271000   59.803700  -51.893300
  C    -124.237000   60.025800  -52.866100
  H    -123.129000   59.748900  -49.579700
  C    -121.768000   59.679400  -52.248400
  H    -121.653000   59.661500  -53.370200
  H    -121.507000   58.623200  -52.075300
  C    -120.832000   60.722000  -51.600500
  H    -120.976000   60.798900  -50.545200
  H    -121.201000   61.602200  -51.985800
  C    -119.343000   60.640200  -51.984300
  H    -118.707000   61.549500  -52.036400
  H    -119.312000   60.246100  -52.975800
  H    -118.786000   59.934000  -51.370700
  H    -124.419000   59.609500  -57.782000
  H    -125.650000   60.358600  -49.608800

 Total Charge           Charge          ....    0
 Multiplicity           Mult            ....    1
 Number of Electrons    NEL             ....  134
 Basis Dimension        Dim             ....  322

ORBITAL ENERGIES
----------------

  NO   OCC          E(Eh)            E(eV)
   0   2.0000     -88.971125     -2421.0274
   1   2.0000     -88.962977     -2420.8057
   2   2.0000     -10.328713      -281.0586
   3   2.0000     -10.319963      -280.8205
   4   2.0000     -10.317808      -280.7618
   5   2.0000     -10.313853      -280.6542
   6   2.0000     -10.304982      -280.4128
   7   2.0000     -10.301586      -280.3204
   8   2.0000     -10.299565      -280.2654
   9   2.0000     -10.296405      -280.1794
  10   2.0000     -10.295119      -280.1444
  11   2.0000     -10.292631      -280.0767
  12   2.0000     -10.288338      -279.9599
  13   2.0000     -10.282155      -279.7917
  14   2.0000     -10.277728      -279.6712
  15   2.0000     -10.275121      -279.6002
  16   2.0000      -8.085637      -220.0214
  17   2.0000      -8.078795      -219.8352
  18   2.0000      -6.043991      -164.4653
  19   2.0000      -6.040184      -164.3618
  20   2.0000      -6.037267      -164.2824
  21   2.0000      -6.036576      -164.2636
  22   2.0000      -6.033010      -164.1666
  23   2.0000      -6.029654      -164.0752
  24   2.0000      -1.010190       -27.4887
  25   2.0000      -0.986947       -26.8562
  26   2.0000      -0.909679       -24.7536
  27   2.0000      -0.902000       -24.5447
  28   2.0000      -0.868605       -23.6360
  29   2.0000      -0.848892       -23.0995
  30   2.0000      -0.844265       -22.9736
  31   2.0000      -0.818584       -22.2748
  32   2.0000      -0.781606       -21.2686
  33   2.0000      -0.766414       -20.8552
  34   2.0000      -0.708139       -19.2694
  35   2.0000      -0.700578       -19.0637
  36   2.0000      -0.688519       -18.7356
  37   2.0000      -0.658922       -17.9302
  38   2.0000      -0.646093       -17.5811
  39   2.0000      -0.627978       -17.0882
  40   2.0000      -0.592939       -16.1347
  41   2.0000      -0.570754       -15.5310
  42   2.0000      -0.556813       -15.1516
  43   2.0000      -0.544285       -14.8108
  44   2.0000      -0.534266       -14.5381
  45   2.0000      -0.521936       -14.2026
  46   2.0000      -0.517462       -14.0808
  47   2.0000      -0.514260       -13.9937
  48   2.0000      -0.507519       -13.8103
  49   2.0000      -0.500491       -13.6191
  50   2.0000      -0.487667       -13.2701
  51   2.0000      -0.481956       -13.1147
  52   2.0000      -0.467506       -12.7215
  53   2.0000      -0.463887       -12.6230
  54   2.0000      -0.459206       -12.4956
  55   2.0000      -0.452477       -12.3125
  56   2.0000      -0.447919       -12.1885
  57   2.0000      -0.437212       -11.8972
  58   2.0000      -0.428142       -11.6503
  59   2.0000      -0.425695       -11.5838
  60   2.0000      -0.422013       -11.4836
  61   2.0000      -0.410111       -11.1597
  62   2.0000      -0.409676       -11.1478
  63   2.0000      -0.342213        -9.3121
  64   2.0000      -0.333782        -9.0827
  65   2.0000      -0.322393        -8.7728
  66   2.0000      -0.301549        -8.2056
  67   0.0000       0.040182         1.0934
  68   0.0000       0.062731         1.7070
  69   0.0000       0.113649         3.0925
  70   0.0000       0.121575         3.3082
  71   0.0000       0.128439         3.4950

MULLIKEN ATOMIC CHARGES
-----------------------
   0 S :    0.136358
   1 C :   -0.110336
   2 C :   -0.105837
   3 C :    0.080625
   4 C :   -0.174233
   5 H :   -0.039078
   6 C :    0.108393
   7 H :    0.010464
   8 H :    0.046906
   9 C :   -0.135517
  10 H :    0.041520
  11 H :    0.055907
  12 C :   -0.069104
  13 H :    0.048113
  14 H :    0.038545
  15 H :    0.026006
  16 S :    0.119796
  17 C :   -0.108807
  18 C :   -0.042263
  19 C :   -0.049947
  20 C :   -0.163939
  21 H :    0.048854
  22 C :    0.037508
  23 H :    0.023214
  24 H :    0.026637
  25 C :   -0.020127
  26 H :    0.021454
  27 H :    0.011134
  28 C :   -0.046602
  29 H :    0.040359
  30 H :    0.015567
  31 H :    0.027588
  32 H :    0.040418
  33 H :    0.060426
Sum of atomic charges:    0.0000000

LOEWDIN ATOMIC CHARGES
----------------------
   0 S :    0.420808
   1 C :   -0.205043
   2 C :   -0.062120
   3 C :   -0.047619
   4 C :   -0.193161
   5 H :    0.016565
   6 C :   -0.033793
   7 H :    0.029373
   8 H :    0.039051
   9 C :   -0.045205
  10 H :    0.027393
  11 H :    0.033665
  12 C :   -0.068041
  13 H :    0.029654
  14 H :    0.026378
  15 H :    0.015485
  16 S :    0.434529
  17 C :   -0.186941
  18 C :   -0.077676
  19 C :   -0.056565
  20 C :   -0.230665
  21 H :    0.045271
  22 C :   -0.038249
  23 H :    0.030653
  24 H :    0.027960
  25 C :   -0.034532
  26 H :    0.018716
  27 H :    0.019209
  28 C :   -0.067675
  29 H :    0.031993
  30 H :    0.022430
  31 H :    0.023643
  32 H :    0.025597
  33 H :    0.028912

  Mayer bond orders larger than 0.100000
B(  0-S ,  1-C ) :   1.1570 B(  0-S ,  4-C ) :   1.1539 B(  1-C ,  2-C ) :   1.5998
B(  1-C , 32-H ) :   0.9615 B(  2-C ,  3-C ) :   1.2386 B(  2-C ,  6-C ) :   1.0358
B(  3-C ,  4-C ) :   1.5906 B(  3-C ,  5-H ) :   1.0096 B(  4-C , 20-C ) :   0.9895
B(  6-C ,  7-H ) :   0.9324 B(  6-C ,  8-H ) :   0.9367 B(  6-C ,  9-C ) :   1.0449
B(  9-C , 10-H ) :   0.9633 B(  9-C , 11-H ) :   0.9706 B(  9-C , 12-C ) :   1.0491
B( 12-C , 13-H ) :   0.9748 B( 12-C , 14-H ) :   0.9830 B( 12-C , 15-H ) :   0.9801
B( 16-S , 17-C ) :   1.1731 B( 16-S , 20-C ) :   1.1553 B( 17-C , 18-C ) :   1.5944
B( 17-C , 33-H ) :   0.9661 B( 18-C , 19-C ) :   1.2463 B( 18-C , 21-H ) :   0.9835
B( 19-C , 20-C ) :   1.6031 B( 19-C , 22-C ) :   1.0392 B( 22-C , 23-H ) :   0.9314
B( 22-C , 24-H ) :   0.9352 B( 22-C , 25-C ) :   1.0505 B( 25-C , 26-H ) :   0.9602
B( 25-C , 27-H ) :   0.9512 B( 25-C , 28-C ) :   1.0757 B( 28-C , 29-H ) :   0.9777
B( 28-C , 30-H ) :   0.9730 B( 28-C , 31-H ) :   0.9764

Dispersion correction           -0.014174371
FINAL SINGLE POINT ENERGY     -1339.871163398593

DIPOLE MOMENT
-------------
                                X             Y             Z
Electronic contribution:    -13.93037     -16.86712       3.47630
Nuclear contribution   :     14.15605      17.27553      -3.59232
                        -----------------------------------------
Total Dipole Moment    :      0.22568       0.40841      -0.11602
                        -----------------------------------------
Magnitude (a.u.)       :      0.48082
Magnitude (Debye)      :      1.22216

Rotational constants in cm-1:     0.016886     0.008233     0.007629
Rotational constants in MHz :   506.222449   246.807049   228.717279

                             ****ORCA TERMINATED NORMALLY****
TOTAL RUN TIME: 0 days 0 hours 0 minutes 21 seconds 461 msec
