                         Program Version 4.2.1 -  RELEASE  -
|  1> ! wB97X-D3 SP def2-SVP
|  2> %pal
|  3> nprocs 24
|  4> end
|  5>
|  6> * xyz 0 1
|  7> S 	 -84.406 	 -43.8603 	 -72.4389
|  8> C 	 -83.9821 	 -45.0859 	 -71.3205
|  9> C 	 -84.9949 	 -45.3309 	 -70.4108
| 10> C 	 -86.1068 	 -44.4274 	 -70.6055
| 11> C 	 -86.0396 	 -43.6973 	 -71.817
| 12> H 	 -86.9621 	 -44.3861 	 -69.9433
| 13> C 	 -84.8562 	 -46.2339 	 -69.1889
| 14> H 	 -84.8068 	 -45.5659 	 -68.3186
| 15> H 	 -83.8846 	 -46.7367 	 -69.1395
| 16> C 	 -86.0723 	 -47.2237 	 -69.0151
| 17> H 	 -85.9605 	 -47.8068 	 -68.0944
| 18> H 	 -86.9737 	 -46.6203 	 -68.8695
| 19> C 	 -86.301 	 -48.3605 	 -70.0606
| 20> H 	 -86.5488 	 -47.9619 	 -70.9823
| 21> H 	 -85.4147 	 -49.0814 	 -70.1977
| 22> H 	 -87.2073 	 -48.9481 	 -69.8356
| 23> S 	 -86.6514 	 -41.5044 	 -73.435
| 24> C 	 -88.2768 	 -41.2772 	 -73.9171
| 25> C 	 -89.1715 	 -42.3058 	 -73.503
| 26> C 	 -88.4682 	 -43.3174 	 -72.6904
| 27> C 	 -87.0741 	 -43.0273 	 -72.5525
| 28> H 	 -90.1993 	 -42.1954 	 -73.8204
| 29> C 	 -89.2726 	 -44.5096 	 -72.1299
| 30> H 	 -90.3589 	 -44.4525 	 -72.5018
| 31> H 	 -89.2571 	 -44.2382 	 -71.116
| 32> C 	 -88.5569 	 -45.8859 	 -72.5039
| 33> H 	 -88.8905 	 -46.7093 	 -71.8671
| 34> H 	 -87.5423 	 -45.6947 	 -72.332
| 35> C 	 -88.7243 	 -46.3186 	 -74
| 36> H 	 -88.1438 	 -47.1829 	 -74.3264
| 37> H 	 -88.3848 	 -45.5824 	 -74.7006
| 38> H 	 -89.7018 	 -46.4611 	 -74.3472
| 39> H 	 -83.0623 	 -45.6251 	 -71.4483
| 40> H 	 -88.5916 	 -40.3789 	 -74.3649
| 41> *
| 42>
| 43>                          ****END OF INPUT****

CARTESIAN COORDINATES (ANGSTROEM)
---------------------------------
  S    -84.406000  -43.860300  -72.438900
  C    -83.982100  -45.085900  -71.320500
  C    -84.994900  -45.330900  -70.410800
  C    -86.106800  -44.427400  -70.605500
  C    -86.039600  -43.697300  -71.817000
  H    -86.962100  -44.386100  -69.943300
  C    -84.856200  -46.233900  -69.188900
  H    -84.806800  -45.565900  -68.318600
  H    -83.884600  -46.736700  -69.139500
  C    -86.072300  -47.223700  -69.015100
  H    -85.960500  -47.806800  -68.094400
  H    -86.973700  -46.620300  -68.869500
  C    -86.301000  -48.360500  -70.060600
  H    -86.548800  -47.961900  -70.982300
  H    -85.414700  -49.081400  -70.197700
  H    -87.207300  -48.948100  -69.835600
  S    -86.651400  -41.504400  -73.435000
  C    -88.276800  -41.277200  -73.917100
  C    -89.171500  -42.305800  -73.503000
  C    -88.468200  -43.317400  -72.690400
  C    -87.074100  -43.027300  -72.552500
  H    -90.199300  -42.195400  -73.820400
  C    -89.272600  -44.509600  -72.129900
  H    -90.358900  -44.452500  -72.501800
  H    -89.257100  -44.238200  -71.116000
  C    -88.556900  -45.885900  -72.503900
  H    -88.890500  -46.709300  -71.867100
  H    -87.542300  -45.694700  -72.332000
  C    -88.724300  -46.318600  -74.000000
  H    -88.143800  -47.182900  -74.326400
  H    -88.384800  -45.582400  -74.700600
  H    -89.701800  -46.461100  -74.347200
  H    -83.062300  -45.625100  -71.448300
  H    -88.591600  -40.378900  -74.364900

 Total Charge           Charge          ....    0
 Multiplicity           Mult            ....    1
 Number of Electrons    NEL             ....  134
 Basis Dimension        Dim             ....  322

ORBITAL ENERGIES
----------------

  NO   OCC          E(Eh)            E(eV)
   0   2.0000     -88.968978     -2420.9690
   1   2.0000     -88.963398     -2420.8171
   2   2.0000     -10.335803      -281.2515
   3   2.0000     -10.334374      -281.2126
   4   2.0000     -10.320224      -280.8276
   5   2.0000     -10.318811      -280.7891
   6   2.0000     -10.311542      -280.5913
   7   2.0000     -10.304443      -280.3982
   8   2.0000     -10.303035      -280.3598
   9   2.0000     -10.302270      -280.3390
  10   2.0000     -10.299480      -280.2631
  11   2.0000     -10.299467      -280.2628
  12   2.0000     -10.293320      -280.0955
  13   2.0000     -10.286995      -279.9234
  14   2.0000     -10.279535      -279.7204
  15   2.0000     -10.267094      -279.3818
  16   2.0000      -8.083514      -219.9636
  17   2.0000      -8.079106      -219.8436
  18   2.0000      -6.041930      -164.4093
  19   2.0000      -6.038051      -164.3037
  20   2.0000      -6.037571      -164.2907
  21   2.0000      -6.034403      -164.2045
  22   2.0000      -6.033419      -164.1777
  23   2.0000      -6.029910      -164.0822
  24   2.0000      -1.003039       -27.2941
  25   2.0000      -0.977823       -26.6079
  26   2.0000      -0.902858       -24.5680
  27   2.0000      -0.900690       -24.5090
  28   2.0000      -0.866860       -23.5885
  29   2.0000      -0.845995       -23.0207
  30   2.0000      -0.841041       -22.8859
  31   2.0000      -0.810175       -22.0460
  32   2.0000      -0.785730       -21.3808
  33   2.0000      -0.772363       -21.0171
  34   2.0000      -0.716509       -19.4972
  35   2.0000      -0.700801       -19.0698
  36   2.0000      -0.689562       -18.7639
  37   2.0000      -0.662162       -18.0183
  38   2.0000      -0.641033       -17.4434
  39   2.0000      -0.621547       -16.9132
  40   2.0000      -0.584192       -15.8967
  41   2.0000      -0.564127       -15.3507
  42   2.0000      -0.550476       -14.9792
  43   2.0000      -0.544690       -14.8218
  44   2.0000      -0.540805       -14.7161
  45   2.0000      -0.538043       -14.6409
  46   2.0000      -0.514869       -14.0103
  47   2.0000      -0.506714       -13.7884
  48   2.0000      -0.504984       -13.7413
  49   2.0000      -0.495402       -13.4806
  50   2.0000      -0.488482       -13.2923
  51   2.0000      -0.475856       -12.9487
  52   2.0000      -0.469037       -12.7631
  53   2.0000      -0.464132       -12.6297
  54   2.0000      -0.459255       -12.4970
  55   2.0000      -0.446203       -12.1418
  56   2.0000      -0.444634       -12.0991
  57   2.0000      -0.441544       -12.0150
  58   2.0000      -0.434525       -11.8240
  59   2.0000      -0.427888       -11.6434
  60   2.0000      -0.419942       -11.4272
  61   2.0000      -0.413155       -11.2425
  62   2.0000      -0.409873       -11.1532
  63   2.0000      -0.353799        -9.6274
  64   2.0000      -0.331182        -9.0119
  65   2.0000      -0.327519        -8.9123
  66   2.0000      -0.279484        -7.6052
  67   0.0000       0.017445         0.4747
  68   0.0000       0.069133         1.8812
  69   0.0000       0.103294         2.8108
  70   0.0000       0.117027         3.1845
  71   0.0000       0.125446         3.4136

MULLIKEN ATOMIC CHARGES
-----------------------
   0 S :    0.103733
   1 C :   -0.116792
   2 C :   -0.085175
   3 C :    0.004763
   4 C :   -0.150880
   5 H :    0.015013
   6 C :    0.065887
   7 H :    0.042978
   8 H :    0.019054
   9 C :   -0.095178
  10 H :    0.030555
  11 H :    0.027866
  12 C :   -0.047678
  13 H :    0.014495
  14 H :    0.044436
  15 H :    0.032074
  16 S :    0.108283
  17 C :   -0.081472
  18 C :   -0.048760
  19 C :   -0.065552
  20 C :   -0.146326
  21 H :    0.026707
  22 C :    0.069294
  23 H :    0.040420
  24 H :    0.033237
  25 C :   -0.056326
  26 H :    0.034931
  27 H :    0.056010
  28 C :   -0.033537
  29 H :    0.030596
  30 H :    0.019165
  31 H :    0.009397
  32 H :    0.051584
  33 H :    0.047199
Sum of atomic charges:   -0.0000000

LOEWDIN ATOMIC CHARGES
----------------------
   0 S :    0.415283
   1 C :   -0.204756
   2 C :   -0.066633
   3 C :   -0.065728
   4 C :   -0.194838
   5 H :    0.026485
   6 C :   -0.030428
   7 H :    0.039066
   8 H :    0.029072
   9 C :   -0.043633
  10 H :    0.025209
  11 H :    0.022373
  12 C :   -0.069376
  13 H :    0.010289
  14 H :    0.034961
  15 H :    0.031120
  16 S :    0.402413
  17 C :   -0.184186
  18 C :   -0.077054
  19 C :   -0.036889
  20 C :   -0.198592
  21 H :    0.033446
  22 C :   -0.026902
  23 H :    0.038782
  24 H :    0.025815
  25 C :   -0.026869
  26 H :    0.023417
  27 H :    0.020417
  28 C :   -0.066845
  29 H :    0.029745
  30 H :    0.025486
  31 H :    0.014143
  32 H :    0.026608
  33 H :    0.018598

  Mayer bond orders larger than 0.100000
B(  0-S ,  1-C ) :   1.1501 B(  0-S ,  4-C ) :   1.1568 B(  1-C ,  2-C ) :   1.5901
B(  1-C , 32-H ) :   0.9717 B(  2-C ,  3-C ) :   1.2441 B(  2-C ,  6-C ) :   1.0243
B(  3-C ,  4-C ) :   1.5315 B(  3-C ,  5-H ) :   0.9964 B(  4-C , 20-C ) :   1.0945
B(  6-C ,  7-H ) :   0.9422 B(  6-C ,  8-H ) :   0.9485 B(  6-C ,  9-C ) :   1.0592
B(  9-C , 10-H ) :   0.9598 B(  9-C , 11-H ) :   0.9579 B(  9-C , 12-C ) :   1.0703
B( 12-C , 13-H ) :   0.9757 B( 12-C , 14-H ) :   0.9737 B( 12-C , 15-H ) :   0.9709
B( 16-S , 17-C ) :   1.1825 B( 16-S , 20-C ) :   1.1217 B( 17-C , 18-C ) :   1.5949
B( 17-C , 20-C ) :   0.1013 B( 17-C , 33-H ) :   0.9701 B( 18-C , 19-C ) :   1.2315
B( 18-C , 21-H ) :   0.9918 B( 19-C , 20-C ) :   1.5644 B( 19-C , 22-C ) :   1.0069
B( 22-C , 23-H ) :   0.9460 B( 22-C , 24-H ) :   0.9348 B( 22-C , 25-C ) :   1.0520
B( 25-C , 26-H ) :   0.9582 B( 25-C , 27-H ) :   0.9565 B( 25-C , 28-C ) :   1.0687
B( 28-C , 29-H ) :   0.9750 B( 28-C , 30-H ) :   0.9733 B( 28-C , 31-H ) :   0.9766

Dispersion correction           -0.016232787
FINAL SINGLE POINT ENERGY     -1339.863611195986

DIPOLE MOMENT
-------------
                                X             Y             Z
Electronic contribution:     11.23032      25.80761      -8.88114
Nuclear contribution   :    -11.63580     -26.14467       9.15843
                        -----------------------------------------
Total Dipole Moment    :     -0.40548      -0.33707       0.27728
                        -----------------------------------------
Magnitude (a.u.)       :      0.59575
Magnitude (Debye)      :      1.51427

Rotational constants in cm-1:     0.020101     0.009984     0.007633
Rotational constants in MHz :   602.623166   299.306021   228.835236

                             ****ORCA TERMINATED NORMALLY****
TOTAL RUN TIME: 0 days 0 hours 0 minutes 23 seconds 221 msec
