                         Program Version 4.2.1 -  RELEASE  -
|  1> ! wB97X-D3 SP def2-SVP
|  2> %pal
|  3> nprocs 24
|  4> end
|  5>
|  6> * xyz 0 1
|  7> S 	 -135.352 	 68.1426 	 -64.5442
|  8> C 	 -136.924 	 68.4523 	 -65.2084
|  9> C 	 -137.867 	 68.4972 	 -64.196
| 10> C 	 -137.233 	 68.4132 	 -62.9357
| 11> C 	 -135.847 	 68.3101 	 -62.9431
| 12> H 	 -137.778 	 68.312 	 -62.0215
| 13> C 	 -139.334 	 68.688 	 -64.2824
| 14> H 	 -139.904 	 68.2506 	 -63.4488
| 15> H 	 -139.715 	 68.3339 	 -65.1995
| 16> C 	 -139.707 	 70.2234 	 -64.3243
| 17> H 	 -139.221 	 70.6788 	 -65.119
| 18> H 	 -140.701 	 70.3468 	 -64.6523
| 19> C 	 -139.449 	 71.0049 	 -63.0662
| 20> H 	 -138.362 	 71.0387 	 -62.9411
| 21> H 	 -139.855 	 72.0282 	 -63.1292
| 22> H 	 -139.879 	 70.5113 	 -62.1391
| 23> S 	 -134.35 	 66.3258 	 -61.8525
| 24> C 	 -133.57 	 66.6628 	 -60.3531
| 25> C 	 -133.974 	 67.779 	 -59.7458
| 26> C 	 -134.847 	 68.5085 	 -60.5876
| 27> C 	 -135.083 	 67.9044 	 -61.7735
| 28> H 	 -133.638 	 67.9721 	 -58.6974
| 29> C 	 -135.261 	 69.8879 	 -60.2158
| 30> H 	 -136.143 	 70.2232 	 -60.7409
| 31> H 	 -134.421 	 70.5538 	 -60.5101
| 32> C 	 -135.624 	 70.0555 	 -58.691
| 33> H 	 -135.714 	 71.1148 	 -58.5065
| 34> H 	 -134.764 	 69.6393 	 -58.129
| 35> C 	 -137.016 	 69.4884 	 -58.3473
| 36> H 	 -136.907 	 68.3999 	 -58.3454
| 37> H 	 -137.777 	 69.8334 	 -59.1048
| 38> H 	 -137.371 	 69.9423 	 -57.3539
| 39> H 	 -137.272 	 68.3765 	 -66.2327
| 40> H 	 -133.009 	 65.9724 	 -59.7465
| 41> *
| 42>
| 43>                          ****END OF INPUT****

CARTESIAN COORDINATES (ANGSTROEM)
---------------------------------
  S    -135.352000   68.142600  -64.544200
  C    -136.924000   68.452300  -65.208400
  C    -137.867000   68.497200  -64.196000
  C    -137.233000   68.413200  -62.935700
  C    -135.847000   68.310100  -62.943100
  H    -137.778000   68.312000  -62.021500
  C    -139.334000   68.688000  -64.282400
  H    -139.904000   68.250600  -63.448800
  H    -139.715000   68.333900  -65.199500
  C    -139.707000   70.223400  -64.324300
  H    -139.221000   70.678800  -65.119000
  H    -140.701000   70.346800  -64.652300
  C    -139.449000   71.004900  -63.066200
  H    -138.362000   71.038700  -62.941100
  H    -139.855000   72.028200  -63.129200
  H    -139.879000   70.511300  -62.139100
  S    -134.350000   66.325800  -61.852500
  C    -133.570000   66.662800  -60.353100
  C    -133.974000   67.779000  -59.745800
  C    -134.847000   68.508500  -60.587600
  C    -135.083000   67.904400  -61.773500
  H    -133.638000   67.972100  -58.697400
  C    -135.261000   69.887900  -60.215800
  H    -136.143000   70.223200  -60.740900
  H    -134.421000   70.553800  -60.510100
  C    -135.624000   70.055500  -58.691000
  H    -135.714000   71.114800  -58.506500
  H    -134.764000   69.639300  -58.129000
  C    -137.016000   69.488400  -58.347300
  H    -136.907000   68.399900  -58.345400
  H    -137.777000   69.833400  -59.104800
  H    -137.371000   69.942300  -57.353900
  H    -137.272000   68.376500  -66.232700
  H    -133.009000   65.972400  -59.746500

 Total Charge           Charge          ....    0
 Multiplicity           Mult            ....    1
 Number of Electrons    NEL             ....  134
 Basis Dimension        Dim             ....  322

ORBITAL ENERGIES
----------------

  NO   OCC          E(Eh)            E(eV)
   0   2.0000     -88.969017     -2420.9700
   1   2.0000     -88.963423     -2420.8178
   2   2.0000     -10.322023      -280.8765
   3   2.0000     -10.319668      -280.8124
   4   2.0000     -10.312661      -280.6218
   5   2.0000     -10.306427      -280.4521
   6   2.0000     -10.296219      -280.1744
   7   2.0000     -10.294509      -280.1278
   8   2.0000     -10.291361      -280.0422
   9   2.0000     -10.288999      -279.9779
  10   2.0000     -10.288355      -279.9604
  11   2.0000     -10.288000      -279.9507
  12   2.0000     -10.287102      -279.9263
  13   2.0000     -10.285576      -279.8847
  14   2.0000     -10.279107      -279.7087
  15   2.0000     -10.275259      -279.6040
  16   2.0000      -8.084659      -219.9948
  17   2.0000      -8.079138      -219.8445
  18   2.0000      -6.043105      -164.4412
  19   2.0000      -6.038874      -164.3261
  20   2.0000      -6.037567      -164.2905
  21   2.0000      -6.035581      -164.2365
  22   2.0000      -6.033754      -164.1868
  23   2.0000      -6.029673      -164.0757
  24   2.0000      -1.019316       -27.7370
  25   2.0000      -0.996798       -27.1243
  26   2.0000      -0.917360       -24.9626
  27   2.0000      -0.907557       -24.6959
  28   2.0000      -0.874655       -23.8006
  29   2.0000      -0.851286       -23.1647
  30   2.0000      -0.847147       -23.0520
  31   2.0000      -0.817107       -22.2346
  32   2.0000      -0.784986       -21.3606
  33   2.0000      -0.771402       -20.9909
  34   2.0000      -0.706947       -19.2370
  35   2.0000      -0.703430       -19.1413
  36   2.0000      -0.693551       -18.8725
  37   2.0000      -0.655903       -17.8480
  38   2.0000      -0.640898       -17.4397
  39   2.0000      -0.619743       -16.8641
  40   2.0000      -0.600650       -16.3445
  41   2.0000      -0.579309       -15.7638
  42   2.0000      -0.553758       -15.0685
  43   2.0000      -0.550372       -14.9764
  44   2.0000      -0.547055       -14.8861
  45   2.0000      -0.537835       -14.6352
  46   2.0000      -0.515093       -14.0164
  47   2.0000      -0.506881       -13.7929
  48   2.0000      -0.503165       -13.6918
  49   2.0000      -0.498001       -13.5513
  50   2.0000      -0.489927       -13.3316
  51   2.0000      -0.478014       -13.0074
  52   2.0000      -0.472858       -12.8671
  53   2.0000      -0.465742       -12.6735
  54   2.0000      -0.463375       -12.6091
  55   2.0000      -0.453362       -12.3366
  56   2.0000      -0.441042       -12.0014
  57   2.0000      -0.436931       -11.8895
  58   2.0000      -0.432431       -11.7671
  59   2.0000      -0.430286       -11.7087
  60   2.0000      -0.418421       -11.3858
  61   2.0000      -0.417120       -11.3504
  62   2.0000      -0.411593       -11.2000
  63   2.0000      -0.346109        -9.4181
  64   2.0000      -0.332799        -9.0559
  65   2.0000      -0.326774        -8.8920
  66   2.0000      -0.296626        -8.0716
  67   0.0000       0.036304         0.9879
  68   0.0000       0.070748         1.9251
  69   0.0000       0.115094         3.1319
  70   0.0000       0.122368         3.3298
  71   0.0000       0.126893         3.4529

MULLIKEN ATOMIC CHARGES
-----------------------
   0 S :    0.125946
   1 C :   -0.109809
   2 C :   -0.099248
   3 C :    0.020536
   4 C :   -0.143949
   5 H :    0.000727
   6 C :    0.091895
   7 H :    0.035066
   8 H :    0.004048
   9 C :   -0.033833
  10 H :   -0.000634
  11 H :    0.007816
  12 C :   -0.074210
  13 H :    0.047249
  14 H :    0.041124
  15 H :    0.029726
  16 S :    0.114981
  17 C :   -0.061678
  18 C :   -0.079209
  19 C :   -0.032189
  20 C :   -0.158906
  21 H :    0.039838
  22 C :    0.061035
  23 H :    0.011107
  24 H :    0.052382
  25 C :   -0.093640
  26 H :    0.025813
  27 H :    0.034879
  28 C :   -0.079687
  29 H :    0.049171
  30 H :    0.039751
  31 H :    0.050239
  32 H :    0.044764
  33 H :    0.038898
Sum of atomic charges:   -0.0000000

LOEWDIN ATOMIC CHARGES
----------------------
   0 S :    0.452140
   1 C :   -0.210403
   2 C :   -0.065190
   3 C :   -0.059777
   4 C :   -0.226618
   5 H :    0.023656
   6 C :   -0.021346
   7 H :    0.034875
   8 H :    0.023806
   9 C :   -0.033554
  10 H :    0.015300
  11 H :    0.015528
  12 C :   -0.070673
  13 H :    0.026894
  14 H :    0.030077
  15 H :    0.026161
  16 S :    0.411372
  17 C :   -0.185167
  18 C :   -0.080914
  19 C :   -0.065005
  20 C :   -0.195544
  21 H :    0.042758
  22 C :   -0.030403
  23 H :    0.022724
  24 H :    0.041001
  25 C :   -0.042571
  26 H :    0.021668
  27 H :    0.021308
  28 C :   -0.072628
  29 H :    0.026672
  30 H :    0.030035
  31 H :    0.035498
  32 H :    0.031865
  33 H :    0.026451

  Mayer bond orders larger than 0.100000
B(  0-S ,  1-C ) :   1.1586 B(  0-S ,  4-C ) :   1.1797 B(  1-C ,  2-C ) :   1.5658
B(  1-C , 32-H ) :   0.9646 B(  2-C ,  3-C ) :   1.2972 B(  2-C ,  6-C ) :   1.0472
B(  3-C ,  4-C ) :   1.5142 B(  3-C ,  5-H ) :   0.9957 B(  4-C , 20-C ) :   1.0255
B(  6-C ,  7-H ) :   0.9457 B(  6-C ,  8-H ) :   0.9263 B(  6-C ,  9-C ) :   1.0722
B(  9-C , 10-H ) :   0.9462 B(  9-C , 11-H ) :   0.9540 B(  9-C , 12-C ) :   1.0869
B( 12-C , 13-H ) :   0.9714 B( 12-C , 14-H ) :   0.9697 B( 12-C , 15-H ) :   0.9738
B( 16-S , 17-C ) :   1.1465 B( 16-S , 20-C ) :   1.1304 B( 17-C , 18-C ) :   1.6774
B( 17-C , 33-H ) :   0.9543 B( 18-C , 19-C ) :   1.2003 B( 18-C , 21-H ) :   0.9808
B( 19-C , 20-C ) :   1.6534 B( 19-C , 22-C ) :   1.0485 B( 22-C , 23-H ) :   0.9315
B( 22-C , 24-H ) :   0.9343 B( 22-C , 25-C ) :   1.0706 B( 25-C , 26-H ) :   0.9563
B( 25-C , 27-H ) :   0.9550 B( 25-C , 28-C ) :   1.0663 B( 28-C , 29-H ) :   0.9774
B( 28-C , 30-H ) :   0.9707 B( 28-C , 31-H ) :   0.9756

Dispersion correction           -0.015009431
FINAL SINGLE POINT ENERGY     -1339.873683516317

DIPOLE MOMENT
-------------
                                X             Y             Z
Electronic contribution:     19.55992     -17.48605     -12.56606
Nuclear contribution   :    -20.03886      17.71967      12.84880
                        -----------------------------------------
Total Dipole Moment    :     -0.47894       0.23362       0.28273
                        -----------------------------------------
Magnitude (a.u.)       :      0.60324
Magnitude (Debye)      :      1.53332

Rotational constants in cm-1:     0.018240     0.010170     0.007148
Rotational constants in MHz :   546.825017   304.875860   214.289126

                             ****ORCA TERMINATED NORMALLY****
TOTAL RUN TIME: 0 days 0 hours 0 minutes 22 seconds 688 msec
