                         Program Version 4.2.1 -  RELEASE  -
|  1> ! wB97X-D3 SP def2-SVP
|  2> %pal
|  3> nprocs 24
|  4> end
|  5>
|  6> * xyz 0 1
|  7> S 	 -69.9059 	 -43.4196 	 -93.0474
|  8> C 	 -69.858 	 -41.9625 	 -94.089
|  9> C 	 -70.377 	 -42.27 	 -95.384
| 10> C 	 -70.7859 	 -43.6389 	 -95.556
| 11> C 	 -70.6354 	 -44.3968 	 -94.4247
| 12> H 	 -71.1955 	 -44.1238 	 -96.4378
| 13> C 	 -70.6681 	 -41.1327 	 -96.367
| 14> H 	 -71.5469 	 -40.5997 	 -95.9768
| 15> H 	 -71.0366 	 -41.5146 	 -97.3201
| 16> C 	 -69.5231 	 -40.1753 	 -96.6476
| 17> H 	 -69.8841 	 -39.3052 	 -97.2488
| 18> H 	 -69.0765 	 -39.7214 	 -95.7633
| 19> C 	 -68.3348 	 -40.8232 	 -97.3803
| 20> H 	 -68.732 	 -41.1563 	 -98.3258
| 21> H 	 -67.658 	 -40.047 	 -97.6629
| 22> H 	 -67.7885 	 -41.6646 	 -96.9853
| 23> S 	 -69.8541 	 -46.9633 	 -93.8234
| 24> C 	 -71.056 	 -48.2667 	 -93.9568
| 25> C 	 -72.2928 	 -47.7656 	 -94.3166
| 26> C 	 -72.351 	 -46.3631 	 -94.3964
| 27> C 	 -71.0777 	 -45.7933 	 -94.204
| 28> H 	 -73.1357 	 -48.3968 	 -94.5021
| 29> C 	 -73.5992 	 -45.6947 	 -94.9077
| 30> H 	 -73.5832 	 -44.6287 	 -94.8101
| 31> H 	 -74.4585 	 -45.9953 	 -94.2921
| 32> C 	 -73.9277 	 -46.052 	 -96.4151
| 33> H 	 -74.3204 	 -47.028 	 -96.4345
| 34> H 	 -72.9697 	 -46.1966 	 -96.9203
| 35> C 	 -74.911 	 -45.1596 	 -97.0592
| 36> H 	 -74.7529 	 -44.1046 	 -96.9531
| 37> H 	 -75.8664 	 -45.3128 	 -96.7243
| 38> H 	 -74.9348 	 -45.2772 	 -98.1557
| 39> H 	 -69.4052 	 -41.0211 	 -93.8179
| 40> H 	 -70.807 	 -49.324 	 -93.9451
| 41> *
| 42>
| 43>                          ****END OF INPUT****

CARTESIAN COORDINATES (ANGSTROEM)
---------------------------------
  S    -69.905900  -43.419600  -93.047400
  C    -69.858000  -41.962500  -94.089000
  C    -70.377000  -42.270000  -95.384000
  C    -70.785900  -43.638900  -95.556000
  C    -70.635400  -44.396800  -94.424700
  H    -71.195500  -44.123800  -96.437800
  C    -70.668100  -41.132700  -96.367000
  H    -71.546900  -40.599700  -95.976800
  H    -71.036600  -41.514600  -97.320100
  C    -69.523100  -40.175300  -96.647600
  H    -69.884100  -39.305200  -97.248800
  H    -69.076500  -39.721400  -95.763300
  C    -68.334800  -40.823200  -97.380300
  H    -68.732000  -41.156300  -98.325800
  H    -67.658000  -40.047000  -97.662900
  H    -67.788500  -41.664600  -96.985300
  S    -69.854100  -46.963300  -93.823400
  C    -71.056000  -48.266700  -93.956800
  C    -72.292800  -47.765600  -94.316600
  C    -72.351000  -46.363100  -94.396400
  C    -71.077700  -45.793300  -94.204000
  H    -73.135700  -48.396800  -94.502100
  C    -73.599200  -45.694700  -94.907700
  H    -73.583200  -44.628700  -94.810100
  H    -74.458500  -45.995300  -94.292100
  C    -73.927700  -46.052000  -96.415100
  H    -74.320400  -47.028000  -96.434500
  H    -72.969700  -46.196600  -96.920300
  C    -74.911000  -45.159600  -97.059200
  H    -74.752900  -44.104600  -96.953100
  H    -75.866400  -45.312800  -96.724300
  H    -74.934800  -45.277200  -98.155700
  H    -69.405200  -41.021100  -93.817900
  H    -70.807000  -49.324000  -93.945100

 Total Charge           Charge          ....    0
 Multiplicity           Mult            ....    1
 Number of Electrons    NEL             ....  134
 Basis Dimension        Dim             ....  322

ORBITAL ENERGIES
----------------

  NO   OCC          E(Eh)            E(eV)
   0   2.0000     -88.968337     -2420.9515
   1   2.0000     -88.964699     -2420.8525
   2   2.0000     -10.334957      -281.2285
   3   2.0000     -10.328624      -281.0562
   4   2.0000     -10.320524      -280.8357
   5   2.0000     -10.320419      -280.8329
   6   2.0000     -10.308887      -280.5191
   7   2.0000     -10.303416      -280.3702
   8   2.0000     -10.298785      -280.2442
   9   2.0000     -10.293113      -280.0898
  10   2.0000     -10.291917      -280.0573
  11   2.0000     -10.291209      -280.0380
  12   2.0000     -10.290038      -280.0062
  13   2.0000     -10.283574      -279.8303
  14   2.0000     -10.270353      -279.4705
  15   2.0000     -10.268808      -279.4285
  16   2.0000      -8.082856      -219.9457
  17   2.0000      -8.077401      -219.7973
  18   2.0000      -6.041323      -164.3928
  19   2.0000      -6.037373      -164.2853
  20   2.0000      -6.036072      -164.2499
  21   2.0000      -6.033685      -164.1849
  22   2.0000      -6.032233      -164.1454
  23   2.0000      -6.028079      -164.0324
  24   2.0000      -1.000013       -27.2117
  25   2.0000      -0.971940       -26.4478
  26   2.0000      -0.912414       -24.8281
  27   2.0000      -0.907584       -24.6966
  28   2.0000      -0.863633       -23.5006
  29   2.0000      -0.858088       -23.3498
  30   2.0000      -0.842235       -22.9184
  31   2.0000      -0.815165       -22.1818
  32   2.0000      -0.783623       -21.3235
  33   2.0000      -0.767890       -20.8953
  34   2.0000      -0.710904       -19.3447
  35   2.0000      -0.703546       -19.1445
  36   2.0000      -0.693982       -18.8842
  37   2.0000      -0.662582       -18.0298
  38   2.0000      -0.639497       -17.4016
  39   2.0000      -0.611683       -16.6448
  40   2.0000      -0.598193       -16.2777
  41   2.0000      -0.571477       -15.5507
  42   2.0000      -0.566819       -15.4239
  43   2.0000      -0.552001       -15.0207
  44   2.0000      -0.534558       -14.5461
  45   2.0000      -0.523988       -14.2584
  46   2.0000      -0.518780       -14.1167
  47   2.0000      -0.514808       -14.0086
  48   2.0000      -0.507812       -13.8183
  49   2.0000      -0.494107       -13.4453
  50   2.0000      -0.488239       -13.2857
  51   2.0000      -0.482801       -13.1377
  52   2.0000      -0.474059       -12.8998
  53   2.0000      -0.463301       -12.6071
  54   2.0000      -0.459337       -12.4992
  55   2.0000      -0.447907       -12.1882
  56   2.0000      -0.440125       -11.9764
  57   2.0000      -0.436709       -11.8835
  58   2.0000      -0.434328       -11.8187
  59   2.0000      -0.426264       -11.5992
  60   2.0000      -0.422586       -11.4991
  61   2.0000      -0.419144       -11.4055
  62   2.0000      -0.410954       -11.1826
  63   2.0000      -0.344291        -9.3686
  64   2.0000      -0.332578        -9.0499
  65   2.0000      -0.323546        -8.8041
  66   2.0000      -0.293157        -7.9772
  67   0.0000       0.030062         0.8180
  68   0.0000       0.057892         1.5753
  69   0.0000       0.108127         2.9423
  70   0.0000       0.115644         3.1468
  71   0.0000       0.126586         3.4446

MULLIKEN ATOMIC CHARGES
-----------------------
   0 S :    0.090518
   1 C :   -0.123280
   2 C :   -0.092579
   3 C :    0.045323
   4 C :   -0.146128
   5 H :    0.018534
   6 C :    0.070269
   7 H :    0.046817
   8 H :    0.009925
   9 C :   -0.091234
  10 H :    0.033279
  11 H :    0.023982
  12 C :   -0.035531
  13 H :    0.006147
  14 H :    0.023212
  15 H :    0.048371
  16 S :    0.117243
  17 C :   -0.092625
  18 C :   -0.035067
  19 C :   -0.010468
  20 C :   -0.185043
  21 H :    0.014422
  22 C :    0.062210
  23 H :    0.017941
  24 H :    0.027553
  25 C :   -0.066112
  26 H :    0.011478
  27 H :    0.031988
  28 C :    0.002495
  29 H :    0.017507
  30 H :    0.009806
  31 H :    0.030328
  32 H :    0.057161
  33 H :    0.061558
Sum of atomic charges:   -0.0000000

LOEWDIN ATOMIC CHARGES
----------------------
   0 S :    0.351165
   1 C :   -0.184987
   2 C :   -0.058131
   3 C :   -0.062263
   4 C :   -0.163915
   5 H :    0.037718
   6 C :   -0.036121
   7 H :    0.038057
   8 H :    0.025756
   9 C :   -0.042667
  10 H :    0.031536
  11 H :    0.018254
  12 C :   -0.065051
  13 H :    0.019706
  14 H :    0.023913
  15 H :    0.027453
  16 S :    0.411099
  17 C :   -0.177211
  18 C :   -0.065172
  19 C :   -0.054186
  20 C :   -0.208782
  21 H :    0.029214
  22 C :   -0.028212
  23 H :    0.024089
  24 H :    0.033041
  25 C :   -0.037036
  26 H :    0.018516
  27 H :    0.023939
  28 C :   -0.059925
  29 H :    0.022584
  30 H :    0.016058
  31 H :    0.034411
  32 H :    0.026614
  33 H :    0.030536

  Mayer bond orders larger than 0.100000
B(  0-S ,  1-C ) :   1.1299 B(  0-S ,  4-C ) :   1.1264 B(  1-C ,  2-C ) :   1.6050
B(  1-C ,  4-C ) :   0.1048 B(  1-C , 32-H ) :   0.9711 B(  2-C ,  3-C ) :   1.2155
B(  2-C ,  6-C ) :   1.0120 B(  3-C ,  4-C ) :   1.6092 B(  3-C ,  5-H ) :   0.9938
B(  4-C , 20-C ) :   1.0113 B(  6-C ,  7-H ) :   0.9394 B(  6-C ,  8-H ) :   0.9439
B(  6-C ,  9-C ) :   1.0792 B(  9-C , 10-H ) :   0.9524 B(  9-C , 11-H ) :   0.9569
B(  9-C , 12-C ) :   1.0732 B( 12-C , 13-H ) :   0.9724 B( 12-C , 14-H ) :   0.9725
B( 12-C , 15-H ) :   0.9777 B( 16-S , 17-C ) :   1.1512 B( 16-S , 20-C ) :   1.1650
B( 17-C , 18-C ) :   1.5954 B( 17-C , 20-C ) :   0.1012 B( 17-C , 33-H ) :   0.9689
B( 18-C , 19-C ) :   1.2506 B( 18-C , 21-H ) :   0.9922 B( 19-C , 20-C ) :   1.5651
B( 19-C , 22-C ) :   1.0697 B( 22-C , 23-H ) :   0.9394 B( 22-C , 24-H ) :   0.9267
B( 22-C , 25-C ) :   1.0441 B( 25-C , 26-H ) :   0.9446 B( 25-C , 27-H ) :   0.9613
B( 25-C , 28-C ) :   1.0948 B( 28-C , 29-H ) :   0.9729 B( 28-C , 30-H ) :   0.9695
B( 28-C , 31-H ) :   0.9679

Dispersion correction           -0.014461737
FINAL SINGLE POINT ENERGY     -1339.877970467071

DIPOLE MOMENT
-------------
                                X             Y             Z
Electronic contribution:     11.44246     -13.65449      21.43396
Nuclear contribution   :    -11.98197      13.75327     -22.10225
                        -----------------------------------------
Total Dipole Moment    :     -0.53951       0.09878      -0.66829
                        -----------------------------------------
Magnitude (a.u.)       :      0.86455
Magnitude (Debye)      :      2.19751

Rotational constants in cm-1:     0.018281     0.008564     0.006618
Rotational constants in MHz :   548.049168   256.754850   198.412734

                             ****ORCA TERMINATED NORMALLY****
TOTAL RUN TIME: 0 days 0 hours 0 minutes 21 seconds 470 msec
