                         Program Version 4.2.1 -  RELEASE  -
|  1> ! wB97X-D3 SP def2-SVP
|  2> %pal
|  3> nprocs 24
|  4> end
|  5>
|  6> * xyz 0 1
|  7> S 	 -101.287 	 67.3233 	 -8.1872
|  8> C 	 -100.589 	 66.0947 	 -7.17989
|  9> C 	 -101.575 	 65.1268 	 -6.90791
| 10> C 	 -102.623 	 65.1618 	 -7.87261
| 11> C 	 -102.608 	 66.2376 	 -8.68231
| 12> H 	 -103.302 	 64.3919 	 -8.07276
| 13> C 	 -101.328 	 63.9766 	 -5.88999
| 14> H 	 -100.306 	 64.1295 	 -5.5239
| 15> H 	 -101.232 	 63.0698 	 -6.544
| 16> C 	 -102.422 	 63.8376 	 -4.72389
| 17> H 	 -102.509 	 64.7074 	 -4.14436
| 18> H 	 -103.484 	 63.649 	 -5.07304
| 19> C 	 -101.909 	 62.8108 	 -3.7712
| 20> H 	 -101.977 	 61.751 	 -4.04299
| 21> H 	 -100.886 	 62.8058 	 -3.68021
| 22> H 	 -102.397 	 62.9434 	 -2.83753
| 23> S 	 -102.868 	 67.7216 	 -10.8673
| 24> C 	 -104.191 	 67.5112 	 -11.9538
| 25> C 	 -105.198 	 66.6911 	 -11.3911
| 26> C 	 -104.886 	 66.3301 	 -10.0175
| 27> C 	 -103.525 	 66.6292 	 -9.69532
| 28> H 	 -105.964 	 66.2155 	 -11.9996
| 29> C 	 -105.888 	 65.4517 	 -9.27255
| 30> H 	 -105.547 	 65.4527 	 -8.21478
| 31> H 	 -105.573 	 64.4503 	 -9.59191
| 32> C 	 -107.412 	 65.7687 	 -9.4082
| 33> H 	 -108.036 	 64.9505 	 -9.0203
| 34> H 	 -107.752 	 65.8288 	 -10.3852
| 35> C 	 -107.825 	 67.0435 	 -8.70918
| 36> H 	 -108.829 	 67.2425 	 -9.07038
| 37> H 	 -107.279 	 67.8739 	 -9.07123
| 38> H 	 -107.853 	 67.0344 	 -7.60647
| 39> H 	 -99.6859 	 66.2336 	 -6.50163
| 40> H 	 -104.091 	 67.8458 	 -12.9888
| 41> *
| 42>
| 43>                          ****END OF INPUT****

CARTESIAN COORDINATES (ANGSTROEM)
---------------------------------
  S    -101.287000   67.323300   -8.187200
  C    -100.589000   66.094700   -7.179890
  C    -101.575000   65.126800   -6.907910
  C    -102.623000   65.161800   -7.872610
  C    -102.608000   66.237600   -8.682310
  H    -103.302000   64.391900   -8.072760
  C    -101.328000   63.976600   -5.889990
  H    -100.306000   64.129500   -5.523900
  H    -101.232000   63.069800   -6.544000
  C    -102.422000   63.837600   -4.723890
  H    -102.509000   64.707400   -4.144360
  H    -103.484000   63.649000   -5.073040
  C    -101.909000   62.810800   -3.771200
  H    -101.977000   61.751000   -4.042990
  H    -100.886000   62.805800   -3.680210
  H    -102.397000   62.943400   -2.837530
  S    -102.868000   67.721600  -10.867300
  C    -104.191000   67.511200  -11.953800
  C    -105.198000   66.691100  -11.391100
  C    -104.886000   66.330100  -10.017500
  C    -103.525000   66.629200   -9.695320
  H    -105.964000   66.215500  -11.999600
  C    -105.888000   65.451700   -9.272550
  H    -105.547000   65.452700   -8.214780
  H    -105.573000   64.450300   -9.591910
  C    -107.412000   65.768700   -9.408200
  H    -108.036000   64.950500   -9.020300
  H    -107.752000   65.828800  -10.385200
  C    -107.825000   67.043500   -8.709180
  H    -108.829000   67.242500   -9.070380
  H    -107.279000   67.873900   -9.071230
  H    -107.853000   67.034400   -7.606470
  H    -99.685900   66.233600   -6.501630
  H    -104.091000   67.845800  -12.988800

 Total Charge           Charge          ....    0
 Multiplicity           Mult            ....    1
 Number of Electrons    NEL             ....  134
 Basis Dimension        Dim             ....  322

ORBITAL ENERGIES
----------------

  NO   OCC          E(Eh)            E(eV)
   0   2.0000     -88.963259     -2420.8133
   1   2.0000     -88.960515     -2420.7387
   2   2.0000     -10.327253      -281.0188
   3   2.0000     -10.325904      -280.9821
   4   2.0000     -10.319985      -280.8211
   5   2.0000     -10.316271      -280.7200
   6   2.0000     -10.313822      -280.6534
   7   2.0000     -10.303236      -280.3653
   8   2.0000     -10.303097      -280.3615
   9   2.0000     -10.300111      -280.2803
  10   2.0000     -10.299020      -280.2506
  11   2.0000     -10.292553      -280.0746
  12   2.0000     -10.287673      -279.9418
  13   2.0000     -10.285827      -279.8916
  14   2.0000     -10.271332      -279.4971
  15   2.0000     -10.265826      -279.3473
  16   2.0000      -8.078976      -219.8401
  17   2.0000      -8.075360      -219.7417
  18   2.0000      -6.037366      -164.2851
  19   2.0000      -6.033962      -164.1925
  20   2.0000      -6.033221      -164.1723
  21   2.0000      -6.030089      -164.0871
  22   2.0000      -6.029907      -164.0821
  23   2.0000      -6.025754      -163.9691
  24   2.0000      -1.009073       -27.4583
  25   2.0000      -0.981693       -26.7132
  26   2.0000      -0.910179       -24.7672
  27   2.0000      -0.905923       -24.6514
  28   2.0000      -0.873061       -23.7572
  29   2.0000      -0.856963       -23.3192
  30   2.0000      -0.845970       -23.0200
  31   2.0000      -0.815802       -22.1991
  32   2.0000      -0.781321       -21.2608
  33   2.0000      -0.763283       -20.7700
  34   2.0000      -0.715659       -19.4741
  35   2.0000      -0.706822       -19.2336
  36   2.0000      -0.692777       -18.8514
  37   2.0000      -0.660494       -17.9729
  38   2.0000      -0.637363       -17.3435
  39   2.0000      -0.621544       -16.9131
  40   2.0000      -0.595070       -16.1927
  41   2.0000      -0.562374       -15.3030
  42   2.0000      -0.555982       -15.1290
  43   2.0000      -0.550481       -14.9793
  44   2.0000      -0.541072       -14.7233
  45   2.0000      -0.534265       -14.5381
  46   2.0000      -0.524605       -14.2752
  47   2.0000      -0.508310       -13.8318
  48   2.0000      -0.503910       -13.7121
  49   2.0000      -0.498623       -13.5682
  50   2.0000      -0.493247       -13.4219
  51   2.0000      -0.477343       -12.9891
  52   2.0000      -0.472632       -12.8610
  53   2.0000      -0.462805       -12.5936
  54   2.0000      -0.455263       -12.3883
  55   2.0000      -0.450962       -12.2713
  56   2.0000      -0.448028       -12.1915
  57   2.0000      -0.441912       -12.0250
  58   2.0000      -0.437916       -11.9163
  59   2.0000      -0.424832       -11.5603
  60   2.0000      -0.419168       -11.4061
  61   2.0000      -0.416753       -11.3404
  62   2.0000      -0.405876       -11.0445
  63   2.0000      -0.358178        -9.7465
  64   2.0000      -0.327731        -8.9180
  65   2.0000      -0.321890        -8.7591
  66   2.0000      -0.277519        -7.5517
  67   0.0000       0.016824         0.4578
  68   0.0000       0.078110         2.1255
  69   0.0000       0.097273         2.6469
  70   0.0000       0.114515         3.1161
  71   0.0000       0.137252         3.7348

MULLIKEN ATOMIC CHARGES
-----------------------
   0 S :    0.090447
   1 C :   -0.132518
   2 C :   -0.100091
   3 C :    0.002166
   4 C :   -0.076295
   5 H :   -0.011507
   6 C :    0.013255
   7 H :    0.016971
   8 H :    0.047975
   9 C :   -0.045619
  10 H :    0.022101
  11 H :    0.042980
  12 C :   -0.003874
  13 H :    0.017260
  14 H :   -0.000808
  15 H :    0.027107
  16 S :    0.102861
  17 C :   -0.098453
  18 C :   -0.055852
  19 C :   -0.066206
  20 C :   -0.146479
  21 H :    0.041097
  22 C :    0.029079
  23 H :    0.029635
  24 H :    0.045202
  25 C :   -0.025927
  26 H :    0.026964
  27 H :    0.008307
  28 C :   -0.039063
  29 H :    0.018933
  30 H :    0.030790
  31 H :    0.041287
  32 H :    0.077152
  33 H :    0.071122
Sum of atomic charges:    0.0000000

LOEWDIN ATOMIC CHARGES
----------------------
   0 S :    0.381336
   1 C :   -0.218675
   2 C :   -0.061226
   3 C :   -0.069053
   4 C :   -0.173814
   5 H :    0.022411
   6 C :   -0.031865
   7 H :    0.028124
   8 H :    0.037858
   9 C :   -0.033811
  10 H :    0.021108
  11 H :    0.033087
  12 C :   -0.064565
  13 H :    0.027603
  14 H :    0.014973
  15 H :    0.023660
  16 S :    0.427843
  17 C :   -0.194589
  18 C :   -0.076324
  19 C :   -0.049451
  20 C :   -0.208369
  21 H :    0.034061
  22 C :   -0.041167
  23 H :    0.033431
  24 H :    0.035536
  25 C :   -0.035510
  26 H :    0.031362
  27 H :    0.014673
  28 C :   -0.059588
  29 H :    0.027333
  30 H :    0.022473
  31 H :    0.028020
  32 H :    0.042449
  33 H :    0.030664

  Mayer bond orders larger than 0.100000
B(  0-S ,  1-C ) :   1.1257 B(  0-S ,  4-C ) :   1.1206 B(  1-C ,  2-C ) :   1.6138
B(  1-C , 32-H ) :   0.9556 B(  2-C ,  3-C ) :   1.2109 B(  2-C ,  6-C ) :   1.0278
B(  3-C ,  4-C ) :   1.6043 B(  3-C ,  5-H ) :   1.0068 B(  4-C , 20-C ) :   1.1091
B(  6-C ,  7-H ) :   0.9464 B(  6-C ,  8-H ) :   0.9500 B(  6-C ,  9-C ) :   1.0425
B(  9-C , 10-H ) :   0.9586 B(  9-C , 11-H ) :   0.9567 B(  9-C , 12-C ) :   1.0849
B( 12-C , 13-H ) :   0.9683 B( 12-C , 14-H ) :   0.9668 B( 12-C , 15-H ) :   0.9750
B( 16-S , 17-C ) :   1.1787 B( 16-S , 20-C ) :   1.1458 B( 17-C , 18-C ) :   1.5762
B( 17-C , 20-C ) :   0.1034 B( 17-C , 33-H ) :   0.9682 B( 18-C , 19-C ) :   1.2433
B( 18-C , 21-H ) :   0.9856 B( 19-C , 20-C ) :   1.5308 B( 19-C , 22-C ) :   1.0355
B( 22-C , 23-H ) :   0.9379 B( 22-C , 24-H ) :   0.9340 B( 22-C , 25-C ) :   1.0561
B( 25-C , 26-H ) :   0.9510 B( 25-C , 27-H ) :   0.9550 B( 25-C , 28-C ) :   1.0889
B( 28-C , 29-H ) :   0.9701 B( 28-C , 30-H ) :   0.9743 B( 28-C , 31-H ) :   0.9759

Dispersion correction           -0.013472262
FINAL SINGLE POINT ENERGY     -1339.843509019791

DIPOLE MOMENT
-------------
                                X             Y             Z
Electronic contribution:     15.29890      16.87404     -17.66590
Nuclear contribution   :    -15.73499     -17.51403      17.85804
                        -----------------------------------------
Total Dipole Moment    :     -0.43609      -0.63999       0.19214
                        -----------------------------------------
Magnitude (a.u.)       :      0.79792
Magnitude (Debye)      :      2.02816

Rotational constants in cm-1:     0.018457     0.008151     0.006053
Rotational constants in MHz :   553.313991   244.372943   181.466193

                             ****ORCA TERMINATED NORMALLY****
TOTAL RUN TIME: 0 days 0 hours 0 minutes 19 seconds 737 msec
