                         Program Version 4.2.1 -  RELEASE  -
|  1> ! wB97X-D3 SP def2-SVP
|  2> %pal
|  3> nprocs 24
|  4> end
|  5>
|  6> * xyz 0 1
|  7> S 	 -46.6655 	 2.4817 	 -17.6219
|  8> C 	 -47.5422 	 0.999754 	 -18.1178
|  9> C 	 -48.8595 	 1.36847 	 -18.5823
| 10> C 	 -49.1204 	 2.76505 	 -18.2173
| 11> C 	 -48.0736 	 3.47692 	 -17.7363
| 12> H 	 -50.0835 	 3.27324 	 -18.3329
| 13> C 	 -49.8211 	 0.475415 	 -19.3235
| 14> H 	 -50.8236 	 0.528226 	 -18.9415
| 15> H 	 -49.5019 	 -0.581147 	 -19.111
| 16> C 	 -49.995 	 0.746439 	 -20.8321
| 17> H 	 -50.5872 	 1.65885 	 -21.0345
| 18> H 	 -49.0059 	 0.968624 	 -21.201
| 19> C 	 -50.4245 	 -0.540135 	 -21.5965
| 20> H 	 -51.4842 	 -0.707363 	 -21.3508
| 21> H 	 -50.4333 	 -0.449634 	 -22.6774
| 22> H 	 -49.8125 	 -1.37178 	 -21.2406
| 23> S 	 -48.2605 	 6.13197 	 -18.3508
| 24> C 	 -48.3188 	 7.22849 	 -17.0511
| 25> C 	 -47.9273 	 6.71471 	 -15.8562
| 26> C 	 -47.9243 	 5.27224 	 -15.8434
| 27> C 	 -48.1651 	 4.80796 	 -17.1502
| 28> H 	 -47.9855 	 7.33031 	 -14.972
| 29> C 	 -47.8054 	 4.34725 	 -14.6399
| 30> H 	 -46.8601 	 4.53834 	 -14.1511
| 31> H 	 -47.6592 	 3.34424 	 -14.9709
| 32> C 	 -48.922 	 4.49969 	 -13.5872
| 33> H 	 -49.0431 	 5.54873 	 -13.2534
| 34> H 	 -48.5777 	 3.94306 	 -12.726
| 35> C 	 -50.233 	 3.86726 	 -14.1866
| 36> H 	 -50.6824 	 4.47175 	 -15.0065
| 37> H 	 -50.996 	 3.70044 	 -13.4265
| 38> H 	 -50.0833 	 2.89067 	 -14.6201
| 39> H 	 -47.1244 	 -0.00669788 	 -18.2513
| 40> H 	 -48.558 	 8.26662 	 -17.1873
| 41> *
| 42>
| 43>                          ****END OF INPUT****

CARTESIAN COORDINATES (ANGSTROEM)
---------------------------------
  S    -46.665500    2.481700  -17.621900
  C    -47.542200    0.999754  -18.117800
  C    -48.859500    1.368470  -18.582300
  C    -49.120400    2.765050  -18.217300
  C    -48.073600    3.476920  -17.736300
  H    -50.083500    3.273240  -18.332900
  C    -49.821100    0.475415  -19.323500
  H    -50.823600    0.528226  -18.941500
  H    -49.501900   -0.581147  -19.111000
  C    -49.995000    0.746439  -20.832100
  H    -50.587200    1.658850  -21.034500
  H    -49.005900    0.968624  -21.201000
  C    -50.424500   -0.540135  -21.596500
  H    -51.484200   -0.707363  -21.350800
  H    -50.433300   -0.449634  -22.677400
  H    -49.812500   -1.371780  -21.240600
  S    -48.260500    6.131970  -18.350800
  C    -48.318800    7.228490  -17.051100
  C    -47.927300    6.714710  -15.856200
  C    -47.924300    5.272240  -15.843400
  C    -48.165100    4.807960  -17.150200
  H    -47.985500    7.330310  -14.972000
  C    -47.805400    4.347250  -14.639900
  H    -46.860100    4.538340  -14.151100
  H    -47.659200    3.344240  -14.970900
  C    -48.922000    4.499690  -13.587200
  H    -49.043100    5.548730  -13.253400
  H    -48.577700    3.943060  -12.726000
  C    -50.233000    3.867260  -14.186600
  H    -50.682400    4.471750  -15.006500
  H    -50.996000    3.700440  -13.426500
  H    -50.083300    2.890670  -14.620100
  H    -47.124400   -0.006698  -18.251300
  H    -48.558000    8.266620  -17.187300

 Total Charge           Charge          ....    0
 Multiplicity           Mult            ....    1
 Number of Electrons    NEL             ....  134
 Basis Dimension        Dim             ....  322

ORBITAL ENERGIES
----------------

  NO   OCC          E(Eh)            E(eV)
   0   2.0000     -88.966709     -2420.9072
   1   2.0000     -88.963135     -2420.8100
   2   2.0000     -10.326159      -280.9891
   3   2.0000     -10.325118      -280.9608
   4   2.0000     -10.321789      -280.8702
   5   2.0000     -10.312850      -280.6269
   6   2.0000     -10.310979      -280.5760
   7   2.0000     -10.308349      -280.5044
   8   2.0000     -10.295484      -280.1544
   9   2.0000     -10.293440      -280.0987
  10   2.0000     -10.291233      -280.0387
  11   2.0000     -10.290673      -280.0235
  12   2.0000     -10.288030      -279.9515
  13   2.0000     -10.286578      -279.9120
  14   2.0000     -10.282336      -279.7966
  15   2.0000     -10.274664      -279.5878
  16   2.0000      -8.080595      -219.8842
  17   2.0000      -8.078544      -219.8284
  18   2.0000      -6.039234      -164.3359
  19   2.0000      -6.036822      -164.2703
  20   2.0000      -6.035133      -164.2243
  21   2.0000      -6.033169      -164.1709
  22   2.0000      -6.031332      -164.1209
  23   2.0000      -6.029310      -164.0659
  24   2.0000      -1.004118       -27.3234
  25   2.0000      -0.979899       -26.6644
  26   2.0000      -0.910335       -24.7715
  27   2.0000      -0.905520       -24.6404
  28   2.0000      -0.865263       -23.5450
  29   2.0000      -0.845292       -23.0016
  30   2.0000      -0.840723       -22.8772
  31   2.0000      -0.811179       -22.0733
  32   2.0000      -0.781863       -21.2756
  33   2.0000      -0.769753       -20.9460
  34   2.0000      -0.706972       -19.2377
  35   2.0000      -0.701040       -19.0763
  36   2.0000      -0.690843       -18.7988
  37   2.0000      -0.655628       -17.8405
  38   2.0000      -0.637552       -17.3487
  39   2.0000      -0.614541       -16.7225
  40   2.0000      -0.599838       -16.3224
  41   2.0000      -0.572168       -15.5695
  42   2.0000      -0.559265       -15.2184
  43   2.0000      -0.545381       -14.8406
  44   2.0000      -0.537337       -14.6217
  45   2.0000      -0.522016       -14.2048
  46   2.0000      -0.514826       -14.0091
  47   2.0000      -0.506958       -13.7950
  48   2.0000      -0.500376       -13.6159
  49   2.0000      -0.494970       -13.4688
  50   2.0000      -0.488346       -13.2886
  51   2.0000      -0.474554       -12.9133
  52   2.0000      -0.468914       -12.7598
  53   2.0000      -0.463236       -12.6053
  54   2.0000      -0.458600       -12.4791
  55   2.0000      -0.448458       -12.2032
  56   2.0000      -0.443370       -12.0647
  57   2.0000      -0.437446       -11.9035
  58   2.0000      -0.431740       -11.7482
  59   2.0000      -0.424973       -11.5641
  60   2.0000      -0.423193       -11.5157
  61   2.0000      -0.417439       -11.3591
  62   2.0000      -0.411618       -11.2007
  63   2.0000      -0.334781        -9.1099
  64   2.0000      -0.332426        -9.0458
  65   2.0000      -0.319181        -8.6854
  66   2.0000      -0.303012        -8.2454
  67   0.0000       0.033136         0.9017
  68   0.0000       0.066254         1.8029
  69   0.0000       0.105111         2.8602
  70   0.0000       0.114273         3.1095
  71   0.0000       0.124635         3.3915

MULLIKEN ATOMIC CHARGES
-----------------------
   0 S :    0.111791
   1 C :   -0.133985
   2 C :   -0.094846
   3 C :    0.032257
   4 C :   -0.149166
   5 H :    0.016837
   6 C :    0.049647
   7 H :    0.025243
   8 H :    0.021160
   9 C :   -0.071355
  10 H :    0.040640
  11 H :    0.023283
  12 C :   -0.055516
  13 H :    0.027200
  14 H :    0.040340
  15 H :    0.038473
  16 S :    0.110211
  17 C :   -0.083904
  18 C :   -0.022093
  19 C :   -0.039970
  20 C :   -0.192535
  21 H :    0.019000
  22 C :    0.090981
  23 H :    0.020824
  24 H :    0.014294
  25 C :   -0.057065
  26 H :    0.037255
  27 H :    0.028782
  28 C :   -0.063553
  29 H :    0.046604
  30 H :    0.029304
  31 H :    0.027550
  32 H :    0.061574
  33 H :    0.050738
Sum of atomic charges:    0.0000000

LOEWDIN ATOMIC CHARGES
----------------------
   0 S :    0.402634
   1 C :   -0.195048
   2 C :   -0.054456
   3 C :   -0.062937
   4 C :   -0.217451
   5 H :    0.032791
   6 C :   -0.038765
   7 H :    0.028400
   8 H :    0.034007
   9 C :   -0.040666
  10 H :    0.027794
  11 H :    0.019763
  12 C :   -0.063051
  13 H :    0.024879
  14 H :    0.026268
  15 H :    0.027106
  16 S :    0.405611
  17 C :   -0.185721
  18 C :   -0.075552
  19 C :   -0.040633
  20 C :   -0.191107
  21 H :    0.029246
  22 C :   -0.030395
  23 H :    0.031700
  24 H :    0.022549
  25 C :   -0.032702
  26 H :    0.026379
  27 H :    0.024359
  28 C :   -0.070287
  29 H :    0.031563
  30 H :    0.022332
  31 H :    0.024350
  32 H :    0.032172
  33 H :    0.024866

  Mayer bond orders larger than 0.100000
B(  0-S ,  1-C ) :   1.1375 B(  0-S ,  4-C ) :   1.1303 B(  1-C ,  2-C ) :   1.5939
B(  1-C , 32-H ) :   0.9662 B(  2-C ,  3-C ) :   1.2187 B(  2-C ,  6-C ) :   1.0491
B(  3-C ,  4-C ) :   1.6086 B(  3-C ,  5-H ) :   0.9862 B(  4-C , 20-C ) :   1.0123
B(  6-C ,  7-H ) :   0.9378 B(  6-C ,  8-H ) :   0.9425 B(  6-C ,  9-C ) :   1.0434
B(  9-C , 10-H ) :   0.9555 B(  9-C , 11-H ) :   0.9600 B(  9-C , 12-C ) :   1.0752
B( 12-C , 13-H ) :   0.9770 B( 12-C , 14-H ) :   0.9766 B( 12-C , 15-H ) :   0.9759
B( 16-S , 17-C ) :   1.1613 B( 16-S , 20-C ) :   1.1399 B( 17-C , 18-C ) :   1.6348
B( 17-C , 33-H ) :   0.9668 B( 18-C , 19-C ) :   1.2204 B( 18-C , 21-H ) :   0.9826
B( 19-C , 20-C ) :   1.6036 B( 19-C , 22-C ) :   1.0438 B( 22-C , 23-H ) :   0.9262
B( 22-C , 24-H ) :   0.9288 B( 22-C , 25-C ) :   1.0751 B( 25-C , 26-H ) :   0.9592
B( 25-C , 27-H ) :   0.9545 B( 25-C , 28-C ) :   1.0602 B( 28-C , 29-H ) :   0.9771
B( 28-C , 30-H ) :   0.9769 B( 28-C , 31-H ) :   0.9759

Dispersion correction           -0.014844923
FINAL SINGLE POINT ENERGY     -1339.877094819784

DIPOLE MOMENT
-------------
                                X             Y             Z
Electronic contribution:     15.00518      14.56323      -2.34104
Nuclear contribution   :    -15.38279     -14.75109       2.49927
                        -----------------------------------------
Total Dipole Moment    :     -0.37761      -0.18786       0.15823
                        -----------------------------------------
Magnitude (a.u.)       :      0.45047
Magnitude (Debye)      :      1.14500

Rotational constants in cm-1:     0.021506     0.007601     0.006883
Rotational constants in MHz :   644.747638   227.872191   206.334530

                             ****ORCA TERMINATED NORMALLY****
TOTAL RUN TIME: 0 days 0 hours 0 minutes 20 seconds 364 msec
