                         Program Version 4.2.1 -  RELEASE  -
|  1> ! wB97X-D3 SP def2-SVP
|  2> %pal
|  3> nprocs 24
|  4> end
|  5>
|  6> * xyz 0 1
|  7> S 	 -41.1192 	 -0.699322 	 -8.43865
|  8> C 	 -41.2312 	 0.18723 	 -6.94958
|  9> C 	 -42.2918 	 1.07459 	 -6.87808
| 10> C 	 -43.1085 	 0.960868 	 -8.07088
| 11> C 	 -42.7318 	 -0.0334005 	 -8.92125
| 12> H 	 -44.0642 	 1.45808 	 -8.29047
| 13> C 	 -42.7022 	 1.94087 	 -5.73554
| 14> H 	 -42.2101 	 1.63832 	 -4.86905
| 15> H 	 -43.7386 	 1.65857 	 -5.68447
| 16> C 	 -42.5811 	 3.45639 	 -5.98432
| 17> H 	 -41.5962 	 3.56333 	 -6.35477
| 18> H 	 -43.3054 	 3.75772 	 -6.73759
| 19> C 	 -42.7447 	 4.26787 	 -4.73181
| 20> H 	 -41.7847 	 4.44014 	 -4.28529
| 21> H 	 -43.3044 	 5.22487 	 -4.88376
| 22> H 	 -43.2702 	 3.73063 	 -3.95895
| 23> S 	 -42.4982 	 -0.482517 	 -11.6354
| 24> C 	 -43.7581 	 -1.33725 	 -12.335
| 25> C 	 -44.8722 	 -1.48126 	 -11.4822
| 26> C 	 -44.6624 	 -0.978314 	 -10.1494
| 27> C 	 -43.3715 	 -0.430447 	 -10.1089
| 28> H 	 -45.7863 	 -1.95661 	 -11.7427
| 29> C 	 -45.782 	 -1.01276 	 -9.10511
| 30> H 	 -45.4642 	 -1.00706 	 -8.00242
| 31> H 	 -46.1035 	 -2.03646 	 -9.29406
| 32> C 	 -46.9256 	 -0.042695 	 -9.59254
| 33> H 	 -47.0343 	 -0.229147 	 -10.6726
| 34> H 	 -46.4732 	 0.999552 	 -9.5527
| 35> C 	 -48.3257 	 -0.26231 	 -8.95233
| 36> H 	 -48.7961 	 -1.21277 	 -9.1729
| 37> H 	 -49.0382 	 0.4824 	 -9.28462
| 38> H 	 -48.1861 	 -0.0609423 	 -7.84665
| 39> H 	 -40.5384 	 0.0774432 	 -6.10814
| 40> H 	 -43.824 	 -1.71862 	 -13.3068
| 41> *
| 42>
| 43>                          ****END OF INPUT****

CARTESIAN COORDINATES (ANGSTROEM)
---------------------------------
  S    -41.119200   -0.699322   -8.438650
  C    -41.231200    0.187230   -6.949580
  C    -42.291800    1.074590   -6.878080
  C    -43.108500    0.960868   -8.070880
  C    -42.731800   -0.033400   -8.921250
  H    -44.064200    1.458080   -8.290470
  C    -42.702200    1.940870   -5.735540
  H    -42.210100    1.638320   -4.869050
  H    -43.738600    1.658570   -5.684470
  C    -42.581100    3.456390   -5.984320
  H    -41.596200    3.563330   -6.354770
  H    -43.305400    3.757720   -6.737590
  C    -42.744700    4.267870   -4.731810
  H    -41.784700    4.440140   -4.285290
  H    -43.304400    5.224870   -4.883760
  H    -43.270200    3.730630   -3.958950
  S    -42.498200   -0.482517  -11.635400
  C    -43.758100   -1.337250  -12.335000
  C    -44.872200   -1.481260  -11.482200
  C    -44.662400   -0.978314  -10.149400
  C    -43.371500   -0.430447  -10.108900
  H    -45.786300   -1.956610  -11.742700
  C    -45.782000   -1.012760   -9.105110
  H    -45.464200   -1.007060   -8.002420
  H    -46.103500   -2.036460   -9.294060
  C    -46.925600   -0.042695   -9.592540
  H    -47.034300   -0.229147  -10.672600
  H    -46.473200    0.999552   -9.552700
  C    -48.325700   -0.262310   -8.952330
  H    -48.796100   -1.212770   -9.172900
  H    -49.038200    0.482400   -9.284620
  H    -48.186100   -0.060942   -7.846650
  H    -40.538400    0.077443   -6.108140
  H    -43.824000   -1.718620  -13.306800

 Total Charge           Charge          ....    0
 Multiplicity           Mult            ....    1
 Number of Electrons    NEL             ....  134
 Basis Dimension        Dim             ....  322

ORBITAL ENERGIES
----------------

  NO   OCC          E(Eh)            E(eV)
   0   2.0000     -88.970233     -2421.0031
   1   2.0000     -88.959918     -2420.7224
   2   2.0000     -10.320629      -280.8386
   3   2.0000     -10.318272      -280.7745
   4   2.0000     -10.311359      -280.5864
   5   2.0000     -10.310309      -280.5578
   6   2.0000     -10.305690      -280.4321
   7   2.0000     -10.304519      -280.4002
   8   2.0000     -10.301217      -280.3104
   9   2.0000     -10.297316      -280.2042
  10   2.0000     -10.291716      -280.0518
  11   2.0000     -10.290448      -280.0173
  12   2.0000     -10.287728      -279.9433
  13   2.0000     -10.282615      -279.8042
  14   2.0000     -10.279738      -279.7259
  15   2.0000     -10.274910      -279.5945
  16   2.0000      -8.085922      -220.0291
  17   2.0000      -8.074317      -219.7133
  18   2.0000      -6.044275      -164.4731
  19   2.0000      -6.040343      -164.3661
  20   2.0000      -6.036744      -164.2682
  21   2.0000      -6.032866      -164.1626
  22   2.0000      -6.029141      -164.0613
  23   2.0000      -6.024786      -163.9428
  24   2.0000      -1.006977       -27.4012
  25   2.0000      -0.980561       -26.6824
  26   2.0000      -0.916309       -24.9340
  27   2.0000      -0.908176       -24.7127
  28   2.0000      -0.872251       -23.7352
  29   2.0000      -0.852867       -23.2077
  30   2.0000      -0.846755       -23.0414
  31   2.0000      -0.809549       -22.0289
  32   2.0000      -0.786330       -21.3971
  33   2.0000      -0.767896       -20.8955
  34   2.0000      -0.707523       -19.2527
  35   2.0000      -0.700605       -19.0644
  36   2.0000      -0.695922       -18.9370
  37   2.0000      -0.662584       -18.0298
  38   2.0000      -0.639449       -17.4003
  39   2.0000      -0.616621       -16.7791
  40   2.0000      -0.596872       -16.2417
  41   2.0000      -0.574148       -15.6234
  42   2.0000      -0.557577       -15.1724
  43   2.0000      -0.553123       -15.0513
  44   2.0000      -0.521701       -14.1962
  45   2.0000      -0.521297       -14.1852
  46   2.0000      -0.519963       -14.1489
  47   2.0000      -0.513677       -13.9779
  48   2.0000      -0.509358       -13.8603
  49   2.0000      -0.504078       -13.7167
  50   2.0000      -0.494318       -13.4511
  51   2.0000      -0.474593       -12.9143
  52   2.0000      -0.469730       -12.7820
  53   2.0000      -0.463216       -12.6048
  54   2.0000      -0.458891       -12.4871
  55   2.0000      -0.452466       -12.3122
  56   2.0000      -0.446669       -12.1545
  57   2.0000      -0.434063       -11.8115
  58   2.0000      -0.433896       -11.8069
  59   2.0000      -0.428985       -11.6733
  60   2.0000      -0.421734       -11.4760
  61   2.0000      -0.420801       -11.4506
  62   2.0000      -0.418547       -11.3892
  63   2.0000      -0.344309        -9.3691
  64   2.0000      -0.331432        -9.0187
  65   2.0000      -0.321120        -8.7381
  66   2.0000      -0.285805        -7.7771
  67   0.0000       0.034543         0.9400
  68   0.0000       0.068285         1.8581
  69   0.0000       0.111126         3.0239
  70   0.0000       0.122373         3.3299
  71   0.0000       0.126882         3.4526

MULLIKEN ATOMIC CHARGES
-----------------------
   0 S :    0.098847
   1 C :   -0.124229
   2 C :   -0.102017
   3 C :    0.012335
   4 C :   -0.146472
   5 H :    0.017140
   6 C :    0.105282
   7 H :   -0.003656
   8 H :    0.022231
   9 C :   -0.055036
  10 H :    0.024948
  11 H :    0.030269
  12 C :   -0.034405
  13 H :    0.027377
  14 H :    0.043120
  15 H :    0.018668
  16 S :    0.147456
  17 C :   -0.060820
  18 C :   -0.044842
  19 C :   -0.039771
  20 C :   -0.206656
  21 H :    0.002799
  22 C :    0.058622
  23 H :    0.059938
  24 H :    0.022035
  25 C :   -0.109988
  26 H :    0.030624
  27 H :    0.043159
  28 C :   -0.035969
  29 H :    0.041646
  30 H :    0.035174
  31 H :    0.041778
  32 H :    0.044495
  33 H :    0.035919
Sum of atomic charges:    0.0000000

LOEWDIN ATOMIC CHARGES
----------------------
   0 S :    0.369657
   1 C :   -0.203961
   2 C :   -0.062356
   3 C :   -0.061891
   4 C :   -0.172054
   5 H :    0.033403
   6 C :   -0.024600
   7 H :    0.018634
   8 H :    0.032347
   9 C :   -0.034727
  10 H :    0.021709
  11 H :    0.025164
  12 C :   -0.067142
  13 H :    0.025368
  14 H :    0.033874
  15 H :    0.021694
  16 S :    0.440588
  17 C :   -0.203947
  18 C :   -0.069676
  19 C :   -0.041186
  20 C :   -0.213795
  21 H :    0.020301
  22 C :   -0.039054
  23 H :    0.041972
  24 H :    0.031570
  25 C :   -0.044170
  26 H :    0.025715
  27 H :    0.030780
  28 C :   -0.070546
  29 H :    0.026806
  30 H :    0.027575
  31 H :    0.033313
  32 H :    0.028300
  33 H :    0.020335

  Mayer bond orders larger than 0.100000
B(  0-S ,  1-C ) :   1.1234 B(  0-S ,  4-C ) :   1.1037 B(  1-C ,  2-C ) :   1.6486
B(  1-C , 32-H ) :   0.9603 B(  2-C ,  3-C ) :   1.1879 B(  2-C ,  6-C ) :   1.0249
B(  3-C ,  4-C ) :   1.6341 B(  3-C ,  5-H ) :   0.9848 B(  4-C , 20-C ) :   1.0798
B(  6-C ,  7-H ) :   0.9384 B(  6-C ,  8-H ) :   0.9277 B(  6-C ,  9-C ) :   1.0643
B(  9-C , 10-H ) :   0.9630 B(  9-C , 11-H ) :   0.9557 B(  9-C , 12-C ) :   1.0815
B( 12-C , 13-H ) :   0.9751 B( 12-C , 14-H ) :   0.9753 B( 12-C , 15-H ) :   0.9730
B( 16-S , 17-C ) :   1.1666 B( 16-S , 20-C ) :   1.1453 B( 17-C , 18-C ) :   1.5844
B( 17-C , 33-H ) :   0.9728 B( 18-C , 19-C ) :   1.2647 B( 18-C , 21-H ) :   0.9839
B( 19-C , 20-C ) :   1.5685 B( 19-C , 22-C ) :   1.0242 B( 22-C , 23-H ) :   0.9402
B( 22-C , 24-H ) :   0.9292 B( 22-C , 25-C ) :   1.0410 B( 25-C , 26-H ) :   0.9566
B( 25-C , 27-H ) :   0.9559 B( 25-C , 28-C ) :   1.0690 B( 28-C , 29-H ) :   0.9752
B( 28-C , 30-H ) :   0.9734 B( 28-C , 31-H ) :   0.9749

Dispersion correction           -0.013913973
FINAL SINGLE POINT ENERGY     -1339.865872244464

DIPOLE MOMENT
-------------
                                X             Y             Z
Electronic contribution:     20.51774     -13.70528     -17.70946
Nuclear contribution   :    -21.20125      13.86006      17.98373
                        -----------------------------------------
Total Dipole Moment    :     -0.68351       0.15478       0.27428
                        -----------------------------------------
Magnitude (a.u.)       :      0.75258
Magnitude (Debye)      :      1.91290

Rotational constants in cm-1:     0.016805     0.008663     0.006354
Rotational constants in MHz :   503.809052   259.706014   190.489925

                             ****ORCA TERMINATED NORMALLY****
TOTAL RUN TIME: 0 days 0 hours 0 minutes 21 seconds 291 msec
