                         Program Version 4.2.1 -  RELEASE  -
|  1> ! wB97X-D3 SP def2-SVP
|  2> %pal
|  3> nprocs 24
|  4> end
|  5>
|  6> * xyz 0 1
|  7> S 	 -37.1765 	 -12.1217 	 17.9599
|  8> C 	 -36.1364 	 -13.5414 	 18.0844
|  9> C 	 -35.9815 	 -14.1919 	 16.8796
| 10> C 	 -36.8556 	 -13.6387 	 15.9081
| 11> C 	 -37.6176 	 -12.5669 	 16.3227
| 12> H 	 -36.9794 	 -14.0441 	 14.9182
| 13> C 	 -35.0166 	 -15.3505 	 16.7384
| 14> H 	 -35.7085 	 -16.1893 	 16.4773
| 15> H 	 -34.5116 	 -15.6282 	 17.6661
| 16> C 	 -33.8642 	 -15.1043 	 15.6638
| 17> H 	 -33.1852 	 -15.9101 	 15.8106
| 18> H 	 -34.228 	 -15.162 	 14.6793
| 19> C 	 -33.1679 	 -13.806 	 15.9177
| 20> H 	 -32.5345 	 -13.3809 	 15.1432
| 21> H 	 -33.8975 	 -12.9999 	 16.0757
| 22> H 	 -32.5752 	 -13.8854 	 16.8085
| 23> S 	 -40.1259 	 -11.3576 	 16.3369
| 24> C 	 -40.6974 	 -10.7882 	 14.84
| 25> C 	 -39.862 	 -11.0283 	 13.7932
| 26> C 	 -38.6677 	 -11.7359 	 14.1501
| 27> C 	 -38.6338 	 -11.9532 	 15.5052
| 28> H 	 -40.1679 	 -10.8463 	 12.8213
| 29> C 	 -37.6211 	 -12.0645 	 13.0769
| 30> H 	 -38.1261 	 -12.2201 	 12.1072
| 31> H 	 -37.2975 	 -13.0707 	 13.1462
| 32> C 	 -36.4363 	 -11.1247 	 12.8052
| 33> H 	 -35.8875 	 -10.9404 	 13.722
| 34> H 	 -36.7544 	 -10.1933 	 12.4211
| 35> C 	 -35.4708 	 -11.7677 	 11.8028
| 36> H 	 -35.9202 	 -11.8993 	 10.7964
| 37> H 	 -35.2088 	 -12.7908 	 12.1554
| 38> H 	 -34.5656 	 -11.1218 	 11.6276
| 39> H 	 -35.5665 	 -13.7778 	 19.0319
| 40> H 	 -41.7103 	 -10.5009 	 14.717
| 41> *
| 42>
| 43>                          ****END OF INPUT****

CARTESIAN COORDINATES (ANGSTROEM)
---------------------------------
  S    -37.176500  -12.121700   17.959900
  C    -36.136400  -13.541400   18.084400
  C    -35.981500  -14.191900   16.879600
  C    -36.855600  -13.638700   15.908100
  C    -37.617600  -12.566900   16.322700
  H    -36.979400  -14.044100   14.918200
  C    -35.016600  -15.350500   16.738400
  H    -35.708500  -16.189300   16.477300
  H    -34.511600  -15.628200   17.666100
  C    -33.864200  -15.104300   15.663800
  H    -33.185200  -15.910100   15.810600
  H    -34.228000  -15.162000   14.679300
  C    -33.167900  -13.806000   15.917700
  H    -32.534500  -13.380900   15.143200
  H    -33.897500  -12.999900   16.075700
  H    -32.575200  -13.885400   16.808500
  S    -40.125900  -11.357600   16.336900
  C    -40.697400  -10.788200   14.840000
  C    -39.862000  -11.028300   13.793200
  C    -38.667700  -11.735900   14.150100
  C    -38.633800  -11.953200   15.505200
  H    -40.167900  -10.846300   12.821300
  C    -37.621100  -12.064500   13.076900
  H    -38.126100  -12.220100   12.107200
  H    -37.297500  -13.070700   13.146200
  C    -36.436300  -11.124700   12.805200
  H    -35.887500  -10.940400   13.722000
  H    -36.754400  -10.193300   12.421100
  C    -35.470800  -11.767700   11.802800
  H    -35.920200  -11.899300   10.796400
  H    -35.208800  -12.790800   12.155400
  H    -34.565600  -11.121800   11.627600
  H    -35.566500  -13.777800   19.031900
  H    -41.710300  -10.500900   14.717000

 Total Charge           Charge          ....    0
 Multiplicity           Mult            ....    1
 Number of Electrons    NEL             ....  134
 Basis Dimension        Dim             ....  322

ORBITAL ENERGIES
----------------

  NO   OCC          E(Eh)            E(eV)
   0   2.0000     -88.965615     -2420.8775
   1   2.0000     -88.965527     -2420.8751
   2   2.0000     -10.329637      -281.0837
   3   2.0000     -10.327279      -281.0195
   4   2.0000     -10.314269      -280.6655
   5   2.0000     -10.309099      -280.5249
   6   2.0000     -10.305753      -280.4338
   7   2.0000     -10.299076      -280.2521
   8   2.0000     -10.298945      -280.2485
   9   2.0000     -10.293887      -280.1109
  10   2.0000     -10.289792      -279.9995
  11   2.0000     -10.287181      -279.9284
  12   2.0000     -10.285595      -279.8853
  13   2.0000     -10.284030      -279.8427
  14   2.0000     -10.282506      -279.8012
  15   2.0000     -10.268986      -279.4333
  16   2.0000      -8.080664      -219.8860
  17   2.0000      -8.079981      -219.8675
  18   2.0000      -6.039046      -164.3308
  19   2.0000      -6.038512      -164.3163
  20   2.0000      -6.035252      -164.2276
  21   2.0000      -6.034610      -164.2101
  22   2.0000      -6.031399      -164.1227
  23   2.0000      -6.030682      -164.1032
  24   2.0000      -1.007360       -27.4117
  25   2.0000      -0.985072       -26.8052
  26   2.0000      -0.911607       -24.8061
  27   2.0000      -0.911007       -24.7898
  28   2.0000      -0.871172       -23.7058
  29   2.0000      -0.856698       -23.3119
  30   2.0000      -0.844639       -22.9838
  31   2.0000      -0.811547       -22.0833
  32   2.0000      -0.784702       -21.3528
  33   2.0000      -0.771639       -20.9974
  34   2.0000      -0.711552       -19.3623
  35   2.0000      -0.702724       -19.1221
  36   2.0000      -0.693296       -18.8655
  37   2.0000      -0.665672       -18.1138
  38   2.0000      -0.634452       -17.2643
  39   2.0000      -0.624694       -16.9988
  40   2.0000      -0.604780       -16.4569
  41   2.0000      -0.567769       -15.4498
  42   2.0000      -0.563647       -15.3376
  43   2.0000      -0.554864       -15.0986
  44   2.0000      -0.542034       -14.7495
  45   2.0000      -0.525884       -14.3100
  46   2.0000      -0.517373       -14.0784
  47   2.0000      -0.512553       -13.9473
  48   2.0000      -0.498522       -13.5655
  49   2.0000      -0.494820       -13.4647
  50   2.0000      -0.491664       -13.3789
  51   2.0000      -0.474481       -12.9113
  52   2.0000      -0.469250       -12.7689
  53   2.0000      -0.463653       -12.6166
  54   2.0000      -0.455361       -12.3910
  55   2.0000      -0.452613       -12.3162
  56   2.0000      -0.448519       -12.2048
  57   2.0000      -0.439682       -11.9644
  58   2.0000      -0.436211       -11.8699
  59   2.0000      -0.431353       -11.7377
  60   2.0000      -0.426666       -11.6102
  61   2.0000      -0.414176       -11.2703
  62   2.0000      -0.410352       -11.1662
  63   2.0000      -0.356759        -9.7079
  64   2.0000      -0.335504        -9.1295
  65   2.0000      -0.329779        -8.9738
  66   2.0000      -0.284290        -7.7359
  67   0.0000       0.025081         0.6825
  68   0.0000       0.078371         2.1326
  69   0.0000       0.105899         2.8816
  70   0.0000       0.115070         3.1312
  71   0.0000       0.125997         3.4286

MULLIKEN ATOMIC CHARGES
-----------------------
   0 S :    0.108104
   1 C :   -0.162889
   2 C :   -0.076887
   3 C :   -0.002641
   4 C :   -0.112586
   5 H :   -0.006780
   6 C :    0.045048
   7 H :    0.047192
   8 H :    0.021098
   9 C :   -0.024534
  10 H :    0.023089
  11 H :    0.018451
  12 C :   -0.058750
  13 H :    0.032213
  14 H :    0.043377
  15 H :    0.019907
  16 S :    0.107652
  17 C :   -0.069111
  18 C :   -0.000692
  19 C :   -0.014129
  20 C :   -0.163672
  21 H :   -0.014489
  22 C :    0.055051
  23 H :    0.004879
  24 H :   -0.008673
  25 C :   -0.001123
  26 H :    0.035522
  27 H :    0.018995
  28 C :   -0.092513
  29 H :    0.030939
  30 H :    0.033413
  31 H :    0.048580
  32 H :    0.068027
  33 H :    0.047933
Sum of atomic charges:   -0.0000000

LOEWDIN ATOMIC CHARGES
----------------------
   0 S :    0.390259
   1 C :   -0.202813
   2 C :   -0.068851
   3 C :   -0.066539
   4 C :   -0.190119
   5 H :    0.025263
   6 C :   -0.026201
   7 H :    0.039139
   8 H :    0.029025
   9 C :   -0.030872
  10 H :    0.021932
  11 H :    0.014620
  12 C :   -0.069083
  13 H :    0.026561
  14 H :    0.030449
  15 H :    0.022251
  16 S :    0.398915
  17 C :   -0.188686
  18 C :   -0.061214
  19 C :   -0.049918
  20 C :   -0.171419
  21 H :    0.018535
  22 C :   -0.034140
  23 H :    0.034087
  24 H :    0.019065
  25 C :   -0.029962
  26 H :    0.027110
  27 H :    0.019082
  28 C :   -0.070185
  29 H :    0.024099
  30 H :    0.025191
  31 H :    0.033438
  32 H :    0.037674
  33 H :    0.023307

  Mayer bond orders larger than 0.100000
B(  0-S ,  1-C ) :   1.1292 B(  0-S ,  4-C ) :   1.1400 B(  1-C ,  2-C ) :   1.6025
B(  1-C , 32-H ) :   0.9590 B(  2-C ,  3-C ) :   1.2410 B(  2-C ,  6-C ) :   1.0205
B(  3-C ,  4-C ) :   1.5595 B(  3-C ,  5-H ) :   1.0003 B(  4-C , 20-C ) :   1.0911
B(  6-C ,  7-H ) :   0.9407 B(  6-C ,  8-H ) :   0.9479 B(  6-C ,  9-C ) :   1.0568
B(  9-C , 10-H ) :   0.9607 B(  9-C , 11-H ) :   0.9581 B(  9-C , 12-C ) :   1.0760
B( 12-C , 13-H ) :   0.9737 B( 12-C , 14-H ) :   0.9702 B( 12-C , 15-H ) :   0.9754
B( 16-S , 17-C ) :   1.1541 B( 16-S , 20-C ) :   1.1243 B( 17-C , 18-C ) :   1.6196
B( 17-C , 33-H ) :   0.9660 B( 18-C , 19-C ) :   1.2338 B( 18-C , 21-H ) :   0.9992
B( 19-C , 20-C ) :   1.6174 B( 19-C , 22-C ) :   1.0290 B( 22-C , 23-H ) :   0.9222
B( 22-C , 24-H ) :   0.9334 B( 22-C , 25-C ) :   1.0641 B( 25-C , 26-H ) :   0.9547
B( 25-C , 27-H ) :   0.9517 B( 25-C , 28-C ) :   1.0784 B( 28-C , 29-H ) :   0.9750
B( 28-C , 30-H ) :   0.9745 B( 28-C , 31-H ) :   0.9727

Dispersion correction           -0.014957457
FINAL SINGLE POINT ENERGY     -1339.884913608463

DIPOLE MOMENT
-------------
                                X             Y             Z
Electronic contribution:    -23.73923       8.38051      18.58600
Nuclear contribution   :     24.05154      -8.68687     -19.17893
                        -----------------------------------------
Total Dipole Moment    :      0.31231      -0.30636      -0.59293
                        -----------------------------------------
Magnitude (a.u.)       :      0.73685
Magnitude (Debye)      :      1.87293

Rotational constants in cm-1:     0.017632     0.010312     0.007119
Rotational constants in MHz :   528.585734   309.142011   213.418332

                             ****ORCA TERMINATED NORMALLY****
TOTAL RUN TIME: 0 days 0 hours 0 minutes 21 seconds 307 msec
