                         Program Version 4.2.1 -  RELEASE  -
|  1> ! wB97X-D3 SP def2-SVP
|  2> %pal
|  3> nprocs 24
|  4> end
|  5>
|  6> * xyz 0 1
|  7> S 	 -43.026 	 18.1176 	 -95.0645
|  8> C 	 -42.0809 	 19.1697 	 -94.0199
|  9> C 	 -42.1642 	 18.814 	 -92.7055
| 10> C 	 -43.0717 	 17.7364 	 -92.4617
| 11> C 	 -43.6033 	 17.2184 	 -93.651
| 12> H 	 -43.4097 	 17.3437 	 -91.5115
| 13> C 	 -41.4258 	 19.5695 	 -91.5797
| 14> H 	 -41.6938 	 19.199 	 -90.5764
| 15> H 	 -41.6922 	 20.6571 	 -91.5822
| 16> C 	 -39.9056 	 19.4919 	 -91.6748
| 17> H 	 -39.4571 	 20.1989 	 -92.4045
| 18> H 	 -39.4674 	 19.6374 	 -90.6575
| 19> C 	 -39.392 	 18.129 	 -92.0779
| 20> H 	 -38.3167 	 18.114 	 -92.0246
| 21> H 	 -39.7837 	 17.3079 	 -91.3948
| 22> H 	 -39.7505 	 17.8082 	 -93.0157
| 23> S 	 -46.1504 	 16.5739 	 -94.3381
| 24> C 	 -46.8428 	 15.0697 	 -94.0292
| 25> C 	 -45.8913 	 14.1648 	 -93.5878
| 26> C 	 -44.6129 	 14.8052 	 -93.4329
| 27> C 	 -44.5739 	 16.1515 	 -93.8038
| 28> H 	 -46.2056 	 13.1667 	 -93.3702
| 29> C 	 -43.4398 	 14.0781 	 -92.9363
| 30> H 	 -43.6856 	 13.496 	 -92.0274
| 31> H 	 -42.8029 	 14.7966 	 -92.5469
| 32> C 	 -42.62 	 13.2869 	 -93.9749
| 33> H 	 -43.3353 	 12.6518 	 -94.4537
| 34> H 	 -41.8727 	 12.5335 	 -93.5835
| 35> C 	 -41.8678 	 14.1239 	 -95.0152
| 36> H 	 -41.3539 	 13.344 	 -95.6491
| 37> H 	 -41.0643 	 14.549 	 -94.3984
| 38> H 	 -42.4547 	 14.8828 	 -95.5393
| 39> H 	 -41.4369 	 19.9657 	 -94.3754
| 40> H 	 -47.8897 	 14.9136 	 -94.014
| 41> *
| 42>
| 43>                          ****END OF INPUT****

CARTESIAN COORDINATES (ANGSTROEM)
---------------------------------
  S    -43.026000   18.117600  -95.064500
  C    -42.080900   19.169700  -94.019900
  C    -42.164200   18.814000  -92.705500
  C    -43.071700   17.736400  -92.461700
  C    -43.603300   17.218400  -93.651000
  H    -43.409700   17.343700  -91.511500
  C    -41.425800   19.569500  -91.579700
  H    -41.693800   19.199000  -90.576400
  H    -41.692200   20.657100  -91.582200
  C    -39.905600   19.491900  -91.674800
  H    -39.457100   20.198900  -92.404500
  H    -39.467400   19.637400  -90.657500
  C    -39.392000   18.129000  -92.077900
  H    -38.316700   18.114000  -92.024600
  H    -39.783700   17.307900  -91.394800
  H    -39.750500   17.808200  -93.015700
  S    -46.150400   16.573900  -94.338100
  C    -46.842800   15.069700  -94.029200
  C    -45.891300   14.164800  -93.587800
  C    -44.612900   14.805200  -93.432900
  C    -44.573900   16.151500  -93.803800
  H    -46.205600   13.166700  -93.370200
  C    -43.439800   14.078100  -92.936300
  H    -43.685600   13.496000  -92.027400
  H    -42.802900   14.796600  -92.546900
  C    -42.620000   13.286900  -93.974900
  H    -43.335300   12.651800  -94.453700
  H    -41.872700   12.533500  -93.583500
  C    -41.867800   14.123900  -95.015200
  H    -41.353900   13.344000  -95.649100
  H    -41.064300   14.549000  -94.398400
  H    -42.454700   14.882800  -95.539300
  H    -41.436900   19.965700  -94.375400
  H    -47.889700   14.913600  -94.014000

 Total Charge           Charge          ....    0
 Multiplicity           Mult            ....    1
 Number of Electrons    NEL             ....  134
 Basis Dimension        Dim             ....  322

ORBITAL ENERGIES
----------------

  NO   OCC          E(Eh)            E(eV)
   0   2.0000     -88.970591     -2421.0129
   1   2.0000     -88.961600     -2420.7682
   2   2.0000     -10.335486      -281.2429
   3   2.0000     -10.323461      -280.9156
   4   2.0000     -10.314818      -280.6805
   5   2.0000     -10.311775      -280.5977
   6   2.0000     -10.303854      -280.3821
   7   2.0000     -10.303130      -280.3624
   8   2.0000     -10.300625      -280.2942
   9   2.0000     -10.298157      -280.2271
  10   2.0000     -10.292850      -280.0827
  11   2.0000     -10.288266      -279.9580
  12   2.0000     -10.281938      -279.7858
  13   2.0000     -10.277162      -279.6558
  14   2.0000     -10.275353      -279.6066
  15   2.0000     -10.269276      -279.4412
  16   2.0000      -8.084595      -219.9930
  17   2.0000      -8.078415      -219.8248
  18   2.0000      -6.043074      -164.4404
  19   2.0000      -6.039185      -164.3346
  20   2.0000      -6.036713      -164.2673
  21   2.0000      -6.035449      -164.2329
  22   2.0000      -6.032304      -164.1473
  23   2.0000      -6.029590      -164.0735
  24   2.0000      -1.013306       -27.5735
  25   2.0000      -0.988232       -26.8912
  26   2.0000      -0.913290       -24.8519
  27   2.0000      -0.910853       -24.7856
  28   2.0000      -0.871934       -23.7265
  29   2.0000      -0.849979       -23.1291
  30   2.0000      -0.845496       -23.0071
  31   2.0000      -0.815470       -22.1901
  32   2.0000      -0.784406       -21.3448
  33   2.0000      -0.772822       -21.0296
  34   2.0000      -0.705494       -19.1975
  35   2.0000      -0.695010       -18.9122
  36   2.0000      -0.691175       -18.8078
  37   2.0000      -0.659370       -17.9424
  38   2.0000      -0.641983       -17.4692
  39   2.0000      -0.614993       -16.7348
  40   2.0000      -0.598309       -16.2808
  41   2.0000      -0.579062       -15.7571
  42   2.0000      -0.555929       -15.1276
  43   2.0000      -0.554311       -15.0836
  44   2.0000      -0.551445       -15.0056
  45   2.0000      -0.535517       -14.5722
  46   2.0000      -0.515031       -14.0147
  47   2.0000      -0.510289       -13.8857
  48   2.0000      -0.501297       -13.6410
  49   2.0000      -0.499084       -13.5808
  50   2.0000      -0.495006       -13.4698
  51   2.0000      -0.476661       -12.9706
  52   2.0000      -0.472442       -12.8558
  53   2.0000      -0.465437       -12.6652
  54   2.0000      -0.455469       -12.3939
  55   2.0000      -0.444697       -12.1008
  56   2.0000      -0.442095       -12.0300
  57   2.0000      -0.435158       -11.8412
  58   2.0000      -0.429754       -11.6942
  59   2.0000      -0.421700       -11.4750
  60   2.0000      -0.414314       -11.2741
  61   2.0000      -0.412910       -11.2358
  62   2.0000      -0.405872       -11.0443
  63   2.0000      -0.344392        -9.3714
  64   2.0000      -0.334512        -9.1025
  65   2.0000      -0.327384        -8.9086
  66   2.0000      -0.299097        -8.1388
  67   0.0000       0.035312         0.9609
  68   0.0000       0.059371         1.6156
  69   0.0000       0.111200         3.0259
  70   0.0000       0.119686         3.2568
  71   0.0000       0.126085         3.4310

MULLIKEN ATOMIC CHARGES
-----------------------
   0 S :    0.115765
   1 C :   -0.115896
   2 C :   -0.103585
   3 C :    0.067681
   4 C :   -0.186214
   5 H :    0.016414
   6 C :    0.086404
   7 H :    0.019543
   8 H :    0.047581
   9 C :   -0.112597
  10 H :    0.036553
  11 H :    0.037462
  12 C :   -0.042281
  13 H :    0.032922
  14 H :    0.019005
  15 H :    0.029502
  16 S :    0.117595
  17 C :   -0.083663
  18 C :   -0.026914
  19 C :   -0.065242
  20 C :   -0.150743
  21 H :    0.012354
  22 C :    0.123320
  23 H :    0.024365
  24 H :   -0.021551
  25 C :   -0.082905
  26 H :    0.007991
  27 H :    0.030835
  28 C :   -0.053741
  29 H :    0.039130
  30 H :    0.030094
  31 H :    0.051017
  32 H :    0.048600
  33 H :    0.051199
Sum of atomic charges:    0.0000000

LOEWDIN ATOMIC CHARGES
----------------------
   0 S :    0.400611
   1 C :   -0.191752
   2 C :   -0.064799
   3 C :   -0.053460
   4 C :   -0.187253
   5 H :    0.034036
   6 C :   -0.033424
   7 H :    0.030569
   8 H :    0.039439
   9 C :   -0.049794
  10 H :    0.024202
  11 H :    0.031562
  12 C :   -0.067212
  13 H :    0.023133
  14 H :    0.027310
  15 H :    0.015508
  16 S :    0.452568
  17 C :   -0.195698
  18 C :   -0.071060
  19 C :   -0.050891
  20 C :   -0.226196
  21 H :    0.029848
  22 C :   -0.039617
  23 H :    0.035642
  24 H :    0.016251
  25 C :   -0.043278
  26 H :    0.011359
  27 H :    0.030248
  28 C :   -0.066034
  29 H :    0.034863
  30 H :    0.026569
  31 H :    0.022898
  32 H :    0.029424
  33 H :    0.024426

  Mayer bond orders larger than 0.100000
B(  0-S ,  1-C ) :   1.1302 B(  0-S ,  4-C ) :   1.1568 B(  1-C ,  2-C ) :   1.6233
B(  1-C , 32-H ) :   0.9692 B(  2-C ,  3-C ) :   1.2338 B(  2-C ,  6-C ) :   1.0127
B(  3-C ,  4-C ) :   1.5789 B(  3-C ,  5-H ) :   0.9942 B(  4-C , 20-C ) :   1.0178
B(  6-C ,  7-H ) :   0.9423 B(  6-C ,  8-H ) :   0.9459 B(  6-C ,  9-C ) :   1.0697
B(  9-C , 10-H ) :   0.9534 B(  9-C , 11-H ) :   0.9588 B(  9-C , 12-C ) :   1.0910
B( 12-C , 13-H ) :   0.9738 B( 12-C , 14-H ) :   0.9726 B( 12-C , 15-H ) :   0.9635
B( 16-S , 17-C ) :   1.2048 B( 16-S , 20-C ) :   1.1577 B( 17-C , 18-C ) :   1.5538
B( 17-C , 33-H ) :   0.9722 B( 18-C , 19-C ) :   1.2540 B( 18-C , 21-H ) :   1.0056
B( 19-C , 20-C ) :   1.5604 B( 19-C , 22-C ) :   1.0670 B( 22-C , 23-H ) :   0.9258
B( 22-C , 24-H ) :   0.9174 B( 22-C , 25-C ) :   1.0575 B( 25-C , 26-H ) :   0.9568
B( 25-C , 27-H ) :   0.9570 B( 25-C , 28-C ) :   1.0729 B( 28-C , 29-H ) :   0.9713
B( 28-C , 30-H ) :   0.9762 B( 28-C , 31-H ) :   0.9744

Dispersion correction           -0.015760995
FINAL SINGLE POINT ENERGY     -1339.883090812498

DIPOLE MOMENT
-------------
                                X             Y             Z
Electronic contribution:    -22.28183       6.34796     -10.04404
Nuclear contribution   :     22.47843      -6.46519      10.57295
                        -----------------------------------------
Total Dipole Moment    :      0.19660      -0.11723       0.52891
                        -----------------------------------------
Magnitude (a.u.)       :      0.57631
Magnitude (Debye)      :      1.46487

Rotational constants in cm-1:     0.021686     0.008957     0.007617
Rotational constants in MHz :   650.139236   268.511752   228.350865

                             ****ORCA TERMINATED NORMALLY****
TOTAL RUN TIME: 0 days 0 hours 0 minutes 22 seconds 860 msec
