                         Program Version 4.2.1 -  RELEASE  -
|  1> ! wB97X-D3 SP def2-SVP
|  2> %pal
|  3> nprocs 24
|  4> end
|  5>
|  6> * xyz 0 1
|  7> S 	 -144.694 	 28.1145 	 -21.7415
|  8> C 	 -145.614 	 26.6279 	 -21.8173
|  9> C 	 -144.717 	 25.5242 	 -21.7331
| 10> C 	 -143.293 	 25.8698 	 -21.5311
| 11> C 	 -143.1 	 27.2381 	 -21.6488
| 12> H 	 -142.365 	 25.2417 	 -21.4675
| 13> C 	 -145.126 	 24.1373 	 -21.8536
| 14> H 	 -144.764 	 23.8241 	 -22.8572
| 15> H 	 -146.259 	 24.1102 	 -21.9364
| 16> C 	 -144.545 	 23.0236 	 -20.9313
| 17> H 	 -143.446 	 23.0719 	 -20.8896
| 18> H 	 -144.982 	 23.2765 	 -19.968
| 19> C 	 -144.971 	 21.6064 	 -21.235
| 20> H 	 -144.462 	 21.274 	 -22.1713
| 21> H 	 -144.64 	 20.983 	 -20.3442
| 22> H 	 -146.019 	 21.5202 	 -21.2801
| 23> S 	 -141.82 	 29.7124 	 -21.616
| 24> C 	 -140.183 	 29.8471 	 -20.9575
| 25> C 	 -139.57 	 28.641 	 -20.7059
| 26> C 	 -140.568 	 27.6028 	 -20.8637
| 27> C 	 -141.871 	 27.9896 	 -21.2678
| 28> H 	 -138.529 	 28.6173 	 -20.3366
| 29> C 	 -140.133 	 26.1533 	 -20.6452
| 30> H 	 -140.062 	 25.6058 	 -21.526
| 31> H 	 -140.888 	 25.7016 	 -20.033
| 32> C 	 -138.746 	 25.973 	 -19.9754
| 33> H 	 -138.765 	 26.4655 	 -19.0366
| 34> H 	 -137.97 	 26.3337 	 -20.6548
| 35> C 	 -138.427 	 24.5435 	 -19.6209
| 36> H 	 -137.452 	 24.4714 	 -19.1245
| 37> H 	 -138.309 	 23.9465 	 -20.5236
| 38> H 	 -139.171 	 24.0442 	 -18.9778
| 39> H 	 -146.705 	 26.648 	 -21.9488
| 40> H 	 -139.594 	 30.8124 	 -20.8876
| 41> *
| 42>
| 43>                          ****END OF INPUT****

CARTESIAN COORDINATES (ANGSTROEM)
---------------------------------
  S    -144.694000   28.114500  -21.741500
  C    -145.614000   26.627900  -21.817300
  C    -144.717000   25.524200  -21.733100
  C    -143.293000   25.869800  -21.531100
  C    -143.100000   27.238100  -21.648800
  H    -142.365000   25.241700  -21.467500
  C    -145.126000   24.137300  -21.853600
  H    -144.764000   23.824100  -22.857200
  H    -146.259000   24.110200  -21.936400
  C    -144.545000   23.023600  -20.931300
  H    -143.446000   23.071900  -20.889600
  H    -144.982000   23.276500  -19.968000
  C    -144.971000   21.606400  -21.235000
  H    -144.462000   21.274000  -22.171300
  H    -144.640000   20.983000  -20.344200
  H    -146.019000   21.520200  -21.280100
  S    -141.820000   29.712400  -21.616000
  C    -140.183000   29.847100  -20.957500
  C    -139.570000   28.641000  -20.705900
  C    -140.568000   27.602800  -20.863700
  C    -141.871000   27.989600  -21.267800
  H    -138.529000   28.617300  -20.336600
  C    -140.133000   26.153300  -20.645200
  H    -140.062000   25.605800  -21.526000
  H    -140.888000   25.701600  -20.033000
  C    -138.746000   25.973000  -19.975400
  H    -138.765000   26.465500  -19.036600
  H    -137.970000   26.333700  -20.654800
  C    -138.427000   24.543500  -19.620900
  H    -137.452000   24.471400  -19.124500
  H    -138.309000   23.946500  -20.523600
  H    -139.171000   24.044200  -18.977800
  H    -146.705000   26.648000  -21.948800
  H    -139.594000   30.812400  -20.887600

 Total Charge           Charge          ....    0
 Multiplicity           Mult            ....    1
 Number of Electrons    NEL             ....  134
 Basis Dimension        Dim             ....  322

ORBITAL ENERGIES
----------------

  NO   OCC          E(Eh)            E(eV)
   0   2.0000     -88.966088     -2420.8903
   1   2.0000     -88.964067     -2420.8353
   2   2.0000     -10.341109      -281.3959
   3   2.0000     -10.334333      -281.2115
   4   2.0000     -10.323691      -280.9219
   5   2.0000     -10.323434      -280.9149
   6   2.0000     -10.312057      -280.6053
   7   2.0000     -10.311813      -280.5987
   8   2.0000     -10.304995      -280.4132
   9   2.0000     -10.300124      -280.2806
  10   2.0000     -10.293338      -280.0960
  11   2.0000     -10.289186      -279.9830
  12   2.0000     -10.286328      -279.9052
  13   2.0000     -10.284885      -279.8660
  14   2.0000     -10.283703      -279.8338
  15   2.0000     -10.279961      -279.7320
  16   2.0000      -8.080364      -219.8779
  17   2.0000      -8.077863      -219.8098
  18   2.0000      -6.038955      -164.3283
  19   2.0000      -6.036688      -164.2666
  20   2.0000      -6.035041      -164.2218
  21   2.0000      -6.032527      -164.1534
  22   2.0000      -6.030955      -164.1106
  23   2.0000      -6.028308      -164.0386
  24   2.0000      -0.997920       -27.1548
  25   2.0000      -0.975675       -26.5495
  26   2.0000      -0.914678       -24.8897
  27   2.0000      -0.910955       -24.7884
  28   2.0000      -0.869715       -23.6661
  29   2.0000      -0.853864       -23.2348
  30   2.0000      -0.846206       -23.0264
  31   2.0000      -0.819706       -22.3053
  32   2.0000      -0.778182       -21.1754
  33   2.0000      -0.763430       -20.7740
  34   2.0000      -0.709144       -19.2968
  35   2.0000      -0.698535       -19.0081
  36   2.0000      -0.688673       -18.7397
  37   2.0000      -0.650004       -17.6875
  38   2.0000      -0.637218       -17.3396
  39   2.0000      -0.617980       -16.8161
  40   2.0000      -0.594905       -16.1882
  41   2.0000      -0.583934       -15.8896
  42   2.0000      -0.573809       -15.6141
  43   2.0000      -0.564840       -15.3701
  44   2.0000      -0.533514       -14.5177
  45   2.0000      -0.518342       -14.1048
  46   2.0000      -0.515268       -14.0211
  47   2.0000      -0.512341       -13.9415
  48   2.0000      -0.503958       -13.7134
  49   2.0000      -0.499036       -13.5795
  50   2.0000      -0.487957       -13.2780
  51   2.0000      -0.478568       -13.0225
  52   2.0000      -0.471112       -12.8196
  53   2.0000      -0.470648       -12.8070
  54   2.0000      -0.457684       -12.4542
  55   2.0000      -0.454691       -12.3728
  56   2.0000      -0.446920       -12.1613
  57   2.0000      -0.436265       -11.8714
  58   2.0000      -0.430018       -11.7014
  59   2.0000      -0.423425       -11.5220
  60   2.0000      -0.416819       -11.3422
  61   2.0000      -0.415718       -11.3123
  62   2.0000      -0.410886       -11.1808
  63   2.0000      -0.362716        -9.8700
  64   2.0000      -0.333312        -9.0699
  65   2.0000      -0.319404        -8.6914
  66   2.0000      -0.280434        -7.6310
  67   0.0000       0.017454         0.4750
  68   0.0000       0.081931         2.2295
  69   0.0000       0.092526         2.5178
  70   0.0000       0.110119         2.9965
  71   0.0000       0.131893         3.5890

MULLIKEN ATOMIC CHARGES
-----------------------
   0 S :    0.072454
   1 C :   -0.121280
   2 C :   -0.054138
   3 C :   -0.049381
   4 C :   -0.078873
   5 H :    0.044130
   6 C :    0.013707
   7 H :    0.032535
   8 H :    0.023359
   9 C :   -0.087752
  10 H :    0.035651
  11 H :    0.027586
  12 C :   -0.046837
  13 H :    0.041335
  14 H :    0.046400
  15 H :    0.025768
  16 S :    0.089451
  17 C :   -0.094735
  18 C :   -0.047580
  19 C :   -0.085452
  20 C :   -0.106160
  21 H :    0.047453
  22 C :    0.027460
  23 H :    0.031777
  24 H :    0.033041
  25 C :   -0.081115
  26 H :    0.028282
  27 H :    0.039547
  28 C :   -0.036633
  29 H :    0.033572
  30 H :    0.020232
  31 H :    0.034493
  32 H :    0.069391
  33 H :    0.072311
Sum of atomic charges:    0.0000000

LOEWDIN ATOMIC CHARGES
----------------------
   0 S :    0.366979
   1 C :   -0.203490
   2 C :   -0.057365
   3 C :   -0.074853
   4 C :   -0.161145
   5 H :    0.044612
   6 C :   -0.050617
   7 H :    0.035299
   8 H :    0.034052
   9 C :   -0.043201
  10 H :    0.024241
  11 H :    0.023131
  12 C :   -0.062579
  13 H :    0.028837
  14 H :    0.038808
  15 H :    0.017441
  16 S :    0.392717
  17 C :   -0.180729
  18 C :   -0.081556
  19 C :   -0.051532
  20 C :   -0.198435
  21 H :    0.046002
  22 C :   -0.033215
  23 H :    0.021020
  24 H :    0.028419
  25 C :   -0.040060
  26 H :    0.021087
  27 H :    0.026858
  28 C :   -0.064950
  29 H :    0.029313
  30 H :    0.020885
  31 H :    0.026221
  32 H :    0.036903
  33 H :    0.040903

  Mayer bond orders larger than 0.100000
B(  0-S ,  1-C ) :   1.1203 B(  0-S ,  4-C ) :   1.1278 B(  1-C ,  2-C ) :   1.5957
B(  1-C , 32-H ) :   0.9683 B(  2-C ,  3-C ) :   1.1899 B(  2-C ,  6-C ) :   1.0651
B(  3-C ,  4-C ) :   1.6133 B(  3-C ,  5-H ) :   0.9670 B(  4-C , 20-C ) :   1.0649
B(  6-C ,  7-H ) :   0.9258 B(  6-C ,  8-H ) :   0.9409 B(  6-C ,  9-C ) :   1.0493
B(  9-C , 10-H ) :   0.9499 B(  9-C , 11-H ) :   0.9562 B(  9-C , 12-C ) :   1.0940
B( 12-C , 13-H ) :   0.9740 B( 12-C , 14-H ) :   0.9721 B( 12-C , 15-H ) :   0.9744
B( 16-S , 17-C ) :   1.1640 B( 16-S , 20-C ) :   1.1158 B( 17-C , 18-C ) :   1.6081
B( 17-C , 33-H ) :   0.9508 B( 18-C , 19-C ) :   1.2519 B( 18-C , 21-H ) :   0.9802
B( 19-C , 20-C ) :   1.5912 B( 19-C , 22-C ) :   1.0275 B( 22-C , 23-H ) :   0.9255
B( 22-C , 24-H ) :   0.9314 B( 22-C , 25-C ) :   1.0941 B( 25-C , 26-H ) :   0.9506
B( 25-C , 27-H ) :   0.9403 B( 25-C , 28-C ) :   1.0970 B( 28-C , 29-H ) :   0.9699
B( 28-C , 30-H ) :   0.9714 B( 28-C , 31-H ) :   0.9732

Dispersion correction           -0.013080352
FINAL SINGLE POINT ENERGY     -1339.861850530200

DIPOLE MOMENT
-------------
                                X             Y             Z
Electronic contribution:     -8.79608      31.82440      -6.95102
Nuclear contribution   :      9.20957     -32.54572       7.11251
                        -----------------------------------------
Total Dipole Moment    :      0.41349      -0.72132       0.16149
                        -----------------------------------------
Magnitude (a.u.)       :      0.84697
Magnitude (Debye)      :      2.15283

Rotational constants in cm-1:     0.015703     0.009200     0.005874
Rotational constants in MHz :   470.760967   275.802054   176.106173

                             ****ORCA TERMINATED NORMALLY****
TOTAL RUN TIME: 0 days 0 hours 0 minutes 21 seconds 177 msec
