                         Program Version 4.2.1 -  RELEASE  -
|  1> ! wB97X-D3 SP def2-SVP
|  2> %pal
|  3> nprocs 24
|  4> end
|  5>
|  6> * xyz 0 1
|  7> S 	 39.9666 	 -26.7847 	 -109.221
|  8> C 	 41.6826 	 -26.476 	 -108.891
|  9> C 	 42.0939 	 -25.2801 	 -109.429
| 10> C 	 40.9871 	 -24.6074 	 -110.129
| 11> C 	 39.7803 	 -25.3499 	 -110.249
| 12> H 	 41.1452 	 -23.7272 	 -110.734
| 13> C 	 43.4455 	 -24.6101 	 -109.182
| 14> H 	 44.0554 	 -24.757 	 -109.986
| 15> H 	 43.9716 	 -25.1566 	 -108.309
| 16> C 	 43.4835 	 -23.095 	 -109.006
| 17> H 	 44.4949 	 -22.846 	 -109.036
| 18> H 	 43.0489 	 -22.6505 	 -109.865
| 19> C 	 42.7601 	 -22.6062 	 -107.747
| 20> H 	 43.1528 	 -23.1239 	 -106.84
| 21> H 	 42.727 	 -21.5492 	 -107.662
| 22> H 	 41.6957 	 -22.7374 	 -107.759
| 23> S 	 37.7375 	 -26.2835 	 -111.991
| 24> C 	 36.5868 	 -25.1063 	 -112.555
| 25> C 	 36.8642 	 -23.8174 	 -112.097
| 26> C 	 38.0252 	 -23.828 	 -111.273
| 27> C 	 38.5649 	 -25.0619 	 -111.014
| 28> H 	 36.2919 	 -22.9406 	 -112.384
| 29> C 	 38.4302 	 -22.543 	 -110.616
| 30> H 	 39.3939 	 -22.6444 	 -110.069
| 31> H 	 37.716 	 -22.2048 	 -109.898
| 32> C 	 38.7073 	 -21.3493 	 -111.62
| 33> H 	 37.8182 	 -21.2692 	 -112.276
| 34> H 	 39.6295 	 -21.5235 	 -112.136
| 35> C 	 39.0067 	 -20.0399 	 -110.944
| 36> H 	 39.1461 	 -19.2474 	 -111.733
| 37> H 	 40.0206 	 -20.1871 	 -110.465
| 38> H 	 38.2707 	 -19.7385 	 -110.107
| 39> H 	 42.4339 	 -27.0323 	 -108.304
| 40> H 	 35.7718 	 -25.343 	 -113.208
| 41> *
| 42>
| 43>                          ****END OF INPUT****

CARTESIAN COORDINATES (ANGSTROEM)
---------------------------------
  S     39.966600  -26.784700  -109.221000
  C     41.682600  -26.476000  -108.891000
  C     42.093900  -25.280100  -109.429000
  C     40.987100  -24.607400  -110.129000
  C     39.780300  -25.349900  -110.249000
  H     41.145200  -23.727200  -110.734000
  C     43.445500  -24.610100  -109.182000
  H     44.055400  -24.757000  -109.986000
  H     43.971600  -25.156600  -108.309000
  C     43.483500  -23.095000  -109.006000
  H     44.494900  -22.846000  -109.036000
  H     43.048900  -22.650500  -109.865000
  C     42.760100  -22.606200  -107.747000
  H     43.152800  -23.123900  -106.840000
  H     42.727000  -21.549200  -107.662000
  H     41.695700  -22.737400  -107.759000
  S     37.737500  -26.283500  -111.991000
  C     36.586800  -25.106300  -112.555000
  C     36.864200  -23.817400  -112.097000
  C     38.025200  -23.828000  -111.273000
  C     38.564900  -25.061900  -111.014000
  H     36.291900  -22.940600  -112.384000
  C     38.430200  -22.543000  -110.616000
  H     39.393900  -22.644400  -110.069000
  H     37.716000  -22.204800  -109.898000
  C     38.707300  -21.349300  -111.620000
  H     37.818200  -21.269200  -112.276000
  H     39.629500  -21.523500  -112.136000
  C     39.006700  -20.039900  -110.944000
  H     39.146100  -19.247400  -111.733000
  H     40.020600  -20.187100  -110.465000
  H     38.270700  -19.738500  -110.107000
  H     42.433900  -27.032300  -108.304000
  H     35.771800  -25.343000  -113.208000

 Total Charge           Charge          ....    0
 Multiplicity           Mult            ....    1
 Number of Electrons    NEL             ....  134
 Basis Dimension        Dim             ....  322

ORBITAL ENERGIES
----------------

  NO   OCC          E(Eh)            E(eV)
   0   2.0000     -88.970492     -2421.0102
   1   2.0000     -88.967011     -2420.9155
   2   2.0000     -10.340089      -281.3681
   3   2.0000     -10.330589      -281.1096
   4   2.0000     -10.322334      -280.8850
   5   2.0000     -10.316751      -280.7331
   6   2.0000     -10.304215      -280.3919
   7   2.0000     -10.302018      -280.3322
   8   2.0000     -10.300626      -280.2943
   9   2.0000     -10.297964      -280.2218
  10   2.0000     -10.293223      -280.0928
  11   2.0000     -10.292560      -280.0748
  12   2.0000     -10.289023      -279.9785
  13   2.0000     -10.288391      -279.9614
  14   2.0000     -10.282786      -279.8088
  15   2.0000     -10.273465      -279.5552
  16   2.0000      -8.085001      -220.0041
  17   2.0000      -8.080619      -219.8848
  18   2.0000      -6.043519      -164.4525
  19   2.0000      -6.039549      -164.3445
  20   2.0000      -6.039395      -164.3403
  21   2.0000      -6.035736      -164.2407
  22   2.0000      -6.035200      -164.2261
  23   2.0000      -6.031224      -164.1180
  24   2.0000      -1.004362       -27.3301
  25   2.0000      -0.978911       -26.6375
  26   2.0000      -0.915128       -24.9019
  27   2.0000      -0.910070       -24.7643
  28   2.0000      -0.870924       -23.6990
  29   2.0000      -0.856275       -23.3004
  30   2.0000      -0.838151       -22.8073
  31   2.0000      -0.811975       -22.0950
  32   2.0000      -0.787821       -21.4377
  33   2.0000      -0.773334       -21.0435
  34   2.0000      -0.712285       -19.3823
  35   2.0000      -0.697060       -18.9680
  36   2.0000      -0.691641       -18.8205
  37   2.0000      -0.661952       -18.0126
  38   2.0000      -0.632715       -17.2170
  39   2.0000      -0.620495       -16.8845
  40   2.0000      -0.601470       -16.3668
  41   2.0000      -0.571517       -15.5518
  42   2.0000      -0.571087       -15.5401
  43   2.0000      -0.563078       -15.3221
  44   2.0000      -0.538157       -14.6440
  45   2.0000      -0.524019       -14.2593
  46   2.0000      -0.519908       -14.1474
  47   2.0000      -0.513796       -13.9811
  48   2.0000      -0.504272       -13.7219
  49   2.0000      -0.496524       -13.5111
  50   2.0000      -0.489463       -13.3190
  51   2.0000      -0.479187       -13.0393
  52   2.0000      -0.470975       -12.8159
  53   2.0000      -0.461018       -12.5449
  54   2.0000      -0.459341       -12.4993
  55   2.0000      -0.455318       -12.3898
  56   2.0000      -0.442320       -12.0362
  57   2.0000      -0.432655       -11.7731
  58   2.0000      -0.430798       -11.7226
  59   2.0000      -0.430409       -11.7120
  60   2.0000      -0.423638       -11.5278
  61   2.0000      -0.417260       -11.3542
  62   2.0000      -0.409992       -11.1565
  63   2.0000      -0.353119        -9.6088
  64   2.0000      -0.334588        -9.1046
  65   2.0000      -0.326174        -8.8756
  66   2.0000      -0.290056        -7.8928
  67   0.0000       0.022301         0.6068
  68   0.0000       0.074378         2.0239
  69   0.0000       0.109036         2.9670
  70   0.0000       0.113886         3.0990
  71   0.0000       0.115974         3.1558

MULLIKEN ATOMIC CHARGES
-----------------------
   0 S :    0.101785
   1 C :   -0.117596
   2 C :   -0.099852
   3 C :    0.019164
   4 C :   -0.166379
   5 H :    0.013555
   6 C :    0.065263
   7 H :    0.013907
   8 H :    0.028474
   9 C :   -0.028377
  10 H :    0.015739
  11 H :    0.009255
  12 C :   -0.033807
  13 H :    0.037451
  14 H :    0.018498
  15 H :    0.024755
  16 S :    0.118099
  17 C :   -0.086996
  18 C :   -0.026936
  19 C :   -0.025956
  20 C :   -0.107862
  21 H :    0.028808
  22 C :    0.040577
  23 H :    0.010545
  24 H :    0.031971
  25 C :   -0.092691
  26 H :    0.032968
  27 H :    0.029247
  28 C :   -0.087862
  29 H :    0.050665
  30 H :    0.029880
  31 H :    0.047342
  32 H :    0.051072
  33 H :    0.055293
Sum of atomic charges:    0.0000000

LOEWDIN ATOMIC CHARGES
----------------------
   0 S :    0.386434
   1 C :   -0.199083
   2 C :   -0.062571
   3 C :   -0.069727
   4 C :   -0.178065
   5 H :    0.022584
   6 C :   -0.026901
   7 H :    0.020228
   8 H :    0.036560
   9 C :   -0.029313
  10 H :    0.020767
  11 H :    0.018501
  12 C :   -0.067589
  13 H :    0.031269
  14 H :    0.021749
  15 H :    0.025827
  16 S :    0.409292
  17 C :   -0.174761
  18 C :   -0.067875
  19 C :   -0.053684
  20 C :   -0.201700
  21 H :    0.034453
  22 C :   -0.031989
  23 H :    0.028765
  24 H :    0.027877
  25 C :   -0.042688
  26 H :    0.019043
  27 H :    0.023783
  28 C :   -0.077227
  29 H :    0.033894
  30 H :    0.027274
  31 H :    0.030222
  32 H :    0.038237
  33 H :    0.026414

  Mayer bond orders larger than 0.100000
B(  0-S ,  1-C ) :   1.1182 B(  0-S ,  4-C ) :   1.1397 B(  1-C ,  2-C ) :   1.6536
B(  1-C , 32-H ) :   0.9574 B(  2-C ,  3-C ) :   1.2358 B(  2-C ,  6-C ) :   1.0113
B(  3-C ,  4-C ) :   1.5773 B(  3-C ,  5-H ) :   0.9746 B(  4-C , 20-C ) :   1.0603
B(  6-C ,  7-H ) :   0.9258 B(  6-C ,  8-H ) :   0.9448 B(  6-C ,  9-C ) :   1.0966
B(  9-C , 10-H ) :   0.9497 B(  9-C , 11-H ) :   0.9417 B(  9-C , 12-C ) :   1.0828
B( 12-C , 13-H ) :   0.9756 B( 12-C , 14-H ) :   0.9711 B( 12-C , 15-H ) :   0.9694
B( 16-S , 17-C ) :   1.1713 B( 16-S , 20-C ) :   1.1174 B( 17-C , 18-C ) :   1.5870
B( 17-C , 33-H ) :   0.9691 B( 18-C , 19-C ) :   1.2425 B( 18-C , 21-H ) :   0.9911
B( 19-C , 20-C ) :   1.5971 B( 19-C , 22-C ) :   1.0496 B( 22-C , 23-H ) :   0.9326
B( 22-C , 24-H ) :   0.9396 B( 22-C , 25-C ) :   1.0552 B( 25-C , 26-H ) :   0.9570
B( 25-C , 27-H ) :   0.9552 B( 25-C , 28-C ) :   1.0841 B( 28-C , 29-H ) :   0.9715
B( 28-C , 30-H ) :   0.9731 B( 28-C , 31-H ) :   0.9718

Dispersion correction           -0.014502492
FINAL SINGLE POINT ENERGY     -1339.869544220415

DIPOLE MOMENT
-------------
                                X             Y             Z
Electronic contribution:    -13.79231     -28.84088      -5.95658
Nuclear contribution   :     14.06237      29.56668       5.81113
                        -----------------------------------------
Total Dipole Moment    :      0.27006       0.72580      -0.14544
                        -----------------------------------------
Magnitude (a.u.)       :      0.78795
Magnitude (Debye)      :      2.00281

Rotational constants in cm-1:     0.016338     0.010342     0.006727
Rotational constants in MHz :   489.814362   310.056292   201.659601

                             ****ORCA TERMINATED NORMALLY****
TOTAL RUN TIME: 0 days 0 hours 0 minutes 22 seconds 140 msec
