                         Program Version 4.2.1 -  RELEASE  -
|  1> ! wB97X-D3 SP def2-SVP
|  2> %pal
|  3> nprocs 24
|  4> end
|  5>
|  6> * xyz 0 1
|  7> S 	 -121.778 	 60.0178 	 -32.3559
|  8> C 	 -120.313 	 59.2109 	 -32.2828
|  9> C 	 -120.256 	 58.1984 	 -33.2678
| 10> C 	 -121.484 	 58.0615 	 -33.995
| 11> C 	 -122.443 	 58.9946 	 -33.6178
| 12> H 	 -121.551 	 57.3483 	 -34.8303
| 13> C 	 -119.085 	 57.3 	 -33.4295
| 14> H 	 -118.218 	 57.4612 	 -32.7983
| 15> H 	 -118.661 	 57.6383 	 -34.2788
| 16> C 	 -119.415 	 55.8023 	 -33.5816
| 17> H 	 -120.018 	 55.7109 	 -34.5374
| 18> H 	 -118.44 	 55.3044 	 -33.7718
| 19> C 	 -119.933 	 55.06 	 -32.3573
| 20> H 	 -119.937 	 53.961 	 -32.4986
| 21> H 	 -119.197 	 55.2405 	 -31.5565
| 22> H 	 -120.881 	 55.3613 	 -31.9067
| 23> S 	 -125.037 	 59.6181 	 -32.9193
| 24> C 	 -126.255 	 59.4589 	 -34.0941
| 25> C 	 -125.712 	 59.3415 	 -35.4226
| 26> C 	 -124.325 	 59.0304 	 -35.3949
| 27> C 	 -123.78 	 59.1077 	 -34.1171
| 28> H 	 -126.392 	 59.3233 	 -36.2368
| 29> C 	 -123.517 	 58.7926 	 -36.6917
| 30> H 	 -123.421 	 57.7253 	 -36.8329
| 31> H 	 -122.493 	 59.0594 	 -36.4917
| 32> C 	 -123.977 	 59.3943 	 -38.0331
| 33> H 	 -124.027 	 60.5372 	 -37.9712
| 34> H 	 -124.956 	 59.058 	 -38.3658
| 35> C 	 -123.028 	 59.02 	 -39.1549
| 36> H 	 -123.277 	 59.3761 	 -40.2248
| 37> H 	 -123.045 	 57.9381 	 -39.2914
| 38> H 	 -121.994 	 59.3819 	 -38.9138
| 39> H 	 -119.514 	 59.3133 	 -31.5315
| 40> H 	 -127.277 	 59.6957 	 -34.0871
| 41> *
| 42>
| 43>                          ****END OF INPUT****

CARTESIAN COORDINATES (ANGSTROEM)
---------------------------------
  S    -121.778000   60.017800  -32.355900
  C    -120.313000   59.210900  -32.282800
  C    -120.256000   58.198400  -33.267800
  C    -121.484000   58.061500  -33.995000
  C    -122.443000   58.994600  -33.617800
  H    -121.551000   57.348300  -34.830300
  C    -119.085000   57.300000  -33.429500
  H    -118.218000   57.461200  -32.798300
  H    -118.661000   57.638300  -34.278800
  C    -119.415000   55.802300  -33.581600
  H    -120.018000   55.710900  -34.537400
  H    -118.440000   55.304400  -33.771800
  C    -119.933000   55.060000  -32.357300
  H    -119.937000   53.961000  -32.498600
  H    -119.197000   55.240500  -31.556500
  H    -120.881000   55.361300  -31.906700
  S    -125.037000   59.618100  -32.919300
  C    -126.255000   59.458900  -34.094100
  C    -125.712000   59.341500  -35.422600
  C    -124.325000   59.030400  -35.394900
  C    -123.780000   59.107700  -34.117100
  H    -126.392000   59.323300  -36.236800
  C    -123.517000   58.792600  -36.691700
  H    -123.421000   57.725300  -36.832900
  H    -122.493000   59.059400  -36.491700
  C    -123.977000   59.394300  -38.033100
  H    -124.027000   60.537200  -37.971200
  H    -124.956000   59.058000  -38.365800
  C    -123.028000   59.020000  -39.154900
  H    -123.277000   59.376100  -40.224800
  H    -123.045000   57.938100  -39.291400
  H    -121.994000   59.381900  -38.913800
  H    -119.514000   59.313300  -31.531500
  H    -127.277000   59.695700  -34.087100

 Total Charge           Charge          ....    0
 Multiplicity           Mult            ....    1
 Number of Electrons    NEL             ....  134
 Basis Dimension        Dim             ....  322

ORBITAL ENERGIES
----------------

  NO   OCC          E(Eh)            E(eV)
   0   2.0000     -88.970410     -2421.0079
   1   2.0000     -88.966511     -2420.9018
   2   2.0000     -10.330058      -281.0952
   3   2.0000     -10.329289      -281.0743
   4   2.0000     -10.315440      -280.6974
   5   2.0000     -10.309853      -280.5454
   6   2.0000     -10.309202      -280.5276
   7   2.0000     -10.298584      -280.2387
   8   2.0000     -10.295926      -280.1664
   9   2.0000     -10.295640      -280.1586
  10   2.0000     -10.294730      -280.1338
  11   2.0000     -10.294545      -280.1288
  12   2.0000     -10.294262      -280.1211
  13   2.0000     -10.288665      -279.9688
  14   2.0000     -10.279810      -279.7278
  15   2.0000     -10.278680      -279.6971
  16   2.0000      -8.084714      -219.9963
  17   2.0000      -8.082222      -219.9285
  18   2.0000      -6.043198      -164.4438
  19   2.0000      -6.040704      -164.3759
  20   2.0000      -6.039279      -164.3371
  21   2.0000      -6.036444      -164.2600
  22   2.0000      -6.035529      -164.2351
  23   2.0000      -6.033101      -164.1690
  24   2.0000      -1.008164       -27.4335
  25   2.0000      -0.984241       -26.7825
  26   2.0000      -0.914623       -24.8882
  27   2.0000      -0.910127       -24.7658
  28   2.0000      -0.871807       -23.7231
  29   2.0000      -0.854648       -23.2562
  30   2.0000      -0.846192       -23.0261
  31   2.0000      -0.813599       -22.1392
  32   2.0000      -0.785436       -21.3728
  33   2.0000      -0.771647       -20.9976
  34   2.0000      -0.710004       -19.3202
  35   2.0000      -0.700504       -19.0617
  36   2.0000      -0.690320       -18.7846
  37   2.0000      -0.656247       -17.8574
  38   2.0000      -0.637187       -17.3387
  39   2.0000      -0.628301       -17.0969
  40   2.0000      -0.595139       -16.1946
  41   2.0000      -0.569949       -15.5091
  42   2.0000      -0.566972       -15.4281
  43   2.0000      -0.551542       -15.0082
  44   2.0000      -0.540481       -14.7072
  45   2.0000      -0.524040       -14.2599
  46   2.0000      -0.511708       -13.9243
  47   2.0000      -0.511354       -13.9147
  48   2.0000      -0.509653       -13.8684
  49   2.0000      -0.498345       -13.5606
  50   2.0000      -0.489957       -13.3324
  51   2.0000      -0.477275       -12.9873
  52   2.0000      -0.471336       -12.8257
  53   2.0000      -0.467515       -12.7217
  54   2.0000      -0.460822       -12.5396
  55   2.0000      -0.450081       -12.2473
  56   2.0000      -0.445555       -12.1242
  57   2.0000      -0.441882       -12.0242
  58   2.0000      -0.427667       -11.6374
  59   2.0000      -0.424974       -11.5641
  60   2.0000      -0.420899       -11.4532
  61   2.0000      -0.417004       -11.3473
  62   2.0000      -0.407644       -11.0926
  63   2.0000      -0.355337        -9.6692
  64   2.0000      -0.333521        -9.0756
  65   2.0000      -0.325818        -8.8660
  66   2.0000      -0.278940        -7.5903
  67   0.0000       0.021839         0.5943
  68   0.0000       0.069809         1.8996
  69   0.0000       0.113322         3.0837
  70   0.0000       0.126065         3.4304
  71   0.0000       0.132727         3.6117

MULLIKEN ATOMIC CHARGES
-----------------------
   0 S :    0.125707
   1 C :   -0.126575
   2 C :   -0.113733
   3 C :    0.003052
   4 C :   -0.136160
   5 H :    0.019322
   6 C :    0.122374
   7 H :    0.001773
   8 H :   -0.000930
   9 C :   -0.106564
  10 H :    0.035581
  11 H :    0.027975
  12 C :   -0.041955
  13 H :    0.040362
  14 H :    0.019607
  15 H :    0.043511
  16 S :    0.121452
  17 C :   -0.053696
  18 C :   -0.075034
  19 C :    0.006414
  20 C :   -0.159641
  21 H :    0.010425
  22 C :    0.054200
  23 H :    0.029773
  24 H :    0.018673
  25 C :   -0.064097
  26 H :    0.047182
  27 H :    0.029163
  28 C :   -0.092169
  29 H :    0.046699
  30 H :    0.028620
  31 H :    0.040868
  32 H :    0.058352
  33 H :    0.039471
Sum of atomic charges:   -0.0000000

LOEWDIN ATOMIC CHARGES
----------------------
   0 S :    0.436646
   1 C :   -0.237206
   2 C :   -0.059704
   3 C :   -0.070276
   4 C :   -0.195437
   5 H :    0.032983
   6 C :   -0.037527
   7 H :    0.030446
   8 H :    0.023774
   9 C :   -0.043862
  10 H :    0.024695
  11 H :    0.030222
  12 C :   -0.071574
  13 H :    0.031087
  14 H :    0.027648
  15 H :    0.025692
  16 S :    0.414229
  17 C :   -0.195402
  18 C :   -0.067119
  19 C :   -0.044729
  20 C :   -0.184619
  21 H :    0.023461
  22 C :   -0.032233
  23 H :    0.031796
  24 H :    0.028601
  25 C :   -0.045811
  26 H :    0.033195
  27 H :    0.021417
  28 C :   -0.075177
  29 H :    0.035957
  30 H :    0.021877
  31 H :    0.027969
  32 H :    0.037130
  33 H :    0.021850

  Mayer bond orders larger than 0.100000
B(  0-S ,  1-C ) :   1.1542 B(  0-S ,  4-C ) :   1.1623 B(  1-C ,  2-C ) :   1.5614
B(  1-C , 32-H ) :   0.9664 B(  2-C ,  3-C ) :   1.2878 B(  2-C ,  6-C ) :   1.0230
B(  3-C ,  4-C ) :   1.5097 B(  3-C ,  5-H ) :   0.9886 B(  4-C , 20-C ) :   1.1035
B(  6-C ,  7-H ) :   0.9358 B(  6-C ,  8-H ) :   0.9092 B(  6-C ,  9-C ) :   1.0932
B(  9-C , 10-H ) :   0.9505 B(  9-C , 11-H ) :   0.9504 B(  9-C , 12-C ) :   1.0682
B( 12-C , 13-H ) :   0.9751 B( 12-C , 14-H ) :   0.9694 B( 12-C , 15-H ) :   0.9768
B( 16-S , 17-C ) :   1.1836 B( 16-S , 20-C ) :   1.1218 B( 17-C , 18-C ) :   1.5803
B( 17-C , 20-C ) :   0.1071 B( 17-C , 33-H ) :   0.9652 B( 18-C , 19-C ) :   1.2692
B( 18-C , 21-H ) :   0.9893 B( 19-C , 20-C ) :   1.5644 B( 19-C , 22-C ) :   1.0265
B( 22-C , 23-H ) :   0.9265 B( 22-C , 24-H ) :   0.9322 B( 22-C , 25-C ) :   1.0677
B( 25-C , 26-H ) :   0.9555 B( 25-C , 27-H ) :   0.9461 B( 25-C , 28-C ) :   1.0820
B( 28-C , 29-H ) :   0.9728 B( 28-C , 30-H ) :   0.9738 B( 28-C , 31-H ) :   0.9747

Dispersion correction           -0.013718928
FINAL SINGLE POINT ENERGY     -1339.865113789272

DIPOLE MOMENT
-------------
                                X             Y             Z
Electronic contribution:    -12.67610      15.44662      18.78138
Nuclear contribution   :     12.95583     -15.76616     -19.32917
                        -----------------------------------------
Total Dipole Moment    :      0.27973      -0.31954      -0.54778
                        -----------------------------------------
Magnitude (a.u.)       :      0.69313
Magnitude (Debye)      :      1.76179

Rotational constants in cm-1:     0.016492     0.008829     0.006795
Rotational constants in MHz :   494.417388   264.685922   203.709916

                             ****ORCA TERMINATED NORMALLY****
TOTAL RUN TIME: 0 days 0 hours 0 minutes 20 seconds 229 msec
