                         Program Version 4.2.1 -  RELEASE  -
|  1> ! wB97X-D3 SP def2-SVP
|  2> %pal
|  3> nprocs 24
|  4> end
|  5>
|  6> * xyz 0 1
|  7> S 	 -77.8198 	 -5.46196 	 -61.3226
|  8> C 	 -76.7472 	 -4.26253 	 -62.098
|  9> C 	 -77.4857 	 -3.23145 	 -62.6037
| 10> C 	 -78.8977 	 -3.5171 	 -62.6127
| 11> C 	 -79.2046 	 -4.6407 	 -61.9326
| 12> H 	 -79.6758 	 -2.92881 	 -63.0982
| 13> C 	 -76.8871 	 -1.98944 	 -63.2264
| 14> H 	 -76.2263 	 -1.45168 	 -62.5699
| 15> H 	 -77.6564 	 -1.25284 	 -63.4503
| 16> C 	 -76.2041 	 -2.32794 	 -64.5421
| 17> H 	 -75.592 	 -3.15686 	 -64.4395
| 18> H 	 -76.7934 	 -2.66523 	 -65.3785
| 19> C 	 -75.478 	 -1.1041 	 -65.1199
| 20> H 	 -74.732 	 -0.700571 	 -64.5343
| 21> H 	 -75.0718 	 -1.30428 	 -66.1233
| 22> H 	 -76.1613 	 -0.28702 	 -65.2803
| 23> S 	 -80.5913 	 -6.68219 	 -63.1468
| 24> C 	 -82.3076 	 -6.74085 	 -62.9343
| 25> C 	 -82.727 	 -5.91478 	 -61.9133
| 26> C 	 -81.6944 	 -5.06218 	 -61.4593
| 27> C 	 -80.4807 	 -5.33208 	 -62.0952
| 28> H 	 -83.7613 	 -5.9427 	 -61.754
| 29> C 	 -81.9254 	 -3.86123 	 -60.5132
| 30> H 	 -82.1126 	 -2.98598 	 -61.1341
| 31> H 	 -80.9634 	 -3.81217 	 -60.025
| 32> C 	 -83.0457 	 -4.01067 	 -59.4166
| 33> H 	 -83.9598 	 -3.79055 	 -59.8979
| 34> H 	 -82.7834 	 -3.31991 	 -58.7221
| 35> C 	 -83.0644 	 -5.31187 	 -58.6312
| 36> H 	 -83.4228 	 -6.17716 	 -59.2061
| 37> H 	 -83.6328 	 -5.10731 	 -57.7403
| 38> H 	 -82.0524 	 -5.546 	 -58.1964
| 39> H 	 -75.7061 	 -4.3854 	 -62.0314
| 40> H 	 -83.022 	 -7.29586 	 -63.4361
| 41> *
| 42>
| 43>                          ****END OF INPUT****

CARTESIAN COORDINATES (ANGSTROEM)
---------------------------------
  S    -77.819800   -5.461960  -61.322600
  C    -76.747200   -4.262530  -62.098000
  C    -77.485700   -3.231450  -62.603700
  C    -78.897700   -3.517100  -62.612700
  C    -79.204600   -4.640700  -61.932600
  H    -79.675800   -2.928810  -63.098200
  C    -76.887100   -1.989440  -63.226400
  H    -76.226300   -1.451680  -62.569900
  H    -77.656400   -1.252840  -63.450300
  C    -76.204100   -2.327940  -64.542100
  H    -75.592000   -3.156860  -64.439500
  H    -76.793400   -2.665230  -65.378500
  C    -75.478000   -1.104100  -65.119900
  H    -74.732000   -0.700571  -64.534300
  H    -75.071800   -1.304280  -66.123300
  H    -76.161300   -0.287020  -65.280300
  S    -80.591300   -6.682190  -63.146800
  C    -82.307600   -6.740850  -62.934300
  C    -82.727000   -5.914780  -61.913300
  C    -81.694400   -5.062180  -61.459300
  C    -80.480700   -5.332080  -62.095200
  H    -83.761300   -5.942700  -61.754000
  C    -81.925400   -3.861230  -60.513200
  H    -82.112600   -2.985980  -61.134100
  H    -80.963400   -3.812170  -60.025000
  C    -83.045700   -4.010670  -59.416600
  H    -83.959800   -3.790550  -59.897900
  H    -82.783400   -3.319910  -58.722100
  C    -83.064400   -5.311870  -58.631200
  H    -83.422800   -6.177160  -59.206100
  H    -83.632800   -5.107310  -57.740300
  H    -82.052400   -5.546000  -58.196400
  H    -75.706100   -4.385400  -62.031400
  H    -83.022000   -7.295860  -63.436100

 Total Charge           Charge          ....    0
 Multiplicity           Mult            ....    1
 Number of Electrons    NEL             ....  134
 Basis Dimension        Dim             ....  322

ORBITAL ENERGIES
----------------

  NO   OCC          E(Eh)            E(eV)
   0   2.0000     -88.963973     -2420.8328
   1   2.0000     -88.961557     -2420.7670
   2   2.0000     -10.319034      -280.7952
   3   2.0000     -10.316606      -280.7291
   4   2.0000     -10.312090      -280.6062
   5   2.0000     -10.305105      -280.4162
   6   2.0000     -10.301573      -280.3201
   7   2.0000     -10.297913      -280.2205
   8   2.0000     -10.291003      -280.0324
   9   2.0000     -10.289935      -280.0034
  10   2.0000     -10.287184      -279.9285
  11   2.0000     -10.283123      -279.8180
  12   2.0000     -10.276957      -279.6502
  13   2.0000     -10.276296      -279.6322
  14   2.0000     -10.275039      -279.5980
  15   2.0000     -10.269243      -279.4403
  16   2.0000      -8.079392      -219.8514
  17   2.0000      -8.076736      -219.7792
  18   2.0000      -6.037745      -164.2954
  19   2.0000      -6.035247      -164.2274
  20   2.0000      -6.033790      -164.1878
  21   2.0000      -6.031234      -164.1182
  22   2.0000      -6.030298      -164.0928
  23   2.0000      -6.027419      -164.0144
  24   2.0000      -1.010409       -27.4946
  25   2.0000      -0.986431       -26.8421
  26   2.0000      -0.916246       -24.9323
  27   2.0000      -0.904605       -24.6156
  28   2.0000      -0.870616       -23.6907
  29   2.0000      -0.849334       -23.1116
  30   2.0000      -0.846002       -23.0209
  31   2.0000      -0.818385       -22.2694
  32   2.0000      -0.783599       -21.3228
  33   2.0000      -0.771703       -20.9991
  34   2.0000      -0.713986       -19.4286
  35   2.0000      -0.703779       -19.1508
  36   2.0000      -0.695936       -18.9374
  37   2.0000      -0.654185       -17.8013
  38   2.0000      -0.650982       -17.7141
  39   2.0000      -0.619468       -16.8566
  40   2.0000      -0.589145       -16.0314
  41   2.0000      -0.574596       -15.6356
  42   2.0000      -0.561671       -15.2838
  43   2.0000      -0.558245       -15.1906
  44   2.0000      -0.540011       -14.6945
  45   2.0000      -0.530784       -14.4434
  46   2.0000      -0.520726       -14.1697
  47   2.0000      -0.515747       -14.0342
  48   2.0000      -0.509223       -13.8567
  49   2.0000      -0.493597       -13.4315
  50   2.0000      -0.489965       -13.3326
  51   2.0000      -0.476270       -12.9600
  52   2.0000      -0.465093       -12.6558
  53   2.0000      -0.464317       -12.6347
  54   2.0000      -0.461405       -12.5555
  55   2.0000      -0.452467       -12.3123
  56   2.0000      -0.445131       -12.1126
  57   2.0000      -0.443073       -12.0566
  58   2.0000      -0.438675       -11.9370
  59   2.0000      -0.423441       -11.5224
  60   2.0000      -0.415721       -11.3124
  61   2.0000      -0.411898       -11.2083
  62   2.0000      -0.410585       -11.1726
  63   2.0000      -0.341224        -9.2852
  64   2.0000      -0.326129        -8.8744
  65   2.0000      -0.323985        -8.8161
  66   2.0000      -0.301100        -8.1933
  67   0.0000       0.043977         1.1967
  68   0.0000       0.061191         1.6651
  69   0.0000       0.113091         3.0774
  70   0.0000       0.131045         3.5659
  71   0.0000       0.139027         3.7831

MULLIKEN ATOMIC CHARGES
-----------------------
   0 S :    0.095896
   1 C :   -0.136351
   2 C :   -0.049694
   3 C :    0.031944
   4 C :   -0.163359
   5 H :    0.020863
   6 C :    0.090789
   7 H :    0.028451
   8 H :    0.011657
   9 C :   -0.048732
  10 H :    0.003292
  11 H :    0.020850
  12 C :   -0.022515
  13 H :    0.011646
  14 H :    0.028949
  15 H :    0.014713
  16 S :    0.139320
  17 C :   -0.071732
  18 C :   -0.040003
  19 C :   -0.047850
  20 C :   -0.175005
  21 H :   -0.000393
  22 C :    0.078671
  23 H :    0.043761
  24 H :    0.025872
  25 C :   -0.022692
  26 H :    0.024010
  27 H :    0.008287
  28 C :   -0.063353
  29 H :    0.045079
  30 H :    0.028738
  31 H :    0.031313
  32 H :    0.038115
  33 H :    0.019466
Sum of atomic charges:    0.0000000

LOEWDIN ATOMIC CHARGES
----------------------
   0 S :    0.393628
   1 C :   -0.171016
   2 C :   -0.056315
   3 C :   -0.054461
   4 C :   -0.207297
   5 H :    0.036294
   6 C :   -0.026677
   7 H :    0.030580
   8 H :    0.029274
   9 C :   -0.033877
  10 H :    0.011850
  11 H :    0.028743
  12 C :   -0.059458
  13 H :    0.010185
  14 H :    0.028944
  15 H :    0.022553
  16 S :    0.433710
  17 C :   -0.181668
  18 C :   -0.071547
  19 C :   -0.056781
  20 C :   -0.219816
  21 H :    0.023037
  22 C :   -0.025829
  23 H :    0.033325
  24 H :    0.028092
  25 C :   -0.030618
  26 H :    0.018279
  27 H :    0.016845
  28 C :   -0.065211
  29 H :    0.025864
  30 H :    0.025554
  31 H :    0.032378
  32 H :    0.016626
  33 H :    0.014811

  Mayer bond orders larger than 0.100000
B(  0-S ,  1-C ) :   1.1273 B(  0-S ,  4-C ) :   1.1493 B(  1-C ,  2-C ) :   1.6139
B(  1-C , 32-H ) :   0.9832 B(  2-C ,  3-C ) :   1.2179 B(  2-C ,  6-C ) :   1.0244
B(  3-C ,  4-C ) :   1.6118 B(  3-C ,  5-H ) :   0.9906 B(  4-C , 20-C ) :   1.0025
B(  6-C ,  7-H ) :   0.9432 B(  6-C ,  8-H ) :   0.9387 B(  6-C ,  9-C ) :   1.0568
B(  9-C , 10-H ) :   0.9588 B(  9-C , 11-H ) :   0.9520 B(  9-C , 12-C ) :   1.0820
B( 12-C , 13-H ) :   0.9766 B( 12-C , 14-H ) :   0.9732 B( 12-C , 15-H ) :   0.9714
B( 16-S , 17-C ) :   1.1652 B( 16-S , 20-C ) :   1.1593 B( 17-C , 18-C ) :   1.6199
B( 17-C , 33-H ) :   0.9699 B( 18-C , 19-C ) :   1.2377 B( 18-C , 21-H ) :   0.9976
B( 19-C , 20-C ) :   1.5946 B( 19-C , 22-C ) :   1.0208 B( 22-C , 23-H ) :   0.9420
B( 22-C , 24-H ) :   0.9239 B( 22-C , 25-C ) :   1.0803 B( 25-C , 26-H ) :   0.9513
B( 25-C , 27-H ) :   0.9524 B( 25-C , 28-C ) :   1.0930 B( 28-C , 29-H ) :   0.9724
B( 28-C , 30-H ) :   0.9731 B( 28-C , 31-H ) :   0.9718

Dispersion correction           -0.014015022
FINAL SINGLE POINT ENERGY     -1339.860285067899

DIPOLE MOMENT
-------------
                                X             Y             Z
Electronic contribution:      0.61648     -18.14236      -1.14162
Nuclear contribution   :     -0.76782      18.71213       1.02581
                        -----------------------------------------
Total Dipole Moment    :     -0.15133       0.56978      -0.11581
                        -----------------------------------------
Magnitude (a.u.)       :      0.60080
Magnitude (Debye)      :      1.52711

Rotational constants in cm-1:     0.024013     0.006871     0.006401
Rotational constants in MHz :   719.902779   205.983104   191.908099

                             ****ORCA TERMINATED NORMALLY****
TOTAL RUN TIME: 0 days 0 hours 0 minutes 21 seconds 146 msec
