                         Program Version 4.2.1 -  RELEASE  -
|  1> ! wB97X-D3 SP def2-SVP
|  2> %pal
|  3> nprocs 24
|  4> end
|  5>
|  6> * xyz 0 1
|  7> S 	 -62.0037 	 -0.737498 	 -21.2946
|  8> C 	 -62.5243 	 -0.764333 	 -19.6364
|  9> C 	 -62.0201 	 -1.76366 	 -18.9264
| 10> C 	 -61.1997 	 -2.61354 	 -19.7976
| 11> C 	 -61.1953 	 -2.24062 	 -21.1177
| 12> H 	 -60.653 	 -3.55468 	 -19.5397
| 13> C 	 -62.2632 	 -2.02206 	 -17.4621
| 14> H 	 -62.3658 	 -1.07919 	 -16.9518
| 15> H 	 -61.3773 	 -2.48543 	 -17.1034
| 16> C 	 -63.5162 	 -2.88235 	 -17.1609
| 17> H 	 -63.6743 	 -3.75599 	 -17.8307
| 18> H 	 -63.229 	 -3.32664 	 -16.2241
| 19> C 	 -64.8247 	 -2.03825 	 -16.9506
| 20> H 	 -65.0055 	 -1.43471 	 -17.9178
| 21> H 	 -65.7886 	 -2.57888 	 -16.6809
| 22> H 	 -64.7738 	 -1.34707 	 -16.1465
| 23> S 	 -59.9741 	 -1.93096 	 -23.5822
| 24> C 	 -59.838 	 -3.28029 	 -24.6915
| 25> C 	 -60.1934 	 -4.47373 	 -24.0807
| 26> C 	 -60.5463 	 -4.29398 	 -22.706
| 27> C 	 -60.635 	 -2.96066 	 -22.282
| 28> H 	 -60.2763 	 -5.42461 	 -24.6309
| 29> C 	 -60.7991 	 -5.45953 	 -21.7207
| 30> H 	 -61.2769 	 -5.14315 	 -20.8121
| 31> H 	 -59.7974 	 -5.75997 	 -21.3018
| 32> C 	 -61.4415 	 -6.68568 	 -22.1961
| 33> H 	 -61.526 	 -7.43527 	 -21.3724
| 34> H 	 -60.9419 	 -7.18095 	 -23.0535
| 35> C 	 -62.8055 	 -6.41367 	 -22.8036
| 36> H 	 -63.5973 	 -6.26454 	 -22.0589
| 37> H 	 -63.1984 	 -7.0799 	 -23.5297
| 38> H 	 -62.771 	 -5.54385 	 -23.4216
| 39> H 	 -63.0791 	 0.0342284 	 -19.2097
| 40> H 	 -59.2697 	 -3.29217 	 -25.6076
| 41> *
| 42>
| 43>                          ****END OF INPUT****

CARTESIAN COORDINATES (ANGSTROEM)
---------------------------------
  S    -62.003700   -0.737498  -21.294600
  C    -62.524300   -0.764333  -19.636400
  C    -62.020100   -1.763660  -18.926400
  C    -61.199700   -2.613540  -19.797600
  C    -61.195300   -2.240620  -21.117700
  H    -60.653000   -3.554680  -19.539700
  C    -62.263200   -2.022060  -17.462100
  H    -62.365800   -1.079190  -16.951800
  H    -61.377300   -2.485430  -17.103400
  C    -63.516200   -2.882350  -17.160900
  H    -63.674300   -3.755990  -17.830700
  H    -63.229000   -3.326640  -16.224100
  C    -64.824700   -2.038250  -16.950600
  H    -65.005500   -1.434710  -17.917800
  H    -65.788600   -2.578880  -16.680900
  H    -64.773800   -1.347070  -16.146500
  S    -59.974100   -1.930960  -23.582200
  C    -59.838000   -3.280290  -24.691500
  C    -60.193400   -4.473730  -24.080700
  C    -60.546300   -4.293980  -22.706000
  C    -60.635000   -2.960660  -22.282000
  H    -60.276300   -5.424610  -24.630900
  C    -60.799100   -5.459530  -21.720700
  H    -61.276900   -5.143150  -20.812100
  H    -59.797400   -5.759970  -21.301800
  C    -61.441500   -6.685680  -22.196100
  H    -61.526000   -7.435270  -21.372400
  H    -60.941900   -7.180950  -23.053500
  C    -62.805500   -6.413670  -22.803600
  H    -63.597300   -6.264540  -22.058900
  H    -63.198400   -7.079900  -23.529700
  H    -62.771000   -5.543850  -23.421600
  H    -63.079100    0.034228  -19.209700
  H    -59.269700   -3.292170  -25.607600

 Total Charge           Charge          ....    0
 Multiplicity           Mult            ....    1
 Number of Electrons    NEL             ....  134
 Basis Dimension        Dim             ....  322

ORBITAL ENERGIES
----------------

  NO   OCC          E(Eh)            E(eV)
   0   2.0000     -88.965332     -2420.8698
   1   2.0000     -88.961888     -2420.7760
   2   2.0000     -10.334882      -281.2264
   3   2.0000     -10.330183      -281.0986
   4   2.0000     -10.320653      -280.8392
   5   2.0000     -10.312403      -280.6148
   6   2.0000     -10.304043      -280.3873
   7   2.0000     -10.301090      -280.3069
   8   2.0000     -10.298022      -280.2234
   9   2.0000     -10.297231      -280.2019
  10   2.0000     -10.294170      -280.1186
  11   2.0000     -10.292519      -280.0737
  12   2.0000     -10.292298      -280.0677
  13   2.0000     -10.290162      -280.0095
  14   2.0000     -10.286843      -279.9192
  15   2.0000     -10.264072      -279.2996
  16   2.0000      -8.079595      -219.8569
  17   2.0000      -8.077902      -219.8109
  18   2.0000      -6.038178      -164.3072
  19   2.0000      -6.036455      -164.2603
  20   2.0000      -6.034093      -164.1960
  21   2.0000      -6.032378      -164.1493
  22   2.0000      -6.030380      -164.0950
  23   2.0000      -6.028367      -164.0402
  24   2.0000      -1.010130       -27.4870
  25   2.0000      -0.986015       -26.8308
  26   2.0000      -0.917950       -24.9787
  27   2.0000      -0.912862       -24.8402
  28   2.0000      -0.869660       -23.6647
  29   2.0000      -0.847919       -23.0730
  30   2.0000      -0.839044       -22.8316
  31   2.0000      -0.816644       -22.2220
  32   2.0000      -0.787685       -21.4340
  33   2.0000      -0.780623       -21.2418
  34   2.0000      -0.710890       -19.3443
  35   2.0000      -0.700177       -19.0528
  36   2.0000      -0.694888       -18.9089
  37   2.0000      -0.657317       -17.8865
  38   2.0000      -0.644037       -17.5252
  39   2.0000      -0.618486       -16.8299
  40   2.0000      -0.601245       -16.3607
  41   2.0000      -0.574701       -15.6384
  42   2.0000      -0.555906       -15.1270
  43   2.0000      -0.552002       -15.0207
  44   2.0000      -0.540555       -14.7092
  45   2.0000      -0.531572       -14.4648
  46   2.0000      -0.521132       -14.1807
  47   2.0000      -0.515793       -14.0355
  48   2.0000      -0.502055       -13.6616
  49   2.0000      -0.495871       -13.4933
  50   2.0000      -0.489335       -13.3155
  51   2.0000      -0.482663       -13.1339
  52   2.0000      -0.473914       -12.8958
  53   2.0000      -0.467782       -12.7290
  54   2.0000      -0.456701       -12.4275
  55   2.0000      -0.447776       -12.1846
  56   2.0000      -0.440020       -11.9736
  57   2.0000      -0.437337       -11.9006
  58   2.0000      -0.435456       -11.8494
  59   2.0000      -0.432871       -11.7790
  60   2.0000      -0.414883       -11.2895
  61   2.0000      -0.411700       -11.2029
  62   2.0000      -0.408785       -11.1236
  63   2.0000      -0.357532        -9.7289
  64   2.0000      -0.330740        -8.9999
  65   2.0000      -0.328195        -8.9306
  66   2.0000      -0.291044        -7.9197
  67   0.0000       0.025833         0.7030
  68   0.0000       0.078238         2.1290
  69   0.0000       0.107159         2.9159
  70   0.0000       0.121964         3.3188
  71   0.0000       0.129685         3.5289

MULLIKEN ATOMIC CHARGES
-----------------------
   0 S :    0.107396
   1 C :   -0.117100
   2 C :   -0.079302
   3 C :   -0.020282
   4 C :   -0.112010
   5 H :    0.026093
   6 C :    0.096517
   7 H :    0.020163
   8 H :    0.016756
   9 C :   -0.046727
  10 H :    0.042533
  11 H :    0.021701
  12 C :   -0.092075
  13 H :    0.044953
  14 H :    0.047178
  15 H :    0.022862
  16 S :    0.087036
  17 C :   -0.079159
  18 C :   -0.050894
  19 C :   -0.052795
  20 C :   -0.154180
  21 H :    0.037558
  22 C :    0.082290
  23 H :    0.009562
  24 H :    0.042350
  25 C :   -0.080506
  26 H :    0.037608
  27 H :    0.027590
  28 C :   -0.044395
  29 H :    0.027112
  30 H :    0.014643
  31 H :    0.020946
  32 H :    0.032085
  33 H :    0.064491
Sum of atomic charges:    0.0000000

LOEWDIN ATOMIC CHARGES
----------------------
   0 S :    0.412760
   1 C :   -0.191179
   2 C :   -0.063573
   3 C :   -0.076202
   4 C :   -0.200381
   5 H :    0.034028
   6 C :   -0.021313
   7 H :    0.031817
   8 H :    0.028530
   9 C :   -0.037151
  10 H :    0.030563
  11 H :    0.021543
  12 C :   -0.079101
  13 H :    0.033541
  14 H :    0.035239
  15 H :    0.015989
  16 S :    0.388047
  17 C :   -0.183107
  18 C :   -0.076431
  19 C :   -0.050873
  20 C :   -0.182210
  21 H :    0.038546
  22 C :   -0.036910
  23 H :    0.026150
  24 H :    0.041708
  25 C :   -0.050360
  26 H :    0.032752
  27 H :    0.025615
  28 C :   -0.070702
  29 H :    0.024677
  30 H :    0.020080
  31 H :    0.024037
  32 H :    0.021064
  33 H :    0.032804

  Mayer bond orders larger than 0.100000
B(  0-S ,  1-C ) :   1.1207 B(  0-S ,  4-C ) :   1.1460 B(  1-C ,  2-C ) :   1.6655
B(  1-C , 32-H ) :   0.9662 B(  2-C ,  3-C ) :   1.1935 B(  2-C ,  6-C ) :   1.0273
B(  3-C ,  4-C ) :   1.6063 B(  3-C ,  5-H ) :   0.9855 B(  4-C , 20-C ) :   1.0389
B(  6-C ,  7-H ) :   0.9377 B(  6-C ,  8-H ) :   0.9373 B(  6-C ,  9-C ) :   1.0554
B(  9-C , 10-H ) :   0.9619 B(  9-C , 11-H ) :   0.9567 B(  9-C , 12-C ) :   1.0643
B( 12-C , 13-H ) :   0.9756 B( 12-C , 14-H ) :   0.9756 B( 12-C , 15-H ) :   0.9765
B( 16-S , 17-C ) :   1.1591 B( 16-S , 20-C ) :   1.1312 B( 17-C , 18-C ) :   1.6003
B( 17-C , 20-C ) :   0.1028 B( 17-C , 33-H ) :   0.9626 B( 18-C , 19-C ) :   1.2545
B( 18-C , 21-H ) :   0.9828 B( 19-C , 20-C ) :   1.5879 B( 19-C , 22-C ) :   1.0250
B( 22-C , 23-H ) :   0.9295 B( 22-C , 24-H ) :   0.9269 B( 22-C , 25-C ) :   1.0905
B( 25-C , 26-H ) :   0.9503 B( 25-C , 27-H ) :   0.9501 B( 25-C , 28-C ) :   1.0743
B( 28-C , 29-H ) :   0.9738 B( 28-C , 30-H ) :   0.9751 B( 28-C , 31-H ) :   0.9688

Dispersion correction           -0.014257521
FINAL SINGLE POINT ENERGY     -1339.870019255390

DIPOLE MOMENT
-------------
                                X             Y             Z
Electronic contribution:     13.49858      18.20146     -16.52805
Nuclear contribution   :    -13.54990     -18.75426      17.00401
                        -----------------------------------------
Total Dipole Moment    :     -0.05132      -0.55280       0.47597
                        -----------------------------------------
Magnitude (a.u.)       :      0.73128
Magnitude (Debye)      :      1.85876

Rotational constants in cm-1:     0.020052     0.008535     0.006545
Rotational constants in MHz :   601.138293   255.859445   196.226154

                             ****ORCA TERMINATED NORMALLY****
TOTAL RUN TIME: 0 days 0 hours 0 minutes 21 seconds 856 msec
