                         Program Version 4.2.1 -  RELEASE  -
|  1> ! wB97X-D3 SP def2-SVP
|  2> %pal
|  3> nprocs 24
|  4> end
|  5>
|  6> * xyz 0 1
|  7> S 	 -33.2044 	 -5.89518 	 7.70317
|  8> C 	 -32.2862 	 -4.73969 	 8.62282
|  9> C 	 -32.9247 	 -4.56177 	 9.85971
| 10> C 	 -34.083 	 -5.34014 	 10.0132
| 11> C 	 -34.3329 	 -6.11973 	 8.8957
| 12> H 	 -34.7434 	 -5.39372 	 10.9089
| 13> C 	 -32.3053 	 -3.73043 	 10.9703
| 14> H 	 -31.2111 	 -3.84728 	 10.6848
| 15> H 	 -32.5257 	 -4.23257 	 11.9424
| 16> C 	 -32.7218 	 -2.22461 	 11.0322
| 17> H 	 -32.2074 	 -1.72745 	 10.1519
| 18> H 	 -33.7666 	 -2.11312 	 10.8973
| 19> C 	 -32.2663 	 -1.47903 	 12.3422
| 20> H 	 -31.2592 	 -1.83744 	 12.563
| 21> H 	 -32.2761 	 -0.434375 	 12.3539
| 22> H 	 -32.9495 	 -1.71039 	 13.1575
| 23> S 	 -34.6982 	 -8.82147 	 8.27609
| 24> C 	 -36.3644 	 -9.45613 	 8.21846
| 25> C 	 -37.2319 	 -8.48214 	 8.68912
| 26> C 	 -36.5903 	 -7.25267 	 8.93695
| 27> C 	 -35.2489 	 -7.26181 	 8.80998
| 28> H 	 -38.2753 	 -8.62443 	 8.88667
| 29> C 	 -37.4048 	 -6.00571 	 8.97637
| 30> H 	 -37.8842 	 -5.73916 	 8.02717
| 31> H 	 -36.7464 	 -5.12591 	 9.0988
| 32> C 	 -38.3893 	 -5.8741 	 10.1808
| 33> H 	 -37.803 	 -6.04676 	 11.1124
| 34> H 	 -39.1767 	 -6.71909 	 10.1358
| 35> C 	 -39.028 	 -4.51982 	 10.3327
| 36> H 	 -39.5949 	 -4.07837 	 9.48406
| 37> H 	 -38.3305 	 -3.66613 	 10.4706
| 38> H 	 -39.6918 	 -4.37412 	 11.1781
| 39> H 	 -31.5356 	 -4.12576 	 8.32046
| 40> H 	 -36.5968 	 -10.4475 	 7.89179
| 41> *
| 42>
| 43>                          ****END OF INPUT****

CARTESIAN COORDINATES (ANGSTROEM)
---------------------------------
  S    -33.204400   -5.895180    7.703170
  C    -32.286200   -4.739690    8.622820
  C    -32.924700   -4.561770    9.859710
  C    -34.083000   -5.340140   10.013200
  C    -34.332900   -6.119730    8.895700
  H    -34.743400   -5.393720   10.908900
  C    -32.305300   -3.730430   10.970300
  H    -31.211100   -3.847280   10.684800
  H    -32.525700   -4.232570   11.942400
  C    -32.721800   -2.224610   11.032200
  H    -32.207400   -1.727450   10.151900
  H    -33.766600   -2.113120   10.897300
  C    -32.266300   -1.479030   12.342200
  H    -31.259200   -1.837440   12.563000
  H    -32.276100   -0.434375   12.353900
  H    -32.949500   -1.710390   13.157500
  S    -34.698200   -8.821470    8.276090
  C    -36.364400   -9.456130    8.218460
  C    -37.231900   -8.482140    8.689120
  C    -36.590300   -7.252670    8.936950
  C    -35.248900   -7.261810    8.809980
  H    -38.275300   -8.624430    8.886670
  C    -37.404800   -6.005710    8.976370
  H    -37.884200   -5.739160    8.027170
  H    -36.746400   -5.125910    9.098800
  C    -38.389300   -5.874100   10.180800
  H    -37.803000   -6.046760   11.112400
  H    -39.176700   -6.719090   10.135800
  C    -39.028000   -4.519820   10.332700
  H    -39.594900   -4.078370    9.484060
  H    -38.330500   -3.666130   10.470600
  H    -39.691800   -4.374120   11.178100
  H    -31.535600   -4.125760    8.320460
  H    -36.596800  -10.447500    7.891790

 Total Charge           Charge          ....    0
 Multiplicity           Mult            ....    1
 Number of Electrons    NEL             ....  134
 Basis Dimension        Dim             ....  322

ORBITAL ENERGIES
----------------

  NO   OCC          E(Eh)            E(eV)
   0   2.0000     -88.969025     -2420.9702
   1   2.0000     -88.965667     -2420.8789
   2   2.0000     -10.323932      -280.9285
   3   2.0000     -10.322828      -280.8984
   4   2.0000     -10.322121      -280.8792
   5   2.0000     -10.306782      -280.4618
   6   2.0000     -10.300644      -280.2948
   7   2.0000     -10.300515      -280.2913
   8   2.0000     -10.298104      -280.2257
   9   2.0000     -10.294211      -280.1197
  10   2.0000     -10.293230      -280.0930
  11   2.0000     -10.293116      -280.0899
  12   2.0000     -10.291442      -280.0444
  13   2.0000     -10.288631      -279.9679
  14   2.0000     -10.280330      -279.7420
  15   2.0000     -10.277126      -279.6548
  16   2.0000      -8.085351      -220.0136
  17   2.0000      -8.080179      -219.8728
  18   2.0000      -6.043591      -164.4545
  19   2.0000      -6.039310      -164.3380
  20   2.0000      -6.038752      -164.3228
  21   2.0000      -6.036614      -164.2646
  22   2.0000      -6.034698      -164.2125
  23   2.0000      -6.030886      -164.1088
  24   2.0000      -1.019619       -27.7452
  25   2.0000      -0.992156       -26.9979
  26   2.0000      -0.908116       -24.7111
  27   2.0000      -0.905514       -24.6403
  28   2.0000      -0.869518       -23.6608
  29   2.0000      -0.854551       -23.2535
  30   2.0000      -0.848047       -23.0765
  31   2.0000      -0.818544       -22.2737
  32   2.0000      -0.781671       -21.2703
  33   2.0000      -0.772714       -21.0266
  34   2.0000      -0.706076       -19.2133
  35   2.0000      -0.704038       -19.1578
  36   2.0000      -0.699209       -19.0264
  37   2.0000      -0.665176       -18.1004
  38   2.0000      -0.643372       -17.5070
  39   2.0000      -0.617567       -16.8048
  40   2.0000      -0.603065       -16.4102
  41   2.0000      -0.572997       -15.5920
  42   2.0000      -0.558953       -15.2099
  43   2.0000      -0.554463       -15.0877
  44   2.0000      -0.534854       -14.5541
  45   2.0000      -0.526349       -14.3227
  46   2.0000      -0.519939       -14.1483
  47   2.0000      -0.512007       -13.9324
  48   2.0000      -0.504911       -13.7393
  49   2.0000      -0.499745       -13.5988
  50   2.0000      -0.493006       -13.4154
  51   2.0000      -0.484496       -13.1838
  52   2.0000      -0.472533       -12.8583
  53   2.0000      -0.465283       -12.6610
  54   2.0000      -0.461284       -12.5522
  55   2.0000      -0.452346       -12.3090
  56   2.0000      -0.444406       -12.0929
  57   2.0000      -0.435126       -11.8404
  58   2.0000      -0.428743       -11.6667
  59   2.0000      -0.423616       -11.5272
  60   2.0000      -0.421371       -11.4661
  61   2.0000      -0.415748       -11.3131
  62   2.0000      -0.407066       -11.0768
  63   2.0000      -0.347294        -9.4503
  64   2.0000      -0.335302        -9.1240
  65   2.0000      -0.330170        -8.9844
  66   2.0000      -0.295061        -8.0290
  67   0.0000       0.031267         0.8508
  68   0.0000       0.070970         1.9312
  69   0.0000       0.117117         3.1869
  70   0.0000       0.123599         3.3633
  71   0.0000       0.125938         3.4270

MULLIKEN ATOMIC CHARGES
-----------------------
   0 S :    0.129484
   1 C :   -0.079188
   2 C :   -0.105184
   3 C :    0.027650
   4 C :   -0.170402
   5 H :    0.026217
   6 C :    0.013457
   7 H :    0.041490
   8 H :    0.037334
   9 C :   -0.066346
  10 H :    0.032147
  11 H :    0.026390
  12 C :   -0.032754
  13 H :    0.032236
  14 H :    0.024981
  15 H :    0.027692
  16 S :    0.100243
  17 C :   -0.100371
  18 C :    0.006674
  19 C :   -0.023143
  20 C :   -0.124857
  21 H :    0.015800
  22 C :    0.035953
  23 H :    0.041046
  24 H :    0.015357
  25 C :   -0.092267
  26 H :    0.036182
  27 H :    0.040969
  28 C :   -0.061017
  29 H :    0.025963
  30 H :    0.020465
  31 H :    0.031688
  32 H :    0.009537
  33 H :    0.056571
Sum of atomic charges:    0.0000000

LOEWDIN ATOMIC CHARGES
----------------------
   0 S :    0.467021
   1 C :   -0.200755
   2 C :   -0.059985
   3 C :   -0.071742
   4 C :   -0.220774
   5 H :    0.039005
   6 C :   -0.038200
   7 H :    0.040159
   8 H :    0.033166
   9 C :   -0.038252
  10 H :    0.028791
  11 H :    0.016115
  12 C :   -0.064108
  13 H :    0.026956
  14 H :    0.018565
  15 H :    0.025646
  16 S :    0.393455
  17 C :   -0.165167
  18 C :   -0.058680
  19 C :   -0.072403
  20 C :   -0.197803
  21 H :    0.029427
  22 C :   -0.034997
  23 H :    0.033639
  24 H :    0.030102
  25 C :   -0.047379
  26 H :    0.029717
  27 H :    0.026683
  28 C :   -0.084144
  29 H :    0.027348
  30 H :    0.027621
  31 H :    0.026706
  32 H :    0.008640
  33 H :    0.025624

  Mayer bond orders larger than 0.100000
B(  0-S ,  1-C ) :   1.1541 B(  0-S ,  4-C ) :   1.2107 B(  1-C ,  2-C ) :   1.5572
B(  1-C ,  4-C ) :   0.1035 B(  1-C , 32-H ) :   0.9813 B(  2-C ,  3-C ) :   1.3038
B(  2-C ,  6-C ) :   1.0100 B(  3-C ,  4-C ) :   1.5044 B(  3-C ,  5-H ) :   0.9909
B(  4-C , 20-C ) :   1.0037 B(  6-C ,  7-H ) :   0.9443 B(  6-C ,  8-H ) :   0.9496
B(  6-C ,  9-C ) :   1.0505 B(  9-C , 10-H ) :   0.9563 B(  9-C , 11-H ) :   0.9646
B(  9-C , 12-C ) :   1.0718 B( 12-C , 13-H ) :   0.9766 B( 12-C , 14-H ) :   0.9773
B( 12-C , 15-H ) :   0.9761 B( 16-S , 17-C ) :   1.1472 B( 16-S , 20-C ) :   1.1314
B( 17-C , 18-C ) :   1.5928 B( 17-C , 33-H ) :   0.9753 B( 18-C , 19-C ) :   1.2474
B( 18-C , 21-H ) :   0.9926 B( 19-C , 20-C ) :   1.6191 B( 19-C , 22-C ) :   1.0522
B( 22-C , 23-H ) :   0.9419 B( 22-C , 24-H ) :   0.9278 B( 22-C , 25-C ) :   1.0444
B( 25-C , 26-H ) :   0.9543 B( 25-C , 27-H ) :   0.9551 B( 25-C , 28-C ) :   1.0836
B( 28-C , 29-H ) :   0.9720 B( 28-C , 30-H ) :   0.9683 B( 28-C , 31-H ) :   0.9739

Dispersion correction           -0.013736829
FINAL SINGLE POINT ENERGY     -1339.871607090217

DIPOLE MOMENT
-------------
                                X             Y             Z
Electronic contribution:      9.07601     -24.05674     -18.13231
Nuclear contribution   :     -9.35143      24.48023      18.42884
                        -----------------------------------------
Total Dipole Moment    :     -0.27542       0.42349       0.29653
                        -----------------------------------------
Magnitude (a.u.)       :      0.58578
Magnitude (Debye)      :      1.48892

Rotational constants in cm-1:     0.017894     0.008482     0.006217
Rotational constants in MHz :   536.451058   254.273188   186.385564

                             ****ORCA TERMINATED NORMALLY****
TOTAL RUN TIME: 0 days 0 hours 0 minutes 20 seconds 91 msec
