                         Program Version 4.2.1 -  RELEASE  -
|  1> ! wB97X-D3 SP def2-SVP
|  2> %pal
|  3> nprocs 24
|  4> end
|  5>
|  6> * xyz 0 1
|  7> S 	 -60.9832 	 9.56478 	 -19.3096
|  8> C 	 -60.7728 	 7.85351 	 -19.6752
|  9> C 	 -60.8157 	 7.08166 	 -18.5642
| 10> C 	 -60.8829 	 7.84726 	 -17.3435
| 11> C 	 -60.9125 	 9.24876 	 -17.5832
| 12> H 	 -60.8142 	 7.46827 	 -16.3268
| 13> C 	 -60.6852 	 5.59811 	 -18.6287
| 14> H 	 -60.2932 	 5.22309 	 -17.7062
| 15> H 	 -59.9862 	 5.32664 	 -19.4158
| 16> C 	 -62.0287 	 4.95759 	 -19.0113
| 17> H 	 -62.7776 	 5.1698 	 -18.266
| 18> H 	 -62.2442 	 5.31592 	 -19.9765
| 19> C 	 -61.7986 	 3.43754 	 -19.1286
| 20> H 	 -61.5694 	 2.97988 	 -18.1172
| 21> H 	 -62.6816 	 2.95628 	 -19.5675
| 22> H 	 -60.9128 	 3.28673 	 -19.8226
| 23> S 	 -59.6871 	 10.8573 	 -15.669
| 24> C 	 -60.6521 	 12.1987 	 -15.0276
| 25> C 	 -62.0031 	 11.9503 	 -15.1253
| 26> C 	 -62.2051 	 10.846 	 -16.071
| 27> C 	 -61.072 	 10.343 	 -16.6282
| 28> H 	 -62.6776 	 12.4819 	 -14.625
| 29> C 	 -63.5977 	 10.5179 	 -16.6115
| 30> H 	 -63.4465 	 10.3543 	 -17.6796
| 31> H 	 -64.1627 	 11.4522 	 -16.4732
| 32> C 	 -64.3178 	 9.31046 	 -15.8635
| 33> H 	 -65.1824 	 9.82367 	 -15.3655
| 34> H 	 -63.7008 	 8.91994 	 -15.0403
| 35> C 	 -64.8715 	 8.07476 	 -16.5788
| 36> H 	 -64.03 	 7.37466 	 -16.5768
| 37> H 	 -65.2287 	 8.31019 	 -17.5608
| 38> H 	 -65.7107 	 7.64008 	 -16.0509
| 39> H 	 -60.7729 	 7.43989 	 -20.6626
| 40> H 	 -60.2216 	 13.0541 	 -14.4755
| 41> *
| 42>
| 43>                          ****END OF INPUT****

CARTESIAN COORDINATES (ANGSTROEM)
---------------------------------
  S    -60.983200    9.564780  -19.309600
  C    -60.772800    7.853510  -19.675200
  C    -60.815700    7.081660  -18.564200
  C    -60.882900    7.847260  -17.343500
  C    -60.912500    9.248760  -17.583200
  H    -60.814200    7.468270  -16.326800
  C    -60.685200    5.598110  -18.628700
  H    -60.293200    5.223090  -17.706200
  H    -59.986200    5.326640  -19.415800
  C    -62.028700    4.957590  -19.011300
  H    -62.777600    5.169800  -18.266000
  H    -62.244200    5.315920  -19.976500
  C    -61.798600    3.437540  -19.128600
  H    -61.569400    2.979880  -18.117200
  H    -62.681600    2.956280  -19.567500
  H    -60.912800    3.286730  -19.822600
  S    -59.687100   10.857300  -15.669000
  C    -60.652100   12.198700  -15.027600
  C    -62.003100   11.950300  -15.125300
  C    -62.205100   10.846000  -16.071000
  C    -61.072000   10.343000  -16.628200
  H    -62.677600   12.481900  -14.625000
  C    -63.597700   10.517900  -16.611500
  H    -63.446500   10.354300  -17.679600
  H    -64.162700   11.452200  -16.473200
  C    -64.317800    9.310460  -15.863500
  H    -65.182400    9.823670  -15.365500
  H    -63.700800    8.919940  -15.040300
  C    -64.871500    8.074760  -16.578800
  H    -64.030000    7.374660  -16.576800
  H    -65.228700    8.310190  -17.560800
  H    -65.710700    7.640080  -16.050900
  H    -60.772900    7.439890  -20.662600
  H    -60.221600   13.054100  -14.475500

 Total Charge           Charge          ....    0
 Multiplicity           Mult            ....    1
 Number of Electrons    NEL             ....  134
 Basis Dimension        Dim             ....  322

ORBITAL ENERGIES
----------------

  NO   OCC          E(Eh)            E(eV)
   0   2.0000     -88.967232     -2420.9215
   1   2.0000     -88.959065     -2420.6992
   2   2.0000     -10.333355      -281.1849
   3   2.0000     -10.321443      -280.8607
   4   2.0000     -10.319484      -280.8074
   5   2.0000     -10.309454      -280.5345
   6   2.0000     -10.302772      -280.3527
   7   2.0000     -10.301432      -280.3162
   8   2.0000     -10.297091      -280.1981
   9   2.0000     -10.292111      -280.0626
  10   2.0000     -10.289892      -280.0022
  11   2.0000     -10.287674      -279.9418
  12   2.0000     -10.287662      -279.9415
  13   2.0000     -10.286772      -279.9173
  14   2.0000     -10.282678      -279.8059
  15   2.0000     -10.272973      -279.5418
  16   2.0000      -8.081260      -219.9023
  17   2.0000      -8.073835      -219.7002
  18   2.0000      -6.039765      -164.3504
  19   2.0000      -6.035806      -164.2426
  20   2.0000      -6.032454      -164.1514
  21   2.0000      -6.032123      -164.1424
  22   2.0000      -6.028729      -164.0501
  23   2.0000      -6.024077      -163.9235
  24   2.0000      -1.003002       -27.2931
  25   2.0000      -0.982307       -26.7299
  26   2.0000      -0.918412       -24.9913
  27   2.0000      -0.894813       -24.3491
  28   2.0000      -0.869676       -23.6651
  29   2.0000      -0.847416       -23.0594
  30   2.0000      -0.844882       -22.9904
  31   2.0000      -0.815429       -22.1890
  32   2.0000      -0.778914       -21.1953
  33   2.0000      -0.766575       -20.8596
  34   2.0000      -0.703078       -19.1317
  35   2.0000      -0.699970       -19.0472
  36   2.0000      -0.686820       -18.6893
  37   2.0000      -0.667022       -18.1506
  38   2.0000      -0.643251       -17.5038
  39   2.0000      -0.616217       -16.7681
  40   2.0000      -0.587149       -15.9771
  41   2.0000      -0.579593       -15.7715
  42   2.0000      -0.571517       -15.5518
  43   2.0000      -0.552867       -15.0443
  44   2.0000      -0.532575       -14.4921
  45   2.0000      -0.522082       -14.2066
  46   2.0000      -0.517203       -14.0738
  47   2.0000      -0.510882       -13.9018
  48   2.0000      -0.506677       -13.7874
  49   2.0000      -0.500548       -13.6206
  50   2.0000      -0.485839       -13.2204
  51   2.0000      -0.481730       -13.1085
  52   2.0000      -0.465601       -12.6696
  53   2.0000      -0.463425       -12.6104
  54   2.0000      -0.458903       -12.4874
  55   2.0000      -0.445725       -12.1288
  56   2.0000      -0.444724       -12.1016
  57   2.0000      -0.437503       -11.9051
  58   2.0000      -0.434348       -11.8192
  59   2.0000      -0.429025       -11.6744
  60   2.0000      -0.420025       -11.4295
  61   2.0000      -0.416149       -11.3240
  62   2.0000      -0.399331       -10.8664
  63   2.0000      -0.331329        -9.0159
  64   2.0000      -0.328766        -8.9462
  65   2.0000      -0.320913        -8.7325
  66   2.0000      -0.306499        -8.3403
  67   0.0000       0.042928         1.1681
  68   0.0000       0.046078         1.2538
  69   0.0000       0.102426         2.7872
  70   0.0000       0.117579         3.1995
  71   0.0000       0.128134         3.4867

MULLIKEN ATOMIC CHARGES
-----------------------
   0 S :    0.111837
   1 C :   -0.109498
   2 C :   -0.082843
   3 C :    0.061299
   4 C :   -0.195451
   5 H :    0.016238
   6 C :    0.061237
   7 H :    0.011382
   8 H :    0.021743
   9 C :   -0.053470
  10 H :    0.039008
  11 H :    0.014474
  12 C :   -0.068585
  13 H :    0.041690
  14 H :    0.041600
  15 H :    0.031885
  16 S :    0.091589
  17 C :   -0.095919
  18 C :    0.036693
  19 C :   -0.037027
  20 C :   -0.168890
  21 H :   -0.032638
  22 C :    0.072353
  23 H :    0.031122
  24 H :    0.028641
  25 C :   -0.107717
  26 H :    0.026817
  27 H :    0.035050
  28 C :   -0.023732
  29 H :    0.037781
  30 H :    0.027104
  31 H :    0.030817
  32 H :    0.037756
  33 H :    0.067655
Sum of atomic charges:   -0.0000000

LOEWDIN ATOMIC CHARGES
----------------------
   0 S :    0.406697
   1 C :   -0.190547
   2 C :   -0.063967
   3 C :   -0.057922
   4 C :   -0.191674
   5 H :    0.032178
   6 C :   -0.026882
   7 H :    0.023351
   8 H :    0.030521
   9 C :   -0.028000
  10 H :    0.023885
  11 H :    0.016751
  12 C :   -0.071243
  13 H :    0.029464
  14 H :    0.024491
  15 H :    0.028258
  16 S :    0.376253
  17 C :   -0.161957
  18 C :   -0.052845
  19 C :   -0.043583
  20 C :   -0.212115
  21 H :    0.008530
  22 C :   -0.030840
  23 H :    0.027189
  24 H :    0.031181
  25 C :   -0.048700
  26 H :    0.025715
  27 H :    0.024886
  28 C :   -0.061253
  29 H :    0.026195
  30 H :    0.021350
  31 H :    0.027296
  32 H :    0.023969
  33 H :    0.033369

  Mayer bond orders larger than 0.100000
B(  0-S ,  1-C ) :   1.1282 B(  0-S ,  4-C ) :   1.1661 B(  1-C ,  2-C ) :   1.6288
B(  1-C , 32-H ) :   0.9674 B(  2-C ,  3-C ) :   1.2299 B(  2-C ,  6-C ) :   1.0257
B(  3-C ,  4-C ) :   1.5728 B(  3-C ,  5-H ) :   0.9944 B(  4-C , 20-C ) :   1.0143
B(  6-C ,  7-H ) :   0.9423 B(  6-C ,  8-H ) :   0.9406 B(  6-C ,  9-C ) :   1.0635
B(  9-C , 10-H ) :   0.9552 B(  9-C , 11-H ) :   0.9556 B(  9-C , 12-C ) :   1.0857
B( 12-C , 13-H ) :   0.9744 B( 12-C , 14-H ) :   0.9744 B( 12-C , 15-H ) :   0.9715
B( 16-S , 17-C ) :   1.1436 B( 16-S , 20-C ) :   1.1043 B( 17-C , 18-C ) :   1.6349
B( 17-C , 33-H ) :   0.9656 B( 18-C , 19-C ) :   1.1844 B( 18-C , 21-H ) :   1.0168
B( 19-C , 20-C ) :   1.6495 B( 19-C , 22-C ) :   1.0369 B( 22-C , 23-H ) :   0.9440
B( 22-C , 24-H ) :   0.9502 B( 22-C , 25-C ) :   1.0154 B( 25-C , 26-H ) :   0.9621
B( 25-C , 27-H ) :   0.9708 B( 25-C , 28-C ) :   1.0799 B( 28-C , 29-H ) :   0.9789
B( 28-C , 30-H ) :   0.9770 B( 28-C , 31-H ) :   0.9724

Dispersion correction           -0.015114263
FINAL SINGLE POINT ENERGY     -1339.859723896524

DIPOLE MOMENT
-------------
                                X             Y             Z
Electronic contribution:     16.97553      23.35626       1.61260
Nuclear contribution   :    -17.45183     -23.72211      -1.47308
                        -----------------------------------------
Total Dipole Moment    :     -0.47630      -0.36585       0.13952
                        -----------------------------------------
Magnitude (a.u.)       :      0.61658
Magnitude (Debye)      :      1.56723

Rotational constants in cm-1:     0.021411     0.008259     0.007032
Rotational constants in MHz :   641.879523   247.586710   210.813000

                             ****ORCA TERMINATED NORMALLY****
TOTAL RUN TIME: 0 days 0 hours 0 minutes 22 seconds 254 msec
