                         Program Version 4.2.1 -  RELEASE  -
|  1> ! wB97X-D3 SP def2-SVP
|  2> %pal
|  3> nprocs 24
|  4> end
|  5>
|  6> * xyz 0 1
|  7> S 	 -126.575 	 69.7174 	 -61.7327
|  8> C 	 -126.683 	 71.2246 	 -60.8174
|  9> C 	 -127.061 	 72.2637 	 -61.5913
| 10> C 	 -127.435 	 71.8633 	 -62.8964
| 11> C 	 -127.272 	 70.5012 	 -63.1248
| 12> H 	 -127.751 	 72.5108 	 -63.6745
| 13> C 	 -127.164 	 73.7283 	 -61.2363
| 14> H 	 -127.324 	 74.0031 	 -60.1999
| 15> H 	 -128.108 	 74.0419 	 -61.6839
| 16> C 	 -126.004 	 74.5932 	 -61.8629
| 17> H 	 -125.735 	 74.1703 	 -62.8625
| 18> H 	 -126.308 	 75.6242 	 -61.9049
| 19> C 	 -124.671 	 74.4997 	 -61.0107
| 20> H 	 -124.251 	 73.5778 	 -60.7507
| 21> H 	 -123.789 	 74.9149 	 -61.3527
| 22> H 	 -124.962 	 74.9292 	 -59.9983
| 23> S 	 -128.208 	 68.1876 	 -64.2137
| 24> C 	 -128.7 	 68.2154 	 -65.8846
| 25> C 	 -128.168 	 69.2422 	 -66.5554
| 26> C 	 -127.467 	 70.1293 	 -65.7095
| 27> C 	 -127.491 	 69.7362 	 -64.3518
| 28> H 	 -128.241 	 69.3477 	 -67.619
| 29> C 	 -126.793 	 71.4259 	 -66.1097
| 30> H 	 -125.975 	 71.8245 	 -65.4735
| 31> H 	 -127.621 	 72.2268 	 -65.9586
| 32> C 	 -126.269 	 71.5005 	 -67.5201
| 33> H 	 -125.997 	 72.5606 	 -67.7051
| 34> H 	 -127 	 71.348 	 -68.2778
| 35> C 	 -125.033 	 70.5715 	 -67.8961
| 36> H 	 -124.195 	 70.7169 	 -67.2411
| 37> H 	 -124.719 	 70.8298 	 -68.9298
| 38> H 	 -125.343 	 69.5066 	 -67.7401
| 39> H 	 -126.446 	 71.2825 	 -59.7765
| 40> H 	 -129.328 	 67.5087 	 -66.3581
| 41> *
| 42>
| 43>                          ****END OF INPUT****

CARTESIAN COORDINATES (ANGSTROEM)
---------------------------------
  S    -126.575000   69.717400  -61.732700
  C    -126.683000   71.224600  -60.817400
  C    -127.061000   72.263700  -61.591300
  C    -127.435000   71.863300  -62.896400
  C    -127.272000   70.501200  -63.124800
  H    -127.751000   72.510800  -63.674500
  C    -127.164000   73.728300  -61.236300
  H    -127.324000   74.003100  -60.199900
  H    -128.108000   74.041900  -61.683900
  C    -126.004000   74.593200  -61.862900
  H    -125.735000   74.170300  -62.862500
  H    -126.308000   75.624200  -61.904900
  C    -124.671000   74.499700  -61.010700
  H    -124.251000   73.577800  -60.750700
  H    -123.789000   74.914900  -61.352700
  H    -124.962000   74.929200  -59.998300
  S    -128.208000   68.187600  -64.213700
  C    -128.700000   68.215400  -65.884600
  C    -128.168000   69.242200  -66.555400
  C    -127.467000   70.129300  -65.709500
  C    -127.491000   69.736200  -64.351800
  H    -128.241000   69.347700  -67.619000
  C    -126.793000   71.425900  -66.109700
  H    -125.975000   71.824500  -65.473500
  H    -127.621000   72.226800  -65.958600
  C    -126.269000   71.500500  -67.520100
  H    -125.997000   72.560600  -67.705100
  H    -127.000000   71.348000  -68.277800
  C    -125.033000   70.571500  -67.896100
  H    -124.195000   70.716900  -67.241100
  H    -124.719000   70.829800  -68.929800
  H    -125.343000   69.506600  -67.740100
  H    -126.446000   71.282500  -59.776500
  H    -129.328000   67.508700  -66.358100

 Total Charge           Charge          ....    0
 Multiplicity           Mult            ....    1
 Number of Electrons    NEL             ....  134
 Basis Dimension        Dim             ....  322

ORBITAL ENERGIES
----------------

  NO   OCC          E(Eh)            E(eV)
   0   2.0000     -88.964679     -2420.8520
   1   2.0000     -88.963180     -2420.8112
   2   2.0000     -10.330774      -281.1147
   3   2.0000     -10.322678      -280.8943
   4   2.0000     -10.311851      -280.5997
   5   2.0000     -10.308853      -280.5181
   6   2.0000     -10.304479      -280.3991
   7   2.0000     -10.300264      -280.2844
   8   2.0000     -10.298614      -280.2395
   9   2.0000     -10.297064      -280.1974
  10   2.0000     -10.295129      -280.1447
  11   2.0000     -10.290654      -280.0229
  12   2.0000     -10.289113      -279.9810
  13   2.0000     -10.287489      -279.9368
  14   2.0000     -10.283618      -279.8315
  15   2.0000     -10.272089      -279.5178
  16   2.0000      -8.080518      -219.8821
  17   2.0000      -8.078176      -219.8183
  18   2.0000      -6.038906      -164.3270
  19   2.0000      -6.036688      -164.2666
  20   2.0000      -6.034917      -164.2184
  21   2.0000      -6.032829      -164.1616
  22   2.0000      -6.031283      -164.1196
  23   2.0000      -6.028751      -164.0507
  24   2.0000      -1.012989       -27.5648
  25   2.0000      -0.990106       -26.9422
  26   2.0000      -0.908743       -24.7282
  27   2.0000      -0.906511       -24.6674
  28   2.0000      -0.871888       -23.7253
  29   2.0000      -0.848137       -23.0790
  30   2.0000      -0.842659       -22.9299
  31   2.0000      -0.815891       -22.2015
  32   2.0000      -0.786675       -21.4065
  33   2.0000      -0.775390       -21.0994
  34   2.0000      -0.711959       -19.3734
  35   2.0000      -0.701814       -19.0973
  36   2.0000      -0.698572       -19.0091
  37   2.0000      -0.657062       -17.8796
  38   2.0000      -0.642128       -17.4732
  39   2.0000      -0.627865       -17.0851
  40   2.0000      -0.606283       -16.4978
  41   2.0000      -0.573020       -15.5927
  42   2.0000      -0.549592       -14.9551
  43   2.0000      -0.545802       -14.8520
  44   2.0000      -0.541439       -14.7333
  45   2.0000      -0.529995       -14.4219
  46   2.0000      -0.520243       -14.1565
  47   2.0000      -0.509466       -13.8633
  48   2.0000      -0.502639       -13.6775
  49   2.0000      -0.495653       -13.4874
  50   2.0000      -0.489898       -13.3308
  51   2.0000      -0.479379       -13.0446
  52   2.0000      -0.473656       -12.8888
  53   2.0000      -0.470177       -12.7942
  54   2.0000      -0.460125       -12.5206
  55   2.0000      -0.451098       -12.2750
  56   2.0000      -0.450297       -12.2532
  57   2.0000      -0.440835       -11.9957
  58   2.0000      -0.428298       -11.6546
  59   2.0000      -0.423945       -11.5361
  60   2.0000      -0.420222       -11.4348
  61   2.0000      -0.415354       -11.3024
  62   2.0000      -0.410856       -11.1800
  63   2.0000      -0.357327        -9.7234
  64   2.0000      -0.331463        -9.0196
  65   2.0000      -0.327826        -8.9206
  66   2.0000      -0.285336        -7.7644
  67   0.0000       0.024666         0.6712
  68   0.0000       0.078803         2.1443
  69   0.0000       0.103102         2.8056
  70   0.0000       0.127314         3.4644
  71   0.0000       0.131540         3.5794

MULLIKEN ATOMIC CHARGES
-----------------------
   0 S :    0.089540
   1 C :   -0.121061
   2 C :   -0.046082
   3 C :    0.010545
   4 C :   -0.109179
   5 H :   -0.012376
   6 C :    0.062231
   7 H :    0.019711
   8 H :    0.024139
   9 C :   -0.065284
  10 H :    0.039723
  11 H :    0.040767
  12 C :   -0.037761
  13 H :    0.011043
  14 H :    0.016697
  15 H :    0.020282
  16 S :    0.111684
  17 C :   -0.066183
  18 C :   -0.020288
  19 C :   -0.044074
  20 C :   -0.135536
  21 H :    0.013270
  22 C :   -0.004038
  23 H :    0.049079
  24 H :    0.055813
  25 C :   -0.074798
  26 H :    0.022644
  27 H :    0.014660
  28 C :   -0.060604
  29 H :    0.028153
  30 H :    0.045509
  31 H :    0.046709
  32 H :    0.036102
  33 H :    0.038963
Sum of atomic charges:   -0.0000000

LOEWDIN ATOMIC CHARGES
----------------------
   0 S :    0.390091
   1 C :   -0.184958
   2 C :   -0.063669
   3 C :   -0.062533
   4 C :   -0.181356
   5 H :    0.023292
   6 C :   -0.028382
   7 H :    0.026756
   8 H :    0.032423
   9 C :   -0.027544
  10 H :    0.027246
  11 H :    0.024013
  12 C :   -0.071763
  13 H :    0.018660
  14 H :    0.016297
  15 H :    0.028851
  16 S :    0.425595
  17 C :   -0.173334
  18 C :   -0.071813
  19 C :   -0.056114
  20 C :   -0.217201
  21 H :    0.032375
  22 C :   -0.045441
  23 H :    0.037518
  24 H :    0.042427
  25 C :   -0.047804
  26 H :    0.027988
  27 H :    0.013872
  28 C :   -0.065701
  29 H :    0.019878
  30 H :    0.031332
  31 H :    0.031135
  32 H :    0.023740
  33 H :    0.024123

  Mayer bond orders larger than 0.100000
B(  0-S ,  1-C ) :   1.1181 B(  0-S ,  4-C ) :   1.1539 B(  1-C ,  2-C ) :   1.6355
B(  1-C , 32-H ) :   0.9729 B(  2-C ,  3-C ) :   1.2278 B(  2-C ,  6-C ) :   1.0182
B(  3-C ,  4-C ) :   1.5724 B(  3-C ,  5-H ) :   0.9998 B(  4-C , 20-C ) :   1.0348
B(  6-C ,  7-H ) :   0.9490 B(  6-C ,  8-H ) :   0.9393 B(  6-C ,  9-C ) :   1.0587
B(  9-C , 10-H ) :   0.9605 B(  9-C , 11-H ) :   0.9603 B(  9-C , 12-C ) :   1.0554
B( 12-C , 13-H ) :   0.9760 B( 12-C , 14-H ) :   0.9766 B( 12-C , 15-H ) :   0.9766
B( 16-S , 17-C ) :   1.1659 B( 16-S , 20-C ) :   1.1468 B( 17-C , 18-C ) :   1.5928
B( 17-C , 33-H ) :   0.9690 B( 18-C , 19-C ) :   1.2654 B( 18-C , 21-H ) :   0.9962
B( 19-C , 20-C ) :   1.5630 B( 19-C , 22-C ) :   1.0264 B( 22-C , 23-H ) :   0.9462
B( 22-C , 24-H ) :   0.9218 B( 22-C , 25-C ) :   1.0870 B( 25-C , 26-H ) :   0.9505
B( 25-C , 27-H ) :   0.9489 B( 25-C , 28-C ) :   1.0665 B( 28-C , 29-H ) :   0.9767
B( 28-C , 30-H ) :   0.9760 B( 28-C , 31-H ) :   0.9758

Dispersion correction           -0.014489351
FINAL SINGLE POINT ENERGY     -1339.868388182359

DIPOLE MOMENT
-------------
                                X             Y             Z
Electronic contribution:    -11.50906     -23.84080       8.43853
Nuclear contribution   :     11.50032      24.46012      -8.81990
                        -----------------------------------------
Total Dipole Moment    :     -0.00873       0.61931      -0.38137
                        -----------------------------------------
Magnitude (a.u.)       :      0.72737
Magnitude (Debye)      :      1.84883

Rotational constants in cm-1:     0.019154     0.008838     0.006726
Rotational constants in MHz :   574.234475   264.949429   201.629502

                             ****ORCA TERMINATED NORMALLY****
TOTAL RUN TIME: 0 days 0 hours 0 minutes 22 seconds 29 msec
