                         Program Version 4.2.1 -  RELEASE  -
|  1> ! wB97X-D3 SP def2-SVP
|  2> %pal
|  3> nprocs 24
|  4> end
|  5>
|  6> * xyz 0 1
|  7> S 	 27.6168 	 2.82358 	 -111.422
|  8> C 	 26.4155 	 4.12846 	 -111.689
|  9> C 	 25.3305 	 3.63373 	 -112.324
| 10> C 	 25.4059 	 2.16435 	 -112.517
| 11> C 	 26.5484 	 1.60478 	 -111.945
| 12> H 	 24.6472 	 1.56328 	 -112.944
| 13> C 	 24.0814 	 4.35136 	 -112.551
| 14> H 	 24.0518 	 5.34996 	 -112.174
| 15> H 	 23.3119 	 3.70383 	 -112.04
| 16> C 	 23.7296 	 4.48406 	 -114.034
| 17> H 	 24.3529 	 5.30773 	 -114.488
| 18> H 	 23.9448 	 3.61567 	 -114.575
| 19> C 	 22.245 	 4.7895 	 -114.287
| 20> H 	 21.7639 	 3.8368 	 -114.161
| 21> H 	 21.8182 	 5.72567 	 -113.833
| 22> H 	 22.0613 	 4.88726 	 -115.446
| 23> S 	 26.5069 	 -0.659508 	 -113.449
| 24> C 	 27.3241 	 -2.06202 	 -112.877
| 25> C 	 27.6986 	 -1.94176 	 -111.563
| 26> C 	 27.5047 	 -0.586289 	 -111.073
| 27> C 	 26.9142 	 0.237366 	 -112.036
| 28> H 	 28.091 	 -2.79295 	 -111.002
| 29> C 	 28.0587 	 -0.174841 	 -109.705
| 30> H 	 27.7807 	 0.841435 	 -109.396
| 31> H 	 29.1615 	 -0.242283 	 -109.751
| 32> C 	 27.6219 	 -1.10812 	 -108.61
| 33> H 	 27.9144 	 -2.09708 	 -108.944
| 34> H 	 26.5653 	 -1.12302 	 -108.485
| 35> C 	 28.2888 	 -0.621894 	 -107.341
| 36> H 	 28.2567 	 -1.3069 	 -106.598
| 37> H 	 27.683 	 0.0857257 	 -106.788
| 38> H 	 29.2472 	 -0.221641 	 -107.435
| 39> H 	 26.4785 	 5.16353 	 -111.379
| 40> H 	 27.3999 	 -3.08497 	 -113.293
| 41> *
| 42>
| 43>                          ****END OF INPUT****

CARTESIAN COORDINATES (ANGSTROEM)
---------------------------------
  S     27.616800    2.823580  -111.422000
  C     26.415500    4.128460  -111.689000
  C     25.330500    3.633730  -112.324000
  C     25.405900    2.164350  -112.517000
  C     26.548400    1.604780  -111.945000
  H     24.647200    1.563280  -112.944000
  C     24.081400    4.351360  -112.551000
  H     24.051800    5.349960  -112.174000
  H     23.311900    3.703830  -112.040000
  C     23.729600    4.484060  -114.034000
  H     24.352900    5.307730  -114.488000
  H     23.944800    3.615670  -114.575000
  C     22.245000    4.789500  -114.287000
  H     21.763900    3.836800  -114.161000
  H     21.818200    5.725670  -113.833000
  H     22.061300    4.887260  -115.446000
  S     26.506900   -0.659508  -113.449000
  C     27.324100   -2.062020  -112.877000
  C     27.698600   -1.941760  -111.563000
  C     27.504700   -0.586289  -111.073000
  C     26.914200    0.237366  -112.036000
  H     28.091000   -2.792950  -111.002000
  C     28.058700   -0.174841  -109.705000
  H     27.780700    0.841435  -109.396000
  H     29.161500   -0.242283  -109.751000
  C     27.621900   -1.108120  -108.610000
  H     27.914400   -2.097080  -108.944000
  H     26.565300   -1.123020  -108.485000
  C     28.288800   -0.621894  -107.341000
  H     28.256700   -1.306900  -106.598000
  H     27.683000    0.085726  -106.788000
  H     29.247200   -0.221641  -107.435000
  H     26.478500    5.163530  -111.379000
  H     27.399900   -3.084970  -113.293000

 Total Charge           Charge          ....    0
 Multiplicity           Mult            ....    1
 Number of Electrons    NEL             ....  134
 Basis Dimension        Dim             ....  322

ORBITAL ENERGIES
----------------

  NO   OCC          E(Eh)            E(eV)
   0   2.0000     -88.968649     -2420.9600
   1   2.0000     -88.962556     -2420.7942
   2   2.0000     -10.325969      -280.9839
   3   2.0000     -10.322023      -280.8765
   4   2.0000     -10.316819      -280.7349
   5   2.0000     -10.309787      -280.5436
   6   2.0000     -10.305513      -280.4273
   7   2.0000     -10.297944      -280.2213
   8   2.0000     -10.295212      -280.1469
   9   2.0000     -10.291728      -280.0521
  10   2.0000     -10.288543      -279.9655
  11   2.0000     -10.288459      -279.9632
  12   2.0000     -10.287570      -279.9390
  13   2.0000     -10.283748      -279.8350
  14   2.0000     -10.277803      -279.6732
  15   2.0000     -10.260393      -279.1995
  16   2.0000      -8.083957      -219.9757
  17   2.0000      -8.077296      -219.7944
  18   2.0000      -6.042551      -164.4262
  19   2.0000      -6.038399      -164.3132
  20   2.0000      -6.036116      -164.2511
  21   2.0000      -6.034573      -164.2091
  22   2.0000      -6.031748      -164.1322
  23   2.0000      -6.027747      -164.0233
  24   2.0000      -1.012182       -27.5429
  25   2.0000      -0.985347       -26.8127
  26   2.0000      -0.919256       -25.0142
  27   2.0000      -0.918550       -24.9950
  28   2.0000      -0.875417       -23.8213
  29   2.0000      -0.853723       -23.2310
  30   2.0000      -0.842732       -22.9319
  31   2.0000      -0.813077       -22.1250
  32   2.0000      -0.785521       -21.3751
  33   2.0000      -0.772692       -21.0260
  34   2.0000      -0.711960       -19.3734
  35   2.0000      -0.701262       -19.0823
  36   2.0000      -0.691444       -18.8152
  37   2.0000      -0.661221       -17.9927
  38   2.0000      -0.634499       -17.2656
  39   2.0000      -0.621647       -16.9159
  40   2.0000      -0.602921       -16.4063
  41   2.0000      -0.573619       -15.6090
  42   2.0000      -0.568889       -15.4802
  43   2.0000      -0.566123       -15.4050
  44   2.0000      -0.530084       -14.4243
  45   2.0000      -0.522494       -14.2178
  46   2.0000      -0.518042       -14.0966
  47   2.0000      -0.513817       -13.9817
  48   2.0000      -0.509849       -13.8737
  49   2.0000      -0.501725       -13.6526
  50   2.0000      -0.491867       -13.3844
  51   2.0000      -0.481426       -13.1003
  52   2.0000      -0.469051       -12.7635
  53   2.0000      -0.463233       -12.6052
  54   2.0000      -0.459313       -12.4985
  55   2.0000      -0.455179       -12.3861
  56   2.0000      -0.448745       -12.2110
  57   2.0000      -0.441841       -12.0231
  58   2.0000      -0.431237       -11.7346
  59   2.0000      -0.422997       -11.5103
  60   2.0000      -0.415945       -11.3184
  61   2.0000      -0.413881       -11.2623
  62   2.0000      -0.406349       -11.0573
  63   2.0000      -0.354139        -9.6366
  64   2.0000      -0.329699        -8.9716
  65   2.0000      -0.321553        -8.7499
  66   2.0000      -0.291074        -7.9205
  67   0.0000       0.028961         0.7881
  68   0.0000       0.083663         2.2766
  69   0.0000       0.107692         2.9304
  70   0.0000       0.119266         3.2454
  71   0.0000       0.127843         3.4788

MULLIKEN ATOMIC CHARGES
-----------------------
   0 S :    0.101890
   1 C :   -0.130118
   2 C :   -0.045201
   3 C :   -0.012686
   4 C :   -0.118317
   5 H :   -0.000691
   6 C :    0.060059
   7 H :    0.012720
   8 H :    0.043466
   9 C :   -0.084681
  10 H :    0.034938
  11 H :    0.016419
  12 C :   -0.080814
  13 H :    0.030558
  14 H :    0.055809
  15 H :    0.033524
  16 S :    0.123238
  17 C :   -0.081691
  18 C :   -0.065390
  19 C :   -0.033251
  20 C :   -0.137080
  21 H :    0.031538
  22 C :    0.043016
  23 H :    0.026303
  24 H :    0.044076
  25 C :   -0.078206
  26 H :    0.017254
  27 H :    0.025647
  28 C :    0.039787
  29 H :   -0.010927
  30 H :    0.015100
  31 H :    0.018430
  32 H :    0.041825
  33 H :    0.063457
Sum of atomic charges:    0.0000000

LOEWDIN ATOMIC CHARGES
----------------------
   0 S :    0.409261
   1 C :   -0.191105
   2 C :   -0.057219
   3 C :   -0.072608
   4 C :   -0.195475
   5 H :    0.017134
   6 C :   -0.033445
   7 H :    0.026341
   8 H :    0.041376
   9 C :   -0.040324
  10 H :    0.028396
  11 H :    0.015004
  12 C :   -0.078604
  13 H :    0.023137
  14 H :    0.031486
  15 H :    0.035997
  16 S :    0.435594
  17 C :   -0.201668
  18 C :   -0.075545
  19 C :   -0.048453
  20 C :   -0.214827
  21 H :    0.032925
  22 C :   -0.034577
  23 H :    0.021503
  24 H :    0.036185
  25 C :   -0.031874
  26 H :    0.016481
  27 H :    0.023552
  28 C :   -0.056642
  29 H :    0.013846
  30 H :    0.033087
  31 H :    0.019031
  32 H :    0.030716
  33 H :    0.041314

  Mayer bond orders larger than 0.100000
B(  0-S ,  1-C ) :   1.0945 B(  0-S ,  4-C ) :   1.1545 B(  1-C ,  2-C ) :   1.6572
B(  1-C , 32-H ) :   0.9694 B(  2-C ,  3-C ) :   1.1826 B(  2-C ,  6-C ) :   1.0439
B(  3-C ,  4-C ) :   1.5688 B(  3-C ,  5-H ) :   0.9996 B(  4-C , 20-C ) :   1.0832
B(  6-C ,  7-H ) :   0.9389 B(  6-C ,  8-H ) :   0.9446 B(  6-C ,  9-C ) :   1.0478
B(  9-C , 10-H ) :   0.9532 B(  9-C , 11-H ) :   0.9621 B(  9-C , 12-C ) :   1.0826
B( 12-C , 13-H ) :   0.9747 B( 12-C , 14-H ) :   0.9731 B( 12-C , 15-H ) :   0.9714
B( 16-S , 17-C ) :   1.1559 B( 16-S , 20-C ) :   1.1327 B( 17-C , 18-C ) :   1.6337
B( 17-C , 33-H ) :   0.9576 B( 18-C , 19-C ) :   1.2332 B( 18-C , 21-H ) :   0.9822
B( 19-C , 20-C ) :   1.5654 B( 19-C , 22-C ) :   1.0369 B( 22-C , 23-H ) :   0.9347
B( 22-C , 24-H ) :   0.9390 B( 22-C , 25-C ) :   1.0637 B( 25-C , 26-H ) :   0.9563
B( 25-C , 27-H ) :   0.9537 B( 25-C , 28-C ) :   1.0924 B( 28-C , 29-H ) :   0.9582
B( 28-C , 30-H ) :   0.9614 B( 28-C , 31-H ) :   0.9722

Dispersion correction           -0.013348133
FINAL SINGLE POINT ENERGY     -1339.859351286330

DIPOLE MOMENT
-------------
                                X             Y             Z
Electronic contribution:      9.94254      -5.58543      -8.75003
Nuclear contribution   :    -10.21403       5.44689       9.05317
                        -----------------------------------------
Total Dipole Moment    :     -0.27149      -0.13854       0.30314
                        -----------------------------------------
Magnitude (a.u.)       :      0.42988
Magnitude (Debye)      :      1.09267

Rotational constants in cm-1:     0.021821     0.007450     0.006152
Rotational constants in MHz :   654.184333   223.337107   184.442106

                             ****ORCA TERMINATED NORMALLY****
TOTAL RUN TIME: 0 days 0 hours 0 minutes 20 seconds 2 msec
