                         Program Version 4.2.1 -  RELEASE  -
|  1> ! wB97X-D3 SP def2-SVP
|  2> %pal
|  3> nprocs 24
|  4> end
|  5>
|  6> * xyz 0 1
|  7> S 	 -125.117 	 60.8188 	 -57.3655
|  8> C 	 -124.449 	 62.1792 	 -56.4673
|  9> C 	 -125.219 	 62.5546 	 -55.3844
| 10> C 	 -126.441 	 61.8778 	 -55.3326
| 11> C 	 -126.577 	 60.9332 	 -56.323
| 12> H 	 -127.126 	 61.9538 	 -54.4845
| 13> C 	 -124.892 	 63.6364 	 -54.3855
| 14> H 	 -123.81 	 63.7823 	 -54.3779
| 15> H 	 -125.131 	 63.1782 	 -53.4293
| 16> C 	 -125.526 	 64.9626 	 -54.703
| 17> H 	 -126.565 	 64.6787 	 -54.6698
| 18> H 	 -125.343 	 65.6495 	 -53.898
| 19> C 	 -125.3 	 65.5365 	 -56.1332
| 20> H 	 -125.812 	 64.9498 	 -56.8339
| 21> H 	 -125.679 	 66.5431 	 -56.1536
| 22> H 	 -124.271 	 65.5472 	 -56.3297
| 23> S 	 -127.153 	 58.3766 	 -57.2385
| 24> C 	 -128.735 	 57.7559 	 -56.9085
| 25> C 	 -129.593 	 58.7145 	 -56.3724
| 26> C 	 -128.987 	 59.9711 	 -56.2052
| 27> C 	 -127.63 	 59.9055 	 -56.4426
| 28> H 	 -130.69 	 58.4842 	 -56.1884
| 29> C 	 -129.845 	 61.0719 	 -55.6767
| 30> H 	 -130.798 	 61.039 	 -56.1538
| 31> H 	 -129.32 	 61.9858 	 -55.9724
| 32> C 	 -130.046 	 61.109 	 -54.1592
| 33> H 	 -129.066 	 61.2312 	 -53.6776
| 34> H 	 -130.405 	 60.1667 	 -53.8238
| 35> C 	 -131.057 	 62.1523 	 -53.7505
| 36> H 	 -132.065 	 61.749 	 -53.6756
| 37> H 	 -130.826 	 63.0921 	 -54.2533
| 38> H 	 -130.794 	 62.4411 	 -52.7175
| 39> H 	 -123.488 	 62.6445 	 -56.7135
| 40> H 	 -129.116 	 56.7776 	 -57.076
| 41> *
| 42>
| 43>                          ****END OF INPUT****

CARTESIAN COORDINATES (ANGSTROEM)
---------------------------------
  S    -125.117000   60.818800  -57.365500
  C    -124.449000   62.179200  -56.467300
  C    -125.219000   62.554600  -55.384400
  C    -126.441000   61.877800  -55.332600
  C    -126.577000   60.933200  -56.323000
  H    -127.126000   61.953800  -54.484500
  C    -124.892000   63.636400  -54.385500
  H    -123.810000   63.782300  -54.377900
  H    -125.131000   63.178200  -53.429300
  C    -125.526000   64.962600  -54.703000
  H    -126.565000   64.678700  -54.669800
  H    -125.343000   65.649500  -53.898000
  C    -125.300000   65.536500  -56.133200
  H    -125.812000   64.949800  -56.833900
  H    -125.679000   66.543100  -56.153600
  H    -124.271000   65.547200  -56.329700
  S    -127.153000   58.376600  -57.238500
  C    -128.735000   57.755900  -56.908500
  C    -129.593000   58.714500  -56.372400
  C    -128.987000   59.971100  -56.205200
  C    -127.630000   59.905500  -56.442600
  H    -130.690000   58.484200  -56.188400
  C    -129.845000   61.071900  -55.676700
  H    -130.798000   61.039000  -56.153800
  H    -129.320000   61.985800  -55.972400
  C    -130.046000   61.109000  -54.159200
  H    -129.066000   61.231200  -53.677600
  H    -130.405000   60.166700  -53.823800
  C    -131.057000   62.152300  -53.750500
  H    -132.065000   61.749000  -53.675600
  H    -130.826000   63.092100  -54.253300
  H    -130.794000   62.441100  -52.717500
  H    -123.488000   62.644500  -56.713500
  H    -129.116000   56.777600  -57.076000

 Total Charge           Charge          ....    0
 Multiplicity           Mult            ....    1
 Number of Electrons    NEL             ....  134
 Basis Dimension        Dim             ....  322

ORBITAL ENERGIES
----------------

  NO   OCC          E(Eh)            E(eV)
   0   2.0000     -88.969156     -2420.9738
   1   2.0000     -88.968888     -2420.9665
   2   2.0000     -10.334232      -281.2088
   3   2.0000     -10.329137      -281.0701
   4   2.0000     -10.313491      -280.6443
   5   2.0000     -10.313271      -280.6384
   6   2.0000     -10.297312      -280.2041
   7   2.0000     -10.295244      -280.1478
   8   2.0000     -10.293622      -280.1037
   9   2.0000     -10.292299      -280.0677
  10   2.0000     -10.287775      -279.9446
  11   2.0000     -10.286618      -279.9131
  12   2.0000     -10.283693      -279.8335
  13   2.0000     -10.281183      -279.7652
  14   2.0000     -10.280012      -279.7333
  15   2.0000     -10.268717      -279.4260
  16   2.0000      -8.083433      -219.9614
  17   2.0000      -8.082686      -219.9411
  18   2.0000      -6.042022      -164.4118
  19   2.0000      -6.041235      -164.3904
  20   2.0000      -6.038169      -164.3069
  21   2.0000      -6.037571      -164.2907
  22   2.0000      -6.034001      -164.1935
  23   2.0000      -6.033233      -164.1726
  24   2.0000      -1.005675       -27.3658
  25   2.0000      -0.984379       -26.7863
  26   2.0000      -0.918136       -24.9838
  27   2.0000      -0.915045       -24.8997
  28   2.0000      -0.862712       -23.4756
  29   2.0000      -0.860445       -23.4139
  30   2.0000      -0.848383       -23.0857
  31   2.0000      -0.811538       -22.0831
  32   2.0000      -0.787208       -21.4210
  33   2.0000      -0.775843       -21.1118
  34   2.0000      -0.707874       -19.2622
  35   2.0000      -0.700444       -19.0601
  36   2.0000      -0.695655       -18.9297
  37   2.0000      -0.662441       -18.0259
  38   2.0000      -0.636660       -17.3244
  39   2.0000      -0.623784       -16.9740
  40   2.0000      -0.597580       -16.2610
  41   2.0000      -0.576357       -15.6835
  42   2.0000      -0.568440       -15.4680
  43   2.0000      -0.551072       -14.9954
  44   2.0000      -0.540664       -14.7122
  45   2.0000      -0.527141       -14.3442
  46   2.0000      -0.517960       -14.0944
  47   2.0000      -0.512054       -13.9337
  48   2.0000      -0.505295       -13.7498
  49   2.0000      -0.494459       -13.4549
  50   2.0000      -0.488872       -13.3029
  51   2.0000      -0.481170       -13.0933
  52   2.0000      -0.468338       -12.7441
  53   2.0000      -0.466642       -12.6980
  54   2.0000      -0.464783       -12.6474
  55   2.0000      -0.456064       -12.4101
  56   2.0000      -0.446307       -12.1446
  57   2.0000      -0.445111       -12.1121
  58   2.0000      -0.430896       -11.7253
  59   2.0000      -0.428403       -11.6574
  60   2.0000      -0.421415       -11.4673
  61   2.0000      -0.417510       -11.3610
  62   2.0000      -0.408960       -11.1284
  63   2.0000      -0.356084        -9.6895
  64   2.0000      -0.337967        -9.1966
  65   2.0000      -0.331809        -9.0290
  66   2.0000      -0.278900        -7.5893
  67   0.0000       0.021112         0.5745
  68   0.0000       0.070527         1.9191
  69   0.0000       0.094997         2.5850
  70   0.0000       0.121506         3.3063
  71   0.0000       0.130789         3.5589

MULLIKEN ATOMIC CHARGES
-----------------------
   0 S :    0.091674
   1 C :   -0.128148
   2 C :   -0.106691
   3 C :   -0.010426
   4 C :   -0.097250
   5 H :    0.004685
   6 C :    0.077337
   7 H :    0.010459
   8 H :    0.028431
   9 C :   -0.067282
  10 H :    0.008569
  11 H :    0.031462
  12 C :    0.003319
  13 H :    0.038030
  14 H :    0.031852
  15 H :    0.014103
  16 S :    0.103055
  17 C :   -0.062563
  18 C :   -0.072265
  19 C :   -0.041925
  20 C :   -0.142457
  21 H :    0.039374
  22 C :    0.074573
  23 H :    0.017688
  24 H :    0.019434
  25 C :   -0.063195
  26 H :    0.023546
  27 H :    0.007962
  28 C :   -0.020762
  29 H :    0.049523
  30 H :    0.030456
  31 H :    0.019775
  32 H :    0.048191
  33 H :    0.039465
Sum of atomic charges:   -0.0000000

LOEWDIN ATOMIC CHARGES
----------------------
   0 S :    0.373999
   1 C :   -0.194407
   2 C :   -0.064079
   3 C :   -0.072425
   4 C :   -0.162666
   5 H :    0.032303
   6 C :   -0.031193
   7 H :    0.023912
   8 H :    0.032782
   9 C :   -0.037645
  10 H :    0.019784
  11 H :    0.021240
  12 C :   -0.045777
  13 H :    0.023319
  14 H :    0.029097
  15 H :    0.015263
  16 S :    0.394444
  17 C :   -0.187730
  18 C :   -0.076323
  19 C :   -0.060166
  20 C :   -0.181088
  21 H :    0.041367
  22 C :   -0.029107
  23 H :    0.028547
  24 H :    0.029210
  25 C :   -0.036604
  26 H :    0.021118
  27 H :    0.017792
  28 C :   -0.068674
  29 H :    0.031445
  30 H :    0.028618
  31 H :    0.031483
  32 H :    0.028399
  33 H :    0.023765

  Mayer bond orders larger than 0.100000
B(  0-S ,  1-C ) :   1.1233 B(  0-S ,  4-C ) :   1.1348 B(  1-C ,  2-C ) :   1.6224
B(  1-C , 32-H ) :   0.9630 B(  2-C ,  3-C ) :   1.2515 B(  2-C ,  6-C ) :   1.0218
B(  3-C ,  4-C ) :   1.5708 B(  3-C ,  5-H ) :   0.9850 B(  4-C , 20-C ) :   1.0660
B(  6-C ,  7-H ) :   0.9354 B(  6-C ,  8-H ) :   0.9392 B(  6-C ,  9-C ) :   1.0673
B(  9-C , 10-H ) :   0.9544 B(  9-C , 11-H ) :   0.9587 B(  9-C , 12-C ) :   1.0734
B( 12-C , 13-H ) :   0.9715 B( 12-C , 14-H ) :   0.9718 B( 12-C , 15-H ) :   0.9787
B( 16-S , 17-C ) :   1.1503 B( 16-S , 20-C ) :   1.1190 B( 17-C , 18-C ) :   1.6213
B( 17-C , 33-H ) :   0.9681 B( 18-C , 19-C ) :   1.2361 B( 18-C , 21-H ) :   0.9771
B( 19-C , 20-C ) :   1.5978 B( 19-C , 22-C ) :   1.0608 B( 22-C , 23-H ) :   0.9292
B( 22-C , 24-H ) :   0.9159 B( 22-C , 25-C ) :   1.0765 B( 25-C , 26-H ) :   0.9520
B( 25-C , 27-H ) :   0.9479 B( 25-C , 28-C ) :   1.0874 B( 28-C , 29-H ) :   0.9746
B( 28-C , 30-H ) :   0.9695 B( 28-C , 31-H ) :   0.9687

Dispersion correction           -0.014621532
FINAL SINGLE POINT ENERGY     -1339.876182580415

DIPOLE MOMENT
-------------
                                X             Y             Z
Electronic contribution:     10.75519     -23.29033     -15.81803
Nuclear contribution   :    -11.14616      23.65509      16.33452
                        -----------------------------------------
Total Dipole Moment    :     -0.39097       0.36476       0.51650
                        -----------------------------------------
Magnitude (a.u.)       :      0.74342
Magnitude (Debye)      :      1.88963

Rotational constants in cm-1:     0.017352     0.009952     0.006720
Rotational constants in MHz :   520.189171   298.338694   201.457937

                             ****ORCA TERMINATED NORMALLY****
TOTAL RUN TIME: 0 days 0 hours 0 minutes 21 seconds 73 msec
