                         Program Version 4.2.1 -  RELEASE  -
|  1> ! wB97X-D3 SP def2-SVP
|  2> %pal
|  3> nprocs 24
|  4> end
|  5>
|  6> * xyz 0 1
|  7> S 	 -133.267 	 65.5032 	 -54.6116
|  8> C 	 -134.727 	 66.2448 	 -55.153
|  9> C 	 -134.598 	 66.7307 	 -56.4495
| 10> C 	 -133.312 	 66.3436 	 -56.9674
| 11> C 	 -132.413 	 65.9588 	 -56.0341
| 12> H 	 -132.96 	 66.3359 	 -57.9629
| 13> C 	 -135.692 	 67.1031 	 -57.38
| 14> H 	 -136.406 	 67.6975 	 -56.7401
| 15> H 	 -136.248 	 66.2492 	 -57.6691
| 16> C 	 -135.339 	 67.8779 	 -58.683
| 17> H 	 -134.533 	 67.2811 	 -59.144
| 18> H 	 -136.227 	 67.8206 	 -59.2119
| 19> C 	 -134.934 	 69.3596 	 -58.4041
| 20> H 	 -135.796 	 69.8293 	 -57.8335
| 21> H 	 -134.013 	 69.4189 	 -57.7493
| 22> H 	 -134.776 	 70.0352 	 -59.2537
| 23> S 	 -129.813 	 66.7787 	 -56.2816
| 24> C 	 -128.571 	 65.6222 	 -56.5184
| 25> C 	 -129.06 	 64.3565 	 -56.2735
| 26> C 	 -130.495 	 64.2303 	 -56.0787
| 27> C 	 -131.049 	 65.4894 	 -56.2304
| 28> H 	 -128.299 	 63.5899 	 -56.2893
| 29> C 	 -131.25 	 62.9569 	 -55.7148
| 30> H 	 -131.92 	 63.2295 	 -54.9252
| 31> H 	 -130.498 	 62.2753 	 -55.2656
| 32> C 	 -131.833 	 62.2455 	 -56.8737
| 33> H 	 -131.77 	 61.1389 	 -56.7563
| 34> H 	 -131.169 	 62.464 	 -57.7491
| 35> C 	 -133.276 	 62.4968 	 -57.1898
| 36> H 	 -133.861 	 62.3992 	 -56.3109
| 37> H 	 -133.616 	 61.6913 	 -57.8689
| 38> H 	 -133.517 	 63.3734 	 -57.7778
| 39> H 	 -135.661 	 66.261 	 -54.6106
| 40> H 	 -127.585 	 65.6782 	 -56.9509
| 41> *
| 42>
| 43>                          ****END OF INPUT****

CARTESIAN COORDINATES (ANGSTROEM)
---------------------------------
  S    -133.267000   65.503200  -54.611600
  C    -134.727000   66.244800  -55.153000
  C    -134.598000   66.730700  -56.449500
  C    -133.312000   66.343600  -56.967400
  C    -132.413000   65.958800  -56.034100
  H    -132.960000   66.335900  -57.962900
  C    -135.692000   67.103100  -57.380000
  H    -136.406000   67.697500  -56.740100
  H    -136.248000   66.249200  -57.669100
  C    -135.339000   67.877900  -58.683000
  H    -134.533000   67.281100  -59.144000
  H    -136.227000   67.820600  -59.211900
  C    -134.934000   69.359600  -58.404100
  H    -135.796000   69.829300  -57.833500
  H    -134.013000   69.418900  -57.749300
  H    -134.776000   70.035200  -59.253700
  S    -129.813000   66.778700  -56.281600
  C    -128.571000   65.622200  -56.518400
  C    -129.060000   64.356500  -56.273500
  C    -130.495000   64.230300  -56.078700
  C    -131.049000   65.489400  -56.230400
  H    -128.299000   63.589900  -56.289300
  C    -131.250000   62.956900  -55.714800
  H    -131.920000   63.229500  -54.925200
  H    -130.498000   62.275300  -55.265600
  C    -131.833000   62.245500  -56.873700
  H    -131.770000   61.138900  -56.756300
  H    -131.169000   62.464000  -57.749100
  C    -133.276000   62.496800  -57.189800
  H    -133.861000   62.399200  -56.310900
  H    -133.616000   61.691300  -57.868900
  H    -133.517000   63.373400  -57.777800
  H    -135.661000   66.261000  -54.610600
  H    -127.585000   65.678200  -56.950900

 Total Charge           Charge          ....    0
 Multiplicity           Mult            ....    1
 Number of Electrons    NEL             ....  134
 Basis Dimension        Dim             ....  322

ORBITAL ENERGIES
----------------

  NO   OCC          E(Eh)            E(eV)
   0   2.0000     -88.963837     -2420.8291
   1   2.0000     -88.962144     -2420.7830
   2   2.0000     -10.324358      -280.9401
   3   2.0000     -10.317864      -280.7634
   4   2.0000     -10.314554      -280.6733
   5   2.0000     -10.310242      -280.5560
   6   2.0000     -10.306389      -280.4511
   7   2.0000     -10.299937      -280.2755
   8   2.0000     -10.291263      -280.0395
   9   2.0000     -10.290960      -280.0313
  10   2.0000     -10.288664      -279.9688
  11   2.0000     -10.288502      -279.9644
  12   2.0000     -10.287743      -279.9437
  13   2.0000     -10.286995      -279.9234
  14   2.0000     -10.283389      -279.8253
  15   2.0000     -10.268456      -279.4189
  16   2.0000      -8.079314      -219.8493
  17   2.0000      -8.076969      -219.7855
  18   2.0000      -6.037788      -164.2966
  19   2.0000      -6.035595      -164.2369
  20   2.0000      -6.033707      -164.1855
  21   2.0000      -6.031489      -164.1252
  22   2.0000      -6.030080      -164.0868
  23   2.0000      -6.027573      -164.0186
  24   2.0000      -1.012140       -27.5417
  25   2.0000      -0.986360       -26.8402
  26   2.0000      -0.916983       -24.9524
  27   2.0000      -0.912251       -24.8236
  28   2.0000      -0.869962       -23.6729
  29   2.0000      -0.849755       -23.1230
  30   2.0000      -0.843163       -22.9436
  31   2.0000      -0.815759       -22.1979
  32   2.0000      -0.787348       -21.4248
  33   2.0000      -0.773164       -21.0389
  34   2.0000      -0.711647       -19.3649
  35   2.0000      -0.698312       -19.0020
  36   2.0000      -0.686322       -18.6758
  37   2.0000      -0.656157       -17.8549
  38   2.0000      -0.642435       -17.4816
  39   2.0000      -0.625214       -17.0129
  40   2.0000      -0.594784       -16.1849
  41   2.0000      -0.569009       -15.4835
  42   2.0000      -0.553448       -15.0601
  43   2.0000      -0.552170       -15.0253
  44   2.0000      -0.543835       -14.7985
  45   2.0000      -0.538178       -14.6446
  46   2.0000      -0.524451       -14.2710
  47   2.0000      -0.511105       -13.9079
  48   2.0000      -0.503509       -13.7012
  49   2.0000      -0.496134       -13.5005
  50   2.0000      -0.487860       -13.2754
  51   2.0000      -0.483428       -13.1548
  52   2.0000      -0.470150       -12.7934
  53   2.0000      -0.466463       -12.6931
  54   2.0000      -0.454351       -12.3635
  55   2.0000      -0.446256       -12.1432
  56   2.0000      -0.442022       -12.0280
  57   2.0000      -0.434969       -11.8361
  58   2.0000      -0.430487       -11.7141
  59   2.0000      -0.424615       -11.5544
  60   2.0000      -0.419157       -11.4058
  61   2.0000      -0.416226       -11.3261
  62   2.0000      -0.405844       -11.0436
  63   2.0000      -0.334132        -9.0922
  64   2.0000      -0.327043        -8.8993
  65   2.0000      -0.322433        -8.7738
  66   2.0000      -0.304317        -8.2809
  67   0.0000       0.032768         0.8917
  68   0.0000       0.066659         1.8139
  69   0.0000       0.102912         2.8004
  70   0.0000       0.107623         2.9286
  71   0.0000       0.137967         3.7543

MULLIKEN ATOMIC CHARGES
-----------------------
   0 S :    0.108573
   1 C :   -0.117435
   2 C :   -0.042734
   3 C :    0.024934
   4 C :   -0.154226
   5 H :    0.003057
   6 C :    0.004971
   7 H :    0.022363
   8 H :    0.037638
   9 C :   -0.027066
  10 H :    0.038257
  11 H :    0.017666
  12 C :   -0.090488
  13 H :    0.032119
  14 H :    0.053151
  15 H :    0.043234
  16 S :    0.113945
  17 C :   -0.075842
  18 C :   -0.069532
  19 C :   -0.038590
  20 C :   -0.197200
  21 H :    0.008842
  22 C :    0.127730
  23 H :    0.020671
  24 H :    0.020917
  25 C :   -0.084157
  26 H :    0.028318
  27 H :    0.032957
  28 C :   -0.019578
  29 H :    0.022095
  30 H :    0.020707
  31 H :    0.032620
  32 H :    0.047450
  33 H :    0.054632
Sum of atomic charges:    0.0000000

LOEWDIN ATOMIC CHARGES
----------------------
   0 S :    0.437487
   1 C :   -0.195486
   2 C :   -0.069244
   3 C :   -0.051093
   4 C :   -0.214376
   5 H :    0.024151
   6 C :   -0.034935
   7 H :    0.032939
   8 H :    0.030189
   9 C :   -0.032011
  10 H :    0.025593
  11 H :    0.017250
  12 C :   -0.076253
  13 H :    0.030493
  14 H :    0.034126
  15 H :    0.025174
  16 S :    0.405417
  17 C :   -0.204821
  18 C :   -0.073376
  19 C :   -0.050581
  20 C :   -0.191183
  21 H :    0.025148
  22 C :   -0.033333
  23 H :    0.016119
  24 H :    0.040088
  25 C :   -0.049572
  26 H :    0.028598
  27 H :    0.031836
  28 C :   -0.064470
  29 H :    0.019898
  30 H :    0.029684
  31 H :    0.023196
  32 H :    0.027916
  33 H :    0.035433

  Mayer bond orders larger than 0.100000
B(  0-S ,  1-C ) :   1.1650 B(  0-S ,  4-C ) :   1.1461 B(  1-C ,  2-C ) :   1.5847
B(  1-C , 32-H ) :   0.9729 B(  2-C ,  3-C ) :   1.2250 B(  2-C ,  6-C ) :   1.0297
B(  3-C ,  4-C ) :   1.6126 B(  3-C ,  5-H ) :   0.9861 B(  4-C , 20-C ) :   1.0159
B(  6-C ,  7-H ) :   0.9355 B(  6-C ,  8-H ) :   0.9398 B(  6-C ,  9-C ) :   1.0775
B(  9-C , 10-H ) :   0.9511 B(  9-C , 11-H ) :   0.9532 B(  9-C , 12-C ) :   1.0661
B( 12-C , 13-H ) :   0.9735 B( 12-C , 14-H ) :   0.9768 B( 12-C , 15-H ) :   0.9783
B( 16-S , 17-C ) :   1.1408 B( 16-S , 20-C ) :   1.1474 B( 17-C , 18-C ) :   1.6497
B( 17-C , 33-H ) :   0.9618 B( 18-C , 19-C ) :   1.2108 B( 18-C , 21-H ) :   0.9855
B( 19-C , 20-C ) :   1.5939 B( 19-C , 22-C ) :   1.0397 B( 22-C , 23-H ) :   0.9317
B( 22-C , 24-H ) :   0.9203 B( 22-C , 25-C ) :   1.0674 B( 25-C , 26-H ) :   0.9563
B( 25-C , 27-H ) :   0.9499 B( 25-C , 28-C ) :   1.0926 B( 28-C , 29-H ) :   0.9723
B( 28-C , 30-H ) :   0.9692 B( 28-C , 31-H ) :   0.9721

Dispersion correction           -0.015668158
FINAL SINGLE POINT ENERGY     -1339.857537979220

DIPOLE MOMENT
-------------
                                X             Y             Z
Electronic contribution:     14.64969       4.29742      13.21698
Nuclear contribution   :    -15.00190      -4.75453     -13.59451
                        -----------------------------------------
Total Dipole Moment    :     -0.35221      -0.45711      -0.37752
                        -----------------------------------------
Magnitude (a.u.)       :      0.68959
Magnitude (Debye)      :      1.75279

Rotational constants in cm-1:     0.019261     0.009535     0.007908
Rotational constants in MHz :   577.437612   285.855774   237.067701

                             ****ORCA TERMINATED NORMALLY****
TOTAL RUN TIME: 0 days 0 hours 0 minutes 23 seconds 717 msec
