                         Program Version 4.2.1 -  RELEASE  -
|  1> ! wB97X-D3 SP def2-SVP
|  2> %pal
|  3> nprocs 24
|  4> end
|  5>
|  6> * xyz 0 1
|  7> S 	 -147.868 	 6.41334 	 9.15153
|  8> C 	 -147.171 	 4.8517 	 9.0659
|  9> C 	 -147.915 	 4.01524 	 8.24865
| 10> C 	 -149.049 	 4.63277 	 7.67535
| 11> C 	 -149.062 	 6.01938 	 7.96533
| 12> H 	 -149.773 	 4.25243 	 7.02232
| 13> C 	 -147.589 	 2.62581 	 7.76289
| 14> H 	 -146.618 	 2.53737 	 7.38006
| 15> H 	 -148.286 	 2.44452 	 6.93121
| 16> C 	 -147.636 	 1.51353 	 8.81447
| 17> H 	 -147.077 	 1.71658 	 9.77204
| 18> H 	 -148.696 	 1.40404 	 8.98415
| 19> C 	 -147.197 	 0.117119 	 8.24161
| 20> H 	 -147.703 	 -0.319562 	 7.36999
| 21> H 	 -146.159 	 0.103445 	 7.95356
| 22> H 	 -147.197 	 -0.710799 	 8.98922
| 23> S 	 -150.856 	 7.87209 	 8.65386
| 24> C 	 -152.202 	 8.23907 	 7.67804
| 25> C 	 -152.18 	 7.57464 	 6.49543
| 26> C 	 -150.918 	 6.87577 	 6.32009
| 27> C 	 -150.126 	 6.87709 	 7.48532
| 28> H 	 -152.949 	 7.68743 	 5.74102
| 29> C 	 -150.574 	 6.32578 	 4.93769
| 30> H 	 -151.452 	 6.38176 	 4.27256
| 31> H 	 -150.218 	 5.322 	 5.00656
| 32> C 	 -149.549 	 7.20958 	 4.25173
| 33> H 	 -148.801 	 7.55308 	 4.92397
| 34> H 	 -150.012 	 8.16257 	 4.06375
| 35> C 	 -148.876 	 6.70539 	 2.95272
| 36> H 	 -147.936 	 7.25395 	 2.75657
| 37> H 	 -149.603 	 6.75011 	 2.18575
| 38> H 	 -148.659 	 5.65058 	 3.09665
| 39> H 	 -146.43 	 4.47554 	 9.72639
| 40> H 	 -153.192 	 8.64623 	 8.05271
| 41> *
| 42>
| 43>                          ****END OF INPUT****

CARTESIAN COORDINATES (ANGSTROEM)
---------------------------------
  S    -147.868000    6.413340    9.151530
  C    -147.171000    4.851700    9.065900
  C    -147.915000    4.015240    8.248650
  C    -149.049000    4.632770    7.675350
  C    -149.062000    6.019380    7.965330
  H    -149.773000    4.252430    7.022320
  C    -147.589000    2.625810    7.762890
  H    -146.618000    2.537370    7.380060
  H    -148.286000    2.444520    6.931210
  C    -147.636000    1.513530    8.814470
  H    -147.077000    1.716580    9.772040
  H    -148.696000    1.404040    8.984150
  C    -147.197000    0.117119    8.241610
  H    -147.703000   -0.319562    7.369990
  H    -146.159000    0.103445    7.953560
  H    -147.197000   -0.710799    8.989220
  S    -150.856000    7.872090    8.653860
  C    -152.202000    8.239070    7.678040
  C    -152.180000    7.574640    6.495430
  C    -150.918000    6.875770    6.320090
  C    -150.126000    6.877090    7.485320
  H    -152.949000    7.687430    5.741020
  C    -150.574000    6.325780    4.937690
  H    -151.452000    6.381760    4.272560
  H    -150.218000    5.322000    5.006560
  C    -149.549000    7.209580    4.251730
  H    -148.801000    7.553080    4.923970
  H    -150.012000    8.162570    4.063750
  C    -148.876000    6.705390    2.952720
  H    -147.936000    7.253950    2.756570
  H    -149.603000    6.750110    2.185750
  H    -148.659000    5.650580    3.096650
  H    -146.430000    4.475540    9.726390
  H    -153.192000    8.646230    8.052710

 Total Charge           Charge          ....    0
 Multiplicity           Mult            ....    1
 Number of Electrons    NEL             ....  134
 Basis Dimension        Dim             ....  322

ORBITAL ENERGIES
----------------

  NO   OCC          E(Eh)            E(eV)
   0   2.0000     -88.972073     -2421.0532
   1   2.0000     -88.964452     -2420.8458
   2   2.0000     -10.330920      -281.1186
   3   2.0000     -10.326016      -280.9852
   4   2.0000     -10.314330      -280.6672
   5   2.0000     -10.309114      -280.5253
   6   2.0000     -10.307231      -280.4740
   7   2.0000     -10.298642      -280.2403
   8   2.0000     -10.293306      -280.0951
   9   2.0000     -10.292964      -280.0858
  10   2.0000     -10.290467      -280.0178
  11   2.0000     -10.289855      -280.0012
  12   2.0000     -10.286548      -279.9112
  13   2.0000     -10.281270      -279.7676
  14   2.0000     -10.274370      -279.5798
  15   2.0000     -10.272561      -279.5306
  16   2.0000      -8.087411      -220.0697
  17   2.0000      -8.081241      -219.9017
  18   2.0000      -6.045769      -164.5137
  19   2.0000      -6.041797      -164.4057
  20   2.0000      -6.039606      -164.3460
  21   2.0000      -6.038342      -164.3117
  22   2.0000      -6.035318      -164.2294
  23   2.0000      -6.032153      -164.1432
  24   2.0000      -1.016855       -27.6700
  25   2.0000      -0.993328       -27.0298
  26   2.0000      -0.912655       -24.8346
  27   2.0000      -0.910132       -24.7659
  28   2.0000      -0.874496       -23.7962
  29   2.0000      -0.855159       -23.2700
  30   2.0000      -0.846475       -23.0337
  31   2.0000      -0.813790       -22.1444
  32   2.0000      -0.782455       -21.2917
  33   2.0000      -0.773350       -21.0439
  34   2.0000      -0.707902       -19.2630
  35   2.0000      -0.703174       -19.1343
  36   2.0000      -0.692057       -18.8318
  37   2.0000      -0.667913       -18.1748
  38   2.0000      -0.644058       -17.5257
  39   2.0000      -0.621444       -16.9103
  40   2.0000      -0.595543       -16.2056
  41   2.0000      -0.572062       -15.5666
  42   2.0000      -0.567274       -15.4363
  43   2.0000      -0.558669       -15.2021
  44   2.0000      -0.524757       -14.2794
  45   2.0000      -0.520936       -14.1754
  46   2.0000      -0.516184       -14.0461
  47   2.0000      -0.513191       -13.9646
  48   2.0000      -0.503214       -13.6931
  49   2.0000      -0.501682       -13.6515
  50   2.0000      -0.494293       -13.4504
  51   2.0000      -0.492436       -13.3999
  52   2.0000      -0.475692       -12.9442
  53   2.0000      -0.469106       -12.7650
  54   2.0000      -0.462290       -12.5796
  55   2.0000      -0.450367       -12.2551
  56   2.0000      -0.441269       -12.0075
  57   2.0000      -0.436588       -11.8802
  58   2.0000      -0.433956       -11.8085
  59   2.0000      -0.425373       -11.5750
  60   2.0000      -0.420152       -11.4329
  61   2.0000      -0.414466       -11.2782
  62   2.0000      -0.409477       -11.1424
  63   2.0000      -0.356625        -9.7043
  64   2.0000      -0.334541        -9.1033
  65   2.0000      -0.326618        -8.8877
  66   2.0000      -0.284788        -7.7495
  67   0.0000       0.023485         0.6391
  68   0.0000       0.075571         2.0564
  69   0.0000       0.109836         2.9888
  70   0.0000       0.116344         3.1659
  71   0.0000       0.138880         3.7791

MULLIKEN ATOMIC CHARGES
-----------------------
   0 S :    0.127063
   1 C :   -0.097439
   2 C :   -0.067045
   3 C :    0.015490
   4 C :   -0.135574
   5 H :    0.000413
   6 C :    0.086510
   7 H :    0.014840
   8 H :    0.019905
   9 C :   -0.081610
  10 H :    0.050017
  11 H :    0.029071
  12 C :   -0.074388
  13 H :    0.033131
  14 H :    0.017163
  15 H :    0.032003
  16 S :    0.109418
  17 C :   -0.099848
  18 C :   -0.038428
  19 C :   -0.111419
  20 C :   -0.125322
  21 H :    0.023878
  22 C :    0.111403
  23 H :    0.018564
  24 H :    0.007230
  25 C :   -0.086420
  26 H :    0.016328
  27 H :    0.005888
  28 C :   -0.008175
  29 H :    0.047669
  30 H :    0.020977
  31 H :    0.020751
  32 H :    0.037936
  33 H :    0.080018
Sum of atomic charges:   -0.0000000

LOEWDIN ATOMIC CHARGES
----------------------
   0 S :    0.438169
   1 C :   -0.212760
   2 C :   -0.058584
   3 C :   -0.053992
   4 C :   -0.201554
   5 H :    0.022382
   6 C :   -0.028089
   7 H :    0.022714
   8 H :    0.033205
   9 C :   -0.038736
  10 H :    0.033025
  11 H :    0.023842
  12 C :   -0.080521
  13 H :    0.026546
  14 H :    0.018384
  15 H :    0.029794
  16 S :    0.447893
  17 C :   -0.217045
  18 C :   -0.073061
  19 C :   -0.054464
  20 C :   -0.214945
  21 H :    0.032680
  22 C :   -0.026896
  23 H :    0.031955
  24 H :    0.018416
  25 C :   -0.045076
  26 H :    0.018650
  27 H :    0.020256
  28 C :   -0.057826
  29 H :    0.035183
  30 H :    0.017487
  31 H :    0.022797
  32 H :    0.023856
  33 H :    0.046315

  Mayer bond orders larger than 0.100000
B(  0-S ,  1-C ) :   1.1454 B(  0-S ,  4-C ) :   1.1806 B(  1-C ,  2-C ) :   1.5765
B(  1-C , 32-H ) :   0.9718 B(  2-C ,  3-C ) :   1.2819 B(  2-C ,  6-C ) :   1.0160
B(  3-C ,  4-C ) :   1.5160 B(  3-C ,  5-H ) :   0.9987 B(  4-C , 20-C ) :   1.0577
B(  6-C ,  7-H ) :   0.9421 B(  6-C ,  8-H ) :   0.9469 B(  6-C ,  9-C ) :   1.0499
B(  9-C , 10-H ) :   0.9600 B(  9-C , 11-H ) :   0.9570 B(  9-C , 12-C ) :   1.0720
B( 12-C , 13-H ) :   0.9769 B( 12-C , 14-H ) :   0.9736 B( 12-C , 15-H ) :   0.9757
B( 16-S , 17-C ) :   1.1756 B( 16-S , 20-C ) :   1.1585 B( 17-C , 18-C ) :   1.6039
B( 17-C , 33-H ) :   0.9524 B( 18-C , 19-C ) :   1.2741 B( 18-C , 21-H ) :   0.9883
B( 19-C , 20-C ) :   1.5553 B( 19-C , 22-C ) :   1.0536 B( 22-C , 23-H ) :   0.9353
B( 22-C , 24-H ) :   0.9293 B( 22-C , 25-C ) :   1.0624 B( 25-C , 26-H ) :   0.9607
B( 25-C , 27-H ) :   0.9469 B( 25-C , 28-C ) :   1.0739 B( 28-C , 29-H ) :   0.9740
B( 28-C , 30-H ) :   0.9766 B( 28-C , 31-H ) :   0.9764

Dispersion correction           -0.013638359
FINAL SINGLE POINT ENERGY     -1339.862305057979

DIPOLE MOMENT
-------------
                                X             Y             Z
Electronic contribution:     -6.07632      21.09164      18.11340
Nuclear contribution   :      5.92365     -21.55329     -18.47095
                        -----------------------------------------
Total Dipole Moment    :     -0.15268      -0.46165      -0.35755
                        -----------------------------------------
Magnitude (a.u.)       :      0.60355
Magnitude (Debye)      :      1.53410

Rotational constants in cm-1:     0.018172     0.008013     0.006547
Rotational constants in MHz :   544.791261   240.229810   196.277313

                             ****ORCA TERMINATED NORMALLY****
TOTAL RUN TIME: 0 days 0 hours 0 minutes 21 seconds 279 msec
