                         Program Version 4.2.1 -  RELEASE  -
|  1> ! wB97X-D3 SP def2-SVP
|  2> %pal
|  3> nprocs 24
|  4> end
|  5>
|  6> * xyz 0 1
|  7> S 	 -108.476 	 46.8461 	 -7.58675
|  8> C 	 -109.655 	 48.0194 	 -7.2081
|  9> C 	 -110.443 	 48.397 	 -8.29116
| 10> C 	 -110.206 	 47.5097 	 -9.40131
| 11> C 	 -109.139 	 46.6471 	 -9.2326
| 12> H 	 -110.64 	 47.5897 	 -10.3266
| 13> C 	 -111.548 	 49.4037 	 -8.17102
| 14> H 	 -112.043 	 49.2842 	 -7.20793
| 15> H 	 -112.345 	 49.2168 	 -8.88948
| 16> C 	 -111.073 	 50.8732 	 -8.12884
| 17> H 	 -111.872 	 51.5263 	 -7.72504
| 18> H 	 -110.249 	 51.066 	 -7.45945
| 19> C 	 -110.834 	 51.4253 	 -9.48888
| 20> H 	 -110.155 	 50.8491 	 -10.0342
| 21> H 	 -111.675 	 51.475 	 -10.1652
| 22> H 	 -110.455 	 52.4953 	 -9.51045
| 23> S 	 -108.044 	 44.1778 	 -9.61863
| 24> C 	 -107.834 	 43.6246 	 -11.2037
| 25> C 	 -107.792 	 44.6435 	 -12.1296
| 26> C 	 -108.305 	 45.8737 	 -11.5162
| 27> C 	 -108.549 	 45.7163 	 -10.1579
| 28> H 	 -107.561 	 44.4231 	 -13.1884
| 29> C 	 -108.359 	 47.1945 	 -12.2494
| 30> H 	 -107.592 	 47.2756 	 -13.0492
| 31> H 	 -108.162 	 47.9022 	 -11.4995
| 32> C 	 -109.625 	 47.4298 	 -13.0501
| 33> H 	 -110.406 	 46.7988 	 -12.5968
| 34> H 	 -109.658 	 46.8932 	 -13.997
| 35> C 	 -110.009 	 48.9157 	 -13.1951
| 36> H 	 -111.027 	 48.936 	 -13.5618
| 37> H 	 -109.35 	 49.4859 	 -13.8622
| 38> H 	 -110.034 	 49.4264 	 -12.1922
| 39> H 	 -109.666 	 48.5783 	 -6.24379
| 40> H 	 -107.498 	 42.6479 	 -11.4703
| 41> *
| 42>
| 43>                          ****END OF INPUT****

CARTESIAN COORDINATES (ANGSTROEM)
---------------------------------
  S    -108.476000   46.846100   -7.586750
  C    -109.655000   48.019400   -7.208100
  C    -110.443000   48.397000   -8.291160
  C    -110.206000   47.509700   -9.401310
  C    -109.139000   46.647100   -9.232600
  H    -110.640000   47.589700  -10.326600
  C    -111.548000   49.403700   -8.171020
  H    -112.043000   49.284200   -7.207930
  H    -112.345000   49.216800   -8.889480
  C    -111.073000   50.873200   -8.128840
  H    -111.872000   51.526300   -7.725040
  H    -110.249000   51.066000   -7.459450
  C    -110.834000   51.425300   -9.488880
  H    -110.155000   50.849100  -10.034200
  H    -111.675000   51.475000  -10.165200
  H    -110.455000   52.495300   -9.510450
  S    -108.044000   44.177800   -9.618630
  C    -107.834000   43.624600  -11.203700
  C    -107.792000   44.643500  -12.129600
  C    -108.305000   45.873700  -11.516200
  C    -108.549000   45.716300  -10.157900
  H    -107.561000   44.423100  -13.188400
  C    -108.359000   47.194500  -12.249400
  H    -107.592000   47.275600  -13.049200
  H    -108.162000   47.902200  -11.499500
  C    -109.625000   47.429800  -13.050100
  H    -110.406000   46.798800  -12.596800
  H    -109.658000   46.893200  -13.997000
  C    -110.009000   48.915700  -13.195100
  H    -111.027000   48.936000  -13.561800
  H    -109.350000   49.485900  -13.862200
  H    -110.034000   49.426400  -12.192200
  H    -109.666000   48.578300   -6.243790
  H    -107.498000   42.647900  -11.470300

 Total Charge           Charge          ....    0
 Multiplicity           Mult            ....    1
 Number of Electrons    NEL             ....  134
 Basis Dimension        Dim             ....  322

ORBITAL ENERGIES
----------------

  NO   OCC          E(Eh)            E(eV)
   0   2.0000     -88.965589     -2420.8768
   1   2.0000     -88.964811     -2420.8556
   2   2.0000     -10.330032      -281.0944
   3   2.0000     -10.321558      -280.8639
   4   2.0000     -10.313791      -280.6525
   5   2.0000     -10.311216      -280.5824
   6   2.0000     -10.304996      -280.4132
   7   2.0000     -10.301520      -280.3186
   8   2.0000     -10.297975      -280.2222
   9   2.0000     -10.292678      -280.0780
  10   2.0000     -10.290506      -280.0189
  11   2.0000     -10.285988      -279.8960
  12   2.0000     -10.284831      -279.8645
  13   2.0000     -10.284586      -279.8578
  14   2.0000     -10.284358      -279.8516
  15   2.0000     -10.270051      -279.4623
  16   2.0000      -8.081645      -219.9127
  17   2.0000      -8.080766      -219.8888
  18   2.0000      -6.040007      -164.3569
  19   2.0000      -6.039211      -164.3353
  20   2.0000      -6.035964      -164.2469
  21   2.0000      -6.035223      -164.2268
  22   2.0000      -6.032328      -164.1480
  23   2.0000      -6.031571      -164.1274
  24   2.0000      -1.014342       -27.6017
  25   2.0000      -0.988576       -26.9005
  26   2.0000      -0.915210       -24.9041
  27   2.0000      -0.912700       -24.8358
  28   2.0000      -0.873590       -23.7716
  29   2.0000      -0.853954       -23.2373
  30   2.0000      -0.847370       -23.0581
  31   2.0000      -0.819762       -22.3069
  32   2.0000      -0.784072       -21.3357
  33   2.0000      -0.770530       -20.9672
  34   2.0000      -0.706796       -19.2329
  35   2.0000      -0.705022       -19.1846
  36   2.0000      -0.697045       -18.9676
  37   2.0000      -0.665434       -18.1074
  38   2.0000      -0.640550       -17.4302
  39   2.0000      -0.620273       -16.8785
  40   2.0000      -0.597808       -16.2672
  41   2.0000      -0.575881       -15.6705
  42   2.0000      -0.559555       -15.2263
  43   2.0000      -0.551128       -14.9970
  44   2.0000      -0.536837       -14.6081
  45   2.0000      -0.529009       -14.3951
  46   2.0000      -0.517799       -14.0900
  47   2.0000      -0.516508       -14.0549
  48   2.0000      -0.505345       -13.7511
  49   2.0000      -0.495803       -13.4915
  50   2.0000      -0.493512       -13.4291
  51   2.0000      -0.484625       -13.1873
  52   2.0000      -0.478893       -13.0313
  53   2.0000      -0.468311       -12.7434
  54   2.0000      -0.466822       -12.7029
  55   2.0000      -0.452332       -12.3086
  56   2.0000      -0.445682       -12.1276
  57   2.0000      -0.441976       -12.0268
  58   2.0000      -0.430876       -11.7247
  59   2.0000      -0.423480       -11.5235
  60   2.0000      -0.422414       -11.4945
  61   2.0000      -0.412973       -11.2376
  62   2.0000      -0.400072       -10.8865
  63   2.0000      -0.355718        -9.6796
  64   2.0000      -0.332218        -9.0401
  65   2.0000      -0.326681        -8.8894
  66   2.0000      -0.286148        -7.7865
  67   0.0000       0.028013         0.7623
  68   0.0000       0.071428         1.9437
  69   0.0000       0.106037         2.8854
  70   0.0000       0.121450         3.3048
  71   0.0000       0.125583         3.4173

MULLIKEN ATOMIC CHARGES
-----------------------
   0 S :    0.108780
   1 C :   -0.120801
   2 C :   -0.087764
   3 C :    0.071214
   4 C :   -0.147141
   5 H :   -0.042708
   6 C :    0.053901
   7 H :    0.029685
   8 H :    0.024745
   9 C :   -0.048599
  10 H :    0.025008
  11 H :    0.027063
  12 C :   -0.048751
  13 H :    0.013595
  14 H :    0.015880
  15 H :    0.034271
  16 S :    0.126388
  17 C :   -0.076646
  18 C :   -0.041933
  19 C :   -0.076158
  20 C :   -0.137373
  21 H :    0.034646
  22 C :    0.090386
  23 H :    0.029207
  24 H :    0.024643
  25 C :   -0.102219
  26 H :    0.024557
  27 H :    0.018803
  28 C :   -0.042290
  29 H :    0.032350
  30 H :    0.042105
  31 H :    0.036930
  32 H :    0.063295
  33 H :    0.044929
Sum of atomic charges:    0.0000000

LOEWDIN ATOMIC CHARGES
----------------------
   0 S :    0.404639
   1 C :   -0.210405
   2 C :   -0.065743
   3 C :   -0.051732
   4 C :   -0.177041
   5 H :    0.015018
   6 C :   -0.031123
   7 H :    0.036535
   8 H :    0.031933
   9 C :   -0.040227
  10 H :    0.027387
  11 H :    0.024214
  12 C :   -0.071026
  13 H :    0.011025
  14 H :    0.021691
  15 H :    0.033079
  16 S :    0.444273
  17 C :   -0.196339
  18 C :   -0.073127
  19 C :   -0.047936
  20 C :   -0.222104
  21 H :    0.037998
  22 C :   -0.032226
  23 H :    0.037437
  24 H :    0.024507
  25 C :   -0.053520
  26 H :    0.020763
  27 H :    0.024382
  28 C :   -0.064854
  29 H :    0.027203
  30 H :    0.027307
  31 H :    0.029044
  32 H :    0.035354
  33 H :    0.023613

  Mayer bond orders larger than 0.100000
B(  0-S ,  1-C ) :   1.1565 B(  0-S ,  4-C ) :   1.1379 B(  1-C ,  2-C ) :   1.6021
B(  1-C , 32-H ) :   0.9570 B(  2-C ,  3-C ) :   1.2365 B(  2-C ,  6-C ) :   1.0266
B(  3-C ,  4-C ) :   1.5746 B(  3-C ,  5-H ) :   1.0068 B(  4-C , 20-C ) :   1.0605
B(  6-C ,  7-H ) :   0.9410 B(  6-C ,  8-H ) :   0.9486 B(  6-C ,  9-C ) :   1.0626
B(  9-C , 10-H ) :   0.9530 B(  9-C , 11-H ) :   0.9559 B(  9-C , 12-C ) :   1.0824
B( 12-C , 13-H ) :   0.9755 B( 12-C , 14-H ) :   0.9732 B( 12-C , 15-H ) :   0.9669
B( 16-S , 17-C ) :   1.1772 B( 16-S , 20-C ) :   1.1403 B( 17-C , 18-C ) :   1.6091
B( 17-C , 33-H ) :   0.9675 B( 18-C , 19-C ) :   1.2294 B( 18-C , 21-H ) :   0.9875
B( 19-C , 20-C ) :   1.5750 B( 19-C , 22-C ) :   1.0588 B( 22-C , 23-H ) :   0.9373
B( 22-C , 24-H ) :   0.9412 B( 22-C , 25-C ) :   1.0372 B( 25-C , 26-H ) :   0.9576
B( 25-C , 27-H ) :   0.9451 B( 25-C , 28-C ) :   1.0751 B( 28-C , 29-H ) :   0.9711
B( 28-C , 30-H ) :   0.9737 B( 28-C , 31-H ) :   0.9754

Dispersion correction           -0.015381432
FINAL SINGLE POINT ENERGY     -1339.874417086452

DIPOLE MOMENT
-------------
                                X             Y             Z
Electronic contribution:     13.07230     -25.93259      14.20051
Nuclear contribution   :    -13.28733      26.30408     -14.63621
                        -----------------------------------------
Total Dipole Moment    :     -0.21503       0.37150      -0.43570
                        -----------------------------------------
Magnitude (a.u.)       :      0.61162
Magnitude (Debye)      :      1.55462

Rotational constants in cm-1:     0.019331     0.009900     0.006899
Rotational constants in MHz :   579.523590   296.780668   206.825445

                             ****ORCA TERMINATED NORMALLY****
TOTAL RUN TIME: 0 days 0 hours 0 minutes 22 seconds 824 msec
