                         Program Version 4.2.1 -  RELEASE  -
|  1> ! wB97X-D3 SP def2-SVP
|  2> %pal
|  3> nprocs 24
|  4> end
|  5>
|  6> * xyz 0 1
|  7> S 	 -139.934 	 3.61749 	 1.05036
|  8> C 	 -139.645 	 5.03993 	 -0.00386559
|  9> C 	 -138.502 	 5.7552 	 0.457603
| 10> C 	 -137.842 	 5.0796 	 1.52778
| 11> C 	 -138.591 	 4.03165 	 2.06143
| 12> H 	 -136.99 	 5.46437 	 1.96512
| 13> C 	 -137.964 	 7.10054 	 -0.168302
| 14> H 	 -137.587 	 7.76555 	 0.634915
| 15> H 	 -138.724 	 7.55795 	 -0.7405
| 16> C 	 -136.761 	 6.97759 	 -1.20809
| 17> H 	 -136.61 	 8.01911 	 -1.36999
| 18> H 	 -135.851 	 6.75296 	 -0.687563
| 19> C 	 -137.054 	 6.03921 	 -2.36963
| 20> H 	 -136.169 	 5.89849 	 -3.09273
| 21> H 	 -137.117 	 5.13684 	 -1.93875
| 22> H 	 -138.026 	 6.13293 	 -2.90717
| 23> S 	 -137.366 	 4.21777 	 4.58327
| 24> C 	 -137.622 	 2.87982 	 5.72915
| 25> C 	 -137.987 	 1.72903 	 5.0819
| 26> C 	 -138.361 	 1.97818 	 3.70111
| 27> C 	 -138.197 	 3.322 	 3.27312
| 28> H 	 -138.075 	 0.809232 	 5.58965
| 29> C 	 -138.884 	 0.829568 	 2.78827
| 30> H 	 -139.451 	 1.1239 	 1.94063
| 31> H 	 -139.602 	 0.221516 	 3.45148
| 32> C 	 -137.751 	 0.0324296 	 2.15595
| 33> H 	 -138.021 	 -1.0631 	 1.86198
| 34> H 	 -136.976 	 -0.153848 	 2.93721
| 35> C 	 -137.071 	 0.745703 	 0.979404
| 36> H 	 -136.169 	 0.189206 	 0.567895
| 37> H 	 -136.761 	 1.75358 	 1.20532
| 38> H 	 -137.742 	 0.777511 	 0.103558
| 39> H 	 -140.251 	 5.31676 	 -0.853774
| 40> H 	 -137.332 	 2.94608 	 6.8138
| 41> *
| 42>
| 43>                          ****END OF INPUT****

CARTESIAN COORDINATES (ANGSTROEM)
---------------------------------
  S    -139.934000    3.617490    1.050360
  C    -139.645000    5.039930   -0.003866
  C    -138.502000    5.755200    0.457603
  C    -137.842000    5.079600    1.527780
  C    -138.591000    4.031650    2.061430
  H    -136.990000    5.464370    1.965120
  C    -137.964000    7.100540   -0.168302
  H    -137.587000    7.765550    0.634915
  H    -138.724000    7.557950   -0.740500
  C    -136.761000    6.977590   -1.208090
  H    -136.610000    8.019110   -1.369990
  H    -135.851000    6.752960   -0.687563
  C    -137.054000    6.039210   -2.369630
  H    -136.169000    5.898490   -3.092730
  H    -137.117000    5.136840   -1.938750
  H    -138.026000    6.132930   -2.907170
  S    -137.366000    4.217770    4.583270
  C    -137.622000    2.879820    5.729150
  C    -137.987000    1.729030    5.081900
  C    -138.361000    1.978180    3.701110
  C    -138.197000    3.322000    3.273120
  H    -138.075000    0.809232    5.589650
  C    -138.884000    0.829568    2.788270
  H    -139.451000    1.123900    1.940630
  H    -139.602000    0.221516    3.451480
  C    -137.751000    0.032430    2.155950
  H    -138.021000   -1.063100    1.861980
  H    -136.976000   -0.153848    2.937210
  C    -137.071000    0.745703    0.979404
  H    -136.169000    0.189206    0.567895
  H    -136.761000    1.753580    1.205320
  H    -137.742000    0.777511    0.103558
  H    -140.251000    5.316760   -0.853774
  H    -137.332000    2.946080    6.813800

 Total Charge           Charge          ....    0
 Multiplicity           Mult            ....    1
 Number of Electrons    NEL             ....  134
 Basis Dimension        Dim             ....  322

ORBITAL ENERGIES
----------------

  NO   OCC          E(Eh)            E(eV)
   0   2.0000     -88.974038     -2421.1067
   1   2.0000     -88.966197     -2420.8933
   2   2.0000     -10.335992      -281.2567
   3   2.0000     -10.335322      -281.2384
   4   2.0000     -10.326884      -281.0088
   5   2.0000     -10.321432      -280.8604
   6   2.0000     -10.314257      -280.6652
   7   2.0000     -10.310355      -280.5590
   8   2.0000     -10.299217      -280.2559
   9   2.0000     -10.298312      -280.2313
  10   2.0000     -10.297225      -280.2017
  11   2.0000     -10.293166      -280.0913
  12   2.0000     -10.290089      -280.0076
  13   2.0000     -10.286148      -279.9003
  14   2.0000     -10.276970      -279.6506
  15   2.0000     -10.276343      -279.6335
  16   2.0000      -8.087432      -220.0702
  17   2.0000      -8.079888      -219.8649
  18   2.0000      -6.046026      -164.5207
  19   2.0000      -6.042110      -164.4142
  20   2.0000      -6.038632      -164.3195
  21   2.0000      -6.038205      -164.3079
  22   2.0000      -6.034699      -164.2125
  23   2.0000      -6.030312      -164.0931
  24   2.0000      -1.000799       -27.2331
  25   2.0000      -0.976597       -26.5745
  26   2.0000      -0.905876       -24.6501
  27   2.0000      -0.903092       -24.5744
  28   2.0000      -0.867744       -23.6125
  29   2.0000      -0.850030       -23.1305
  30   2.0000      -0.836301       -22.7569
  31   2.0000      -0.810380       -22.0516
  32   2.0000      -0.785917       -21.3859
  33   2.0000      -0.770890       -20.9770
  34   2.0000      -0.708644       -19.2832
  35   2.0000      -0.700268       -19.0553
  36   2.0000      -0.684670       -18.6308
  37   2.0000      -0.663562       -18.0564
  38   2.0000      -0.638510       -17.3747
  39   2.0000      -0.619428       -16.8555
  40   2.0000      -0.598122       -16.2757
  41   2.0000      -0.565893       -15.3987
  42   2.0000      -0.551874       -15.0173
  43   2.0000      -0.549154       -14.9432
  44   2.0000      -0.536390       -14.5959
  45   2.0000      -0.533256       -14.5106
  46   2.0000      -0.514130       -13.9902
  47   2.0000      -0.505750       -13.7621
  48   2.0000      -0.498337       -13.5605
  49   2.0000      -0.494304       -13.4507
  50   2.0000      -0.484533       -13.1848
  51   2.0000      -0.480708       -13.0807
  52   2.0000      -0.474824       -12.9206
  53   2.0000      -0.464405       -12.6371
  54   2.0000      -0.458076       -12.4649
  55   2.0000      -0.454991       -12.3809
  56   2.0000      -0.442495       -12.0409
  57   2.0000      -0.438610       -11.9352
  58   2.0000      -0.435256       -11.8439
  59   2.0000      -0.425991       -11.5918
  60   2.0000      -0.414909       -11.2903
  61   2.0000      -0.407400       -11.0859
  62   2.0000      -0.403615       -10.9829
  63   2.0000      -0.355666        -9.6782
  64   2.0000      -0.333063        -9.0631
  65   2.0000      -0.329523        -8.9668
  66   2.0000      -0.282620        -7.6905
  67   0.0000       0.015433         0.4200
  68   0.0000       0.069991         1.9045
  69   0.0000       0.101248         2.7551
  70   0.0000       0.112969         3.0740
  71   0.0000       0.126815         3.4508

MULLIKEN ATOMIC CHARGES
-----------------------
   0 S :    0.112908
   1 C :   -0.133438
   2 C :   -0.085239
   3 C :    0.021147
   4 C :   -0.100230
   5 H :   -0.013502
   6 C :    0.036914
   7 H :    0.041101
   8 H :    0.018240
   9 C :   -0.042608
  10 H :    0.016688
  11 H :    0.015834
  12 C :   -0.028632
  13 H :    0.045228
  14 H :    0.011920
  15 H :    0.034617
  16 S :    0.080848
  17 C :   -0.110745
  18 C :    0.007985
  19 C :   -0.083910
  20 C :   -0.125242
  21 H :    0.011282
  22 C :    0.056124
  23 H :    0.016733
  24 H :    0.043249
  25 C :   -0.092387
  26 H :    0.042302
  27 H :    0.025823
  28 C :   -0.068681
  29 H :    0.038435
  30 H :    0.043956
  31 H :    0.029633
  32 H :    0.051315
  33 H :    0.082331
Sum of atomic charges:    0.0000000

LOEWDIN ATOMIC CHARGES
----------------------
   0 S :    0.416040
   1 C :   -0.197852
   2 C :   -0.051649
   3 C :   -0.065278
   4 C :   -0.188921
   5 H :    0.014096
   6 C :   -0.021864
   7 H :    0.036111
   8 H :    0.021873
   9 C :   -0.034778
  10 H :    0.018291
  11 H :    0.020279
  12 C :   -0.068704
  13 H :    0.039554
  14 H :    0.012301
  15 H :    0.030753
  16 S :    0.371768
  17 C :   -0.174210
  18 C :   -0.065047
  19 C :   -0.051721
  20 C :   -0.183319
  21 H :    0.028060
  22 C :   -0.039695
  23 H :    0.012209
  24 H :    0.040105
  25 C :   -0.052579
  26 H :    0.032975
  27 H :    0.021728
  28 C :   -0.071784
  29 H :    0.033782
  30 H :    0.024421
  31 H :    0.023816
  32 H :    0.026599
  33 H :    0.042638

  Mayer bond orders larger than 0.100000
B(  0-S ,  1-C ) :   1.1285 B(  0-S ,  4-C ) :   1.1598 B(  1-C ,  2-C ) :   1.5778
B(  1-C , 32-H ) :   0.9713 B(  2-C ,  3-C ) :   1.2666 B(  2-C ,  6-C ) :   1.0245
B(  3-C ,  4-C ) :   1.5163 B(  3-C ,  5-H ) :   0.9979 B(  4-C , 20-C ) :   1.0920
B(  6-C ,  7-H ) :   0.9453 B(  6-C ,  8-H ) :   0.9480 B(  6-C ,  9-C ) :   1.0646
B(  9-C , 10-H ) :   0.9597 B(  9-C , 11-H ) :   0.9558 B(  9-C , 12-C ) :   1.0572
B( 12-C , 13-H ) :   0.9716 B( 12-C , 14-H ) :   0.9679 B( 12-C , 15-H ) :   0.9765
B( 16-S , 17-C ) :   1.1425 B( 16-S , 20-C ) :   1.1141 B( 17-C , 18-C ) :   1.6221
B( 17-C , 33-H ) :   0.9594 B( 18-C , 19-C ) :   1.2250 B( 18-C , 21-H ) :   0.9958
B( 19-C , 20-C ) :   1.5782 B( 19-C , 22-C ) :   1.0355 B( 22-C , 23-H ) :   0.9446
B( 22-C , 24-H ) :   0.9380 B( 22-C , 25-C ) :   1.0490 B( 25-C , 26-H ) :   0.9539
B( 25-C , 27-H ) :   0.9574 B( 25-C , 28-C ) :   1.0744 B( 28-C , 29-H ) :   0.9720
B( 28-C , 30-H ) :   0.9753 B( 28-C , 31-H ) :   0.9738

Dispersion correction           -0.015348277
FINAL SINGLE POINT ENERGY     -1339.856661945189

DIPOLE MOMENT
-------------
                                X             Y             Z
Electronic contribution:     -8.52892       2.35223      18.09917
Nuclear contribution   :      8.72372      -2.43908     -18.20337
                        -----------------------------------------
Total Dipole Moment    :      0.19480      -0.08686      -0.10420
                        -----------------------------------------
Magnitude (a.u.)       :      0.23738
Magnitude (Debye)      :      0.60338

Rotational constants in cm-1:     0.021277     0.008455     0.007291
Rotational constants in MHz :   637.861131   253.480922   218.587917

                             ****ORCA TERMINATED NORMALLY****
TOTAL RUN TIME: 0 days 0 hours 0 minutes 20 seconds 706 msec
