                         Program Version 4.2.1 -  RELEASE  -
|  1> ! wB97X-D3 SP def2-SVP
|  2> %pal
|  3> nprocs 24
|  4> end
|  5>
|  6> * xyz 0 1
|  7> S 	 -55.7792 	 10.8227 	 20.7189
|  8> C 	 -56.6365 	 11.4651 	 19.3264
|  9> C 	 -57.881 	 10.8907 	 19.2538
| 10> C 	 -58.0774 	 9.8917 	 20.2483
| 11> C 	 -57.027 	 9.7611 	 21.1997
| 12> H 	 -58.9735 	 9.32627 	 20.3527
| 13> C 	 -58.9766 	 11.3169 	 18.3417
| 14> H 	 -58.7287 	 12.3825 	 17.9831
| 15> H 	 -59.916 	 11.5309 	 18.9231
| 16> C 	 -59.3417 	 10.4035 	 17.1363
| 17> H 	 -58.5201 	 10.1259 	 16.4026
| 18> H 	 -59.7636 	 9.54309 	 17.5522
| 19> C 	 -60.4001 	 11.0743 	 16.2721
| 20> H 	 -60.763 	 10.3567 	 15.6274
| 21> H 	 -61.3076 	 11.4032 	 16.7963
| 22> H 	 -59.9954 	 11.8651 	 15.6977
| 23> S 	 -57.1199 	 9.8728 	 23.8337
| 24> C 	 -57.2402 	 8.45293 	 24.8201
| 25> C 	 -57.1824 	 7.2774 	 24.055
| 26> C 	 -56.935 	 7.50892 	 22.633
| 27> C 	 -56.9864 	 8.89462 	 22.3739
| 28> H 	 -57.2011 	 6.33655 	 24.6071
| 29> C 	 -56.8494 	 6.4687 	 21.5301
| 30> H 	 -56.2474 	 5.57394 	 21.9004
| 31> H 	 -56.3942 	 6.9427 	 20.6883
| 32> C 	 -58.2963 	 5.95417 	 21.1662
| 33> H 	 -58.7547 	 6.56921 	 20.3727
| 34> H 	 -58.9055 	 6.07208 	 22.0478
| 35> C 	 -58.3256 	 4.46108 	 20.5883
| 36> H 	 -57.5451 	 4.37064 	 19.8849
| 37> H 	 -59.2498 	 4.28138 	 20.126
| 38> H 	 -58.0615 	 3.78297 	 21.5014
| 39> H 	 -56.3567 	 12.4073 	 18.8465
| 40> H 	 -57.6216 	 8.45552 	 25.8747
| 41> *
| 42>
| 43>                          ****END OF INPUT****

CARTESIAN COORDINATES (ANGSTROEM)
---------------------------------
  S    -55.779200   10.822700   20.718900
  C    -56.636500   11.465100   19.326400
  C    -57.881000   10.890700   19.253800
  C    -58.077400    9.891700   20.248300
  C    -57.027000    9.761100   21.199700
  H    -58.973500    9.326270   20.352700
  C    -58.976600   11.316900   18.341700
  H    -58.728700   12.382500   17.983100
  H    -59.916000   11.530900   18.923100
  C    -59.341700   10.403500   17.136300
  H    -58.520100   10.125900   16.402600
  H    -59.763600    9.543090   17.552200
  C    -60.400100   11.074300   16.272100
  H    -60.763000   10.356700   15.627400
  H    -61.307600   11.403200   16.796300
  H    -59.995400   11.865100   15.697700
  S    -57.119900    9.872800   23.833700
  C    -57.240200    8.452930   24.820100
  C    -57.182400    7.277400   24.055000
  C    -56.935000    7.508920   22.633000
  C    -56.986400    8.894620   22.373900
  H    -57.201100    6.336550   24.607100
  C    -56.849400    6.468700   21.530100
  H    -56.247400    5.573940   21.900400
  H    -56.394200    6.942700   20.688300
  C    -58.296300    5.954170   21.166200
  H    -58.754700    6.569210   20.372700
  H    -58.905500    6.072080   22.047800
  C    -58.325600    4.461080   20.588300
  H    -57.545100    4.370640   19.884900
  H    -59.249800    4.281380   20.126000
  H    -58.061500    3.782970   21.501400
  H    -56.356700   12.407300   18.846500
  H    -57.621600    8.455520   25.874700

 Total Charge           Charge          ....    0
 Multiplicity           Mult            ....    1
 Number of Electrons    NEL             ....  134
 Basis Dimension        Dim             ....  322

ORBITAL ENERGIES
----------------

  NO   OCC          E(Eh)            E(eV)
   0   2.0000     -88.965168     -2420.8653
   1   2.0000     -88.964402     -2420.8444
   2   2.0000     -10.331026      -281.1215
   3   2.0000     -10.330224      -281.0997
   4   2.0000     -10.321856      -280.8720
   5   2.0000     -10.315109      -280.6884
   6   2.0000     -10.312856      -280.6271
   7   2.0000     -10.301935      -280.3299
   8   2.0000     -10.299966      -280.2763
   9   2.0000     -10.299315      -280.2586
  10   2.0000     -10.297905      -280.2202
  11   2.0000     -10.292002      -280.0596
  12   2.0000     -10.290749      -280.0255
  13   2.0000     -10.288595      -279.9669
  14   2.0000     -10.283329      -279.8236
  15   2.0000     -10.267984      -279.4060
  16   2.0000      -8.080141      -219.8718
  17   2.0000      -8.079653      -219.8585
  18   2.0000      -6.038605      -164.3188
  19   2.0000      -6.038090      -164.3048
  20   2.0000      -6.034516      -164.2075
  21   2.0000      -6.033828      -164.1888
  22   2.0000      -6.031011      -164.1122
  23   2.0000      -6.030695      -164.1036
  24   2.0000      -1.006299       -27.3828
  25   2.0000      -0.982207       -26.7272
  26   2.0000      -0.911959       -24.8157
  27   2.0000      -0.901747       -24.5378
  28   2.0000      -0.871784       -23.7224
  29   2.0000      -0.847575       -23.0637
  30   2.0000      -0.844605       -22.9829
  31   2.0000      -0.810302       -22.0494
  32   2.0000      -0.781380       -21.2624
  33   2.0000      -0.770044       -20.9540
  34   2.0000      -0.707047       -19.2397
  35   2.0000      -0.699249       -19.0275
  36   2.0000      -0.691392       -18.8137
  37   2.0000      -0.657626       -17.8949
  38   2.0000      -0.640771       -17.4363
  39   2.0000      -0.618775       -16.8377
  40   2.0000      -0.590987       -16.0816
  41   2.0000      -0.572027       -15.5656
  42   2.0000      -0.564996       -15.3743
  43   2.0000      -0.558418       -15.1953
  44   2.0000      -0.525750       -14.3064
  45   2.0000      -0.523523       -14.2458
  46   2.0000      -0.517015       -14.0687
  47   2.0000      -0.510667       -13.8960
  48   2.0000      -0.504190       -13.7197
  49   2.0000      -0.500106       -13.6086
  50   2.0000      -0.496145       -13.5008
  51   2.0000      -0.474659       -12.9161
  52   2.0000      -0.467780       -12.7289
  53   2.0000      -0.463649       -12.6165
  54   2.0000      -0.463257       -12.6059
  55   2.0000      -0.445192       -12.1143
  56   2.0000      -0.439118       -11.9490
  57   2.0000      -0.438053       -11.9200
  58   2.0000      -0.436071       -11.8661
  59   2.0000      -0.427982       -11.6460
  60   2.0000      -0.424124       -11.5410
  61   2.0000      -0.414524       -11.2798
  62   2.0000      -0.413189       -11.2434
  63   2.0000      -0.335026        -9.1165
  64   2.0000      -0.331181        -9.0119
  65   2.0000      -0.323567        -8.8047
  66   2.0000      -0.301662        -8.2086
  67   0.0000       0.037143         1.0107
  68   0.0000       0.056401         1.5347
  69   0.0000       0.113231         3.0812
  70   0.0000       0.120714         3.2848
  71   0.0000       0.124799         3.3960

MULLIKEN ATOMIC CHARGES
-----------------------
   0 S :    0.115265
   1 C :   -0.128379
   2 C :   -0.050723
   3 C :    0.051041
   4 C :   -0.163287
   5 H :   -0.002874
   6 C :   -0.012155
   7 H :    0.021125
   8 H :    0.040478
   9 C :   -0.050016
  10 H :    0.047092
  11 H :    0.013522
  12 C :   -0.018334
  13 H :    0.010764
  14 H :    0.022859
  15 H :    0.028178
  16 S :    0.112318
  17 C :   -0.109090
  18 C :   -0.065837
  19 C :   -0.021364
  20 C :   -0.194968
  21 H :    0.030216
  22 C :    0.073363
  23 H :    0.040853
  24 H :    0.038079
  25 C :   -0.103813
  26 H :    0.035464
  27 H :    0.034971
  28 C :   -0.047439
  29 H :    0.028396
  30 H :    0.034408
  31 H :    0.047144
  32 H :    0.060570
  33 H :    0.082174
Sum of atomic charges:    0.0000000

LOEWDIN ATOMIC CHARGES
----------------------
   0 S :    0.427031
   1 C :   -0.202159
   2 C :   -0.071325
   3 C :   -0.061557
   4 C :   -0.224298
   5 H :    0.021816
   6 C :   -0.042284
   7 H :    0.032496
   8 H :    0.038579
   9 C :   -0.033084
  10 H :    0.036701
  11 H :    0.014117
  12 C :   -0.058561
  13 H :    0.017172
  14 H :    0.025685
  15 H :    0.020517
  16 S :    0.417262
  17 C :   -0.203886
  18 C :   -0.077243
  19 C :   -0.046993
  20 C :   -0.198057
  21 H :    0.033458
  22 C :   -0.029656
  23 H :    0.039308
  24 H :    0.031221
  25 C :   -0.037278
  26 H :    0.023783
  27 H :    0.019293
  28 C :   -0.059852
  29 H :    0.017651
  30 H :    0.018698
  31 H :    0.036258
  32 H :    0.033245
  33 H :    0.041940

  Mayer bond orders larger than 0.100000
B(  0-S ,  1-C ) :   1.1464 B(  0-S ,  4-C ) :   1.1845 B(  1-C ,  2-C ) :   1.5835
B(  1-C ,  4-C ) :   0.1027 B(  1-C , 32-H ) :   0.9627 B(  2-C ,  3-C ) :   1.2728
B(  2-C ,  6-C ) :   1.0256 B(  3-C ,  4-C ) :   1.5249 B(  3-C ,  5-H ) :   1.0006
B(  4-C , 20-C ) :   1.0100 B(  6-C ,  7-H ) :   0.9466 B(  6-C ,  8-H ) :   0.9416
B(  6-C ,  9-C ) :   1.0563 B(  9-C , 10-H ) :   0.9565 B(  9-C , 11-H ) :   0.9532
B(  9-C , 12-C ) :   1.0925 B( 12-C , 13-H ) :   0.9703 B( 12-C , 14-H ) :   0.9704
B( 12-C , 15-H ) :   0.9769 B( 16-S , 17-C ) :   1.1590 B( 16-S , 20-C ) :   1.1622
B( 17-C , 18-C ) :   1.6285 B( 17-C , 20-C ) :   0.1023 B( 17-C , 33-H ) :   0.9574
B( 18-C , 19-C ) :   1.2085 B( 18-C , 21-H ) :   0.9845 B( 19-C , 20-C ) :   1.5884
B( 19-C , 22-C ) :   1.0619 B( 22-C , 23-H ) :   0.9416 B( 22-C , 24-H ) :   0.9279
B( 22-C , 25-C ) :   1.0427 B( 25-C , 26-H ) :   0.9543 B( 25-C , 27-H ) :   0.9683
B( 25-C , 28-C ) :   1.0679 B( 28-C , 29-H ) :   0.9776 B( 28-C , 30-H ) :   0.9772
B( 28-C , 31-H ) :   0.9786

Dispersion correction           -0.013734609
FINAL SINGLE POINT ENERGY     -1339.866440328707

DIPOLE MOMENT
-------------
                                X             Y             Z
Electronic contribution:     16.63858      13.11446      21.06537
Nuclear contribution   :    -17.22997     -13.41799     -21.35227
                        -----------------------------------------
Total Dipole Moment    :     -0.59139      -0.30353      -0.28690
                        -----------------------------------------
Magnitude (a.u.)       :      0.72400
Magnitude (Debye)      :      1.84027

Rotational constants in cm-1:     0.016958     0.008458     0.006394
Rotational constants in MHz :   508.375370   253.568670   191.686466

                             ****ORCA TERMINATED NORMALLY****
TOTAL RUN TIME: 0 days 0 hours 0 minutes 21 seconds 7 msec
