                         Program Version 4.2.1 -  RELEASE  -
|  1> ! wB97X-D3 SP def2-SVP
|  2> %pal
|  3> nprocs 24
|  4> end
|  5>
|  6> * xyz 0 1
|  7> S 	 -68.9769 	 2.52709 	 -71.5612
|  8> C 	 -67.7269 	 3.63539 	 -71.9709
|  9> C 	 -66.4826 	 3.06805 	 -71.9987
| 10> C 	 -66.5533 	 1.63235 	 -71.7761
| 11> C 	 -67.8584 	 1.25277 	 -71.4442
| 12> H 	 -65.73 	 0.880793 	 -71.8809
| 13> C 	 -65.1442 	 3.77563 	 -72.3675
| 14> H 	 -65.4037 	 4.64823 	 -72.9682
| 15> H 	 -64.682 	 2.97385 	 -73.0069
| 16> C 	 -64.25 	 4.1671 	 -71.2001
| 17> H 	 -64.8862 	 4.77852 	 -70.5681
| 18> H 	 -64.1248 	 3.22108 	 -70.7413
| 19> C 	 -63.0086 	 4.86999 	 -71.6957
| 20> H 	 -62.6424 	 4.80737 	 -72.7738
| 21> H 	 -62.926 	 5.93317 	 -71.4881
| 22> H 	 -62.1843 	 4.31467 	 -71.2198
| 23> S 	 -69.8482 	 -0.699827 	 -71.4009
| 24> C 	 -69.5588 	 -2.08594 	 -70.4434
| 25> C 	 -68.2158 	 -2.24491 	 -70.0883
| 26> C 	 -67.4517 	 -1.12252 	 -70.464
| 27> C 	 -68.2483 	 -0.0866313 	 -70.9962
| 28> H 	 -67.8947 	 -3.03331 	 -69.4807
| 29> C 	 -66.0556 	 -0.997525 	 -69.9528
| 30> H 	 -66.0053 	 -1.5959 	 -68.9803
| 31> H 	 -65.8777 	 0.123206 	 -69.7398
| 32> C 	 -65.0172 	 -1.59028 	 -70.9082
| 33> H 	 -65.1714 	 -1.23686 	 -71.9612
| 34> H 	 -65.1186 	 -2.73427 	 -70.9572
| 35> C 	 -63.562 	 -1.12848 	 -70.6561
| 36> H 	 -62.8172 	 -1.18566 	 -71.4939
| 37> H 	 -63.1695 	 -1.6268 	 -69.834
| 38> H 	 -63.4873 	 -0.0451084 	 -70.4996
| 39> H 	 -67.9099 	 4.69895 	 -72.0701
| 40> H 	 -70.2511 	 -2.80644 	 -70.0102
| 41> *
| 42>
| 43>                          ****END OF INPUT****

CARTESIAN COORDINATES (ANGSTROEM)
---------------------------------
  S    -68.976900    2.527090  -71.561200
  C    -67.726900    3.635390  -71.970900
  C    -66.482600    3.068050  -71.998700
  C    -66.553300    1.632350  -71.776100
  C    -67.858400    1.252770  -71.444200
  H    -65.730000    0.880793  -71.880900
  C    -65.144200    3.775630  -72.367500
  H    -65.403700    4.648230  -72.968200
  H    -64.682000    2.973850  -73.006900
  C    -64.250000    4.167100  -71.200100
  H    -64.886200    4.778520  -70.568100
  H    -64.124800    3.221080  -70.741300
  C    -63.008600    4.869990  -71.695700
  H    -62.642400    4.807370  -72.773800
  H    -62.926000    5.933170  -71.488100
  H    -62.184300    4.314670  -71.219800
  S    -69.848200   -0.699827  -71.400900
  C    -69.558800   -2.085940  -70.443400
  C    -68.215800   -2.244910  -70.088300
  C    -67.451700   -1.122520  -70.464000
  C    -68.248300   -0.086631  -70.996200
  H    -67.894700   -3.033310  -69.480700
  C    -66.055600   -0.997525  -69.952800
  H    -66.005300   -1.595900  -68.980300
  H    -65.877700    0.123206  -69.739800
  C    -65.017200   -1.590280  -70.908200
  H    -65.171400   -1.236860  -71.961200
  H    -65.118600   -2.734270  -70.957200
  C    -63.562000   -1.128480  -70.656100
  H    -62.817200   -1.185660  -71.493900
  H    -63.169500   -1.626800  -69.834000
  H    -63.487300   -0.045108  -70.499600
  H    -67.909900    4.698950  -72.070100
  H    -70.251100   -2.806440  -70.010200

 Total Charge           Charge          ....    0
 Multiplicity           Mult            ....    1
 Number of Electrons    NEL             ....  134
 Basis Dimension        Dim             ....  322

ORBITAL ENERGIES
----------------

  NO   OCC          E(Eh)            E(eV)
   0   2.0000     -88.969085     -2420.9719
   1   2.0000     -88.967309     -2420.9235
   2   2.0000     -10.327838      -281.0348
   3   2.0000     -10.327704      -281.0311
   4   2.0000     -10.313914      -280.6559
   5   2.0000     -10.309264      -280.5293
   6   2.0000     -10.301841      -280.3274
   7   2.0000     -10.301451      -280.3167
   8   2.0000     -10.300333      -280.2863
   9   2.0000     -10.299611      -280.2667
  10   2.0000     -10.299048      -280.2513
  11   2.0000     -10.294698      -280.1330
  12   2.0000     -10.287730      -279.9434
  13   2.0000     -10.285100      -279.8718
  14   2.0000     -10.284470      -279.8547
  15   2.0000     -10.279659      -279.7238
  16   2.0000      -8.084091      -219.9793
  17   2.0000      -8.083559      -219.9648
  18   2.0000      -6.042550      -164.4261
  19   2.0000      -6.041954      -164.4099
  20   2.0000      -6.038632      -164.3195
  21   2.0000      -6.037881      -164.2991
  22   2.0000      -6.034845      -164.2165
  23   2.0000      -6.034339      -164.2027
  24   2.0000      -1.012039       -27.5390
  25   2.0000      -0.989209       -26.9177
  26   2.0000      -0.915335       -24.9075
  27   2.0000      -0.910313       -24.7709
  28   2.0000      -0.869355       -23.6564
  29   2.0000      -0.856022       -23.2935
  30   2.0000      -0.848586       -23.0912
  31   2.0000      -0.809911       -22.0388
  32   2.0000      -0.783142       -21.3104
  33   2.0000      -0.771787       -21.0014
  34   2.0000      -0.706058       -19.2128
  35   2.0000      -0.700301       -19.0561
  36   2.0000      -0.688941       -18.7470
  37   2.0000      -0.666932       -18.1481
  38   2.0000      -0.637999       -17.3608
  39   2.0000      -0.618865       -16.8402
  40   2.0000      -0.589419       -16.0389
  41   2.0000      -0.574584       -15.6352
  42   2.0000      -0.565821       -15.3968
  43   2.0000      -0.561275       -15.2731
  44   2.0000      -0.526756       -14.3338
  45   2.0000      -0.520474       -14.1628
  46   2.0000      -0.516360       -14.0509
  47   2.0000      -0.507829       -13.8187
  48   2.0000      -0.503779       -13.7085
  49   2.0000      -0.499284       -13.5862
  50   2.0000      -0.496556       -13.5120
  51   2.0000      -0.488774       -13.3002
  52   2.0000      -0.475396       -12.9362
  53   2.0000      -0.471052       -12.8180
  54   2.0000      -0.462755       -12.5922
  55   2.0000      -0.454387       -12.3645
  56   2.0000      -0.441017       -12.0007
  57   2.0000      -0.432287       -11.7631
  58   2.0000      -0.430232       -11.7072
  59   2.0000      -0.426214       -11.5979
  60   2.0000      -0.423881       -11.5344
  61   2.0000      -0.412101       -11.2138
  62   2.0000      -0.406423       -11.0593
  63   2.0000      -0.352949        -9.6042
  64   2.0000      -0.333211        -9.0671
  65   2.0000      -0.331340        -9.0162
  66   2.0000      -0.281702        -7.6655
  67   0.0000       0.020485         0.5574
  68   0.0000       0.086086         2.3425
  69   0.0000       0.104666         2.8481
  70   0.0000       0.120009         3.2656
  71   0.0000       0.122883         3.3438

MULLIKEN ATOMIC CHARGES
-----------------------
   0 S :    0.120253
   1 C :   -0.122694
   2 C :   -0.091355
   3 C :   -0.019936
   4 C :   -0.130925
   5 H :    0.018120
   6 C :    0.010193
   7 H :    0.023563
   8 H :    0.038064
   9 C :   -0.010328
  10 H :    0.030781
  11 H :    0.018705
  12 C :   -0.061951
  13 H :    0.039419
  14 H :    0.043166
  15 H :    0.031392
  16 S :    0.118286
  17 C :   -0.079132
  18 C :   -0.031299
  19 C :   -0.010524
  20 C :   -0.130830
  21 H :   -0.001536
  22 C :   -0.018246
  23 H :    0.040914
  24 H :    0.056270
  25 C :   -0.115636
  26 H :    0.043560
  27 H :    0.046774
  28 C :   -0.034235
  29 H :    0.036689
  30 H :    0.022685
  31 H :    0.020096
  32 H :    0.044738
  33 H :    0.054957
Sum of atomic charges:   -0.0000000

LOEWDIN ATOMIC CHARGES
----------------------
   0 S :    0.436157
   1 C :   -0.211234
   2 C :   -0.063256
   3 C :   -0.076563
   4 C :   -0.207772
   5 H :    0.037589
   6 C :   -0.028303
   7 H :    0.024378
   8 H :    0.033806
   9 C :   -0.038339
  10 H :    0.029008
  11 H :    0.020336
  12 C :   -0.080228
  13 H :    0.035899
  14 H :    0.028548
  15 H :    0.033673
  16 S :    0.416358
  17 C :   -0.199339
  18 C :   -0.063786
  19 C :   -0.057761
  20 C :   -0.194157
  21 H :    0.022518
  22 C :   -0.043954
  23 H :    0.037612
  24 H :    0.041155
  25 C :   -0.052622
  26 H :    0.025664
  27 H :    0.034398
  28 C :   -0.071159
  29 H :    0.032968
  30 H :    0.013794
  31 H :    0.024462
  32 H :    0.027223
  33 H :    0.032928

  Mayer bond orders larger than 0.100000
B(  0-S ,  1-C ) :   1.1329 B(  0-S ,  4-C ) :   1.1732 B(  1-C ,  2-C ) :   1.6308
B(  1-C , 32-H ) :   0.9671 B(  2-C ,  3-C ) :   1.2379 B(  2-C ,  6-C ) :   1.0013
B(  3-C ,  4-C ) :   1.5488 B(  3-C ,  5-H ) :   0.9779 B(  4-C , 20-C ) :   1.0643
B(  6-C ,  7-H ) :   0.9478 B(  6-C ,  8-H ) :   0.9468 B(  6-C ,  9-C ) :   1.0568
B(  9-C , 10-H ) :   0.9550 B(  9-C , 11-H ) :   0.9626 B(  9-C , 12-C ) :   1.0543
B( 12-C , 13-H ) :   0.9765 B( 12-C , 14-H ) :   0.9775 B( 12-C , 15-H ) :   0.9752
B( 16-S , 17-C ) :   1.1623 B( 16-S , 20-C ) :   1.1374 B( 17-C , 18-C ) :   1.5980
B( 17-C , 20-C ) :   0.1027 B( 17-C , 33-H ) :   0.9628 B( 18-C , 19-C ) :   1.2618
B( 18-C , 21-H ) :   0.9951 B( 19-C , 20-C ) :   1.5619 B( 19-C , 22-C ) :   1.0394
B( 22-C , 23-H ) :   0.9399 B( 22-C , 24-H ) :   0.9416 B( 22-C , 25-C ) :   1.0406
B( 25-C , 26-H ) :   0.9584 B( 25-C , 27-H ) :   0.9512 B( 25-C , 28-C ) :   1.0680
B( 28-C , 29-H ) :   0.9769 B( 28-C , 30-H ) :   0.9757 B( 28-C , 31-H ) :   0.9713

Dispersion correction           -0.014338201
FINAL SINGLE POINT ENERGY     -1339.861522664801

DIPOLE MOMENT
-------------
                                X             Y             Z
Electronic contribution:    -33.80964      -4.63308      -2.02701
Nuclear contribution   :     34.46876       4.64960       2.22746
                        -----------------------------------------
Total Dipole Moment    :      0.65911       0.01652       0.20046
                        -----------------------------------------
Magnitude (a.u.)       :      0.68912
Magnitude (Debye)      :      1.75160

Rotational constants in cm-1:     0.018635     0.009262     0.006398
Rotational constants in MHz :   558.651070   277.681891   191.803834

                             ****ORCA TERMINATED NORMALLY****
TOTAL RUN TIME: 0 days 0 hours 0 minutes 22 seconds 210 msec
