                         Program Version 4.2.1 -  RELEASE  -
|  1> ! wB97X-D3 SP def2-SVP
|  2> %pal
|  3> nprocs 24
|  4> end
|  5>
|  6> * xyz 0 1
|  7> S 	 -120.812 	 59.4017 	 -35.1397
|  8> C 	 -122.018 	 59.25 	 -36.4033
|  9> C 	 -122.221 	 60.4276 	 -37.0826
| 10> C 	 -121.409 	 61.5022 	 -36.6154
| 11> C 	 -120.616 	 61.1814 	 -35.5453
| 12> H 	 -121.548 	 62.4907 	 -36.9611
| 13> C 	 -123.247 	 60.5451 	 -38.2525
| 14> H 	 -123.907 	 61.2301 	 -37.9341
| 15> H 	 -123.848 	 59.5892 	 -38.204
| 16> C 	 -122.655 	 61.1659 	 -39.6062
| 17> H 	 -123.466 	 61.4676 	 -40.2106
| 18> H 	 -122.109 	 62.1082 	 -39.2974
| 19> C 	 -121.789 	 60.0944 	 -40.1723
| 20> H 	 -122.634 	 59.3778 	 -40.3831
| 21> H 	 -121.358 	 60.4503 	 -41.1183
| 22> H 	 -120.984 	 59.7868 	 -39.533
| 23> S 	 -118.125 	 61.4908 	 -34.667
| 24> C 	 -117.537 	 62.8533 	 -33.8821
| 25> C 	 -118.554 	 63.8044 	 -33.7743
| 26> C 	 -119.881 	 63.2903 	 -34.2376
| 27> C 	 -119.739 	 62.0151 	 -34.7474
| 28> H 	 -118.482 	 64.6749 	 -33.0874
| 29> C 	 -121.16 	 64.0516 	 -33.9765
| 30> H 	 -121.856 	 63.9173 	 -34.7976
| 31> H 	 -120.851 	 65.1393 	 -33.9048
| 32> C 	 -121.955 	 63.6522 	 -32.7566
| 33> H 	 -121.274 	 63.75 	 -31.9456
| 34> H 	 -122.249 	 62.6078 	 -32.769
| 35> C 	 -123.339 	 64.3756 	 -32.5319
| 36> H 	 -123.224 	 65.3851 	 -32.2599
| 37> H 	 -124.004 	 63.9114 	 -31.8299
| 38> H 	 -123.829 	 64.3444 	 -33.4594
| 39> H 	 -122.478 	 58.359 	 -36.6157
| 40> H 	 -116.561 	 62.9857 	 -33.3981
| 41> *
| 42>
| 43>                          ****END OF INPUT****

CARTESIAN COORDINATES (ANGSTROEM)
---------------------------------
  S    -120.812000   59.401700  -35.139700
  C    -122.018000   59.250000  -36.403300
  C    -122.221000   60.427600  -37.082600
  C    -121.409000   61.502200  -36.615400
  C    -120.616000   61.181400  -35.545300
  H    -121.548000   62.490700  -36.961100
  C    -123.247000   60.545100  -38.252500
  H    -123.907000   61.230100  -37.934100
  H    -123.848000   59.589200  -38.204000
  C    -122.655000   61.165900  -39.606200
  H    -123.466000   61.467600  -40.210600
  H    -122.109000   62.108200  -39.297400
  C    -121.789000   60.094400  -40.172300
  H    -122.634000   59.377800  -40.383100
  H    -121.358000   60.450300  -41.118300
  H    -120.984000   59.786800  -39.533000
  S    -118.125000   61.490800  -34.667000
  C    -117.537000   62.853300  -33.882100
  C    -118.554000   63.804400  -33.774300
  C    -119.881000   63.290300  -34.237600
  C    -119.739000   62.015100  -34.747400
  H    -118.482000   64.674900  -33.087400
  C    -121.160000   64.051600  -33.976500
  H    -121.856000   63.917300  -34.797600
  H    -120.851000   65.139300  -33.904800
  C    -121.955000   63.652200  -32.756600
  H    -121.274000   63.750000  -31.945600
  H    -122.249000   62.607800  -32.769000
  C    -123.339000   64.375600  -32.531900
  H    -123.224000   65.385100  -32.259900
  H    -124.004000   63.911400  -31.829900
  H    -123.829000   64.344400  -33.459400
  H    -122.478000   58.359000  -36.615700
  H    -116.561000   62.985700  -33.398100

 Total Charge           Charge          ....    0
 Multiplicity           Mult            ....    1
 Number of Electrons    NEL             ....  134
 Basis Dimension        Dim             ....  322

ORBITAL ENERGIES
----------------

  NO   OCC          E(Eh)            E(eV)
   0   2.0000     -88.963855     -2420.8296
   1   2.0000     -88.963680     -2420.8248
   2   2.0000     -10.335823      -281.2520
   3   2.0000     -10.322068      -280.8777
   4   2.0000     -10.318236      -280.7735
   5   2.0000     -10.308678      -280.5134
   6   2.0000     -10.308570      -280.5104
   7   2.0000     -10.301571      -280.3200
   8   2.0000     -10.300869      -280.3009
   9   2.0000     -10.294475      -280.1269
  10   2.0000     -10.294263      -280.1211
  11   2.0000     -10.292386      -280.0701
  12   2.0000     -10.290950      -280.0310
  13   2.0000     -10.280332      -279.7421
  14   2.0000     -10.275606      -279.6134
  15   2.0000     -10.270271      -279.4683
  16   2.0000      -8.080970      -219.8944
  17   2.0000      -8.077453      -219.7987
  18   2.0000      -6.039385      -164.3400
  19   2.0000      -6.036000      -164.2479
  20   2.0000      -6.034869      -164.2171
  21   2.0000      -6.032214      -164.1449
  22   2.0000      -6.031924      -164.1370
  23   2.0000      -6.028117      -164.0334
  24   2.0000      -1.012341       -27.5472
  25   2.0000      -0.982693       -26.7404
  26   2.0000      -0.910865       -24.7859
  27   2.0000      -0.910028       -24.7631
  28   2.0000      -0.873402       -23.7665
  29   2.0000      -0.850625       -23.1467
  30   2.0000      -0.844455       -22.9788
  31   2.0000      -0.817758       -22.2523
  32   2.0000      -0.784465       -21.3464
  33   2.0000      -0.771853       -21.0032
  34   2.0000      -0.711551       -19.3623
  35   2.0000      -0.697578       -18.9821
  36   2.0000      -0.691465       -18.8157
  37   2.0000      -0.663880       -18.0651
  38   2.0000      -0.644365       -17.5341
  39   2.0000      -0.625879       -17.0310
  40   2.0000      -0.597419       -16.2566
  41   2.0000      -0.567371       -15.4389
  42   2.0000      -0.564332       -15.3562
  43   2.0000      -0.554098       -15.0778
  44   2.0000      -0.546531       -14.8719
  45   2.0000      -0.522744       -14.2246
  46   2.0000      -0.518805       -14.1174
  47   2.0000      -0.514154       -13.9908
  48   2.0000      -0.509943       -13.8762
  49   2.0000      -0.498071       -13.5532
  50   2.0000      -0.490887       -13.3577
  51   2.0000      -0.483917       -13.1680
  52   2.0000      -0.470710       -12.8087
  53   2.0000      -0.463337       -12.6080
  54   2.0000      -0.462619       -12.5885
  55   2.0000      -0.449967       -12.2442
  56   2.0000      -0.446523       -12.1505
  57   2.0000      -0.433467       -11.7952
  58   2.0000      -0.426850       -11.6152
  59   2.0000      -0.422926       -11.5084
  60   2.0000      -0.419794       -11.4232
  61   2.0000      -0.414685       -11.2841
  62   2.0000      -0.409970       -11.1559
  63   2.0000      -0.350236        -9.5304
  64   2.0000      -0.330802        -9.0016
  65   2.0000      -0.326004        -8.8710
  66   2.0000      -0.296208        -8.0602
  67   0.0000       0.030657         0.8342
  68   0.0000       0.070900         1.9293
  69   0.0000       0.110200         2.9987
  70   0.0000       0.115064         3.1310
  71   0.0000       0.130371         3.5476

MULLIKEN ATOMIC CHARGES
-----------------------
   0 S :    0.086901
   1 C :   -0.088127
   2 C :   -0.117031
   3 C :    0.055229
   4 C :   -0.151321
   5 H :    0.004921
   6 C :    0.077821
   7 H :   -0.004277
   8 H :    0.026726
   9 C :   -0.079147
  10 H :    0.028672
  11 H :    0.032954
  12 C :   -0.026073
  13 H :    0.035036
  14 H :    0.029681
  15 H :    0.054244
  16 S :    0.125209
  17 C :   -0.094896
  18 C :   -0.055263
  19 C :   -0.073231
  20 C :   -0.133901
  21 H :    0.037117
  22 C :    0.062696
  23 H :    0.009776
  24 H :    0.033067
  25 C :   -0.063081
  26 H :    0.011197
  27 H :    0.031479
  28 C :   -0.007390
  29 H :    0.020202
  30 H :    0.032559
  31 H :    0.011665
  32 H :    0.013457
  33 H :    0.073128
Sum of atomic charges:    0.0000000

LOEWDIN ATOMIC CHARGES
----------------------
   0 S :    0.360895
   1 C :   -0.178699
   2 C :   -0.060699
   3 C :   -0.055478
   4 C :   -0.162220
   5 H :    0.026178
   6 C :   -0.026963
   7 H :    0.010342
   8 H :    0.036222
   9 C :   -0.032200
  10 H :    0.018555
  11 H :    0.024699
  12 C :   -0.064657
  13 H :    0.038101
  14 H :    0.022224
  15 H :    0.028060
  16 S :    0.462848
  17 C :   -0.214247
  18 C :   -0.081476
  19 C :   -0.054298
  20 C :   -0.223308
  21 H :    0.033494
  22 C :   -0.036440
  23 H :    0.024964
  24 H :    0.037739
  25 C :   -0.035349
  26 H :    0.015013
  27 H :    0.027659
  28 C :   -0.053659
  29 H :    0.016990
  30 H :    0.027361
  31 H :    0.019118
  32 H :    0.009052
  33 H :    0.040179

  Mayer bond orders larger than 0.100000
B(  0-S ,  1-C ) :   1.1258 B(  0-S ,  4-C ) :   1.1245 B(  1-C ,  2-C ) :   1.6333
B(  1-C , 32-H ) :   0.9776 B(  2-C ,  3-C ) :   1.2212 B(  2-C ,  6-C ) :   1.0063
B(  3-C ,  4-C ) :   1.6127 B(  3-C ,  5-H ) :   0.9943 B(  4-C , 20-C ) :   1.0130
B(  6-C ,  7-H ) :   0.9264 B(  6-C ,  8-H ) :   0.9478 B(  6-C ,  9-C ) :   1.0599
B(  9-C , 10-H ) :   0.9598 B(  9-C , 11-H ) :   0.9486 B(  9-C , 12-C ) :   1.0612
B( 12-C , 13-H ) :   0.9767 B( 12-C , 14-H ) :   0.9729 B( 12-C , 15-H ) :   0.9765
B( 16-S , 17-C ) :   1.1825 B( 16-S , 20-C ) :   1.1657 B( 17-C , 18-C ) :   1.5888
B( 17-C , 33-H ) :   0.9655 B( 18-C , 19-C ) :   1.2527 B( 18-C , 21-H ) :   0.9748
B( 19-C , 20-C ) :   1.5866 B( 19-C , 22-C ) :   1.0648 B( 22-C , 23-H ) :   0.9246
B( 22-C , 24-H ) :   0.9311 B( 22-C , 25-C ) :   1.0731 B( 25-C , 26-H ) :   0.9551
B( 25-C , 27-H ) :   0.9555 B( 25-C , 28-C ) :   1.0723 B( 28-C , 29-H ) :   0.9775
B( 28-C , 30-H ) :   0.9768 B( 28-C , 31-H ) :   0.9727

Dispersion correction           -0.014137352
FINAL SINGLE POINT ENERGY     -1339.852160389483

DIPOLE MOMENT
-------------
                                X             Y             Z
Electronic contribution:     19.00710     -11.03822       7.99875
Nuclear contribution   :    -19.48008      11.46974      -8.10043
                        -----------------------------------------
Total Dipole Moment    :     -0.47298       0.43152      -0.10167
                        -----------------------------------------
Magnitude (a.u.)       :      0.64827
Magnitude (Debye)      :      1.64777

Rotational constants in cm-1:     0.017660     0.008570     0.007160
Rotational constants in MHz :   529.448214   256.909206   214.649022

                             ****ORCA TERMINATED NORMALLY****
TOTAL RUN TIME: 0 days 0 hours 0 minutes 21 seconds 452 msec
