                         Program Version 4.2.1 -  RELEASE  -
|  1> ! wB97X-D3 SP def2-SVP
|  2> %pal
|  3> nprocs 24
|  4> end
|  5>
|  6> * xyz 0 1
|  7> S 	 -50.9138 	 27.6117 	 26.1278
|  8> C 	 -51.6904 	 28.9986 	 25.407
|  9> C 	 -50.7412 	 30.0161 	 25.2269
| 10> C 	 -49.3905 	 29.6938 	 25.6199
| 11> C 	 -49.3204 	 28.3703 	 26.0603
| 12> H 	 -48.476 	 30.3078 	 25.6838
| 13> C 	 -50.9748 	 31.3308 	 24.622
| 14> H 	 -50.2725 	 32.0066 	 25.1107
| 15> H 	 -52.0936 	 31.7192 	 24.7277
| 16> C 	 -50.5 	 31.4133 	 23.2302
| 17> H 	 -49.4653 	 31.2446 	 23.1453
| 18> H 	 -50.9985 	 30.7488 	 22.562
| 19> C 	 -50.8884 	 32.7381 	 22.7346
| 20> H 	 -50.5891 	 32.8606 	 21.6965
| 21> H 	 -51.9587 	 32.9237 	 22.8965
| 22> H 	 -50.2818 	 33.5637 	 23.2976
| 23> S 	 -47.492 	 26.2606 	 25.7393
| 24> C 	 -46.2003 	 26.0263 	 26.9249
| 25> C 	 -46.3762 	 26.9435 	 27.9537
| 26> C 	 -47.3003 	 28.0193 	 27.6802
| 27> C 	 -48.1184 	 27.7009 	 26.5452
| 28> H 	 -45.73 	 26.9443 	 28.8082
| 29> C 	 -47.4757 	 29.265 	 28.5807
| 30> H 	 -47.6051 	 30.164 	 28.0096
| 31> H 	 -46.4626 	 29.3399 	 29.0669
| 32> C 	 -48.5205 	 29.0794 	 29.7148
| 33> H 	 -48.6384 	 29.9289 	 30.317
| 34> H 	 -48.121 	 28.2901 	 30.3439
| 35> C 	 -49.8759 	 28.6778 	 29.1967
| 36> H 	 -50.3666 	 29.4536 	 28.6571
| 37> H 	 -50.5024 	 28.6556 	 30.088
| 38> H 	 -49.9107 	 27.7124 	 28.7
| 39> H 	 -52.7545 	 29.1689 	 25.1557
| 40> H 	 -45.416 	 25.1928 	 26.9673
| 41> *
| 42>
| 43>                          ****END OF INPUT****

CARTESIAN COORDINATES (ANGSTROEM)
---------------------------------
  S    -50.913800   27.611700   26.127800
  C    -51.690400   28.998600   25.407000
  C    -50.741200   30.016100   25.226900
  C    -49.390500   29.693800   25.619900
  C    -49.320400   28.370300   26.060300
  H    -48.476000   30.307800   25.683800
  C    -50.974800   31.330800   24.622000
  H    -50.272500   32.006600   25.110700
  H    -52.093600   31.719200   24.727700
  C    -50.500000   31.413300   23.230200
  H    -49.465300   31.244600   23.145300
  H    -50.998500   30.748800   22.562000
  C    -50.888400   32.738100   22.734600
  H    -50.589100   32.860600   21.696500
  H    -51.958700   32.923700   22.896500
  H    -50.281800   33.563700   23.297600
  S    -47.492000   26.260600   25.739300
  C    -46.200300   26.026300   26.924900
  C    -46.376200   26.943500   27.953700
  C    -47.300300   28.019300   27.680200
  C    -48.118400   27.700900   26.545200
  H    -45.730000   26.944300   28.808200
  C    -47.475700   29.265000   28.580700
  H    -47.605100   30.164000   28.009600
  H    -46.462600   29.339900   29.066900
  C    -48.520500   29.079400   29.714800
  H    -48.638400   29.928900   30.317000
  H    -48.121000   28.290100   30.343900
  C    -49.875900   28.677800   29.196700
  H    -50.366600   29.453600   28.657100
  H    -50.502400   28.655600   30.088000
  H    -49.910700   27.712400   28.700000
  H    -52.754500   29.168900   25.155700
  H    -45.416000   25.192800   26.967300

 Total Charge           Charge          ....    0
 Multiplicity           Mult            ....    1
 Number of Electrons    NEL             ....  134
 Basis Dimension        Dim             ....  322

ORBITAL ENERGIES
----------------

  NO   OCC          E(Eh)            E(eV)
   0   2.0000     -88.968344     -2420.9517
   1   2.0000     -88.967616     -2420.9319
   2   2.0000     -10.331850      -281.1439
   3   2.0000     -10.331193      -281.1261
   4   2.0000     -10.327596      -281.0282
   5   2.0000     -10.317765      -280.7607
   6   2.0000     -10.311801      -280.5984
   7   2.0000     -10.300720      -280.2968
   8   2.0000     -10.299604      -280.2665
   9   2.0000     -10.296891      -280.1926
  10   2.0000     -10.295680      -280.1597
  11   2.0000     -10.291270      -280.0397
  12   2.0000     -10.279010      -279.7061
  13   2.0000     -10.278135      -279.6823
  14   2.0000     -10.269589      -279.4497
  15   2.0000     -10.260229      -279.1950
  16   2.0000      -8.082162      -219.9268
  17   2.0000      -8.081453      -219.9075
  18   2.0000      -6.040874      -164.3805
  19   2.0000      -6.040014      -164.3571
  20   2.0000      -6.036686      -164.2666
  21   2.0000      -6.035936      -164.2462
  22   2.0000      -6.032842      -164.1620
  23   2.0000      -6.032337      -164.1482
  24   2.0000      -1.000372       -27.2215
  25   2.0000      -0.978622       -26.6296
  26   2.0000      -0.932204       -25.3666
  27   2.0000      -0.905723       -24.6460
  28   2.0000      -0.869028       -23.6474
  29   2.0000      -0.853016       -23.2117
  30   2.0000      -0.843469       -22.9520
  31   2.0000      -0.810846       -22.0642
  32   2.0000      -0.779846       -21.2207
  33   2.0000      -0.763693       -20.7812
  34   2.0000      -0.704705       -19.1760
  35   2.0000      -0.695059       -18.9135
  36   2.0000      -0.689748       -18.7690
  37   2.0000      -0.654297       -17.8043
  38   2.0000      -0.641377       -17.4528
  39   2.0000      -0.617936       -16.8149
  40   2.0000      -0.592814       -16.1313
  41   2.0000      -0.582189       -15.8422
  42   2.0000      -0.565888       -15.3986
  43   2.0000      -0.554031       -15.0759
  44   2.0000      -0.540843       -14.7171
  45   2.0000      -0.521918       -14.2021
  46   2.0000      -0.515656       -14.0317
  47   2.0000      -0.509835       -13.8733
  48   2.0000      -0.501526       -13.6472
  49   2.0000      -0.499851       -13.6016
  50   2.0000      -0.494106       -13.4453
  51   2.0000      -0.472931       -12.8691
  52   2.0000      -0.471657       -12.8344
  53   2.0000      -0.464746       -12.6464
  54   2.0000      -0.453128       -12.3302
  55   2.0000      -0.446906       -12.1609
  56   2.0000      -0.441697       -12.0192
  57   2.0000      -0.438455       -11.9310
  58   2.0000      -0.428044       -11.6477
  59   2.0000      -0.420172       -11.4335
  60   2.0000      -0.416463       -11.3325
  61   2.0000      -0.412906       -11.2357
  62   2.0000      -0.412070       -11.2130
  63   2.0000      -0.341172        -9.2838
  64   2.0000      -0.329003        -8.9526
  65   2.0000      -0.322968        -8.7884
  66   2.0000      -0.293655        -7.9908
  67   0.0000       0.030608         0.8329
  68   0.0000       0.059506         1.6192
  69   0.0000       0.108600         2.9552
  70   0.0000       0.118777         3.2321
  71   0.0000       0.124989         3.4011

MULLIKEN ATOMIC CHARGES
-----------------------
   0 S :    0.119309
   1 C :   -0.116105
   2 C :   -0.069027
   3 C :    0.019765
   4 C :   -0.158385
   5 H :    0.035435
   6 C :    0.005697
   7 H :    0.015156
   8 H :    0.041071
   9 C :   -0.019005
  10 H :    0.019630
  11 H :    0.014207
  12 C :   -0.054701
  13 H :    0.030959
  14 H :    0.032189
  15 H :    0.023383
  16 S :    0.115123
  17 C :   -0.121795
  18 C :   -0.024428
  19 C :   -0.067006
  20 C :   -0.181601
  21 H :    0.013961
  22 C :    0.073747
  23 H :    0.022131
  24 H :    0.022824
  25 C :   -0.033629
  26 H :    0.017419
  27 H :    0.018073
  28 C :   -0.022331
  29 H :    0.020692
  30 H :    0.014143
  31 H :    0.045408
  32 H :    0.057344
  33 H :    0.090351
Sum of atomic charges:    0.0000000

LOEWDIN ATOMIC CHARGES
----------------------
   0 S :    0.418790
   1 C :   -0.215846
   2 C :   -0.062619
   3 C :   -0.062418
   4 C :   -0.185680
   5 H :    0.039988
   6 C :   -0.042327
   7 H :    0.032609
   8 H :    0.039719
   9 C :   -0.041343
  10 H :    0.021343
  11 H :    0.021345
  12 C :   -0.062633
  13 H :    0.022207
  14 H :    0.024369
  15 H :    0.027541
  16 S :    0.401500
  17 C :   -0.199261
  18 C :   -0.073484
  19 C :   -0.048656
  20 C :   -0.207867
  21 H :    0.025728
  22 C :   -0.030943
  23 H :    0.022788
  24 H :    0.035013
  25 C :   -0.031660
  26 H :    0.017786
  27 H :    0.023930
  28 C :   -0.067144
  29 H :    0.020972
  30 H :    0.026361
  31 H :    0.018134
  32 H :    0.039829
  33 H :    0.051930

  Mayer bond orders larger than 0.100000
B(  0-S ,  1-C ) :   1.1206 B(  0-S ,  4-C ) :   1.1632 B(  1-C ,  2-C ) :   1.6071
B(  1-C , 32-H ) :   0.9666 B(  2-C ,  3-C ) :   1.2127 B(  2-C ,  6-C ) :   1.0467
B(  3-C ,  4-C ) :   1.5789 B(  3-C ,  5-H ) :   0.9864 B(  4-C , 20-C ) :   1.0473
B(  6-C ,  7-H ) :   0.9254 B(  6-C ,  8-H ) :   0.9431 B(  6-C ,  9-C ) :   1.0783
B(  9-C , 10-H ) :   0.9440 B(  9-C , 11-H ) :   0.9427 B(  9-C , 12-C ) :   1.1017
B( 12-C , 13-H ) :   0.9706 B( 12-C , 14-H ) :   0.9706 B( 12-C , 15-H ) :   0.9680
B( 16-S , 17-C ) :   1.1498 B( 16-S , 20-C ) :   1.1542 B( 17-C , 18-C ) :   1.6036
B( 17-C , 20-C ) :   0.1070 B( 17-C , 33-H ) :   0.9577 B( 18-C , 19-C ) :   1.2699
B( 18-C , 21-H ) :   0.9800 B( 19-C , 20-C ) :   1.5419 B( 19-C , 22-C ) :   1.0316
B( 22-C , 23-H ) :   0.9425 B( 22-C , 24-H ) :   0.9317 B( 22-C , 25-C ) :   1.0693
B( 25-C , 26-H ) :   0.9544 B( 25-C , 27-H ) :   0.9511 B( 25-C , 28-C ) :   1.1030
B( 28-C , 29-H ) :   0.9687 B( 28-C , 30-H ) :   0.9648 B( 28-C , 31-H ) :   0.9650

Dispersion correction           -0.015656381
FINAL SINGLE POINT ENERGY     -1339.860109425288

DIPOLE MOMENT
-------------
                                X             Y             Z
Electronic contribution:      4.79769     -22.50679      -1.92293
Nuclear contribution   :     -4.65820      23.04215       2.14950
                        -----------------------------------------
Total Dipole Moment    :      0.13949       0.53536       0.22657
                        -----------------------------------------
Magnitude (a.u.)       :      0.59783
Magnitude (Debye)      :      1.51956

Rotational constants in cm-1:     0.021537     0.008258     0.007653
Rotational constants in MHz :   645.660821   247.562617   229.416327

                             ****ORCA TERMINATED NORMALLY****
TOTAL RUN TIME: 0 days 0 hours 0 minutes 23 seconds 694 msec
