                         Program Version 4.2.1 -  RELEASE  -
|  1> ! wB97X-D3 SP def2-SVP
|  2> %pal
|  3> nprocs 24
|  4> end
|  5>
|  6> * xyz 0 1
|  7> S 	 -117.499 	 16.3989 	 -111.558
|  8> C 	 -116.34 	 17.5694 	 -111.992
|  9> C 	 -115.292 	 16.963 	 -112.685
| 10> C 	 -115.454 	 15.5148 	 -112.892
| 11> C 	 -116.689 	 15.1256 	 -112.368
| 12> H 	 -114.751 	 14.8237 	 -113.349
| 13> C 	 -114.082 	 17.665 	 -113.225
| 14> H 	 -114.551 	 18.3825 	 -113.95
| 15> H 	 -113.6 	 16.9431 	 -113.908
| 16> C 	 -113.152 	 18.4282 	 -112.337
| 17> H 	 -113.715 	 19.0885 	 -111.671
| 18> H 	 -112.717 	 17.7483 	 -111.688
| 19> C 	 -112.024 	 19.1525 	 -113.046
| 20> H 	 -111.335 	 19.662 	 -112.345
| 21> H 	 -111.349 	 18.4354 	 -113.555
| 22> H 	 -112.39 	 19.7844 	 -113.886
| 23> S 	 -117.375 	 13.1537 	 -110.63
| 24> C 	 -118.052 	 11.647 	 -111.252
| 25> C 	 -117.894 	 11.5551 	 -112.598
| 26> C 	 -117.305 	 12.6894 	 -113.219
| 27> C 	 -117.168 	 13.7334 	 -112.275
| 28> H 	 -118.345 	 10.657 	 -113.035
| 29> C 	 -117.078 	 12.75 	 -114.734
| 30> H 	 -117.345 	 11.7191 	 -115.138
| 31> H 	 -116.039 	 12.9315 	 -114.93
| 32> C 	 -118.002 	 13.7352 	 -115.45
| 33> H 	 -118.175 	 14.6976 	 -114.955
| 34> H 	 -118.983 	 13.2603 	 -115.653
| 35> C 	 -117.355 	 14.0651 	 -116.798
| 36> H 	 -117.938 	 14.8105 	 -117.265
| 37> H 	 -117.349 	 13.1919 	 -117.471
| 38> H 	 -116.472 	 14.5883 	 -116.659
| 39> H 	 -116.286 	 18.5606 	 -111.65
| 40> H 	 -118.378 	 10.7737 	 -110.613
| 41> *
| 42>
| 43>                          ****END OF INPUT****

CARTESIAN COORDINATES (ANGSTROEM)
---------------------------------
  S    -117.499000   16.398900  -111.558000
  C    -116.340000   17.569400  -111.992000
  C    -115.292000   16.963000  -112.685000
  C    -115.454000   15.514800  -112.892000
  C    -116.689000   15.125600  -112.368000
  H    -114.751000   14.823700  -113.349000
  C    -114.082000   17.665000  -113.225000
  H    -114.551000   18.382500  -113.950000
  H    -113.600000   16.943100  -113.908000
  C    -113.152000   18.428200  -112.337000
  H    -113.715000   19.088500  -111.671000
  H    -112.717000   17.748300  -111.688000
  C    -112.024000   19.152500  -113.046000
  H    -111.335000   19.662000  -112.345000
  H    -111.349000   18.435400  -113.555000
  H    -112.390000   19.784400  -113.886000
  S    -117.375000   13.153700  -110.630000
  C    -118.052000   11.647000  -111.252000
  C    -117.894000   11.555100  -112.598000
  C    -117.305000   12.689400  -113.219000
  C    -117.168000   13.733400  -112.275000
  H    -118.345000   10.657000  -113.035000
  C    -117.078000   12.750000  -114.734000
  H    -117.345000   11.719100  -115.138000
  H    -116.039000   12.931500  -114.930000
  C    -118.002000   13.735200  -115.450000
  H    -118.175000   14.697600  -114.955000
  H    -118.983000   13.260300  -115.653000
  C    -117.355000   14.065100  -116.798000
  H    -117.938000   14.810500  -117.265000
  H    -117.349000   13.191900  -117.471000
  H    -116.472000   14.588300  -116.659000
  H    -116.286000   18.560600  -111.650000
  H    -118.378000   10.773700  -110.613000

 Total Charge           Charge          ....    0
 Multiplicity           Mult            ....    1
 Number of Electrons    NEL             ....  134
 Basis Dimension        Dim             ....  322

ORBITAL ENERGIES
----------------

  NO   OCC          E(Eh)            E(eV)
   0   2.0000     -88.968277     -2420.9499
   1   2.0000     -88.962916     -2420.8040
   2   2.0000     -10.328833      -281.0618
   3   2.0000     -10.328369      -281.0492
   4   2.0000     -10.314844      -280.6812
   5   2.0000     -10.307790      -280.4892
   6   2.0000     -10.305671      -280.4316
   7   2.0000     -10.304417      -280.3974
   8   2.0000     -10.299167      -280.2546
   9   2.0000     -10.295253      -280.1481
  10   2.0000     -10.290433      -280.0169
  11   2.0000     -10.289795      -279.9996
  12   2.0000     -10.284806      -279.8638
  13   2.0000     -10.283232      -279.8210
  14   2.0000     -10.280691      -279.7518
  15   2.0000     -10.265026      -279.3256
  16   2.0000      -8.084142      -219.9807
  17   2.0000      -8.077418      -219.7977
  18   2.0000      -6.042572      -164.4267
  19   2.0000      -6.038326      -164.3112
  20   2.0000      -6.035888      -164.2449
  21   2.0000      -6.035072      -164.2227
  22   2.0000      -6.032033      -164.1400
  23   2.0000      -6.028151      -164.0343
  24   2.0000      -1.008364       -27.4390
  25   2.0000      -0.984045       -26.7772
  26   2.0000      -0.917654       -24.9706
  27   2.0000      -0.908439       -24.7199
  28   2.0000      -0.869591       -23.6628
  29   2.0000      -0.853232       -23.2176
  30   2.0000      -0.847661       -23.0660
  31   2.0000      -0.814001       -22.1501
  32   2.0000      -0.779412       -21.2089
  33   2.0000      -0.768813       -20.9205
  34   2.0000      -0.709744       -19.3131
  35   2.0000      -0.703488       -19.1429
  36   2.0000      -0.687093       -18.6967
  37   2.0000      -0.656969       -17.8770
  38   2.0000      -0.641826       -17.4650
  39   2.0000      -0.614166       -16.7123
  40   2.0000      -0.591750       -16.1023
  41   2.0000      -0.572199       -15.5703
  42   2.0000      -0.568751       -15.4765
  43   2.0000      -0.560041       -15.2395
  44   2.0000      -0.528869       -14.3912
  45   2.0000      -0.521408       -14.1882
  46   2.0000      -0.517007       -14.0685
  47   2.0000      -0.510712       -13.8972
  48   2.0000      -0.506172       -13.7736
  49   2.0000      -0.502736       -13.6801
  50   2.0000      -0.490388       -13.3441
  51   2.0000      -0.485734       -13.2175
  52   2.0000      -0.472720       -12.8634
  53   2.0000      -0.462952       -12.5976
  54   2.0000      -0.460770       -12.5382
  55   2.0000      -0.446537       -12.1509
  56   2.0000      -0.440686       -11.9917
  57   2.0000      -0.437181       -11.8963
  58   2.0000      -0.433254       -11.7894
  59   2.0000      -0.423481       -11.5235
  60   2.0000      -0.420057       -11.4303
  61   2.0000      -0.417190       -11.3523
  62   2.0000      -0.410696       -11.1756
  63   2.0000      -0.346082        -9.4174
  64   2.0000      -0.328491        -8.9387
  65   2.0000      -0.324780        -8.8377
  66   2.0000      -0.292101        -7.9485
  67   0.0000       0.030577         0.8321
  68   0.0000       0.069927         1.9028
  69   0.0000       0.112257         3.0547
  70   0.0000       0.121758         3.3132
  71   0.0000       0.131046         3.5660

MULLIKEN ATOMIC CHARGES
-----------------------
   0 S :    0.131806
   1 C :   -0.092581
   2 C :   -0.114832
   3 C :    0.031108
   4 C :   -0.163222
   5 H :    0.024138
   6 C :    0.030525
   7 H :    0.034135
   8 H :    0.012121
   9 C :   -0.005359
  10 H :    0.019850
  11 H :    0.009536
  12 C :   -0.065943
  13 H :    0.043963
  14 H :    0.024107
  15 H :    0.035041
  16 S :    0.101805
  17 C :   -0.116297
  18 C :   -0.057322
  19 C :   -0.000337
  20 C :   -0.173507
  21 H :    0.025477
  22 C :    0.069862
  23 H :    0.029399
  24 H :    0.027994
  25 C :   -0.095026
  26 H :    0.046996
  27 H :    0.033605
  28 C :   -0.012362
  29 H :    0.008204
  30 H :    0.035123
  31 H :    0.015553
  32 H :    0.032926
  33 H :    0.073513
Sum of atomic charges:    0.0000000

LOEWDIN ATOMIC CHARGES
----------------------
   0 S :    0.450552
   1 C :   -0.217731
   2 C :   -0.055780
   3 C :   -0.065033
   4 C :   -0.214037
   5 H :    0.034414
   6 C :   -0.044688
   7 H :    0.038651
   8 H :    0.029066
   9 C :   -0.041307
  10 H :    0.024332
  11 H :    0.018141
  12 C :   -0.068743
  13 H :    0.031971
  14 H :    0.026758
  15 H :    0.027423
  16 S :    0.394917
  17 C :   -0.195723
  18 C :   -0.080430
  19 C :   -0.055602
  20 C :   -0.193978
  21 H :    0.036521
  22 C :   -0.029828
  23 H :    0.039626
  24 H :    0.025169
  25 C :   -0.036783
  26 H :    0.027489
  27 H :    0.027604
  28 C :   -0.059382
  29 H :    0.020299
  30 H :    0.027426
  31 H :    0.015547
  32 H :    0.021167
  33 H :    0.041972

  Mayer bond orders larger than 0.100000
B(  0-S ,  1-C ) :   1.1392 B(  0-S ,  4-C ) :   1.1891 B(  1-C ,  2-C ) :   1.5890
B(  1-C , 32-H ) :   0.9777 B(  2-C ,  3-C ) :   1.2507 B(  2-C ,  6-C ) :   1.0220
B(  3-C ,  4-C ) :   1.5366 B(  3-C ,  5-H ) :   0.9932 B(  4-C , 20-C ) :   1.0210
B(  6-C ,  7-H ) :   0.9318 B(  6-C ,  8-H ) :   0.9421 B(  6-C ,  9-C ) :   1.0650
B(  9-C , 10-H ) :   0.9497 B(  9-C , 11-H ) :   0.9475 B(  9-C , 12-C ) :   1.0872
B( 12-C , 13-H ) :   0.9728 B( 12-C , 14-H ) :   0.9718 B( 12-C , 15-H ) :   0.9753
B( 16-S , 17-C ) :   1.1349 B( 16-S , 20-C ) :   1.1659 B( 17-C , 18-C ) :   1.6451
B( 17-C , 20-C ) :   0.1032 B( 17-C , 33-H ) :   0.9564 B( 18-C , 19-C ) :   1.2356
B( 18-C , 21-H ) :   0.9832 B( 19-C , 20-C ) :   1.5756 B( 19-C , 22-C ) :   1.0333
B( 22-C , 23-H ) :   0.9347 B( 22-C , 24-H ) :   0.9413 B( 22-C , 25-C ) :   1.0586
B( 25-C , 26-H ) :   0.9635 B( 25-C , 27-H ) :   0.9547 B( 25-C , 28-C ) :   1.0887
B( 28-C , 29-H ) :   0.9676 B( 28-C , 30-H ) :   0.9731 B( 28-C , 31-H ) :   0.9742

Dispersion correction           -0.013944937
FINAL SINGLE POINT ENERGY     -1339.871725242585

DIPOLE MOMENT
-------------
                                X             Y             Z
Electronic contribution:    -14.64587      -9.26564      21.01561
Nuclear contribution   :     15.00759       9.25285     -21.43113
                        -----------------------------------------
Total Dipole Moment    :      0.36172      -0.01279      -0.41552
                        -----------------------------------------
Magnitude (a.u.)       :      0.55105
Magnitude (Debye)      :      1.40066

Rotational constants in cm-1:     0.019488     0.007966     0.006517
Rotational constants in MHz :   584.243558   238.817737   195.359768

                             ****ORCA TERMINATED NORMALLY****
TOTAL RUN TIME: 0 days 0 hours 0 minutes 21 seconds 343 msec
