                         Program Version 4.2.1 -  RELEASE  -
|  1> ! wB97X-D3 SP def2-SVP
|  2> %pal
|  3> nprocs 24
|  4> end
|  5>
|  6> * xyz 0 1
|  7> S 	 -62.1028 	 13.3794 	 -86.8364
|  8> C 	 -61.6078 	 14.1295 	 -88.3712
|  9> C 	 -60.2106 	 13.8843 	 -88.4383
| 10> C 	 -59.6193 	 13.235 	 -87.2401
| 11> C 	 -60.5833 	 12.8123 	 -86.3449
| 12> H 	 -58.5751 	 13.0139 	 -87.1395
| 13> C 	 -59.3401 	 14.302 	 -89.5916
| 14> H 	 -59.9165 	 13.9704 	 -90.4686
| 15> H 	 -58.4871 	 13.7038 	 -89.5054
| 16> C 	 -58.9224 	 15.8046 	 -89.5707
| 17> H 	 -58.4117 	 16.0811 	 -88.574
| 18> H 	 -58.1272 	 16.0426 	 -90.2942
| 19> C 	 -60.01 	 16.822 	 -90.0414
| 20> H 	 -60.3812 	 16.5599 	 -90.9839
| 21> H 	 -60.8683 	 16.9446 	 -89.3895
| 22> H 	 -59.5856 	 17.7742 	 -90.0332
| 23> S 	 -61.0346 	 12.5863 	 -83.7308
| 24> C 	 -60.2175 	 11.2411 	 -82.8667
| 25> C 	 -59.5868 	 10.3335 	 -83.6998
| 26> C 	 -59.6082 	 10.7611 	 -85.0869
| 27> C 	 -60.361 	 11.9624 	 -85.2186
| 28> H 	 -59.0878 	 9.49726 	 -83.1836
| 29> C 	 -58.8461 	 9.96877 	 -86.1583
| 30> H 	 -57.8803 	 9.63009 	 -85.7709
| 31> H 	 -58.6825 	 10.5962 	 -87.008
| 32> C 	 -59.5263 	 8.73517 	 -86.7532
| 33> H 	 -58.8569 	 8.40567 	 -87.6018
| 34> H 	 -60.4599 	 9.07732 	 -87.1247
| 35> C 	 -59.8332 	 7.4818 	 -85.8778
| 36> H 	 -60.3395 	 7.72483 	 -84.9396
| 37> H 	 -58.9185 	 7.0223 	 -85.6404
| 38> H 	 -60.3026 	 6.72389 	 -86.4433
| 39> H 	 -62.211 	 14.6168 	 -89.1411
| 40> H 	 -60.1621 	 11.1616 	 -81.7992
| 41> *
| 42>
| 43>                          ****END OF INPUT****

CARTESIAN COORDINATES (ANGSTROEM)
---------------------------------
  S    -62.102800   13.379400  -86.836400
  C    -61.607800   14.129500  -88.371200
  C    -60.210600   13.884300  -88.438300
  C    -59.619300   13.235000  -87.240100
  C    -60.583300   12.812300  -86.344900
  H    -58.575100   13.013900  -87.139500
  C    -59.340100   14.302000  -89.591600
  H    -59.916500   13.970400  -90.468600
  H    -58.487100   13.703800  -89.505400
  C    -58.922400   15.804600  -89.570700
  H    -58.411700   16.081100  -88.574000
  H    -58.127200   16.042600  -90.294200
  C    -60.010000   16.822000  -90.041400
  H    -60.381200   16.559900  -90.983900
  H    -60.868300   16.944600  -89.389500
  H    -59.585600   17.774200  -90.033200
  S    -61.034600   12.586300  -83.730800
  C    -60.217500   11.241100  -82.866700
  C    -59.586800   10.333500  -83.699800
  C    -59.608200   10.761100  -85.086900
  C    -60.361000   11.962400  -85.218600
  H    -59.087800    9.497260  -83.183600
  C    -58.846100    9.968770  -86.158300
  H    -57.880300    9.630090  -85.770900
  H    -58.682500   10.596200  -87.008000
  C    -59.526300    8.735170  -86.753200
  H    -58.856900    8.405670  -87.601800
  H    -60.459900    9.077320  -87.124700
  C    -59.833200    7.481800  -85.877800
  H    -60.339500    7.724830  -84.939600
  H    -58.918500    7.022300  -85.640400
  H    -60.302600    6.723890  -86.443300
  H    -62.211000   14.616800  -89.141100
  H    -60.162100   11.161600  -81.799200

 Total Charge           Charge          ....    0
 Multiplicity           Mult            ....    1
 Number of Electrons    NEL             ....  134
 Basis Dimension        Dim             ....  322

ORBITAL ENERGIES
----------------

  NO   OCC          E(Eh)            E(eV)
   0   2.0000     -88.969997     -2420.9967
   1   2.0000     -88.962529     -2420.7935
   2   2.0000     -10.332058      -281.1496
   3   2.0000     -10.325226      -280.9637
   4   2.0000     -10.320604      -280.8379
   5   2.0000     -10.320232      -280.8278
   6   2.0000     -10.316663      -280.7307
   7   2.0000     -10.306329      -280.4495
   8   2.0000     -10.301808      -280.3264
   9   2.0000     -10.297260      -280.2027
  10   2.0000     -10.293241      -280.0933
  11   2.0000     -10.293138      -280.0905
  12   2.0000     -10.288059      -279.9523
  13   2.0000     -10.285923      -279.8942
  14   2.0000     -10.269649      -279.4514
  15   2.0000     -10.269020      -279.4343
  16   2.0000      -8.084158      -219.9811
  17   2.0000      -8.077699      -219.8054
  18   2.0000      -6.042652      -164.4289
  19   2.0000      -6.038862      -164.3258
  20   2.0000      -6.036321      -164.2566
  21   2.0000      -6.034828      -164.2160
  22   2.0000      -6.031866      -164.1354
  23   2.0000      -6.028555      -164.0453
  24   2.0000      -1.006592       -27.3908
  25   2.0000      -0.976856       -26.5816
  26   2.0000      -0.908780       -24.7292
  27   2.0000      -0.905117       -24.6295
  28   2.0000      -0.868926       -23.6447
  29   2.0000      -0.847892       -23.0723
  30   2.0000      -0.842114       -22.9151
  31   2.0000      -0.814778       -22.1712
  32   2.0000      -0.787787       -21.4368
  33   2.0000      -0.776602       -21.1324
  34   2.0000      -0.711060       -19.3489
  35   2.0000      -0.700606       -19.0645
  36   2.0000      -0.686638       -18.6844
  37   2.0000      -0.660559       -17.9747
  38   2.0000      -0.636602       -17.3228
  39   2.0000      -0.615527       -16.7493
  40   2.0000      -0.593578       -16.1521
  41   2.0000      -0.565381       -15.3848
  42   2.0000      -0.554450       -15.0874
  43   2.0000      -0.548282       -14.9195
  44   2.0000      -0.543011       -14.7761
  45   2.0000      -0.539395       -14.6777
  46   2.0000      -0.524233       -14.2651
  47   2.0000      -0.519338       -14.1319
  48   2.0000      -0.505585       -13.7577
  49   2.0000      -0.490770       -13.3545
  50   2.0000      -0.488895       -13.3035
  51   2.0000      -0.481818       -13.1109
  52   2.0000      -0.475536       -12.9400
  53   2.0000      -0.466260       -12.6876
  54   2.0000      -0.455497       -12.3947
  55   2.0000      -0.449544       -12.2327
  56   2.0000      -0.444031       -12.0827
  57   2.0000      -0.438062       -11.9203
  58   2.0000      -0.432483       -11.7685
  59   2.0000      -0.423530       -11.5248
  60   2.0000      -0.419662       -11.4196
  61   2.0000      -0.416086       -11.3223
  62   2.0000      -0.400355       -10.8942
  63   2.0000      -0.348910        -9.4943
  64   2.0000      -0.332012        -9.0345
  65   2.0000      -0.321784        -8.7562
  66   2.0000      -0.290679        -7.9098
  67   0.0000       0.027959         0.7608
  68   0.0000       0.067009         1.8234
  69   0.0000       0.101123         2.7517
  70   0.0000       0.110218         2.9992
  71   0.0000       0.132223         3.5980

MULLIKEN ATOMIC CHARGES
-----------------------
   0 S :    0.099859
   1 C :   -0.115019
   2 C :   -0.155656
   3 C :    0.025642
   4 C :   -0.119286
   5 H :    0.014273
   6 C :    0.103751
   7 H :    0.033573
   8 H :    0.001428
   9 C :   -0.101280
  10 H :    0.042372
  11 H :    0.031460
  12 C :   -0.013974
  13 H :    0.016673
  14 H :    0.025617
  15 H :    0.020226
  16 S :    0.110825
  17 C :   -0.090973
  18 C :   -0.051149
  19 C :   -0.025628
  20 C :   -0.163063
  21 H :    0.037439
  22 C :    0.106210
  23 H :    0.022028
  24 H :    0.011940
  25 C :   -0.095134
  26 H :    0.036680
  27 H :    0.024661
  28 C :   -0.015125
  29 H :    0.041621
  30 H :    0.001786
  31 H :    0.026772
  32 H :    0.062601
  33 H :    0.048849
Sum of atomic charges:    0.0000000

LOEWDIN ATOMIC CHARGES
----------------------
   0 S :    0.416701
   1 C :   -0.208290
   2 C :   -0.052925
   3 C :   -0.074308
   4 C :   -0.216674
   5 H :    0.026548
   6 C :   -0.035515
   7 H :    0.035660
   8 H :    0.021851
   9 C :   -0.040736
  10 H :    0.034529
  11 H :    0.024902
  12 C :   -0.058417
  13 H :    0.016615
  14 H :    0.021627
  15 H :    0.021495
  16 S :    0.394967
  17 C :   -0.167496
  18 C :   -0.071265
  19 C :   -0.044787
  20 C :   -0.195364
  21 H :    0.040949
  22 C :   -0.029713
  23 H :    0.030087
  24 H :    0.028784
  25 C :   -0.034231
  26 H :    0.031426
  27 H :    0.018417
  28 C :   -0.063308
  29 H :    0.027617
  30 H :    0.015247
  31 H :    0.024672
  32 H :    0.037583
  33 H :    0.023353

  Mayer bond orders larger than 0.100000
B(  0-S ,  1-C ) :   1.1169 B(  0-S ,  4-C ) :   1.1735 B(  1-C ,  2-C ) :   1.5832
B(  1-C , 32-H ) :   0.9740 B(  2-C ,  3-C ) :   1.2427 B(  2-C ,  6-C ) :   1.0295
B(  3-C ,  4-C ) :   1.5436 B(  3-C ,  5-H ) :   0.9934 B(  4-C , 20-C ) :   1.0376
B(  6-C ,  7-H ) :   0.9448 B(  6-C ,  8-H ) :   0.9321 B(  6-C ,  9-C ) :   1.0642
B(  9-C , 10-H ) :   0.9555 B(  9-C , 11-H ) :   0.9592 B(  9-C , 12-C ) :   1.0715
B( 12-C , 13-H ) :   0.9759 B( 12-C , 14-H ) :   0.9736 B( 12-C , 15-H ) :   0.9726
B( 16-S , 17-C ) :   1.1350 B( 16-S , 20-C ) :   1.1445 B( 17-C , 18-C ) :   1.6567
B( 17-C , 20-C ) :   0.1024 B( 17-C , 33-H ) :   0.9676 B( 18-C , 19-C ) :   1.1956
B( 18-C , 21-H ) :   0.9822 B( 19-C , 20-C ) :   1.5973 B( 19-C , 22-C ) :   1.0445
B( 22-C , 23-H ) :   0.9343 B( 22-C , 24-H ) :   0.9227 B( 22-C , 25-C ) :   1.0777
B( 25-C , 26-H ) :   0.9554 B( 25-C , 27-H ) :   0.9547 B( 25-C , 28-C ) :   1.0830
B( 28-C , 29-H ) :   0.9733 B( 28-C , 30-H ) :   0.9714 B( 28-C , 31-H ) :   0.9716

Dispersion correction           -0.014282134
FINAL SINGLE POINT ENERGY     -1339.859565866598

DIPOLE MOMENT
-------------
                                X             Y             Z
Electronic contribution:    -12.46028       4.63962      17.27045
Nuclear contribution   :     13.06926      -4.87947     -17.57726
                        -----------------------------------------
Total Dipole Moment    :      0.60898      -0.23985      -0.30681
                        -----------------------------------------
Magnitude (a.u.)       :      0.72285
Magnitude (Debye)      :      1.83734

Rotational constants in cm-1:     0.022074     0.007572     0.006442
Rotational constants in MHz :   661.770727   226.996744   193.121023

                             ****ORCA TERMINATED NORMALLY****
TOTAL RUN TIME: 0 days 0 hours 0 minutes 21 seconds 202 msec
