                         Program Version 4.2.1 -  RELEASE  -
|  1> ! wB97X-D3 SP def2-SVP
|  2> %pal
|  3> nprocs 24
|  4> end
|  5>
|  6> * xyz 0 1
|  7> S 	 29.0665 	 -29.7602 	 -130.93
|  8> C 	 28.9411 	 -28.6734 	 -129.507
|  9> C 	 29.0691 	 -29.3592 	 -128.334
| 10> C 	 29.3542 	 -30.7423 	 -128.616
| 11> C 	 29.4638 	 -31.1385 	 -129.956
| 12> H 	 29.5067 	 -31.5325 	 -127.938
| 13> C 	 28.748 	 -28.7888 	 -126.94
| 14> H 	 28.5491 	 -29.5574 	 -126.19
| 15> H 	 27.8264 	 -28.3783 	 -127.042
| 16> C 	 29.7497 	 -27.7131 	 -126.419
| 17> H 	 30.8485 	 -28.0809 	 -126.535
| 18> H 	 29.766 	 -26.9367 	 -127.079
| 19> C 	 29.4457 	 -27.3065 	 -124.994
| 20> H 	 29.329 	 -28.114 	 -124.317
| 21> H 	 30.3175 	 -26.8303 	 -124.58
| 22> H 	 28.5793 	 -26.6206 	 -124.999
| 23> S 	 29.7081 	 -32.5977 	 -132.249
| 24> C 	 30.3988 	 -34.1422 	 -132.335
| 25> C 	 30.7321 	 -34.5487 	 -131.056
| 26> C 	 30.3357 	 -33.6696 	 -130.025
| 27> C 	 29.8075 	 -32.4694 	 -130.543
| 28> H 	 31.1321 	 -35.5128 	 -130.873
| 29> C 	 30.7092 	 -33.8941 	 -128.576
| 30> H 	 31.1432 	 -32.9714 	 -128.24
| 31> H 	 31.5196 	 -34.6042 	 -128.509
| 32> C 	 29.6687 	 -34.4423 	 -127.723
| 33> H 	 29.3621 	 -35.4132 	 -128.083
| 34> H 	 28.8105 	 -33.7733 	 -127.718
| 35> C 	 30.1629 	 -34.6334 	 -126.314
| 36> H 	 30.546 	 -33.6437 	 -125.991
| 37> H 	 31.0138 	 -35.1765 	 -126.263
| 38> H 	 29.3575 	 -34.9213 	 -125.606
| 39> H 	 28.6264 	 -27.6047 	 -129.472
| 40> H 	 30.5649 	 -34.6881 	 -133.273
| 41> *
| 42>
| 43>                          ****END OF INPUT****

CARTESIAN COORDINATES (ANGSTROEM)
---------------------------------
  S     29.066500  -29.760200  -130.930000
  C     28.941100  -28.673400  -129.507000
  C     29.069100  -29.359200  -128.334000
  C     29.354200  -30.742300  -128.616000
  C     29.463800  -31.138500  -129.956000
  H     29.506700  -31.532500  -127.938000
  C     28.748000  -28.788800  -126.940000
  H     28.549100  -29.557400  -126.190000
  H     27.826400  -28.378300  -127.042000
  C     29.749700  -27.713100  -126.419000
  H     30.848500  -28.080900  -126.535000
  H     29.766000  -26.936700  -127.079000
  C     29.445700  -27.306500  -124.994000
  H     29.329000  -28.114000  -124.317000
  H     30.317500  -26.830300  -124.580000
  H     28.579300  -26.620600  -124.999000
  S     29.708100  -32.597700  -132.249000
  C     30.398800  -34.142200  -132.335000
  C     30.732100  -34.548700  -131.056000
  C     30.335700  -33.669600  -130.025000
  C     29.807500  -32.469400  -130.543000
  H     31.132100  -35.512800  -130.873000
  C     30.709200  -33.894100  -128.576000
  H     31.143200  -32.971400  -128.240000
  H     31.519600  -34.604200  -128.509000
  C     29.668700  -34.442300  -127.723000
  H     29.362100  -35.413200  -128.083000
  H     28.810500  -33.773300  -127.718000
  C     30.162900  -34.633400  -126.314000
  H     30.546000  -33.643700  -125.991000
  H     31.013800  -35.176500  -126.263000
  H     29.357500  -34.921300  -125.606000
  H     28.626400  -27.604700  -129.472000
  H     30.564900  -34.688100  -133.273000

 Total Charge           Charge          ....    0
 Multiplicity           Mult            ....    1
 Number of Electrons    NEL             ....  134
 Basis Dimension        Dim             ....  322

ORBITAL ENERGIES
----------------

  NO   OCC          E(Eh)            E(eV)
   0   2.0000     -88.966561     -2420.9032
   1   2.0000     -88.966133     -2420.8916
   2   2.0000     -10.336070      -281.2588
   3   2.0000     -10.332738      -281.1681
   4   2.0000     -10.317531      -280.7543
   5   2.0000     -10.317215      -280.7457
   6   2.0000     -10.303994      -280.3859
   7   2.0000     -10.303533      -280.3734
   8   2.0000     -10.291413      -280.0436
   9   2.0000     -10.290676      -280.0235
  10   2.0000     -10.289780      -279.9992
  11   2.0000     -10.287969      -279.9499
  12   2.0000     -10.283923      -279.8398
  13   2.0000     -10.277517      -279.6655
  14   2.0000     -10.277178      -279.6562
  15   2.0000     -10.271918      -279.5131
  16   2.0000      -8.082575      -219.9380
  17   2.0000      -8.080643      -219.8855
  18   2.0000      -6.040899      -164.3812
  19   2.0000      -6.039446      -164.3417
  20   2.0000      -6.036630      -164.2651
  21   2.0000      -6.035254      -164.2276
  22   2.0000      -6.033646      -164.1839
  23   2.0000      -6.031101      -164.1146
  24   2.0000      -1.013704       -27.5843
  25   2.0000      -0.986787       -26.8518
  26   2.0000      -0.929732       -25.2993
  27   2.0000      -0.913261       -24.8511
  28   2.0000      -0.871944       -23.7268
  29   2.0000      -0.859283       -23.3823
  30   2.0000      -0.842787       -22.9334
  31   2.0000      -0.815890       -22.2015
  32   2.0000      -0.787788       -21.4368
  33   2.0000      -0.778853       -21.1937
  34   2.0000      -0.711036       -19.3483
  35   2.0000      -0.706290       -19.2191
  36   2.0000      -0.694370       -18.8948
  37   2.0000      -0.670711       -18.2510
  38   2.0000      -0.637042       -17.3348
  39   2.0000      -0.619370       -16.8539
  40   2.0000      -0.603482       -16.4216
  41   2.0000      -0.579722       -15.7750
  42   2.0000      -0.572565       -15.5803
  43   2.0000      -0.562390       -15.3034
  44   2.0000      -0.536512       -14.5992
  45   2.0000      -0.525474       -14.2989
  46   2.0000      -0.519828       -14.1452
  47   2.0000      -0.517546       -14.0831
  48   2.0000      -0.508944       -13.8491
  49   2.0000      -0.499621       -13.5954
  50   2.0000      -0.497477       -13.5370
  51   2.0000      -0.490985       -13.3604
  52   2.0000      -0.473433       -12.8828
  53   2.0000      -0.468824       -12.7574
  54   2.0000      -0.463905       -12.6235
  55   2.0000      -0.450604       -12.2615
  56   2.0000      -0.448556       -12.2058
  57   2.0000      -0.440118       -11.9762
  58   2.0000      -0.433003       -11.7826
  59   2.0000      -0.426812       -11.6142
  60   2.0000      -0.417431       -11.3589
  61   2.0000      -0.415213       -11.2985
  62   2.0000      -0.410178       -11.1615
  63   2.0000      -0.362110        -9.8535
  64   2.0000      -0.336553        -9.1581
  65   2.0000      -0.327636        -8.9154
  66   2.0000      -0.284262        -7.7352
  67   0.0000       0.019991         0.5440
  68   0.0000       0.088094         2.3972
  69   0.0000       0.102613         2.7922
  70   0.0000       0.122219         3.3258
  71   0.0000       0.138502         3.7688

MULLIKEN ATOMIC CHARGES
-----------------------
   0 S :    0.095247
   1 C :   -0.132918
   2 C :   -0.058033
   3 C :    0.006720
   4 C :   -0.108687
   5 H :   -0.039246
   6 C :    0.102531
   7 H :    0.017484
   8 H :    0.004905
   9 C :   -0.080329
  10 H :    0.036985
  11 H :    0.002171
  12 C :   -0.014236
  13 H :    0.022112
  14 H :    0.026643
  15 H :    0.039911
  16 S :    0.102935
  17 C :   -0.091635
  18 C :   -0.021148
  19 C :   -0.053388
  20 C :   -0.112339
  21 H :    0.002504
  22 C :    0.030742
  23 H :    0.023893
  24 H :    0.001624
  25 C :   -0.040256
  26 H :    0.018259
  27 H :    0.025527
  28 C :    0.011618
  29 H :    0.003348
  30 H :   -0.001609
  31 H :    0.047957
  32 H :    0.059687
  33 H :    0.071022
Sum of atomic charges:   -0.0000000

LOEWDIN ATOMIC CHARGES
----------------------
   0 S :    0.388925
   1 C :   -0.192561
   2 C :   -0.057761
   3 C :   -0.072156
   4 C :   -0.189732
   5 H :    0.015619
   6 C :   -0.020863
   7 H :    0.031392
   8 H :    0.018629
   9 C :   -0.035103
  10 H :    0.033740
  11 H :    0.007427
  12 C :   -0.062229
  13 H :    0.021311
  14 H :    0.028575
  15 H :    0.030767
  16 S :    0.449542
  17 C :   -0.206158
  18 C :   -0.070951
  19 C :   -0.054636
  20 C :   -0.204607
  21 H :    0.024568
  22 C :   -0.033657
  23 H :    0.027132
  24 H :    0.028474
  25 C :   -0.039387
  26 H :    0.023731
  27 H :    0.021385
  28 C :   -0.055456
  29 H :    0.025442
  30 H :    0.007653
  31 H :    0.033808
  32 H :    0.038772
  33 H :    0.038363

  Mayer bond orders larger than 0.100000
B(  0-S ,  1-C ) :   1.1213 B(  0-S ,  4-C ) :   1.1426 B(  1-C ,  2-C ) :   1.6371
B(  1-C , 32-H ) :   0.9571 B(  2-C ,  3-C ) :   1.2331 B(  2-C ,  6-C ) :   1.0032
B(  3-C ,  4-C ) :   1.5737 B(  3-C ,  5-H ) :   1.0014 B(  4-C , 20-C ) :   1.0594
B(  6-C ,  7-H ) :   0.9496 B(  6-C ,  8-H ) :   0.9345 B(  6-C ,  9-C ) :   1.0491
B(  9-C , 10-H ) :   0.9602 B(  9-C , 11-H ) :   0.9552 B(  9-C , 12-C ) :   1.0857
B( 12-C , 13-H ) :   0.9737 B( 12-C , 14-H ) :   0.9713 B( 12-C , 15-H ) :   0.9741
B( 16-S , 17-C ) :   1.1893 B( 16-S , 20-C ) :   1.1731 B( 17-C , 18-C ) :   1.5350
B( 17-C , 20-C ) :   0.1015 B( 17-C , 33-H ) :   0.9702 B( 18-C , 19-C ) :   1.3227
B( 18-C , 21-H ) :   0.9944 B( 19-C , 20-C ) :   1.5130 B( 19-C , 22-C ) :   1.0345
B( 22-C , 23-H ) :   0.9337 B( 22-C , 24-H ) :   0.9291 B( 22-C , 25-C ) :   1.0797
B( 25-C , 26-H ) :   0.9428 B( 25-C , 27-H ) :   0.9490 B( 25-C , 28-C ) :   1.0930
B( 28-C , 29-H ) :   0.9645 B( 28-C , 30-H ) :   0.9670 B( 28-C , 31-H ) :   0.9716

Dispersion correction           -0.013494847
FINAL SINGLE POINT ENERGY     -1339.861277642441

DIPOLE MOMENT
-------------
                                X             Y             Z
Electronic contribution:     -2.54102      -1.47692     -32.38876
Nuclear contribution   :      2.64446       1.31694      33.04212
                        -----------------------------------------
Total Dipole Moment    :      0.10344      -0.15999       0.65336
                        -----------------------------------------
Magnitude (a.u.)       :      0.68057
Magnitude (Debye)      :      1.72988

Rotational constants in cm-1:     0.018731     0.008368     0.005962
Rotational constants in MHz :   561.552826   250.855125   178.746113

                             ****ORCA TERMINATED NORMALLY****
TOTAL RUN TIME: 0 days 0 hours 0 minutes 21 seconds 328 msec
