                         Program Version 4.2.1 -  RELEASE  -
|  1> ! wB97X-D3 SP def2-SVP
|  2> %pal
|  3> nprocs 24
|  4> end
|  5>
|  6> * xyz 0 1
|  7> S 	 -49.8744 	 17.8442 	 25.1428
|  8> C 	 -48.935 	 18.8873 	 24.0197
|  9> C 	 -47.6064 	 18.5326 	 23.9227
| 10> C 	 -47.3024 	 17.5119 	 24.85
| 11> C 	 -48.3058 	 17.0537 	 25.6533
| 12> H 	 -46.3286 	 17.1763 	 25.0482
| 13> C 	 -46.6132 	 19.1363 	 22.9585
| 14> H 	 -47.228 	 19.8221 	 22.3015
| 15> H 	 -46.3168 	 18.3172 	 22.3123
| 16> C 	 -45.2841 	 19.7821 	 23.6041
| 17> H 	 -45.4743 	 20.4624 	 24.4445
| 18> H 	 -44.5567 	 19.0201 	 24.006
| 19> C 	 -44.5698 	 20.7315 	 22.6365
| 20> H 	 -43.8574 	 21.3384 	 23.1676
| 21> H 	 -43.9435 	 20.1784 	 21.881
| 22> H 	 -45.3247 	 21.3848 	 22.1631
| 23> S 	 -49.1746 	 14.5294 	 26.3578
| 24> C 	 -48.5815 	 13.7735 	 27.7912
| 25> C 	 -47.6478 	 14.5166 	 28.4558
| 26> C 	 -47.4548 	 15.7815 	 27.8421
| 27> C 	 -48.2005 	 16.01 	 26.6448
| 28> H 	 -47.2357 	 14.1763 	 29.3927
| 29> C 	 -46.5341 	 16.8192 	 28.4025
| 30> H 	 -45.8848 	 16.8877 	 27.5846
| 31> H 	 -46.0267 	 16.3271 	 29.2591
| 32> C 	 -47.0997 	 18.2273 	 28.7783
| 33> H 	 -47.2613 	 18.7671 	 27.848
| 34> H 	 -46.2425 	 18.7694 	 29.3063
| 35> C 	 -48.3297 	 18.2444 	 29.727
| 36> H 	 -49.1988 	 17.8117 	 29.1702
| 37> H 	 -48.591 	 19.2534 	 30.2276
| 38> H 	 -47.952 	 17.5403 	 30.5367
| 39> H 	 -49.3503 	 19.7642 	 23.5154
| 40> H 	 -48.6299 	 12.7444 	 27.9909
| 41> *
| 42>
| 43>                          ****END OF INPUT****

CARTESIAN COORDINATES (ANGSTROEM)
---------------------------------
  S    -49.874400   17.844200   25.142800
  C    -48.935000   18.887300   24.019700
  C    -47.606400   18.532600   23.922700
  C    -47.302400   17.511900   24.850000
  C    -48.305800   17.053700   25.653300
  H    -46.328600   17.176300   25.048200
  C    -46.613200   19.136300   22.958500
  H    -47.228000   19.822100   22.301500
  H    -46.316800   18.317200   22.312300
  C    -45.284100   19.782100   23.604100
  H    -45.474300   20.462400   24.444500
  H    -44.556700   19.020100   24.006000
  C    -44.569800   20.731500   22.636500
  H    -43.857400   21.338400   23.167600
  H    -43.943500   20.178400   21.881000
  H    -45.324700   21.384800   22.163100
  S    -49.174600   14.529400   26.357800
  C    -48.581500   13.773500   27.791200
  C    -47.647800   14.516600   28.455800
  C    -47.454800   15.781500   27.842100
  C    -48.200500   16.010000   26.644800
  H    -47.235700   14.176300   29.392700
  C    -46.534100   16.819200   28.402500
  H    -45.884800   16.887700   27.584600
  H    -46.026700   16.327100   29.259100
  C    -47.099700   18.227300   28.778300
  H    -47.261300   18.767100   27.848000
  H    -46.242500   18.769400   29.306300
  C    -48.329700   18.244400   29.727000
  H    -49.198800   17.811700   29.170200
  H    -48.591000   19.253400   30.227600
  H    -47.952000   17.540300   30.536700
  H    -49.350300   19.764200   23.515400
  H    -48.629900   12.744400   27.990900

 Total Charge           Charge          ....    0
 Multiplicity           Mult            ....    1
 Number of Electrons    NEL             ....  134
 Basis Dimension        Dim             ....  322

ORBITAL ENERGIES
----------------

  NO   OCC          E(Eh)            E(eV)
   0   2.0000     -88.966868     -2420.9115
   1   2.0000     -88.963730     -2420.8262
   2   2.0000     -10.334969      -281.2288
   3   2.0000     -10.330339      -281.1028
   4   2.0000     -10.319839      -280.8171
   5   2.0000     -10.310809      -280.5714
   6   2.0000     -10.307043      -280.4689
   7   2.0000     -10.306824      -280.4629
   8   2.0000     -10.301592      -280.3206
   9   2.0000     -10.301139      -280.3083
  10   2.0000     -10.291441      -280.0443
  11   2.0000     -10.290591      -280.0212
  12   2.0000     -10.289866      -280.0015
  13   2.0000     -10.288226      -279.9569
  14   2.0000     -10.287237      -279.9299
  15   2.0000     -10.284604      -279.8583
  16   2.0000      -8.079771      -219.8617
  17   2.0000      -8.078300      -219.8217
  18   2.0000      -6.038480      -164.3154
  19   2.0000      -6.036784      -164.2692
  20   2.0000      -6.034708      -164.2128
  21   2.0000      -6.032653      -164.1568
  22   2.0000      -6.030238      -164.0911
  23   2.0000      -6.029269      -164.0647
  24   2.0000      -1.000825       -27.2338
  25   2.0000      -0.980292       -26.6751
  26   2.0000      -0.904808       -24.6211
  27   2.0000      -0.903761       -24.5926
  28   2.0000      -0.872034       -23.7293
  29   2.0000      -0.848392       -23.0859
  30   2.0000      -0.843039       -22.9403
  31   2.0000      -0.817953       -22.2576
  32   2.0000      -0.780624       -21.2419
  33   2.0000      -0.766024       -20.8446
  34   2.0000      -0.713460       -19.4142
  35   2.0000      -0.696509       -18.9530
  36   2.0000      -0.684050       -18.6140
  37   2.0000      -0.662046       -18.0152
  38   2.0000      -0.642519       -17.4838
  39   2.0000      -0.621299       -16.9064
  40   2.0000      -0.579710       -15.7747
  41   2.0000      -0.570061       -15.5121
  42   2.0000      -0.562149       -15.2968
  43   2.0000      -0.554988       -15.1020
  44   2.0000      -0.539994       -14.6940
  45   2.0000      -0.529653       -14.4126
  46   2.0000      -0.514523       -14.0009
  47   2.0000      -0.508667       -13.8415
  48   2.0000      -0.501246       -13.6396
  49   2.0000      -0.493411       -13.4264
  50   2.0000      -0.488086       -13.2815
  51   2.0000      -0.473222       -12.8770
  52   2.0000      -0.469310       -12.7706
  53   2.0000      -0.465782       -12.6746
  54   2.0000      -0.460486       -12.5305
  55   2.0000      -0.445970       -12.1355
  56   2.0000      -0.439224       -11.9519
  57   2.0000      -0.437221       -11.8974
  58   2.0000      -0.432174       -11.7601
  59   2.0000      -0.429651       -11.6914
  60   2.0000      -0.419664       -11.4196
  61   2.0000      -0.412018       -11.2116
  62   2.0000      -0.406365       -11.0578
  63   2.0000      -0.345984        -9.4147
  64   2.0000      -0.331443        -9.0190
  65   2.0000      -0.329450        -8.9648
  66   2.0000      -0.289858        -7.8874
  67   0.0000       0.028143         0.7658
  68   0.0000       0.053383         1.4526
  69   0.0000       0.108555         2.9539
  70   0.0000       0.123617         3.3638
  71   0.0000       0.127658         3.4738

MULLIKEN ATOMIC CHARGES
-----------------------
   0 S :    0.094743
   1 C :   -0.139242
   2 C :   -0.065347
   3 C :    0.057871
   4 C :   -0.150503
   5 H :   -0.010800
   6 C :    0.068465
   7 H :    0.025158
   8 H :    0.045148
   9 C :   -0.103544
  10 H :    0.038605
  11 H :    0.044915
  12 C :   -0.062271
  13 H :    0.029778
  14 H :    0.037618
  15 H :    0.039262
  16 S :    0.098419
  17 C :   -0.053647
  18 C :   -0.052459
  19 C :   -0.062111
  20 C :   -0.174562
  21 H :    0.019017
  22 C :    0.087833
  23 H :    0.020190
  24 H :    0.016332
  25 C :   -0.086130
  26 H :    0.040783
  27 H :    0.036619
  28 C :   -0.090083
  29 H :    0.060726
  30 H :    0.058493
  31 H :    0.032845
  32 H :    0.053123
  33 H :    0.044755
Sum of atomic charges:    0.0000000

LOEWDIN ATOMIC CHARGES
----------------------
   0 S :    0.347828
   1 C :   -0.177811
   2 C :   -0.067784
   3 C :   -0.050209
   4 C :   -0.173100
   5 H :    0.021839
   6 C :   -0.029851
   7 H :    0.036105
   8 H :    0.037346
   9 C :   -0.047225
  10 H :    0.027465
  11 H :    0.030100
  12 C :   -0.068856
  13 H :    0.022649
  14 H :    0.027354
  15 H :    0.027884
  16 S :    0.403798
  17 C :   -0.181908
  18 C :   -0.077408
  19 C :   -0.048697
  20 C :   -0.196225
  21 H :    0.033475
  22 C :   -0.034978
  23 H :    0.029294
  24 H :    0.030014
  25 C :   -0.045438
  26 H :    0.021092
  27 H :    0.030685
  28 C :   -0.080410
  29 H :    0.032843
  30 H :    0.037357
  31 H :    0.030147
  32 H :    0.029996
  33 H :    0.022631

  Mayer bond orders larger than 0.100000
B(  0-S ,  1-C ) :   1.1210 B(  0-S ,  4-C ) :   1.0999 B(  1-C ,  2-C ) :   1.6410
B(  1-C , 32-H ) :   0.9590 B(  2-C ,  3-C ) :   1.2112 B(  2-C ,  6-C ) :   1.0277
B(  3-C ,  4-C ) :   1.6156 B(  3-C ,  5-H ) :   0.9973 B(  4-C , 20-C ) :   1.0732
B(  6-C ,  7-H ) :   0.9451 B(  6-C ,  8-H ) :   0.9346 B(  6-C ,  9-C ) :   1.0344
B(  9-C , 10-H ) :   0.9660 B(  9-C , 11-H ) :   0.9533 B(  9-C , 12-C ) :   1.0843
B( 12-C , 13-H ) :   0.9770 B( 12-C , 14-H ) :   0.9763 B( 12-C , 15-H ) :   0.9758
B( 16-S , 17-C ) :   1.1777 B( 16-S , 20-C ) :   1.1312 B( 17-C , 18-C ) :   1.5969
B( 17-C , 20-C ) :   0.1045 B( 17-C , 33-H ) :   0.9601 B( 18-C , 19-C ) :   1.2681
B( 18-C , 21-H ) :   0.9904 B( 19-C , 20-C ) :   1.5497 B( 19-C , 22-C ) :   1.0203
B( 22-C , 23-H ) :   0.9287 B( 22-C , 24-H ) :   0.9336 B( 22-C , 25-C ) :   1.0720
B( 25-C , 26-H ) :   0.9536 B( 25-C , 27-H ) :   0.9562 B( 25-C , 28-C ) :   1.0601
B( 28-C , 29-H ) :   0.9709 B( 28-C , 30-H ) :   0.9745 B( 28-C , 31-H ) :   0.9764

Dispersion correction           -0.014819294
FINAL SINGLE POINT ENERGY     -1339.864196347009

DIPOLE MOMENT
-------------
                                X             Y             Z
Electronic contribution:    -19.58399     -18.29090      -1.92534
Nuclear contribution   :     20.37088      18.55978       1.92839
                        -----------------------------------------
Total Dipole Moment    :      0.78689       0.26889       0.00305
                        -----------------------------------------
Magnitude (a.u.)       :      0.83157
Magnitude (Debye)      :      2.11369

Rotational constants in cm-1:     0.019657     0.008078     0.007142
Rotational constants in MHz :   589.294193   242.182965   214.099688

                             ****ORCA TERMINATED NORMALLY****
TOTAL RUN TIME: 0 days 0 hours 0 minutes 21 seconds 856 msec
