                         Program Version 4.2.1 -  RELEASE  -
|  1> ! wB97X-D3 SP def2-SVP
|  2> %pal
|  3> nprocs 24
|  4> end
|  5>
|  6> * xyz 0 1
|  7> S 	 -40.6185 	 17.574 	 25.6637
|  8> C 	 -42.2301 	 17.6844 	 26.3557
|  9> C 	 -43.21 	 17.151 	 25.5197
| 10> C 	 -42.6185 	 16.8646 	 24.2628
| 11> C 	 -41.2763 	 17.1215 	 24.074
| 12> H 	 -43.128 	 16.4335 	 23.4734
| 13> C 	 -44.6741 	 17.1086 	 25.9243
| 14> H 	 -44.8598 	 17.8994 	 26.6858
| 15> H 	 -44.7819 	 16.1156 	 26.4031
| 16> C 	 -45.7851 	 17.3673 	 24.9147
| 17> H 	 -45.6477 	 18.3694 	 24.52
| 18> H 	 -45.7289 	 16.6261 	 24.0892
| 19> C 	 -47.1764 	 17.2585 	 25.4395
| 20> H 	 -47.3261 	 17.9971 	 26.2459
| 21> H 	 -48.025 	 17.3375 	 24.7167
| 22> H 	 -47.2873 	 16.295 	 25.9048
| 23> S 	 -40.719 	 15.2905 	 22.0666
| 24> C 	 -39.5418 	 15.7276 	 20.8586
| 25> C 	 -39.0665 	 17.0214 	 21.07
| 26> C 	 -39.5739 	 17.6726 	 22.216
| 27> C 	 -40.5067 	 16.8515 	 22.8903
| 28> H 	 -38.2464 	 17.4481 	 20.4451
| 29> C 	 -39.2593 	 19.1165 	 22.6029
| 30> H 	 -38.2 	 19.1073 	 23.0249
| 31> H 	 -39.896 	 19.3275 	 23.4928
| 32> C 	 -39.5096 	 20.3075 	 21.5245
| 33> H 	 -40.5394 	 20.3807 	 21.1805
| 34> H 	 -39.0576 	 19.9753 	 20.6615
| 35> C 	 -38.8753 	 21.6787 	 21.9229
| 36> H 	 -37.825 	 21.572 	 21.6126
| 37> H 	 -39.0228 	 21.9008 	 23.0237
| 38> H 	 -39.2742 	 22.5492 	 21.3506
| 39> H 	 -42.478 	 18.0656 	 27.3216
| 40> H 	 -39.0494 	 15.0249 	 20.2168
| 41> *
| 42>
| 43>                          ****END OF INPUT****

CARTESIAN COORDINATES (ANGSTROEM)
---------------------------------
  S    -40.618500   17.574000   25.663700
  C    -42.230100   17.684400   26.355700
  C    -43.210000   17.151000   25.519700
  C    -42.618500   16.864600   24.262800
  C    -41.276300   17.121500   24.074000
  H    -43.128000   16.433500   23.473400
  C    -44.674100   17.108600   25.924300
  H    -44.859800   17.899400   26.685800
  H    -44.781900   16.115600   26.403100
  C    -45.785100   17.367300   24.914700
  H    -45.647700   18.369400   24.520000
  H    -45.728900   16.626100   24.089200
  C    -47.176400   17.258500   25.439500
  H    -47.326100   17.997100   26.245900
  H    -48.025000   17.337500   24.716700
  H    -47.287300   16.295000   25.904800
  S    -40.719000   15.290500   22.066600
  C    -39.541800   15.727600   20.858600
  C    -39.066500   17.021400   21.070000
  C    -39.573900   17.672600   22.216000
  C    -40.506700   16.851500   22.890300
  H    -38.246400   17.448100   20.445100
  C    -39.259300   19.116500   22.602900
  H    -38.200000   19.107300   23.024900
  H    -39.896000   19.327500   23.492800
  C    -39.509600   20.307500   21.524500
  H    -40.539400   20.380700   21.180500
  H    -39.057600   19.975300   20.661500
  C    -38.875300   21.678700   21.922900
  H    -37.825000   21.572000   21.612600
  H    -39.022800   21.900800   23.023700
  H    -39.274200   22.549200   21.350600
  H    -42.478000   18.065600   27.321600
  H    -39.049400   15.024900   20.216800

 Total Charge           Charge          ....    0
 Multiplicity           Mult            ....    1
 Number of Electrons    NEL             ....  134
 Basis Dimension        Dim             ....  322

ORBITAL ENERGIES
----------------

  NO   OCC          E(Eh)            E(eV)
   0   2.0000     -88.970302     -2421.0050
   1   2.0000     -88.966958     -2420.9140
   2   2.0000     -10.330355      -281.1032
   3   2.0000     -10.327894      -281.0363
   4   2.0000     -10.319120      -280.7975
   5   2.0000     -10.312195      -280.6091
   6   2.0000     -10.307508      -280.4815
   7   2.0000     -10.302821      -280.3540
   8   2.0000     -10.302710      -280.3510
   9   2.0000     -10.299649      -280.2677
  10   2.0000     -10.297956      -280.2216
  11   2.0000     -10.288260      -279.9578
  12   2.0000     -10.287396      -279.9343
  13   2.0000     -10.286339      -279.9055
  14   2.0000     -10.286052      -279.8977
  15   2.0000     -10.279618      -279.7226
  16   2.0000      -8.084422      -219.9883
  17   2.0000      -8.080558      -219.8832
  18   2.0000      -6.042830      -164.4338
  19   2.0000      -6.039144      -164.3335
  20   2.0000      -6.039017      -164.3300
  21   2.0000      -6.035321      -164.2294
  22   2.0000      -6.035273      -164.2281
  23   2.0000      -6.031246      -164.1186
  24   2.0000      -1.003355       -27.3027
  25   2.0000      -0.981236       -26.7008
  26   2.0000      -0.915662       -24.9164
  27   2.0000      -0.894350       -24.3365
  28   2.0000      -0.872994       -23.7554
  29   2.0000      -0.851710       -23.1762
  30   2.0000      -0.846684       -23.0394
  31   2.0000      -0.812849       -22.1187
  32   2.0000      -0.780240       -21.2314
  33   2.0000      -0.766551       -20.8589
  34   2.0000      -0.710640       -19.3375
  35   2.0000      -0.703632       -19.1468
  36   2.0000      -0.688559       -18.7366
  37   2.0000      -0.662962       -18.0401
  38   2.0000      -0.635002       -17.2793
  39   2.0000      -0.618195       -16.8219
  40   2.0000      -0.593447       -16.1485
  41   2.0000      -0.577058       -15.7026
  42   2.0000      -0.565982       -15.4011
  43   2.0000      -0.552602       -15.0371
  44   2.0000      -0.526425       -14.3248
  45   2.0000      -0.520177       -14.1547
  46   2.0000      -0.515477       -14.0268
  47   2.0000      -0.509390       -13.8612
  48   2.0000      -0.505880       -13.7657
  49   2.0000      -0.500549       -13.6206
  50   2.0000      -0.488017       -13.2796
  51   2.0000      -0.475528       -12.9398
  52   2.0000      -0.470081       -12.7915
  53   2.0000      -0.465003       -12.6534
  54   2.0000      -0.455842       -12.4041
  55   2.0000      -0.451351       -12.2819
  56   2.0000      -0.450817       -12.2673
  57   2.0000      -0.432110       -11.7583
  58   2.0000      -0.430099       -11.7036
  59   2.0000      -0.424521       -11.5518
  60   2.0000      -0.423013       -11.5108
  61   2.0000      -0.414612       -11.2822
  62   2.0000      -0.411351       -11.1934
  63   2.0000      -0.345019        -9.3884
  64   2.0000      -0.335161        -9.1202
  65   2.0000      -0.329073        -8.9545
  66   2.0000      -0.287662        -7.8277
  67   0.0000       0.023116         0.6290
  68   0.0000       0.066414         1.8072
  69   0.0000       0.106490         2.8977
  70   0.0000       0.117860         3.2071
  71   0.0000       0.132693         3.6108

MULLIKEN ATOMIC CHARGES
-----------------------
   0 S :    0.113030
   1 C :   -0.126622
   2 C :   -0.049491
   3 C :    0.016373
   4 C :   -0.135883
   5 H :   -0.025230
   6 C :    0.032457
   7 H :    0.028659
   8 H :    0.046272
   9 C :   -0.070346
  10 H :    0.034113
  11 H :    0.032231
  12 C :   -0.051223
  13 H :    0.024441
  14 H :    0.047557
  15 H :    0.017385
  16 S :    0.117961
  17 C :   -0.091228
  18 C :   -0.054064
  19 C :   -0.027390
  20 C :   -0.167676
  21 H :    0.035630
  22 C :    0.022317
  23 H :    0.049128
  24 H :    0.033482
  25 C :   -0.033403
  26 H :    0.033429
  27 H :    0.000544
  28 C :   -0.088684
  29 H :    0.041141
  30 H :    0.054665
  31 H :    0.044014
  32 H :    0.035736
  33 H :    0.060673
Sum of atomic charges:   -0.0000000

LOEWDIN ATOMIC CHARGES
----------------------
   0 S :    0.396637
   1 C :   -0.188947
   2 C :   -0.061192
   3 C :   -0.060113
   4 C :   -0.187876
   5 H :    0.012591
   6 C :   -0.034685
   7 H :    0.035353
   8 H :    0.038203
   9 C :   -0.047905
  10 H :    0.025699
  11 H :    0.024736
  12 C :   -0.067112
  13 H :    0.023601
  14 H :    0.034413
  15 H :    0.021184
  16 S :    0.410171
  17 C :   -0.189204
  18 C :   -0.074746
  19 C :   -0.056393
  20 C :   -0.192512
  21 H :    0.037568
  22 C :   -0.039573
  23 H :    0.041242
  24 H :    0.026225
  25 C :   -0.034770
  26 H :    0.026930
  27 H :    0.008220
  28 C :   -0.072936
  29 H :    0.029340
  30 H :    0.033739
  31 H :    0.031587
  32 H :    0.021640
  33 H :    0.028887

  Mayer bond orders larger than 0.100000
B(  0-S ,  1-C ) :   1.1490 B(  0-S ,  4-C ) :   1.1186 B(  1-C ,  2-C ) :   1.5916
B(  1-C , 32-H ) :   0.9684 B(  2-C ,  3-C ) :   1.2545 B(  2-C ,  6-C ) :   1.0130
B(  3-C ,  4-C ) :   1.5595 B(  3-C ,  5-H ) :   1.0092 B(  4-C , 20-C ) :   1.0817
B(  6-C ,  7-H ) :   0.9500 B(  6-C ,  8-H ) :   0.9267 B(  6-C ,  9-C ) :   1.0719
B(  9-C , 10-H ) :   0.9564 B(  9-C , 11-H ) :   0.9464 B(  9-C , 12-C ) :   1.0922
B( 12-C , 13-H ) :   0.9726 B( 12-C , 14-H ) :   0.9727 B( 12-C , 15-H ) :   0.9712
B( 16-S , 17-C ) :   1.1611 B( 16-S , 20-C ) :   1.1453 B( 17-C , 18-C ) :   1.5853
B( 17-C , 20-C ) :   0.1044 B( 17-C , 33-H ) :   0.9681 B( 18-C , 19-C ) :   1.2744
B( 18-C , 21-H ) :   0.9788 B( 19-C , 20-C ) :   1.5414 B( 19-C , 22-C ) :   1.0448
B( 22-C , 23-H ) :   0.9378 B( 22-C , 24-H ) :   0.9282 B( 22-C , 25-C ) :   1.0359
B( 25-C , 26-H ) :   0.9593 B( 25-C , 27-H ) :   0.9617 B( 25-C , 28-C ) :   1.0659
B( 28-C , 29-H ) :   0.9797 B( 28-C , 30-H ) :   0.9793 B( 28-C , 31-H ) :   0.9757

Dispersion correction           -0.013300467
FINAL SINGLE POINT ENERGY     -1339.872989991296

DIPOLE MOMENT
-------------
                                X             Y             Z
Electronic contribution:     13.20641     -16.44870       0.72365
Nuclear contribution   :    -13.41142      16.65660      -0.86787
                        -----------------------------------------
Total Dipole Moment    :     -0.20500       0.20789      -0.14423
                        -----------------------------------------
Magnitude (a.u.)       :      0.32565
Magnitude (Debye)      :      0.82774

Rotational constants in cm-1:     0.017665     0.007336     0.006414
Rotational constants in MHz :   529.574620   219.926988   192.280817

                             ****ORCA TERMINATED NORMALLY****
TOTAL RUN TIME: 0 days 0 hours 0 minutes 19 seconds 433 msec
