                         Program Version 4.2.1 -  RELEASE  -
|  1> ! wB97X-D3 SP def2-SVP
|  2> %pal
|  3> nprocs 24
|  4> end
|  5>
|  6> * xyz 0 1
|  7> S 	 -97.7527 	 9.09775 	 -114.031
|  8> C 	 -97.3128 	 10.5843 	 -113.346
|  9> C 	 -96.3739 	 11.2206 	 -114.181
| 10> C 	 -95.8919 	 10.368 	 -115.2
| 11> C 	 -96.5392 	 9.12174 	 -115.185
| 12> H 	 -95.1019 	 10.5411 	 -115.898
| 13> C 	 -95.8967 	 12.616 	 -113.871
| 14> H 	 -96.8294 	 13.2321 	 -113.933
| 15> H 	 -95.2485 	 12.9279 	 -114.685
| 16> C 	 -95.1747 	 12.8012 	 -112.536
| 17> H 	 -94.8367 	 13.8465 	 -112.365
| 18> H 	 -95.7747 	 12.5203 	 -111.683
| 19> C 	 -93.905 	 11.9506 	 -112.548
| 20> H 	 -93.2992 	 12.1583 	 -113.396
| 21> H 	 -93.3309 	 12.0525 	 -111.615
| 22> H 	 -94.1057 	 10.857 	 -112.626
| 23> S 	 -95.8054 	 6.57398 	 -114.854
| 24> C 	 -95.6252 	 5.64926 	 -116.37
| 25> C 	 -95.5401 	 6.40486 	 -117.453
| 26> C 	 -95.8093 	 7.76132 	 -117.229
| 27> C 	 -96.1818 	 7.95121 	 -115.911
| 28> H 	 -95.2913 	 5.98956 	 -118.396
| 29> C 	 -95.8302 	 8.66553 	 -118.376
| 30> H 	 -95.0658 	 8.33985 	 -119.04
| 31> H 	 -95.6601 	 9.72071 	 -118.023
| 32> C 	 -97.1505 	 8.67585 	 -119.099
| 33> H 	 -97.9584 	 9.11828 	 -118.453
| 34> H 	 -97.5051 	 7.64354 	 -119.334
| 35> C 	 -97.2311 	 9.37023 	 -120.489
| 36> H 	 -96.6363 	 8.80509 	 -121.189
| 37> H 	 -96.7816 	 10.3964 	 -120.416
| 38> H 	 -98.3095 	 9.31882 	 -120.713
| 39> H 	 -97.8501 	 11.0809 	 -112.517
| 40> H 	 -95.4611 	 4.61657 	 -116.276
| 41> *
| 42>
| 43>                          ****END OF INPUT****

CARTESIAN COORDINATES (ANGSTROEM)
---------------------------------
  S    -97.752700    9.097750  -114.031000
  C    -97.312800   10.584300  -113.346000
  C    -96.373900   11.220600  -114.181000
  C    -95.891900   10.368000  -115.200000
  C    -96.539200    9.121740  -115.185000
  H    -95.101900   10.541100  -115.898000
  C    -95.896700   12.616000  -113.871000
  H    -96.829400   13.232100  -113.933000
  H    -95.248500   12.927900  -114.685000
  C    -95.174700   12.801200  -112.536000
  H    -94.836700   13.846500  -112.365000
  H    -95.774700   12.520300  -111.683000
  C    -93.905000   11.950600  -112.548000
  H    -93.299200   12.158300  -113.396000
  H    -93.330900   12.052500  -111.615000
  H    -94.105700   10.857000  -112.626000
  S    -95.805400    6.573980  -114.854000
  C    -95.625200    5.649260  -116.370000
  C    -95.540100    6.404860  -117.453000
  C    -95.809300    7.761320  -117.229000
  C    -96.181800    7.951210  -115.911000
  H    -95.291300    5.989560  -118.396000
  C    -95.830200    8.665530  -118.376000
  H    -95.065800    8.339850  -119.040000
  H    -95.660100    9.720710  -118.023000
  C    -97.150500    8.675850  -119.099000
  H    -97.958400    9.118280  -118.453000
  H    -97.505100    7.643540  -119.334000
  C    -97.231100    9.370230  -120.489000
  H    -96.636300    8.805090  -121.189000
  H    -96.781600   10.396400  -120.416000
  H    -98.309500    9.318820  -120.713000
  H    -97.850100   11.080900  -112.517000
  H    -95.461100    4.616570  -116.276000

 Total Charge           Charge          ....    0
 Multiplicity           Mult            ....    1
 Number of Electrons    NEL             ....  134
 Basis Dimension        Dim             ....  322

ORBITAL ENERGIES
----------------

  NO   OCC          E(Eh)            E(eV)
   0   2.0000     -88.964877     -2420.8574
   1   2.0000     -88.960771     -2420.7457
   2   2.0000     -10.321440      -280.8607
   3   2.0000     -10.317343      -280.7492
   4   2.0000     -10.308559      -280.5101
   5   2.0000     -10.307552      -280.4827
   6   2.0000     -10.299149      -280.2541
   7   2.0000     -10.295519      -280.1553
   8   2.0000     -10.290988      -280.0320
   9   2.0000     -10.290566      -280.0205
  10   2.0000     -10.289802      -279.9997
  11   2.0000     -10.287957      -279.9495
  12   2.0000     -10.286911      -279.9211
  13   2.0000     -10.282914      -279.8123
  14   2.0000     -10.282753      -279.8079
  15   2.0000     -10.270446      -279.4730
  16   2.0000      -8.081669      -219.9134
  17   2.0000      -8.075332      -219.7410
  18   2.0000      -6.039768      -164.3505
  19   2.0000      -6.035583      -164.2366
  20   2.0000      -6.033779      -164.1875
  21   2.0000      -6.033053      -164.1677
  22   2.0000      -6.030305      -164.0929
  23   2.0000      -6.025706      -163.9678
  24   2.0000      -1.017548       -27.6889
  25   2.0000      -0.991715       -26.9859
  26   2.0000      -0.917288       -24.9607
  27   2.0000      -0.913210       -24.8497
  28   2.0000      -0.872957       -23.7544
  29   2.0000      -0.853594       -23.2275
  30   2.0000      -0.847288       -23.0559
  31   2.0000      -0.813509       -22.1367
  32   2.0000      -0.783897       -21.3309
  33   2.0000      -0.769363       -20.9354
  34   2.0000      -0.702901       -19.1269
  35   2.0000      -0.702830       -19.1250
  36   2.0000      -0.686617       -18.6838
  37   2.0000      -0.670550       -18.2466
  38   2.0000      -0.642394       -17.4804
  39   2.0000      -0.612556       -16.6685
  40   2.0000      -0.600909       -16.3516
  41   2.0000      -0.575668       -15.6647
  42   2.0000      -0.567501       -15.4425
  43   2.0000      -0.550550       -14.9812
  44   2.0000      -0.541145       -14.7253
  45   2.0000      -0.533985       -14.5305
  46   2.0000      -0.518589       -14.1115
  47   2.0000      -0.511499       -13.9186
  48   2.0000      -0.507165       -13.8007
  49   2.0000      -0.497000       -13.5241
  50   2.0000      -0.491210       -13.3665
  51   2.0000      -0.477670       -12.9981
  52   2.0000      -0.469811       -12.7842
  53   2.0000      -0.461478       -12.5574
  54   2.0000      -0.459255       -12.4970
  55   2.0000      -0.446913       -12.1611
  56   2.0000      -0.442488       -12.0407
  57   2.0000      -0.441869       -12.0239
  58   2.0000      -0.430110       -11.7039
  59   2.0000      -0.427477       -11.6322
  60   2.0000      -0.422453       -11.4955
  61   2.0000      -0.414045       -11.2667
  62   2.0000      -0.411122       -11.1872
  63   2.0000      -0.347187        -9.4474
  64   2.0000      -0.330576        -8.9954
  65   2.0000      -0.326712        -8.8903
  66   2.0000      -0.285956        -7.7813
  67   0.0000       0.027294         0.7427
  68   0.0000       0.073150         1.9905
  69   0.0000       0.099125         2.6973
  70   0.0000       0.118889         3.2351
  71   0.0000       0.144583         3.9343

MULLIKEN ATOMIC CHARGES
-----------------------
   0 S :    0.144531
   1 C :   -0.143171
   2 C :   -0.122504
   3 C :    0.048056
   4 C :   -0.193196
   5 H :    0.002262
   6 C :    0.068676
   7 H :    0.042440
   8 H :    0.014538
   9 C :   -0.047919
  10 H :    0.036174
  11 H :    0.026206
  12 C :   -0.072370
  13 H :    0.017055
  14 H :    0.034327
  15 H :    0.044926
  16 S :    0.089535
  17 C :   -0.059276
  18 C :   -0.012209
  19 C :   -0.007888
  20 C :   -0.163147
  21 H :   -0.000742
  22 C :    0.123980
  23 H :    0.010202
  24 H :    0.021391
  25 C :   -0.140334
  26 H :    0.040510
  27 H :    0.024384
  28 C :   -0.034551
  29 H :    0.026886
  30 H :    0.037394
  31 H :    0.049605
  32 H :    0.062712
  33 H :    0.031515
Sum of atomic charges:    0.0000000

LOEWDIN ATOMIC CHARGES
----------------------
   0 S :    0.474654
   1 C :   -0.232413
   2 C :   -0.063984
   3 C :   -0.066520
   4 C :   -0.230400
   5 H :    0.025568
   6 C :   -0.035644
   7 H :    0.037516
   8 H :    0.026710
   9 C :   -0.038751
  10 H :    0.029264
  11 H :    0.020727
  12 C :   -0.068854
  13 H :    0.016593
  14 H :    0.026092
  15 H :    0.030844
  16 S :    0.371625
  17 C :   -0.151614
  18 C :   -0.062114
  19 C :   -0.053134
  20 C :   -0.184020
  21 H :    0.028444
  22 C :   -0.034807
  23 H :    0.028557
  24 H :    0.035956
  25 C :   -0.047018
  26 H :    0.029663
  27 H :    0.023245
  28 C :   -0.064681
  29 H :    0.018464
  30 H :    0.027275
  31 H :    0.034747
  32 H :    0.034062
  33 H :    0.013946

  Mayer bond orders larger than 0.100000
B(  0-S ,  1-C ) :   1.1741 B(  0-S ,  4-C ) :   1.2126 B(  1-C ,  2-C ) :   1.5233
B(  1-C ,  4-C ) :   0.1057 B(  1-C , 32-H ) :   0.9711 B(  2-C ,  3-C ) :   1.3025
B(  2-C ,  6-C ) :   1.0176 B(  3-C ,  4-C ) :   1.4917 B(  3-C ,  5-H ) :   0.9972
B(  4-C , 20-C ) :   1.0534 B(  6-C ,  7-H ) :   0.9341 B(  6-C ,  8-H ) :   0.9449
B(  6-C ,  9-C ) :   1.0765 B(  9-C , 10-H ) :   0.9556 B(  9-C , 11-H ) :   0.9544
B(  9-C , 12-C ) :   1.0728 B( 12-C , 13-H ) :   0.9763 B( 12-C , 14-H ) :   0.9737
B( 12-C , 15-H ) :   0.9726 B( 16-S , 17-C ) :   1.1201 B( 16-S , 20-C ) :   1.1427
B( 17-C , 18-C ) :   1.6425 B( 17-C , 33-H ) :   0.9764 B( 18-C , 19-C ) :   1.1969
B( 18-C , 21-H ) :   0.9987 B( 19-C , 20-C ) :   1.6030 B( 19-C , 22-C ) :   1.0739
B( 22-C , 23-H ) :   0.9175 B( 22-C , 24-H ) :   0.9140 B( 22-C , 25-C ) :   1.0775
B( 25-C , 26-H ) :   0.9548 B( 25-C , 27-H ) :   0.9566 B( 25-C , 28-C ) :   1.0740
B( 28-C , 29-H ) :   0.9764 B( 28-C , 30-H ) :   0.9741 B( 28-C , 31-H ) :   0.9747

Dispersion correction           -0.014388932
FINAL SINGLE POINT ENERGY     -1339.875825009092

DIPOLE MOMENT
-------------
                                X             Y             Z
Electronic contribution:     -6.13987     -17.48144      10.44144
Nuclear contribution   :      6.34641      17.74301     -10.80895
                        -----------------------------------------
Total Dipole Moment    :      0.20655       0.26157      -0.36751
                        -----------------------------------------
Magnitude (a.u.)       :      0.49613
Magnitude (Debye)      :      1.26107

Rotational constants in cm-1:     0.019445     0.008458     0.007069
Rotational constants in MHz :   582.958093   253.550775   211.932128

                             ****ORCA TERMINATED NORMALLY****
TOTAL RUN TIME: 0 days 0 hours 0 minutes 22 seconds 121 msec
