                         Program Version 4.2.1 -  RELEASE  -
|  1> ! wB97X-D3 SP def2-SVP
|  2> %pal
|  3> nprocs 24
|  4> end
|  5>
|  6> * xyz 0 1
|  7> S 	 -121.161 	 58.2227 	 -39.2681
|  8> C 	 -122.625 	 57.438 	 -39.6664
|  9> C 	 -123.671 	 57.8414 	 -38.9112
| 10> C 	 -123.234 	 58.6781 	 -37.8381
| 11> C 	 -121.936 	 59.1117 	 -37.9024
| 12> H 	 -123.928 	 59.0892 	 -37.0743
| 13> C 	 -125.131 	 57.4786 	 -38.9328
| 14> H 	 -125.487 	 57.436 	 -39.931
| 15> H 	 -125.58 	 58.3384 	 -38.4789
| 16> C 	 -125.647 	 56.2388 	 -38.0936
| 17> H 	 -126.726 	 56.499 	 -37.8731
| 18> H 	 -125.607 	 55.4458 	 -38.7634
| 19> C 	 -124.911 	 56.0245 	 -36.6568
| 20> H 	 -124.897 	 56.9923 	 -36.0943
| 21> H 	 -125.517 	 55.3258 	 -36.0462
| 22> H 	 -123.914 	 55.5782 	 -36.6783
| 23> S 	 -120.673 	 61.5796 	 -37.6093
| 24> C 	 -120.033 	 61.9961 	 -36
| 25> C 	 -120.307 	 61.1087 	 -35.018
| 26> C 	 -121.042 	 59.9899 	 -35.5188
| 27> C 	 -121.289 	 60.0243 	 -36.9475
| 28> H 	 -120.001 	 61.3727 	 -33.9279
| 29> C 	 -121.429 	 58.8767 	 -34.5858
| 30> H 	 -122.201 	 58.238 	 -34.9583
| 31> H 	 -121.926 	 59.3194 	 -33.7944
| 32> C 	 -120.275 	 57.9508 	 -34.1493
| 33> H 	 -120.58 	 57.0936 	 -33.531
| 34> H 	 -119.552 	 58.5718 	 -33.5924
| 35> C 	 -119.411 	 57.3642 	 -35.3394
| 36> H 	 -119.949 	 56.6539 	 -35.9312
| 37> H 	 -118.515 	 56.9173 	 -34.9636
| 38> H 	 -119.076 	 58.224 	 -35.9717
| 39> H 	 -122.692 	 56.7795 	 -40.4959
| 40> H 	 -119.525 	 62.8903 	 -35.7125
| 41> *
| 42>
| 43>                          ****END OF INPUT****

CARTESIAN COORDINATES (ANGSTROEM)
---------------------------------
  S    -121.161000   58.222700  -39.268100
  C    -122.625000   57.438000  -39.666400
  C    -123.671000   57.841400  -38.911200
  C    -123.234000   58.678100  -37.838100
  C    -121.936000   59.111700  -37.902400
  H    -123.928000   59.089200  -37.074300
  C    -125.131000   57.478600  -38.932800
  H    -125.487000   57.436000  -39.931000
  H    -125.580000   58.338400  -38.478900
  C    -125.647000   56.238800  -38.093600
  H    -126.726000   56.499000  -37.873100
  H    -125.607000   55.445800  -38.763400
  C    -124.911000   56.024500  -36.656800
  H    -124.897000   56.992300  -36.094300
  H    -125.517000   55.325800  -36.046200
  H    -123.914000   55.578200  -36.678300
  S    -120.673000   61.579600  -37.609300
  C    -120.033000   61.996100  -36.000000
  C    -120.307000   61.108700  -35.018000
  C    -121.042000   59.989900  -35.518800
  C    -121.289000   60.024300  -36.947500
  H    -120.001000   61.372700  -33.927900
  C    -121.429000   58.876700  -34.585800
  H    -122.201000   58.238000  -34.958300
  H    -121.926000   59.319400  -33.794400
  C    -120.275000   57.950800  -34.149300
  H    -120.580000   57.093600  -33.531000
  H    -119.552000   58.571800  -33.592400
  C    -119.411000   57.364200  -35.339400
  H    -119.949000   56.653900  -35.931200
  H    -118.515000   56.917300  -34.963600
  H    -119.076000   58.224000  -35.971700
  H    -122.692000   56.779500  -40.495900
  H    -119.525000   62.890300  -35.712500

 Total Charge           Charge          ....    0
 Multiplicity           Mult            ....    1
 Number of Electrons    NEL             ....  134
 Basis Dimension        Dim             ....  322

ORBITAL ENERGIES
----------------

  NO   OCC          E(Eh)            E(eV)
   0   2.0000     -88.967664     -2420.9332
   1   2.0000     -88.964289     -2420.8414
   2   2.0000     -10.337651      -281.3018
   3   2.0000     -10.331333      -281.1299
   4   2.0000     -10.315787      -280.7068
   5   2.0000     -10.313104      -280.6338
   6   2.0000     -10.308784      -280.5163
   7   2.0000     -10.300141      -280.2811
   8   2.0000     -10.298032      -280.2237
   9   2.0000     -10.294136      -280.1177
  10   2.0000     -10.293128      -280.0903
  11   2.0000     -10.291364      -280.0422
  12   2.0000     -10.287958      -279.9496
  13   2.0000     -10.287279      -279.9311
  14   2.0000     -10.280401      -279.7439
  15   2.0000     -10.268476      -279.4194
  16   2.0000      -8.081012      -219.8955
  17   2.0000      -8.079019      -219.8413
  18   2.0000      -6.039561      -164.3448
  19   2.0000      -6.037628      -164.2922
  20   2.0000      -6.035785      -164.2421
  21   2.0000      -6.033479      -164.1793
  22   2.0000      -6.031729      -164.1317
  23   2.0000      -6.029704      -164.0766
  24   2.0000      -1.001752       -27.2591
  25   2.0000      -0.980633       -26.6844
  26   2.0000      -0.903249       -24.5786
  27   2.0000      -0.901532       -24.5319
  28   2.0000      -0.869871       -23.6704
  29   2.0000      -0.841391       -22.8954
  30   2.0000      -0.836682       -22.7673
  31   2.0000      -0.814156       -22.1543
  32   2.0000      -0.783661       -21.3245
  33   2.0000      -0.771954       -21.0059
  34   2.0000      -0.708887       -19.2898
  35   2.0000      -0.705529       -19.1984
  36   2.0000      -0.688386       -18.7319
  37   2.0000      -0.650467       -17.7001
  38   2.0000      -0.642280       -17.4773
  39   2.0000      -0.615373       -16.7452
  40   2.0000      -0.594773       -16.1846
  41   2.0000      -0.567585       -15.4448
  42   2.0000      -0.554649       -15.0928
  43   2.0000      -0.547289       -14.8925
  44   2.0000      -0.539363       -14.6768
  45   2.0000      -0.527907       -14.3651
  46   2.0000      -0.511313       -13.9135
  47   2.0000      -0.506569       -13.7844
  48   2.0000      -0.496559       -13.5121
  49   2.0000      -0.492272       -13.3954
  50   2.0000      -0.486692       -13.2436
  51   2.0000      -0.472272       -12.8512
  52   2.0000      -0.468065       -12.7367
  53   2.0000      -0.462691       -12.5905
  54   2.0000      -0.461340       -12.5537
  55   2.0000      -0.443212       -12.0604
  56   2.0000      -0.442199       -12.0328
  57   2.0000      -0.438240       -11.9251
  58   2.0000      -0.434827       -11.8322
  59   2.0000      -0.426989       -11.6190
  60   2.0000      -0.419014       -11.4019
  61   2.0000      -0.416095       -11.3225
  62   2.0000      -0.406315       -11.0564
  63   2.0000      -0.345353        -9.3975
  64   2.0000      -0.332586        -9.0501
  65   2.0000      -0.326149        -8.8750
  66   2.0000      -0.295581        -8.0432
  67   0.0000       0.032762         0.8915
  68   0.0000       0.060999         1.6599
  69   0.0000       0.110088         2.9957
  70   0.0000       0.122250         3.3266
  71   0.0000       0.123068         3.3489

MULLIKEN ATOMIC CHARGES
-----------------------
   0 S :    0.109768
   1 C :   -0.114299
   2 C :   -0.076740
   3 C :    0.002449
   4 C :   -0.134662
   5 H :    0.028123
   6 C :    0.086319
   7 H :    0.019095
   8 H :    0.010624
   9 C :   -0.060904
  10 H :    0.042799
  11 H :    0.024079
  12 C :   -0.083888
  13 H :    0.038428
  14 H :    0.037172
  15 H :    0.054332
  16 S :    0.101889
  17 C :   -0.069036
  18 C :   -0.075569
  19 C :   -0.053832
  20 C :   -0.182561
  21 H :    0.061494
  22 C :    0.144144
  23 H :    0.002356
  24 H :    0.006190
  25 C :   -0.103711
  26 H :    0.038955
  27 H :    0.024118
  28 C :   -0.058469
  29 H :    0.033404
  30 H :    0.026044
  31 H :    0.046280
  32 H :    0.033919
  33 H :    0.041691
Sum of atomic charges:   -0.0000000

LOEWDIN ATOMIC CHARGES
----------------------
   0 S :    0.398809
   1 C :   -0.193011
   2 C :   -0.074029
   3 C :   -0.055166
   4 C :   -0.193872
   5 H :    0.035053
   6 C :   -0.030517
   7 H :    0.025924
   8 H :    0.027488
   9 C :   -0.026183
  10 H :    0.033827
  11 H :    0.011252
  12 C :   -0.073411
  13 H :    0.028291
  14 H :    0.028290
  15 H :    0.028839
  16 S :    0.378217
  17 C :   -0.169686
  18 C :   -0.086727
  19 C :   -0.042331
  20 C :   -0.187408
  21 H :    0.055185
  22 C :   -0.033733
  23 H :    0.026208
  24 H :    0.023724
  25 C :   -0.036080
  26 H :    0.025412
  27 H :    0.020188
  28 C :   -0.063377
  29 H :    0.018450
  30 H :    0.020742
  31 H :    0.031549
  32 H :    0.022488
  33 H :    0.025593

  Mayer bond orders larger than 0.100000
B(  0-S ,  1-C ) :   1.1472 B(  0-S ,  4-C ) :   1.1172 B(  1-C ,  2-C ) :   1.6164
B(  1-C , 32-H ) :   0.9722 B(  2-C ,  3-C ) :   1.2282 B(  2-C ,  6-C ) :   1.0271
B(  3-C ,  4-C ) :   1.6045 B(  3-C ,  5-H ) :   0.9827 B(  4-C , 20-C ) :   1.0568
B(  6-C ,  7-H ) :   0.9422 B(  6-C ,  8-H ) :   0.9342 B(  6-C ,  9-C ) :   1.0564
B(  9-C , 10-H ) :   0.9605 B(  9-C , 11-H ) :   0.9660 B(  9-C , 12-C ) :   1.0647
B( 12-C , 13-H ) :   0.9742 B( 12-C , 14-H ) :   0.9766 B( 12-C , 15-H ) :   0.9756
B( 16-S , 17-C ) :   1.1428 B( 16-S , 20-C ) :   1.1287 B( 17-C , 18-C ) :   1.6572
B( 17-C , 33-H ) :   0.9601 B( 18-C , 19-C ) :   1.2257 B( 18-C , 21-H ) :   0.9697
B( 19-C , 20-C ) :   1.5776 B( 19-C , 22-C ) :   1.0480 B( 22-C , 23-H ) :   0.9310
B( 22-C , 24-H ) :   0.9254 B( 22-C , 25-C ) :   1.0597 B( 25-C , 26-H ) :   0.9601
B( 25-C , 27-H ) :   0.9600 B( 25-C , 28-C ) :   1.0736 B( 28-C , 29-H ) :   0.9792
B( 28-C , 30-H ) :   0.9757 B( 28-C , 31-H ) :   0.9722

Dispersion correction           -0.015844380
FINAL SINGLE POINT ENERGY     -1339.863910320844

DIPOLE MOMENT
-------------
                                X             Y             Z
Electronic contribution:     10.31063      17.42653     -14.47153
Nuclear contribution   :    -10.77528     -17.67401      14.91670
                        -----------------------------------------
Total Dipole Moment    :     -0.46464      -0.24748       0.44517
                        -----------------------------------------
Magnitude (a.u.)       :      0.68943
Magnitude (Debye)      :      1.75239

Rotational constants in cm-1:     0.019315     0.009207     0.007791
Rotational constants in MHz :   579.056733   276.020939   233.556386

                             ****ORCA TERMINATED NORMALLY****
TOTAL RUN TIME: 0 days 0 hours 0 minutes 22 seconds 532 msec
