                         Program Version 4.2.1 -  RELEASE  -
|  1> ! wB97X-D3 SP def2-SVP
|  2> %pal
|  3> nprocs 24
|  4> end
|  5>
|  6> * xyz 0 1
|  7> S 	 -50.8062 	 20.049 	 21.3119
|  8> C 	 -51.1008 	 21.2047 	 22.5796
|  9> C 	 -50.9438 	 20.6813 	 23.874
| 10> C 	 -50.2473 	 19.5033 	 23.7735
| 11> C 	 -50.1579 	 19.0045 	 22.5128
| 12> H 	 -49.9285 	 18.9125 	 24.6455
| 13> C 	 -51.4178 	 21.3328 	 25.1526
| 14> H 	 -52.242 	 21.9369 	 25.0108
| 15> H 	 -50.5307 	 21.8991 	 25.4814
| 16> C 	 -51.952 	 20.4619 	 26.3089
| 17> H 	 -51.1124 	 19.6873 	 26.5505
| 18> H 	 -52.1657 	 21.0267 	 27.2929
| 19> C 	 -53.2839 	 19.6929 	 26.062
| 20> H 	 -54.0122 	 20.4443 	 25.8534
| 21> H 	 -53.1947 	 19.012 	 25.175
| 22> H 	 -53.6548 	 19.1069 	 26.8923
| 23> S 	 -47.8541 	 18.1457 	 21.4601
| 24> C 	 -47.3588 	 16.4371 	 21.4345
| 25> C 	 -48.375 	 15.678 	 21.9971
| 26> C 	 -49.442 	 16.4585 	 22.4591
| 27> C 	 -49.3914 	 17.835 	 22.1886
| 28> H 	 -48.2052 	 14.6529 	 22.1718
| 29> C 	 -50.5301 	 15.792 	 23.2474
| 30> H 	 -51.1429 	 15.1977 	 22.5729
| 31> H 	 -51.1148 	 16.5888 	 23.6974
| 32> C 	 -50.0474 	 14.7845 	 24.3858
| 33> H 	 -49.4571 	 13.8952 	 23.9995
| 34> H 	 -50.9254 	 14.4036 	 24.8697
| 35> C 	 -49.1127 	 15.4188 	 25.452
| 36> H 	 -48.734 	 14.6098 	 26.0428
| 37> H 	 -49.5882 	 15.9979 	 26.2316
| 38> H 	 -48.3311 	 16.131 	 25.1807
| 39> H 	 -51.4827 	 22.2231 	 22.3772
| 40> H 	 -46.4838 	 16.0078 	 20.9868
| 41> *
| 42>
| 43>                          ****END OF INPUT****

CARTESIAN COORDINATES (ANGSTROEM)
---------------------------------
  S    -50.806200   20.049000   21.311900
  C    -51.100800   21.204700   22.579600
  C    -50.943800   20.681300   23.874000
  C    -50.247300   19.503300   23.773500
  C    -50.157900   19.004500   22.512800
  H    -49.928500   18.912500   24.645500
  C    -51.417800   21.332800   25.152600
  H    -52.242000   21.936900   25.010800
  H    -50.530700   21.899100   25.481400
  C    -51.952000   20.461900   26.308900
  H    -51.112400   19.687300   26.550500
  H    -52.165700   21.026700   27.292900
  C    -53.283900   19.692900   26.062000
  H    -54.012200   20.444300   25.853400
  H    -53.194700   19.012000   25.175000
  H    -53.654800   19.106900   26.892300
  S    -47.854100   18.145700   21.460100
  C    -47.358800   16.437100   21.434500
  C    -48.375000   15.678000   21.997100
  C    -49.442000   16.458500   22.459100
  C    -49.391400   17.835000   22.188600
  H    -48.205200   14.652900   22.171800
  C    -50.530100   15.792000   23.247400
  H    -51.142900   15.197700   22.572900
  H    -51.114800   16.588800   23.697400
  C    -50.047400   14.784500   24.385800
  H    -49.457100   13.895200   23.999500
  H    -50.925400   14.403600   24.869700
  C    -49.112700   15.418800   25.452000
  H    -48.734000   14.609800   26.042800
  H    -49.588200   15.997900   26.231600
  H    -48.331100   16.131000   25.180700
  H    -51.482700   22.223100   22.377200
  H    -46.483800   16.007800   20.986800

 Total Charge           Charge          ....    0
 Multiplicity           Mult            ....    1
 Number of Electrons    NEL             ....  134
 Basis Dimension        Dim             ....  322

ORBITAL ENERGIES
----------------

  NO   OCC          E(Eh)            E(eV)
   0   2.0000     -88.972422     -2421.0627
   1   2.0000     -88.959049     -2420.6988
   2   2.0000     -10.320867      -280.8451
   3   2.0000     -10.320115      -280.8246
   4   2.0000     -10.316469      -280.7254
   5   2.0000     -10.315942      -280.7111
   6   2.0000     -10.305874      -280.4371
   7   2.0000     -10.300462      -280.2898
   8   2.0000     -10.296725      -280.1881
   9   2.0000     -10.295857      -280.1645
  10   2.0000     -10.293514      -280.1008
  11   2.0000     -10.288458      -279.9632
  12   2.0000     -10.287600      -279.9398
  13   2.0000     -10.285167      -279.8736
  14   2.0000     -10.280670      -279.7512
  15   2.0000     -10.271575      -279.5038
  16   2.0000      -8.087696      -220.0774
  17   2.0000      -8.073733      -219.6974
  18   2.0000      -6.045892      -164.5171
  19   2.0000      -6.042315      -164.4198
  20   2.0000      -6.038561      -164.3176
  21   2.0000      -6.032275      -164.1465
  22   2.0000      -6.028010      -164.0305
  23   2.0000      -6.024683      -163.9400
  24   2.0000      -1.015705       -27.6388
  25   2.0000      -0.986696       -26.8494
  26   2.0000      -0.913911       -24.8688
  27   2.0000      -0.898316       -24.4444
  28   2.0000      -0.871001       -23.7011
  29   2.0000      -0.855593       -23.2819
  30   2.0000      -0.841794       -22.9064
  31   2.0000      -0.816414       -22.2158
  32   2.0000      -0.787108       -21.4183
  33   2.0000      -0.769290       -20.9335
  34   2.0000      -0.709226       -19.2990
  35   2.0000      -0.697173       -18.9711
  36   2.0000      -0.688559       -18.7366
  37   2.0000      -0.658816       -17.9273
  38   2.0000      -0.640568       -17.4308
  39   2.0000      -0.629699       -17.1350
  40   2.0000      -0.589561       -16.0428
  41   2.0000      -0.570864       -15.5340
  42   2.0000      -0.559549       -15.2261
  43   2.0000      -0.547668       -14.9028
  44   2.0000      -0.542190       -14.7538
  45   2.0000      -0.533376       -14.5139
  46   2.0000      -0.522387       -14.2149
  47   2.0000      -0.511687       -13.9237
  48   2.0000      -0.501757       -13.6535
  49   2.0000      -0.497140       -13.5279
  50   2.0000      -0.490813       -13.3557
  51   2.0000      -0.481594       -13.1049
  52   2.0000      -0.471083       -12.8188
  53   2.0000      -0.465004       -12.6534
  54   2.0000      -0.455850       -12.4043
  55   2.0000      -0.451541       -12.2870
  56   2.0000      -0.446614       -12.1530
  57   2.0000      -0.442816       -12.0496
  58   2.0000      -0.429048       -11.6750
  59   2.0000      -0.420970       -11.4552
  60   2.0000      -0.416554       -11.3350
  61   2.0000      -0.411003       -11.1840
  62   2.0000      -0.409227       -11.1356
  63   2.0000      -0.345682        -9.4065
  64   2.0000      -0.328352        -8.9349
  65   2.0000      -0.317094        -8.6286
  66   2.0000      -0.298259        -8.1160
  67   0.0000       0.035528         0.9668
  68   0.0000       0.060989         1.6596
  69   0.0000       0.109535         2.9806
  70   0.0000       0.122345         3.3292
  71   0.0000       0.127079         3.4580

MULLIKEN ATOMIC CHARGES
-----------------------
   0 S :    0.151710
   1 C :   -0.153299
   2 C :   -0.081999
   3 C :    0.031188
   4 C :   -0.186577
   5 H :    0.018958
   6 C :    0.132736
   7 H :    0.005591
   8 H :    0.055241
   9 C :   -0.162091
  10 H :    0.034949
  11 H :    0.051338
  12 C :   -0.053136
  13 H :    0.022140
  14 H :    0.047096
  15 H :    0.041240
  16 S :    0.097107
  17 C :   -0.091034
  18 C :   -0.017806
  19 C :   -0.051530
  20 C :   -0.151215
  21 H :    0.004397
  22 C :    0.096617
  23 H :    0.035851
  24 H :    0.019202
  25 C :   -0.095616
  26 H :    0.040456
  27 H :    0.031605
  28 C :   -0.058087
  29 H :    0.022228
  30 H :    0.010238
  31 H :    0.047465
  32 H :    0.053863
  33 H :    0.051172
Sum of atomic charges:    0.0000000

LOEWDIN ATOMIC CHARGES
----------------------
   0 S :    0.438657
   1 C :   -0.200736
   2 C :   -0.063596
   3 C :   -0.057098
   4 C :   -0.220473
   5 H :    0.036604
   6 C :   -0.028756
   7 H :    0.019947
   8 H :    0.045972
   9 C :   -0.051571
  10 H :    0.022416
  11 H :    0.036973
  12 C :   -0.069703
  13 H :    0.019479
  14 H :    0.030709
  15 H :    0.027363
  16 S :    0.409039
  17 C :   -0.173642
  18 C :   -0.068939
  19 C :   -0.063795
  20 C :   -0.212067
  21 H :    0.025559
  22 C :   -0.029232
  23 H :    0.032710
  24 H :    0.026930
  25 C :   -0.035851
  26 H :    0.027789
  27 H :    0.024419
  28 C :   -0.079790
  29 H :    0.025065
  30 H :    0.020349
  31 H :    0.029550
  32 H :    0.028014
  33 H :    0.027707

  Mayer bond orders larger than 0.100000
B(  0-S ,  1-C ) :   1.1683 B(  0-S ,  4-C ) :   1.1636 B(  1-C ,  2-C ) :   1.5670
B(  1-C ,  4-C ) :   0.1021 B(  1-C , 32-H ) :   0.9641 B(  2-C ,  3-C ) :   1.2782
B(  2-C ,  6-C ) :   1.0086 B(  3-C ,  4-C ) :   1.5621 B(  3-C ,  5-H ) :   0.9860
B(  4-C , 20-C ) :   1.0162 B(  6-C ,  7-H ) :   0.9431 B(  6-C ,  8-H ) :   0.9304
B(  6-C ,  9-C ) :   1.0654 B(  9-C , 10-H ) :   0.9530 B(  9-C , 11-H ) :   0.9572
B(  9-C , 12-C ) :   1.0666 B( 12-C , 13-H ) :   0.9733 B( 12-C , 14-H ) :   0.9762
B( 12-C , 15-H ) :   0.9757 B( 16-S , 17-C ) :   1.1683 B( 16-S , 20-C ) :   1.1531
B( 17-C , 18-C ) :   1.5793 B( 17-C , 20-C ) :   0.1116 B( 17-C , 33-H ) :   0.9695
B( 18-C , 19-C ) :   1.2655 B( 18-C , 21-H ) :   0.9980 B( 19-C , 20-C ) :   1.5669
B( 19-C , 22-C ) :   1.0526 B( 22-C , 23-H ) :   0.9314 B( 22-C , 24-H ) :   0.9365
B( 22-C , 25-C ) :   1.0684 B( 25-C , 26-H ) :   0.9598 B( 25-C , 27-H ) :   0.9555
B( 25-C , 28-C ) :   1.0646 B( 28-C , 29-H ) :   0.9737 B( 28-C , 30-H ) :   0.9730
B( 28-C , 31-H ) :   0.9765

Dispersion correction           -0.015095765
FINAL SINGLE POINT ENERGY     -1339.857195951664

DIPOLE MOMENT
-------------
                                X             Y             Z
Electronic contribution:     10.64887       8.46854     -25.82069
Nuclear contribution   :    -10.92411      -8.60972      26.44976
                        -----------------------------------------
Total Dipole Moment    :     -0.27524      -0.14119       0.62907
                        -----------------------------------------
Magnitude (a.u.)       :      0.70102
Magnitude (Debye)      :      1.78184

Rotational constants in cm-1:     0.017849     0.010112     0.007272
Rotational constants in MHz :   535.102062   303.135271   218.001565

                             ****ORCA TERMINATED NORMALLY****
TOTAL RUN TIME: 0 days 0 hours 0 minutes 22 seconds 523 msec
