                         Program Version 4.2.1 -  RELEASE  -
|  1> ! wB97X-D3 SP def2-SVP
|  2> %pal
|  3> nprocs 24
|  4> end
|  5>
|  6> * xyz 0 1
|  7> S 	 -116.197 	 44.4874 	 -112.969
|  8> C 	 -117.179 	 43.2938 	 -113.877
|  9> C 	 -116.673 	 43.0986 	 -115.14
| 10> C 	 -115.495 	 43.9233 	 -115.383
| 11> C 	 -115.071 	 44.6602 	 -114.269
| 12> H 	 -114.981 	 43.9932 	 -116.383
| 13> C 	 -117.105 	 42.2096 	 -116.24
| 14> H 	 -117.389 	 41.2567 	 -115.858
| 15> H 	 -116.315 	 42.1335 	 -116.985
| 16> C 	 -118.251 	 42.6257 	 -117.14
| 17> H 	 -119.12 	 42.6811 	 -116.467
| 18> H 	 -118.026 	 43.6943 	 -117.372
| 19> C 	 -118.637 	 41.8374 	 -118.404
| 20> H 	 -119.617 	 42.121 	 -118.698
| 21> H 	 -118.117 	 41.9425 	 -119.327
| 22> H 	 -118.776 	 40.7891 	 -118.19
| 23> S 	 -113.957 	 47.0807 	 -115.002
| 24> C 	 -112.393 	 47.5336 	 -114.339
| 25> C 	 -111.778 	 46.4561 	 -113.813
| 26> C 	 -112.561 	 45.2738 	 -113.774
| 27> C 	 -113.854 	 45.5236 	 -114.224
| 28> H 	 -110.731 	 46.4964 	 -113.465
| 29> C 	 -112.07 	 44.0274 	 -113.11
| 30> H 	 -112.979 	 43.4619 	 -112.954
| 31> H 	 -111.542 	 44.2966 	 -112.193
| 32> C 	 -111.044 	 43.174 	 -113.914
| 33> H 	 -110.817 	 42.2451 	 -113.307
| 34> H 	 -110.134 	 43.7379 	 -113.98
| 35> C 	 -111.499 	 42.7028 	 -115.253
| 36> H 	 -111.756 	 43.5253 	 -115.918
| 37> H 	 -112.257 	 41.9812 	 -115.328
| 38> H 	 -110.702 	 42.1076 	 -115.636
| 39> H 	 -118.039 	 42.7826 	 -113.408
| 40> H 	 -111.866 	 48.4255 	 -114.699
| 41> *
| 42>
| 43>                          ****END OF INPUT****

CARTESIAN COORDINATES (ANGSTROEM)
---------------------------------
  S    -116.197000   44.487400  -112.969000
  C    -117.179000   43.293800  -113.877000
  C    -116.673000   43.098600  -115.140000
  C    -115.495000   43.923300  -115.383000
  C    -115.071000   44.660200  -114.269000
  H    -114.981000   43.993200  -116.383000
  C    -117.105000   42.209600  -116.240000
  H    -117.389000   41.256700  -115.858000
  H    -116.315000   42.133500  -116.985000
  C    -118.251000   42.625700  -117.140000
  H    -119.120000   42.681100  -116.467000
  H    -118.026000   43.694300  -117.372000
  C    -118.637000   41.837400  -118.404000
  H    -119.617000   42.121000  -118.698000
  H    -118.117000   41.942500  -119.327000
  H    -118.776000   40.789100  -118.190000
  S    -113.957000   47.080700  -115.002000
  C    -112.393000   47.533600  -114.339000
  C    -111.778000   46.456100  -113.813000
  C    -112.561000   45.273800  -113.774000
  C    -113.854000   45.523600  -114.224000
  H    -110.731000   46.496400  -113.465000
  C    -112.070000   44.027400  -113.110000
  H    -112.979000   43.461900  -112.954000
  H    -111.542000   44.296600  -112.193000
  C    -111.044000   43.174000  -113.914000
  H    -110.817000   42.245100  -113.307000
  H    -110.134000   43.737900  -113.980000
  C    -111.499000   42.702800  -115.253000
  H    -111.756000   43.525300  -115.918000
  H    -112.257000   41.981200  -115.328000
  H    -110.702000   42.107600  -115.636000
  H    -118.039000   42.782600  -113.408000
  H    -111.866000   48.425500  -114.699000

 Total Charge           Charge          ....    0
 Multiplicity           Mult            ....    1
 Number of Electrons    NEL             ....  134
 Basis Dimension        Dim             ....  322

ORBITAL ENERGIES
----------------

  NO   OCC          E(Eh)            E(eV)
   0   2.0000     -88.968211     -2420.9481
   1   2.0000     -88.961928     -2420.7771
   2   2.0000     -10.332657      -281.1659
   3   2.0000     -10.327925      -281.0371
   4   2.0000     -10.322376      -280.8861
   5   2.0000     -10.313956      -280.6570
   6   2.0000     -10.304619      -280.4029
   7   2.0000     -10.300939      -280.3028
   8   2.0000     -10.299648      -280.2677
   9   2.0000     -10.290563      -280.0205
  10   2.0000     -10.288801      -279.9725
  11   2.0000     -10.286418      -279.9077
  12   2.0000     -10.285513      -279.8830
  13   2.0000     -10.285174      -279.8738
  14   2.0000     -10.276156      -279.6284
  15   2.0000     -10.262935      -279.2687
  16   2.0000      -8.082419      -219.9338
  17   2.0000      -8.076994      -219.7862
  18   2.0000      -6.041024      -164.3846
  19   2.0000      -6.036878      -164.2718
  20   2.0000      -6.035448      -164.2329
  21   2.0000      -6.033218      -164.1722
  22   2.0000      -6.031578      -164.1276
  23   2.0000      -6.027663      -164.0210
  24   2.0000      -1.005231       -27.3537
  25   2.0000      -0.984381       -26.7864
  26   2.0000      -0.916264       -24.9328
  27   2.0000      -0.909535       -24.7497
  28   2.0000      -0.867608       -23.6088
  29   2.0000      -0.852022       -23.1847
  30   2.0000      -0.847504       -23.0618
  31   2.0000      -0.811689       -22.0872
  32   2.0000      -0.790863       -21.5205
  33   2.0000      -0.777588       -21.1592
  34   2.0000      -0.703210       -19.1353
  35   2.0000      -0.701343       -19.0845
  36   2.0000      -0.691851       -18.8262
  37   2.0000      -0.656743       -17.8709
  38   2.0000      -0.639323       -17.3969
  39   2.0000      -0.616130       -16.7658
  40   2.0000      -0.593674       -16.1547
  41   2.0000      -0.572166       -15.5694
  42   2.0000      -0.563825       -15.3425
  43   2.0000      -0.551706       -15.0127
  44   2.0000      -0.548206       -14.9175
  45   2.0000      -0.524847       -14.2818
  46   2.0000      -0.516652       -14.0588
  47   2.0000      -0.513027       -13.9602
  48   2.0000      -0.505440       -13.7537
  49   2.0000      -0.495465       -13.4823
  50   2.0000      -0.490899       -13.3580
  51   2.0000      -0.481907       -13.1134
  52   2.0000      -0.473229       -12.8772
  53   2.0000      -0.468407       -12.7460
  54   2.0000      -0.458197       -12.4682
  55   2.0000      -0.454948       -12.3798
  56   2.0000      -0.442204       -12.0330
  57   2.0000      -0.438060       -11.9202
  58   2.0000      -0.430014       -11.7013
  59   2.0000      -0.418808       -11.3963
  60   2.0000      -0.417071       -11.3491
  61   2.0000      -0.412264       -11.2183
  62   2.0000      -0.410748       -11.1770
  63   2.0000      -0.333863        -9.0849
  64   2.0000      -0.327815        -8.9203
  65   2.0000      -0.322598        -8.7783
  66   2.0000      -0.311661        -8.4807
  67   0.0000       0.043812         1.1922
  68   0.0000       0.052425         1.4266
  69   0.0000       0.111016         3.0209
  70   0.0000       0.116094         3.1591
  71   0.0000       0.125802         3.4233

MULLIKEN ATOMIC CHARGES
-----------------------
   0 S :    0.115730
   1 C :   -0.153885
   2 C :   -0.056454
   3 C :    0.007242
   4 C :   -0.167621
   5 H :    0.038739
   6 C :    0.100385
   7 H :    0.013682
   8 H :    0.014530
   9 C :   -0.106073
  10 H :    0.019345
  11 H :    0.024724
  12 C :    0.003048
  13 H :    0.015563
  14 H :    0.030918
  15 H :    0.020201
  16 S :    0.101633
  17 C :   -0.086256
  18 C :   -0.048269
  19 C :   -0.016386
  20 C :   -0.196639
  21 H :    0.027068
  22 C :    0.093660
  23 H :    0.022689
  24 H :    0.030274
  25 C :   -0.088843
  26 H :    0.036200
  27 H :    0.021884
  28 C :   -0.013838
  29 H :    0.039625
  30 H :    0.013798
  31 H :    0.014506
  32 H :    0.062528
  33 H :    0.066290
Sum of atomic charges:    0.0000000

LOEWDIN ATOMIC CHARGES
----------------------
   0 S :    0.404827
   1 C :   -0.187554
   2 C :   -0.062175
   3 C :   -0.065194
   4 C :   -0.210561
   5 H :    0.040184
   6 C :   -0.035132
   7 H :    0.025140
   8 H :    0.030678
   9 C :   -0.042977
  10 H :    0.021281
  11 H :    0.025852
  12 C :   -0.065474
  13 H :    0.029421
  14 H :    0.023954
  15 H :    0.025734
  16 S :    0.402000
  17 C :   -0.185445
  18 C :   -0.074626
  19 C :   -0.057475
  20 C :   -0.201512
  21 H :    0.035681
  22 C :   -0.029747
  23 H :    0.029725
  24 H :    0.033762
  25 C :   -0.037333
  26 H :    0.032865
  27 H :    0.018638
  28 C :   -0.066627
  29 H :    0.026568
  30 H :    0.019795
  31 H :    0.026948
  32 H :    0.035042
  33 H :    0.033735

  Mayer bond orders larger than 0.100000
B(  0-S ,  1-C ) :   1.1291 B(  0-S ,  4-C ) :   1.1579 B(  1-C ,  2-C ) :   1.6085
B(  1-C , 32-H ) :   0.9697 B(  2-C ,  3-C ) :   1.2302 B(  2-C ,  6-C ) :   1.0423
B(  3-C ,  4-C ) :   1.5900 B(  3-C ,  5-H ) :   0.9812 B(  4-C , 20-C ) :   0.9916
B(  6-C ,  7-H ) :   0.9285 B(  6-C ,  8-H ) :   0.9370 B(  6-C ,  9-C ) :   1.0661
B(  9-C , 10-H ) :   0.9564 B(  9-C , 11-H ) :   0.9535 B(  9-C , 12-C ) :   1.0785
B( 12-C , 13-H ) :   0.9668 B( 12-C , 14-H ) :   0.9758 B( 12-C , 15-H ) :   0.9707
B( 16-S , 17-C ) :   1.1408 B( 16-S , 20-C ) :   1.1595 B( 17-C , 18-C ) :   1.6240
B( 17-C , 33-H ) :   0.9614 B( 18-C , 19-C ) :   1.2391 B( 18-C , 21-H ) :   0.9823
B( 19-C , 20-C ) :   1.5846 B( 19-C , 22-C ) :   1.0469 B( 22-C , 23-H ) :   0.9270
B( 22-C , 24-H ) :   0.9384 B( 22-C , 25-C ) :   1.0744 B( 25-C , 26-H ) :   0.9543
B( 25-C , 27-H ) :   0.9556 B( 25-C , 28-C ) :   1.0890 B( 28-C , 29-H ) :   0.9712
B( 28-C , 30-H ) :   0.9706 B( 28-C , 31-H ) :   0.9648

Dispersion correction           -0.014480465
FINAL SINGLE POINT ENERGY     -1339.872220829177

DIPOLE MOMENT
-------------
                                X             Y             Z
Electronic contribution:     -0.94029      20.03829      13.83820
Nuclear contribution   :      1.12857     -20.53745     -14.18502
                        -----------------------------------------
Total Dipole Moment    :      0.18828      -0.49915      -0.34682
                        -----------------------------------------
Magnitude (a.u.)       :      0.63630
Magnitude (Debye)      :      1.61736

Rotational constants in cm-1:     0.020043     0.007556     0.006985
Rotational constants in MHz :   600.882097   226.518144   209.419146

                             ****ORCA TERMINATED NORMALLY****
TOTAL RUN TIME: 0 days 0 hours 0 minutes 21 seconds 423 msec
