                         Program Version 4.2.1 -  RELEASE  -
|  1> ! wB97X-D3 SP def2-SVP
|  2> %pal
|  3> nprocs 24
|  4> end
|  5>
|  6> * xyz 0 1
|  7> S 	 -68.3427 	 7.47683 	 -75.8392
|  8> C 	 -67.3591 	 8.3996 	 -74.6799
|  9> C 	 -68.121 	 9.12789 	 -73.7704
| 10> C 	 -69.4976 	 8.71035 	 -73.8616
| 11> C 	 -69.7519 	 7.83145 	 -74.8647
| 12> H 	 -70.3125 	 9.08481 	 -73.1997
| 13> C 	 -67.7355 	 10.2374 	 -72.8306
| 14> H 	 -68.1619 	 11.2297 	 -73.2506
| 15> H 	 -66.6449 	 10.2274 	 -72.8251
| 16> C 	 -68.2571 	 10.0564 	 -71.3415
| 17> H 	 -68.0051 	 10.9975 	 -70.8739
| 18> H 	 -69.3187 	 9.88373 	 -71.4561
| 19> C 	 -67.758 	 8.85752 	 -70.5481
| 20> H 	 -68.4757 	 8.71748 	 -69.7626
| 21> H 	 -67.6815 	 7.91204 	 -71.1315
| 22> H 	 -66.8354 	 9.07648 	 -70.0359
| 23> S 	 -71.2756 	 7.70717 	 -77.0821
| 24> C 	 -72.9977 	 7.62422 	 -76.9469
| 25> C 	 -73.3528 	 7.31481 	 -75.6735
| 26> C 	 -72.3183 	 7.30114 	 -74.6855
| 27> C 	 -71.0794 	 7.43896 	 -75.3429
| 28> H 	 -74.4007 	 7.11897 	 -75.4319
| 29> C 	 -72.4699 	 7.23835 	 -73.2163
| 30> H 	 -71.5237 	 6.95724 	 -72.7508
| 31> H 	 -73.1182 	 6.37614 	 -72.9543
| 32> C 	 -73.2248 	 8.40989 	 -72.6063
| 33> H 	 -74.1865 	 8.28449 	 -73.0361
| 34> H 	 -72.8239 	 9.39322 	 -72.8765
| 35> C 	 -73.2875 	 8.43968 	 -71.1477
| 36> H 	 -73.3423 	 7.43132 	 -70.7165
| 37> H 	 -73.9386 	 9.07041 	 -70.6448
| 38> H 	 -72.2505 	 8.6428 	 -70.8786
| 39> H 	 -66.2791 	 8.47297 	 -74.7462
| 40> H 	 -73.7099 	 7.72268 	 -77.7382
| 41> *
| 42>
| 43>                          ****END OF INPUT****

CARTESIAN COORDINATES (ANGSTROEM)
---------------------------------
  S    -68.342700    7.476830  -75.839200
  C    -67.359100    8.399600  -74.679900
  C    -68.121000    9.127890  -73.770400
  C    -69.497600    8.710350  -73.861600
  C    -69.751900    7.831450  -74.864700
  H    -70.312500    9.084810  -73.199700
  C    -67.735500   10.237400  -72.830600
  H    -68.161900   11.229700  -73.250600
  H    -66.644900   10.227400  -72.825100
  C    -68.257100   10.056400  -71.341500
  H    -68.005100   10.997500  -70.873900
  H    -69.318700    9.883730  -71.456100
  C    -67.758000    8.857520  -70.548100
  H    -68.475700    8.717480  -69.762600
  H    -67.681500    7.912040  -71.131500
  H    -66.835400    9.076480  -70.035900
  S    -71.275600    7.707170  -77.082100
  C    -72.997700    7.624220  -76.946900
  C    -73.352800    7.314810  -75.673500
  C    -72.318300    7.301140  -74.685500
  C    -71.079400    7.438960  -75.342900
  H    -74.400700    7.118970  -75.431900
  C    -72.469900    7.238350  -73.216300
  H    -71.523700    6.957240  -72.750800
  H    -73.118200    6.376140  -72.954300
  C    -73.224800    8.409890  -72.606300
  H    -74.186500    8.284490  -73.036100
  H    -72.823900    9.393220  -72.876500
  C    -73.287500    8.439680  -71.147700
  H    -73.342300    7.431320  -70.716500
  H    -73.938600    9.070410  -70.644800
  H    -72.250500    8.642800  -70.878600
  H    -66.279100    8.472970  -74.746200
  H    -73.709900    7.722680  -77.738200

 Total Charge           Charge          ....    0
 Multiplicity           Mult            ....    1
 Number of Electrons    NEL             ....  134
 Basis Dimension        Dim             ....  322

ORBITAL ENERGIES
----------------

  NO   OCC          E(Eh)            E(eV)
   0   2.0000     -88.966491     -2420.9013
   1   2.0000     -88.963356     -2420.8160
   2   2.0000     -10.327318      -281.0206
   3   2.0000     -10.326746      -281.0050
   4   2.0000     -10.316791      -280.7341
   5   2.0000     -10.312669      -280.6220
   6   2.0000     -10.304608      -280.4026
   7   2.0000     -10.302728      -280.3515
   8   2.0000     -10.302381      -280.3420
   9   2.0000     -10.294337      -280.1231
  10   2.0000     -10.292381      -280.0699
  11   2.0000     -10.292240      -280.0661
  12   2.0000     -10.290008      -280.0053
  13   2.0000     -10.282166      -279.7919
  14   2.0000     -10.276514      -279.6382
  15   2.0000     -10.271460      -279.5006
  16   2.0000      -8.080959      -219.8941
  17   2.0000      -8.078382      -219.8239
  18   2.0000      -6.039581      -164.3454
  19   2.0000      -6.036916      -164.2728
  20   2.0000      -6.035763      -164.2415
  21   2.0000      -6.032896      -164.1634
  22   2.0000      -6.031357      -164.1216
  23   2.0000      -6.029026      -164.0581
  24   2.0000      -1.007941       -27.4275
  25   2.0000      -0.982792       -26.7431
  26   2.0000      -0.926129       -25.2013
  27   2.0000      -0.909337       -24.7443
  28   2.0000      -0.869474       -23.6596
  29   2.0000      -0.862283       -23.4639
  30   2.0000      -0.844933       -22.9918
  31   2.0000      -0.815114       -22.1804
  32   2.0000      -0.786473       -21.4010
  33   2.0000      -0.774728       -21.0814
  34   2.0000      -0.708702       -19.2848
  35   2.0000      -0.701691       -19.0940
  36   2.0000      -0.693615       -18.8742
  37   2.0000      -0.657411       -17.8891
  38   2.0000      -0.634612       -17.2687
  39   2.0000      -0.623847       -16.9757
  40   2.0000      -0.604098       -16.4383
  41   2.0000      -0.577852       -15.7242
  42   2.0000      -0.564076       -15.3493
  43   2.0000      -0.546020       -14.8580
  44   2.0000      -0.542020       -14.7491
  45   2.0000      -0.539212       -14.6727
  46   2.0000      -0.525715       -14.3054
  47   2.0000      -0.518181       -14.1004
  48   2.0000      -0.504629       -13.7317
  49   2.0000      -0.493586       -13.4312
  50   2.0000      -0.491987       -13.3877
  51   2.0000      -0.483361       -13.1529
  52   2.0000      -0.472405       -12.8548
  53   2.0000      -0.464801       -12.6479
  54   2.0000      -0.458030       -12.4636
  55   2.0000      -0.454095       -12.3566
  56   2.0000      -0.444235       -12.0882
  57   2.0000      -0.439372       -11.9559
  58   2.0000      -0.434937       -11.8352
  59   2.0000      -0.428275       -11.6540
  60   2.0000      -0.422416       -11.4945
  61   2.0000      -0.412633       -11.2283
  62   2.0000      -0.410952       -11.1826
  63   2.0000      -0.354131        -9.6364
  64   2.0000      -0.332676        -9.0526
  65   2.0000      -0.326030        -8.8717
  66   2.0000      -0.284589        -7.7441
  67   0.0000       0.029077         0.7912
  68   0.0000       0.069194         1.8829
  69   0.0000       0.104026         2.8307
  70   0.0000       0.113581         3.0907
  71   0.0000       0.120977         3.2919

MULLIKEN ATOMIC CHARGES
-----------------------
   0 S :    0.098698
   1 C :   -0.122535
   2 C :   -0.086350
   3 C :   -0.020178
   4 C :   -0.114886
   5 H :    0.019494
   6 C :    0.049575
   7 H :    0.065086
   8 H :    0.016796
   9 C :   -0.090429
  10 H :    0.036351
  11 H :    0.025827
  12 C :   -0.039737
  13 H :    0.025545
  14 H :    0.052630
  15 H :    0.028051
  16 S :    0.087961
  17 C :   -0.072765
  18 C :   -0.039463
  19 C :   -0.037326
  20 C :   -0.123318
  21 H :    0.017110
  22 C :    0.034007
  23 H :    0.026514
  24 H :    0.025390
  25 C :   -0.067856
  26 H :    0.015326
  27 H :    0.030924
  28 C :    0.023374
  29 H :    0.007532
  30 H :    0.032961
  31 H :    0.003245
  32 H :    0.043519
  33 H :    0.048926
Sum of atomic charges:   -0.0000000

LOEWDIN ATOMIC CHARGES
----------------------
   0 S :    0.385499
   1 C :   -0.189282
   2 C :   -0.063124
   3 C :   -0.071711
   4 C :   -0.189769
   5 H :    0.035345
   6 C :   -0.034772
   7 H :    0.049033
   8 H :    0.025990
   9 C :   -0.038214
  10 H :    0.026169
  11 H :    0.018351
  12 C :   -0.066348
  13 H :    0.026064
  14 H :    0.034552
  15 H :    0.022796
  16 S :    0.401100
  17 C :   -0.188043
  18 C :   -0.072385
  19 C :   -0.055493
  20 C :   -0.183211
  21 H :    0.029844
  22 C :   -0.036165
  23 H :    0.028933
  24 H :    0.038486
  25 C :   -0.039675
  26 H :    0.018025
  27 H :    0.023170
  28 C :   -0.059487
  29 H :    0.025001
  30 H :    0.019170
  31 H :    0.026706
  32 H :    0.024683
  33 H :    0.028761

  Mayer bond orders larger than 0.100000
B(  0-S ,  1-C ) :   1.1177 B(  0-S ,  4-C ) :   1.1329 B(  1-C ,  2-C ) :   1.6368
B(  1-C , 32-H ) :   0.9655 B(  2-C ,  3-C ) :   1.2057 B(  2-C ,  6-C ) :   1.0269
B(  3-C ,  4-C ) :   1.6130 B(  3-C ,  5-H ) :   0.9781 B(  4-C , 20-C ) :   1.0206
B(  6-C ,  7-H ) :   0.9378 B(  6-C ,  8-H ) :   0.9383 B(  6-C ,  9-C ) :   1.0600
B(  9-C , 10-H ) :   0.9564 B(  9-C , 11-H ) :   0.9614 B(  9-C , 12-C ) :   1.0782
B( 12-C , 13-H ) :   0.9730 B( 12-C , 14-H ) :   0.9725 B( 12-C , 15-H ) :   0.9750
B( 16-S , 17-C ) :   1.1466 B( 16-S , 20-C ) :   1.1419 B( 17-C , 18-C ) :   1.6212
B( 17-C , 33-H ) :   0.9696 B( 18-C , 19-C ) :   1.2320 B( 18-C , 21-H ) :   0.9858
B( 19-C , 20-C ) :   1.5958 B( 19-C , 22-C ) :   1.0657 B( 22-C , 23-H ) :   0.9386
B( 22-C , 24-H ) :   0.9185 B( 22-C , 25-C ) :   1.0467 B( 25-C , 26-H ) :   0.9483
B( 25-C , 27-H ) :   0.9570 B( 25-C , 28-C ) :   1.0940 B( 28-C , 29-H ) :   0.9611
B( 28-C , 30-H ) :   0.9733 B( 28-C , 31-H ) :   0.9654

Dispersion correction           -0.014804947
FINAL SINGLE POINT ENERGY     -1339.870393394758

DIPOLE MOMENT
-------------
                                X             Y             Z
Electronic contribution:      4.28867      -8.32699     -30.57357
Nuclear contribution   :     -4.59578       8.72267      31.22920
                        -----------------------------------------
Total Dipole Moment    :     -0.30711       0.39568       0.65563
                        -----------------------------------------
Magnitude (a.u.)       :      0.82506
Magnitude (Debye)      :      2.09714

Rotational constants in cm-1:     0.016573     0.010901     0.007058
Rotational constants in MHz :   496.850949   326.799943   211.606852

                             ****ORCA TERMINATED NORMALLY****
TOTAL RUN TIME: 0 days 0 hours 0 minutes 22 seconds 657 msec
