                         Program Version 4.2.1 -  RELEASE  -
|  1> ! wB97X-D3 SP def2-SVP
|  2> %pal
|  3> nprocs 24
|  4> end
|  5>
|  6> * xyz 0 1
|  7> S 	 -84.2249 	 -34.9365 	 -78.438
|  8> C 	 -83.9784 	 -35.1913 	 -80.1433
|  9> C 	 -84.6075 	 -34.1526 	 -80.823
| 10> C 	 -85.4743 	 -33.3723 	 -80.0873
| 11> C 	 -85.4252 	 -33.6272 	 -78.7359
| 12> H 	 -86.1719 	 -32.6463 	 -80.4731
| 13> C 	 -84.465 	 -33.9478 	 -82.3449
| 14> H 	 -85.0437 	 -34.8038 	 -82.7141
| 15> H 	 -83.3713 	 -34.0231 	 -82.5586
| 16> C 	 -85.053 	 -32.6237 	 -82.9423
| 17> H 	 -85.069 	 -32.699 	 -84.0588
| 18> H 	 -86.0659 	 -32.4 	 -82.5527
| 19> C 	 -84.091 	 -31.4008 	 -82.8747
| 20> H 	 -83.8699 	 -31.2172 	 -81.7992
| 21> H 	 -83.042 	 -31.5167 	 -83.3072
| 22> H 	 -84.5337 	 -30.5079 	 -83.3753
| 23> S 	 -86.9909 	 -34.3233 	 -76.6624
| 24> C 	 -87.8932 	 -33.1077 	 -75.6896
| 25> C 	 -87.7236 	 -31.8796 	 -76.2948
| 26> C 	 -86.9374 	 -31.8942 	 -77.4616
| 27> C 	 -86.3321 	 -33.1116 	 -77.6871
| 28> H 	 -88.2155 	 -31.0713 	 -75.8192
| 29> C 	 -86.6995 	 -30.5755 	 -78.2374
| 30> H 	 -87.6699 	 -30.055 	 -78.2997
| 31> H 	 -86.3681 	 -30.6833 	 -79.2992
| 32> C 	 -85.5918 	 -29.5665 	 -77.7171
| 33> H 	 -84.6576 	 -30.159 	 -77.7338
| 34> H 	 -85.7558 	 -29.3362 	 -76.6905
| 35> C 	 -85.5623 	 -28.3511 	 -78.4587
| 36> H 	 -85.2387 	 -28.4117 	 -79.4947
| 37> H 	 -84.779 	 -27.7537 	 -78.0953
| 38> H 	 -86.5629 	 -28.0094 	 -78.3782
| 39> H 	 -83.2597 	 -35.9694 	 -80.5323
| 40> H 	 -88.5377 	 -33.2714 	 -74.8222
| 41> *
| 42>
| 43>                          ****END OF INPUT****

CARTESIAN COORDINATES (ANGSTROEM)
---------------------------------
  S    -84.224900  -34.936500  -78.438000
  C    -83.978400  -35.191300  -80.143300
  C    -84.607500  -34.152600  -80.823000
  C    -85.474300  -33.372300  -80.087300
  C    -85.425200  -33.627200  -78.735900
  H    -86.171900  -32.646300  -80.473100
  C    -84.465000  -33.947800  -82.344900
  H    -85.043700  -34.803800  -82.714100
  H    -83.371300  -34.023100  -82.558600
  C    -85.053000  -32.623700  -82.942300
  H    -85.069000  -32.699000  -84.058800
  H    -86.065900  -32.400000  -82.552700
  C    -84.091000  -31.400800  -82.874700
  H    -83.869900  -31.217200  -81.799200
  H    -83.042000  -31.516700  -83.307200
  H    -84.533700  -30.507900  -83.375300
  S    -86.990900  -34.323300  -76.662400
  C    -87.893200  -33.107700  -75.689600
  C    -87.723600  -31.879600  -76.294800
  C    -86.937400  -31.894200  -77.461600
  C    -86.332100  -33.111600  -77.687100
  H    -88.215500  -31.071300  -75.819200
  C    -86.699500  -30.575500  -78.237400
  H    -87.669900  -30.055000  -78.299700
  H    -86.368100  -30.683300  -79.299200
  C    -85.591800  -29.566500  -77.717100
  H    -84.657600  -30.159000  -77.733800
  H    -85.755800  -29.336200  -76.690500
  C    -85.562300  -28.351100  -78.458700
  H    -85.238700  -28.411700  -79.494700
  H    -84.779000  -27.753700  -78.095300
  H    -86.562900  -28.009400  -78.378200
  H    -83.259700  -35.969400  -80.532300
  H    -88.537700  -33.271400  -74.822200

 Total Charge           Charge          ....    0
 Multiplicity           Mult            ....    1
 Number of Electrons    NEL             ....  134
 Basis Dimension        Dim             ....  322

ORBITAL ENERGIES
----------------

  NO   OCC          E(Eh)            E(eV)
   0   2.0000     -88.966933     -2420.9133
   1   2.0000     -88.963844     -2420.8293
   2   2.0000     -10.334589      -281.2185
   3   2.0000     -10.328311      -281.0476
   4   2.0000     -10.318926      -280.7923
   5   2.0000     -10.318522      -280.7813
   6   2.0000     -10.304239      -280.3926
   7   2.0000     -10.299512      -280.2640
   8   2.0000     -10.299459      -280.2625
   9   2.0000     -10.298566      -280.2382
  10   2.0000     -10.297326      -280.2045
  11   2.0000     -10.290451      -280.0174
  12   2.0000     -10.289646      -279.9955
  13   2.0000     -10.289412      -279.9891
  14   2.0000     -10.276943      -279.6498
  15   2.0000     -10.264063      -279.2993
  16   2.0000      -8.080838      -219.8908
  17   2.0000      -8.078347      -219.8230
  18   2.0000      -6.039328      -164.3385
  19   2.0000      -6.036874      -164.2717
  20   2.0000      -6.035410      -164.2318
  21   2.0000      -6.032812      -164.1612
  22   2.0000      -6.031690      -164.1306
  23   2.0000      -6.029127      -164.0609
  24   2.0000      -1.007799       -27.4236
  25   2.0000      -0.986194       -26.8357
  26   2.0000      -0.915595       -24.9146
  27   2.0000      -0.903149       -24.5759
  28   2.0000      -0.870143       -23.6778
  29   2.0000      -0.856832       -23.3156
  30   2.0000      -0.844934       -22.9918
  31   2.0000      -0.818761       -22.2796
  32   2.0000      -0.776740       -21.1362
  33   2.0000      -0.766701       -20.8630
  34   2.0000      -0.708246       -19.2724
  35   2.0000      -0.692418       -18.8417
  36   2.0000      -0.688356       -18.7311
  37   2.0000      -0.662726       -18.0337
  38   2.0000      -0.637350       -17.3432
  39   2.0000      -0.627566       -17.0769
  40   2.0000      -0.596952       -16.2439
  41   2.0000      -0.578544       -15.7430
  42   2.0000      -0.563829       -15.3426
  43   2.0000      -0.552495       -15.0342
  44   2.0000      -0.534021       -14.5315
  45   2.0000      -0.532092       -14.4790
  46   2.0000      -0.524747       -14.2791
  47   2.0000      -0.511848       -13.9281
  48   2.0000      -0.504959       -13.7406
  49   2.0000      -0.498531       -13.5657
  50   2.0000      -0.490188       -13.3387
  51   2.0000      -0.486474       -13.2376
  52   2.0000      -0.470378       -12.7996
  53   2.0000      -0.466361       -12.6903
  54   2.0000      -0.451896       -12.2967
  55   2.0000      -0.449030       -12.2187
  56   2.0000      -0.445342       -12.1184
  57   2.0000      -0.433727       -11.8023
  58   2.0000      -0.427915       -11.6442
  59   2.0000      -0.423034       -11.5113
  60   2.0000      -0.419823       -11.4240
  61   2.0000      -0.409533       -11.1440
  62   2.0000      -0.400993       -10.9116
  63   2.0000      -0.354629        -9.6500
  64   2.0000      -0.331010        -9.0072
  65   2.0000      -0.327379        -8.9084
  66   2.0000      -0.287545        -7.8245
  67   0.0000       0.021563         0.5868
  68   0.0000       0.075449         2.0531
  69   0.0000       0.110477         3.0062
  70   0.0000       0.115406         3.1404
  71   0.0000       0.131156         3.5689

MULLIKEN ATOMIC CHARGES
-----------------------
   0 S :    0.107667
   1 C :   -0.162848
   2 C :   -0.090481
   3 C :    0.025159
   4 C :   -0.133637
   5 H :    0.013845
   6 C :    0.054053
   7 H :    0.053621
   8 H :    0.042018
   9 C :   -0.097645
  10 H :    0.040951
  11 H :    0.047263
  12 C :   -0.102533
  13 H :    0.033271
  14 H :    0.043039
  15 H :    0.049131
  16 S :    0.099353
  17 C :   -0.104953
  18 C :   -0.029686
  19 C :    0.006613
  20 C :   -0.141755
  21 H :    0.007065
  22 C :   -0.007243
  23 H :    0.023408
  24 H :    0.018649
  25 C :   -0.057484
  26 H :    0.029013
  27 H :    0.012690
  28 C :    0.017458
  29 H :    0.019246
  30 H :    0.021521
  31 H :    0.022792
  32 H :    0.078074
  33 H :    0.062368
Sum of atomic charges:    0.0000000

LOEWDIN ATOMIC CHARGES
----------------------
   0 S :    0.393296
   1 C :   -0.213990
   2 C :   -0.070387
   3 C :   -0.068768
   4 C :   -0.173816
   5 H :    0.031684
   6 C :   -0.033651
   7 H :    0.040118
   8 H :    0.036674
   9 C :   -0.051337
  10 H :    0.034145
  11 H :    0.026973
  12 C :   -0.081392
  13 H :    0.021799
  14 H :    0.032254
  15 H :    0.029948
  16 S :    0.405375
  17 C :   -0.178525
  18 C :   -0.064153
  19 C :   -0.067023
  20 C :   -0.198160
  21 H :    0.027813
  22 C :   -0.036070
  23 H :    0.026828
  24 H :    0.028608
  25 C :   -0.038333
  26 H :    0.026019
  27 H :    0.017094
  28 C :   -0.061362
  29 H :    0.025705
  30 H :    0.027421
  31 H :    0.026139
  32 H :    0.043860
  33 H :    0.035213

  Mayer bond orders larger than 0.100000
B(  0-S ,  1-C ) :   1.1416 B(  0-S ,  4-C ) :   1.1619 B(  1-C ,  2-C ) :   1.5748
B(  1-C ,  4-C ) :   0.1106 B(  1-C , 32-H ) :   0.9694 B(  2-C ,  3-C ) :   1.2867
B(  2-C ,  6-C ) :   0.9819 B(  3-C ,  4-C ) :   1.5490 B(  3-C ,  5-H ) :   0.9828
B(  4-C , 20-C ) :   1.0306 B(  6-C ,  7-H ) :   0.9403 B(  6-C ,  8-H ) :   0.9485
B(  6-C ,  9-C ) :   1.0814 B(  9-C , 10-H ) :   0.9565 B(  9-C , 11-H ) :   0.9488
B(  9-C , 12-C ) :   1.0643 B( 12-C , 13-H ) :   0.9771 B( 12-C , 14-H ) :   0.9734
B( 12-C , 15-H ) :   0.9757 B( 16-S , 17-C ) :   1.1344 B( 16-S , 20-C ) :   1.1618
B( 17-C , 18-C ) :   1.6148 B( 17-C , 20-C ) :   0.1026 B( 17-C , 33-H ) :   0.9684
B( 18-C , 19-C ) :   1.2376 B( 18-C , 21-H ) :   0.9968 B( 19-C , 20-C ) :   1.5824
B( 19-C , 22-C ) :   1.0396 B( 22-C , 23-H ) :   0.9367 B( 22-C , 24-H ) :   0.9424
B( 22-C , 25-C ) :   1.0577 B( 25-C , 26-H ) :   0.9499 B( 25-C , 27-H ) :   0.9512
B( 25-C , 28-C ) :   1.0980 B( 28-C , 29-H ) :   0.9656 B( 28-C , 30-H ) :   0.9611
B( 28-C , 31-H ) :   0.9693

Dispersion correction           -0.014093060
FINAL SINGLE POINT ENERGY     -1339.855339948704

DIPOLE MOMENT
-------------
                                X             Y             Z
Electronic contribution:     -3.51372     -24.82474      18.73984
Nuclear contribution   :      3.44468      25.34107     -19.17942
                        -----------------------------------------
Total Dipole Moment    :     -0.06904       0.51633      -0.43958
                        -----------------------------------------
Magnitude (a.u.)       :      0.68162
Magnitude (Debye)      :      1.73253

Rotational constants in cm-1:     0.015718     0.010392     0.006965
Rotational constants in MHz :   471.208611   311.546357   208.805624

                             ****ORCA TERMINATED NORMALLY****
TOTAL RUN TIME: 0 days 0 hours 0 minutes 20 seconds 769 msec
