                         Program Version 4.2.1 -  RELEASE  -
|  1> ! wB97X-D3 SP def2-SVP
|  2> %pal
|  3> nprocs 24
|  4> end
|  5>
|  6> * xyz 0 1
|  7> S 	 -119.712 	 61.3574 	 -37.3245
|  8> C 	 -120.185 	 59.8849 	 -36.4239
|  9> C 	 -119.937 	 59.9604 	 -35.0876
| 10> C 	 -119.426 	 61.2358 	 -34.7313
| 11> C 	 -119.398 	 62.1475 	 -35.749
| 12> H 	 -119.222 	 61.4753 	 -33.715
| 13> C 	 -120.223 	 58.8596 	 -34.1168
| 14> H 	 -119.34 	 58.57 	 -33.5827
| 15> H 	 -120.548 	 57.9262 	 -34.6311
| 16> C 	 -121.344 	 59.291 	 -33.089
| 17> H 	 -121.68 	 58.4216 	 -32.4797
| 18> H 	 -120.8 	 59.9317 	 -32.3677
| 19> C 	 -122.616 	 60.0637 	 -33.6052
| 20> H 	 -122.245 	 61.0067 	 -34.0468
| 21> H 	 -123.23 	 59.6053 	 -34.3089
| 22> H 	 -123.199 	 60.3997 	 -32.7215
| 23> S 	 -117.361 	 63.7135 	 -36.7785
| 24> C 	 -116.991 	 65.2547 	 -36.0769
| 25> C 	 -117.863 	 65.5084 	 -34.985
| 26> C 	 -118.761 	 64.4707 	 -34.6655
| 27> C 	 -118.682 	 63.4623 	 -35.6439
| 28> H 	 -117.885 	 66.5189 	 -34.5063
| 29> C 	 -119.755 	 64.5083 	 -33.5083
| 30> H 	 -120.319 	 63.6061 	 -33.3763
| 31> H 	 -120.507 	 65.1086 	 -33.7928
| 32> C 	 -119.114 	 64.9093 	 -32.106
| 33> H 	 -119.839 	 64.7042 	 -31.3061
| 34> H 	 -118.971 	 66.0184 	 -32.0232
| 35> C 	 -117.73 	 64.1847 	 -31.8857
| 36> H 	 -117.227 	 64.3668 	 -30.9204
| 37> H 	 -117.004 	 64.4595 	 -32.6485
| 38> H 	 -117.87 	 63.0416 	 -31.9253
| 39> H 	 -120.571 	 58.9956 	 -36.8518
| 40> H 	 -116.331 	 66.0116 	 -36.4886
| 41> *
| 42>
| 43>                          ****END OF INPUT****

CARTESIAN COORDINATES (ANGSTROEM)
---------------------------------
  S    -119.712000   61.357400  -37.324500
  C    -120.185000   59.884900  -36.423900
  C    -119.937000   59.960400  -35.087600
  C    -119.426000   61.235800  -34.731300
  C    -119.398000   62.147500  -35.749000
  H    -119.222000   61.475300  -33.715000
  C    -120.223000   58.859600  -34.116800
  H    -119.340000   58.570000  -33.582700
  H    -120.548000   57.926200  -34.631100
  C    -121.344000   59.291000  -33.089000
  H    -121.680000   58.421600  -32.479700
  H    -120.800000   59.931700  -32.367700
  C    -122.616000   60.063700  -33.605200
  H    -122.245000   61.006700  -34.046800
  H    -123.230000   59.605300  -34.308900
  H    -123.199000   60.399700  -32.721500
  S    -117.361000   63.713500  -36.778500
  C    -116.991000   65.254700  -36.076900
  C    -117.863000   65.508400  -34.985000
  C    -118.761000   64.470700  -34.665500
  C    -118.682000   63.462300  -35.643900
  H    -117.885000   66.518900  -34.506300
  C    -119.755000   64.508300  -33.508300
  H    -120.319000   63.606100  -33.376300
  H    -120.507000   65.108600  -33.792800
  C    -119.114000   64.909300  -32.106000
  H    -119.839000   64.704200  -31.306100
  H    -118.971000   66.018400  -32.023200
  C    -117.730000   64.184700  -31.885700
  H    -117.227000   64.366800  -30.920400
  H    -117.004000   64.459500  -32.648500
  H    -117.870000   63.041600  -31.925300
  H    -120.571000   58.995600  -36.851800
  H    -116.331000   66.011600  -36.488600

 Total Charge           Charge          ....    0
 Multiplicity           Mult            ....    1
 Number of Electrons    NEL             ....  134
 Basis Dimension        Dim             ....  322

ORBITAL ENERGIES
----------------

  NO   OCC          E(Eh)            E(eV)
   0   2.0000     -88.969086     -2420.9719
   1   2.0000     -88.968093     -2420.9449
   2   2.0000     -10.333747      -281.1956
   3   2.0000     -10.330479      -281.1066
   4   2.0000     -10.317903      -280.7644
   5   2.0000     -10.312156      -280.6080
   6   2.0000     -10.305217      -280.4192
   7   2.0000     -10.300875      -280.3011
   8   2.0000     -10.298316      -280.2314
   9   2.0000     -10.297708      -280.2149
  10   2.0000     -10.297155      -280.1998
  11   2.0000     -10.296889      -280.1926
  12   2.0000     -10.291125      -280.0357
  13   2.0000     -10.288278      -279.9583
  14   2.0000     -10.285776      -279.8902
  15   2.0000     -10.278458      -279.6911
  16   2.0000      -8.082560      -219.9376
  17   2.0000      -8.082473      -219.9353
  18   2.0000      -6.041160      -164.3883
  19   2.0000      -6.040972      -164.3832
  20   2.0000      -6.037418      -164.2865
  21   2.0000      -6.037021      -164.2757
  22   2.0000      -6.033515      -164.1803
  23   2.0000      -6.032904      -164.1637
  24   2.0000      -1.002897       -27.2902
  25   2.0000      -0.982073       -26.7236
  26   2.0000      -0.906023       -24.6541
  27   2.0000      -0.902556       -24.5598
  28   2.0000      -0.860273       -23.4092
  29   2.0000      -0.845021       -22.9942
  30   2.0000      -0.839054       -22.8318
  31   2.0000      -0.811924       -22.0936
  32   2.0000      -0.787872       -21.4391
  33   2.0000      -0.776582       -21.1319
  34   2.0000      -0.706863       -19.2347
  35   2.0000      -0.698204       -18.9991
  36   2.0000      -0.694977       -18.9113
  37   2.0000      -0.654949       -17.8221
  38   2.0000      -0.637462       -17.3462
  39   2.0000      -0.624509       -16.9937
  40   2.0000      -0.597814       -16.2673
  41   2.0000      -0.562804       -15.3147
  42   2.0000      -0.553271       -15.0553
  43   2.0000      -0.547662       -14.9026
  44   2.0000      -0.538067       -14.6415
  45   2.0000      -0.533840       -14.5265
  46   2.0000      -0.515212       -14.0196
  47   2.0000      -0.505890       -13.7660
  48   2.0000      -0.496405       -13.5079
  49   2.0000      -0.492294       -13.3960
  50   2.0000      -0.483163       -13.1475
  51   2.0000      -0.481543       -13.1035
  52   2.0000      -0.470077       -12.7914
  53   2.0000      -0.462515       -12.5857
  54   2.0000      -0.459480       -12.5031
  55   2.0000      -0.445963       -12.1353
  56   2.0000      -0.443417       -12.0660
  57   2.0000      -0.441543       -12.0150
  58   2.0000      -0.440126       -11.9764
  59   2.0000      -0.425092       -11.5673
  60   2.0000      -0.419674       -11.4199
  61   2.0000      -0.418144       -11.3783
  62   2.0000      -0.415068       -11.2946
  63   2.0000      -0.347508        -9.4562
  64   2.0000      -0.332504        -9.0479
  65   2.0000      -0.331483        -9.0201
  66   2.0000      -0.288697        -7.8558
  67   0.0000       0.027187         0.7398
  68   0.0000       0.069212         1.8834
  69   0.0000       0.103923         2.8279
  70   0.0000       0.122261         3.3269
  71   0.0000       0.125286         3.4092

MULLIKEN ATOMIC CHARGES
-----------------------
   0 S :    0.092474
   1 C :   -0.106362
   2 C :   -0.091275
   3 C :    0.043938
   4 C :   -0.127479
   5 H :   -0.002865
   6 C :    0.102079
   7 H :    0.033831
   8 H :    0.020641
   9 C :   -0.135324
  10 H :    0.038366
  11 H :    0.028064
  12 C :   -0.032463
  13 H :    0.037539
  14 H :    0.031266
  15 H :    0.037814
  16 S :    0.117746
  17 C :   -0.103423
  18 C :   -0.066476
  19 C :   -0.061403
  20 C :   -0.161802
  21 H :    0.035760
  22 C :    0.150934
  23 H :    0.005254
  24 H :    0.007471
  25 C :   -0.102579
  26 H :    0.036630
  27 H :    0.037140
  28 C :   -0.084113
  29 H :    0.038815
  30 H :    0.052569
  31 H :    0.038352
  32 H :    0.026345
  33 H :    0.062538
Sum of atomic charges:   -0.0000000

LOEWDIN ATOMIC CHARGES
----------------------
   0 S :    0.366736
   1 C :   -0.171713
   2 C :   -0.065027
   3 C :   -0.050890
   4 C :   -0.177838
   5 H :    0.023818
   6 C :   -0.029355
   7 H :    0.031842
   8 H :    0.031018
   9 C :   -0.043860
  10 H :    0.025246
  11 H :    0.022204
  12 C :   -0.064670
  13 H :    0.029633
  14 H :    0.015226
  15 H :    0.033408
  16 S :    0.416856
  17 C :   -0.205448
  18 C :   -0.074614
  19 C :   -0.059444
  20 C :   -0.190191
  21 H :    0.037382
  22 C :   -0.021334
  23 H :    0.029476
  24 H :    0.020567
  25 C :   -0.039554
  26 H :    0.026060
  27 H :    0.024732
  28 C :   -0.076846
  29 H :    0.026512
  30 H :    0.028442
  31 H :    0.030394
  32 H :    0.019787
  33 H :    0.031445

  Mayer bond orders larger than 0.100000
B(  0-S ,  1-C ) :   1.1160 B(  0-S ,  4-C ) :   1.1306 B(  1-C ,  2-C ) :   1.6438
B(  1-C , 32-H ) :   0.9641 B(  2-C ,  3-C ) :   1.2276 B(  2-C ,  6-C ) :   1.0334
B(  3-C ,  4-C ) :   1.5783 B(  3-C ,  5-H ) :   0.9937 B(  4-C , 20-C ) :   1.0221
B(  6-C ,  7-H ) :   0.9401 B(  6-C ,  8-H ) :   0.9415 B(  6-C ,  9-C ) :   1.0474
B(  9-C , 10-H ) :   0.9617 B(  9-C , 11-H ) :   0.9592 B(  9-C , 12-C ) :   1.0711
B( 12-C , 13-H ) :   0.9678 B( 12-C , 14-H ) :   0.9805 B( 12-C , 15-H ) :   0.9729
B( 16-S , 17-C ) :   1.1597 B( 16-S , 20-C ) :   1.1688 B( 17-C , 18-C ) :   1.5753
B( 17-C , 20-C ) :   0.1079 B( 17-C , 33-H ) :   0.9687 B( 18-C , 19-C ) :   1.2750
B( 18-C , 21-H ) :   0.9792 B( 19-C , 20-C ) :   1.5729 B( 19-C , 22-C ) :   1.0329
B( 22-C , 23-H ) :   0.9297 B( 22-C , 24-H ) :   0.9275 B( 22-C , 25-C ) :   1.0539
B( 25-C , 26-H ) :   0.9629 B( 25-C , 27-H ) :   0.9561 B( 25-C , 28-C ) :   1.0683
B( 28-C , 29-H ) :   0.9754 B( 28-C , 30-H ) :   0.9678 B( 28-C , 31-H ) :   0.9750

Dispersion correction           -0.015704174
FINAL SINGLE POINT ENERGY     -1339.872732793181

DIPOLE MOMENT
-------------
                                X             Y             Z
Electronic contribution:      9.82432       3.28926     -26.21593
Nuclear contribution   :    -10.03276      -3.34491      26.87804
                        -----------------------------------------
Total Dipole Moment    :     -0.20843      -0.05564       0.66211
                        -----------------------------------------
Magnitude (a.u.)       :      0.69637
Magnitude (Debye)      :      1.77003

Rotational constants in cm-1:     0.018471     0.010082     0.007243
Rotational constants in MHz :   553.748090   302.250551   217.149680

                             ****ORCA TERMINATED NORMALLY****
TOTAL RUN TIME: 0 days 0 hours 0 minutes 22 seconds 564 msec
