                         Program Version 4.2.1 -  RELEASE  -
|  1> ! wB97X-D3 SP def2-SVP
|  2> %pal
|  3> nprocs 24
|  4> end
|  5>
|  6> * xyz 0 1
|  7> S 	 37.2411 	 -1.50007 	 -122.934
|  8> C 	 37.1294 	 -3.04051 	 -123.737
|  9> C 	 36.3869 	 -3.98232 	 -123.024
| 10> C 	 35.9682 	 -3.44495 	 -121.778
| 11> C 	 36.2442 	 -2.12443 	 -121.594
| 12> H 	 35.5012 	 -4.02787 	 -120.959
| 13> C 	 36.254 	 -5.50824 	 -123.397
| 14> H 	 37.2102 	 -5.9653 	 -123.521
| 15> H 	 35.8836 	 -5.42687 	 -124.409
| 16> C 	 35.4102 	 -6.25796 	 -122.329
| 17> H 	 35.9675 	 -6.36005 	 -121.388
| 18> H 	 34.4944 	 -5.66063 	 -122.155
| 19> C 	 35.0697 	 -7.66814 	 -122.722
| 20> H 	 35.9082 	 -8.28952 	 -122.891
| 21> H 	 34.5554 	 -8.24535 	 -121.909
| 22> H 	 34.3966 	 -7.81514 	 -123.612
| 23> S 	 37.0813 	 -0.164503 	 -119.718
| 24> C 	 36.0039 	 0.324164 	 -118.375
| 25> C 	 34.865 	 -0.348025 	 -118.486
| 26> C 	 34.7171 	 -1.19608 	 -119.639
| 27> C 	 35.8854 	 -1.29879 	 -120.407
| 28> H 	 34.0949 	 -0.120983 	 -117.773
| 29> C 	 33.3652 	 -1.92077 	 -119.936
| 30> H 	 33.3364 	 -2.34493 	 -120.954
| 31> H 	 32.6405 	 -1.11353 	 -119.991
| 32> C 	 32.818 	 -2.99805 	 -118.931
| 33> H 	 32.166 	 -2.55046 	 -118.217
| 34> H 	 33.6693 	 -3.47505 	 -118.46
| 35> C 	 32.0312 	 -4.08226 	 -119.779
| 36> H 	 31.6865 	 -4.90375 	 -119.063
| 37> H 	 32.706 	 -4.50919 	 -120.499
| 38> H 	 31.1428 	 -3.64718 	 -120.257
| 39> H 	 37.6161 	 -3.19554 	 -124.704
| 40> H 	 36.2631 	 0.932996 	 -117.533
| 41> *
| 42>
| 43>                          ****END OF INPUT****

CARTESIAN COORDINATES (ANGSTROEM)
---------------------------------
  S     37.241100   -1.500070  -122.934000
  C     37.129400   -3.040510  -123.737000
  C     36.386900   -3.982320  -123.024000
  C     35.968200   -3.444950  -121.778000
  C     36.244200   -2.124430  -121.594000
  H     35.501200   -4.027870  -120.959000
  C     36.254000   -5.508240  -123.397000
  H     37.210200   -5.965300  -123.521000
  H     35.883600   -5.426870  -124.409000
  C     35.410200   -6.257960  -122.329000
  H     35.967500   -6.360050  -121.388000
  H     34.494400   -5.660630  -122.155000
  C     35.069700   -7.668140  -122.722000
  H     35.908200   -8.289520  -122.891000
  H     34.555400   -8.245350  -121.909000
  H     34.396600   -7.815140  -123.612000
  S     37.081300   -0.164503  -119.718000
  C     36.003900    0.324164  -118.375000
  C     34.865000   -0.348025  -118.486000
  C     34.717100   -1.196080  -119.639000
  C     35.885400   -1.298790  -120.407000
  H     34.094900   -0.120983  -117.773000
  C     33.365200   -1.920770  -119.936000
  H     33.336400   -2.344930  -120.954000
  H     32.640500   -1.113530  -119.991000
  C     32.818000   -2.998050  -118.931000
  H     32.166000   -2.550460  -118.217000
  H     33.669300   -3.475050  -118.460000
  C     32.031200   -4.082260  -119.779000
  H     31.686500   -4.903750  -119.063000
  H     32.706000   -4.509190  -120.499000
  H     31.142800   -3.647180  -120.257000
  H     37.616100   -3.195540  -124.704000
  H     36.263100    0.932996  -117.533000

 Total Charge           Charge          ....    0
 Multiplicity           Mult            ....    1
 Number of Electrons    NEL             ....  134
 Basis Dimension        Dim             ....  322

ORBITAL ENERGIES
----------------

  NO   OCC          E(Eh)            E(eV)
   0   2.0000     -88.968171     -2420.9470
   1   2.0000     -88.959117     -2420.7007
   2   2.0000     -10.334953      -281.2284
   3   2.0000     -10.332786      -281.1694
   4   2.0000     -10.316922      -280.7377
   5   2.0000     -10.314962      -280.6844
   6   2.0000     -10.308493      -280.5084
   7   2.0000     -10.305284      -280.4210
   8   2.0000     -10.297579      -280.2114
   9   2.0000     -10.296600      -280.1847
  10   2.0000     -10.294856      -280.1373
  11   2.0000     -10.293420      -280.0982
  12   2.0000     -10.289624      -279.9949
  13   2.0000     -10.288390      -279.9613
  14   2.0000     -10.287771      -279.9445
  15   2.0000     -10.281433      -279.7720
  16   2.0000      -8.082503      -219.9361
  17   2.0000      -8.073103      -219.6803
  18   2.0000      -6.040982      -164.3835
  19   2.0000      -6.037149      -164.2792
  20   2.0000      -6.033239      -164.1728
  21   2.0000      -6.031856      -164.1352
  22   2.0000      -6.027722      -164.0226
  23   2.0000      -6.023626      -163.9112
  24   2.0000      -1.000784       -27.2327
  25   2.0000      -0.981091       -26.6968
  26   2.0000      -0.910482       -24.7755
  27   2.0000      -0.897516       -24.4226
  28   2.0000      -0.870098       -23.6766
  29   2.0000      -0.849913       -23.1273
  30   2.0000      -0.837905       -22.8005
  31   2.0000      -0.820187       -22.3184
  32   2.0000      -0.779617       -21.2145
  33   2.0000      -0.766120       -20.8472
  34   2.0000      -0.715058       -19.4577
  35   2.0000      -0.699632       -19.0380
  36   2.0000      -0.690672       -18.7941
  37   2.0000      -0.653394       -17.7797
  38   2.0000      -0.641879       -17.4664
  39   2.0000      -0.621116       -16.9014
  40   2.0000      -0.593467       -16.1491
  41   2.0000      -0.574703       -15.6385
  42   2.0000      -0.567532       -15.4433
  43   2.0000      -0.561174       -15.2703
  44   2.0000      -0.526688       -14.3319
  45   2.0000      -0.519196       -14.1280
  46   2.0000      -0.511893       -13.9293
  47   2.0000      -0.504292       -13.7225
  48   2.0000      -0.502290       -13.6680
  49   2.0000      -0.495923       -13.4947
  50   2.0000      -0.489645       -13.3239
  51   2.0000      -0.483618       -13.1599
  52   2.0000      -0.472958       -12.8698
  53   2.0000      -0.469753       -12.7826
  54   2.0000      -0.462577       -12.5874
  55   2.0000      -0.451386       -12.2828
  56   2.0000      -0.440282       -11.9807
  57   2.0000      -0.433915       -11.8074
  58   2.0000      -0.432156       -11.7596
  59   2.0000      -0.428854       -11.6697
  60   2.0000      -0.423609       -11.5270
  61   2.0000      -0.416332       -11.3290
  62   2.0000      -0.407880       -11.0990
  63   2.0000      -0.355415        -9.6713
  64   2.0000      -0.334962        -9.1148
  65   2.0000      -0.325246        -8.8504
  66   2.0000      -0.290048        -7.8926
  67   0.0000       0.026821         0.7298
  68   0.0000       0.075621         2.0577
  69   0.0000       0.107409         2.9227
  70   0.0000       0.120788         3.2868
  71   0.0000       0.130833         3.5601

MULLIKEN ATOMIC CHARGES
-----------------------
   0 S :    0.115727
   1 C :   -0.141431
   2 C :   -0.092131
   3 C :   -0.023937
   4 C :   -0.119530
   5 H :    0.031530
   6 C :    0.091372
   7 H :    0.032672
   8 H :    0.030964
   9 C :   -0.113502
  10 H :    0.046979
  11 H :    0.053225
  12 C :   -0.039462
  13 H :    0.017437
  14 H :    0.030269
  15 H :    0.036283
  16 S :    0.066082
  17 C :   -0.076283
  18 C :   -0.017318
  19 C :   -0.046225
  20 C :   -0.140456
  21 H :    0.013506
  22 C :    0.030158
  23 H :    0.028081
  24 H :    0.027760
  25 C :   -0.045685
  26 H :    0.031129
  27 H :    0.036301
  28 C :   -0.099612
  29 H :    0.044375
  30 H :    0.037192
  31 H :    0.044744
  32 H :    0.054540
  33 H :    0.055247
Sum of atomic charges:    0.0000000

LOEWDIN ATOMIC CHARGES
----------------------
   0 S :    0.399736
   1 C :   -0.198442
   2 C :   -0.064739
   3 C :   -0.070583
   4 C :   -0.183175
   5 H :    0.039155
   6 C :   -0.023001
   7 H :    0.028386
   8 H :    0.033480
   9 C :   -0.045799
  10 H :    0.033476
  11 H :    0.028843
  12 C :   -0.073465
  13 H :    0.018009
  14 H :    0.031303
  15 H :    0.029201
  16 S :    0.357944
  17 C :   -0.163246
  18 C :   -0.074540
  19 C :   -0.059297
  20 C :   -0.180372
  21 H :    0.030805
  22 C :   -0.036088
  23 H :    0.029831
  24 H :    0.030942
  25 C :   -0.033131
  26 H :    0.019039
  27 H :    0.022950
  28 C :   -0.066567
  29 H :    0.032708
  30 H :    0.018316
  31 H :    0.026560
  32 H :    0.028994
  33 H :    0.032766

  Mayer bond orders larger than 0.100000
B(  0-S ,  1-C ) :   1.1522 B(  0-S ,  4-C ) :   1.1411 B(  1-C ,  2-C ) :   1.6081
B(  1-C ,  4-C ) :   0.1001 B(  1-C , 32-H ) :   0.9697 B(  2-C ,  3-C ) :   1.2619
B(  2-C ,  6-C ) :   0.9819 B(  3-C ,  4-C ) :   1.5730 B(  3-C ,  5-H ) :   0.9834
B(  4-C , 20-C ) :   1.0365 B(  6-C ,  7-H ) :   0.9439 B(  6-C ,  8-H ) :   0.9388
B(  6-C ,  9-C ) :   1.0842 B(  9-C , 10-H ) :   0.9430 B(  9-C , 11-H ) :   0.9511
B(  9-C , 12-C ) :   1.0895 B( 12-C , 13-H ) :   0.9696 B( 12-C , 14-H ) :   0.9706
B( 12-C , 15-H ) :   0.9745 B( 16-S , 17-C ) :   1.1198 B( 16-S , 20-C ) :   1.1201
B( 17-C , 18-C ) :   1.6614 B( 17-C , 33-H ) :   0.9682 B( 18-C , 19-C ) :   1.2110
B( 18-C , 21-H ) :   0.9896 B( 19-C , 20-C ) :   1.6143 B( 19-C , 22-C ) :   1.0400
B( 22-C , 23-H ) :   0.9496 B( 22-C , 24-H ) :   0.9315 B( 22-C , 25-C ) :   1.0380
B( 25-C , 26-H ) :   0.9561 B( 25-C , 27-H ) :   0.9650 B( 25-C , 28-C ) :   1.0812
B( 28-C , 29-H ) :   0.9741 B( 28-C , 30-H ) :   0.9791 B( 28-C , 31-H ) :   0.9759

Dispersion correction           -0.014241886
FINAL SINGLE POINT ENERGY     -1339.879907288476

DIPOLE MOMENT
-------------
                                X             Y             Z
Electronic contribution:     20.07902      27.36075      -1.13442
Nuclear contribution   :    -20.53929     -27.99315       1.27505
                        -----------------------------------------
Total Dipole Moment    :     -0.46027      -0.63240       0.14063
                        -----------------------------------------
Magnitude (a.u.)       :      0.79470
Magnitude (Debye)      :      2.01997

Rotational constants in cm-1:     0.016317     0.009732     0.006550
Rotational constants in MHz :   489.181344   291.758438   196.366166

                             ****ORCA TERMINATED NORMALLY****
TOTAL RUN TIME: 0 days 0 hours 0 minutes 21 seconds 621 msec
