                         Program Version 4.2.1 -  RELEASE  -
|  1> ! wB97X-D3 SP def2-SVP
|  2> %pal
|  3> nprocs 24
|  4> end
|  5>
|  6> * xyz 0 1
|  7> S 	 -50.9909 	 -51.5188 	 -73.6054
|  8> C 	 -50.6223 	 -50.0086 	 -74.4454
|  9> C 	 -49.3276 	 -49.5314 	 -74.255
| 10> C 	 -48.688 	 -50.3497 	 -73.3159
| 11> C 	 -49.4114 	 -51.4357 	 -72.8985
| 12> H 	 -47.6419 	 -50.1783 	 -73.0804
| 13> C 	 -48.6824 	 -48.3272 	 -74.9702
| 14> H 	 -49.1793 	 -47.377 	 -74.7022
| 15> H 	 -49.0043 	 -48.3333 	 -76.0125
| 16> C 	 -47.119 	 -48.2799 	 -74.8026
| 17> H 	 -46.891 	 -48.1848 	 -73.7868
| 18> H 	 -46.6172 	 -49.1203 	 -75.1472
| 19> C 	 -46.4956 	 -47.0367 	 -75.3745
| 20> H 	 -46.9628 	 -46.098 	 -75.0235
| 21> H 	 -45.3852 	 -46.9133 	 -75.0782
| 22> H 	 -46.6547 	 -46.8705 	 -76.4785
| 23> S 	 -49.0565 	 -54.094 	 -72.4021
| 24> C 	 -48.1426 	 -54.6176 	 -71.0342
| 25> C 	 -47.787 	 -53.5585 	 -70.2405
| 26> C 	 -48.3332 	 -52.2907 	 -70.716
| 27> C 	 -48.8924 	 -52.4268 	 -71.9834
| 28> H 	 -47.283 	 -53.6914 	 -69.3043
| 29> C 	 -48.1012 	 -51.0056 	 -69.891
| 30> H 	 -48.921 	 -50.3105 	 -69.9244
| 31> H 	 -47.1801 	 -50.4199 	 -70.1762
| 32> C 	 -48.1369 	 -51.2178 	 -68.3618
| 33> H 	 -48.0083 	 -50.3068 	 -67.8263
| 34> H 	 -47.2148 	 -51.9456 	 -68.2958
| 35> C 	 -49.4778 	 -51.8175 	 -67.8783
| 36> H 	 -49.7932 	 -52.6318 	 -68.4938
| 37> H 	 -50.2559 	 -51.1004 	 -67.8722
| 38> H 	 -49.3811 	 -52.1004 	 -66.8332
| 39> H 	 -51.2651 	 -49.4815 	 -75.139
| 40> H 	 -48.1286 	 -55.6841 	 -70.691
| 41> *
| 42>
| 43>                          ****END OF INPUT****

CARTESIAN COORDINATES (ANGSTROEM)
---------------------------------
  S    -50.990900  -51.518800  -73.605400
  C    -50.622300  -50.008600  -74.445400
  C    -49.327600  -49.531400  -74.255000
  C    -48.688000  -50.349700  -73.315900
  C    -49.411400  -51.435700  -72.898500
  H    -47.641900  -50.178300  -73.080400
  C    -48.682400  -48.327200  -74.970200
  H    -49.179300  -47.377000  -74.702200
  H    -49.004300  -48.333300  -76.012500
  C    -47.119000  -48.279900  -74.802600
  H    -46.891000  -48.184800  -73.786800
  H    -46.617200  -49.120300  -75.147200
  C    -46.495600  -47.036700  -75.374500
  H    -46.962800  -46.098000  -75.023500
  H    -45.385200  -46.913300  -75.078200
  H    -46.654700  -46.870500  -76.478500
  S    -49.056500  -54.094000  -72.402100
  C    -48.142600  -54.617600  -71.034200
  C    -47.787000  -53.558500  -70.240500
  C    -48.333200  -52.290700  -70.716000
  C    -48.892400  -52.426800  -71.983400
  H    -47.283000  -53.691400  -69.304300
  C    -48.101200  -51.005600  -69.891000
  H    -48.921000  -50.310500  -69.924400
  H    -47.180100  -50.419900  -70.176200
  C    -48.136900  -51.217800  -68.361800
  H    -48.008300  -50.306800  -67.826300
  H    -47.214800  -51.945600  -68.295800
  C    -49.477800  -51.817500  -67.878300
  H    -49.793200  -52.631800  -68.493800
  H    -50.255900  -51.100400  -67.872200
  H    -49.381100  -52.100400  -66.833200
  H    -51.265100  -49.481500  -75.139000
  H    -48.128600  -55.684100  -70.691000

 Total Charge           Charge          ....    0
 Multiplicity           Mult            ....    1
 Number of Electrons    NEL             ....  134
 Basis Dimension        Dim             ....  322

ORBITAL ENERGIES
----------------

  NO   OCC          E(Eh)            E(eV)
   0   2.0000     -88.973003     -2421.0785
   1   2.0000     -88.962015     -2420.7795
   2   2.0000     -10.323663      -280.9211
   3   2.0000     -10.323419      -280.9145
   4   2.0000     -10.316268      -280.7199
   5   2.0000     -10.312905      -280.6284
   6   2.0000     -10.306684      -280.4591
   7   2.0000     -10.303254      -280.3658
   8   2.0000     -10.300095      -280.2798
   9   2.0000     -10.293000      -280.0868
  10   2.0000     -10.291718      -280.0519
  11   2.0000     -10.291086      -280.0347
  12   2.0000     -10.289583      -279.9938
  13   2.0000     -10.287821      -279.9458
  14   2.0000     -10.284974      -279.8684
  15   2.0000     -10.269361      -279.4435
  16   2.0000      -8.087371      -220.0685
  17   2.0000      -8.077925      -219.8115
  18   2.0000      -6.045772      -164.5138
  19   2.0000      -6.042119      -164.4144
  20   2.0000      -6.038093      -164.3049
  21   2.0000      -6.036391      -164.2585
  22   2.0000      -6.032228      -164.1453
  23   2.0000      -6.028707      -164.0495
  24   2.0000      -1.010218       -27.4894
  25   2.0000      -0.986137       -26.8341
  26   2.0000      -0.913266       -24.8512
  27   2.0000      -0.907311       -24.6892
  28   2.0000      -0.871805       -23.7230
  29   2.0000      -0.853415       -23.2226
  30   2.0000      -0.840271       -22.8649
  31   2.0000      -0.813018       -22.1233
  32   2.0000      -0.783979       -21.3331
  33   2.0000      -0.772349       -21.0167
  34   2.0000      -0.717407       -19.5216
  35   2.0000      -0.696020       -18.9397
  36   2.0000      -0.687075       -18.6963
  37   2.0000      -0.654772       -17.8173
  38   2.0000      -0.637714       -17.3531
  39   2.0000      -0.624578       -16.9956
  40   2.0000      -0.600824       -16.3493
  41   2.0000      -0.568639       -15.4735
  42   2.0000      -0.562581       -15.3086
  43   2.0000      -0.550525       -14.9806
  44   2.0000      -0.542689       -14.7673
  45   2.0000      -0.527394       -14.3511
  46   2.0000      -0.511272       -13.9124
  47   2.0000      -0.507959       -13.8223
  48   2.0000      -0.499060       -13.5801
  49   2.0000      -0.495667       -13.4878
  50   2.0000      -0.487684       -13.2706
  51   2.0000      -0.476803       -12.9745
  52   2.0000      -0.472572       -12.8593
  53   2.0000      -0.466570       -12.6960
  54   2.0000      -0.461245       -12.5511
  55   2.0000      -0.455261       -12.3883
  56   2.0000      -0.452329       -12.3085
  57   2.0000      -0.442183       -12.0324
  58   2.0000      -0.433226       -11.7887
  59   2.0000      -0.427042       -11.6204
  60   2.0000      -0.422577       -11.4989
  61   2.0000      -0.420724       -11.4485
  62   2.0000      -0.390091       -10.6149
  63   2.0000      -0.344235        -9.3671
  64   2.0000      -0.336782        -9.1643
  65   2.0000      -0.327711        -8.9175
  66   2.0000      -0.290543        -7.9061
  67   0.0000       0.030457         0.8288
  68   0.0000       0.072065         1.9610
  69   0.0000       0.108938         2.9643
  70   0.0000       0.124316         3.3828
  71   0.0000       0.135646         3.6911

MULLIKEN ATOMIC CHARGES
-----------------------
   0 S :    0.135745
   1 C :   -0.123752
   2 C :   -0.077677
   3 C :   -0.002851
   4 C :   -0.125416
   5 H :    0.011089
   6 C :    0.067069
   7 H :    0.033413
   8 H :    0.022728
   9 C :   -0.031340
  10 H :    0.028745
  11 H :    0.032865
  12 C :   -0.094560
  13 H :    0.020831
  14 H :    0.050865
  15 H :    0.033336
  16 S :    0.102945
  17 C :   -0.102799
  18 C :   -0.039095
  19 C :   -0.045245
  20 C :   -0.162839
  21 H :    0.018820
  22 C :    0.058272
  23 H :    0.015782
  24 H :    0.052853
  25 C :   -0.125113
  26 H :    0.030560
  27 H :    0.037432
  28 C :   -0.025773
  29 H :    0.042303
  30 H :    0.018393
  31 H :    0.032359
  32 H :    0.031330
  33 H :    0.078725
Sum of atomic charges:   -0.0000000

LOEWDIN ATOMIC CHARGES
----------------------
   0 S :    0.415224
   1 C :   -0.193995
   2 C :   -0.060854
   3 C :   -0.059504
   4 C :   -0.203798
   5 H :    0.032196
   6 C :   -0.028625
   7 H :    0.037025
   8 H :    0.032309
   9 C :   -0.035561
  10 H :    0.022752
  11 H :    0.021068
  12 C :   -0.077547
  13 H :    0.023340
  14 H :    0.037568
  15 H :    0.026382
  16 S :    0.417651
  17 C :   -0.203972
  18 C :   -0.071239
  19 C :   -0.058631
  20 C :   -0.202295
  21 H :    0.027166
  22 C :   -0.041290
  23 H :    0.025095
  24 H :    0.036222
  25 C :   -0.042608
  26 H :    0.021102
  27 H :    0.026364
  28 C :   -0.060486
  29 H :    0.024737
  30 H :    0.020927
  31 H :    0.028949
  32 H :    0.022526
  33 H :    0.041802

  Mayer bond orders larger than 0.100000
B(  0-S ,  1-C ) :   1.1407 B(  0-S ,  4-C ) :   1.1479 B(  1-C ,  2-C ) :   1.6157
B(  1-C , 32-H ) :   0.9654 B(  2-C ,  3-C ) :   1.2890 B(  2-C ,  6-C ) :   0.9981
B(  3-C ,  4-C ) :   1.5516 B(  3-C ,  5-H ) :   0.9885 B(  4-C , 20-C ) :   1.0504
B(  6-C ,  7-H ) :   0.9362 B(  6-C ,  8-H ) :   0.9382 B(  6-C ,  9-C ) :   1.0671
B(  9-C , 10-H ) :   0.9427 B(  9-C , 11-H ) :   0.9570 B(  9-C , 12-C ) :   1.0865
B( 12-C , 13-H ) :   0.9717 B( 12-C , 14-H ) :   0.9728 B( 12-C , 15-H ) :   0.9732
B( 16-S , 17-C ) :   1.1557 B( 16-S , 20-C ) :   1.1496 B( 17-C , 18-C ) :   1.6147
B( 17-C , 33-H ) :   0.9579 B( 18-C , 19-C ) :   1.2322 B( 18-C , 21-H ) :   0.9859
B( 19-C , 20-C ) :   1.5959 B( 19-C , 22-C ) :   1.0319 B( 22-C , 23-H ) :   0.9381
B( 22-C , 24-H ) :   0.9421 B( 22-C , 25-C ) :   1.0545 B( 25-C , 26-H ) :   0.9571
B( 25-C , 27-H ) :   0.9549 B( 25-C , 28-C ) :   1.0733 B( 28-C , 29-H ) :   0.9750
B( 28-C , 30-H ) :   0.9710 B( 28-C , 31-H ) :   0.9726

Dispersion correction           -0.013900965
FINAL SINGLE POINT ENERGY     -1339.862697112672

DIPOLE MOMENT
-------------
                                X             Y             Z
Electronic contribution:    -12.88802     -20.63749      -7.82316
Nuclear contribution   :     13.12500      21.21336       7.99082
                        -----------------------------------------
Total Dipole Moment    :      0.23698       0.57586       0.16766
                        -----------------------------------------
Magnitude (a.u.)       :      0.64490
Magnitude (Debye)      :      1.63919

Rotational constants in cm-1:     0.018710     0.007978     0.006842
Rotational constants in MHz :   560.910257   239.187116   205.124087

                             ****ORCA TERMINATED NORMALLY****
TOTAL RUN TIME: 0 days 0 hours 0 minutes 21 seconds 356 msec
