                         Program Version 4.2.1 -  RELEASE  -
|  1> ! wB97X-D3 SP def2-SVP
|  2> %pal
|  3> nprocs 24
|  4> end
|  5>
|  6> * xyz 0 1
|  7> S 	 -44.222 	 10.0907 	 -21.9752
|  8> C 	 -45.5277 	 9.44712 	 -20.9362
|  9> C 	 -46.7493 	 9.65581 	 -21.5446
| 10> C 	 -46.6778 	 10.2401 	 -22.8767
| 11> C 	 -45.3944 	 10.6792 	 -23.2203
| 12> H 	 -47.6042 	 10.5444 	 -23.3902
| 13> C 	 -48.0751 	 9.49186 	 -20.8087
| 14> H 	 -47.9793 	 8.58312 	 -20.2161
| 15> H 	 -48.9215 	 9.32364 	 -21.5099
| 16> C 	 -48.3203 	 10.6256 	 -19.6848
| 17> H 	 -47.4543 	 10.5774 	 -18.9944
| 18> H 	 -48.1286 	 11.6167 	 -20.1882
| 19> C 	 -49.6694 	 10.5459 	 -19.0485
| 20> H 	 -49.7853 	 11.2417 	 -18.1866
| 21> H 	 -50.3355 	 10.923 	 -19.8231
| 22> H 	 -49.8171 	 9.55187 	 -18.7063
| 23> S 	 -43.9996 	 10.6758 	 -25.6178
| 24> C 	 -44.0698 	 12.0869 	 -26.6336
| 25> C 	 -44.8629 	 13.0852 	 -26.0444
| 26> C 	 -45.3877 	 12.7734 	 -24.7355
| 27> C 	 -45.012 	 11.4799 	 -24.3597
| 28> H 	 -45.0264 	 14.0482 	 -26.6004
| 29> C 	 -46.2466 	 13.8157 	 -23.9926
| 30> H 	 -47.2549 	 13.4819 	 -24.2066
| 31> H 	 -46.1807 	 14.8005 	 -24.4603
| 32> C 	 -46.0032 	 14.0076 	 -22.4832
| 33> H 	 -44.9193 	 14.1499 	 -22.3685
| 34> H 	 -46.4663 	 13.2156 	 -21.8858
| 35> C 	 -46.6279 	 15.2626 	 -21.9011
| 36> H 	 -45.9405 	 16.0997 	 -22.177
| 37> H 	 -46.653 	 15.133 	 -20.8117
| 38> H 	 -47.6508 	 15.5022 	 -22.3455
| 39> H 	 -45.342 	 9.12828 	 -19.9387
| 40> H 	 -43.8313 	 12.0372 	 -27.6653
| 41> *
| 42>
| 43>                          ****END OF INPUT****

CARTESIAN COORDINATES (ANGSTROEM)
---------------------------------
  S    -44.222000   10.090700  -21.975200
  C    -45.527700    9.447120  -20.936200
  C    -46.749300    9.655810  -21.544600
  C    -46.677800   10.240100  -22.876700
  C    -45.394400   10.679200  -23.220300
  H    -47.604200   10.544400  -23.390200
  C    -48.075100    9.491860  -20.808700
  H    -47.979300    8.583120  -20.216100
  H    -48.921500    9.323640  -21.509900
  C    -48.320300   10.625600  -19.684800
  H    -47.454300   10.577400  -18.994400
  H    -48.128600   11.616700  -20.188200
  C    -49.669400   10.545900  -19.048500
  H    -49.785300   11.241700  -18.186600
  H    -50.335500   10.923000  -19.823100
  H    -49.817100    9.551870  -18.706300
  S    -43.999600   10.675800  -25.617800
  C    -44.069800   12.086900  -26.633600
  C    -44.862900   13.085200  -26.044400
  C    -45.387700   12.773400  -24.735500
  C    -45.012000   11.479900  -24.359700
  H    -45.026400   14.048200  -26.600400
  C    -46.246600   13.815700  -23.992600
  H    -47.254900   13.481900  -24.206600
  H    -46.180700   14.800500  -24.460300
  C    -46.003200   14.007600  -22.483200
  H    -44.919300   14.149900  -22.368500
  H    -46.466300   13.215600  -21.885800
  C    -46.627900   15.262600  -21.901100
  H    -45.940500   16.099700  -22.177000
  H    -46.653000   15.133000  -20.811700
  H    -47.650800   15.502200  -22.345500
  H    -45.342000    9.128280  -19.938700
  H    -43.831300   12.037200  -27.665300

 Total Charge           Charge          ....    0
 Multiplicity           Mult            ....    1
 Number of Electrons    NEL             ....  134
 Basis Dimension        Dim             ....  322

ORBITAL ENERGIES
----------------

  NO   OCC          E(Eh)            E(eV)
   0   2.0000     -88.965591     -2420.8768
   1   2.0000     -88.963446     -2420.8184
   2   2.0000     -10.336670      -281.2751
   3   2.0000     -10.331719      -281.1404
   4   2.0000     -10.317837      -280.7626
   5   2.0000     -10.315480      -280.6985
   6   2.0000     -10.313554      -280.6461
   7   2.0000     -10.304401      -280.3970
   8   2.0000     -10.301639      -280.3219
   9   2.0000     -10.301338      -280.3137
  10   2.0000     -10.298655      -280.2407
  11   2.0000     -10.297158      -280.1999
  12   2.0000     -10.295440      -280.1532
  13   2.0000     -10.284319      -279.8505
  14   2.0000     -10.284000      -279.8419
  15   2.0000     -10.280382      -279.7434
  16   2.0000      -8.079794      -219.8624
  17   2.0000      -8.076777      -219.7803
  18   2.0000      -6.038293      -164.3103
  19   2.0000      -6.035485      -164.2339
  20   2.0000      -6.034320      -164.2022
  21   2.0000      -6.031447      -164.1240
  22   2.0000      -6.030645      -164.1022
  23   2.0000      -6.027431      -164.0147
  24   2.0000      -0.995504       -27.0890
  25   2.0000      -0.972946       -26.4752
  26   2.0000      -0.908625       -24.7249
  27   2.0000      -0.904935       -24.6245
  28   2.0000      -0.868037       -23.6205
  29   2.0000      -0.852912       -23.2089
  30   2.0000      -0.843101       -22.9419
  31   2.0000      -0.809355       -22.0237
  32   2.0000      -0.781607       -21.2686
  33   2.0000      -0.766271       -20.8513
  34   2.0000      -0.705772       -19.2050
  35   2.0000      -0.696746       -18.9594
  36   2.0000      -0.684920       -18.6376
  37   2.0000      -0.658341       -17.9144
  38   2.0000      -0.639322       -17.3968
  39   2.0000      -0.614523       -16.7220
  40   2.0000      -0.591771       -16.1029
  41   2.0000      -0.576850       -15.6969
  42   2.0000      -0.565764       -15.3952
  43   2.0000      -0.557864       -15.1802
  44   2.0000      -0.523720       -14.2511
  45   2.0000      -0.522683       -14.2229
  46   2.0000      -0.519575       -14.1384
  47   2.0000      -0.514016       -13.9871
  48   2.0000      -0.505585       -13.7577
  49   2.0000      -0.499211       -13.5842
  50   2.0000      -0.493296       -13.4233
  51   2.0000      -0.485168       -13.2021
  52   2.0000      -0.469993       -12.7892
  53   2.0000      -0.463580       -12.6146
  54   2.0000      -0.455379       -12.3915
  55   2.0000      -0.445794       -12.1307
  56   2.0000      -0.439476       -11.9587
  57   2.0000      -0.429497       -11.6872
  58   2.0000      -0.426492       -11.6054
  59   2.0000      -0.421313       -11.4645
  60   2.0000      -0.418800       -11.3961
  61   2.0000      -0.417260       -11.3542
  62   2.0000      -0.412334       -11.2202
  63   2.0000      -0.336818        -9.1653
  64   2.0000      -0.331580        -9.0227
  65   2.0000      -0.324369        -8.8265
  66   2.0000      -0.297260        -8.0889
  67   0.0000       0.030464         0.8290
  68   0.0000       0.051395         1.3985
  69   0.0000       0.112325         3.0565
  70   0.0000       0.116084         3.1588
  71   0.0000       0.123791         3.3685

MULLIKEN ATOMIC CHARGES
-----------------------
   0 S :    0.091648
   1 C :   -0.117104
   2 C :   -0.098784
   3 C :    0.061293
   4 C :   -0.166822
   5 H :    0.024257
   6 C :    0.028328
   7 H :    0.025469
   8 H :    0.032936
   9 C :   -0.114484
  10 H :    0.023796
  11 H :    0.031621
  12 C :   -0.006154
  13 H :    0.039865
  14 H :    0.037435
  15 H :    0.031012
  16 S :    0.106020
  17 C :   -0.082470
  18 C :   -0.076860
  19 C :   -0.008148
  20 C :   -0.182024
  21 H :    0.039874
  22 C :    0.083974
  23 H :    0.030062
  24 H :    0.014612
  25 C :   -0.084672
  26 H :    0.043550
  27 H :    0.048660
  28 C :   -0.081344
  29 H :    0.034688
  30 H :    0.045211
  31 H :    0.039293
  32 H :    0.046118
  33 H :    0.059140
Sum of atomic charges:   -0.0000000

LOEWDIN ATOMIC CHARGES
----------------------
   0 S :    0.364776
   1 C :   -0.180555
   2 C :   -0.064127
   3 C :   -0.061159
   4 C :   -0.176885
   5 H :    0.035376
   6 C :   -0.036026
   7 H :    0.028577
   8 H :    0.029742
   9 C :   -0.043987
  10 H :    0.020229
  11 H :    0.022656
  12 C :   -0.064313
  13 H :    0.033255
  14 H :    0.031961
  15 H :    0.022144
  16 S :    0.395716
  17 C :   -0.187005
  18 C :   -0.078473
  19 C :   -0.044264
  20 C :   -0.192421
  21 H :    0.038226
  22 C :   -0.029878
  23 H :    0.033470
  24 H :    0.030170
  25 C :   -0.045650
  26 H :    0.032159
  27 H :    0.026682
  28 C :   -0.072276
  29 H :    0.025994
  30 H :    0.029629
  31 H :    0.028456
  32 H :    0.022924
  33 H :    0.024878

  Mayer bond orders larger than 0.100000
B(  0-S ,  1-C ) :   1.1197 B(  0-S ,  4-C ) :   1.1340 B(  1-C ,  2-C ) :   1.6223
B(  1-C , 32-H ) :   0.9743 B(  2-C ,  3-C ) :   1.2249 B(  2-C ,  6-C ) :   1.0357
B(  3-C ,  4-C ) :   1.5876 B(  3-C ,  5-H ) :   0.9854 B(  4-C , 20-C ) :   1.0500
B(  6-C ,  7-H ) :   0.9376 B(  6-C ,  8-H ) :   0.9507 B(  6-C ,  9-C ) :   1.0360
B(  9-C , 10-H ) :   0.9549 B(  9-C , 11-H ) :   0.9597 B(  9-C , 12-C ) :   1.0765
B( 12-C , 13-H ) :   0.9705 B( 12-C , 14-H ) :   0.9740 B( 12-C , 15-H ) :   0.9733
B( 16-S , 17-C ) :   1.1617 B( 16-S , 20-C ) :   1.1381 B( 17-C , 18-C ) :   1.6067
B( 17-C , 20-C ) :   0.1022 B( 17-C , 33-H ) :   0.9681 B( 18-C , 19-C ) :   1.2447
B( 18-C , 21-H ) :   0.9771 B( 19-C , 20-C ) :   1.5942 B( 19-C , 22-C ) :   1.0252
B( 22-C , 23-H ) :   0.9198 B( 22-C , 24-H ) :   0.9415 B( 22-C , 25-C ) :   1.0688
B( 25-C , 26-H ) :   0.9618 B( 25-C , 27-H ) :   0.9507 B( 25-C , 28-C ) :   1.0839
B( 28-C , 29-H ) :   0.9766 B( 28-C , 30-H ) :   0.9762 B( 28-C , 31-H ) :   0.9721

Dispersion correction           -0.014794843
FINAL SINGLE POINT ENERGY     -1339.873641521396

DIPOLE MOMENT
-------------
                                X             Y             Z
Electronic contribution:     22.33222     -13.91106     -18.11734
Nuclear contribution   :    -23.05012      14.38295      18.33345
                        -----------------------------------------
Total Dipole Moment    :     -0.71789       0.47190       0.21611
                        -----------------------------------------
Magnitude (a.u.)       :      0.88587
Magnitude (Debye)      :      2.25170

Rotational constants in cm-1:     0.018967     0.008793     0.006866
Rotational constants in MHz :   568.605996   263.618896   205.839870

                             ****ORCA TERMINATED NORMALLY****
TOTAL RUN TIME: 0 days 0 hours 0 minutes 20 seconds 784 msec
