                         Program Version 4.2.1 -  RELEASE  -
|  1> ! wB97X-D3 SP def2-SVP
|  2> %pal
|  3> nprocs 24
|  4> end
|  5>
|  6> * xyz 0 1
|  7> S 	 -147.858 	 6.25979 	 4.41404
|  8> C 	 -147.906 	 5.98559 	 6.11425
|  9> C 	 -146.873 	 6.61196 	 6.76991
| 10> C 	 -145.976 	 7.29904 	 5.87715
| 11> C 	 -146.324 	 7.10899 	 4.53365
| 12> H 	 -145.055 	 7.83545 	 6.11593
| 13> C 	 -146.556 	 6.39586 	 8.26975
| 14> H 	 -147.356 	 5.82383 	 8.61596
| 15> H 	 -146.532 	 7.33421 	 8.83401
| 16> C 	 -145.203 	 5.69565 	 8.58104
| 17> H 	 -144.402 	 6.28771 	 8.10066
| 18> H 	 -145.15 	 5.76118 	 9.69267
| 19> C 	 -145.119 	 4.26043 	 8.07231
| 20> H 	 -144.257 	 3.73722 	 8.35968
| 21> H 	 -145.924 	 3.6992 	 8.45554
| 22> H 	 -145.113 	 4.19611 	 6.98355
| 23> S 	 -146.917 	 8.63203 	 2.40155
| 24> C 	 -145.552 	 8.92522 	 1.2705
| 25> C 	 -144.305 	 8.48565 	 1.68156
| 26> C 	 -144.394 	 7.74731 	 2.94692
| 27> C 	 -145.723 	 7.74238 	 3.41159
| 28> H 	 -143.366 	 8.78977 	 1.07405
| 29> C 	 -143.088 	 7.16526 	 3.62236
| 30> H 	 -142.454 	 6.96469 	 2.72462
| 31> H 	 -143.447 	 6.228 	 4.02576
| 32> C 	 -142.373 	 8.13625 	 4.60038
| 33> H 	 -143.006 	 8.30954 	 5.43041
| 34> H 	 -142.101 	 9.05119 	 4.11955
| 35> C 	 -141.214 	 7.37144 	 5.22595
| 36> H 	 -141.625 	 6.47461 	 5.70174
| 37> H 	 -140.635 	 8.04937 	 5.86696
| 38> H 	 -140.569 	 7.00809 	 4.46446
| 39> H 	 -148.755 	 5.40916 	 6.45574
| 40> H 	 -145.633 	 9.53862 	 0.426799
| 41> *
| 42>
| 43>                          ****END OF INPUT****

CARTESIAN COORDINATES (ANGSTROEM)
---------------------------------
  S    -147.858000    6.259790    4.414040
  C    -147.906000    5.985590    6.114250
  C    -146.873000    6.611960    6.769910
  C    -145.976000    7.299040    5.877150
  C    -146.324000    7.108990    4.533650
  H    -145.055000    7.835450    6.115930
  C    -146.556000    6.395860    8.269750
  H    -147.356000    5.823830    8.615960
  H    -146.532000    7.334210    8.834010
  C    -145.203000    5.695650    8.581040
  H    -144.402000    6.287710    8.100660
  H    -145.150000    5.761180    9.692670
  C    -145.119000    4.260430    8.072310
  H    -144.257000    3.737220    8.359680
  H    -145.924000    3.699200    8.455540
  H    -145.113000    4.196110    6.983550
  S    -146.917000    8.632030    2.401550
  C    -145.552000    8.925220    1.270500
  C    -144.305000    8.485650    1.681560
  C    -144.394000    7.747310    2.946920
  C    -145.723000    7.742380    3.411590
  H    -143.366000    8.789770    1.074050
  C    -143.088000    7.165260    3.622360
  H    -142.454000    6.964690    2.724620
  H    -143.447000    6.228000    4.025760
  C    -142.373000    8.136250    4.600380
  H    -143.006000    8.309540    5.430410
  H    -142.101000    9.051190    4.119550
  C    -141.214000    7.371440    5.225950
  H    -141.625000    6.474610    5.701740
  H    -140.635000    8.049370    5.866960
  H    -140.569000    7.008090    4.464460
  H    -148.755000    5.409160    6.455740
  H    -145.633000    9.538620    0.426799

 Total Charge           Charge          ....    0
 Multiplicity           Mult            ....    1
 Number of Electrons    NEL             ....  134
 Basis Dimension        Dim             ....  322

ORBITAL ENERGIES
----------------

  NO   OCC          E(Eh)            E(eV)
   0   2.0000     -88.967497     -2420.9287
   1   2.0000     -88.962687     -2420.7978
   2   2.0000     -10.327732      -281.0319
   3   2.0000     -10.325432      -280.9693
   4   2.0000     -10.314839      -280.6810
   5   2.0000     -10.312427      -280.6154
   6   2.0000     -10.312043      -280.6050
   7   2.0000     -10.304621      -280.4030
   8   2.0000     -10.303160      -280.3632
   9   2.0000     -10.302194      -280.3369
  10   2.0000     -10.296572      -280.1840
  11   2.0000     -10.291980      -280.0590
  12   2.0000     -10.288269      -279.9580
  13   2.0000     -10.286755      -279.9168
  14   2.0000     -10.277719      -279.6710
  15   2.0000     -10.266492      -279.3654
  16   2.0000      -8.080862      -219.8914
  17   2.0000      -8.078227      -219.8197
  18   2.0000      -6.039378      -164.3398
  19   2.0000      -6.036592      -164.2640
  20   2.0000      -6.035944      -164.2464
  21   2.0000      -6.032631      -164.1562
  22   2.0000      -6.031282      -164.1195
  23   2.0000      -6.029069      -164.0593
  24   2.0000      -1.003037       -27.2940
  25   2.0000      -0.972568       -26.4649
  26   2.0000      -0.910846       -24.7854
  27   2.0000      -0.907070       -24.6826
  28   2.0000      -0.869460       -23.6592
  29   2.0000      -0.850930       -23.1550
  30   2.0000      -0.842854       -22.9352
  31   2.0000      -0.810785       -22.0626
  32   2.0000      -0.783578       -21.3222
  33   2.0000      -0.769188       -20.9307
  34   2.0000      -0.710219       -19.3260
  35   2.0000      -0.701370       -19.0852
  36   2.0000      -0.689680       -18.7671
  37   2.0000      -0.657458       -17.8903
  38   2.0000      -0.643494       -17.5104
  39   2.0000      -0.616434       -16.7740
  40   2.0000      -0.587289       -15.9809
  41   2.0000      -0.574749       -15.6397
  42   2.0000      -0.560038       -15.2394
  43   2.0000      -0.549649       -14.9567
  44   2.0000      -0.536993       -14.6123
  45   2.0000      -0.531796       -14.4709
  46   2.0000      -0.519299       -14.1308
  47   2.0000      -0.508974       -13.8499
  48   2.0000      -0.499591       -13.5946
  49   2.0000      -0.497197       -13.5294
  50   2.0000      -0.485351       -13.2071
  51   2.0000      -0.479026       -13.0350
  52   2.0000      -0.470481       -12.8024
  53   2.0000      -0.461466       -12.5571
  54   2.0000      -0.455071       -12.3831
  55   2.0000      -0.454154       -12.3582
  56   2.0000      -0.448600       -12.2070
  57   2.0000      -0.439750       -11.9662
  58   2.0000      -0.432641       -11.7728
  59   2.0000      -0.428844       -11.6694
  60   2.0000      -0.426028       -11.5928
  61   2.0000      -0.415335       -11.3018
  62   2.0000      -0.413269       -11.2456
  63   2.0000      -0.346900        -9.4396
  64   2.0000      -0.332765        -9.0550
  65   2.0000      -0.327083        -8.9004
  66   2.0000      -0.287006        -7.8098
  67   0.0000       0.028561         0.7772
  68   0.0000       0.066205         1.8015
  69   0.0000       0.097203         2.6450
  70   0.0000       0.117760         3.2044
  71   0.0000       0.125953         3.4274

MULLIKEN ATOMIC CHARGES
-----------------------
   0 S :    0.102348
   1 C :   -0.142525
   2 C :   -0.064219
   3 C :    0.020450
   4 C :   -0.160905
   5 H :    0.009270
   6 C :    0.097349
   7 H :   -0.003230
   8 H :    0.034030
   9 C :   -0.100522
  10 H :    0.030424
  11 H :    0.039728
  12 C :   -0.009736
  13 H :    0.017601
  14 H :    0.012818
  15 H :    0.038042
  16 S :    0.100123
  17 C :   -0.068177
  18 C :   -0.069912
  19 C :   -0.050619
  20 C :   -0.163388
  21 H :    0.056959
  22 C :    0.034093
  23 H :    0.032616
  24 H :    0.035274
  25 C :   -0.026616
  26 H :    0.018137
  27 H :    0.030270
  28 C :   -0.022820
  29 H :    0.030764
  30 H :    0.040614
  31 H :    0.014402
  32 H :    0.055695
  33 H :    0.031663
Sum of atomic charges:   -0.0000000

LOEWDIN ATOMIC CHARGES
----------------------
   0 S :    0.408840
   1 C :   -0.202231
   2 C :   -0.064757
   3 C :   -0.062437
   4 C :   -0.198065
   5 H :    0.030375
   6 C :   -0.024804
   7 H :    0.017088
   8 H :    0.032924
   9 C :   -0.037749
  10 H :    0.022397
  11 H :    0.029529
  12 C :   -0.061605
  13 H :    0.019595
  14 H :    0.018776
  15 H :    0.030411
  16 S :    0.365256
  17 C :   -0.164786
  18 C :   -0.080584
  19 C :   -0.051328
  20 C :   -0.184054
  21 H :    0.050232
  22 C :   -0.025307
  23 H :    0.035000
  24 H :    0.030509
  25 C :   -0.029167
  26 H :    0.017344
  27 H :    0.023551
  28 C :   -0.058482
  29 H :    0.028683
  30 H :    0.027980
  31 H :    0.016852
  32 H :    0.026788
  33 H :    0.013226

  Mayer bond orders larger than 0.100000
B(  0-S ,  1-C ) :   1.1454 B(  0-S ,  4-C ) :   1.1521 B(  1-C ,  2-C ) :   1.5912
B(  1-C , 32-H ) :   0.9728 B(  2-C ,  3-C ) :   1.2327 B(  2-C ,  6-C ) :   1.0258
B(  3-C ,  4-C ) :   1.5580 B(  3-C ,  5-H ) :   0.9926 B(  4-C , 20-C ) :   1.0775
B(  6-C ,  7-H ) :   0.9409 B(  6-C ,  8-H ) :   0.9375 B(  6-C ,  9-C ) :   1.0703
B(  9-C , 10-H ) :   0.9554 B(  9-C , 11-H ) :   0.9562 B(  9-C , 12-C ) :   1.0769
B( 12-C , 13-H ) :   0.9723 B( 12-C , 14-H ) :   0.9740 B( 12-C , 15-H ) :   0.9729
B( 16-S , 17-C ) :   1.1187 B( 16-S , 20-C ) :   1.1183 B( 17-C , 18-C ) :   1.6836
B( 17-C , 33-H ) :   0.9677 B( 18-C , 19-C ) :   1.1938 B( 18-C , 21-H ) :   0.9668
B( 19-C , 20-C ) :   1.6375 B( 19-C , 22-C ) :   1.0200 B( 22-C , 23-H ) :   0.9388
B( 22-C , 24-H ) :   0.9351 B( 22-C , 25-C ) :   1.0711 B( 25-C , 26-H ) :   0.9531
B( 25-C , 27-H ) :   0.9522 B( 25-C , 28-C ) :   1.0813 B( 28-C , 29-H ) :   0.9730
B( 28-C , 30-H ) :   0.9730 B( 28-C , 31-H ) :   0.9736

Dispersion correction           -0.014811626
FINAL SINGLE POINT ENERGY     -1339.870960127556

DIPOLE MOMENT
-------------
                                X             Y             Z
Electronic contribution:    -23.04670       7.48103     -19.25441
Nuclear contribution   :     23.64128      -7.48801      19.61092
                        -----------------------------------------
Total Dipole Moment    :      0.59458      -0.00698       0.35651
                        -----------------------------------------
Magnitude (a.u.)       :      0.69330
Magnitude (Debye)      :      1.76224

Rotational constants in cm-1:     0.016772     0.010532     0.006980
Rotational constants in MHz :   502.807018   315.752740   209.247854

                             ****ORCA TERMINATED NORMALLY****
TOTAL RUN TIME: 0 days 0 hours 0 minutes 22 seconds 255 msec
