                         Program Version 4.2.1 -  RELEASE  -
|  1> ! wB97X-D3 SP def2-SVP
|  2> %pal
|  3> nprocs 24
|  4> end
|  5>
|  6> * xyz 0 1
|  7> S 	 -119.484 	 62.8254 	 -36.2286
|  8> C 	 -119.682 	 62.9783 	 -37.9706
|  9> C 	 -118.914 	 62.0113 	 -38.6472
| 10> C 	 -118.186 	 61.1698 	 -37.7017
| 11> C 	 -118.317 	 61.4747 	 -36.3791
| 12> H 	 -117.554 	 60.4045 	 -38.044
| 13> C 	 -118.806 	 61.8618 	 -40.1559
| 14> H 	 -118.073 	 62.5299 	 -40.616
| 15> H 	 -119.768 	 61.9892 	 -40.635
| 16> C 	 -118.485 	 60.5005 	 -40.7027
| 17> H 	 -118.486 	 60.5745 	 -41.8153
| 18> H 	 -117.484 	 60.1533 	 -40.4277
| 19> C 	 -119.501 	 59.3377 	 -40.3176
| 20> H 	 -120.528 	 59.6603 	 -40.2508
| 21> H 	 -119.487 	 58.5907 	 -41.0916
| 22> H 	 -119.257 	 58.974 	 -39.3661
| 23> S 	 -115.951 	 61.5148 	 -34.9519
| 24> C 	 -115.774 	 60.3411 	 -33.6687
| 25> C 	 -116.955 	 59.6573 	 -33.4372
| 26> C 	 -118.023 	 59.9145 	 -34.3215
| 27> C 	 -117.648 	 60.9456 	 -35.2082
| 28> H 	 -116.846 	 58.8706 	 -32.6774
| 29> C 	 -119.369 	 59.2671 	 -34.165
| 30> H 	 -119.252 	 58.5949 	 -33.3577
| 31> H 	 -119.561 	 58.8207 	 -35.0935
| 32> C 	 -120.522 	 60.089 	 -33.6851
| 33> H 	 -120.882 	 60.7887 	 -34.4114
| 34> H 	 -120.224 	 60.6199 	 -32.8469
| 35> C 	 -121.786 	 59.3315 	 -33.4897
| 36> H 	 -121.669 	 58.5442 	 -32.7044
| 37> H 	 -122.203 	 58.8156 	 -34.3566
| 38> H 	 -122.604 	 59.9432 	 -33.1358
| 39> H 	 -120.25 	 63.7546 	 -38.4623
| 40> H 	 -114.826 	 60.2645 	 -33.1733
| 41> *
| 42>
| 43>                          ****END OF INPUT****

CARTESIAN COORDINATES (ANGSTROEM)
---------------------------------
  S    -119.484000   62.825400  -36.228600
  C    -119.682000   62.978300  -37.970600
  C    -118.914000   62.011300  -38.647200
  C    -118.186000   61.169800  -37.701700
  C    -118.317000   61.474700  -36.379100
  H    -117.554000   60.404500  -38.044000
  C    -118.806000   61.861800  -40.155900
  H    -118.073000   62.529900  -40.616000
  H    -119.768000   61.989200  -40.635000
  C    -118.485000   60.500500  -40.702700
  H    -118.486000   60.574500  -41.815300
  H    -117.484000   60.153300  -40.427700
  C    -119.501000   59.337700  -40.317600
  H    -120.528000   59.660300  -40.250800
  H    -119.487000   58.590700  -41.091600
  H    -119.257000   58.974000  -39.366100
  S    -115.951000   61.514800  -34.951900
  C    -115.774000   60.341100  -33.668700
  C    -116.955000   59.657300  -33.437200
  C    -118.023000   59.914500  -34.321500
  C    -117.648000   60.945600  -35.208200
  H    -116.846000   58.870600  -32.677400
  C    -119.369000   59.267100  -34.165000
  H    -119.252000   58.594900  -33.357700
  H    -119.561000   58.820700  -35.093500
  C    -120.522000   60.089000  -33.685100
  H    -120.882000   60.788700  -34.411400
  H    -120.224000   60.619900  -32.846900
  C    -121.786000   59.331500  -33.489700
  H    -121.669000   58.544200  -32.704400
  H    -122.203000   58.815600  -34.356600
  H    -122.604000   59.943200  -33.135800
  H    -120.250000   63.754600  -38.462300
  H    -114.826000   60.264500  -33.173300

 Total Charge           Charge          ....    0
 Multiplicity           Mult            ....    1
 Number of Electrons    NEL             ....  134
 Basis Dimension        Dim             ....  322

ORBITAL ENERGIES
----------------

  NO   OCC          E(Eh)            E(eV)
   0   2.0000     -88.965935     -2420.8862
   1   2.0000     -88.962617     -2420.7959
   2   2.0000     -10.329967      -281.0927
   3   2.0000     -10.328956      -281.0652
   4   2.0000     -10.318012      -280.7674
   5   2.0000     -10.317616      -280.7566
   6   2.0000     -10.307990      -280.4947
   7   2.0000     -10.306284      -280.4482
   8   2.0000     -10.294613      -280.1307
   9   2.0000     -10.293306      -280.0951
  10   2.0000     -10.291078      -280.0345
  11   2.0000     -10.290086      -280.0075
  12   2.0000     -10.281744      -279.7805
  13   2.0000     -10.273557      -279.5577
  14   2.0000     -10.271481      -279.5012
  15   2.0000     -10.269255      -279.4406
  16   2.0000      -8.080019      -219.8685
  17   2.0000      -8.076342      -219.7684
  18   2.0000      -6.038324      -164.3112
  19   2.0000      -6.034921      -164.2185
  20   2.0000      -6.034631      -164.2107
  21   2.0000      -6.031025      -164.1125
  22   2.0000      -6.030859      -164.1080
  23   2.0000      -6.027195      -164.0083
  24   2.0000      -0.998903       -27.1815
  25   2.0000      -0.977033       -26.5864
  26   2.0000      -0.921224       -25.0678
  27   2.0000      -0.911291       -24.7975
  28   2.0000      -0.866340       -23.5743
  29   2.0000      -0.857749       -23.3405
  30   2.0000      -0.836808       -22.7707
  31   2.0000      -0.812709       -22.1149
  32   2.0000      -0.789940       -21.4954
  33   2.0000      -0.775709       -21.1081
  34   2.0000      -0.710727       -19.3399
  35   2.0000      -0.697337       -18.9755
  36   2.0000      -0.688273       -18.7289
  37   2.0000      -0.661347       -17.9962
  38   2.0000      -0.639157       -17.3923
  39   2.0000      -0.625790       -17.0286
  40   2.0000      -0.600876       -16.3507
  41   2.0000      -0.583715       -15.8837
  42   2.0000      -0.563211       -15.3257
  43   2.0000      -0.555432       -15.1141
  44   2.0000      -0.538538       -14.6544
  45   2.0000      -0.527439       -14.3523
  46   2.0000      -0.520835       -14.1726
  47   2.0000      -0.513089       -13.9619
  48   2.0000      -0.504993       -13.7416
  49   2.0000      -0.498772       -13.5723
  50   2.0000      -0.490644       -13.3511
  51   2.0000      -0.480556       -13.0766
  52   2.0000      -0.470749       -12.8097
  53   2.0000      -0.464032       -12.6270
  54   2.0000      -0.457295       -12.4436
  55   2.0000      -0.446272       -12.1437
  56   2.0000      -0.443770       -12.0756
  57   2.0000      -0.435549       -11.8519
  58   2.0000      -0.431568       -11.7436
  59   2.0000      -0.425424       -11.5764
  60   2.0000      -0.421436       -11.4679
  61   2.0000      -0.413435       -11.2501
  62   2.0000      -0.404119       -10.9966
  63   2.0000      -0.338104        -9.2003
  64   2.0000      -0.329922        -8.9776
  65   2.0000      -0.317816        -8.6482
  66   2.0000      -0.307356        -8.3636
  67   0.0000       0.038087         1.0364
  68   0.0000       0.048822         1.3285
  69   0.0000       0.107922         2.9367
  70   0.0000       0.119951         3.2640
  71   0.0000       0.132157         3.5962

MULLIKEN ATOMIC CHARGES
-----------------------
   0 S :    0.100200
   1 C :   -0.118830
   2 C :   -0.105217
   3 C :    0.071526
   4 C :   -0.166622
   5 H :   -0.007584
   6 C :    0.092674
   7 H :    0.049366
   8 H :    0.024624
   9 C :   -0.142520
  10 H :    0.034031
  11 H :    0.028041
  12 C :   -0.021667
  13 H :    0.020309
  14 H :    0.031392
  15 H :    0.022439
  16 S :    0.109439
  17 C :   -0.106338
  18 C :   -0.043643
  19 C :   -0.009584
  20 C :   -0.190620
  21 H :    0.026517
  22 C :    0.159875
  23 H :   -0.003603
  24 H :    0.019416
  25 C :   -0.025264
  26 H :    0.019361
  27 H :    0.012929
  28 C :   -0.062680
  29 H :    0.015200
  30 H :    0.029171
  31 H :    0.030520
  32 H :    0.049923
  33 H :    0.057218
Sum of atomic charges:    0.0000000

LOEWDIN ATOMIC CHARGES
----------------------
   0 S :    0.388941
   1 C :   -0.188548
   2 C :   -0.064331
   3 C :   -0.052014
   4 C :   -0.190499
   5 H :    0.023041
   6 C :   -0.038549
   7 H :    0.038141
   8 H :    0.032970
   9 C :   -0.043232
  10 H :    0.029036
  11 H :    0.016626
  12 C :   -0.058578
  13 H :    0.023001
  14 H :    0.025187
  15 H :    0.016334
  16 S :    0.392742
  17 C :   -0.178336
  18 C :   -0.080591
  19 C :   -0.039953
  20 C :   -0.190896
  21 H :    0.035073
  22 C :   -0.017604
  23 H :    0.028155
  24 H :    0.030474
  25 C :   -0.037614
  26 H :    0.019760
  27 H :    0.018433
  28 C :   -0.064121
  29 H :    0.019361
  30 H :    0.025977
  31 H :    0.027556
  32 H :    0.028917
  33 H :    0.025142

  Mayer bond orders larger than 0.100000
B(  0-S ,  1-C ) :   1.1480 B(  0-S ,  4-C ) :   1.1273 B(  1-C ,  2-C ) :   1.6138
B(  1-C , 32-H ) :   0.9725 B(  2-C ,  3-C ) :   1.2300 B(  2-C ,  6-C ) :   1.0168
B(  3-C ,  4-C ) :   1.6120 B(  3-C ,  5-H ) :   1.0009 B(  4-C , 20-C ) :   1.0209
B(  6-C ,  7-H ) :   0.9336 B(  6-C ,  8-H ) :   0.9434 B(  6-C ,  9-C ) :   1.0851
B(  9-C , 10-H ) :   0.9596 B(  9-C , 11-H ) :   0.9494 B(  9-C , 12-C ) :   1.0668
B( 12-C , 13-H ) :   0.9764 B( 12-C , 14-H ) :   0.9788 B( 12-C , 15-H ) :   0.9764
B( 16-S , 17-C ) :   1.1658 B( 16-S , 20-C ) :   1.1492 B( 17-C , 18-C ) :   1.5986
B( 17-C , 20-C ) :   0.1092 B( 17-C , 33-H ) :   0.9701 B( 18-C , 19-C ) :   1.2487
B( 18-C , 21-H ) :   0.9824 B( 19-C , 20-C ) :   1.5658 B( 19-C , 22-C ) :   1.0456
B( 22-C , 23-H ) :   0.9263 B( 22-C , 24-H ) :   0.9098 B( 22-C , 25-C ) :   1.0882
B( 25-C , 26-H ) :   0.9400 B( 25-C , 27-H ) :   0.9499 B( 25-C , 28-C ) :   1.0964
B( 28-C , 29-H ) :   0.9711 B( 28-C , 30-H ) :   0.9723 B( 28-C , 31-H ) :   0.9711

Dispersion correction           -0.014491729
FINAL SINGLE POINT ENERGY     -1339.870165358009

DIPOLE MOMENT
-------------
                                X             Y             Z
Electronic contribution:     14.83200      14.62194       9.40497
Nuclear contribution   :    -14.90838     -14.99704      -9.65867
                        -----------------------------------------
Total Dipole Moment    :     -0.07638      -0.37510      -0.25370
                        -----------------------------------------
Magnitude (a.u.)       :      0.45923
Magnitude (Debye)      :      1.16728

Rotational constants in cm-1:     0.016903     0.008963     0.007629
Rotational constants in MHz :   506.754073   268.714059   228.713969

                             ****ORCA TERMINATED NORMALLY****
TOTAL RUN TIME: 0 days 0 hours 0 minutes 20 seconds 467 msec
