                         Program Version 4.2.1 -  RELEASE  -
|  1> ! wB97X-D3 SP def2-SVP
|  2> %pal
|  3> nprocs 24
|  4> end
|  5>
|  6> * xyz 0 1
|  7> S 	 -34.6071 	 -4.12702 	 4.68999
|  8> C 	 -35.9215 	 -3.89553 	 5.82236
|  9> C 	 -37.1998 	 -3.87177 	 5.23779
| 10> C 	 -37.0157 	 -4.08066 	 3.79403
| 11> C 	 -35.7295 	 -4.27563 	 3.33172
| 12> H 	 -37.8664 	 -4.06144 	 3.09588
| 13> C 	 -38.523 	 -3.97061 	 5.95277
| 14> H 	 -38.3798 	 -4.08682 	 7.02063
| 15> H 	 -39.1357 	 -4.85283 	 5.70884
| 16> C 	 -39.3475 	 -2.7384 	 5.75204
| 17> H 	 -39.4455 	 -2.49432 	 4.71703
| 18> H 	 -40.287 	 -2.93011 	 6.29962
| 19> C 	 -38.7247 	 -1.5156 	 6.40669
| 20> H 	 -39.5057 	 -0.843591 	 6.71304
| 21> H 	 -38.2228 	 -1.74391 	 7.36243
| 22> H 	 -37.985 	 -1.0839 	 5.78977
| 23> S 	 -34.4538 	 -6.34691 	 1.87008
| 24> C 	 -34.4231 	 -6.13205 	 0.139561
| 25> C 	 -35.0215 	 -4.94116 	 -0.273655
| 26> C 	 -35.3003 	 -4.10026 	 0.824741
| 27> C 	 -35.3087 	 -4.79279 	 2.03685
| 28> H 	 -35.0627 	 -4.66511 	 -1.33836
| 29> C 	 -35.7815 	 -2.6569 	 0.673485
| 30> H 	 -35.1881 	 -2.17791 	 -0.105199
| 31> H 	 -35.7637 	 -2.17484 	 1.67628
| 32> C 	 -37.1666 	 -2.65744 	 0.177114
| 33> H 	 -37.8191 	 -3.19773 	 0.833269
| 34> H 	 -37.0971 	 -3.18672 	 -0.726174
| 35> C 	 -37.8087 	 -1.27136 	 -0.143928
| 36> H 	 -37.2444 	 -0.509836 	 -0.799342
| 37> H 	 -38.1062 	 -0.757242 	 0.77486
| 38> H 	 -38.5926 	 -1.47825 	 -0.848445
| 39> H 	 -35.8663 	 -3.77949 	 6.87203
| 40> H 	 -34.0844 	 -6.92614 	 -0.479499
| 41> *
| 42>
| 43>                          ****END OF INPUT****

CARTESIAN COORDINATES (ANGSTROEM)
---------------------------------
  S    -34.607100   -4.127020    4.689990
  C    -35.921500   -3.895530    5.822360
  C    -37.199800   -3.871770    5.237790
  C    -37.015700   -4.080660    3.794030
  C    -35.729500   -4.275630    3.331720
  H    -37.866400   -4.061440    3.095880
  C    -38.523000   -3.970610    5.952770
  H    -38.379800   -4.086820    7.020630
  H    -39.135700   -4.852830    5.708840
  C    -39.347500   -2.738400    5.752040
  H    -39.445500   -2.494320    4.717030
  H    -40.287000   -2.930110    6.299620
  C    -38.724700   -1.515600    6.406690
  H    -39.505700   -0.843591    6.713040
  H    -38.222800   -1.743910    7.362430
  H    -37.985000   -1.083900    5.789770
  S    -34.453800   -6.346910    1.870080
  C    -34.423100   -6.132050    0.139561
  C    -35.021500   -4.941160   -0.273655
  C    -35.300300   -4.100260    0.824741
  C    -35.308700   -4.792790    2.036850
  H    -35.062700   -4.665110   -1.338360
  C    -35.781500   -2.656900    0.673485
  H    -35.188100   -2.177910   -0.105199
  H    -35.763700   -2.174840    1.676280
  C    -37.166600   -2.657440    0.177114
  H    -37.819100   -3.197730    0.833269
  H    -37.097100   -3.186720   -0.726174
  C    -37.808700   -1.271360   -0.143928
  H    -37.244400   -0.509836   -0.799342
  H    -38.106200   -0.757242    0.774860
  H    -38.592600   -1.478250   -0.848445
  H    -35.866300   -3.779490    6.872030
  H    -34.084400   -6.926140   -0.479499

 Total Charge           Charge          ....    0
 Multiplicity           Mult            ....    1
 Number of Electrons    NEL             ....  134
 Basis Dimension        Dim             ....  322

ORBITAL ENERGIES
----------------

  NO   OCC          E(Eh)            E(eV)
   0   2.0000     -88.967542     -2420.9299
   1   2.0000     -88.967012     -2420.9155
   2   2.0000     -10.329985      -281.0932
   3   2.0000     -10.326413      -280.9960
   4   2.0000     -10.319176      -280.7990
   5   2.0000     -10.316088      -280.7150
   6   2.0000     -10.306165      -280.4450
   7   2.0000     -10.302384      -280.3421
   8   2.0000     -10.301203      -280.3100
   9   2.0000     -10.297873      -280.2194
  10   2.0000     -10.292103      -280.0624
  11   2.0000     -10.287045      -279.9247
  12   2.0000     -10.283028      -279.8154
  13   2.0000     -10.281289      -279.7681
  14   2.0000     -10.277152      -279.6555
  15   2.0000     -10.268590      -279.4225
  16   2.0000      -8.081906      -219.9199
  17   2.0000      -8.081327      -219.9041
  18   2.0000      -6.040323      -164.3655
  19   2.0000      -6.039950      -164.3554
  20   2.0000      -6.036550      -164.2629
  21   2.0000      -6.035857      -164.2440
  22   2.0000      -6.032690      -164.1578
  23   2.0000      -6.032029      -164.1398
  24   2.0000      -1.002879       -27.2897
  25   2.0000      -0.980814       -26.6893
  26   2.0000      -0.921718       -25.0812
  27   2.0000      -0.917851       -24.9760
  28   2.0000      -0.867224       -23.5984
  29   2.0000      -0.848701       -23.0943
  30   2.0000      -0.842233       -22.9183
  31   2.0000      -0.811515       -22.0824
  32   2.0000      -0.786491       -21.4015
  33   2.0000      -0.775698       -21.1078
  34   2.0000      -0.705702       -19.2031
  35   2.0000      -0.694710       -18.9040
  36   2.0000      -0.691411       -18.8143
  37   2.0000      -0.659770       -17.9532
  38   2.0000      -0.643859       -17.5203
  39   2.0000      -0.619566       -16.8593
  40   2.0000      -0.601053       -16.3555
  41   2.0000      -0.578463       -15.7408
  42   2.0000      -0.577198       -15.7063
  43   2.0000      -0.549675       -14.9574
  44   2.0000      -0.546263       -14.8646
  45   2.0000      -0.526062       -14.3149
  46   2.0000      -0.515259       -14.0209
  47   2.0000      -0.508081       -13.8256
  48   2.0000      -0.504620       -13.7314
  49   2.0000      -0.496170       -13.5015
  50   2.0000      -0.494500       -13.4560
  51   2.0000      -0.479029       -13.0350
  52   2.0000      -0.469573       -12.7777
  53   2.0000      -0.463771       -12.6198
  54   2.0000      -0.459044       -12.4912
  55   2.0000      -0.450153       -12.2493
  56   2.0000      -0.441732       -12.0201
  57   2.0000      -0.431501       -11.7417
  58   2.0000      -0.428650       -11.6642
  59   2.0000      -0.426208       -11.5977
  60   2.0000      -0.424182       -11.5426
  61   2.0000      -0.417495       -11.3606
  62   2.0000      -0.415807       -11.3147
  63   2.0000      -0.339106        -9.2276
  64   2.0000      -0.332309        -9.0426
  65   2.0000      -0.325610        -8.8603
  66   2.0000      -0.297052        -8.0832
  67   0.0000       0.032023         0.8714
  68   0.0000       0.059753         1.6260
  69   0.0000       0.110121         2.9965
  70   0.0000       0.117089         3.1862
  71   0.0000       0.124475         3.3871

MULLIKEN ATOMIC CHARGES
-----------------------
   0 S :    0.117412
   1 C :   -0.093642
   2 C :   -0.105840
   3 C :    0.027375
   4 C :   -0.174103
   5 H :    0.017827
   6 C :    0.065576
   7 H :    0.010735
   8 H :    0.043077
   9 C :   -0.070786
  10 H :    0.029565
  11 H :    0.029765
  12 C :   -0.041435
  13 H :    0.030283
  14 H :    0.010366
  15 H :    0.036487
  16 S :    0.116044
  17 C :   -0.090933
  18 C :   -0.028266
  19 C :   -0.067148
  20 C :   -0.157072
  21 H :    0.034199
  22 C :    0.116537
  23 H :    0.020256
  24 H :    0.038631
  25 C :   -0.071100
  26 H :    0.017985
  27 H :    0.001734
  28 C :   -0.049620
  29 H :    0.030001
  30 H :    0.044787
  31 H :    0.028363
  32 H :    0.030259
  33 H :    0.052681
Sum of atomic charges:    0.0000000

LOEWDIN ATOMIC CHARGES
----------------------
   0 S :    0.396771
   1 C :   -0.184939
   2 C :   -0.063045
   3 C :   -0.053538
   4 C :   -0.198325
   5 H :    0.028375
   6 C :   -0.033662
   7 H :    0.027949
   8 H :    0.036599
   9 C :   -0.039460
  10 H :    0.021224
  11 H :    0.027713
  12 C :   -0.062490
  13 H :    0.025605
  14 H :    0.022091
  15 H :    0.020921
  16 S :    0.399382
  17 C :   -0.173670
  18 C :   -0.076174
  19 C :   -0.044120
  20 C :   -0.202450
  21 H :    0.036551
  22 C :   -0.027340
  23 H :    0.032324
  24 H :    0.034395
  25 C :   -0.036849
  26 H :    0.020204
  27 H :    0.015629
  28 C :   -0.073728
  29 H :    0.031995
  30 H :    0.025790
  31 H :    0.025516
  32 H :    0.019542
  33 H :    0.021214

  Mayer bond orders larger than 0.100000
B(  0-S ,  1-C ) :   1.1471 B(  0-S ,  4-C ) :   1.1204 B(  1-C ,  2-C ) :   1.6228
B(  1-C , 32-H ) :   0.9620 B(  2-C ,  3-C ) :   1.2249 B(  2-C ,  6-C ) :   1.0278
B(  3-C ,  4-C ) :   1.6127 B(  3-C ,  5-H ) :   0.9798 B(  4-C , 20-C ) :   1.0495
B(  6-C ,  7-H ) :   0.9393 B(  6-C ,  8-H ) :   0.9462 B(  6-C ,  9-C ) :   1.0772
B(  9-C , 10-H ) :   0.9599 B(  9-C , 11-H ) :   0.9547 B(  9-C , 12-C ) :   1.0761
B( 12-C , 13-H ) :   0.9752 B( 12-C , 14-H ) :   0.9735 B( 12-C , 15-H ) :   0.9739
B( 16-S , 17-C ) :   1.1709 B( 16-S , 20-C ) :   1.1276 B( 17-C , 18-C ) :   1.5972
B( 17-C , 20-C ) :   0.1044 B( 17-C , 33-H ) :   0.9700 B( 18-C , 19-C ) :   1.2409
B( 18-C , 21-H ) :   0.9814 B( 19-C , 20-C ) :   1.5865 B( 19-C , 22-C ) :   1.0601
B( 22-C , 23-H ) :   0.9237 B( 22-C , 24-H ) :   0.9225 B( 22-C , 25-C ) :   1.0818
B( 25-C , 26-H ) :   0.9471 B( 25-C , 27-H ) :   0.9533 B( 25-C , 28-C ) :   1.0775
B( 28-C , 29-H ) :   0.9729 B( 28-C , 30-H ) :   0.9764 B( 28-C , 31-H ) :   0.9734

Dispersion correction           -0.014559564
FINAL SINGLE POINT ENERGY     -1339.867928146554

DIPOLE MOMENT
-------------
                                X             Y             Z
Electronic contribution:     22.45017     -19.43695       0.45948
Nuclear contribution   :    -23.00290      19.60781      -0.63949
                        -----------------------------------------
Total Dipole Moment    :     -0.55273       0.17086      -0.18001
                        -----------------------------------------
Magnitude (a.u.)       :      0.60589
Magnitude (Debye)      :      1.54006

Rotational constants in cm-1:     0.018102     0.009243     0.006829
Rotational constants in MHz :   542.671272   277.089396   204.719023

                             ****ORCA TERMINATED NORMALLY****
TOTAL RUN TIME: 0 days 0 hours 0 minutes 22 seconds 58 msec
