                         Program Version 4.2.1 -  RELEASE  -
|  1> ! wB97X-D3 SP def2-SVP
|  2> %pal
|  3> nprocs 24
|  4> end
|  5>
|  6> * xyz 0 1
|  7> S 	 -76.9316 	 6.20659 	 -110.616
|  8> C 	 -77.7867 	 5.81126 	 -112.147
|  9> C 	 -79.0553 	 6.26453 	 -112.066
| 10> C 	 -79.2997 	 7.00768 	 -110.853
| 11> C 	 -78.3251 	 6.98509 	 -109.893
| 12> H 	 -80.3194 	 7.38161 	 -110.54
| 13> C 	 -80.0846 	 5.92843 	 -113.124
| 14> H 	 -80.5851 	 5.0269 	 -112.712
| 15> H 	 -79.6403 	 5.66869 	 -114.06
| 16> C 	 -81.1565 	 7.01366 	 -113.329
| 17> H 	 -81.852 	 6.47854 	 -114.005
| 18> H 	 -81.685 	 7.20782 	 -112.384
| 19> C 	 -80.6495 	 8.2263 	 -114.139
| 20> H 	 -81.3623 	 9.02622 	 -114.161
| 21> H 	 -79.7622 	 8.62081 	 -113.657
| 22> H 	 -80.5668 	 7.90082 	 -115.182
| 23> S 	 -77.8488 	 6.07285 	 -107.384
| 24> C 	 -77.9489 	 7.11339 	 -106.018
| 25> C 	 -78.4124 	 8.37491 	 -106.41
| 26> C 	 -78.7838 	 8.4151 	 -107.794
| 27> C 	 -78.3415 	 7.30358 	 -108.501
| 28> H 	 -78.5917 	 9.12711 	 -105.632
| 29> C 	 -79.5426 	 9.57314 	 -108.431
| 30> H 	 -79.3969 	 9.51777 	 -109.526
| 31> H 	 -79.0355 	 10.4448 	 -108.014
| 32> C 	 -81.0424 	 9.55649 	 -108.113
| 33> H 	 -81.2828 	 9.57769 	 -107.039
| 34> H 	 -81.5659 	 8.79789 	 -108.684
| 35> C 	 -81.542 	 10.8791 	 -108.629
| 36> H 	 -82.6329 	 10.6334 	 -108.659
| 37> H 	 -81.0846 	 10.924 	 -109.607
| 38> H 	 -81.4802 	 11.8044 	 -108.002
| 39> H 	 -77.4615 	 5.04923 	 -112.803
| 40> H 	 -77.5912 	 6.94914 	 -105.017
| 41> *
| 42>
| 43>                          ****END OF INPUT****

CARTESIAN COORDINATES (ANGSTROEM)
---------------------------------
  S    -76.931600    6.206590  -110.616000
  C    -77.786700    5.811260  -112.147000
  C    -79.055300    6.264530  -112.066000
  C    -79.299700    7.007680  -110.853000
  C    -78.325100    6.985090  -109.893000
  H    -80.319400    7.381610  -110.540000
  C    -80.084600    5.928430  -113.124000
  H    -80.585100    5.026900  -112.712000
  H    -79.640300    5.668690  -114.060000
  C    -81.156500    7.013660  -113.329000
  H    -81.852000    6.478540  -114.005000
  H    -81.685000    7.207820  -112.384000
  C    -80.649500    8.226300  -114.139000
  H    -81.362300    9.026220  -114.161000
  H    -79.762200    8.620810  -113.657000
  H    -80.566800    7.900820  -115.182000
  S    -77.848800    6.072850  -107.384000
  C    -77.948900    7.113390  -106.018000
  C    -78.412400    8.374910  -106.410000
  C    -78.783800    8.415100  -107.794000
  C    -78.341500    7.303580  -108.501000
  H    -78.591700    9.127110  -105.632000
  C    -79.542600    9.573140  -108.431000
  H    -79.396900    9.517770  -109.526000
  H    -79.035500   10.444800  -108.014000
  C    -81.042400    9.556490  -108.113000
  H    -81.282800    9.577690  -107.039000
  H    -81.565900    8.797890  -108.684000
  C    -81.542000   10.879100  -108.629000
  H    -82.632900   10.633400  -108.659000
  H    -81.084600   10.924000  -109.607000
  H    -81.480200   11.804400  -108.002000
  H    -77.461500    5.049230  -112.803000
  H    -77.591200    6.949140  -105.017000

 Total Charge           Charge          ....    0
 Multiplicity           Mult            ....    1
 Number of Electrons    NEL             ....  134
 Basis Dimension        Dim             ....  322

ORBITAL ENERGIES
----------------

  NO   OCC          E(Eh)            E(eV)
   0   2.0000     -88.965528     -2420.8751
   1   2.0000     -88.958018     -2420.6707
   2   2.0000     -10.330822      -281.1159
   3   2.0000     -10.322932      -280.9013
   4   2.0000     -10.317093      -280.7424
   5   2.0000     -10.308646      -280.5125
   6   2.0000     -10.303082      -280.3611
   7   2.0000     -10.300736      -280.2973
   8   2.0000     -10.298971      -280.2492
   9   2.0000     -10.296650      -280.1861
  10   2.0000     -10.293506      -280.1005
  11   2.0000     -10.292401      -280.0705
  12   2.0000     -10.290717      -280.0246
  13   2.0000     -10.287377      -279.9338
  14   2.0000     -10.278437      -279.6905
  15   2.0000     -10.277443      -279.6635
  16   2.0000      -8.080905      -219.8926
  17   2.0000      -8.072564      -219.6656
  18   2.0000      -6.039414      -164.3408
  19   2.0000      -6.035174      -164.2254
  20   2.0000      -6.031737      -164.1319
  21   2.0000      -6.031236      -164.1183
  22   2.0000      -6.027037      -164.0040
  23   2.0000      -6.023181      -163.8991
  24   2.0000      -1.010882       -27.5075
  25   2.0000      -0.985577       -26.8189
  26   2.0000      -0.919771       -25.0283
  27   2.0000      -0.914552       -24.8862
  28   2.0000      -0.874803       -23.8046
  29   2.0000      -0.855635       -23.2830
  30   2.0000      -0.836118       -22.7519
  31   2.0000      -0.818222       -22.2650
  32   2.0000      -0.783773       -21.3275
  33   2.0000      -0.770089       -20.9552
  34   2.0000      -0.712457       -19.3869
  35   2.0000      -0.691646       -18.8207
  36   2.0000      -0.691180       -18.8080
  37   2.0000      -0.659828       -17.9548
  38   2.0000      -0.643383       -17.5073
  39   2.0000      -0.620352       -16.8806
  40   2.0000      -0.599577       -16.3153
  41   2.0000      -0.573872       -15.6158
  42   2.0000      -0.570910       -15.5353
  43   2.0000      -0.556042       -15.1307
  44   2.0000      -0.540920       -14.7192
  45   2.0000      -0.530854       -14.4453
  46   2.0000      -0.522805       -14.2263
  47   2.0000      -0.515098       -14.0165
  48   2.0000      -0.511507       -13.9188
  49   2.0000      -0.508068       -13.8252
  50   2.0000      -0.490816       -13.3558
  51   2.0000      -0.477639       -12.9972
  52   2.0000      -0.470512       -12.8033
  53   2.0000      -0.462909       -12.5964
  54   2.0000      -0.458352       -12.4724
  55   2.0000      -0.447375       -12.1737
  56   2.0000      -0.443292       -12.0626
  57   2.0000      -0.439405       -11.9568
  58   2.0000      -0.434711       -11.8291
  59   2.0000      -0.429520       -11.6878
  60   2.0000      -0.424283       -11.5453
  61   2.0000      -0.402434       -10.9508
  62   2.0000      -0.398991       -10.8571
  63   2.0000      -0.348069        -9.4714
  64   2.0000      -0.330207        -8.9854
  65   2.0000      -0.323797        -8.8110
  66   2.0000      -0.294434        -8.0120
  67   0.0000       0.024816         0.6753
  68   0.0000       0.074158         2.0180
  69   0.0000       0.117272         3.1911
  70   0.0000       0.122043         3.3210
  71   0.0000       0.125890         3.4256

MULLIKEN ATOMIC CHARGES
-----------------------
   0 S :    0.076897
   1 C :   -0.109630
   2 C :   -0.102994
   3 C :    0.010408
   4 C :   -0.144365
   5 H :    0.017277
   6 C :    0.074894
   7 H :    0.047320
   8 H :    0.013453
   9 C :   -0.110258
  10 H :    0.026468
  11 H :    0.036132
  12 C :   -0.020875
  13 H :    0.025875
  14 H :    0.043185
  15 H :    0.034393
  16 S :    0.125132
  17 C :   -0.087170
  18 C :   -0.050883
  19 C :   -0.031227
  20 C :   -0.153915
  21 H :    0.025490
  22 C :    0.032762
  23 H :    0.036482
  24 H :    0.030203
  25 C :   -0.062147
  26 H :    0.035100
  27 H :    0.034218
  28 C :   -0.063740
  29 H :    0.028800
  30 H :    0.028172
  31 H :    0.054215
  32 H :    0.043908
  33 H :    0.056420
Sum of atomic charges:    0.0000000

LOEWDIN ATOMIC CHARGES
----------------------
   0 S :    0.375448
   1 C :   -0.179644
   2 C :   -0.064228
   3 C :   -0.082574
   4 C :   -0.185382
   5 H :    0.032038
   6 C :   -0.026754
   7 H :    0.041449
   8 H :    0.025183
   9 C :   -0.045442
  10 H :    0.027282
  11 H :    0.021526
  12 C :   -0.061472
  13 H :    0.022863
  14 H :    0.026792
  15 H :    0.030613
  16 S :    0.433763
  17 C :   -0.195352
  18 C :   -0.077013
  19 C :   -0.050599
  20 C :   -0.216803
  21 H :    0.033541
  22 C :   -0.034513
  23 H :    0.032462
  24 H :    0.033519
  25 C :   -0.035572
  26 H :    0.028403
  27 H :    0.024412
  28 C :   -0.071163
  29 H :    0.029750
  30 H :    0.022512
  31 H :    0.030225
  32 H :    0.023732
  33 H :    0.031000

  Mayer bond orders larger than 0.100000
B(  0-S ,  1-C ) :   1.1068 B(  0-S ,  4-C ) :   1.1443 B(  1-C ,  2-C ) :   1.6549
B(  1-C , 32-H ) :   0.9719 B(  2-C ,  3-C ) :   1.2181 B(  2-C ,  6-C ) :   1.0154
B(  3-C ,  4-C ) :   1.5901 B(  3-C ,  5-H ) :   0.9782 B(  4-C , 20-C ) :   1.0589
B(  6-C ,  7-H ) :   0.9295 B(  6-C ,  8-H ) :   0.9441 B(  6-C ,  9-C ) :   1.0854
B(  9-C , 10-H ) :   0.9572 B(  9-C , 11-H ) :   0.9516 B(  9-C , 12-C ) :   1.0685
B( 12-C , 13-H ) :   0.9747 B( 12-C , 14-H ) :   0.9781 B( 12-C , 15-H ) :   0.9735
B( 16-S , 17-C ) :   1.1717 B( 16-S , 20-C ) :   1.1461 B( 17-C , 18-C ) :   1.5877
B( 17-C , 20-C ) :   0.1033 B( 17-C , 33-H ) :   0.9675 B( 18-C , 19-C ) :   1.2551
B( 18-C , 21-H ) :   0.9870 B( 19-C , 20-C ) :   1.5621 B( 19-C , 22-C ) :   1.0492
B( 22-C , 23-H ) :   0.9243 B( 22-C , 24-H ) :   0.9369 B( 22-C , 25-C ) :   1.0824
B( 25-C , 26-H ) :   0.9534 B( 25-C , 27-H ) :   0.9531 B( 25-C , 28-C ) :   1.0700
B( 28-C , 29-H ) :   0.9768 B( 28-C , 30-H ) :   0.9691 B( 28-C , 31-H ) :   0.9780

Dispersion correction           -0.014159340
FINAL SINGLE POINT ENERGY     -1339.863976154721

DIPOLE MOMENT
-------------
                                X             Y             Z
Electronic contribution:     22.30179     -16.15192      13.20709
Nuclear contribution   :    -23.01049      16.32908     -13.24273
                        -----------------------------------------
Total Dipole Moment    :     -0.70870       0.17716      -0.03564
                        -----------------------------------------
Magnitude (a.u.)       :      0.73137
Magnitude (Debye)      :      1.85900

Rotational constants in cm-1:     0.017056     0.010000     0.006793
Rotational constants in MHz :   511.338713   299.800364   203.649562

                             ****ORCA TERMINATED NORMALLY****
TOTAL RUN TIME: 0 days 0 hours 0 minutes 22 seconds 145 msec
