                         Program Version 4.2.1 -  RELEASE  -
|  1> ! wB97X-D3 SP def2-SVP
|  2> %pal
|  3> nprocs 24
|  4> end
|  5>
|  6> * xyz 0 1
|  7> S 	 -137.032 	 5.62864 	 0.806368
|  8> C 	 -135.693 	 6.40021 	 0.0784504
|  9> C 	 -134.497 	 6.01017 	 0.706126
| 10> C 	 -134.752 	 5.35625 	 1.95207
| 11> C 	 -136.075 	 5.11946 	 2.09925
| 12> H 	 -133.966 	 5.02121 	 2.63977
| 13> C 	 -133.066 	 6.33732 	 0.32594
| 14> H 	 -132.59 	 6.86077 	 1.08975
| 15> H 	 -133.209 	 6.99199 	 -0.540447
| 16> C 	 -132.156 	 5.27283 	 -0.239762
| 17> H 	 -131.265 	 5.80208 	 -0.658417
| 18> H 	 -131.75 	 4.6272 	 0.551623
| 19> C 	 -132.791 	 4.4311 	 -1.39418
| 20> H 	 -132.936 	 5.03833 	 -2.32615
| 21> H 	 -132.162 	 3.54953 	 -1.56012
| 22> H 	 -133.787 	 4.14301 	 -1.11474
| 23> S 	 -138.185 	 5.15075 	 3.82997
| 24> C 	 -138.371 	 3.90381 	 5.03148
| 25> C 	 -137.545 	 2.8591 	 4.7547
| 26> C 	 -136.552 	 3.20748 	 3.78241
| 27> C 	 -136.786 	 4.41673 	 3.18103
| 28> H 	 -137.725 	 1.93518 	 5.27412
| 29> C 	 -135.541 	 2.14482 	 3.24862
| 30> H 	 -135.345 	 1.40096 	 3.98133
| 31> H 	 -134.651 	 2.68512 	 3.13496
| 32> C 	 -136.031 	 1.48455 	 1.96675
| 33> H 	 -135.489 	 0.628528 	 1.76621
| 34> H 	 -135.803 	 2.15346 	 1.1511
| 35> C 	 -137.496 	 1.17933 	 1.98517
| 36> H 	 -137.749 	 0.547471 	 1.16975
| 37> H 	 -138.021 	 2.06856 	 1.78001
| 38> H 	 -137.841 	 0.739086 	 2.90225
| 39> H 	 -135.693 	 6.92303 	 -0.902069
| 40> H 	 -139.299 	 3.77501 	 5.57381
| 41> *
| 42>
| 43>                          ****END OF INPUT****

CARTESIAN COORDINATES (ANGSTROEM)
---------------------------------
  S    -137.032000    5.628640    0.806368
  C    -135.693000    6.400210    0.078450
  C    -134.497000    6.010170    0.706126
  C    -134.752000    5.356250    1.952070
  C    -136.075000    5.119460    2.099250
  H    -133.966000    5.021210    2.639770
  C    -133.066000    6.337320    0.325940
  H    -132.590000    6.860770    1.089750
  H    -133.209000    6.991990   -0.540447
  C    -132.156000    5.272830   -0.239762
  H    -131.265000    5.802080   -0.658417
  H    -131.750000    4.627200    0.551623
  C    -132.791000    4.431100   -1.394180
  H    -132.936000    5.038330   -2.326150
  H    -132.162000    3.549530   -1.560120
  H    -133.787000    4.143010   -1.114740
  S    -138.185000    5.150750    3.829970
  C    -138.371000    3.903810    5.031480
  C    -137.545000    2.859100    4.754700
  C    -136.552000    3.207480    3.782410
  C    -136.786000    4.416730    3.181030
  H    -137.725000    1.935180    5.274120
  C    -135.541000    2.144820    3.248620
  H    -135.345000    1.400960    3.981330
  H    -134.651000    2.685120    3.134960
  C    -136.031000    1.484550    1.966750
  H    -135.489000    0.628528    1.766210
  H    -135.803000    2.153460    1.151100
  C    -137.496000    1.179330    1.985170
  H    -137.749000    0.547471    1.169750
  H    -138.021000    2.068560    1.780010
  H    -137.841000    0.739086    2.902250
  H    -135.693000    6.923030   -0.902069
  H    -139.299000    3.775010    5.573810

 Total Charge           Charge          ....    0
 Multiplicity           Mult            ....    1
 Number of Electrons    NEL             ....  134
 Basis Dimension        Dim             ....  322

ORBITAL ENERGIES
----------------

  NO   OCC          E(Eh)            E(eV)
   0   2.0000     -88.969764     -2420.9904
   1   2.0000     -88.960800     -2420.7464
   2   2.0000     -10.323644      -280.9206
   3   2.0000     -10.320480      -280.8345
   4   2.0000     -10.315144      -280.6893
   5   2.0000     -10.309481      -280.5352
   6   2.0000     -10.302320      -280.3404
   7   2.0000     -10.299420      -280.2615
   8   2.0000     -10.291055      -280.0338
   9   2.0000     -10.291014      -280.0327
  10   2.0000     -10.290936      -280.0306
  11   2.0000     -10.285307      -279.8774
  12   2.0000     -10.280697      -279.7520
  13   2.0000     -10.280075      -279.7351
  14   2.0000     -10.269213      -279.4395
  15   2.0000     -10.259395      -279.1723
  16   2.0000      -8.086298      -220.0394
  17   2.0000      -8.076728      -219.7789
  18   2.0000      -6.044633      -164.4828
  19   2.0000      -6.040596      -164.3730
  20   2.0000      -6.037078      -164.2773
  21   2.0000      -6.035124      -164.2241
  22   2.0000      -6.031075      -164.1139
  23   2.0000      -6.027522      -164.0172
  24   2.0000      -1.020758       -27.7762
  25   2.0000      -0.994439       -27.0601
  26   2.0000      -0.915388       -24.9090
  27   2.0000      -0.912545       -24.8316
  28   2.0000      -0.870248       -23.6807
  29   2.0000      -0.853938       -23.2368
  30   2.0000      -0.842884       -22.9360
  31   2.0000      -0.816894       -22.2288
  32   2.0000      -0.787859       -21.4387
  33   2.0000      -0.778188       -21.1756
  34   2.0000      -0.708328       -19.2746
  35   2.0000      -0.698189       -18.9987
  36   2.0000      -0.687866       -18.7178
  37   2.0000      -0.662757       -18.0345
  38   2.0000      -0.638756       -17.3814
  39   2.0000      -0.624953       -17.0058
  40   2.0000      -0.588553       -16.0154
  41   2.0000      -0.568763       -15.4768
  42   2.0000      -0.565244       -15.3811
  43   2.0000      -0.557746       -15.1770
  44   2.0000      -0.550199       -14.9717
  45   2.0000      -0.543993       -14.8028
  46   2.0000      -0.517864       -14.0918
  47   2.0000      -0.511795       -13.9266
  48   2.0000      -0.501705       -13.6521
  49   2.0000      -0.493790       -13.4367
  50   2.0000      -0.491958       -13.3869
  51   2.0000      -0.478755       -13.0276
  52   2.0000      -0.470770       -12.8103
  53   2.0000      -0.469106       -12.7650
  54   2.0000      -0.459105       -12.4929
  55   2.0000      -0.452328       -12.3085
  56   2.0000      -0.441826       -12.0227
  57   2.0000      -0.438400       -11.9295
  58   2.0000      -0.436657       -11.8820
  59   2.0000      -0.427840       -11.6421
  60   2.0000      -0.418575       -11.3900
  61   2.0000      -0.412769       -11.2320
  62   2.0000      -0.408506       -11.1160
  63   2.0000      -0.350262        -9.5311
  64   2.0000      -0.333305        -9.0697
  65   2.0000      -0.327994        -8.9252
  66   2.0000      -0.296583        -8.0704
  67   0.0000       0.034859         0.9486
  68   0.0000       0.072816         1.9814
  69   0.0000       0.106645         2.9020
  70   0.0000       0.126415         3.4399
  71   0.0000       0.132273         3.5993

MULLIKEN ATOMIC CHARGES
-----------------------
   0 S :    0.132851
   1 C :   -0.120860
   2 C :   -0.143846
   3 C :    0.016450
   4 C :   -0.127126
   5 H :    0.026609
   6 C :    0.102543
   7 H :    0.024321
   8 H :    0.004668
   9 C :   -0.088957
  10 H :    0.037004
  11 H :    0.026360
  12 C :   -0.064363
  13 H :    0.035093
  14 H :    0.043207
  15 H :    0.037351
  16 S :    0.100136
  17 C :   -0.085409
  18 C :   -0.051791
  19 C :   -0.077730
  20 C :   -0.157458
  21 H :    0.021573
  22 C :    0.134766
  23 H :    0.006563
  24 H :   -0.004245
  25 C :   -0.038209
  26 H :    0.007061
  27 H :    0.022607
  28 C :    0.004979
  29 H :    0.017608
  30 H :    0.020138
  31 H :    0.018574
  32 H :    0.059098
  33 H :    0.060433
Sum of atomic charges:   -0.0000000

LOEWDIN ATOMIC CHARGES
----------------------
   0 S :    0.453448
   1 C :   -0.226390
   2 C :   -0.058801
   3 C :   -0.068631
   4 C :   -0.204595
   5 H :    0.037636
   6 C :   -0.033494
   7 H :    0.025299
   8 H :    0.031327
   9 C :   -0.042301
  10 H :    0.030702
  11 H :    0.018806
  12 C :   -0.066291
  13 H :    0.029442
  14 H :    0.029396
  15 H :    0.021013
  16 S :    0.420012
  17 C :   -0.193305
  18 C :   -0.065864
  19 C :   -0.056892
  20 C :   -0.217095
  21 H :    0.031102
  22 C :   -0.018131
  23 H :    0.022233
  24 H :    0.019760
  25 C :   -0.031604
  26 H :    0.012697
  27 H :    0.024972
  28 C :   -0.054171
  29 H :    0.023004
  30 H :    0.022439
  31 H :    0.020421
  32 H :    0.034825
  33 H :    0.029029

  Mayer bond orders larger than 0.100000
B(  0-S ,  1-C ) :   1.1436 B(  0-S ,  4-C ) :   1.1904 B(  1-C ,  2-C ) :   1.5972
B(  1-C , 32-H ) :   0.9595 B(  2-C ,  3-C ) :   1.2342 B(  2-C ,  6-C ) :   1.0301
B(  3-C ,  4-C ) :   1.5802 B(  3-C ,  5-H ) :   0.9974 B(  4-C , 20-C ) :   0.9899
B(  6-C ,  7-H ) :   0.9416 B(  6-C ,  8-H ) :   0.9315 B(  6-C ,  9-C ) :   1.0772
B(  9-C , 10-H ) :   0.9554 B(  9-C , 11-H ) :   0.9565 B(  9-C , 12-C ) :   1.0682
B( 12-C , 13-H ) :   0.9748 B( 12-C , 14-H ) :   0.9754 B( 12-C , 15-H ) :   0.9761
B( 16-S , 17-C ) :   1.1530 B( 16-S , 20-C ) :   1.1593 B( 17-C , 18-C ) :   1.6243
B( 17-C , 33-H ) :   0.9609 B( 18-C , 19-C ) :   1.2293 B( 18-C , 21-H ) :   0.9902
B( 19-C , 20-C ) :   1.5977 B( 19-C , 22-C ) :   1.0439 B( 22-C , 23-H ) :   0.9320
B( 22-C , 24-H ) :   0.9280 B( 22-C , 25-C ) :   1.0769 B( 25-C , 26-H ) :   0.9559
B( 25-C , 27-H ) :   0.9491 B( 25-C , 28-C ) :   1.0985 B( 28-C , 29-H ) :   0.9672
B( 28-C , 30-H ) :   0.9616 B( 28-C , 31-H ) :   0.9740

Dispersion correction           -0.016185013
FINAL SINGLE POINT ENERGY     -1339.875804727692

DIPOLE MOMENT
-------------
                                X             Y             Z
Electronic contribution:    -17.55118      13.53604      11.26802
Nuclear contribution   :     17.95184     -13.97103     -11.48932
                        -----------------------------------------
Total Dipole Moment    :      0.40066      -0.43499      -0.22130
                        -----------------------------------------
Magnitude (a.u.)       :      0.63144
Magnitude (Debye)      :      1.60499

Rotational constants in cm-1:     0.022932     0.009205     0.007772
Rotational constants in MHz :   687.481496   275.962496   232.984287

                             ****ORCA TERMINATED NORMALLY****
TOTAL RUN TIME: 0 days 0 hours 0 minutes 21 seconds 877 msec
