                         Program Version 4.2.1 -  RELEASE  -
|  1> ! wB97X-D3 SP def2-SVP
|  2> %pal
|  3> nprocs 24
|  4> end
|  5>
|  6> * xyz 0 1
|  7> S 	 32.4049 	 0.121913 	 -114.714
|  8> C 	 31.7178 	 0.916431 	 -116.152
|  9> C 	 30.3552 	 0.729604 	 -116.204
| 10> C 	 29.8477 	 0.133119 	 -115.066
| 11> C 	 30.7979 	 -0.217716 	 -114.062
| 12> H 	 28.8052 	 -0.0155138 	 -114.856
| 13> C 	 29.4649 	 1.4188 	 -117.168
| 14> H 	 28.5313 	 0.871468 	 -117.084
| 15> H 	 29.8232 	 1.20051 	 -118.196
| 16> C 	 29.1827 	 2.9187 	 -116.762
| 17> H 	 28.8509 	 2.9432 	 -115.723
| 18> H 	 30.1388 	 3.44325 	 -116.95
| 19> C 	 28.049 	 3.50208 	 -117.577
| 20> H 	 27.6627 	 4.41478 	 -117.155
| 21> H 	 28.3953 	 3.639 	 -118.563
| 22> H 	 27.2022 	 2.83699 	 -117.599
| 23> S 	 29.807 	 -2.41206 	 -112.83
| 24> C 	 29.88 	 -2.61272 	 -111.052
| 25> C 	 30.4874 	 -1.49081 	 -110.504
| 26> C 	 30.9231 	 -0.526788 	 -111.474
| 27> C 	 30.5734 	 -0.865939 	 -112.779
| 28> H 	 30.6043 	 -1.45999 	 -109.483
| 29> C 	 31.7275 	 0.694974 	 -111.055
| 30> H 	 32.5767 	 0.630626 	 -111.677
| 31> H 	 32.0905 	 0.621344 	 -110.083
| 32> C 	 30.9458 	 2.02052 	 -111.307
| 33> H 	 30.8209 	 1.94153 	 -112.371
| 34> H 	 31.5507 	 2.92935 	 -111.124
| 35> C 	 29.452 	 2.21378 	 -110.839
| 36> H 	 29.2599 	 1.93558 	 -109.8
| 37> H 	 28.7512 	 1.86307 	 -111.519
| 38> H 	 29.3281 	 3.28359 	 -110.843
| 39> H 	 32.2801 	 1.58314 	 -116.845
| 40> H 	 29.425 	 -3.3733 	 -110.493
| 41> *
| 42>
| 43>                          ****END OF INPUT****

CARTESIAN COORDINATES (ANGSTROEM)
---------------------------------
  S     32.404900    0.121913  -114.714000
  C     31.717800    0.916431  -116.152000
  C     30.355200    0.729604  -116.204000
  C     29.847700    0.133119  -115.066000
  C     30.797900   -0.217716  -114.062000
  H     28.805200   -0.015514  -114.856000
  C     29.464900    1.418800  -117.168000
  H     28.531300    0.871468  -117.084000
  H     29.823200    1.200510  -118.196000
  C     29.182700    2.918700  -116.762000
  H     28.850900    2.943200  -115.723000
  H     30.138800    3.443250  -116.950000
  C     28.049000    3.502080  -117.577000
  H     27.662700    4.414780  -117.155000
  H     28.395300    3.639000  -118.563000
  H     27.202200    2.836990  -117.599000
  S     29.807000   -2.412060  -112.830000
  C     29.880000   -2.612720  -111.052000
  C     30.487400   -1.490810  -110.504000
  C     30.923100   -0.526788  -111.474000
  C     30.573400   -0.865939  -112.779000
  H     30.604300   -1.459990  -109.483000
  C     31.727500    0.694974  -111.055000
  H     32.576700    0.630626  -111.677000
  H     32.090500    0.621344  -110.083000
  C     30.945800    2.020520  -111.307000
  H     30.820900    1.941530  -112.371000
  H     31.550700    2.929350  -111.124000
  C     29.452000    2.213780  -110.839000
  H     29.259900    1.935580  -109.800000
  H     28.751200    1.863070  -111.519000
  H     29.328100    3.283590  -110.843000
  H     32.280100    1.583140  -116.845000
  H     29.425000   -3.373300  -110.493000

 Total Charge           Charge          ....    0
 Multiplicity           Mult            ....    1
 Number of Electrons    NEL             ....  134
 Basis Dimension        Dim             ....  322

ORBITAL ENERGIES
----------------

  NO   OCC          E(Eh)            E(eV)
   0   2.0000     -88.968696     -2420.9613
   1   2.0000     -88.964851     -2420.8567
   2   2.0000     -10.335485      -281.2428
   3   2.0000     -10.326229      -280.9910
   4   2.0000     -10.317936      -280.7653
   5   2.0000     -10.317702      -280.7589
   6   2.0000     -10.304677      -280.4045
   7   2.0000     -10.293855      -280.1100
   8   2.0000     -10.293230      -280.0930
   9   2.0000     -10.292677      -280.0780
  10   2.0000     -10.292011      -280.0599
  11   2.0000     -10.290419      -280.0165
  12   2.0000     -10.283032      -279.8155
  13   2.0000     -10.281586      -279.7762
  14   2.0000     -10.271054      -279.4896
  15   2.0000     -10.269492      -279.4471
  16   2.0000      -8.082130      -219.9259
  17   2.0000      -8.079218      -219.8467
  18   2.0000      -6.040634      -164.3740
  19   2.0000      -6.037797      -164.2968
  20   2.0000      -6.036683      -164.2665
  21   2.0000      -6.033633      -164.1835
  22   2.0000      -6.033108      -164.1692
  23   2.0000      -6.030047      -164.0859
  24   2.0000      -1.004218       -27.3262
  25   2.0000      -0.982778       -26.7427
  26   2.0000      -0.913459       -24.8565
  27   2.0000      -0.901133       -24.5211
  28   2.0000      -0.871987       -23.7280
  29   2.0000      -0.853225       -23.2174
  30   2.0000      -0.839906       -22.8550
  31   2.0000      -0.814086       -22.1524
  32   2.0000      -0.785774       -21.3820
  33   2.0000      -0.772471       -21.0200
  34   2.0000      -0.710373       -19.3302
  35   2.0000      -0.703456       -19.1420
  36   2.0000      -0.689826       -18.7711
  37   2.0000      -0.671023       -18.2595
  38   2.0000      -0.636824       -17.3289
  39   2.0000      -0.617622       -16.8064
  40   2.0000      -0.589530       -16.0419
  41   2.0000      -0.571401       -15.5486
  42   2.0000      -0.568901       -15.4806
  43   2.0000      -0.556407       -15.1406
  44   2.0000      -0.539384       -14.6774
  45   2.0000      -0.529848       -14.4179
  46   2.0000      -0.518861       -14.1189
  47   2.0000      -0.514719       -14.0062
  48   2.0000      -0.506148       -13.7730
  49   2.0000      -0.498251       -13.5581
  50   2.0000      -0.490977       -13.3602
  51   2.0000      -0.478643       -13.0245
  52   2.0000      -0.470270       -12.7967
  53   2.0000      -0.467449       -12.7199
  54   2.0000      -0.459313       -12.4986
  55   2.0000      -0.449552       -12.2329
  56   2.0000      -0.438999       -11.9458
  57   2.0000      -0.435891       -11.8612
  58   2.0000      -0.433753       -11.8030
  59   2.0000      -0.425294       -11.5728
  60   2.0000      -0.419033       -11.4025
  61   2.0000      -0.417565       -11.3625
  62   2.0000      -0.405152       -11.0247
  63   2.0000      -0.338994        -9.2245
  64   2.0000      -0.334327        -9.0975
  65   2.0000      -0.325915        -8.8686
  66   2.0000      -0.295600        -8.0437
  67   0.0000       0.022918         0.6236
  68   0.0000       0.066215         1.8018
  69   0.0000       0.112002         3.0477
  70   0.0000       0.118325         3.2198
  71   0.0000       0.128842         3.5060

MULLIKEN ATOMIC CHARGES
-----------------------
   0 S :    0.112985
   1 C :   -0.151991
   2 C :   -0.049439
   3 C :    0.022922
   4 C :   -0.174117
   5 H :    0.005129
   6 C :    0.030040
   7 H :    0.010950
   8 H :    0.037135
   9 C :   -0.067027
  10 H :    0.034579
  11 H :    0.036100
  12 C :    0.001082
  13 H :    0.030266
  14 H :    0.020392
  15 H :    0.017881
  16 S :    0.111020
  17 C :   -0.081179
  18 C :   -0.013849
  19 C :   -0.058149
  20 C :   -0.168003
  21 H :   -0.010283
  22 C :    0.174477
  23 H :    0.012546
  24 H :   -0.003822
  25 C :   -0.116927
  26 H :    0.030007
  27 H :    0.038196
  28 C :   -0.011136
  29 H :    0.029595
  30 H :    0.027263
  31 H :    0.017656
  32 H :    0.063678
  33 H :    0.042024
Sum of atomic charges:    0.0000000

LOEWDIN ATOMIC CHARGES
----------------------
   0 S :    0.396629
   1 C :   -0.191659
   2 C :   -0.075760
   3 C :   -0.061366
   4 C :   -0.193886
   5 H :    0.027268
   6 C :   -0.034913
   7 H :    0.026243
   8 H :    0.033881
   9 C :   -0.029355
  10 H :    0.027911
  11 H :    0.026690
  12 C :   -0.058884
  13 H :    0.025429
  14 H :    0.019806
  15 H :    0.022450
  16 S :    0.410375
  17 C :   -0.165427
  18 C :   -0.057457
  19 C :   -0.046477
  20 C :   -0.216938
  21 H :    0.018392
  22 C :   -0.020611
  23 H :    0.025957
  24 H :    0.016223
  25 C :   -0.042054
  26 H :    0.025097
  27 H :    0.025428
  28 C :   -0.059573
  29 H :    0.023386
  30 H :    0.017610
  31 H :    0.028630
  32 H :    0.036512
  33 H :    0.020443

  Mayer bond orders larger than 0.100000
B(  0-S ,  1-C ) :   1.1472 B(  0-S ,  4-C ) :   1.1549 B(  1-C ,  2-C ) :   1.5655
B(  1-C ,  4-C ) :   0.1149 B(  1-C , 32-H ) :   0.9650 B(  2-C ,  3-C ) :   1.2823
B(  2-C ,  6-C ) :   1.0396 B(  3-C ,  4-C ) :   1.5276 B(  3-C ,  5-H ) :   0.9973
B(  4-C , 20-C ) :   1.0468 B(  6-C ,  7-H ) :   0.9373 B(  6-C ,  8-H ) :   0.9370
B(  6-C ,  9-C ) :   1.0527 B(  9-C , 10-H ) :   0.9567 B(  9-C , 11-H ) :   0.9572
B(  9-C , 12-C ) :   1.0867 B( 12-C , 13-H ) :   0.9733 B( 12-C , 14-H ) :   0.9736
B( 12-C , 15-H ) :   0.9730 B( 16-S , 17-C ) :   1.1515 B( 16-S , 20-C ) :   1.1518
B( 17-C , 18-C ) :   1.5969 B( 17-C , 20-C ) :   0.1015 B( 17-C , 33-H ) :   0.9753
B( 18-C , 19-C ) :   1.2479 B( 18-C , 21-H ) :   1.0031 B( 19-C , 20-C ) :   1.5582
B( 19-C , 22-C ) :   1.0324 B( 22-C , 23-H ) :   0.9282 B( 22-C , 24-H ) :   0.9325
B( 22-C , 25-C ) :   1.0572 B( 25-C , 26-H ) :   0.9575 B( 25-C , 27-H ) :   0.9646
B( 25-C , 28-C ) :   1.0679 B( 28-C , 29-H ) :   0.9791 B( 28-C , 30-H ) :   0.9782
B( 28-C , 31-H ) :   0.9717

Dispersion correction           -0.015147331
FINAL SINGLE POINT ENERGY     -1339.865798847529

DIPOLE MOMENT
-------------
                                X             Y             Z
Electronic contribution:     10.69242     -22.86942       2.85414
Nuclear contribution   :    -10.97508      23.36363      -2.79964
                        -----------------------------------------
Total Dipole Moment    :     -0.28266       0.49421       0.05450
                        -----------------------------------------
Magnitude (a.u.)       :      0.57193
Magnitude (Debye)      :      1.45374

Rotational constants in cm-1:     0.020183     0.008281     0.007580
Rotational constants in MHz :   605.072020   248.256450   227.243818

                             ****ORCA TERMINATED NORMALLY****
TOTAL RUN TIME: 0 days 0 hours 0 minutes 22 seconds 284 msec
