                         Program Version 4.2.1 -  RELEASE  -
|  1> ! wB97X-D3 SP def2-SVP
|  2> %pal
|  3> nprocs 24
|  4> end
|  5>
|  6> * xyz 0 1
|  7> S 	 -47.272 	 17.2304 	 29.5387
|  8> C 	 -47.3778 	 16.7107 	 27.8592
|  9> C 	 -47.8596 	 17.792 	 27.0419
| 10> C 	 -48.1415 	 18.972 	 27.7667
| 11> C 	 -47.9047 	 18.8762 	 29.1333
| 12> H 	 -48.5379 	 19.8867 	 27.3549
| 13> C 	 -48.0678 	 17.7529 	 25.5649
| 14> H 	 -47.8804 	 18.7644 	 25.1966
| 15> H 	 -49.092 	 17.5706 	 25.3053
| 16> C 	 -47.1694 	 16.7798 	 24.813
| 17> H 	 -46.0781 	 17.0068 	 25.0629
| 18> H 	 -47.1831 	 15.8329 	 25.1954
| 19> C 	 -47.4108 	 16.834 	 23.3021
| 20> H 	 -46.8776 	 16.1106 	 22.6877
| 21> H 	 -48.454 	 16.6834 	 23.1507
| 22> H 	 -47.0898 	 17.8335 	 22.9612
| 23> S 	 -49.1887 	 19.3905 	 31.5404
| 24> C 	 -49.0106 	 21.0252 	 32.1717
| 25> C 	 -48.6237 	 21.9459 	 31.2437
| 26> C 	 -48.0652 	 21.2925 	 30.0757
| 27> C 	 -48.1557 	 19.9061 	 30.1156
| 28> H 	 -48.596 	 22.9984 	 31.4061
| 29> C 	 -47.2847 	 21.9954 	 28.9537
| 30> H 	 -47.2107 	 23.0259 	 29.3024
| 31> H 	 -47.8472 	 22.0356 	 28.0937
| 32> C 	 -45.988 	 21.3356 	 28.4843
| 33> H 	 -45.5151 	 21.9535 	 27.7304
| 34> H 	 -46.1611 	 20.4387 	 27.9448
| 35> C 	 -45.0226 	 20.874 	 29.6022
| 36> H 	 -44.5549 	 21.7199 	 30.0946
| 37> H 	 -44.2384 	 20.1578 	 29.3523
| 38> H 	 -45.4988 	 20.3422 	 30.3572
| 39> H 	 -47.1932 	 15.7944 	 27.411
| 40> H 	 -49.4809 	 21.2948 	 33.1423
| 41> *
| 42>
| 43>                          ****END OF INPUT****

CARTESIAN COORDINATES (ANGSTROEM)
---------------------------------
  S    -47.272000   17.230400   29.538700
  C    -47.377800   16.710700   27.859200
  C    -47.859600   17.792000   27.041900
  C    -48.141500   18.972000   27.766700
  C    -47.904700   18.876200   29.133300
  H    -48.537900   19.886700   27.354900
  C    -48.067800   17.752900   25.564900
  H    -47.880400   18.764400   25.196600
  H    -49.092000   17.570600   25.305300
  C    -47.169400   16.779800   24.813000
  H    -46.078100   17.006800   25.062900
  H    -47.183100   15.832900   25.195400
  C    -47.410800   16.834000   23.302100
  H    -46.877600   16.110600   22.687700
  H    -48.454000   16.683400   23.150700
  H    -47.089800   17.833500   22.961200
  S    -49.188700   19.390500   31.540400
  C    -49.010600   21.025200   32.171700
  C    -48.623700   21.945900   31.243700
  C    -48.065200   21.292500   30.075700
  C    -48.155700   19.906100   30.115600
  H    -48.596000   22.998400   31.406100
  C    -47.284700   21.995400   28.953700
  H    -47.210700   23.025900   29.302400
  H    -47.847200   22.035600   28.093700
  C    -45.988000   21.335600   28.484300
  H    -45.515100   21.953500   27.730400
  H    -46.161100   20.438700   27.944800
  C    -45.022600   20.874000   29.602200
  H    -44.554900   21.719900   30.094600
  H    -44.238400   20.157800   29.352300
  H    -45.498800   20.342200   30.357200
  H    -47.193200   15.794400   27.411000
  H    -49.480900   21.294800   33.142300

 Total Charge           Charge          ....    0
 Multiplicity           Mult            ....    1
 Number of Electrons    NEL             ....  134
 Basis Dimension        Dim             ....  322

ORBITAL ENERGIES
----------------

  NO   OCC          E(Eh)            E(eV)
   0   2.0000     -88.973377     -2421.0887
   1   2.0000     -88.962141     -2420.7829
   2   2.0000     -10.334432      -281.2142
   3   2.0000     -10.329126      -281.0698
   4   2.0000     -10.321305      -280.8570
   5   2.0000     -10.318209      -280.7727
   6   2.0000     -10.308635      -280.5122
   7   2.0000     -10.304789      -280.4076
   8   2.0000     -10.297483      -280.2088
   9   2.0000     -10.295608      -280.1577
  10   2.0000     -10.290581      -280.0209
  11   2.0000     -10.289383      -279.9883
  12   2.0000     -10.284701      -279.8609
  13   2.0000     -10.279826      -279.7283
  14   2.0000     -10.278650      -279.6963
  15   2.0000     -10.260330      -279.1978
  16   2.0000      -8.086137      -220.0350
  17   2.0000      -8.076012      -219.7595
  18   2.0000      -6.044803      -164.4874
  19   2.0000      -6.040801      -164.3785
  20   2.0000      -6.036965      -164.2742
  21   2.0000      -6.034548      -164.2084
  22   2.0000      -6.031008      -164.1121
  23   2.0000      -6.026419      -163.9872
  24   2.0000      -0.998443       -27.1690
  25   2.0000      -0.976344       -26.5677
  26   2.0000      -0.916912       -24.9504
  27   2.0000      -0.907151       -24.6848
  28   2.0000      -0.866983       -23.5918
  29   2.0000      -0.853994       -23.2384
  30   2.0000      -0.841568       -22.9002
  31   2.0000      -0.812865       -22.1192
  32   2.0000      -0.787924       -21.4405
  33   2.0000      -0.770257       -20.9598
  34   2.0000      -0.722375       -19.6568
  35   2.0000      -0.707704       -19.2576
  36   2.0000      -0.689154       -18.7528
  37   2.0000      -0.664357       -18.0781
  38   2.0000      -0.642902       -17.4943
  39   2.0000      -0.616189       -16.7673
  40   2.0000      -0.591753       -16.1024
  41   2.0000      -0.572512       -15.5788
  42   2.0000      -0.567114       -15.4320
  43   2.0000      -0.556226       -15.1357
  44   2.0000      -0.541895       -14.7457
  45   2.0000      -0.525664       -14.3041
  46   2.0000      -0.521474       -14.1900
  47   2.0000      -0.509327       -13.8595
  48   2.0000      -0.505957       -13.7678
  49   2.0000      -0.491617       -13.3776
  50   2.0000      -0.490205       -13.3392
  51   2.0000      -0.478404       -13.0180
  52   2.0000      -0.475040       -12.9265
  53   2.0000      -0.461423       -12.5560
  54   2.0000      -0.457645       -12.4532
  55   2.0000      -0.451565       -12.2877
  56   2.0000      -0.446830       -12.1589
  57   2.0000      -0.437038       -11.8924
  58   2.0000      -0.431297       -11.7362
  59   2.0000      -0.427171       -11.6239
  60   2.0000      -0.422038       -11.4843
  61   2.0000      -0.418171       -11.3790
  62   2.0000      -0.408942       -11.1279
  63   2.0000      -0.347488        -9.4556
  64   2.0000      -0.330442        -8.9918
  65   2.0000      -0.328463        -8.9379
  66   2.0000      -0.286977        -7.8091
  67   0.0000       0.016006         0.4355
  68   0.0000       0.066442         1.8080
  69   0.0000       0.095571         2.6006
  70   0.0000       0.113463         3.0875
  71   0.0000       0.131329         3.5736

MULLIKEN ATOMIC CHARGES
-----------------------
   0 S :    0.123593
   1 C :   -0.077267
   2 C :   -0.104491
   3 C :    0.027759
   4 C :   -0.160521
   5 H :    0.010407
   6 C :    0.087444
   7 H :    0.016692
   8 H :    0.032874
   9 C :   -0.098353
  10 H :    0.027471
  11 H :    0.004241
  12 C :   -0.014444
  13 H :    0.033901
  14 H :    0.023144
  15 H :    0.030401
  16 S :    0.078896
  17 C :   -0.085791
  18 C :   -0.011197
  19 C :   -0.082901
  20 C :   -0.146541
  21 H :    0.013473
  22 C :    0.135194
  23 H :    0.013327
  24 H :    0.011135
  25 C :   -0.063283
  26 H :    0.022199
  27 H :    0.029230
  28 C :   -0.023149
  29 H :    0.019449
  30 H :    0.026467
  31 H :    0.014948
  32 H :    0.016650
  33 H :    0.069042
Sum of atomic charges:    0.0000000

LOEWDIN ATOMIC CHARGES
----------------------
   0 S :    0.393167
   1 C :   -0.192349
   2 C :   -0.056615
   3 C :   -0.054664
   4 C :   -0.181358
   5 H :    0.031613
   6 C :   -0.030384
   7 H :    0.031576
   8 H :    0.030880
   9 C :   -0.042764
  10 H :    0.030925
  11 H :    0.005105
  12 C :   -0.057509
  13 H :    0.026883
  14 H :    0.020596
  15 H :    0.028533
  16 S :    0.357328
  17 C :   -0.171549
  18 C :   -0.067975
  19 C :   -0.046586
  20 C :   -0.174757
  21 H :    0.029637
  22 C :   -0.022696
  23 H :    0.030350
  24 H :    0.022139
  25 C :   -0.037723
  26 H :    0.025665
  27 H :    0.022958
  28 C :   -0.064748
  29 H :    0.020898
  30 H :    0.028993
  31 H :    0.016613
  32 H :    0.014293
  33 H :    0.033523

  Mayer bond orders larger than 0.100000
B(  0-S ,  1-C ) :   1.1343 B(  0-S ,  4-C ) :   1.1393 B(  1-C ,  2-C ) :   1.5748
B(  1-C ,  4-C ) :   0.1080 B(  1-C , 32-H ) :   0.9756 B(  2-C ,  3-C ) :   1.2737
B(  2-C ,  6-C ) :   1.0203 B(  3-C ,  4-C ) :   1.5424 B(  3-C ,  5-H ) :   0.9912
B(  4-C , 20-C ) :   1.0805 B(  6-C ,  7-H ) :   0.9443 B(  6-C ,  8-H ) :   0.9264
B(  6-C ,  9-C ) :   1.0634 B(  9-C , 10-H ) :   0.9559 B(  9-C , 11-H ) :   0.9512
B(  9-C , 12-C ) :   1.0797 B( 12-C , 13-H ) :   0.9739 B( 12-C , 14-H ) :   0.9749
B( 12-C , 15-H ) :   0.9762 B( 16-S , 17-C ) :   1.1401 B( 16-S , 20-C ) :   1.1035
B( 17-C , 18-C ) :   1.6376 B( 17-C , 33-H ) :   0.9592 B( 18-C , 19-C ) :   1.2128
B( 18-C , 21-H ) :   0.9926 B( 19-C , 20-C ) :   1.6237 B( 19-C , 22-C ) :   1.0296
B( 22-C , 23-H ) :   0.9330 B( 22-C , 24-H ) :   0.9197 B( 22-C , 25-C ) :   1.0783
B( 25-C , 26-H ) :   0.9501 B( 25-C , 27-H ) :   0.9441 B( 25-C , 28-C ) :   1.0764
B( 28-C , 29-H ) :   0.9770 B( 28-C , 30-H ) :   0.9745 B( 28-C , 31-H ) :   0.9688

Dispersion correction           -0.015499464
FINAL SINGLE POINT ENERGY     -1339.859846501314

DIPOLE MOMENT
-------------
                                X             Y             Z
Electronic contribution:    -10.66235      -4.22332      24.43498
Nuclear contribution   :     10.60061       4.57845     -25.08574
                        -----------------------------------------
Total Dipole Moment    :     -0.06174       0.35513      -0.65076
                        -----------------------------------------
Magnitude (a.u.)       :      0.74392
Magnitude (Debye)      :      1.89090

Rotational constants in cm-1:     0.023974     0.007968     0.007015
Rotational constants in MHz :   718.719109   238.879904   210.298622

                             ****ORCA TERMINATED NORMALLY****
TOTAL RUN TIME: 0 days 0 hours 0 minutes 23 seconds 884 msec
