                         Program Version 4.2.1 -  RELEASE  -
|  1> ! wB97X-D3 SP def2-SVP
|  2> %pal
|  3> nprocs 24
|  4> end
|  5>
|  6> * xyz 0 1
|  7> S 	 -131.364 	 63.6494 	 -62.002
|  8> C 	 -132.78 	 64.6114 	 -62.3365
|  9> C 	 -133.791 	 64.3227 	 -61.3959
| 10> C 	 -133.563 	 63.0721 	 -60.7104
| 11> C 	 -132.289 	 62.6735 	 -60.8392
| 12> H 	 -134.122 	 62.525 	 -60.0098
| 13> C 	 -135.121 	 65.0614 	 -61.4537
| 14> H 	 -134.959 	 66.1038 	 -61.7135
| 15> H 	 -135.563 	 65.1067 	 -60.462
| 16> C 	 -136.281 	 64.5694 	 -62.3431
| 17> H 	 -136.485 	 63.5445 	 -62.1024
| 18> H 	 -137.197 	 65.0969 	 -62.0628
| 19> C 	 -136.003 	 64.7764 	 -63.7602
| 20> H 	 -136.919 	 64.4626 	 -64.3189
| 21> H 	 -135.668 	 65.8109 	 -63.9965
| 22> H 	 -135.083 	 64.299 	 -64.1027
| 23> S 	 -131.216 	 60.1236 	 -61.2421
| 24> C 	 -130.665 	 59.1701 	 -59.9398
| 25> C 	 -131.166 	 59.6795 	 -58.7337
| 26> C 	 -131.709 	 60.9873 	 -58.8787
| 27> C 	 -131.786 	 61.4181 	 -60.1851
| 28> H 	 -131.031 	 59.101 	 -57.7972
| 29> C 	 -132.021 	 61.8806 	 -57.6835
| 30> H 	 -131.693 	 62.8421 	 -57.8149
| 31> H 	 -131.38 	 61.5855 	 -56.8687
| 32> C 	 -133.458 	 61.7242 	 -57.231
| 33> H 	 -133.697 	 60.6665 	 -56.9456
| 34> H 	 -134.05 	 61.8519 	 -58.1515
| 35> C 	 -134.002 	 62.7336 	 -56.1879
| 36> H 	 -135.029 	 62.7266 	 -56.3787
| 37> H 	 -133.485 	 63.6825 	 -56.2761
| 38> H 	 -133.905 	 62.4642 	 -55.0814
| 39> H 	 -132.794 	 65.386 	 -63.1004
| 40> H 	 -130.035 	 58.3535 	 -60.1026
| 41> *
| 42>
| 43>                          ****END OF INPUT****

CARTESIAN COORDINATES (ANGSTROEM)
---------------------------------
  S    -131.364000   63.649400  -62.002000
  C    -132.780000   64.611400  -62.336500
  C    -133.791000   64.322700  -61.395900
  C    -133.563000   63.072100  -60.710400
  C    -132.289000   62.673500  -60.839200
  H    -134.122000   62.525000  -60.009800
  C    -135.121000   65.061400  -61.453700
  H    -134.959000   66.103800  -61.713500
  H    -135.563000   65.106700  -60.462000
  C    -136.281000   64.569400  -62.343100
  H    -136.485000   63.544500  -62.102400
  H    -137.197000   65.096900  -62.062800
  C    -136.003000   64.776400  -63.760200
  H    -136.919000   64.462600  -64.318900
  H    -135.668000   65.810900  -63.996500
  H    -135.083000   64.299000  -64.102700
  S    -131.216000   60.123600  -61.242100
  C    -130.665000   59.170100  -59.939800
  C    -131.166000   59.679500  -58.733700
  C    -131.709000   60.987300  -58.878700
  C    -131.786000   61.418100  -60.185100
  H    -131.031000   59.101000  -57.797200
  C    -132.021000   61.880600  -57.683500
  H    -131.693000   62.842100  -57.814900
  H    -131.380000   61.585500  -56.868700
  C    -133.458000   61.724200  -57.231000
  H    -133.697000   60.666500  -56.945600
  H    -134.050000   61.851900  -58.151500
  C    -134.002000   62.733600  -56.187900
  H    -135.029000   62.726600  -56.378700
  H    -133.485000   63.682500  -56.276100
  H    -133.905000   62.464200  -55.081400
  H    -132.794000   65.386000  -63.100400
  H    -130.035000   58.353500  -60.102600

 Total Charge           Charge          ....    0
 Multiplicity           Mult            ....    1
 Number of Electrons    NEL             ....  134
 Basis Dimension        Dim             ....  322

ORBITAL ENERGIES
----------------

  NO   OCC          E(Eh)            E(eV)
   0   2.0000     -88.967906     -2420.9398
   1   2.0000     -88.960180     -2420.7296
   2   2.0000     -10.329854      -281.0896
   3   2.0000     -10.326328      -280.9937
   4   2.0000     -10.321279      -280.8563
   5   2.0000     -10.313385      -280.6415
   6   2.0000     -10.309443      -280.5342
   7   2.0000     -10.303397      -280.3697
   8   2.0000     -10.297851      -280.2188
   9   2.0000     -10.292326      -280.0684
  10   2.0000     -10.290074      -280.0071
  11   2.0000     -10.287168      -279.9281
  12   2.0000     -10.281061      -279.7619
  13   2.0000     -10.279912      -279.7306
  14   2.0000     -10.279093      -279.7083
  15   2.0000     -10.274269      -279.5771
  16   2.0000      -8.082298      -219.9305
  17   2.0000      -8.075854      -219.7552
  18   2.0000      -6.040817      -164.3790
  19   2.0000      -6.036868      -164.2715
  20   2.0000      -6.034193      -164.1987
  21   2.0000      -6.033040      -164.1674
  22   2.0000      -6.030132      -164.0882
  23   2.0000      -6.026833      -163.9985
  24   2.0000      -1.006714       -27.3941
  25   2.0000      -0.986604       -26.8469
  26   2.0000      -0.915062       -24.9001
  27   2.0000      -0.911636       -24.8069
  28   2.0000      -0.868763       -23.6402
  29   2.0000      -0.851974       -23.1834
  30   2.0000      -0.848749       -23.0956
  31   2.0000      -0.815308       -22.1856
  32   2.0000      -0.785742       -21.3811
  33   2.0000      -0.772740       -21.0273
  34   2.0000      -0.702518       -19.1165
  35   2.0000      -0.699493       -19.0342
  36   2.0000      -0.691264       -18.8103
  37   2.0000      -0.663416       -18.0525
  38   2.0000      -0.651936       -17.7401
  39   2.0000      -0.618332       -16.8257
  40   2.0000      -0.601705       -16.3732
  41   2.0000      -0.567048       -15.4302
  42   2.0000      -0.556634       -15.1468
  43   2.0000      -0.551359       -15.0033
  44   2.0000      -0.543928       -14.8010
  45   2.0000      -0.539570       -14.6824
  46   2.0000      -0.522780       -14.2256
  47   2.0000      -0.513283       -13.9671
  48   2.0000      -0.509243       -13.8572
  49   2.0000      -0.501587       -13.6489
  50   2.0000      -0.486699       -13.2438
  51   2.0000      -0.483805       -13.1650
  52   2.0000      -0.474901       -12.9227
  53   2.0000      -0.459812       -12.5121
  54   2.0000      -0.459421       -12.5015
  55   2.0000      -0.448674       -12.2090
  56   2.0000      -0.447151       -12.1676
  57   2.0000      -0.441931       -12.0255
  58   2.0000      -0.430675       -11.7193
  59   2.0000      -0.425149       -11.5689
  60   2.0000      -0.416379       -11.3303
  61   2.0000      -0.406965       -11.0741
  62   2.0000      -0.404816       -11.0156
  63   2.0000      -0.344403        -9.3717
  64   2.0000      -0.331005        -9.0071
  65   2.0000      -0.322646        -8.7796
  66   2.0000      -0.301798        -8.2123
  67   0.0000       0.029695         0.8080
  68   0.0000       0.068763         1.8711
  69   0.0000       0.111248         3.0272
  70   0.0000       0.119041         3.2393
  71   0.0000       0.133986         3.6459

MULLIKEN ATOMIC CHARGES
-----------------------
   0 S :    0.118954
   1 C :   -0.134130
   2 C :   -0.052487
   3 C :    0.062851
   4 C :   -0.136344
   5 H :   -0.008366
   6 C :    0.026002
   7 H :    0.015754
   8 H :    0.018139
   9 C :   -0.022935
  10 H :    0.017781
  11 H :    0.024015
  12 C :   -0.055142
  13 H :    0.048007
  14 H :    0.011903
  15 H :    0.027413
  16 S :    0.103062
  17 C :   -0.087013
  18 C :   -0.042817
  19 C :   -0.055883
  20 C :   -0.181799
  21 H :    0.033479
  22 C :    0.139837
  23 H :    0.004144
  24 H :    0.006423
  25 C :   -0.105977
  26 H :    0.030712
  27 H :    0.008342
  28 C :   -0.021627
  29 H :    0.028105
  30 H :    0.033912
  31 H :    0.039948
  32 H :    0.059934
  33 H :    0.045802
Sum of atomic charges:   -0.0000000

LOEWDIN ATOMIC CHARGES
----------------------
   0 S :    0.394274
   1 C :   -0.192046
   2 C :   -0.057463
   3 C :   -0.048573
   4 C :   -0.184070
   5 H :    0.024771
   6 C :   -0.038312
   7 H :    0.026680
   8 H :    0.029308
   9 C :   -0.040373
  10 H :    0.020850
  11 H :    0.026687
  12 C :   -0.075187
  13 H :    0.034433
  14 H :    0.023932
  15 H :    0.025059
  16 S :    0.415883
  17 C :   -0.184673
  18 C :   -0.076782
  19 C :   -0.055289
  20 C :   -0.196124
  21 H :    0.037184
  22 C :   -0.025251
  23 H :    0.019644
  24 H :    0.029045
  25 C :   -0.042604
  26 H :    0.029394
  27 H :    0.018141
  28 C :   -0.065724
  29 H :    0.021799
  30 H :    0.026086
  31 H :    0.032468
  32 H :    0.028814
  33 H :    0.018020

  Mayer bond orders larger than 0.100000
B(  0-S ,  1-C ) :   1.1444 B(  0-S ,  4-C ) :   1.1312 B(  1-C ,  2-C ) :   1.5912
B(  1-C , 32-H ) :   0.9702 B(  2-C ,  3-C ) :   1.1879 B(  2-C ,  6-C ) :   1.0526
B(  3-C ,  4-C ) :   1.6281 B(  3-C ,  5-H ) :   0.9947 B(  4-C , 20-C ) :   1.0104
B(  6-C ,  7-H ) :   0.9416 B(  6-C ,  8-H ) :   0.9348 B(  6-C ,  9-C ) :   1.0752
B(  9-C , 10-H ) :   0.9479 B(  9-C , 11-H ) :   0.9475 B(  9-C , 12-C ) :   1.0933
B( 12-C , 13-H ) :   0.9693 B( 12-C , 14-H ) :   0.9682 B( 12-C , 15-H ) :   0.9678
B( 16-S , 17-C ) :   1.1886 B( 16-S , 20-C ) :   1.1464 B( 17-C , 18-C ) :   1.5618
B( 17-C , 20-C ) :   0.1023 B( 17-C , 33-H ) :   0.9805 B( 18-C , 19-C ) :   1.2619
B( 18-C , 21-H ) :   0.9874 B( 19-C , 20-C ) :   1.6026 B( 19-C , 22-C ) :   1.0394
B( 22-C , 23-H ) :   0.9311 B( 22-C , 24-H ) :   0.9276 B( 22-C , 25-C ) :   1.0598
B( 25-C , 26-H ) :   0.9473 B( 25-C , 27-H ) :   0.9616 B( 25-C , 28-C ) :   1.0676
B( 28-C , 29-H ) :   0.9756 B( 28-C , 30-H ) :   0.9752 B( 28-C , 31-H ) :   0.9764

Dispersion correction           -0.014602598
FINAL SINGLE POINT ENERGY     -1339.860137077995

DIPOLE MOMENT
-------------
                                X             Y             Z
Electronic contribution:     21.58957     -10.44757     -10.39096
Nuclear contribution   :    -21.96166      10.55747      10.80126
                        -----------------------------------------
Total Dipole Moment    :     -0.37209       0.10990       0.41030
                        -----------------------------------------
Magnitude (a.u.)       :      0.56469
Magnitude (Debye)      :      1.43534

Rotational constants in cm-1:     0.018099     0.008892     0.006878
Rotational constants in MHz :   542.588477   266.582198   206.202672

                             ****ORCA TERMINATED NORMALLY****
TOTAL RUN TIME: 0 days 0 hours 0 minutes 20 seconds 700 msec
