                         Program Version 4.2.1 -  RELEASE  -
|  1> ! wB97X-D3 SP def2-SVP
|  2> %pal
|  3> nprocs 24
|  4> end
|  5>
|  6> * xyz 0 1
|  7> S 	 -62.8085 	 8.47039 	 -76.8582
|  8> C 	 -62.5141 	 6.8396 	 -76.3661
|  9> C 	 -62.9772 	 5.85621 	 -77.2133
| 10> C 	 -63.5666 	 6.48638 	 -78.3802
| 11> C 	 -63.724 	 7.83281 	 -78.2345
| 12> H 	 -64.107 	 5.92559 	 -79.1506
| 13> C 	 -62.8153 	 4.32372 	 -77.0102
| 14> H 	 -63.8187 	 3.85004 	 -77.2775
| 15> H 	 -62.7104 	 4.13603 	 -75.9181
| 16> C 	 -61.7047 	 3.6796 	 -77.9448
| 17> H 	 -61.9407 	 2.60472 	 -78.1377
| 18> H 	 -61.788 	 4.07771 	 -78.9707
| 19> C 	 -60.3669 	 3.93893 	 -77.3244
| 20> H 	 -60.016 	 4.974 	 -77.3152
| 21> H 	 -60.3733 	 3.71746 	 -76.2823
| 22> H 	 -59.5032 	 3.47864 	 -77.7621
| 23> S 	 -65.4632 	 9.99093 	 -78.2916
| 24> C 	 -65.9408 	 10.6495 	 -79.8058
| 25> C 	 -65.4246 	 9.91833 	 -80.8614
| 26> C 	 -64.6147 	 8.78824 	 -80.4915
| 27> C 	 -64.4973 	 8.7401 	 -79.1
| 28> H 	 -65.6452 	 10.1778 	 -81.8795
| 29> C 	 -63.9438 	 7.86393 	 -81.5022
| 30> H 	 -63.4522 	 6.97177 	 -81.0626
| 31> H 	 -63.0177 	 8.39344 	 -81.7559
| 32> C 	 -64.7696 	 7.61475 	 -82.7663
| 33> H 	 -65.0262 	 8.56059 	 -83.255
| 34> H 	 -65.7037 	 7.08751 	 -82.3958
| 35> C 	 -64.0891 	 6.7816 	 -83.823
| 36> H 	 -63.8427 	 5.81152 	 -83.3606
| 37> H 	 -63.3258 	 7.40895 	 -84.1585
| 38> H 	 -64.7946 	 6.57009 	 -84.6953
| 39> H 	 -61.8904 	 6.45127 	 -75.6073
| 40> H 	 -66.4742 	 11.5988 	 -80.012
| 41> *
| 42>
| 43>                          ****END OF INPUT****

CARTESIAN COORDINATES (ANGSTROEM)
---------------------------------
  S    -62.808500    8.470390  -76.858200
  C    -62.514100    6.839600  -76.366100
  C    -62.977200    5.856210  -77.213300
  C    -63.566600    6.486380  -78.380200
  C    -63.724000    7.832810  -78.234500
  H    -64.107000    5.925590  -79.150600
  C    -62.815300    4.323720  -77.010200
  H    -63.818700    3.850040  -77.277500
  H    -62.710400    4.136030  -75.918100
  C    -61.704700    3.679600  -77.944800
  H    -61.940700    2.604720  -78.137700
  H    -61.788000    4.077710  -78.970700
  C    -60.366900    3.938930  -77.324400
  H    -60.016000    4.974000  -77.315200
  H    -60.373300    3.717460  -76.282300
  H    -59.503200    3.478640  -77.762100
  S    -65.463200    9.990930  -78.291600
  C    -65.940800   10.649500  -79.805800
  C    -65.424600    9.918330  -80.861400
  C    -64.614700    8.788240  -80.491500
  C    -64.497300    8.740100  -79.100000
  H    -65.645200   10.177800  -81.879500
  C    -63.943800    7.863930  -81.502200
  H    -63.452200    6.971770  -81.062600
  H    -63.017700    8.393440  -81.755900
  C    -64.769600    7.614750  -82.766300
  H    -65.026200    8.560590  -83.255000
  H    -65.703700    7.087510  -82.395800
  C    -64.089100    6.781600  -83.823000
  H    -63.842700    5.811520  -83.360600
  H    -63.325800    7.408950  -84.158500
  H    -64.794600    6.570090  -84.695300
  H    -61.890400    6.451270  -75.607300
  H    -66.474200   11.598800  -80.012000

 Total Charge           Charge          ....    0
 Multiplicity           Mult            ....    1
 Number of Electrons    NEL             ....  134
 Basis Dimension        Dim             ....  322

ORBITAL ENERGIES
----------------

  NO   OCC          E(Eh)            E(eV)
   0   2.0000     -88.969004     -2420.9697
   1   2.0000     -88.966691     -2420.9067
   2   2.0000     -10.329515      -281.0804
   3   2.0000     -10.327361      -281.0218
   4   2.0000     -10.316164      -280.7171
   5   2.0000     -10.308236      -280.5014
   6   2.0000     -10.306367      -280.4505
   7   2.0000     -10.305406      -280.4244
   8   2.0000     -10.301839      -280.3273
   9   2.0000     -10.297581      -280.2114
  10   2.0000     -10.296325      -280.1773
  11   2.0000     -10.293288      -280.0946
  12   2.0000     -10.291433      -280.0441
  13   2.0000     -10.291213      -280.0381
  14   2.0000     -10.281517      -279.7743
  15   2.0000     -10.271338      -279.4973
  16   2.0000      -8.083536      -219.9642
  17   2.0000      -8.081314      -219.9037
  18   2.0000      -6.042070      -164.4131
  19   2.0000      -6.039845      -164.3525
  20   2.0000      -6.038287      -164.3101
  21   2.0000      -6.035790      -164.2422
  22   2.0000      -6.034062      -164.1952
  23   2.0000      -6.032119      -164.1423
  24   2.0000      -1.004611       -27.3369
  25   2.0000      -0.982723       -26.7413
  26   2.0000      -0.914269       -24.8785
  27   2.0000      -0.906197       -24.6589
  28   2.0000      -0.866724       -23.5848
  29   2.0000      -0.855747       -23.2861
  30   2.0000      -0.845734       -23.0136
  31   2.0000      -0.811961       -22.0946
  32   2.0000      -0.783671       -21.3248
  33   2.0000      -0.772680       -21.0257
  34   2.0000      -0.709266       -19.3001
  35   2.0000      -0.696729       -18.9590
  36   2.0000      -0.694338       -18.8939
  37   2.0000      -0.651974       -17.7411
  38   2.0000      -0.634023       -17.2527
  39   2.0000      -0.619606       -16.8603
  40   2.0000      -0.597116       -16.2483
  41   2.0000      -0.578108       -15.7311
  42   2.0000      -0.563051       -15.3214
  43   2.0000      -0.550384       -14.9767
  44   2.0000      -0.534451       -14.5432
  45   2.0000      -0.524581       -14.2746
  46   2.0000      -0.515901       -14.0384
  47   2.0000      -0.512635       -13.9495
  48   2.0000      -0.503974       -13.7138
  49   2.0000      -0.493197       -13.4206
  50   2.0000      -0.481514       -13.1027
  51   2.0000      -0.480240       -13.0680
  52   2.0000      -0.471174       -12.8213
  53   2.0000      -0.463908       -12.6236
  54   2.0000      -0.458143       -12.4667
  55   2.0000      -0.454019       -12.3545
  56   2.0000      -0.446029       -12.1371
  57   2.0000      -0.440511       -11.9869
  58   2.0000      -0.432013       -11.7557
  59   2.0000      -0.423642       -11.5279
  60   2.0000      -0.423209       -11.5161
  61   2.0000      -0.418821       -11.3967
  62   2.0000      -0.413362       -11.2481
  63   2.0000      -0.352176        -9.5832
  64   2.0000      -0.330653        -8.9975
  65   2.0000      -0.328834        -8.9480
  66   2.0000      -0.285802        -7.7771
  67   0.0000       0.030313         0.8249
  68   0.0000       0.075556         2.0560
  69   0.0000       0.111471         3.0333
  70   0.0000       0.117432         3.1955
  71   0.0000       0.129026         3.5110

MULLIKEN ATOMIC CHARGES
-----------------------
   0 S :    0.124402
   1 C :   -0.070182
   2 C :   -0.121080
   3 C :    0.007903
   4 C :   -0.144694
   5 H :    0.025259
   6 C :    0.005789
   7 H :    0.040986
   8 H :    0.039063
   9 C :   -0.048474
  10 H :    0.037792
  11 H :    0.031350
  12 C :   -0.025240
  13 H :    0.027451
  14 H :    0.012519
  15 H :    0.025067
  16 S :    0.115378
  17 C :   -0.090849
  18 C :   -0.050123
  19 C :   -0.011265
  20 C :   -0.175057
  21 H :    0.007324
  22 C :    0.077342
  23 H :    0.013095
  24 H :    0.027823
  25 C :   -0.130570
  26 H :    0.036115
  27 H :    0.041930
  28 C :   -0.020599
  29 H :    0.036085
  30 H :    0.024842
  31 H :    0.045336
  32 H :    0.016782
  33 H :    0.068499
Sum of atomic charges:   -0.0000000

LOEWDIN ATOMIC CHARGES
----------------------
   0 S :    0.401729
   1 C :   -0.205127
   2 C :   -0.060852
   3 C :   -0.068252
   4 C :   -0.180712
   5 H :    0.032152
   6 C :   -0.032735
   7 H :    0.037095
   8 H :    0.032933
   9 C :   -0.041122
  10 H :    0.028999
  11 H :    0.027685
  12 C :   -0.072226
  13 H :    0.030639
  14 H :    0.020297
  15 H :    0.023798
  16 S :    0.409074
  17 C :   -0.205858
  18 C :   -0.071538
  19 C :   -0.051059
  20 C :   -0.194664
  21 H :    0.024503
  22 C :   -0.041116
  23 H :    0.032339
  24 H :    0.036990
  25 C :   -0.046626
  26 H :    0.023088
  27 H :    0.029312
  28 C :   -0.060857
  29 H :    0.027420
  30 H :    0.018049
  31 H :    0.036430
  32 H :    0.019187
  33 H :    0.041024

  Mayer bond orders larger than 0.100000
B(  0-S ,  1-C ) :   1.1192 B(  0-S ,  4-C ) :   1.1322 B(  1-C ,  2-C ) :   1.6648
B(  1-C , 32-H ) :   0.9570 B(  2-C ,  3-C ) :   1.2192 B(  2-C ,  6-C ) :   1.0180
B(  3-C ,  4-C ) :   1.6208 B(  3-C ,  5-H ) :   0.9769 B(  4-C , 20-C ) :   1.0420
B(  6-C ,  7-H ) :   0.9420 B(  6-C ,  8-H ) :   0.9515 B(  6-C ,  9-C ) :   1.0502
B(  9-C , 10-H ) :   0.9579 B(  9-C , 11-H ) :   0.9567 B(  9-C , 12-C ) :   1.0674
B( 12-C , 13-H ) :   0.9715 B( 12-C , 14-H ) :   0.9751 B( 12-C , 15-H ) :   0.9709
B( 16-S , 17-C ) :   1.1484 B( 16-S , 20-C ) :   1.1440 B( 17-C , 18-C ) :   1.6168
B( 17-C , 33-H ) :   0.9596 B( 18-C , 19-C ) :   1.2455 B( 18-C , 21-H ) :   0.9860
B( 19-C , 20-C ) :   1.5878 B( 19-C , 22-C ) :   1.0343 B( 22-C , 23-H ) :   0.9331
B( 22-C , 24-H ) :   0.9183 B( 22-C , 25-C ) :   1.0542 B( 25-C , 26-H ) :   0.9483
B( 25-C , 27-H ) :   0.9597 B( 25-C , 28-C ) :   1.0888 B( 28-C , 29-H ) :   0.9728
B( 28-C , 30-H ) :   0.9749 B( 28-C , 31-H ) :   0.9728

Dispersion correction           -0.013907091
FINAL SINGLE POINT ENERGY     -1339.874276637152

DIPOLE MOMENT
-------------
                                X             Y             Z
Electronic contribution:     -9.03333      22.70915      16.56549
Nuclear contribution   :      9.19810     -23.16556     -17.12434
                        -----------------------------------------
Total Dipole Moment    :      0.16477      -0.45641      -0.55886
                        -----------------------------------------
Magnitude (a.u.)       :      0.74012
Magnitude (Debye)      :      1.88123

Rotational constants in cm-1:     0.017283     0.008854     0.006217
Rotational constants in MHz :   518.119859   265.450594   186.378254

                             ****ORCA TERMINATED NORMALLY****
TOTAL RUN TIME: 0 days 0 hours 0 minutes 21 seconds 120 msec
