                         Program Version 4.2.1 -  RELEASE  -
|  1> ! wB97X-D3 SP def2-SVP
|  2> %pal
|  3> nprocs 24
|  4> end
|  5>
|  6> * xyz 0 1
|  7> S 	 -65.1846 	 21.3904 	 -117.958
|  8> C 	 -63.5055 	 21.2662 	 -118.144
|  9> C 	 -62.8255 	 20.8633 	 -116.982
| 10> C 	 -63.784 	 20.4296 	 -116.063
| 11> C 	 -65.0452 	 20.8868 	 -116.279
| 12> H 	 -63.5215 	 19.8578 	 -115.154
| 13> C 	 -61.4012 	 20.4782 	 -116.865
| 14> H 	 -61.0984 	 19.7678 	 -117.681
| 15> H 	 -61.3086 	 19.9909 	 -115.902
| 16> C 	 -60.4 	 21.549 	 -116.584
| 17> H 	 -60.8895 	 22.1984 	 -115.827
| 18> H 	 -59.3909 	 21.2324 	 -116.182
| 19> C 	 -60.1418 	 22.5631 	 -117.769
| 20> H 	 -59.505 	 22.0196 	 -118.457
| 21> H 	 -61.0728 	 22.979 	 -118.168
| 22> H 	 -59.4704 	 23.3934 	 -117.449
| 23> S 	 -67.3088 	 19.3544 	 -116.17
| 24> C 	 -68.4174 	 19.5889 	 -114.836
| 25> C 	 -67.7575 	 20.2404 	 -113.786
| 26> C 	 -66.4935 	 20.7688 	 -114.17
| 27> C 	 -66.1707 	 20.4841 	 -115.476
| 28> H 	 -68.3686 	 20.3783 	 -112.889
| 29> C 	 -65.7796 	 21.6161 	 -113.113
| 30> H 	 -64.8898 	 22.0544 	 -113.604
| 31> H 	 -65.2053 	 21.0336 	 -112.416
| 32> C 	 -66.5035 	 22.8872 	 -112.649
| 33> H 	 -67.5036 	 22.741 	 -112.289
| 34> H 	 -66.6452 	 23.5422 	 -113.559
| 35> C 	 -65.7201 	 23.7749 	 -111.529
| 36> H 	 -65.6122 	 23.1838 	 -110.686
| 37> H 	 -66.2799 	 24.7126 	 -111.34
| 38> H 	 -64.7047 	 24.2218 	 -111.82
| 39> H 	 -62.9635 	 21.4928 	 -119.06
| 40> H 	 -69.2523 	 18.9608 	 -114.474
| 41> *
| 42>
| 43>                          ****END OF INPUT****

CARTESIAN COORDINATES (ANGSTROEM)
---------------------------------
  S    -65.184600   21.390400  -117.958000
  C    -63.505500   21.266200  -118.144000
  C    -62.825500   20.863300  -116.982000
  C    -63.784000   20.429600  -116.063000
  C    -65.045200   20.886800  -116.279000
  H    -63.521500   19.857800  -115.154000
  C    -61.401200   20.478200  -116.865000
  H    -61.098400   19.767800  -117.681000
  H    -61.308600   19.990900  -115.902000
  C    -60.400000   21.549000  -116.584000
  H    -60.889500   22.198400  -115.827000
  H    -59.390900   21.232400  -116.182000
  C    -60.141800   22.563100  -117.769000
  H    -59.505000   22.019600  -118.457000
  H    -61.072800   22.979000  -118.168000
  H    -59.470400   23.393400  -117.449000
  S    -67.308800   19.354400  -116.170000
  C    -68.417400   19.588900  -114.836000
  C    -67.757500   20.240400  -113.786000
  C    -66.493500   20.768800  -114.170000
  C    -66.170700   20.484100  -115.476000
  H    -68.368600   20.378300  -112.889000
  C    -65.779600   21.616100  -113.113000
  H    -64.889800   22.054400  -113.604000
  H    -65.205300   21.033600  -112.416000
  C    -66.503500   22.887200  -112.649000
  H    -67.503600   22.741000  -112.289000
  H    -66.645200   23.542200  -113.559000
  C    -65.720100   23.774900  -111.529000
  H    -65.612200   23.183800  -110.686000
  H    -66.279900   24.712600  -111.340000
  H    -64.704700   24.221800  -111.820000
  H    -62.963500   21.492800  -119.060000
  H    -69.252300   18.960800  -114.474000

 Total Charge           Charge          ....    0
 Multiplicity           Mult            ....    1
 Number of Electrons    NEL             ....  134
 Basis Dimension        Dim             ....  322

ORBITAL ENERGIES
----------------

  NO   OCC          E(Eh)            E(eV)
   0   2.0000     -88.972806     -2421.0731
   1   2.0000     -88.965574     -2420.8763
   2   2.0000     -10.325347      -280.9670
   3   2.0000     -10.322278      -280.8835
   4   2.0000     -10.316669      -280.7308
   5   2.0000     -10.313735      -280.6510
   6   2.0000     -10.302958      -280.3577
   7   2.0000     -10.297735      -280.2156
   8   2.0000     -10.295538      -280.1558
   9   2.0000     -10.293267      -280.0940
  10   2.0000     -10.292582      -280.0754
  11   2.0000     -10.291674      -280.0507
  12   2.0000     -10.291593      -280.0485
  13   2.0000     -10.290736      -280.0252
  14   2.0000     -10.285528      -279.8834
  15   2.0000     -10.278384      -279.6890
  16   2.0000      -8.088147      -220.0897
  17   2.0000      -8.080157      -219.8722
  18   2.0000      -6.046466      -164.5327
  19   2.0000      -6.042603      -164.4276
  20   2.0000      -6.039022      -164.3301
  21   2.0000      -6.038715      -164.3218
  22   2.0000      -6.034724      -164.2132
  23   2.0000      -6.030828      -164.1072
  24   2.0000      -1.016414       -27.6580
  25   2.0000      -0.989606       -26.9286
  26   2.0000      -0.918827       -25.0025
  27   2.0000      -0.899058       -24.4646
  28   2.0000      -0.871995       -23.7282
  29   2.0000      -0.854942       -23.2641
  30   2.0000      -0.840799       -22.8793
  31   2.0000      -0.811177       -22.0732
  32   2.0000      -0.785144       -21.3648
  33   2.0000      -0.774599       -21.0779
  34   2.0000      -0.707354       -19.2481
  35   2.0000      -0.697890       -18.9906
  36   2.0000      -0.692418       -18.8416
  37   2.0000      -0.655915       -17.8484
  38   2.0000      -0.642044       -17.4709
  39   2.0000      -0.621492       -16.9117
  40   2.0000      -0.593010       -16.1366
  41   2.0000      -0.574940       -15.6449
  42   2.0000      -0.553594       -15.0640
  43   2.0000      -0.551971       -15.0199
  44   2.0000      -0.542171       -14.7532
  45   2.0000      -0.524868       -14.2824
  46   2.0000      -0.516505       -14.0548
  47   2.0000      -0.511838       -13.9278
  48   2.0000      -0.499610       -13.5951
  49   2.0000      -0.498915       -13.5762
  50   2.0000      -0.485654       -13.2153
  51   2.0000      -0.479390       -13.0449
  52   2.0000      -0.473633       -12.8882
  53   2.0000      -0.465911       -12.6781
  54   2.0000      -0.459070       -12.4919
  55   2.0000      -0.448411       -12.2019
  56   2.0000      -0.442751       -12.0479
  57   2.0000      -0.437162       -11.8958
  58   2.0000      -0.433686       -11.8012
  59   2.0000      -0.420376       -11.4390
  60   2.0000      -0.417866       -11.3707
  61   2.0000      -0.404312       -11.0019
  62   2.0000      -0.403028       -10.9670
  63   2.0000      -0.348125        -9.4730
  64   2.0000      -0.333447        -9.0736
  65   2.0000      -0.327689        -8.9169
  66   2.0000      -0.296162        -8.0590
  67   0.0000       0.027770         0.7556
  68   0.0000       0.061375         1.6701
  69   0.0000       0.106937         2.9099
  70   0.0000       0.117264         3.1909
  71   0.0000       0.130347         3.5469

MULLIKEN ATOMIC CHARGES
-----------------------
   0 S :    0.138004
   1 C :   -0.120788
   2 C :   -0.084426
   3 C :    0.003316
   4 C :   -0.159957
   5 H :    0.031909
   6 C :    0.084683
   7 H :    0.049981
   8 H :    0.016743
   9 C :   -0.119501
  10 H :    0.030250
  11 H :    0.044349
  12 C :   -0.072740
  13 H :    0.023517
  14 H :    0.043955
  15 H :    0.034956
  16 S :    0.110930
  17 C :   -0.094969
  18 C :   -0.086439
  19 C :   -0.020709
  20 C :   -0.158158
  21 H :    0.034373
  22 C :    0.096099
  23 H :    0.006801
  24 H :    0.027514
  25 C :   -0.097495
  26 H :    0.029070
  27 H :    0.043742
  28 C :   -0.071404
  29 H :    0.030788
  30 H :    0.040603
  31 H :    0.039250
  32 H :    0.056029
  33 H :    0.069727
Sum of atomic charges:    0.0000000

LOEWDIN ATOMIC CHARGES
----------------------
   0 S :    0.440260
   1 C :   -0.201301
   2 C :   -0.075388
   3 C :   -0.046298
   4 C :   -0.211570
   5 H :    0.037140
   6 C :   -0.040407
   7 H :    0.037024
   8 H :    0.037154
   9 C :   -0.046689
  10 H :    0.026729
  11 H :    0.030347
  12 C :   -0.076555
  13 H :    0.019234
  14 H :    0.023880
  15 H :    0.028964
  16 S :    0.406195
  17 C :   -0.207548
  18 C :   -0.070111
  19 C :   -0.059005
  20 C :   -0.194697
  21 H :    0.034658
  22 C :   -0.045017
  23 H :    0.034738
  24 H :    0.029641
  25 C :   -0.035598
  26 H :    0.014548
  27 H :    0.034193
  28 C :   -0.067472
  29 H :    0.011964
  30 H :    0.031088
  31 H :    0.031972
  32 H :    0.028054
  33 H :    0.039872

  Mayer bond orders larger than 0.100000
B(  0-S ,  1-C ) :   1.1890 B(  0-S ,  4-C ) :   1.1402 B(  1-C ,  2-C ) :   1.5417
B(  1-C , 32-H ) :   0.9615 B(  2-C ,  3-C ) :   1.2972 B(  2-C ,  6-C ) :   1.0284
B(  3-C ,  4-C ) :   1.5638 B(  3-C ,  5-H ) :   0.9776 B(  4-C , 20-C ) :   1.0413
B(  6-C ,  7-H ) :   0.9444 B(  6-C ,  8-H ) :   0.9288 B(  6-C ,  9-C ) :   1.0534
B(  9-C , 10-H ) :   0.9530 B(  9-C , 11-H ) :   0.9600 B(  9-C , 12-C ) :   1.0761
B( 12-C , 13-H ) :   0.9779 B( 12-C , 14-H ) :   0.9730 B( 12-C , 15-H ) :   0.9753
B( 16-S , 17-C ) :   1.1425 B( 16-S , 20-C ) :   1.1518 B( 17-C , 18-C ) :   1.6329
B( 17-C , 20-C ) :   0.1003 B( 17-C , 33-H ) :   0.9543 B( 18-C , 19-C ) :   1.2338
B( 18-C , 21-H ) :   0.9847 B( 19-C , 20-C ) :   1.6063 B( 19-C , 22-C ) :   1.0440
B( 22-C , 23-H ) :   0.9215 B( 22-C , 24-H ) :   0.9376 B( 22-C , 25-C ) :   1.0421
B( 25-C , 26-H ) :   0.9630 B( 25-C , 27-H ) :   0.9580 B( 25-C , 28-C ) :   1.0668
B( 28-C , 29-H ) :   0.9805 B( 28-C , 30-H ) :   0.9767 B( 28-C , 31-H ) :   0.9782

Dispersion correction           -0.013751377
FINAL SINGLE POINT ENERGY     -1339.839810820592

DIPOLE MOMENT
-------------
                                X             Y             Z
Electronic contribution:    -19.49065     -13.75907     -14.66027
Nuclear contribution   :     19.98343      13.71761      15.08890
                        -----------------------------------------
Total Dipole Moment    :      0.49277      -0.04146       0.42864
                        -----------------------------------------
Magnitude (a.u.)       :      0.65443
Magnitude (Debye)      :      1.66342

Rotational constants in cm-1:     0.017977     0.008320     0.006340
Rotational constants in MHz :   538.933037   249.413624   190.062530

                             ****ORCA TERMINATED NORMALLY****
TOTAL RUN TIME: 0 days 0 hours 0 minutes 19 seconds 918 msec
