                         Program Version 4.2.1 -  RELEASE  -
|  1> ! wB97X-D3 SP def2-SVP
|  2> %pal
|  3> nprocs 24
|  4> end
|  5>
|  6> * xyz 0 1
|  7> S 	 -63.343 	 12.2152 	 -92.3901
|  8> C 	 -64.156 	 13.4242 	 -93.309
|  9> C 	 -63.4681 	 14.648 	 -93.2294
| 10> C 	 -62.3374 	 14.5309 	 -92.3955
| 11> C 	 -62.0802 	 13.2757 	 -91.9103
| 12> H 	 -61.636 	 15.3368 	 -92.2178
| 13> C 	 -63.8309 	 15.9686 	 -93.9372
| 14> H 	 -63.3873 	 16.8078 	 -93.4402
| 15> H 	 -64.819 	 16.1557 	 -93.7028
| 16> C 	 -63.4869 	 15.9588 	 -95.3863
| 17> H 	 -63.987 	 15.0797 	 -95.8304
| 18> H 	 -64.0407 	 16.8338 	 -95.7613
| 19> C 	 -61.9287 	 16.0744 	 -95.6265
| 20> H 	 -61.8106 	 16.2554 	 -96.7117
| 21> H 	 -61.5593 	 16.9779 	 -95.1405
| 22> H 	 -61.4097 	 15.1431 	 -95.258
| 23> S 	 -61.5406 	 11.7431 	 -89.6585
| 24> C 	 -60.1133 	 12.0478 	 -88.7238
| 25> C 	 -59.2343 	 12.7493 	 -89.4926
| 26> C 	 -59.7255 	 13.2524 	 -90.7274
| 27> C 	 -61.0694 	 12.9581 	 -90.8642
| 28> H 	 -58.2233 	 12.9172 	 -89.1897
| 29> C 	 -59.0387 	 14.1798 	 -91.7478
| 30> H 	 -59.6677 	 15.1022 	 -91.6908
| 31> H 	 -59.1256 	 13.8134 	 -92.7791
| 32> C 	 -57.5213 	 14.4705 	 -91.4541
| 33> H 	 -56.9815 	 13.4963 	 -91.3838
| 34> H 	 -57.4434 	 14.9546 	 -90.536
| 35> C 	 -56.9272 	 15.3653 	 -92.5141
| 36> H 	 -57.2232 	 16.389 	 -92.5801
| 37> H 	 -57.1366 	 14.8823 	 -93.4778
| 38> H 	 -55.8765 	 15.2719 	 -92.2395
| 39> H 	 -64.9899 	 13.1853 	 -93.8253
| 40> H 	 -59.9189 	 11.6034 	 -87.8477
| 41> *
| 42>
| 43>                          ****END OF INPUT****

CARTESIAN COORDINATES (ANGSTROEM)
---------------------------------
  S    -63.343000   12.215200  -92.390100
  C    -64.156000   13.424200  -93.309000
  C    -63.468100   14.648000  -93.229400
  C    -62.337400   14.530900  -92.395500
  C    -62.080200   13.275700  -91.910300
  H    -61.636000   15.336800  -92.217800
  C    -63.830900   15.968600  -93.937200
  H    -63.387300   16.807800  -93.440200
  H    -64.819000   16.155700  -93.702800
  C    -63.486900   15.958800  -95.386300
  H    -63.987000   15.079700  -95.830400
  H    -64.040700   16.833800  -95.761300
  C    -61.928700   16.074400  -95.626500
  H    -61.810600   16.255400  -96.711700
  H    -61.559300   16.977900  -95.140500
  H    -61.409700   15.143100  -95.258000
  S    -61.540600   11.743100  -89.658500
  C    -60.113300   12.047800  -88.723800
  C    -59.234300   12.749300  -89.492600
  C    -59.725500   13.252400  -90.727400
  C    -61.069400   12.958100  -90.864200
  H    -58.223300   12.917200  -89.189700
  C    -59.038700   14.179800  -91.747800
  H    -59.667700   15.102200  -91.690800
  H    -59.125600   13.813400  -92.779100
  C    -57.521300   14.470500  -91.454100
  H    -56.981500   13.496300  -91.383800
  H    -57.443400   14.954600  -90.536000
  C    -56.927200   15.365300  -92.514100
  H    -57.223200   16.389000  -92.580100
  H    -57.136600   14.882300  -93.477800
  H    -55.876500   15.271900  -92.239500
  H    -64.989900   13.185300  -93.825300
  H    -59.918900   11.603400  -87.847700

 Total Charge           Charge          ....    0
 Multiplicity           Mult            ....    1
 Number of Electrons    NEL             ....  134
 Basis Dimension        Dim             ....  322

ORBITAL ENERGIES
----------------

  NO   OCC          E(Eh)            E(eV)
   0   2.0000     -88.965727     -2420.8805
   1   2.0000     -88.959078     -2420.6996
   2   2.0000     -10.326470      -280.9975
   3   2.0000     -10.325617      -280.9743
   4   2.0000     -10.307819      -280.4900
   5   2.0000     -10.305954      -280.4393
   6   2.0000     -10.301270      -280.3118
   7   2.0000     -10.300674      -280.2956
   8   2.0000     -10.298481      -280.2359
   9   2.0000     -10.289672      -279.9962
  10   2.0000     -10.288751      -279.9711
  11   2.0000     -10.287874      -279.9473
  12   2.0000     -10.287061      -279.9252
  13   2.0000     -10.286818      -279.9185
  14   2.0000     -10.280586      -279.7490
  15   2.0000     -10.276786      -279.6456
  16   2.0000      -8.081472      -219.9080
  17   2.0000      -8.074151      -219.7088
  18   2.0000      -6.039855      -164.3528
  19   2.0000      -6.035695      -164.2396
  20   2.0000      -6.032606      -164.1555
  21   2.0000      -6.032460      -164.1516
  22   2.0000      -6.028799      -164.0520
  23   2.0000      -6.024767      -163.9422
  24   2.0000      -1.010043       -27.4847
  25   2.0000      -0.988615       -26.9016
  26   2.0000      -0.915152       -24.9026
  27   2.0000      -0.909207       -24.7408
  28   2.0000      -0.869227       -23.6529
  29   2.0000      -0.853199       -23.2167
  30   2.0000      -0.843453       -22.9515
  31   2.0000      -0.814609       -22.1666
  32   2.0000      -0.784267       -21.3410
  33   2.0000      -0.774283       -21.0693
  34   2.0000      -0.709743       -19.3131
  35   2.0000      -0.702805       -19.1243
  36   2.0000      -0.697231       -18.9726
  37   2.0000      -0.656506       -17.8644
  38   2.0000      -0.649203       -17.6657
  39   2.0000      -0.617968       -16.8158
  40   2.0000      -0.602546       -16.3961
  41   2.0000      -0.576707       -15.6930
  42   2.0000      -0.573865       -15.6157
  43   2.0000      -0.551687       -15.0122
  44   2.0000      -0.540397       -14.7049
  45   2.0000      -0.534092       -14.5334
  46   2.0000      -0.516076       -14.0431
  47   2.0000      -0.510391       -13.8884
  48   2.0000      -0.506531       -13.7834
  49   2.0000      -0.497047       -13.5253
  50   2.0000      -0.487684       -13.2706
  51   2.0000      -0.485697       -13.2165
  52   2.0000      -0.474399       -12.9091
  53   2.0000      -0.473107       -12.8739
  54   2.0000      -0.463572       -12.6144
  55   2.0000      -0.450330       -12.2541
  56   2.0000      -0.439352       -11.9554
  57   2.0000      -0.438212       -11.9244
  58   2.0000      -0.431783       -11.7494
  59   2.0000      -0.429684       -11.6923
  60   2.0000      -0.421164       -11.4605
  61   2.0000      -0.413345       -11.2477
  62   2.0000      -0.404808       -11.0154
  63   2.0000      -0.353635        -9.6229
  64   2.0000      -0.333577        -9.0771
  65   2.0000      -0.325705        -8.8629
  66   2.0000      -0.285137        -7.7590
  67   0.0000       0.026799         0.7292
  68   0.0000       0.074832         2.0363
  69   0.0000       0.109465         2.9787
  70   0.0000       0.129667         3.5284
  71   0.0000       0.134887         3.6705

MULLIKEN ATOMIC CHARGES
-----------------------
   0 S :    0.110817
   1 C :   -0.096762
   2 C :   -0.094820
   3 C :   -0.007544
   4 C :   -0.113469
   5 H :    0.000669
   6 C :    0.120171
   7 H :   -0.000123
   8 H :    0.004747
   9 C :   -0.073102
  10 H :    0.033118
  11 H :    0.026735
  12 C :   -0.063170
  13 H :    0.042941
  14 H :    0.028069
  15 H :    0.065913
  16 S :    0.080507
  17 C :   -0.017316
  18 C :   -0.038789
  19 C :   -0.029449
  20 C :   -0.152525
  21 H :    0.003634
  22 C :    0.016211
  23 H :    0.048465
  24 H :    0.040329
  25 C :   -0.094836
  26 H :    0.044178
  27 H :    0.019287
  28 C :   -0.013819
  29 H :    0.036777
  30 H :    0.026085
  31 H :    0.034631
  32 H :    0.005979
  33 H :    0.006460
Sum of atomic charges:   -0.0000000

LOEWDIN ATOMIC CHARGES
----------------------
   0 S :    0.434797
   1 C :   -0.188368
   2 C :   -0.054858
   3 C :   -0.072161
   4 C :   -0.206868
   5 H :    0.026070
   6 C :   -0.029625
   7 H :    0.025338
   8 H :    0.021436
   9 C :   -0.040809
  10 H :    0.025379
  11 H :    0.025275
  12 C :   -0.066277
  13 H :    0.030448
  14 H :    0.023686
  15 H :    0.036871
  16 S :    0.391241
  17 C :   -0.165835
  18 C :   -0.069424
  19 C :   -0.062573
  20 C :   -0.177199
  21 H :    0.024505
  22 C :   -0.033831
  23 H :    0.035987
  24 H :    0.032149
  25 C :   -0.038848
  26 H :    0.030994
  27 H :    0.014148
  28 C :   -0.059987
  29 H :    0.022436
  30 H :    0.026024
  31 H :    0.032219
  32 H :    0.002661
  33 H :    0.004999

  Mayer bond orders larger than 0.100000
B(  0-S ,  1-C ) :   1.1668 B(  0-S ,  4-C ) :   1.1698 B(  1-C ,  2-C ) :   1.5446
B(  1-C ,  4-C ) :   0.1003 B(  1-C , 32-H ) :   0.9918 B(  2-C ,  3-C ) :   1.3012
B(  2-C ,  6-C ) :   1.0061 B(  3-C ,  4-C ) :   1.5316 B(  3-C ,  5-H ) :   0.9915
B(  4-C , 20-C ) :   1.0410 B(  6-C ,  7-H ) :   0.9359 B(  6-C ,  8-H ) :   0.9303
B(  6-C ,  9-C ) :   1.0777 B(  9-C , 10-H ) :   0.9588 B(  9-C , 11-H ) :   0.9533
B(  9-C , 12-C ) :   1.0622 B( 12-C , 13-H ) :   0.9762 B( 12-C , 14-H ) :   0.9743
B( 12-C , 15-H ) :   0.9739 B( 16-S , 17-C ) :   1.1528 B( 16-S , 20-C ) :   1.1393
B( 17-C , 18-C ) :   1.5820 B( 17-C , 20-C ) :   0.1031 B( 17-C , 33-H ) :   0.9861
B( 18-C , 19-C ) :   1.2611 B( 18-C , 21-H ) :   0.9929 B( 19-C , 20-C ) :   1.5917
B( 19-C , 22-C ) :   1.0215 B( 22-C , 23-H ) :   0.9367 B( 22-C , 24-H ) :   0.9325
B( 22-C , 25-C ) :   1.0817 B( 25-C , 26-H ) :   0.9563 B( 25-C , 27-H ) :   0.9464
B( 25-C , 28-C ) :   1.0840 B( 28-C , 29-H ) :   0.9757 B( 28-C , 30-H ) :   0.9733
B( 28-C , 31-H ) :   0.9725

Dispersion correction           -0.014124896
FINAL SINGLE POINT ENERGY     -1339.863885640209

DIPOLE MOMENT
-------------
                                X             Y             Z
Electronic contribution:    -14.34279     -21.71781      16.64379
Nuclear contribution   :     14.66567      22.32820     -16.91303
                        -----------------------------------------
Total Dipole Moment    :      0.32288       0.61039      -0.26924
                        -----------------------------------------
Magnitude (a.u.)       :      0.74116
Magnitude (Debye)      :      1.88387

Rotational constants in cm-1:     0.016537     0.009840     0.006493
Rotational constants in MHz :   495.774702   294.997851   194.646955

                             ****ORCA TERMINATED NORMALLY****
TOTAL RUN TIME: 0 days 0 hours 0 minutes 21 seconds 810 msec
