                         Program Version 4.2.1 -  RELEASE  -
|  1> ! wB97X-D3 SP def2-SVP
|  2> %pal
|  3> nprocs 24
|  4> end
|  5>
|  6> * xyz 0 1
|  7> S 	 -125.053 	 29.0745 	 -118.239
|  8> C 	 -125.02 	 27.3351 	 -118.19
|  9> C 	 -123.799 	 26.8639 	 -117.669
| 10> C 	 -123.146 	 27.8631 	 -116.882
| 11> C 	 -123.813 	 29.0726 	 -116.957
| 12> H 	 -122.204 	 27.6814 	 -116.381
| 13> C 	 -123.376 	 25.4093 	 -117.789
| 14> H 	 -124.218 	 24.7868 	 -117.919
| 15> H 	 -122.977 	 25.0828 	 -116.83
| 16> C 	 -122.421 	 25.0492 	 -118.932
| 17> H 	 -121.533 	 25.6238 	 -118.759
| 18> H 	 -122.119 	 24.0066 	 -118.944
| 19> C 	 -122.937 	 25.5267 	 -120.291
| 20> H 	 -123.873 	 25.0157 	 -120.572
| 21> H 	 -123.187 	 26.5988 	 -120.241
| 22> H 	 -122.286 	 25.38 	 -121.099
| 23> S 	 -123.078 	 31.7042 	 -117.186
| 24> C 	 -122.883 	 32.6593 	 -115.75
| 25> C 	 -122.856 	 31.929 	 -114.569
| 26> C 	 -123.366 	 30.5673 	 -114.826
| 27> C 	 -123.451 	 30.2871 	 -116.225
| 28> H 	 -122.606 	 32.4518 	 -113.647
| 29> C 	 -123.471 	 29.5553 	 -113.688
| 30> H 	 -123.629 	 28.6558 	 -114.285
| 31> H 	 -124.358 	 29.7233 	 -113.096
| 32> C 	 -122.211 	 29.4999 	 -112.802
| 33> H 	 -122.031 	 30.4078 	 -112.235
| 34> H 	 -121.282 	 29.3349 	 -113.249
| 35> C 	 -122.461 	 28.4018 	 -111.769
| 36> H 	 -121.866 	 28.578 	 -110.854
| 37> H 	 -122.128 	 27.5029 	 -112.305
| 38> H 	 -123.463 	 28.3805 	 -111.333
| 39> H 	 -125.675 	 26.7309 	 -118.743
| 40> H 	 -122.532 	 33.7256 	 -115.662
| 41> *
| 42>
| 43>                          ****END OF INPUT****

CARTESIAN COORDINATES (ANGSTROEM)
---------------------------------
  S    -125.053000   29.074500  -118.239000
  C    -125.020000   27.335100  -118.190000
  C    -123.799000   26.863900  -117.669000
  C    -123.146000   27.863100  -116.882000
  C    -123.813000   29.072600  -116.957000
  H    -122.204000   27.681400  -116.381000
  C    -123.376000   25.409300  -117.789000
  H    -124.218000   24.786800  -117.919000
  H    -122.977000   25.082800  -116.830000
  C    -122.421000   25.049200  -118.932000
  H    -121.533000   25.623800  -118.759000
  H    -122.119000   24.006600  -118.944000
  C    -122.937000   25.526700  -120.291000
  H    -123.873000   25.015700  -120.572000
  H    -123.187000   26.598800  -120.241000
  H    -122.286000   25.380000  -121.099000
  S    -123.078000   31.704200  -117.186000
  C    -122.883000   32.659300  -115.750000
  C    -122.856000   31.929000  -114.569000
  C    -123.366000   30.567300  -114.826000
  C    -123.451000   30.287100  -116.225000
  H    -122.606000   32.451800  -113.647000
  C    -123.471000   29.555300  -113.688000
  H    -123.629000   28.655800  -114.285000
  H    -124.358000   29.723300  -113.096000
  C    -122.211000   29.499900  -112.802000
  H    -122.031000   30.407800  -112.235000
  H    -121.282000   29.334900  -113.249000
  C    -122.461000   28.401800  -111.769000
  H    -121.866000   28.578000  -110.854000
  H    -122.128000   27.502900  -112.305000
  H    -123.463000   28.380500  -111.333000
  H    -125.675000   26.730900  -118.743000
  H    -122.532000   33.725600  -115.662000

 Total Charge           Charge          ....    0
 Multiplicity           Mult            ....    1
 Number of Electrons    NEL             ....  134
 Basis Dimension        Dim             ....  322

ORBITAL ENERGIES
----------------

  NO   OCC          E(Eh)            E(eV)
   0   2.0000     -88.968947     -2420.9681
   1   2.0000     -88.966197     -2420.8933
   2   2.0000     -10.333639      -281.1926
   3   2.0000     -10.328136      -281.0429
   4   2.0000     -10.316811      -280.7347
   5   2.0000     -10.313445      -280.6431
   6   2.0000     -10.309562      -280.5374
   7   2.0000     -10.305063      -280.4150
   8   2.0000     -10.299328      -280.2590
   9   2.0000     -10.295523      -280.1554
  10   2.0000     -10.289651      -279.9956
  11   2.0000     -10.288512      -279.9646
  12   2.0000     -10.283898      -279.8391
  13   2.0000     -10.281406      -279.7713
  14   2.0000     -10.277129      -279.6549
  15   2.0000     -10.270840      -279.4838
  16   2.0000      -8.083430      -219.9613
  17   2.0000      -8.080995      -219.8950
  18   2.0000      -6.041850      -164.4071
  19   2.0000      -6.039581      -164.3454
  20   2.0000      -6.038384      -164.3128
  21   2.0000      -6.035567      -164.2361
  22   2.0000      -6.033886      -164.1904
  23   2.0000      -6.031616      -164.1286
  24   2.0000      -1.002773       -27.2869
  25   2.0000      -0.979244       -26.6466
  26   2.0000      -0.912810       -24.8388
  27   2.0000      -0.910114       -24.7654
  28   2.0000      -0.865141       -23.5417
  29   2.0000      -0.852047       -23.1854
  30   2.0000      -0.845516       -23.0077
  31   2.0000      -0.813131       -22.1264
  32   2.0000      -0.782759       -21.3000
  33   2.0000      -0.764111       -20.7925
  34   2.0000      -0.708149       -19.2697
  35   2.0000      -0.700734       -19.0680
  36   2.0000      -0.693684       -18.8761
  37   2.0000      -0.651718       -17.7341
  38   2.0000      -0.639983       -17.4148
  39   2.0000      -0.625054       -17.0086
  40   2.0000      -0.587117       -15.9763
  41   2.0000      -0.573595       -15.6083
  42   2.0000      -0.567399       -15.4397
  43   2.0000      -0.551458       -15.0059
  44   2.0000      -0.546919       -14.8824
  45   2.0000      -0.521816       -14.1993
  46   2.0000      -0.515649       -14.0315
  47   2.0000      -0.509479       -13.8636
  48   2.0000      -0.503513       -13.7013
  49   2.0000      -0.496266       -13.5041
  50   2.0000      -0.487772       -13.2729
  51   2.0000      -0.480656       -13.0793
  52   2.0000      -0.461276       -12.5520
  53   2.0000      -0.458393       -12.4735
  54   2.0000      -0.456849       -12.4315
  55   2.0000      -0.454095       -12.3565
  56   2.0000      -0.444908       -12.1066
  57   2.0000      -0.443460       -12.0672
  58   2.0000      -0.439282       -11.9535
  59   2.0000      -0.426792       -11.6136
  60   2.0000      -0.420207       -11.4344
  61   2.0000      -0.415005       -11.2929
  62   2.0000      -0.407931       -11.1004
  63   2.0000      -0.343231        -9.3398
  64   2.0000      -0.330276        -8.9873
  65   2.0000      -0.326064        -8.8727
  66   2.0000      -0.286543        -7.7972
  67   0.0000       0.025591         0.6964
  68   0.0000       0.057180         1.5559
  69   0.0000       0.098088         2.6691
  70   0.0000       0.122870         3.3435
  71   0.0000       0.127178         3.4607

MULLIKEN ATOMIC CHARGES
-----------------------
   0 S :    0.118632
   1 C :   -0.087079
   2 C :   -0.123917
   3 C :    0.047535
   4 C :   -0.147921
   5 H :    0.022075
   6 C :    0.082848
   7 H :    0.008262
   8 H :    0.019130
   9 C :   -0.043948
  10 H :    0.015945
  11 H :    0.034679
  12 C :   -0.058251
  13 H :    0.017409
  14 H :    0.044638
  15 H :    0.024710
  16 S :    0.109796
  17 C :   -0.102641
  18 C :   -0.056972
  19 C :   -0.054449
  20 C :   -0.164780
  21 H :    0.031842
  22 C :    0.091872
  23 H :    0.020508
  24 H :    0.033592
  25 C :   -0.061389
  26 H :    0.020088
  27 H :    0.018047
  28 C :   -0.057217
  29 H :    0.025628
  30 H :    0.040466
  31 H :    0.032791
  32 H :    0.029083
  33 H :    0.068989
Sum of atomic charges:    0.0000000

LOEWDIN ATOMIC CHARGES
----------------------
   0 S :    0.396022
   1 C :   -0.182234
   2 C :   -0.057207
   3 C :   -0.054422
   4 C :   -0.183754
   5 H :    0.035731
   6 C :   -0.029665
   7 H :    0.024020
   8 H :    0.028714
   9 C :   -0.036221
  10 H :    0.019617
  11 H :    0.025377
  12 C :   -0.065616
  13 H :    0.021464
  14 H :    0.030122
  15 H :    0.017541
  16 S :    0.405582
  17 C :   -0.202828
  18 C :   -0.075500
  19 C :   -0.048031
  20 C :   -0.208797
  21 H :    0.034291
  22 C :   -0.029079
  23 H :    0.031490
  24 H :    0.032840
  25 C :   -0.035046
  26 H :    0.020460
  27 H :    0.018422
  28 C :   -0.066069
  29 H :    0.025085
  30 H :    0.029003
  31 H :    0.025222
  32 H :    0.013271
  33 H :    0.040198

  Mayer bond orders larger than 0.100000
B(  0-S ,  1-C ) :   1.1408 B(  0-S ,  4-C ) :   1.1392 B(  1-C ,  2-C ) :   1.5922
B(  1-C ,  4-C ) :   0.1013 B(  1-C , 32-H ) :   0.9751 B(  2-C ,  3-C ) :   1.2375
B(  2-C ,  6-C ) :   1.0276 B(  3-C ,  4-C ) :   1.5565 B(  3-C ,  5-H ) :   0.9974
B(  4-C , 20-C ) :   1.0472 B(  6-C ,  7-H ) :   0.9413 B(  6-C ,  8-H ) :   0.9436
B(  6-C ,  9-C ) :   1.0656 B(  9-C , 10-H ) :   0.9541 B(  9-C , 11-H ) :   0.9572
B(  9-C , 12-C ) :   1.0807 B( 12-C , 13-H ) :   0.9749 B( 12-C , 14-H ) :   0.9696
B( 12-C , 15-H ) :   0.9744 B( 16-S , 17-C ) :   1.1480 B( 16-S , 20-C ) :   1.1352
B( 17-C , 18-C ) :   1.6538 B( 17-C , 33-H ) :   0.9540 B( 18-C , 19-C ) :   1.2027
B( 18-C , 21-H ) :   0.9830 B( 19-C , 20-C ) :   1.6021 B( 19-C , 22-C ) :   1.0377
B( 22-C , 23-H ) :   0.9404 B( 22-C , 24-H ) :   0.9245 B( 22-C , 25-C ) :   1.0656
B( 25-C , 26-H ) :   0.9506 B( 25-C , 27-H ) :   0.9605 B( 25-C , 28-C ) :   1.0802
B( 28-C , 29-H ) :   0.9748 B( 28-C , 30-H ) :   0.9815 B( 28-C , 31-H ) :   0.9732

Dispersion correction           -0.014201597
FINAL SINGLE POINT ENERGY     -1339.855502323550

DIPOLE MOMENT
-------------
                                X             Y             Z
Electronic contribution:     -8.64590      20.26724     -10.61291
Nuclear contribution   :      9.01461     -20.67908      10.97345
                        -----------------------------------------
Total Dipole Moment    :      0.36871      -0.41185       0.36054
                        -----------------------------------------
Magnitude (a.u.)       :      0.65997
Magnitude (Debye)      :      1.67751

Rotational constants in cm-1:     0.018843     0.008393     0.006489
Rotational constants in MHz :   564.913049   251.604933   194.533429

                             ****ORCA TERMINATED NORMALLY****
TOTAL RUN TIME: 0 days 0 hours 0 minutes 21 seconds 523 msec
