                         Program Version 4.2.1 -  RELEASE  -
|  1> ! wB97X-D3 SP def2-SVP
|  2> %pal
|  3> nprocs 24
|  4> end
|  5>
|  6> * xyz 0 1
|  7> S 	 -65.119 	 -48.4599 	 -88.0213
|  8> C 	 -64.3854 	 -49.1842 	 -89.4443
|  9> C 	 -64.604 	 -50.5605 	 -89.3942
| 10> C 	 -65.4967 	 -50.867 	 -88.3777
| 11> C 	 -65.7922 	 -49.861 	 -87.5277
| 12> H 	 -66.027 	 -51.7062 	 -88.0578
| 13> C 	 -63.9974 	 -51.5172 	 -90.3642
| 14> H 	 -63.1272 	 -51.1443 	 -90.8633
| 15> H 	 -64.6655 	 -51.6532 	 -91.2852
| 16> C 	 -63.5126 	 -52.8277 	 -89.7966
| 17> H 	 -62.5291 	 -52.77 	 -89.3003
| 18> H 	 -64.1637 	 -53.1599 	 -89.0083
| 19> C 	 -63.2578 	 -53.8228 	 -90.9962
| 20> H 	 -64.1474 	 -54.0848 	 -91.6062
| 21> H 	 -62.534 	 -53.5681 	 -91.777
| 22> H 	 -62.9796 	 -54.7387 	 -90.4974
| 23> S 	 -65.9411 	 -49.2809 	 -84.9347
| 24> C 	 -67.2685 	 -49.7871 	 -83.9348
| 25> C 	 -68.2968 	 -50.2998 	 -84.7268
| 26> C 	 -67.8744 	 -50.5259 	 -86.0694
| 27> C 	 -66.6559 	 -49.9416 	 -86.3619
| 28> H 	 -69.2381 	 -50.6021 	 -84.3024
| 29> C 	 -68.7457 	 -51.3279 	 -87.0379
| 30> H 	 -69.3607 	 -51.8975 	 -86.4352
| 31> H 	 -68.2227 	 -51.9985 	 -87.6965
| 32> C 	 -69.5931 	 -50.4837 	 -88.0003
| 33> H 	 -68.958 	 -50.0039 	 -88.7448
| 34> H 	 -70.0694 	 -49.6908 	 -87.4401
| 35> C 	 -70.5715 	 -51.3973 	 -88.7299
| 36> H 	 -71.1371 	 -52.1269 	 -88.1062
| 37> H 	 -70.1012 	 -52.0385 	 -89.437
| 38> H 	 -71.279 	 -50.7966 	 -89.2674
| 39> H 	 -63.6696 	 -48.6833 	 -90.1439
| 40> H 	 -67.3316 	 -49.8465 	 -82.8156
| 41> *
| 42>
| 43>                          ****END OF INPUT****

CARTESIAN COORDINATES (ANGSTROEM)
---------------------------------
  S    -65.119000  -48.459900  -88.021300
  C    -64.385400  -49.184200  -89.444300
  C    -64.604000  -50.560500  -89.394200
  C    -65.496700  -50.867000  -88.377700
  C    -65.792200  -49.861000  -87.527700
  H    -66.027000  -51.706200  -88.057800
  C    -63.997400  -51.517200  -90.364200
  H    -63.127200  -51.144300  -90.863300
  H    -64.665500  -51.653200  -91.285200
  C    -63.512600  -52.827700  -89.796600
  H    -62.529100  -52.770000  -89.300300
  H    -64.163700  -53.159900  -89.008300
  C    -63.257800  -53.822800  -90.996200
  H    -64.147400  -54.084800  -91.606200
  H    -62.534000  -53.568100  -91.777000
  H    -62.979600  -54.738700  -90.497400
  S    -65.941100  -49.280900  -84.934700
  C    -67.268500  -49.787100  -83.934800
  C    -68.296800  -50.299800  -84.726800
  C    -67.874400  -50.525900  -86.069400
  C    -66.655900  -49.941600  -86.361900
  H    -69.238100  -50.602100  -84.302400
  C    -68.745700  -51.327900  -87.037900
  H    -69.360700  -51.897500  -86.435200
  H    -68.222700  -51.998500  -87.696500
  C    -69.593100  -50.483700  -88.000300
  H    -68.958000  -50.003900  -88.744800
  H    -70.069400  -49.690800  -87.440100
  C    -70.571500  -51.397300  -88.729900
  H    -71.137100  -52.126900  -88.106200
  H    -70.101200  -52.038500  -89.437000
  H    -71.279000  -50.796600  -89.267400
  H    -63.669600  -48.683300  -90.143900
  H    -67.331600  -49.846500  -82.815600

 Total Charge           Charge          ....    0
 Multiplicity           Mult            ....    1
 Number of Electrons    NEL             ....  134
 Basis Dimension        Dim             ....  322

ORBITAL ENERGIES
----------------

  NO   OCC          E(Eh)            E(eV)
   0   2.0000     -88.966406     -2420.8990
   1   2.0000     -88.963099     -2420.8090
   2   2.0000     -10.323947      -280.9289
   3   2.0000     -10.321574      -280.8643
   4   2.0000     -10.314928      -280.6835
   5   2.0000     -10.313459      -280.6435
   6   2.0000     -10.304158      -280.3904
   7   2.0000     -10.299398      -280.2609
   8   2.0000     -10.295774      -280.1622
   9   2.0000     -10.289321      -279.9867
  10   2.0000     -10.288589      -279.9667
  11   2.0000     -10.284098      -279.8445
  12   2.0000     -10.281871      -279.7839
  13   2.0000     -10.281662      -279.7782
  14   2.0000     -10.277539      -279.6660
  15   2.0000     -10.273906      -279.5672
  16   2.0000      -8.081715      -219.9146
  17   2.0000      -8.080197      -219.8734
  18   2.0000      -6.040202      -164.3622
  19   2.0000      -6.038381      -164.3127
  20   2.0000      -6.036018      -164.2484
  21   2.0000      -6.034224      -164.1996
  22   2.0000      -6.032570      -164.1546
  23   2.0000      -6.031274      -164.1193
  24   2.0000      -1.025142       -27.8955
  25   2.0000      -0.993657       -27.0388
  26   2.0000      -0.917306       -24.9612
  27   2.0000      -0.912540       -24.8315
  28   2.0000      -0.872682       -23.7469
  29   2.0000      -0.854187       -23.2436
  30   2.0000      -0.847783       -23.0694
  31   2.0000      -0.816901       -22.2290
  32   2.0000      -0.783671       -21.3248
  33   2.0000      -0.773585       -21.0503
  34   2.0000      -0.712196       -19.3798
  35   2.0000      -0.702411       -19.1136
  36   2.0000      -0.689802       -18.7705
  37   2.0000      -0.668988       -18.2041
  38   2.0000      -0.650801       -17.7092
  39   2.0000      -0.622943       -16.9511
  40   2.0000      -0.599755       -16.3202
  41   2.0000      -0.572910       -15.5897
  42   2.0000      -0.565719       -15.3940
  43   2.0000      -0.552071       -15.0226
  44   2.0000      -0.530506       -14.4358
  45   2.0000      -0.525146       -14.2900
  46   2.0000      -0.519869       -14.1464
  47   2.0000      -0.511855       -13.9283
  48   2.0000      -0.505222       -13.7478
  49   2.0000      -0.502045       -13.6613
  50   2.0000      -0.492538       -13.4026
  51   2.0000      -0.481597       -13.1049
  52   2.0000      -0.480449       -13.0737
  53   2.0000      -0.464258       -12.6331
  54   2.0000      -0.462640       -12.5891
  55   2.0000      -0.452803       -12.3214
  56   2.0000      -0.450189       -12.2503
  57   2.0000      -0.440062       -11.9747
  58   2.0000      -0.438146       -11.9226
  59   2.0000      -0.425447       -11.5770
  60   2.0000      -0.423528       -11.5248
  61   2.0000      -0.413784       -11.2596
  62   2.0000      -0.398931       -10.8555
  63   2.0000      -0.348795        -9.4912
  64   2.0000      -0.332291        -9.0421
  65   2.0000      -0.330065        -8.9815
  66   2.0000      -0.290181        -7.8962
  67   0.0000       0.037323         1.0156
  68   0.0000       0.069432         1.8894
  69   0.0000       0.115443         3.1414
  70   0.0000       0.120928         3.2906
  71   0.0000       0.137623         3.7449

MULLIKEN ATOMIC CHARGES
-----------------------
   0 S :    0.118284
   1 C :   -0.145917
   2 C :   -0.025740
   3 C :    0.023340
   4 C :   -0.139004
   5 H :   -0.032756
   6 C :    0.062372
   7 H :    0.002635
   8 H :    0.047873
   9 C :   -0.078872
  10 H :    0.037587
  11 H :    0.031577
  12 C :   -0.074951
  13 H :    0.030014
  14 H :    0.039411
  15 H :    0.029924
  16 S :    0.111307
  17 C :   -0.108654
  18 C :   -0.037568
  19 C :   -0.050313
  20 C :   -0.142514
  21 H :    0.015514
  22 C :    0.097847
  23 H :   -0.010018
  24 H :    0.014555
  25 C :   -0.060360
  26 H :    0.037941
  27 H :    0.024353
  28 C :   -0.031428
  29 H :    0.023989
  30 H :    0.018710
  31 H :    0.029314
  32 H :    0.063263
  33 H :    0.078283
Sum of atomic charges:    0.0000000

LOEWDIN ATOMIC CHARGES
----------------------
   0 S :    0.456943
   1 C :   -0.210560
   2 C :   -0.059867
   3 C :   -0.076878
   4 C :   -0.233129
   5 H :    0.021059
   6 C :   -0.043084
   7 H :    0.027017
   8 H :    0.042030
   9 C :   -0.035233
  10 H :    0.031193
  11 H :    0.020608
  12 C :   -0.070827
  13 H :    0.024986
  14 H :    0.027612
  15 H :    0.024884
  16 S :    0.426418
  17 C :   -0.201591
  18 C :   -0.069561
  19 C :   -0.056232
  20 C :   -0.202542
  21 H :    0.029203
  22 C :   -0.021877
  23 H :    0.016675
  24 H :    0.025789
  25 C :   -0.031845
  26 H :    0.028851
  27 H :    0.020758
  28 C :   -0.064567
  29 H :    0.026179
  30 H :    0.020503
  31 H :    0.024575
  32 H :    0.038080
  33 H :    0.044432

  Mayer bond orders larger than 0.100000
B(  0-S ,  1-C ) :   1.1495 B(  0-S ,  4-C ) :   1.1949 B(  1-C ,  2-C ) :   1.5684
B(  1-C ,  4-C ) :   0.1049 B(  1-C , 32-H ) :   0.9672 B(  2-C ,  3-C ) :   1.2252
B(  2-C ,  6-C ) :   1.0267 B(  3-C ,  4-C ) :   1.5675 B(  3-C ,  5-H ) :   1.0120
B(  4-C , 20-C ) :   0.9873 B(  6-C ,  7-H ) :   0.9345 B(  6-C ,  8-H ) :   0.9428
B(  6-C ,  9-C ) :   1.0518 B(  9-C , 10-H ) :   0.9542 B(  9-C , 11-H ) :   0.9650
B(  9-C , 12-C ) :   1.0648 B( 12-C , 13-H ) :   0.9780 B( 12-C , 14-H ) :   0.9770
B( 12-C , 15-H ) :   0.9756 B( 16-S , 17-C ) :   1.1690 B( 16-S , 20-C ) :   1.1503
B( 17-C , 18-C ) :   1.5898 B( 17-C , 20-C ) :   0.1073 B( 17-C , 33-H ) :   0.9615
B( 18-C , 19-C ) :   1.2595 B( 18-C , 21-H ) :   0.9880 B( 19-C , 20-C ) :   1.5928
B( 19-C , 22-C ) :   1.0414 B( 22-C , 23-H ) :   0.9255 B( 22-C , 24-H ) :   0.9404
B( 22-C , 25-C ) :   1.0682 B( 25-C , 26-H ) :   0.9531 B( 25-C , 27-H ) :   0.9573
B( 25-C , 28-C ) :   1.0803 B( 28-C , 29-H ) :   0.9748 B( 28-C , 30-H ) :   0.9725
B( 28-C , 31-H ) :   0.9733

Dispersion correction           -0.013698085
FINAL SINGLE POINT ENERGY     -1339.857568168117

DIPOLE MOMENT
-------------
                                X             Y             Z
Electronic contribution:      7.01254      20.90894      18.56138
Nuclear contribution   :     -7.21274     -21.47759     -18.77422
                        -----------------------------------------
Total Dipole Moment    :     -0.20021      -0.56865      -0.21283
                        -----------------------------------------
Magnitude (a.u.)       :      0.63933
Magnitude (Debye)      :      1.62504

Rotational constants in cm-1:     0.016971     0.008678     0.007031
Rotational constants in MHz :   508.792180   260.164195   210.793872

                             ****ORCA TERMINATED NORMALLY****
TOTAL RUN TIME: 0 days 0 hours 0 minutes 20 seconds 365 msec
