                         Program Version 4.2.1 -  RELEASE  -
|  1> ! wB97X-D3 SP def2-SVP
|  2> %pal
|  3> nprocs 24
|  4> end
|  5>
|  6> * xyz 0 1
|  7> S 	 -89.0044 	 -36.5192 	 -64.9828
|  8> C 	 -90.4711 	 -37.4231 	 -65.2838
|  9> C 	 -91.5923 	 -36.6447 	 -64.8821
| 10> C 	 -91.237 	 -35.2787 	 -64.493
| 11> C 	 -89.9054 	 -35.0363 	 -64.6726
| 12> H 	 -91.9368 	 -34.5793 	 -64.1158
| 13> C 	 -92.9903 	 -37.1725 	 -64.9259
| 14> H 	 -93.5752 	 -36.4315 	 -64.4263
| 15> H 	 -93.0652 	 -38.1005 	 -64.4079
| 16> C 	 -93.5341 	 -37.3438 	 -66.3276
| 17> H 	 -93.214 	 -36.3983 	 -66.73
| 18> H 	 -93.0178 	 -38.0593 	 -66.8549
| 19> C 	 -95.0526 	 -37.6863 	 -66.4786
| 20> H 	 -95.2926 	 -38.6564 	 -66.0816
| 21> H 	 -95.6491 	 -37.0007 	 -65.9231
| 22> H 	 -95.3323 	 -37.5556 	 -67.4927
| 23> S 	 -88.1042 	 -33.7977 	 -63.1155
| 24> C 	 -87.6968 	 -32.1463 	 -63.3523
| 25> C 	 -88.4993 	 -31.5287 	 -64.2964
| 26> C 	 -89.4113 	 -32.4076 	 -64.9114
| 27> C 	 -89.2217 	 -33.7445 	 -64.4617
| 28> H 	 -88.3838 	 -30.4751 	 -64.4834
| 29> C 	 -90.3025 	 -32.0539 	 -66.0662
| 30> H 	 -91.1092 	 -32.7785 	 -65.9909
| 31> H 	 -89.7314 	 -32.2773 	 -66.9621
| 32> C 	 -90.8467 	 -30.663 	 -66.0983
| 33> H 	 -90.1173 	 -29.9568 	 -66.5659
| 34> H 	 -91.2068 	 -30.3378 	 -65.09
| 35> C 	 -92.0794 	 -30.5845 	 -67.056
| 36> H 	 -92.1459 	 -29.4865 	 -67.205
| 37> H 	 -92.976 	 -31.1028 	 -66.6621
| 38> H 	 -91.9944 	 -30.9305 	 -68.1319
| 39> H 	 -90.4605 	 -38.3972 	 -65.6836
| 40> H 	 -86.8801 	 -31.5987 	 -62.8317
| 41> *
| 42>
| 43>                          ****END OF INPUT****

CARTESIAN COORDINATES (ANGSTROEM)
---------------------------------
  S    -89.004400  -36.519200  -64.982800
  C    -90.471100  -37.423100  -65.283800
  C    -91.592300  -36.644700  -64.882100
  C    -91.237000  -35.278700  -64.493000
  C    -89.905400  -35.036300  -64.672600
  H    -91.936800  -34.579300  -64.115800
  C    -92.990300  -37.172500  -64.925900
  H    -93.575200  -36.431500  -64.426300
  H    -93.065200  -38.100500  -64.407900
  C    -93.534100  -37.343800  -66.327600
  H    -93.214000  -36.398300  -66.730000
  H    -93.017800  -38.059300  -66.854900
  C    -95.052600  -37.686300  -66.478600
  H    -95.292600  -38.656400  -66.081600
  H    -95.649100  -37.000700  -65.923100
  H    -95.332300  -37.555600  -67.492700
  S    -88.104200  -33.797700  -63.115500
  C    -87.696800  -32.146300  -63.352300
  C    -88.499300  -31.528700  -64.296400
  C    -89.411300  -32.407600  -64.911400
  C    -89.221700  -33.744500  -64.461700
  H    -88.383800  -30.475100  -64.483400
  C    -90.302500  -32.053900  -66.066200
  H    -91.109200  -32.778500  -65.990900
  H    -89.731400  -32.277300  -66.962100
  C    -90.846700  -30.663000  -66.098300
  H    -90.117300  -29.956800  -66.565900
  H    -91.206800  -30.337800  -65.090000
  C    -92.079400  -30.584500  -67.056000
  H    -92.145900  -29.486500  -67.205000
  H    -92.976000  -31.102800  -66.662100
  H    -91.994400  -30.930500  -68.131900
  H    -90.460500  -38.397200  -65.683600
  H    -86.880100  -31.598700  -62.831700

 Total Charge           Charge          ....    0
 Multiplicity           Mult            ....    1
 Number of Electrons    NEL             ....  134
 Basis Dimension        Dim             ....  322

ORBITAL ENERGIES
----------------

  NO   OCC          E(Eh)            E(eV)
   0   2.0000     -88.965022     -2420.8613
   1   2.0000     -88.964025     -2420.8342
   2   2.0000     -10.330410      -281.1048
   3   2.0000     -10.324866      -280.9539
   4   2.0000     -10.314457      -280.6706
   5   2.0000     -10.314423      -280.6697
   6   2.0000     -10.305469      -280.4261
   7   2.0000     -10.303195      -280.3642
   8   2.0000     -10.295489      -280.1545
   9   2.0000     -10.295268      -280.1485
  10   2.0000     -10.289082      -279.9802
  11   2.0000     -10.287018      -279.9240
  12   2.0000     -10.284486      -279.8551
  13   2.0000     -10.280995      -279.7601
  14   2.0000     -10.275919      -279.6220
  15   2.0000     -10.274242      -279.5763
  16   2.0000      -8.079633      -219.8580
  17   2.0000      -8.079309      -219.8492
  18   2.0000      -6.038195      -164.3076
  19   2.0000      -6.037634      -164.2924
  20   2.0000      -6.034170      -164.1981
  21   2.0000      -6.033636      -164.1836
  22   2.0000      -6.030350      -164.0942
  23   2.0000      -6.030337      -164.0938
  24   2.0000      -1.004612       -27.3369
  25   2.0000      -0.981743       -26.7146
  26   2.0000      -0.916059       -24.9272
  27   2.0000      -0.913448       -24.8562
  28   2.0000      -0.865143       -23.5417
  29   2.0000      -0.851675       -23.1753
  30   2.0000      -0.846222       -23.0269
  31   2.0000      -0.815406       -22.1883
  32   2.0000      -0.782206       -21.2849
  33   2.0000      -0.767254       -20.8780
  34   2.0000      -0.709330       -19.3019
  35   2.0000      -0.700307       -19.0563
  36   2.0000      -0.692785       -18.8516
  37   2.0000      -0.653179       -17.7739
  38   2.0000      -0.643983       -17.5237
  39   2.0000      -0.620953       -16.8970
  40   2.0000      -0.593651       -16.1541
  41   2.0000      -0.578803       -15.7500
  42   2.0000      -0.573320       -15.6008
  43   2.0000      -0.562781       -15.3141
  44   2.0000      -0.528138       -14.3714
  45   2.0000      -0.524482       -14.2719
  46   2.0000      -0.519768       -14.1436
  47   2.0000      -0.510575       -13.8934
  48   2.0000      -0.503456       -13.6997
  49   2.0000      -0.498509       -13.5651
  50   2.0000      -0.493253       -13.4221
  51   2.0000      -0.481151       -13.0928
  52   2.0000      -0.473614       -12.8877
  53   2.0000      -0.465687       -12.6720
  54   2.0000      -0.459313       -12.4985
  55   2.0000      -0.448828       -12.2132
  56   2.0000      -0.445203       -12.1146
  57   2.0000      -0.436674       -11.8825
  58   2.0000      -0.430108       -11.7038
  59   2.0000      -0.428116       -11.6496
  60   2.0000      -0.422436       -11.4951
  61   2.0000      -0.416707       -11.3392
  62   2.0000      -0.408842       -11.1252
  63   2.0000      -0.342176        -9.3111
  64   2.0000      -0.330596        -8.9960
  65   2.0000      -0.323558        -8.8045
  66   2.0000      -0.289554        -7.8792
  67   0.0000       0.030536         0.8309
  68   0.0000       0.061641         1.6773
  69   0.0000       0.110638         3.0106
  70   0.0000       0.125072         3.4034
  71   0.0000       0.134347         3.6558

MULLIKEN ATOMIC CHARGES
-----------------------
   0 S :    0.112199
   1 C :   -0.109574
   2 C :   -0.138701
   3 C :    0.067626
   4 C :   -0.163545
   5 H :    0.008624
   6 C :    0.116269
   7 H :    0.000561
   8 H :    0.020831
   9 C :   -0.071766
  10 H :    0.017385
  11 H :    0.007047
  12 C :    0.002046
  13 H :    0.028573
  14 H :    0.011113
  15 H :    0.031548
  16 S :    0.113853
  17 C :   -0.093132
  18 C :   -0.052208
  19 C :   -0.037788
  20 C :   -0.167723
  21 H :    0.015154
  22 C :    0.111273
  23 H :    0.010173
  24 H :    0.046160
  25 C :   -0.111376
  26 H :    0.042070
  27 H :    0.046170
  28 C :   -0.086071
  29 H :    0.034199
  30 H :    0.046585
  31 H :    0.036764
  32 H :    0.040319
  33 H :    0.065341
Sum of atomic charges:    0.0000000

LOEWDIN ATOMIC CHARGES
----------------------
   0 S :    0.401757
   1 C :   -0.191981
   2 C :   -0.053181
   3 C :   -0.058554
   4 C :   -0.194456
   5 H :    0.028429
   6 C :   -0.030606
   7 H :    0.024259
   8 H :    0.024528
   9 C :   -0.031855
  10 H :    0.023363
  11 H :    0.009781
  12 C :   -0.053027
  13 H :    0.024696
  14 H :    0.019066
  15 H :    0.025646
  16 S :    0.426170
  17 C :   -0.201622
  18 C :   -0.078493
  19 C :   -0.054443
  20 C :   -0.204641
  21 H :    0.030838
  22 C :   -0.037433
  23 H :    0.028996
  24 H :    0.040592
  25 C :   -0.045251
  26 H :    0.030747
  27 H :    0.033167
  28 C :   -0.077292
  29 H :    0.029472
  30 H :    0.025864
  31 H :    0.029739
  32 H :    0.019300
  33 H :    0.036425

  Mayer bond orders larger than 0.100000
B(  0-S ,  1-C ) :   1.1381 B(  0-S ,  4-C ) :   1.1587 B(  1-C ,  2-C ) :   1.5790
B(  1-C , 32-H ) :   0.9833 B(  2-C ,  3-C ) :   1.2316 B(  2-C ,  6-C ) :   1.0440
B(  3-C ,  4-C ) :   1.5699 B(  3-C ,  5-H ) :   0.9980 B(  4-C , 20-C ) :   1.0070
B(  6-C ,  7-H ) :   0.9333 B(  6-C ,  8-H ) :   0.9304 B(  6-C ,  9-C ) :   1.0626
B(  9-C , 10-H ) :   0.9559 B(  9-C , 11-H ) :   0.9570 B(  9-C , 12-C ) :   1.0796
B( 12-C , 13-H ) :   0.9742 B( 12-C , 14-H ) :   0.9751 B( 12-C , 15-H ) :   0.9750
B( 16-S , 17-C ) :   1.1746 B( 16-S , 20-C ) :   1.1714 B( 17-C , 18-C ) :   1.5813
B( 17-C , 20-C ) :   0.1096 B( 17-C , 33-H ) :   0.9604 B( 18-C , 19-C ) :   1.2622
B( 18-C , 21-H ) :   0.9948 B( 19-C , 20-C ) :   1.5584 B( 19-C , 22-C ) :   1.0368
B( 22-C , 23-H ) :   0.9311 B( 22-C , 24-H ) :   0.9240 B( 22-C , 25-C ) :   1.0801
B( 25-C , 26-H ) :   0.9465 B( 25-C , 27-H ) :   0.9580 B( 25-C , 28-C ) :   1.0783
B( 28-C , 29-H ) :   0.9771 B( 28-C , 30-H ) :   0.9755 B( 28-C , 31-H ) :   0.9736

Dispersion correction           -0.013448155
FINAL SINGLE POINT ENERGY     -1339.866234619431

DIPOLE MOMENT
-------------
                                X             Y             Z
Electronic contribution:     26.83333      -5.94695      14.83837
Nuclear contribution   :    -27.36124       6.20912     -15.09655
                        -----------------------------------------
Total Dipole Moment    :     -0.52790       0.26217      -0.25818
                        -----------------------------------------
Magnitude (a.u.)       :      0.64348
Magnitude (Debye)      :      1.63561

Rotational constants in cm-1:     0.017035     0.008497     0.006059
Rotational constants in MHz :   510.691608   254.735261   181.651947

                             ****ORCA TERMINATED NORMALLY****
TOTAL RUN TIME: 0 days 0 hours 0 minutes 20 seconds 974 msec
