                         Program Version 4.2.1 -  RELEASE  -
|  1> ! wB97X-D3 SP def2-SVP
|  2> %pal
|  3> nprocs 24
|  4> end
|  5>
|  6> * xyz 0 1
|  7> S 	 -113.714 	 57.7781 	 -82.7884
|  8> C 	 -113.25 	 59.1857 	 -83.6663
|  9> C 	 -112.504 	 59.9965 	 -82.8642
| 10> C 	 -112.462 	 59.6075 	 -81.5168
| 11> C 	 -113.205 	 58.4523 	 -81.2899
| 12> H 	 -111.969 	 60.0708 	 -80.699
| 13> C 	 -111.76 	 61.1781 	 -83.2755
| 14> H 	 -111.158 	 60.7476 	 -84.0012
| 15> H 	 -111.123 	 61.6076 	 -82.5102
| 16> C 	 -112.543 	 62.4046 	 -83.8783
| 17> H 	 -111.92 	 63.013 	 -84.4714
| 18> H 	 -113.339 	 62.0664 	 -84.6299
| 19> C 	 -113.178 	 63.2825 	 -82.7769
| 20> H 	 -113.839 	 63.9993 	 -83.2042
| 21> H 	 -113.679 	 62.7119 	 -82.0028
| 22> H 	 -112.464 	 63.8643 	 -82.2232
| 23> S 	 -113.529 	 55.9695 	 -80.3962
| 24> C 	 -113.234 	 55.59 	 -78.7649
| 25> C 	 -113.087 	 56.7257 	 -77.993
| 26> C 	 -113.054 	 57.948 	 -78.7657
| 27> C 	 -113.225 	 57.6231 	 -80.107
| 28> H 	 -113.098 	 56.709 	 -76.9227
| 29> C 	 -112.971 	 59.303 	 -78.1312
| 30> H 	 -112.749 	 60.0256 	 -78.9149
| 31> H 	 -112.102 	 59.275 	 -77.3845
| 32> C 	 -114.21 	 59.6745 	 -77.2767
| 33> H 	 -114.28 	 58.9579 	 -76.4594
| 34> H 	 -115.139 	 59.4842 	 -77.8575
| 35> C 	 -114.183 	 61.1271 	 -76.7492
| 36> H 	 -113.279 	 61.2843 	 -76.0721
| 37> H 	 -115.098 	 61.3778 	 -76.2186
| 38> H 	 -114.237 	 61.8049 	 -77.5297
| 39> H 	 -113.434 	 59.3049 	 -84.7191
| 40> H 	 -113.138 	 54.6073 	 -78.302
| 41> *
| 42>
| 43>                          ****END OF INPUT****

CARTESIAN COORDINATES (ANGSTROEM)
---------------------------------
  S    -113.714000   57.778100  -82.788400
  C    -113.250000   59.185700  -83.666300
  C    -112.504000   59.996500  -82.864200
  C    -112.462000   59.607500  -81.516800
  C    -113.205000   58.452300  -81.289900
  H    -111.969000   60.070800  -80.699000
  C    -111.760000   61.178100  -83.275500
  H    -111.158000   60.747600  -84.001200
  H    -111.123000   61.607600  -82.510200
  C    -112.543000   62.404600  -83.878300
  H    -111.920000   63.013000  -84.471400
  H    -113.339000   62.066400  -84.629900
  C    -113.178000   63.282500  -82.776900
  H    -113.839000   63.999300  -83.204200
  H    -113.679000   62.711900  -82.002800
  H    -112.464000   63.864300  -82.223200
  S    -113.529000   55.969500  -80.396200
  C    -113.234000   55.590000  -78.764900
  C    -113.087000   56.725700  -77.993000
  C    -113.054000   57.948000  -78.765700
  C    -113.225000   57.623100  -80.107000
  H    -113.098000   56.709000  -76.922700
  C    -112.971000   59.303000  -78.131200
  H    -112.749000   60.025600  -78.914900
  H    -112.102000   59.275000  -77.384500
  C    -114.210000   59.674500  -77.276700
  H    -114.280000   58.957900  -76.459400
  H    -115.139000   59.484200  -77.857500
  C    -114.183000   61.127100  -76.749200
  H    -113.279000   61.284300  -76.072100
  H    -115.098000   61.377800  -76.218600
  H    -114.237000   61.804900  -77.529700
  H    -113.434000   59.304900  -84.719100
  H    -113.138000   54.607300  -78.302000

 Total Charge           Charge          ....    0
 Multiplicity           Mult            ....    1
 Number of Electrons    NEL             ....  134
 Basis Dimension        Dim             ....  322

ORBITAL ENERGIES
----------------

  NO   OCC          E(Eh)            E(eV)
   0   2.0000     -88.965618     -2420.8775
   1   2.0000     -88.962628     -2420.7962
   2   2.0000     -10.323694      -280.9220
   3   2.0000     -10.321459      -280.8612
   4   2.0000     -10.312016      -280.6042
   5   2.0000     -10.304983      -280.4129
   6   2.0000     -10.301217      -280.3104
   7   2.0000     -10.299359      -280.2598
   8   2.0000     -10.291968      -280.0587
   9   2.0000     -10.291228      -280.0386
  10   2.0000     -10.291028      -280.0331
  11   2.0000     -10.290497      -280.0187
  12   2.0000     -10.285522      -279.8833
  13   2.0000     -10.280510      -279.7469
  14   2.0000     -10.280061      -279.7347
  15   2.0000     -10.271433      -279.4999
  16   2.0000      -8.082276      -219.9299
  17   2.0000      -8.078664      -219.8316
  18   2.0000      -6.040749      -164.3771
  19   2.0000      -6.037144      -164.2790
  20   2.0000      -6.036608      -164.2645
  21   2.0000      -6.033038      -164.1673
  22   2.0000      -6.032875      -164.1629
  23   2.0000      -6.029358      -164.0672
  24   2.0000      -1.019657       -27.7463
  25   2.0000      -0.993532       -27.0354
  26   2.0000      -0.914778       -24.8924
  27   2.0000      -0.909740       -24.7553
  28   2.0000      -0.870675       -23.6923
  29   2.0000      -0.857571       -23.3357
  30   2.0000      -0.847604       -23.0645
  31   2.0000      -0.816388       -22.2150
  32   2.0000      -0.784801       -21.3555
  33   2.0000      -0.773289       -21.0423
  34   2.0000      -0.710830       -19.3427
  35   2.0000      -0.705943       -19.2097
  36   2.0000      -0.695489       -18.9252
  37   2.0000      -0.666316       -18.1314
  38   2.0000      -0.641286       -17.4503
  39   2.0000      -0.616718       -16.7817
  40   2.0000      -0.595364       -16.2007
  41   2.0000      -0.572720       -15.5845
  42   2.0000      -0.565706       -15.3936
  43   2.0000      -0.559770       -15.2321
  44   2.0000      -0.536179       -14.5902
  45   2.0000      -0.522586       -14.2203
  46   2.0000      -0.518340       -14.1048
  47   2.0000      -0.512682       -13.9508
  48   2.0000      -0.506698       -13.7880
  49   2.0000      -0.502702       -13.6792
  50   2.0000      -0.490242       -13.3402
  51   2.0000      -0.487128       -13.2554
  52   2.0000      -0.475094       -12.9280
  53   2.0000      -0.469752       -12.7826
  54   2.0000      -0.459223       -12.4961
  55   2.0000      -0.457000       -12.4356
  56   2.0000      -0.442450       -12.0397
  57   2.0000      -0.439344       -11.9552
  58   2.0000      -0.431218       -11.7340
  59   2.0000      -0.427419       -11.6307
  60   2.0000      -0.422898       -11.5076
  61   2.0000      -0.419213       -11.4074
  62   2.0000      -0.412144       -11.2150
  63   2.0000      -0.360990        -9.8230
  64   2.0000      -0.335314        -9.1244
  65   2.0000      -0.322427        -8.7737
  66   2.0000      -0.277109        -7.5405
  67   0.0000       0.022724         0.6183
  68   0.0000       0.082021         2.2319
  69   0.0000       0.103005         2.8029
  70   0.0000       0.118496         3.2244
  71   0.0000       0.137597         3.7442

MULLIKEN ATOMIC CHARGES
-----------------------
   0 S :    0.082295
   1 C :   -0.116999
   2 C :   -0.051403
   3 C :   -0.012462
   4 C :   -0.095656
   5 H :    0.003565
   6 C :    0.084028
   7 H :    0.018640
   8 H :    0.016662
   9 C :   -0.070877
  10 H :    0.016675
  11 H :    0.031091
  12 C :   -0.034806
  13 H :    0.027823
  14 H :    0.031404
  15 H :    0.015977
  16 S :    0.110831
  17 C :   -0.075642
  18 C :   -0.041068
  19 C :   -0.056032
  20 C :   -0.138626
  21 H :    0.008036
  22 C :    0.060568
  23 H :    0.010392
  24 H :    0.037779
  25 C :   -0.094083
  26 H :    0.024570
  27 H :    0.038466
  28 C :   -0.022457
  29 H :    0.043958
  30 H :    0.030692
  31 H :    0.017684
  32 H :    0.041413
  33 H :    0.057563
Sum of atomic charges:   -0.0000000

LOEWDIN ATOMIC CHARGES
----------------------
   0 S :    0.420970
   1 C :   -0.208348
   2 C :   -0.061866
   3 C :   -0.069267
   4 C :   -0.189619
   5 H :    0.023581
   6 C :   -0.029494
   7 H :    0.028757
   8 H :    0.029890
   9 C :   -0.032607
  10 H :    0.015608
  11 H :    0.028093
  12 C :   -0.064307
  13 H :    0.023238
  14 H :    0.025284
  15 H :    0.020694
  16 S :    0.438093
  17 C :   -0.205828
  18 C :   -0.066102
  19 C :   -0.059971
  20 C :   -0.206860
  21 H :    0.024731
  22 C :   -0.035340
  23 H :    0.024942
  24 H :    0.040085
  25 C :   -0.039526
  26 H :    0.020326
  27 H :    0.029000
  28 C :   -0.064252
  29 H :    0.034514
  30 H :    0.029392
  31 H :    0.015374
  32 H :    0.026397
  33 H :    0.034418

  Mayer bond orders larger than 0.100000
B(  0-S ,  1-C ) :   1.1323 B(  0-S ,  4-C ) :   1.1749 B(  1-C ,  2-C ) :   1.5759
B(  1-C , 32-H ) :   0.9782 B(  2-C ,  3-C ) :   1.2678 B(  2-C ,  6-C ) :   1.0200
B(  3-C ,  4-C ) :   1.5169 B(  3-C ,  5-H ) :   0.9977 B(  4-C , 20-C ) :   1.0768
B(  6-C ,  7-H ) :   0.9219 B(  6-C ,  8-H ) :   0.9482 B(  6-C ,  9-C ) :   1.0732
B(  9-C , 10-H ) :   0.9554 B(  9-C , 11-H ) :   0.9604 B(  9-C , 12-C ) :   1.0709
B( 12-C , 13-H ) :   0.9741 B( 12-C , 14-H ) :   0.9798 B( 12-C , 15-H ) :   0.9729
B( 16-S , 17-C ) :   1.1553 B( 16-S , 20-C ) :   1.1499 B( 17-C , 18-C ) :   1.6080
B( 17-C , 33-H ) :   0.9672 B( 18-C , 19-C ) :   1.2428 B( 18-C , 21-H ) :   0.9905
B( 19-C , 20-C ) :   1.5768 B( 19-C , 22-C ) :   1.0562 B( 22-C , 23-H ) :   0.9310
B( 22-C , 24-H ) :   0.9271 B( 22-C , 25-C ) :   1.0577 B( 25-C , 26-H ) :   0.9544
B( 25-C , 27-H ) :   0.9554 B( 25-C , 28-C ) :   1.0860 B( 28-C , 29-H ) :   0.9734
B( 28-C , 30-H ) :   0.9714 B( 28-C , 31-H ) :   0.9736

Dispersion correction           -0.013818292
FINAL SINGLE POINT ENERGY     -1339.873508676322

DIPOLE MOMENT
-------------
                                X             Y             Z
Electronic contribution:     -1.42939     -29.02902      -8.78372
Nuclear contribution   :      1.63313      29.52831       9.06066
                        -----------------------------------------
Total Dipole Moment    :      0.20374       0.49928       0.27694
                        -----------------------------------------
Magnitude (a.u.)       :      0.60621
Magnitude (Debye)      :      1.54085

Rotational constants in cm-1:     0.017417     0.009501     0.006522
Rotational constants in MHz :   522.141082   284.818996   195.519150

                             ****ORCA TERMINATED NORMALLY****
TOTAL RUN TIME: 0 days 0 hours 0 minutes 20 seconds 500 msec
