                         Program Version 4.2.1 -  RELEASE  -
|  1> ! wB97X-D3 SP def2-SVP
|  2> %pal
|  3> nprocs 24
|  4> end
|  5>
|  6> * xyz 0 1
|  7> S 	 -132.202 	 26.2983 	 -16.8152
|  8> C 	 -132.504 	 24.7283 	 -17.59
|  9> C 	 -133.652 	 24.0786 	 -17.163
| 10> C 	 -134.382 	 24.9584 	 -16.346
| 11> C 	 -133.787 	 26.1588 	 -16.0498
| 12> H 	 -135.249 	 24.8825 	 -15.7692
| 13> C 	 -134.144 	 22.6838 	 -17.4225
| 14> H 	 -133.769 	 22.1455 	 -18.3454
| 15> H 	 -135.203 	 22.7425 	 -17.6691
| 16> C 	 -133.835 	 21.7345 	 -16.1951
| 17> H 	 -134.262 	 21.9814 	 -15.2847
| 18> H 	 -134.031 	 20.7158 	 -16.4897
| 19> C 	 -132.35 	 21.6916 	 -15.9834
| 20> H 	 -131.783 	 21.8414 	 -16.9603
| 21> H 	 -132.072 	 22.5415 	 -15.3487
| 22> H 	 -131.99 	 20.8553 	 -15.3748
| 23> S 	 -133.259 	 27.6264 	 -13.8379
| 24> C 	 -134.426 	 28.7707 	 -13.1566
| 25> C 	 -135.515 	 28.8173 	 -14.0247
| 26> C 	 -135.413 	 27.9461 	 -15.1642
| 27> C 	 -134.234 	 27.2497 	 -15.2057
| 28> H 	 -136.345 	 29.4275 	 -13.7537
| 29> C 	 -136.497 	 27.8434 	 -16.2137
| 30> H 	 -135.981 	 27.5624 	 -17.1201
| 31> H 	 -136.983 	 28.8209 	 -16.3527
| 32> C 	 -137.639 	 26.8415 	 -15.9003
| 33> H 	 -138.383 	 27.3221 	 -15.2255
| 34> H 	 -137.201 	 25.9756 	 -15.411
| 35> C 	 -138.38 	 26.3497 	 -17.1918
| 36> H 	 -139.015 	 25.4768 	 -16.8938
| 37> H 	 -137.662 	 25.8553 	 -17.893
| 38> H 	 -138.981 	 27.0804 	 -17.7209
| 39> H 	 -131.917 	 24.1884 	 -18.3278
| 40> H 	 -134.367 	 29.5013 	 -12.3657
| 41> *
| 42>
| 43>                          ****END OF INPUT****

CARTESIAN COORDINATES (ANGSTROEM)
---------------------------------
  S    -132.202000   26.298300  -16.815200
  C    -132.504000   24.728300  -17.590000
  C    -133.652000   24.078600  -17.163000
  C    -134.382000   24.958400  -16.346000
  C    -133.787000   26.158800  -16.049800
  H    -135.249000   24.882500  -15.769200
  C    -134.144000   22.683800  -17.422500
  H    -133.769000   22.145500  -18.345400
  H    -135.203000   22.742500  -17.669100
  C    -133.835000   21.734500  -16.195100
  H    -134.262000   21.981400  -15.284700
  H    -134.031000   20.715800  -16.489700
  C    -132.350000   21.691600  -15.983400
  H    -131.783000   21.841400  -16.960300
  H    -132.072000   22.541500  -15.348700
  H    -131.990000   20.855300  -15.374800
  S    -133.259000   27.626400  -13.837900
  C    -134.426000   28.770700  -13.156600
  C    -135.515000   28.817300  -14.024700
  C    -135.413000   27.946100  -15.164200
  C    -134.234000   27.249700  -15.205700
  H    -136.345000   29.427500  -13.753700
  C    -136.497000   27.843400  -16.213700
  H    -135.981000   27.562400  -17.120100
  H    -136.983000   28.820900  -16.352700
  C    -137.639000   26.841500  -15.900300
  H    -138.383000   27.322100  -15.225500
  H    -137.201000   25.975600  -15.411000
  C    -138.380000   26.349700  -17.191800
  H    -139.015000   25.476800  -16.893800
  H    -137.662000   25.855300  -17.893000
  H    -138.981000   27.080400  -17.720900
  H    -131.917000   24.188400  -18.327800
  H    -134.367000   29.501300  -12.365700

 Total Charge           Charge          ....    0
 Multiplicity           Mult            ....    1
 Number of Electrons    NEL             ....  134
 Basis Dimension        Dim             ....  322

ORBITAL ENERGIES
----------------

  NO   OCC          E(Eh)            E(eV)
   0   2.0000     -88.970553     -2421.0118
   1   2.0000     -88.965028     -2420.8615
   2   2.0000     -10.328740      -281.0593
   3   2.0000     -10.322837      -280.8987
   4   2.0000     -10.319411      -280.8054
   5   2.0000     -10.318123      -280.7704
   6   2.0000     -10.304339      -280.3953
   7   2.0000     -10.303763      -280.3797
   8   2.0000     -10.300590      -280.2933
   9   2.0000     -10.293100      -280.0895
  10   2.0000     -10.292224      -280.0656
  11   2.0000     -10.290030      -280.0059
  12   2.0000     -10.288265      -279.9579
  13   2.0000     -10.284966      -279.8682
  14   2.0000     -10.282693      -279.8063
  15   2.0000     -10.274967      -279.5961
  16   2.0000      -8.084482      -219.9899
  17   2.0000      -8.079813      -219.8629
  18   2.0000      -6.042966      -164.4375
  19   2.0000      -6.039246      -164.3362
  20   2.0000      -6.038486      -164.3156
  21   2.0000      -6.035169      -164.2253
  22   2.0000      -6.034134      -164.1971
  23   2.0000      -6.030545      -164.0995
  24   2.0000      -1.010767       -27.5044
  25   2.0000      -0.985505       -26.8169
  26   2.0000      -0.916085       -24.9279
  27   2.0000      -0.903702       -24.5910
  28   2.0000      -0.872181       -23.7333
  29   2.0000      -0.852651       -23.2018
  30   2.0000      -0.844311       -22.9749
  31   2.0000      -0.817700       -22.2508
  32   2.0000      -0.781851       -21.2753
  33   2.0000      -0.770553       -20.9678
  34   2.0000      -0.708485       -19.2788
  35   2.0000      -0.696408       -18.9502
  36   2.0000      -0.694082       -18.8869
  37   2.0000      -0.665362       -18.1054
  38   2.0000      -0.651337       -17.7238
  39   2.0000      -0.620565       -16.8864
  40   2.0000      -0.589280       -16.0351
  41   2.0000      -0.574942       -15.6450
  42   2.0000      -0.565074       -15.3765
  43   2.0000      -0.559757       -15.2318
  44   2.0000      -0.547147       -14.8886
  45   2.0000      -0.521653       -14.1949
  46   2.0000      -0.517264       -14.0755
  47   2.0000      -0.510477       -13.8908
  48   2.0000      -0.504339       -13.7238
  49   2.0000      -0.491006       -13.3609
  50   2.0000      -0.487243       -13.2586
  51   2.0000      -0.481015       -13.0891
  52   2.0000      -0.468726       -12.7547
  53   2.0000      -0.464065       -12.6279
  54   2.0000      -0.458513       -12.4768
  55   2.0000      -0.444592       -12.0980
  56   2.0000      -0.440074       -11.9750
  57   2.0000      -0.436416       -11.8755
  58   2.0000      -0.430505       -11.7146
  59   2.0000      -0.429159       -11.6780
  60   2.0000      -0.423225       -11.5165
  61   2.0000      -0.416776       -11.3410
  62   2.0000      -0.414580       -11.2813
  63   2.0000      -0.345853        -9.4112
  64   2.0000      -0.336800        -9.1648
  65   2.0000      -0.326856        -8.8942
  66   2.0000      -0.297235        -8.0882
  67   0.0000       0.031710         0.8629
  68   0.0000       0.063646         1.7319
  69   0.0000       0.107614         2.9283
  70   0.0000       0.119912         3.2630
  71   0.0000       0.127280         3.4635

MULLIKEN ATOMIC CHARGES
-----------------------
   0 S :    0.119177
   1 C :   -0.099576
   2 C :   -0.069420
   3 C :    0.065411
   4 C :   -0.186798
   5 H :   -0.026078
   6 C :    0.034151
   7 H :    0.033463
   8 H :    0.032556
   9 C :   -0.015686
  10 H :    0.024313
  11 H :    0.028424
  12 C :   -0.094507
  13 H :    0.032811
  14 H :    0.035324
  15 H :    0.036886
  16 S :    0.105329
  17 C :   -0.081016
  18 C :   -0.045773
  19 C :   -0.038932
  20 C :   -0.148763
  21 H :    0.010083
  22 C :    0.077057
  23 H :    0.027902
  24 H :    0.025677
  25 C :   -0.077873
  26 H :    0.037116
  27 H :    0.027381
  28 C :   -0.076883
  29 H :    0.035870
  30 H :    0.034729
  31 H :    0.043902
  32 H :    0.038299
  33 H :    0.055443
Sum of atomic charges:   -0.0000000

LOEWDIN ATOMIC CHARGES
----------------------
   0 S :    0.393348
   1 C :   -0.183614
   2 C :   -0.064033
   3 C :   -0.053368
   4 C :   -0.185342
   5 H :    0.022374
   6 C :   -0.032720
   7 H :    0.037221
   8 H :    0.031125
   9 C :   -0.029506
  10 H :    0.015965
  11 H :    0.025038
  12 C :   -0.073458
  13 H :    0.028224
  14 H :    0.025836
  15 H :    0.025706
  16 S :    0.411617
  17 C :   -0.185616
  18 C :   -0.066506
  19 C :   -0.061839
  20 C :   -0.215120
  21 H :    0.025798
  22 C :   -0.032156
  23 H :    0.029547
  24 H :    0.032576
  25 C :   -0.037827
  26 H :    0.027252
  27 H :    0.018204
  28 C :   -0.072454
  29 H :    0.030991
  30 H :    0.028093
  31 H :    0.023132
  32 H :    0.027410
  33 H :    0.034104

  Mayer bond orders larger than 0.100000
B(  0-S ,  1-C ) :   1.1364 B(  0-S ,  4-C ) :   1.1267 B(  1-C ,  2-C ) :   1.6334
B(  1-C ,  4-C ) :   0.1019 B(  1-C , 32-H ) :   0.9588 B(  2-C ,  3-C ) :   1.1953
B(  2-C ,  6-C ) :   1.0261 B(  3-C ,  4-C ) :   1.6232 B(  3-C ,  5-H ) :   0.9994
B(  4-C , 20-C ) :   1.0067 B(  6-C ,  7-H ) :   0.9450 B(  6-C ,  8-H ) :   0.9413
B(  6-C ,  9-C ) :   1.0652 B(  9-C , 10-H ) :   0.9615 B(  9-C , 11-H ) :   0.9605
B(  9-C , 12-C ) :   1.0694 B( 12-C , 13-H ) :   0.9734 B( 12-C , 14-H ) :   0.9703
B( 12-C , 15-H ) :   0.9731 B( 16-S , 17-C ) :   1.1424 B( 16-S , 20-C ) :   1.1449
B( 17-C , 18-C ) :   1.6175 B( 17-C , 33-H ) :   0.9668 B( 18-C , 19-C ) :   1.2352
B( 18-C , 21-H ) :   0.9923 B( 19-C , 20-C ) :   1.6008 B( 19-C , 22-C ) :   1.0562
B( 22-C , 23-H ) :   0.9363 B( 22-C , 24-H ) :   0.9343 B( 22-C , 25-C ) :   1.0551
B( 25-C , 26-H ) :   0.9528 B( 25-C , 27-H ) :   0.9583 B( 25-C , 28-C ) :   1.0806
B( 28-C , 29-H ) :   0.9749 B( 28-C , 30-H ) :   0.9743 B( 28-C , 31-H ) :   0.9777

Dispersion correction           -0.015210264
FINAL SINGLE POINT ENERGY     -1339.869881483889

DIPOLE MOMENT
-------------
                                X             Y             Z
Electronic contribution:     16.46715      17.16134       6.95249
Nuclear contribution   :    -17.04902     -17.46556      -7.00657
                        -----------------------------------------
Total Dipole Moment    :     -0.58187      -0.30422      -0.05408
                        -----------------------------------------
Magnitude (a.u.)       :      0.65882
Magnitude (Debye)      :      1.67459

Rotational constants in cm-1:     0.017894     0.009577     0.007439
Rotational constants in MHz :   536.455174   287.105131   223.016577

                             ****ORCA TERMINATED NORMALLY****
TOTAL RUN TIME: 0 days 0 hours 0 minutes 22 seconds 289 msec
