                         Program Version 4.2.1 -  RELEASE  -
|  1> ! wB97X-D3 SP def2-SVP
|  2> %pal
|  3> nprocs 24
|  4> end
|  5>
|  6> * xyz 0 1
|  7> S 	 -114.222 	 30.1926 	 -13.0204
|  8> C 	 -114.017 	 28.4746 	 -13.4899
|  9> C 	 -115.249 	 27.831 	 -13.667
| 10> C 	 -116.336 	 28.7195 	 -13.5074
| 11> C 	 -115.973 	 30.0186 	 -13.2002
| 12> H 	 -117.383 	 28.5273 	 -13.4755
| 13> C 	 -115.474 	 26.3782 	 -14.01
| 14> H 	 -116.448 	 25.9798 	 -13.6653
| 15> H 	 -114.718 	 25.7948 	 -13.3954
| 16> C 	 -115.136 	 26.0384 	 -15.4407
| 17> H 	 -115.647 	 26.6083 	 -16.2744
| 18> H 	 -114.056 	 26.0984 	 -15.6115
| 19> C 	 -115.51 	 24.627 	 -15.8803
| 20> H 	 -116.469 	 24.3125 	 -15.632
| 21> H 	 -115.388 	 24.3992 	 -16.9318
| 22> H 	 -114.801 	 23.8889 	 -15.4094
| 23> S 	 -117.072 	 31.8788 	 -11.4261
| 24> C 	 -118.314 	 32.8988 	 -11.9676
| 25> C 	 -118.789 	 32.5904 	 -13.265
| 26> C 	 -118.012 	 31.5841 	 -13.8957
| 27> C 	 -116.951 	 31.162 	 -13.0493
| 28> H 	 -119.726 	 33.0878 	 -13.5868
| 29> C 	 -118.392 	 31.0219 	 -15.2741
| 30> H 	 -119.503 	 30.9214 	 -15.2246
| 31> H 	 -117.874 	 30.0883 	 -15.471
| 32> C 	 -118.166 	 31.9887 	 -16.4208
| 33> H 	 -117.161 	 32.3452 	 -16.4598
| 34> H 	 -118.75 	 32.8672 	 -16.1718
| 35> C 	 -118.427 	 31.3702 	 -17.8531
| 36> H 	 -117.733 	 30.5698 	 -18.0688
| 37> H 	 -118.246 	 32.1968 	 -18.6031
| 38> H 	 -119.428 	 31.0488 	 -17.8854
| 39> H 	 -113.041 	 28.0187 	 -13.465
| 40> H 	 -118.836 	 33.582 	 -11.3636
| 41> *
| 42>
| 43>                          ****END OF INPUT****

CARTESIAN COORDINATES (ANGSTROEM)
---------------------------------
  S    -114.222000   30.192600  -13.020400
  C    -114.017000   28.474600  -13.489900
  C    -115.249000   27.831000  -13.667000
  C    -116.336000   28.719500  -13.507400
  C    -115.973000   30.018600  -13.200200
  H    -117.383000   28.527300  -13.475500
  C    -115.474000   26.378200  -14.010000
  H    -116.448000   25.979800  -13.665300
  H    -114.718000   25.794800  -13.395400
  C    -115.136000   26.038400  -15.440700
  H    -115.647000   26.608300  -16.274400
  H    -114.056000   26.098400  -15.611500
  C    -115.510000   24.627000  -15.880300
  H    -116.469000   24.312500  -15.632000
  H    -115.388000   24.399200  -16.931800
  H    -114.801000   23.888900  -15.409400
  S    -117.072000   31.878800  -11.426100
  C    -118.314000   32.898800  -11.967600
  C    -118.789000   32.590400  -13.265000
  C    -118.012000   31.584100  -13.895700
  C    -116.951000   31.162000  -13.049300
  H    -119.726000   33.087800  -13.586800
  C    -118.392000   31.021900  -15.274100
  H    -119.503000   30.921400  -15.224600
  H    -117.874000   30.088300  -15.471000
  C    -118.166000   31.988700  -16.420800
  H    -117.161000   32.345200  -16.459800
  H    -118.750000   32.867200  -16.171800
  C    -118.427000   31.370200  -17.853100
  H    -117.733000   30.569800  -18.068800
  H    -118.246000   32.196800  -18.603100
  H    -119.428000   31.048800  -17.885400
  H    -113.041000   28.018700  -13.465000
  H    -118.836000   33.582000  -11.363600

 Total Charge           Charge          ....    0
 Multiplicity           Mult            ....    1
 Number of Electrons    NEL             ....  134
 Basis Dimension        Dim             ....  322

ORBITAL ENERGIES
----------------

  NO   OCC          E(Eh)            E(eV)
   0   2.0000     -88.969687     -2420.9883
   1   2.0000     -88.967659     -2420.9331
   2   2.0000     -10.331881      -281.1448
   3   2.0000     -10.331129      -281.1243
   4   2.0000     -10.318962      -280.7932
   5   2.0000     -10.313050      -280.6324
   6   2.0000     -10.310699      -280.5684
   7   2.0000     -10.305297      -280.4214
   8   2.0000     -10.300796      -280.2989
   9   2.0000     -10.297657      -280.2135
  10   2.0000     -10.293787      -280.1082
  11   2.0000     -10.290185      -280.0102
  12   2.0000     -10.289359      -279.9877
  13   2.0000     -10.280149      -279.7371
  14   2.0000     -10.280072      -279.7350
  15   2.0000     -10.273089      -279.5450
  16   2.0000      -8.084676      -219.9952
  17   2.0000      -8.081327      -219.9041
  18   2.0000      -6.042880      -164.4351
  19   2.0000      -6.039800      -164.3513
  20   2.0000      -6.039228      -164.3358
  21   2.0000      -6.036065      -164.2497
  22   2.0000      -6.035667      -164.2389
  23   2.0000      -6.032114      -164.1422
  24   2.0000      -0.999471       -27.1970
  25   2.0000      -0.980367       -26.6771
  26   2.0000      -0.913048       -24.8453
  27   2.0000      -0.908453       -24.7203
  28   2.0000      -0.860736       -23.4218
  29   2.0000      -0.851587       -23.1728
  30   2.0000      -0.847091       -23.0505
  31   2.0000      -0.809317       -22.0226
  32   2.0000      -0.783782       -21.3278
  33   2.0000      -0.770837       -20.9756
  34   2.0000      -0.700268       -19.0552
  35   2.0000      -0.699473       -19.0336
  36   2.0000      -0.690180       -18.7807
  37   2.0000      -0.655529       -17.8379
  38   2.0000      -0.645816       -17.5736
  39   2.0000      -0.617194       -16.7947
  40   2.0000      -0.594203       -16.1691
  41   2.0000      -0.571038       -15.5387
  42   2.0000      -0.568854       -15.4793
  43   2.0000      -0.557145       -15.1607
  44   2.0000      -0.528048       -14.3689
  45   2.0000      -0.519922       -14.1478
  46   2.0000      -0.516458       -14.0535
  47   2.0000      -0.509419       -13.8620
  48   2.0000      -0.503038       -13.6884
  49   2.0000      -0.492587       -13.4040
  50   2.0000      -0.491725       -13.3805
  51   2.0000      -0.478433       -13.0188
  52   2.0000      -0.476251       -12.9594
  53   2.0000      -0.462496       -12.5852
  54   2.0000      -0.455072       -12.3831
  55   2.0000      -0.450328       -12.2540
  56   2.0000      -0.441707       -12.0195
  57   2.0000      -0.438693       -11.9375
  58   2.0000      -0.436444       -11.8762
  59   2.0000      -0.430777       -11.7220
  60   2.0000      -0.427455       -11.6316
  61   2.0000      -0.411526       -11.1982
  62   2.0000      -0.404510       -11.0073
  63   2.0000      -0.337230        -9.1765
  64   2.0000      -0.332670        -9.0524
  65   2.0000      -0.330099        -8.9825
  66   2.0000      -0.293072        -7.9749
  67   0.0000       0.031116         0.8467
  68   0.0000       0.061855         1.6832
  69   0.0000       0.105794         2.8788
  70   0.0000       0.113845         3.0979
  71   0.0000       0.132107         3.5948

MULLIKEN ATOMIC CHARGES
-----------------------
   0 S :    0.105433
   1 C :   -0.133330
   2 C :   -0.044981
   3 C :    0.039571
   4 C :   -0.167168
   5 H :    0.009197
   6 C :    0.060792
   7 H :    0.031535
   8 H :    0.032407
   9 C :   -0.084936
  10 H :    0.039913
  11 H :    0.032201
  12 C :   -0.043294
  13 H :    0.014011
  14 H :    0.029247
  15 H :    0.017452
  16 S :    0.125943
  17 C :   -0.071403
  18 C :   -0.076720
  19 C :   -0.016834
  20 C :   -0.182467
  21 H :    0.034268
  22 C :    0.086339
  23 H :    0.032607
  24 H :    0.020690
  25 C :   -0.091381
  26 H :    0.024633
  27 H :    0.019508
  28 C :   -0.037468
  29 H :    0.039673
  30 H :    0.044836
  31 H :    0.023563
  32 H :    0.048465
  33 H :    0.037697
Sum of atomic charges:   -0.0000000

LOEWDIN ATOMIC CHARGES
----------------------
   0 S :    0.384406
   1 C :   -0.183488
   2 C :   -0.058227
   3 C :   -0.062900
   4 C :   -0.190609
   5 H :    0.030485
   6 C :   -0.035503
   7 H :    0.032828
   8 H :    0.041085
   9 C :   -0.047344
  10 H :    0.031401
  11 H :    0.027233
  12 C :   -0.067207
  13 H :    0.011306
  14 H :    0.025972
  15 H :    0.024527
  16 S :    0.429650
  17 C :   -0.195744
  18 C :   -0.080098
  19 C :   -0.047128
  20 C :   -0.202097
  21 H :    0.037528
  22 C :   -0.029357
  23 H :    0.037653
  24 H :    0.026271
  25 C :   -0.039880
  26 H :    0.020130
  27 H :    0.019573
  28 C :   -0.058135
  29 H :    0.025576
  30 H :    0.035742
  31 H :    0.015043
  32 H :    0.023998
  33 H :    0.017310

  Mayer bond orders larger than 0.100000
B(  0-S ,  1-C ) :   1.1367 B(  0-S ,  4-C ) :   1.1552 B(  1-C ,  2-C ) :   1.5935
B(  1-C ,  4-C ) :   0.1034 B(  1-C , 32-H ) :   0.9730 B(  2-C ,  3-C ) :   1.2377
B(  2-C ,  6-C ) :   1.0214 B(  3-C ,  4-C ) :   1.5828 B(  3-C ,  5-H ) :   0.9990
B(  4-C , 20-C ) :   1.0036 B(  6-C ,  7-H ) :   0.9510 B(  6-C ,  8-H ) :   0.9318
B(  6-C ,  9-C ) :   1.0593 B(  9-C , 10-H ) :   0.9606 B(  9-C , 11-H ) :   0.9551
B(  9-C , 12-C ) :   1.0816 B( 12-C , 13-H ) :   0.9759 B( 12-C , 14-H ) :   0.9757
B( 12-C , 15-H ) :   0.9720 B( 16-S , 17-C ) :   1.1867 B( 16-S , 20-C ) :   1.1613
B( 17-C , 18-C ) :   1.5822 B( 17-C , 20-C ) :   0.1049 B( 17-C , 33-H ) :   0.9708
B( 18-C , 19-C ) :   1.2619 B( 18-C , 21-H ) :   0.9844 B( 19-C , 20-C ) :   1.5675
B( 19-C , 22-C ) :   1.0363 B( 22-C , 23-H ) :   0.9334 B( 22-C , 24-H ) :   0.9342
B( 22-C , 25-C ) :   1.0674 B( 25-C , 26-H ) :   0.9556 B( 25-C , 27-H ) :   0.9571
B( 25-C , 28-C ) :   1.0772 B( 28-C , 29-H ) :   0.9762 B( 28-C , 30-H ) :   0.9758
B( 28-C , 31-H ) :   0.9773

Dispersion correction           -0.013451801
FINAL SINGLE POINT ENERGY     -1339.872637831909

DIPOLE MOMENT
-------------
                                X             Y             Z
Electronic contribution:      7.41752      16.97348      24.97298
Nuclear contribution   :     -7.84587     -17.36449     -25.28244
                        -----------------------------------------
Total Dipole Moment    :     -0.42835      -0.39101      -0.30945
                        -----------------------------------------
Magnitude (a.u.)       :      0.65737
Magnitude (Debye)      :      1.67089

Rotational constants in cm-1:     0.016670     0.008412     0.006355
Rotational constants in MHz :   499.748358   252.197241   190.514932

                             ****ORCA TERMINATED NORMALLY****
TOTAL RUN TIME: 0 days 0 hours 0 minutes 20 seconds 876 msec
