                         Program Version 4.2.1 -  RELEASE  -
|  1> ! wB97X-D3 SP def2-SVP
|  2> %pal
|  3> nprocs 24
|  4> end
|  5>
|  6> * xyz 0 1
|  7> S 	 -87.425 	 -6.06849 	 -59.5237
|  8> C 	 -87.8061 	 -4.72806 	 -60.5828
|  9> C 	 -86.7465 	 -3.84607 	 -60.8025
| 10> C 	 -85.6229 	 -4.27247 	 -60.0405
| 11> C 	 -85.784 	 -5.49169 	 -59.3838
| 12> H 	 -84.7291 	 -3.6982 	 -60.1171
| 13> C 	 -86.6562 	 -2.58392 	 -61.6925
| 14> H 	 -86.1694 	 -1.78439 	 -61.1297
| 15> H 	 -87.6311 	 -2.1313 	 -61.9707
| 16> C 	 -86.0405 	 -2.73982 	 -63.0412
| 17> H 	 -86.0052 	 -1.7153 	 -63.4056
| 18> H 	 -85.0018 	 -3.03318 	 -62.9227
| 19> C 	 -86.8038 	 -3.6573 	 -63.9491
| 20> H 	 -86.5392 	 -3.72842 	 -64.9845
| 21> H 	 -86.7076 	 -4.65258 	 -63.5035
| 22> H 	 -87.8833 	 -3.43164 	 -64.0102
| 23> S 	 -83.5103 	 -7.08233 	 -59.6079
| 24> C 	 -82.6939 	 -7.5917 	 -58.1634
| 25> C 	 -83.44 	 -7.37137 	 -57.0221
| 26> C 	 -84.6389 	 -6.58904 	 -57.3301
| 27> C 	 -84.7483 	 -6.26701 	 -58.6574
| 28> H 	 -83.2037 	 -7.81409 	 -55.9998
| 29> C 	 -85.5732 	 -6.1886 	 -56.1889
| 30> H 	 -86.1826 	 -5.38597 	 -56.5897
| 31> H 	 -84.9452 	 -5.81147 	 -55.4187
| 32> C 	 -86.3694 	 -7.2577 	 -55.5008
| 33> H 	 -86.788 	 -6.74584 	 -54.6349
| 34> H 	 -85.6569 	 -8.00184 	 -55.1213
| 35> C 	 -87.491 	 -7.96697 	 -56.2884
| 36> H 	 -87.1482 	 -8.56693 	 -57.0799
| 37> H 	 -88.1544 	 -7.20672 	 -56.6134
| 38> H 	 -88.0318 	 -8.60126 	 -55.6505
| 39> H 	 -88.7738 	 -4.53104 	 -60.9016
| 40> H 	 -81.8227 	 -8.15033 	 -58.0627
| 41> *
| 42>
| 43>                          ****END OF INPUT****

CARTESIAN COORDINATES (ANGSTROEM)
---------------------------------
  S    -87.425000   -6.068490  -59.523700
  C    -87.806100   -4.728060  -60.582800
  C    -86.746500   -3.846070  -60.802500
  C    -85.622900   -4.272470  -60.040500
  C    -85.784000   -5.491690  -59.383800
  H    -84.729100   -3.698200  -60.117100
  C    -86.656200   -2.583920  -61.692500
  H    -86.169400   -1.784390  -61.129700
  H    -87.631100   -2.131300  -61.970700
  C    -86.040500   -2.739820  -63.041200
  H    -86.005200   -1.715300  -63.405600
  H    -85.001800   -3.033180  -62.922700
  C    -86.803800   -3.657300  -63.949100
  H    -86.539200   -3.728420  -64.984500
  H    -86.707600   -4.652580  -63.503500
  H    -87.883300   -3.431640  -64.010200
  S    -83.510300   -7.082330  -59.607900
  C    -82.693900   -7.591700  -58.163400
  C    -83.440000   -7.371370  -57.022100
  C    -84.638900   -6.589040  -57.330100
  C    -84.748300   -6.267010  -58.657400
  H    -83.203700   -7.814090  -55.999800
  C    -85.573200   -6.188600  -56.188900
  H    -86.182600   -5.385970  -56.589700
  H    -84.945200   -5.811470  -55.418700
  C    -86.369400   -7.257700  -55.500800
  H    -86.788000   -6.745840  -54.634900
  H    -85.656900   -8.001840  -55.121300
  C    -87.491000   -7.966970  -56.288400
  H    -87.148200   -8.566930  -57.079900
  H    -88.154400   -7.206720  -56.613400
  H    -88.031800   -8.601260  -55.650500
  H    -88.773800   -4.531040  -60.901600
  H    -81.822700   -8.150330  -58.062700

 Total Charge           Charge          ....    0
 Multiplicity           Mult            ....    1
 Number of Electrons    NEL             ....  134
 Basis Dimension        Dim             ....  322

ORBITAL ENERGIES
----------------

  NO   OCC          E(Eh)            E(eV)
   0   2.0000     -88.970897     -2421.0212
   1   2.0000     -88.964363     -2420.8434
   2   2.0000     -10.331244      -281.1274
   3   2.0000     -10.324081      -280.9325
   4   2.0000     -10.312072      -280.6058
   5   2.0000     -10.311892      -280.6008
   6   2.0000     -10.303038      -280.3599
   7   2.0000     -10.300673      -280.2956
   8   2.0000     -10.298241      -280.2294
   9   2.0000     -10.295841      -280.1641
  10   2.0000     -10.293064      -280.0885
  11   2.0000     -10.282870      -279.8111
  12   2.0000     -10.281844      -279.7832
  13   2.0000     -10.281621      -279.7771
  14   2.0000     -10.272807      -279.5373
  15   2.0000     -10.261668      -279.2342
  16   2.0000      -8.085148      -220.0081
  17   2.0000      -8.079120      -219.8440
  18   2.0000      -6.043535      -164.4530
  19   2.0000      -6.039704      -164.3487
  20   2.0000      -6.037744      -164.2954
  21   2.0000      -6.036086      -164.2503
  22   2.0000      -6.033714      -164.1857
  23   2.0000      -6.029671      -164.0757
  24   2.0000      -1.003246       -27.2997
  25   2.0000      -0.982630       -26.7387
  26   2.0000      -0.919683       -25.0259
  27   2.0000      -0.909947       -24.7609
  28   2.0000      -0.864888       -23.5348
  29   2.0000      -0.849813       -23.1246
  30   2.0000      -0.844790       -22.9879
  31   2.0000      -0.809482       -22.0271
  32   2.0000      -0.790111       -21.5000
  33   2.0000      -0.780714       -21.2443
  34   2.0000      -0.704991       -19.1838
  35   2.0000      -0.697557       -18.9815
  36   2.0000      -0.690745       -18.7961
  37   2.0000      -0.657935       -17.9033
  38   2.0000      -0.640800       -17.4370
  39   2.0000      -0.622741       -16.9457
  40   2.0000      -0.593631       -16.1535
  41   2.0000      -0.572011       -15.5652
  42   2.0000      -0.556974       -15.1560
  43   2.0000      -0.552883       -15.0447
  44   2.0000      -0.545490       -14.8435
  45   2.0000      -0.542368       -14.7586
  46   2.0000      -0.516765       -14.0619
  47   2.0000      -0.503987       -13.7142
  48   2.0000      -0.501168       -13.6375
  49   2.0000      -0.491844       -13.3838
  50   2.0000      -0.487695       -13.2709
  51   2.0000      -0.480988       -13.0884
  52   2.0000      -0.472042       -12.8449
  53   2.0000      -0.463200       -12.6043
  54   2.0000      -0.458319       -12.4715
  55   2.0000      -0.447942       -12.1891
  56   2.0000      -0.445993       -12.1361
  57   2.0000      -0.442673       -12.0457
  58   2.0000      -0.438248       -11.9253
  59   2.0000      -0.421298       -11.4641
  60   2.0000      -0.418743       -11.3946
  61   2.0000      -0.414881       -11.2895
  62   2.0000      -0.410030       -11.1575
  63   2.0000      -0.337361        -9.1800
  64   2.0000      -0.328949        -8.9512
  65   2.0000      -0.325028        -8.8445
  66   2.0000      -0.305872        -8.3232
  67   0.0000       0.038182         1.0390
  68   0.0000       0.064132         1.7451
  69   0.0000       0.104861         2.8534
  70   0.0000       0.115756         3.1499
  71   0.0000       0.128361         3.4929

MULLIKEN ATOMIC CHARGES
-----------------------
   0 S :    0.131850
   1 C :   -0.100344
   2 C :   -0.082790
   3 C :    0.049578
   4 C :   -0.177239
   5 H :    0.001453
   6 C :    0.033371
   7 H :    0.033247
   8 H :    0.017200
   9 C :   -0.038731
  10 H :    0.023944
  11 H :    0.022156
  12 C :   -0.046651
  13 H :    0.031881
  14 H :    0.042888
  15 H :    0.018264
  16 S :    0.119032
  17 C :   -0.055238
  18 C :   -0.072448
  19 C :   -0.040310
  20 C :   -0.170983
  21 H :    0.047577
  22 C :    0.091154
  23 H :    0.022402
  24 H :    0.015986
  25 C :   -0.086859
  26 H :    0.028285
  27 H :    0.018033
  28 C :    0.007546
  29 H :    0.030535
  30 H :    0.019617
  31 H :    0.015653
  32 H :    0.019392
  33 H :    0.030549
Sum of atomic charges:   -0.0000000

LOEWDIN ATOMIC CHARGES
----------------------
   0 S :    0.425485
   1 C :   -0.184532
   2 C :   -0.061719
   3 C :   -0.051986
   4 C :   -0.202529
   5 H :    0.027070
   6 C :   -0.032364
   7 H :    0.033460
   8 H :    0.031214
   9 C :   -0.042350
  10 H :    0.024937
  11 H :    0.020927
  12 C :   -0.068406
  13 H :    0.024098
  14 H :    0.032209
  15 H :    0.025245
  16 S :    0.406255
  17 C :   -0.180293
  18 C :   -0.078843
  19 C :   -0.053268
  20 C :   -0.207095
  21 H :    0.042444
  22 C :   -0.031580
  23 H :    0.026465
  24 H :    0.031039
  25 C :   -0.036375
  26 H :    0.027015
  27 H :    0.020372
  28 C :   -0.055727
  29 H :    0.020165
  30 H :    0.018506
  31 H :    0.021336
  32 H :    0.010586
  33 H :    0.018238

  Mayer bond orders larger than 0.100000
B(  0-S ,  1-C ) :   1.1569 B(  0-S ,  4-C ) :   1.1566 B(  1-C ,  2-C ) :   1.5928
B(  1-C , 32-H ) :   0.9725 B(  2-C ,  3-C ) :   1.2683 B(  2-C ,  6-C ) :   1.0158
B(  3-C ,  4-C ) :   1.5590 B(  3-C ,  5-H ) :   0.9973 B(  4-C , 20-C ) :   1.0071
B(  6-C ,  7-H ) :   0.9414 B(  6-C ,  8-H ) :   0.9433 B(  6-C ,  9-C ) :   1.0812
B(  9-C , 10-H ) :   0.9505 B(  9-C , 11-H ) :   0.9520 B(  9-C , 12-C ) :   1.0738
B( 12-C , 13-H ) :   0.9743 B( 12-C , 14-H ) :   0.9722 B( 12-C , 15-H ) :   0.9715
B( 16-S , 17-C ) :   1.1505 B( 16-S , 20-C ) :   1.1260 B( 17-C , 18-C ) :   1.6375
B( 17-C , 33-H ) :   0.9702 B( 18-C , 19-C ) :   1.2149 B( 18-C , 21-H ) :   0.9743
B( 19-C , 20-C ) :   1.6363 B( 19-C , 22-C ) :   1.0431 B( 22-C , 23-H ) :   0.9315
B( 22-C , 24-H ) :   0.9271 B( 22-C , 25-C ) :   1.0855 B( 25-C , 26-H ) :   0.9528
B( 25-C , 27-H ) :   0.9517 B( 25-C , 28-C ) :   1.0781 B( 28-C , 29-H ) :   0.9762
B( 28-C , 30-H ) :   0.9719 B( 28-C , 31-H ) :   0.9693

Dispersion correction           -0.015132677
FINAL SINGLE POINT ENERGY     -1339.881704757513

DIPOLE MOMENT
-------------
                                X             Y             Z
Electronic contribution:      8.08102      -7.56317       0.87574
Nuclear contribution   :     -8.15569       7.82454      -0.71930
                        -----------------------------------------
Total Dipole Moment    :     -0.07467       0.26138       0.15644
                        -----------------------------------------
Magnitude (a.u.)       :      0.31363
Magnitude (Debye)      :      0.79720

Rotational constants in cm-1:     0.023183     0.008191     0.006750
Rotational constants in MHz :   695.008207   245.559370   202.367012

                             ****ORCA TERMINATED NORMALLY****
TOTAL RUN TIME: 0 days 0 hours 0 minutes 21 seconds 680 msec
