                         Program Version 4.2.1 -  RELEASE  -
|  1> ! wB97X-D3 SP def2-SVP
|  2> %pal
|  3> nprocs 24
|  4> end
|  5>
|  6> * xyz 0 1
|  7> S 	 -121.258 	 64.0544 	 -61.2469
|  8> C 	 -122.716 	 64.0616 	 -62.2397
|  9> C 	 -123.486 	 62.9638 	 -62.1024
| 10> C 	 -123.138 	 62.3037 	 -60.8768
| 11> C 	 -121.937 	 62.7653 	 -60.3631
| 12> H 	 -123.61 	 61.4288 	 -60.4649
| 13> C 	 -124.754 	 62.6821 	 -63.0037
| 14> H 	 -124.405 	 62.6737 	 -64.0248
| 15> H 	 -125.495 	 63.5094 	 -62.8431
| 16> C 	 -125.506 	 61.3018 	 -62.8619
| 17> H 	 -124.897 	 60.4968 	 -63.0622
| 18> H 	 -125.906 	 61.1579 	 -61.9158
| 19> C 	 -126.724 	 61.3184 	 -63.8956
| 20> H 	 -126.359 	 61.2705 	 -64.9438
| 21> H 	 -127.421 	 60.4819 	 -63.7472
| 22> H 	 -127.338 	 62.2198 	 -63.694
| 23> S 	 -121 	 63.6319 	 -57.957
| 24> C 	 -120.619 	 62.3631 	 -56.7165
| 25> C 	 -120.882 	 61.0999 	 -57.1998
| 26> C 	 -121.131 	 61.0563 	 -58.6089
| 27> C 	 -121.353 	 62.3422 	 -59.0923
| 28> H 	 -120.802 	 60.3282 	 -56.4425
| 29> C 	 -121.142 	 59.6929 	 -59.3477
| 30> H 	 -122.136 	 59.5964 	 -59.7847
| 31> H 	 -121.037 	 58.8814 	 -58.6532
| 32> C 	 -120.111 	 59.4651 	 -60.5718
| 33> H 	 -120.328 	 60.129 	 -61.3673
| 34> H 	 -120.077 	 58.4133 	 -60.9008
| 35> C 	 -118.683 	 59.7452 	 -60.2433
| 36> H 	 -118.456 	 60.846 	 -60.1241
| 37> H 	 -117.985 	 59.4169 	 -61.0811
| 38> H 	 -118.438 	 59.3465 	 -59.2616
| 39> H 	 -122.929 	 64.8078 	 -62.9864
| 40> H 	 -120.235 	 62.5166 	 -55.7153
| 41> *
| 42>
| 43>                          ****END OF INPUT****

CARTESIAN COORDINATES (ANGSTROEM)
---------------------------------
  S    -121.258000   64.054400  -61.246900
  C    -122.716000   64.061600  -62.239700
  C    -123.486000   62.963800  -62.102400
  C    -123.138000   62.303700  -60.876800
  C    -121.937000   62.765300  -60.363100
  H    -123.610000   61.428800  -60.464900
  C    -124.754000   62.682100  -63.003700
  H    -124.405000   62.673700  -64.024800
  H    -125.495000   63.509400  -62.843100
  C    -125.506000   61.301800  -62.861900
  H    -124.897000   60.496800  -63.062200
  H    -125.906000   61.157900  -61.915800
  C    -126.724000   61.318400  -63.895600
  H    -126.359000   61.270500  -64.943800
  H    -127.421000   60.481900  -63.747200
  H    -127.338000   62.219800  -63.694000
  S    -121.000000   63.631900  -57.957000
  C    -120.619000   62.363100  -56.716500
  C    -120.882000   61.099900  -57.199800
  C    -121.131000   61.056300  -58.608900
  C    -121.353000   62.342200  -59.092300
  H    -120.802000   60.328200  -56.442500
  C    -121.142000   59.692900  -59.347700
  H    -122.136000   59.596400  -59.784700
  H    -121.037000   58.881400  -58.653200
  C    -120.111000   59.465100  -60.571800
  H    -120.328000   60.129000  -61.367300
  H    -120.077000   58.413300  -60.900800
  C    -118.683000   59.745200  -60.243300
  H    -118.456000   60.846000  -60.124100
  H    -117.985000   59.416900  -61.081100
  H    -118.438000   59.346500  -59.261600
  H    -122.929000   64.807800  -62.986400
  H    -120.235000   62.516600  -55.715300

 Total Charge           Charge          ....    0
 Multiplicity           Mult            ....    1
 Number of Electrons    NEL             ....  134
 Basis Dimension        Dim             ....  322

ORBITAL ENERGIES
----------------

  NO   OCC          E(Eh)            E(eV)
   0   2.0000     -88.967145     -2420.9191
   1   2.0000     -88.965929     -2420.8860
   2   2.0000     -10.326128      -280.9882
   3   2.0000     -10.322489      -280.8892
   4   2.0000     -10.317926      -280.7651
   5   2.0000     -10.308089      -280.4974
   6   2.0000     -10.307189      -280.4729
   7   2.0000     -10.304094      -280.3887
   8   2.0000     -10.301633      -280.3217
   9   2.0000     -10.298667      -280.2410
  10   2.0000     -10.294022      -280.1146
  11   2.0000     -10.292616      -280.0763
  12   2.0000     -10.288847      -279.9738
  13   2.0000     -10.285515      -279.8831
  14   2.0000     -10.283769      -279.8356
  15   2.0000     -10.274363      -279.5796
  16   2.0000      -8.082623      -219.9394
  17   2.0000      -8.079610      -219.8574
  18   2.0000      -6.040978      -164.3834
  19   2.0000      -6.038193      -164.3076
  20   2.0000      -6.037225      -164.2812
  21   2.0000      -6.034432      -164.2052
  22   2.0000      -6.033301      -164.1745
  23   2.0000      -6.030159      -164.0890
  24   2.0000      -1.008969       -27.4554
  25   2.0000      -0.979932       -26.6653
  26   2.0000      -0.903556       -24.5870
  27   2.0000      -0.897890       -24.4328
  28   2.0000      -0.869321       -23.6554
  29   2.0000      -0.848892       -23.0995
  30   2.0000      -0.843990       -22.9661
  31   2.0000      -0.811936       -22.0939
  32   2.0000      -0.778610       -21.1871
  33   2.0000      -0.769111       -20.9286
  34   2.0000      -0.714440       -19.4409
  35   2.0000      -0.697469       -18.9791
  36   2.0000      -0.681807       -18.5529
  37   2.0000      -0.658671       -17.9234
  38   2.0000      -0.639040       -17.3892
  39   2.0000      -0.617300       -16.7976
  40   2.0000      -0.584716       -15.9109
  41   2.0000      -0.574953       -15.6453
  42   2.0000      -0.563901       -15.3445
  43   2.0000      -0.554025       -15.0758
  44   2.0000      -0.539570       -14.6824
  45   2.0000      -0.522178       -14.2092
  46   2.0000      -0.509777       -13.8717
  47   2.0000      -0.502934       -13.6855
  48   2.0000      -0.497994       -13.5511
  49   2.0000      -0.493674       -13.4335
  50   2.0000      -0.486722       -13.2444
  51   2.0000      -0.478157       -13.0113
  52   2.0000      -0.468260       -12.7420
  53   2.0000      -0.461545       -12.5593
  54   2.0000      -0.458394       -12.4735
  55   2.0000      -0.455304       -12.3894
  56   2.0000      -0.445631       -12.1262
  57   2.0000      -0.435266       -11.8442
  58   2.0000      -0.430887       -11.7250
  59   2.0000      -0.428405       -11.6575
  60   2.0000      -0.421839       -11.4788
  61   2.0000      -0.418216       -11.3802
  62   2.0000      -0.413361       -11.2481
  63   2.0000      -0.340870        -9.2756
  64   2.0000      -0.334524        -9.1028
  65   2.0000      -0.327626        -8.9152
  66   2.0000      -0.290073        -7.8933
  67   0.0000       0.027594         0.7509
  68   0.0000       0.074735         2.0336
  69   0.0000       0.100403         2.7321
  70   0.0000       0.113077         3.0770
  71   0.0000       0.134406         3.6574

MULLIKEN ATOMIC CHARGES
-----------------------
   0 S :    0.122797
   1 C :   -0.136498
   2 C :   -0.042916
   3 C :    0.026561
   4 C :   -0.162185
   5 H :    0.009668
   6 C :    0.010326
   7 H :    0.034514
   8 H :    0.055002
   9 C :   -0.034314
  10 H :    0.019838
  11 H :    0.021364
  12 C :   -0.088892
  13 H :    0.044645
  14 H :    0.036299
  15 H :    0.036580
  16 S :    0.104125
  17 C :   -0.104808
  18 C :   -0.044033
  19 C :   -0.033988
  20 C :   -0.149754
  21 H :    0.021739
  22 C :    0.095533
  23 H :    0.025857
  24 H :    0.015194
  25 C :   -0.053128
  26 H :    0.032104
  27 H :    0.037072
  28 C :   -0.092906
  29 H :    0.036929
  30 H :    0.045910
  31 H :    0.021690
  32 H :    0.035682
  33 H :    0.053994
Sum of atomic charges:   -0.0000000

LOEWDIN ATOMIC CHARGES
----------------------
   0 S :    0.414054
   1 C :   -0.188227
   2 C :   -0.062234
   3 C :   -0.059016
   4 C :   -0.210561
   5 H :    0.027652
   6 C :   -0.026940
   7 H :    0.030632
   8 H :    0.039291
   9 C :   -0.026070
  10 H :    0.013615
  11 H :    0.013530
  12 C :   -0.066676
  13 H :    0.027911
  14 H :    0.025879
  15 H :    0.027308
  16 S :    0.377203
  17 C :   -0.170911
  18 C :   -0.067292
  19 C :   -0.058072
  20 C :   -0.194478
  21 H :    0.033249
  22 C :   -0.023174
  23 H :    0.030880
  24 H :    0.025664
  25 C :   -0.037860
  26 H :    0.021273
  27 H :    0.030350
  28 C :   -0.078541
  29 H :    0.028036
  30 H :    0.033505
  31 H :    0.018815
  32 H :    0.022080
  33 H :    0.029125

  Mayer bond orders larger than 0.100000
B(  0-S ,  1-C ) :   1.1285 B(  0-S ,  4-C ) :   1.1559 B(  1-C ,  2-C ) :   1.6479
B(  1-C , 32-H ) :   0.9716 B(  2-C ,  3-C ) :   1.2210 B(  2-C ,  6-C ) :   0.9913
B(  3-C ,  4-C ) :   1.5895 B(  3-C ,  5-H ) :   0.9889 B(  4-C , 20-C ) :   1.0319
B(  6-C ,  7-H ) :   0.9480 B(  6-C ,  8-H ) :   0.9520 B(  6-C ,  9-C ) :   1.0705
B(  9-C , 10-H ) :   0.9598 B(  9-C , 11-H ) :   0.9532 B(  9-C , 12-C ) :   1.0785
B( 12-C , 13-H ) :   0.9787 B( 12-C , 14-H ) :   0.9763 B( 12-C , 15-H ) :   0.9767
B( 16-S , 17-C ) :   1.1172 B( 16-S , 20-C ) :   1.1382 B( 17-C , 18-C ) :   1.6672
B( 17-C , 33-H ) :   0.9664 B( 18-C , 19-C ) :   1.2021 B( 18-C , 21-H ) :   0.9842
B( 19-C , 20-C ) :   1.6063 B( 19-C , 22-C ) :   1.0306 B( 22-C , 23-H ) :   0.9326
B( 22-C , 24-H ) :   0.9406 B( 22-C , 25-C ) :   1.0643 B( 25-C , 26-H ) :   0.9566
B( 25-C , 27-H ) :   0.9594 B( 25-C , 28-C ) :   1.0801 B( 28-C , 29-H ) :   0.9706
B( 28-C , 30-H ) :   0.9732 B( 28-C , 31-H ) :   0.9762

Dispersion correction           -0.014362640
FINAL SINGLE POINT ENERGY     -1339.857253578083

DIPOLE MOMENT
-------------
                                X             Y             Z
Electronic contribution:     10.35870      19.67276      14.08415
Nuclear contribution   :    -10.74615     -20.22830     -14.27851
                        -----------------------------------------
Total Dipole Moment    :     -0.38744      -0.55554      -0.19435
                        -----------------------------------------
Magnitude (a.u.)       :      0.70463
Magnitude (Debye)      :      1.79104

Rotational constants in cm-1:     0.019137     0.008056     0.007032
Rotational constants in MHz :   573.698884   241.506559   210.823091

                             ****ORCA TERMINATED NORMALLY****
TOTAL RUN TIME: 0 days 0 hours 0 minutes 21 seconds 454 msec
