                         Program Version 4.2.1 -  RELEASE  -
|  1> ! wB97X-D3 SP def2-SVP
|  2> %pal
|  3> nprocs 24
|  4> end
|  5>
|  6> * xyz 0 1
|  7> S 	 -110.573 	 20.155 	 -121.867
|  8> C 	 -112.169 	 19.4762 	 -121.733
|  9> C 	 -112.427 	 18.4905 	 -122.679
| 10> C 	 -111.323 	 18.4006 	 -123.57
| 11> C 	 -110.197 	 19.1956 	 -123.252
| 12> H 	 -111.141 	 17.7362 	 -124.387
| 13> C 	 -113.743 	 17.8188 	 -123.001
| 14> H 	 -113.599 	 17.2471 	 -123.973
| 15> H 	 -114.382 	 18.6198 	 -123.324
| 16> C 	 -114.364 	 16.9379 	 -121.908
| 17> H 	 -114.334 	 17.3579 	 -120.918
| 18> H 	 -115.407 	 16.802 	 -122.113
| 19> C 	 -113.857 	 15.5454 	 -121.903
| 20> H 	 -113.924 	 14.9969 	 -122.854
| 21> H 	 -112.812 	 15.5636 	 -121.534
| 22> H 	 -114.404 	 14.9189 	 -121.199
| 23> S 	 -107.53 	 19.9409 	 -123.032
| 24> C 	 -106.482 	 19.8967 	 -124.39
| 25> C 	 -107.227 	 19.6088 	 -125.537
| 26> C 	 -108.589 	 19.2386 	 -125.32
| 27> C 	 -108.965 	 19.4129 	 -123.977
| 28> H 	 -106.585 	 19.5817 	 -126.397
| 29> C 	 -109.352 	 18.6159 	 -126.507
| 30> H 	 -109.18 	 19.1546 	 -127.436
| 31> H 	 -110.437 	 18.8366 	 -126.443
| 32> C 	 -108.92 	 17.2048 	 -126.779
| 33> H 	 -109.176 	 16.5675 	 -125.962
| 34> H 	 -107.853 	 17.1239 	 -126.921
| 35> C 	 -109.53 	 16.6109 	 -127.998
| 36> H 	 -110.584 	 16.5515 	 -127.839
| 37> H 	 -109.13 	 15.5961 	 -128.191
| 38> H 	 -109.344 	 17.17 	 -128.921
| 39> H 	 -112.985 	 19.7473 	 -121.121
| 40> H 	 -105.423 	 20.1351 	 -124.37
| 41> *
| 42>
| 43>                          ****END OF INPUT****

CARTESIAN COORDINATES (ANGSTROEM)
---------------------------------
  S    -110.573000   20.155000  -121.867000
  C    -112.169000   19.476200  -121.733000
  C    -112.427000   18.490500  -122.679000
  C    -111.323000   18.400600  -123.570000
  C    -110.197000   19.195600  -123.252000
  H    -111.141000   17.736200  -124.387000
  C    -113.743000   17.818800  -123.001000
  H    -113.599000   17.247100  -123.973000
  H    -114.382000   18.619800  -123.324000
  C    -114.364000   16.937900  -121.908000
  H    -114.334000   17.357900  -120.918000
  H    -115.407000   16.802000  -122.113000
  C    -113.857000   15.545400  -121.903000
  H    -113.924000   14.996900  -122.854000
  H    -112.812000   15.563600  -121.534000
  H    -114.404000   14.918900  -121.199000
  S    -107.530000   19.940900  -123.032000
  C    -106.482000   19.896700  -124.390000
  C    -107.227000   19.608800  -125.537000
  C    -108.589000   19.238600  -125.320000
  C    -108.965000   19.412900  -123.977000
  H    -106.585000   19.581700  -126.397000
  C    -109.352000   18.615900  -126.507000
  H    -109.180000   19.154600  -127.436000
  H    -110.437000   18.836600  -126.443000
  C    -108.920000   17.204800  -126.779000
  H    -109.176000   16.567500  -125.962000
  H    -107.853000   17.123900  -126.921000
  C    -109.530000   16.610900  -127.998000
  H    -110.584000   16.551500  -127.839000
  H    -109.130000   15.596100  -128.191000
  H    -109.344000   17.170000  -128.921000
  H    -112.985000   19.747300  -121.121000
  H    -105.423000   20.135100  -124.370000

 Total Charge           Charge          ....    0
 Multiplicity           Mult            ....    1
 Number of Electrons    NEL             ....  134
 Basis Dimension        Dim             ....  322

ORBITAL ENERGIES
----------------

  NO   OCC          E(Eh)            E(eV)
   0   2.0000     -88.969605     -2420.9860
   1   2.0000     -88.964693     -2420.8524
   2   2.0000     -10.335769      -281.2506
   3   2.0000     -10.329360      -281.0762
   4   2.0000     -10.317448      -280.7520
   5   2.0000     -10.311518      -280.5907
   6   2.0000     -10.309432      -280.5339
   7   2.0000     -10.300871      -280.3010
   8   2.0000     -10.297070      -280.1975
   9   2.0000     -10.295383      -280.1516
  10   2.0000     -10.293065      -280.0885
  11   2.0000     -10.291466      -280.0450
  12   2.0000     -10.282108      -279.7904
  13   2.0000     -10.278990      -279.7055
  14   2.0000     -10.275076      -279.5990
  15   2.0000     -10.274590      -279.5858
  16   2.0000      -8.084422      -219.9883
  17   2.0000      -8.079407      -219.8519
  18   2.0000      -6.042944      -164.4369
  19   2.0000      -6.038809      -164.3243
  20   2.0000      -6.037955      -164.3011
  21   2.0000      -6.035271      -164.2281
  22   2.0000      -6.033828      -164.1888
  23   2.0000      -6.030220      -164.0906
  24   2.0000      -1.006567       -27.3901
  25   2.0000      -0.983795       -26.7704
  26   2.0000      -0.920026       -25.0352
  27   2.0000      -0.916728       -24.9454
  28   2.0000      -0.873128       -23.7590
  29   2.0000      -0.857500       -23.3338
  30   2.0000      -0.846620       -23.0377
  31   2.0000      -0.811329       -22.0774
  32   2.0000      -0.785355       -21.3706
  33   2.0000      -0.776264       -21.1232
  34   2.0000      -0.708365       -19.2756
  35   2.0000      -0.704224       -19.1629
  36   2.0000      -0.697288       -18.9742
  37   2.0000      -0.662762       -18.0347
  38   2.0000      -0.636783       -17.3277
  39   2.0000      -0.614964       -16.7340
  40   2.0000      -0.597372       -16.2553
  41   2.0000      -0.577638       -15.7183
  42   2.0000      -0.572289       -15.5728
  43   2.0000      -0.558477       -15.1969
  44   2.0000      -0.543526       -14.7901
  45   2.0000      -0.533912       -14.5285
  46   2.0000      -0.519972       -14.1492
  47   2.0000      -0.514130       -13.9902
  48   2.0000      -0.506834       -13.7917
  49   2.0000      -0.503029       -13.6881
  50   2.0000      -0.489752       -13.3268
  51   2.0000      -0.476819       -12.9749
  52   2.0000      -0.470238       -12.7958
  53   2.0000      -0.464875       -12.6499
  54   2.0000      -0.458438       -12.4747
  55   2.0000      -0.446925       -12.1614
  56   2.0000      -0.442437       -12.0393
  57   2.0000      -0.440201       -11.9785
  58   2.0000      -0.437041       -11.8925
  59   2.0000      -0.430696       -11.7198
  60   2.0000      -0.415110       -11.2957
  61   2.0000      -0.412519       -11.2252
  62   2.0000      -0.409861       -11.1529
  63   2.0000      -0.358743        -9.7619
  64   2.0000      -0.334133        -9.0922
  65   2.0000      -0.329840        -8.9754
  66   2.0000      -0.279164        -7.5964
  67   0.0000       0.020686         0.5629
  68   0.0000       0.076455         2.0804
  69   0.0000       0.105746         2.8775
  70   0.0000       0.118005         3.2111
  71   0.0000       0.131967         3.5910

MULLIKEN ATOMIC CHARGES
-----------------------
   0 S :    0.122796
   1 C :   -0.086350
   2 C :   -0.079456
   3 C :    0.000589
   4 C :   -0.142190
   5 H :   -0.003337
   6 C :    0.040646
   7 H :    0.028667
   8 H :    0.039780
   9 C :   -0.032265
  10 H :    0.028011
  11 H :    0.015416
  12 C :   -0.063012
  13 H :    0.030670
  14 H :    0.037390
  15 H :    0.026945
  16 S :    0.092128
  17 C :   -0.106129
  18 C :   -0.041855
  19 C :   -0.020020
  20 C :   -0.126862
  21 H :    0.014699
  22 C :    0.043662
  23 H :    0.009938
  24 H :    0.027342
  25 C :   -0.039362
  26 H :    0.021937
  27 H :    0.024077
  28 C :   -0.038268
  29 H :    0.021060
  30 H :    0.035918
  31 H :    0.027015
  32 H :    0.023744
  33 H :    0.066678
Sum of atomic charges:   -0.0000000

LOEWDIN ATOMIC CHARGES
----------------------
   0 S :    0.430134
   1 C :   -0.201600
   2 C :   -0.062891
   3 C :   -0.069492
   4 C :   -0.201036
   5 H :    0.023174
   6 C :   -0.031067
   7 H :    0.038947
   8 H :    0.034530
   9 C :   -0.043738
  10 H :    0.025270
  11 H :    0.023375
  12 C :   -0.066782
  13 H :    0.025201
  14 H :    0.028508
  15 H :    0.024784
  16 S :    0.396517
  17 C :   -0.196009
  18 C :   -0.073503
  19 C :   -0.051227
  20 C :   -0.182916
  21 H :    0.029058
  22 C :   -0.037205
  23 H :    0.031190
  24 H :    0.032260
  25 C :   -0.040482
  26 H :    0.022013
  27 H :    0.025839
  28 C :   -0.061672
  29 H :    0.019501
  30 H :    0.031034
  31 H :    0.022969
  32 H :    0.021371
  33 H :    0.033948

  Mayer bond orders larger than 0.100000
B(  0-S ,  1-C ) :   1.1495 B(  0-S ,  4-C ) :   1.1581 B(  1-C ,  2-C ) :   1.5924
B(  1-C ,  4-C ) :   0.1044 B(  1-C , 32-H ) :   0.9664 B(  2-C ,  3-C ) :   1.2613
B(  2-C ,  6-C ) :   1.0076 B(  3-C ,  4-C ) :   1.5525 B(  3-C ,  5-H ) :   0.9922
B(  4-C , 20-C ) :   1.0775 B(  6-C ,  7-H ) :   0.9482 B(  6-C ,  8-H ) :   0.9385
B(  6-C ,  9-C ) :   1.0608 B(  9-C , 10-H ) :   0.9576 B(  9-C , 11-H ) :   0.9492
B(  9-C , 12-C ) :   1.0938 B( 12-C , 13-H ) :   0.9721 B( 12-C , 14-H ) :   0.9749
B( 12-C , 15-H ) :   0.9714 B( 16-S , 17-C ) :   1.1629 B( 16-S , 20-C ) :   1.1339
B( 17-C , 18-C ) :   1.6030 B( 17-C , 20-C ) :   0.1052 B( 17-C , 33-H ) :   0.9663
B( 18-C , 19-C ) :   1.2320 B( 18-C , 21-H ) :   0.9934 B( 19-C , 20-C ) :   1.5778
B( 19-C , 22-C ) :   1.0436 B( 22-C , 23-H ) :   0.9282 B( 22-C , 24-H ) :   0.9342
B( 22-C , 25-C ) :   1.0665 B( 25-C , 26-H ) :   0.9483 B( 25-C , 27-H ) :   0.9493
B( 25-C , 28-C ) :   1.0969 B( 28-C , 29-H ) :   0.9730 B( 28-C , 30-H ) :   0.9710
B( 28-C , 31-H ) :   0.9721

Dispersion correction           -0.013647073
FINAL SINGLE POINT ENERGY     -1339.874649263704

DIPOLE MOMENT
-------------
                                X             Y             Z
Electronic contribution:     16.09183      21.13046      14.51871
Nuclear contribution   :    -16.39273     -21.49810     -15.07033
                        -----------------------------------------
Total Dipole Moment    :     -0.30091      -0.36764      -0.55162
                        -----------------------------------------
Magnitude (a.u.)       :      0.72801
Magnitude (Debye)      :      1.85045

Rotational constants in cm-1:     0.017663     0.008692     0.006246
Rotational constants in MHz :   529.512828   260.565340   187.239302

                             ****ORCA TERMINATED NORMALLY****
TOTAL RUN TIME: 0 days 0 hours 0 minutes 21 seconds 321 msec
