                         Program Version 4.2.1 -  RELEASE  -
|  1> ! wB97X-D3 SP def2-SVP
|  2> %pal
|  3> nprocs 24
|  4> end
|  5>
|  6> * xyz 0 1
|  7> S 	 -110.213 	 34.7226 	 -15.8037
|  8> C 	 -109.2 	 35.7533 	 -14.7766
|  9> C 	 -108.046 	 36.1155 	 -15.4577
| 10> C 	 -107.936 	 35.3826 	 -16.6894
| 11> C 	 -108.947 	 34.5316 	 -16.9155
| 12> H 	 -107.116 	 35.3393 	 -17.3628
| 13> C 	 -106.982 	 36.9794 	 -14.9247
| 14> H 	 -106.762 	 36.5426 	 -13.95
| 15> H 	 -107.423 	 37.912 	 -14.7813
| 16> C 	 -105.757 	 37.1214 	 -15.8215
| 17> H 	 -105.43 	 36.1227 	 -16.1014
| 18> H 	 -106.001 	 37.6779 	 -16.7402
| 19> C 	 -104.542 	 37.7997 	 -15.0691
| 20> H 	 -103.627 	 37.8719 	 -15.615
| 21> H 	 -104.819 	 38.7647 	 -14.6265
| 22> H 	 -104.357 	 37.2543 	 -14.1877
| 23> S 	 -109.67 	 33.9667 	 -19.5488
| 24> C 	 -109.177 	 32.4602 	 -20.2269
| 25> C 	 -108.538 	 31.7066 	 -19.3185
| 26> C 	 -108.287 	 32.2849 	 -18.0855
| 27> C 	 -108.941 	 33.514 	 -17.9669
| 28> H 	 -108.28 	 30.6657 	 -19.5202
| 29> C 	 -107.437 	 31.6547 	 -17.0432
| 30> H 	 -106.842 	 32.3619 	 -16.5519
| 31> H 	 -106.807 	 30.9956 	 -17.6765
| 32> C 	 -108.125 	 30.829 	 -15.9859
| 33> H 	 -108.579 	 29.9374 	 -16.3713
| 34> H 	 -108.978 	 31.4082 	 -15.6586
| 35> C 	 -107.197 	 30.3951 	 -14.84
| 36> H 	 -106.39 	 29.6812 	 -15.2079
| 37> H 	 -107.78 	 30.005 	 -13.962
| 38> H 	 -106.517 	 31.2358 	 -14.4714
| 39> H 	 -109.546 	 36.3151 	 -13.9137
| 40> H 	 -109.523 	 32.2058 	 -21.1702
| 41> *
| 42>
| 43>                          ****END OF INPUT****

CARTESIAN COORDINATES (ANGSTROEM)
---------------------------------
  S    -110.213000   34.722600  -15.803700
  C    -109.200000   35.753300  -14.776600
  C    -108.046000   36.115500  -15.457700
  C    -107.936000   35.382600  -16.689400
  C    -108.947000   34.531600  -16.915500
  H    -107.116000   35.339300  -17.362800
  C    -106.982000   36.979400  -14.924700
  H    -106.762000   36.542600  -13.950000
  H    -107.423000   37.912000  -14.781300
  C    -105.757000   37.121400  -15.821500
  H    -105.430000   36.122700  -16.101400
  H    -106.001000   37.677900  -16.740200
  C    -104.542000   37.799700  -15.069100
  H    -103.627000   37.871900  -15.615000
  H    -104.819000   38.764700  -14.626500
  H    -104.357000   37.254300  -14.187700
  S    -109.670000   33.966700  -19.548800
  C    -109.177000   32.460200  -20.226900
  C    -108.538000   31.706600  -19.318500
  C    -108.287000   32.284900  -18.085500
  C    -108.941000   33.514000  -17.966900
  H    -108.280000   30.665700  -19.520200
  C    -107.437000   31.654700  -17.043200
  H    -106.842000   32.361900  -16.551900
  H    -106.807000   30.995600  -17.676500
  C    -108.125000   30.829000  -15.985900
  H    -108.579000   29.937400  -16.371300
  H    -108.978000   31.408200  -15.658600
  C    -107.197000   30.395100  -14.840000
  H    -106.390000   29.681200  -15.207900
  H    -107.780000   30.005000  -13.962000
  H    -106.517000   31.235800  -14.471400
  H    -109.546000   36.315100  -13.913700
  H    -109.523000   32.205800  -21.170200

 Total Charge           Charge          ....    0
 Multiplicity           Mult            ....    1
 Number of Electrons    NEL             ....  134
 Basis Dimension        Dim             ....  322

ORBITAL ENERGIES
----------------

  NO   OCC          E(Eh)            E(eV)
   0   2.0000     -88.963472     -2420.8192
   1   2.0000     -88.959788     -2420.7189
   2   2.0000     -10.325465      -280.9702
   3   2.0000     -10.317740      -280.7600
   4   2.0000     -10.311658      -280.5945
   5   2.0000     -10.307496      -280.4812
   6   2.0000     -10.299654      -280.2678
   7   2.0000     -10.297759      -280.2163
   8   2.0000     -10.292965      -280.0858
   9   2.0000     -10.289579      -279.9937
  10   2.0000     -10.285623      -279.8860
  11   2.0000     -10.285232      -279.8754
  12   2.0000     -10.284177      -279.8467
  13   2.0000     -10.283983      -279.8414
  14   2.0000     -10.279049      -279.7071
  15   2.0000     -10.276840      -279.6470
  16   2.0000      -8.078801      -219.8353
  17   2.0000      -8.074795      -219.7264
  18   2.0000      -6.037244      -164.2818
  19   2.0000      -6.033226      -164.1724
  20   2.0000      -6.033194      -164.1715
  21   2.0000      -6.029584      -164.0733
  22   2.0000      -6.029201      -164.0629
  23   2.0000      -6.025739      -163.9687
  24   2.0000      -1.011362       -27.5206
  25   2.0000      -0.990575       -26.9549
  26   2.0000      -0.919650       -25.0250
  27   2.0000      -0.914248       -24.8780
  28   2.0000      -0.869403       -23.6576
  29   2.0000      -0.851642       -23.1744
  30   2.0000      -0.846475       -23.0338
  31   2.0000      -0.816211       -22.2102
  32   2.0000      -0.784890       -21.3579
  33   2.0000      -0.772652       -21.0249
  34   2.0000      -0.718393       -19.5485
  35   2.0000      -0.700196       -19.0533
  36   2.0000      -0.691502       -18.8167
  37   2.0000      -0.662417       -18.0253
  38   2.0000      -0.642139       -17.4735
  39   2.0000      -0.620170       -16.8757
  40   2.0000      -0.608847       -16.5676
  41   2.0000      -0.577896       -15.7253
  42   2.0000      -0.566623       -15.4186
  43   2.0000      -0.558984       -15.2107
  44   2.0000      -0.529847       -14.4179
  45   2.0000      -0.528481       -14.3807
  46   2.0000      -0.513071       -13.9614
  47   2.0000      -0.510023       -13.8784
  48   2.0000      -0.506713       -13.7884
  49   2.0000      -0.496934       -13.5223
  50   2.0000      -0.495580       -13.4854
  51   2.0000      -0.484969       -13.1967
  52   2.0000      -0.471605       -12.8330
  53   2.0000      -0.460566       -12.5326
  54   2.0000      -0.459221       -12.4960
  55   2.0000      -0.449720       -12.2375
  56   2.0000      -0.444872       -12.1056
  57   2.0000      -0.438492       -11.9320
  58   2.0000      -0.435527       -11.8513
  59   2.0000      -0.432109       -11.7583
  60   2.0000      -0.422900       -11.5077
  61   2.0000      -0.420304       -11.4370
  62   2.0000      -0.407822       -11.0974
  63   2.0000      -0.335671        -9.1341
  64   2.0000      -0.327922        -8.9232
  65   2.0000      -0.318919        -8.6782
  66   2.0000      -0.311679        -8.4812
  67   0.0000       0.047139         1.2827
  68   0.0000       0.052142         1.4189
  69   0.0000       0.116426         3.1681
  70   0.0000       0.122900         3.3443
  71   0.0000       0.134890         3.6705

MULLIKEN ATOMIC CHARGES
-----------------------
   0 S :    0.117683
   1 C :   -0.130127
   2 C :   -0.114270
   3 C :    0.045846
   4 C :   -0.158934
   5 H :   -0.001321
   6 C :    0.105679
   7 H :    0.037940
   8 H :    0.018582
   9 C :   -0.106450
  10 H :    0.032915
  11 H :    0.042947
  12 C :   -0.002638
  13 H :    0.037394
  14 H :    0.019305
  15 H :    0.008336
  16 S :    0.089975
  17 C :   -0.056190
  18 C :   -0.032569
  19 C :   -0.020774
  20 C :   -0.198750
  21 H :    0.015127
  22 C :    0.113314
  23 H :    0.005141
  24 H :    0.014226
  25 C :   -0.030917
  26 H :    0.015033
  27 H :    0.022120
  28 C :   -0.090066
  29 H :    0.036575
  30 H :    0.055543
  31 H :    0.030844
  32 H :    0.046503
  33 H :    0.031978
Sum of atomic charges:   -0.0000000

LOEWDIN ATOMIC CHARGES
----------------------
   0 S :    0.419213
   1 C :   -0.200752
   2 C :   -0.054917
   3 C :   -0.063961
   4 C :   -0.217353
   5 H :    0.027157
   6 C :   -0.032396
   7 H :    0.040030
   8 H :    0.027761
   9 C :   -0.034672
  10 H :    0.022177
  11 H :    0.028333
  12 C :   -0.060518
  13 H :    0.024037
  14 H :    0.025623
  15 H :    0.018260
  16 S :    0.392946
  17 C :   -0.173268
  18 C :   -0.077573
  19 C :   -0.052420
  20 C :   -0.183555
  21 H :    0.033156
  22 C :   -0.024919
  23 H :    0.023759
  24 H :    0.033654
  25 C :   -0.040420
  26 H :    0.021184
  27 H :    0.022898
  28 C :   -0.078701
  29 H :    0.030587
  30 H :    0.034621
  31 H :    0.027477
  32 H :    0.027832
  33 H :    0.014721

  Mayer bond orders larger than 0.100000
B(  0-S ,  1-C ) :   1.1291 B(  0-S ,  4-C ) :   1.1638 B(  1-C ,  2-C ) :   1.6268
B(  1-C , 32-H ) :   0.9712 B(  2-C ,  3-C ) :   1.2221 B(  2-C ,  6-C ) :   1.0029
B(  3-C ,  4-C ) :   1.5946 B(  3-C ,  5-H ) :   1.0006 B(  4-C , 20-C ) :   0.9819
B(  6-C ,  7-H ) :   0.9373 B(  6-C ,  8-H ) :   0.9131 B(  6-C ,  9-C ) :   1.1026
B(  9-C , 10-H ) :   0.9486 B(  9-C , 11-H ) :   0.9507 B(  9-C , 12-C ) :   1.0782
B( 12-C , 13-H ) :   0.9761 B( 12-C , 14-H ) :   0.9730 B( 12-C , 15-H ) :   0.9732
B( 16-S , 17-C ) :   1.1647 B( 16-S , 20-C ) :   1.1510 B( 17-C , 18-C ) :   1.5903
B( 17-C , 20-C ) :   0.1062 B( 17-C , 33-H ) :   0.9768 B( 18-C , 19-C ) :   1.2690
B( 18-C , 21-H ) :   0.9845 B( 19-C , 20-C ) :   1.5884 B( 19-C , 22-C ) :   1.0438
B( 22-C , 23-H ) :   0.9231 B( 22-C , 24-H ) :   0.9214 B( 22-C , 25-C ) :   1.0761
B( 25-C , 26-H ) :   0.9471 B( 25-C , 27-H ) :   0.9521 B( 25-C , 28-C ) :   1.0784
B( 28-C , 29-H ) :   0.9724 B( 28-C , 30-H ) :   0.9729 B( 28-C , 31-H ) :   0.9740

Dispersion correction           -0.014252302
FINAL SINGLE POINT ENERGY     -1339.873550448306

DIPOLE MOMENT
-------------
                                X             Y             Z
Electronic contribution:    -22.32453       1.65501     -14.57472
Nuclear contribution   :     22.87983      -1.67270      14.79743
                        -----------------------------------------
Total Dipole Moment    :      0.55530      -0.01770       0.22271
                        -----------------------------------------
Magnitude (a.u.)       :      0.59856
Magnitude (Debye)      :      1.52142

Rotational constants in cm-1:     0.016526     0.008613     0.007618
Rotational constants in MHz :   495.441168   258.202768   228.380521

                             ****ORCA TERMINATED NORMALLY****
TOTAL RUN TIME: 0 days 0 hours 0 minutes 21 seconds 762 msec
