                         Program Version 4.2.1 -  RELEASE  -
|  1> ! wB97X-D3 SP def2-SVP
|  2> %pal
|  3> nprocs 24
|  4> end
|  5>
|  6> * xyz 0 1
|  7> S 	 -42.3981 	 -49.8256 	 -71.5371
|  8> C 	 -40.6302 	 -49.6079 	 -71.3667
|  9> C 	 -40.1302 	 -50.4175 	 -70.387
| 10> C 	 -41.1313 	 -51.2954 	 -69.8263
| 11> C 	 -42.4205 	 -51.0753 	 -70.321
| 12> H 	 -41.0649 	 -51.9516 	 -68.9978
| 13> C 	 -38.698 	 -50.4449 	 -69.7928
| 14> H 	 -38.1123 	 -49.8252 	 -70.4646
| 15> H 	 -38.1884 	 -51.4076 	 -70.03
| 16> C 	 -38.7035 	 -50.2079 	 -68.2802
| 17> H 	 -39.5161 	 -49.6822 	 -67.8267
| 18> H 	 -38.8309 	 -51.1724 	 -67.8749
| 19> C 	 -37.4447 	 -49.5825 	 -67.7056
| 20> H 	 -37.4631 	 -49.5229 	 -66.6253
| 21> H 	 -36.6241 	 -50.1793 	 -68.0614
| 22> H 	 -37.3252 	 -48.6568 	 -68.1909
| 23> S 	 -44.1436 	 -53.219 	 -70.7827
| 24> C 	 -45.3912 	 -53.624 	 -69.6452
| 25> C 	 -45.4525 	 -52.7042 	 -68.5734
| 26> C 	 -44.383 	 -51.6949 	 -68.6632
| 27> C 	 -43.6415 	 -51.7642 	 -69.8412
| 28> H 	 -46.311 	 -52.8356 	 -67.9167
| 29> C 	 -44.177 	 -50.6058 	 -67.6642
| 30> H 	 -44.9841 	 -49.907 	 -67.8884
| 31> H 	 -43.2042 	 -50.0405 	 -67.8186
| 32> C 	 -44.3325 	 -51.1342 	 -66.1775
| 33> H 	 -45.3942 	 -51.5885 	 -65.9634
| 34> H 	 -44.2719 	 -50.2327 	 -65.5408
| 35> C 	 -43.055 	 -51.9946 	 -65.8163
| 36> H 	 -43.0924 	 -52.8576 	 -66.4371
| 37> H 	 -43.1892 	 -52.4591 	 -64.8296
| 38> H 	 -42.0116 	 -51.6096 	 -65.8536
| 39> H 	 -40.1084 	 -48.837 	 -71.9604
| 40> H 	 -46.2343 	 -54.2035 	 -69.9018
| 41> *
| 42>
| 43>                          ****END OF INPUT****

CARTESIAN COORDINATES (ANGSTROEM)
---------------------------------
  S    -42.398100  -49.825600  -71.537100
  C    -40.630200  -49.607900  -71.366700
  C    -40.130200  -50.417500  -70.387000
  C    -41.131300  -51.295400  -69.826300
  C    -42.420500  -51.075300  -70.321000
  H    -41.064900  -51.951600  -68.997800
  C    -38.698000  -50.444900  -69.792800
  H    -38.112300  -49.825200  -70.464600
  H    -38.188400  -51.407600  -70.030000
  C    -38.703500  -50.207900  -68.280200
  H    -39.516100  -49.682200  -67.826700
  H    -38.830900  -51.172400  -67.874900
  C    -37.444700  -49.582500  -67.705600
  H    -37.463100  -49.522900  -66.625300
  H    -36.624100  -50.179300  -68.061400
  H    -37.325200  -48.656800  -68.190900
  S    -44.143600  -53.219000  -70.782700
  C    -45.391200  -53.624000  -69.645200
  C    -45.452500  -52.704200  -68.573400
  C    -44.383000  -51.694900  -68.663200
  C    -43.641500  -51.764200  -69.841200
  H    -46.311000  -52.835600  -67.916700
  C    -44.177000  -50.605800  -67.664200
  H    -44.984100  -49.907000  -67.888400
  H    -43.204200  -50.040500  -67.818600
  C    -44.332500  -51.134200  -66.177500
  H    -45.394200  -51.588500  -65.963400
  H    -44.271900  -50.232700  -65.540800
  C    -43.055000  -51.994600  -65.816300
  H    -43.092400  -52.857600  -66.437100
  H    -43.189200  -52.459100  -64.829600
  H    -42.011600  -51.609600  -65.853600
  H    -40.108400  -48.837000  -71.960400
  H    -46.234300  -54.203500  -69.901800

 Total Charge           Charge          ....    0
 Multiplicity           Mult            ....    1
 Number of Electrons    NEL             ....  134
 Basis Dimension        Dim             ....  322

ORBITAL ENERGIES
----------------

  NO   OCC          E(Eh)            E(eV)
   0   2.0000     -88.964779     -2420.8547
   1   2.0000     -88.959858     -2420.7208
   2   2.0000     -10.331300      -281.1290
   3   2.0000     -10.329568      -281.0818
   4   2.0000     -10.320397      -280.8323
   5   2.0000     -10.316917      -280.7376
   6   2.0000     -10.312036      -280.6048
   7   2.0000     -10.306467      -280.4532
   8   2.0000     -10.305804      -280.4352
   9   2.0000     -10.303359      -280.3686
  10   2.0000     -10.299687      -280.2687
  11   2.0000     -10.296037      -280.1694
  12   2.0000     -10.292901      -280.0841
  13   2.0000     -10.280992      -279.7600
  14   2.0000     -10.280108      -279.7360
  15   2.0000     -10.272345      -279.5247
  16   2.0000      -8.079098      -219.8434
  17   2.0000      -8.074303      -219.7130
  18   2.0000      -6.037642      -164.2926
  19   2.0000      -6.033625      -164.1833
  20   2.0000      -6.032867      -164.1627
  21   2.0000      -6.029884      -164.0815
  22   2.0000      -6.028746      -164.0505
  23   2.0000      -6.025119      -163.9518
  24   2.0000      -0.997326       -27.1386
  25   2.0000      -0.975997       -26.5582
  26   2.0000      -0.913404       -24.8550
  27   2.0000      -0.900976       -24.5168
  28   2.0000      -0.867944       -23.6180
  29   2.0000      -0.846533       -23.0353
  30   2.0000      -0.837912       -22.8007
  31   2.0000      -0.811180       -22.0733
  32   2.0000      -0.783123       -21.3099
  33   2.0000      -0.772025       -21.0079
  34   2.0000      -0.712713       -19.3939
  35   2.0000      -0.700735       -19.0680
  36   2.0000      -0.691401       -18.8140
  37   2.0000      -0.650714       -17.7068
  38   2.0000      -0.646658       -17.5965
  39   2.0000      -0.613826       -16.7031
  40   2.0000      -0.589757       -16.0481
  41   2.0000      -0.573253       -15.5990
  42   2.0000      -0.557873       -15.1805
  43   2.0000      -0.547999       -14.9118
  44   2.0000      -0.540705       -14.7133
  45   2.0000      -0.530043       -14.4232
  46   2.0000      -0.519051       -14.1241
  47   2.0000      -0.515109       -14.0168
  48   2.0000      -0.498473       -13.5641
  49   2.0000      -0.494666       -13.4606
  50   2.0000      -0.484462       -13.1829
  51   2.0000      -0.477068       -12.9817
  52   2.0000      -0.474201       -12.9037
  53   2.0000      -0.464588       -12.6421
  54   2.0000      -0.454856       -12.3773
  55   2.0000      -0.449928       -12.2432
  56   2.0000      -0.441732       -12.0201
  57   2.0000      -0.436757       -11.8848
  58   2.0000      -0.435934       -11.8624
  59   2.0000      -0.421201       -11.4615
  60   2.0000      -0.420376       -11.4390
  61   2.0000      -0.411489       -11.1972
  62   2.0000      -0.407251       -11.0819
  63   2.0000      -0.331137        -9.0107
  64   2.0000      -0.325302        -8.8519
  65   2.0000      -0.320109        -8.7106
  66   2.0000      -0.314042        -8.5455
  67   0.0000       0.040400         1.0993
  68   0.0000       0.055011         1.4969
  69   0.0000       0.113859         3.0983
  70   0.0000       0.119838         3.2609
  71   0.0000       0.125489         3.4147

MULLIKEN ATOMIC CHARGES
-----------------------
   0 S :    0.102807
   1 C :   -0.150903
   2 C :   -0.070661
   3 C :    0.063603
   4 C :   -0.186303
   5 H :    0.000608
   6 C :    0.074692
   7 H :    0.004777
   8 H :    0.040563
   9 C :   -0.070223
  10 H :    0.030594
  11 H :    0.017133
  12 C :   -0.011597
  13 H :    0.040109
  14 H :    0.017012
  15 H :    0.022396
  16 S :    0.092469
  17 C :   -0.081970
  18 C :   -0.059256
  19 C :   -0.022514
  20 C :   -0.161985
  21 H :    0.031430
  22 C :    0.035948
  23 H :    0.045260
  24 H :    0.050377
  25 C :   -0.115854
  26 H :    0.059003
  27 H :    0.037090
  28 C :   -0.058694
  29 H :    0.029057
  30 H :    0.028958
  31 H :    0.048261
  32 H :    0.062288
  33 H :    0.055525
Sum of atomic charges:   -0.0000000

LOEWDIN ATOMIC CHARGES
----------------------
   0 S :    0.391364
   1 C :   -0.188708
   2 C :   -0.060036
   3 C :   -0.052811
   4 C :   -0.203446
   5 H :    0.025406
   6 C :   -0.030097
   7 H :    0.023274
   8 H :    0.039584
   9 C :   -0.040874
  10 H :    0.022777
  11 H :    0.019350
  12 C :   -0.051789
  13 H :    0.027773
  14 H :    0.021948
  15 H :    0.019767
  16 S :    0.387557
  17 C :   -0.183265
  18 C :   -0.076489
  19 C :   -0.049547
  20 C :   -0.193181
  21 H :    0.033895
  22 C :   -0.039476
  23 H :    0.036485
  24 H :    0.041237
  25 C :   -0.045658
  26 H :    0.039575
  27 H :    0.023876
  28 C :   -0.077523
  29 H :    0.020715
  30 H :    0.027626
  31 H :    0.033186
  32 H :    0.034583
  33 H :    0.022923

  Mayer bond orders larger than 0.100000
B(  0-S ,  1-C ) :   1.1285 B(  0-S ,  4-C ) :   1.1526 B(  1-C ,  2-C ) :   1.6375
B(  1-C , 32-H ) :   0.9663 B(  2-C ,  3-C ) :   1.2054 B(  2-C ,  6-C ) :   1.0200
B(  3-C ,  4-C ) :   1.6007 B(  3-C ,  5-H ) :   0.9993 B(  4-C , 20-C ) :   0.9997
B(  6-C ,  7-H ) :   0.9500 B(  6-C ,  8-H ) :   0.9385 B(  6-C ,  9-C ) :   1.0256
B(  9-C , 10-H ) :   0.9677 B(  9-C , 11-H ) :   0.9460 B(  9-C , 12-C ) :   1.0955
B( 12-C , 13-H ) :   0.9740 B( 12-C , 14-H ) :   0.9720 B( 12-C , 15-H ) :   0.9774
B( 16-S , 17-C ) :   1.1722 B( 16-S , 20-C ) :   1.1226 B( 17-C , 18-C ) :   1.6310
B( 17-C , 33-H ) :   0.9623 B( 18-C , 19-C ) :   1.1880 B( 18-C , 21-H ) :   0.9880
B( 19-C , 20-C ) :   1.6270 B( 19-C , 22-C ) :   1.0416 B( 22-C , 23-H ) :   0.9331
B( 22-C , 24-H ) :   0.9390 B( 22-C , 25-C ) :   1.0651 B( 25-C , 26-H ) :   0.9527
B( 25-C , 27-H ) :   0.9598 B( 25-C , 28-C ) :   1.0517 B( 28-C , 29-H ) :   0.9759
B( 28-C , 30-H ) :   0.9728 B( 28-C , 31-H ) :   0.9767

Dispersion correction           -0.014902451
FINAL SINGLE POINT ENERGY     -1339.859111670558

DIPOLE MOMENT
-------------
                                X             Y             Z
Electronic contribution:    -15.39725      -4.73753     -24.47754
Nuclear contribution   :     15.60271       4.91638      25.11721
                        -----------------------------------------
Total Dipole Moment    :      0.20546       0.17885       0.63967
                        -----------------------------------------
Magnitude (a.u.)       :      0.69526
Magnitude (Debye)      :      1.76720

Rotational constants in cm-1:     0.017777     0.009099     0.006950
Rotational constants in MHz :   532.934418   272.775536   208.341528

                             ****ORCA TERMINATED NORMALLY****
TOTAL RUN TIME: 0 days 0 hours 0 minutes 21 seconds 876 msec
