                         Program Version 4.2.1 -  RELEASE  -
|  1> ! wB97X-D3 SP def2-SVP
|  2> %pal
|  3> nprocs 24
|  4> end
|  5>
|  6> * xyz 0 1
|  7> S 	 -133.648 	 31.496 	 -20.9756
|  8> C 	 -132.424 	 30.183 	 -20.805
|  9> C 	 -132.774 	 29.2763 	 -19.8282
| 10> C 	 -134.022 	 29.6849 	 -19.2054
| 11> C 	 -134.636 	 30.8028 	 -19.6449
| 12> H 	 -134.505 	 29.1246 	 -18.3924
| 13> C 	 -131.84 	 28.0831 	 -19.5433
| 14> H 	 -131.901 	 27.2898 	 -20.3029
| 15> H 	 -132.25 	 27.642 	 -18.6639
| 16> C 	 -130.359 	 28.3134 	 -19.2674
| 17> H 	 -129.895 	 28.7301 	 -20.2268
| 18> H 	 -130.351 	 29.0604 	 -18.4916
| 19> C 	 -129.559 	 27.0554 	 -18.9233
| 20> H 	 -129.096 	 26.5774 	 -19.7662
| 21> H 	 -128.566 	 27.3138 	 -18.4767
| 22> H 	 -130.162 	 26.3936 	 -18.2752
| 23> S 	 -136.967 	 31.8192 	 -20.6626
| 24> C 	 -138.031 	 32.6315 	 -19.5903
| 25> C 	 -137.878 	 32.2019 	 -18.3049
| 26> C 	 -136.658 	 31.4856 	 -18.0955
| 27> C 	 -135.982 	 31.3019 	 -19.2867
| 28> H 	 -138.607 	 32.5198 	 -17.5699
| 29> C 	 -136.244 	 31.0668 	 -16.7314
| 30> H 	 -135.226 	 30.6912 	 -16.6593
| 31> H 	 -136.967 	 30.3054 	 -16.3869
| 32> C 	 -136.336 	 32.2355 	 -15.7278
| 33> H 	 -137.318 	 32.5377 	 -15.6373
| 34> H 	 -135.806 	 33.1924 	 -15.9716
| 35> C 	 -135.897 	 31.754 	 -14.3937
| 36> H 	 -134.763 	 31.605 	 -14.4332
| 37> H 	 -136.251 	 30.8201 	 -14.0387
| 38> H 	 -135.98 	 32.631 	 -13.7277
| 39> H 	 -131.61 	 30.0555 	 -21.4584
| 40> H 	 -138.819 	 33.234 	 -19.9915
| 41> *
| 42>
| 43>                          ****END OF INPUT****

CARTESIAN COORDINATES (ANGSTROEM)
---------------------------------
  S    -133.648000   31.496000  -20.975600
  C    -132.424000   30.183000  -20.805000
  C    -132.774000   29.276300  -19.828200
  C    -134.022000   29.684900  -19.205400
  C    -134.636000   30.802800  -19.644900
  H    -134.505000   29.124600  -18.392400
  C    -131.840000   28.083100  -19.543300
  H    -131.901000   27.289800  -20.302900
  H    -132.250000   27.642000  -18.663900
  C    -130.359000   28.313400  -19.267400
  H    -129.895000   28.730100  -20.226800
  H    -130.351000   29.060400  -18.491600
  C    -129.559000   27.055400  -18.923300
  H    -129.096000   26.577400  -19.766200
  H    -128.566000   27.313800  -18.476700
  H    -130.162000   26.393600  -18.275200
  S    -136.967000   31.819200  -20.662600
  C    -138.031000   32.631500  -19.590300
  C    -137.878000   32.201900  -18.304900
  C    -136.658000   31.485600  -18.095500
  C    -135.982000   31.301900  -19.286700
  H    -138.607000   32.519800  -17.569900
  C    -136.244000   31.066800  -16.731400
  H    -135.226000   30.691200  -16.659300
  H    -136.967000   30.305400  -16.386900
  C    -136.336000   32.235500  -15.727800
  H    -137.318000   32.537700  -15.637300
  H    -135.806000   33.192400  -15.971600
  C    -135.897000   31.754000  -14.393700
  H    -134.763000   31.605000  -14.433200
  H    -136.251000   30.820100  -14.038700
  H    -135.980000   32.631000  -13.727700
  H    -131.610000   30.055500  -21.458400
  H    -138.819000   33.234000  -19.991500

 Total Charge           Charge          ....    0
 Multiplicity           Mult            ....    1
 Number of Electrons    NEL             ....  134
 Basis Dimension        Dim             ....  322

ORBITAL ENERGIES
----------------

  NO   OCC          E(Eh)            E(eV)
   0   2.0000     -88.962387     -2420.7896
   1   2.0000     -88.959977     -2420.7240
   2   2.0000     -10.331060      -281.1224
   3   2.0000     -10.327367      -281.0220
   4   2.0000     -10.313832      -280.6536
   5   2.0000     -10.311759      -280.5972
   6   2.0000     -10.305828      -280.4358
   7   2.0000     -10.303499      -280.3725
   8   2.0000     -10.296006      -280.1686
   9   2.0000     -10.293498      -280.1003
  10   2.0000     -10.292948      -280.0853
  11   2.0000     -10.292340      -280.0688
  12   2.0000     -10.291998      -280.0595
  13   2.0000     -10.285003      -279.8691
  14   2.0000     -10.279374      -279.7160
  15   2.0000     -10.277697      -279.6704
  16   2.0000      -8.075681      -219.7504
  17   2.0000      -8.075646      -219.7495
  18   2.0000      -6.034416      -164.2048
  19   2.0000      -6.034020      -164.1940
  20   2.0000      -6.030388      -164.0952
  21   2.0000      -6.030245      -164.0913
  22   2.0000      -6.026302      -163.9840
  23   2.0000      -6.026225      -163.9819
  24   2.0000      -1.005541       -27.3622
  25   2.0000      -0.980079       -26.6693
  26   2.0000      -0.920453       -25.0468
  27   2.0000      -0.911571       -24.8051
  28   2.0000      -0.868585       -23.6354
  29   2.0000      -0.857585       -23.3361
  30   2.0000      -0.838872       -22.8269
  31   2.0000      -0.817169       -22.2363
  32   2.0000      -0.783085       -21.3088
  33   2.0000      -0.773092       -21.0369
  34   2.0000      -0.705309       -19.1924
  35   2.0000      -0.703381       -19.1400
  36   2.0000      -0.694561       -18.9000
  37   2.0000      -0.659356       -17.9420
  38   2.0000      -0.640554       -17.4304
  39   2.0000      -0.616784       -16.7836
  40   2.0000      -0.603667       -16.4266
  41   2.0000      -0.574203       -15.6249
  42   2.0000      -0.571677       -15.5561
  43   2.0000      -0.565273       -15.3818
  44   2.0000      -0.536707       -14.6045
  45   2.0000      -0.529206       -14.4004
  46   2.0000      -0.518734       -14.1155
  47   2.0000      -0.510317       -13.8864
  48   2.0000      -0.500953       -13.6316
  49   2.0000      -0.498510       -13.5651
  50   2.0000      -0.491858       -13.3841
  51   2.0000      -0.481212       -13.0945
  52   2.0000      -0.467838       -12.7305
  53   2.0000      -0.463583       -12.6147
  54   2.0000      -0.455494       -12.3946
  55   2.0000      -0.454223       -12.3600
  56   2.0000      -0.450260       -12.2522
  57   2.0000      -0.439658       -11.9637
  58   2.0000      -0.427988       -11.6461
  59   2.0000      -0.424429       -11.5493
  60   2.0000      -0.417382       -11.3575
  61   2.0000      -0.410770       -11.1776
  62   2.0000      -0.409542       -11.1442
  63   2.0000      -0.349179        -9.5016
  64   2.0000      -0.330496        -8.9933
  65   2.0000      -0.324944        -8.8422
  66   2.0000      -0.291911        -7.9433
  67   0.0000       0.027141         0.7385
  68   0.0000       0.074976         2.0402
  69   0.0000       0.101434         2.7602
  70   0.0000       0.120567         3.2808
  71   0.0000       0.134164         3.6508

MULLIKEN ATOMIC CHARGES
-----------------------
   0 S :    0.090322
   1 C :   -0.114218
   2 C :   -0.077554
   3 C :    0.015152
   4 C :   -0.121809
   5 H :    0.015437
   6 C :    0.074738
   7 H :    0.038689
   8 H :   -0.000184
   9 C :   -0.087215
  10 H :    0.032083
  11 H :    0.034075
  12 C :   -0.047381
  13 H :    0.026954
  14 H :    0.031891
  15 H :    0.043317
  16 S :    0.095784
  17 C :   -0.089971
  18 C :   -0.035919
  19 C :   -0.008091
  20 C :   -0.170037
  21 H :    0.023288
  22 C :    0.070393
  23 H :    0.022116
  24 H :    0.041277
  25 C :   -0.085828
  26 H :    0.004696
  27 H :    0.041826
  28 C :   -0.035755
  29 H :    0.023335
  30 H :    0.025522
  31 H :    0.034914
  32 H :    0.036181
  33 H :    0.051970
Sum of atomic charges:    0.0000000

LOEWDIN ATOMIC CHARGES
----------------------
   0 S :    0.357357
   1 C :   -0.160713
   2 C :   -0.063270
   3 C :   -0.066873
   4 C :   -0.180849
   5 H :    0.031506
   6 C :   -0.034801
   7 H :    0.032931
   8 H :    0.021184
   9 C :   -0.042003
  10 H :    0.027901
  11 H :    0.022235
  12 C :   -0.074214
  13 H :    0.026532
  14 H :    0.037163
  15 H :    0.028273
  16 S :    0.401644
  17 C :   -0.179974
  18 C :   -0.072117
  19 C :   -0.054112
  20 C :   -0.186926
  21 H :    0.032230
  22 C :   -0.028425
  23 H :    0.028515
  24 H :    0.041694
  25 C :   -0.041033
  26 H :    0.007888
  27 H :    0.035393
  28 C :   -0.066462
  29 H :    0.029485
  30 H :    0.017716
  31 H :    0.031023
  32 H :    0.017729
  33 H :    0.023373

  Mayer bond orders larger than 0.100000
B(  0-S ,  1-C ) :   1.1253 B(  0-S ,  4-C ) :   1.1121 B(  1-C ,  2-C ) :   1.6307
B(  1-C , 32-H ) :   0.9757 B(  2-C ,  3-C ) :   1.2208 B(  2-C ,  6-C ) :   1.0113
B(  3-C ,  4-C ) :   1.6185 B(  3-C ,  5-H ) :   0.9869 B(  4-C , 20-C ) :   1.0419
B(  6-C ,  7-H ) :   0.9392 B(  6-C ,  8-H ) :   0.9341 B(  6-C ,  9-C ) :   1.0703
B(  9-C , 10-H ) :   0.9504 B(  9-C , 11-H ) :   0.9613 B(  9-C , 12-C ) :   1.0821
B( 12-C , 13-H ) :   0.9699 B( 12-C , 14-H ) :   0.9679 B( 12-C , 15-H ) :   0.9755
B( 16-S , 17-C ) :   1.1590 B( 16-S , 20-C ) :   1.1341 B( 17-C , 18-C ) :   1.6156
B( 17-C , 33-H ) :   0.9716 B( 18-C , 19-C ) :   1.2092 B( 18-C , 21-H ) :   0.9922
B( 19-C , 20-C ) :   1.6136 B( 19-C , 22-C ) :   1.0553 B( 22-C , 23-H ) :   0.9398
B( 22-C , 24-H ) :   0.9227 B( 22-C , 25-C ) :   1.0642 B( 25-C , 26-H ) :   0.9454
B( 25-C , 27-H ) :   0.9532 B( 25-C , 28-C ) :   1.1024 B( 28-C , 29-H ) :   0.9698
B( 28-C , 30-H ) :   0.9704 B( 28-C , 31-H ) :   0.9695

Dispersion correction           -0.012974070
FINAL SINGLE POINT ENERGY     -1339.861698487494

DIPOLE MOMENT
-------------
                                X             Y             Z
Electronic contribution:    -14.41560      12.04736     -22.47838
Nuclear contribution   :     14.48792     -12.38387      23.05564
                        -----------------------------------------
Total Dipole Moment    :      0.07232      -0.33651       0.57726
                        -----------------------------------------
Magnitude (a.u.)       :      0.67208
Magnitude (Debye)      :      1.70829

Rotational constants in cm-1:     0.018995     0.007457     0.005687
Rotational constants in MHz :   569.462621   223.541407   170.485054

                             ****ORCA TERMINATED NORMALLY****
TOTAL RUN TIME: 0 days 0 hours 0 minutes 20 seconds 698 msec
