                         Program Version 4.2.1 -  RELEASE  -
|  1> ! wB97X-D3 SP def2-SVP
|  2> %pal
|  3> nprocs 24
|  4> end
|  5>
|  6> * xyz 0 1
|  7> S 	 -36.0493 	 15.9474 	 16.5332
|  8> C 	 -35.8418 	 17.6208 	 17.123
|  9> C 	 -34.7579 	 18.254 	 16.4474
| 10> C 	 -34.2171 	 17.3354 	 15.498
| 11> C 	 -34.8315 	 16.1025 	 15.294
| 12> H 	 -33.495 	 17.5916 	 14.6947
| 13> C 	 -34.2937 	 19.6641 	 16.7156
| 14> H 	 -34.9373 	 20.093 	 17.5236
| 15> H 	 -34.5756 	 20.2542 	 15.8851
| 16> C 	 -32.8592 	 19.7983 	 17.1153
| 17> H 	 -32.7355 	 19.051 	 17.8676
| 18> H 	 -32.3728 	 19.5868 	 16.1941
| 19> C 	 -32.3996 	 21.1347 	 17.6581
| 20> H 	 -33.1307 	 21.4355 	 18.4709
| 21> H 	 -31.4104 	 21.1952 	 18.0917
| 22> H 	 -32.5377 	 21.9435 	 16.9551
| 23> S 	 -33.8088 	 13.5871 	 15.0188
| 24> C 	 -33.8689 	 12.8163 	 13.4458
| 25> C 	 -34.1635 	 13.6714 	 12.4109
| 26> C 	 -34.4643 	 15.0122 	 12.9243
| 27> C 	 -34.4773 	 15.0549 	 14.3631
| 28> H 	 -34.1261 	 13.2098 	 11.4065
| 29> C 	 -34.8516 	 16.165 	 11.9941
| 30> H 	 -34.2967 	 16.1191 	 11.0748
| 31> H 	 -34.418 	 17.0384 	 12.5002
| 32> C 	 -36.3593 	 16.2815 	 11.8534
| 33> H 	 -36.6886 	 16.5805 	 12.8368
| 34> H 	 -36.8885 	 15.3651 	 11.7393
| 35> C 	 -36.8552 	 17.3235 	 10.7356
| 36> H 	 -36.2077 	 17.1368 	 9.80172
| 37> H 	 -36.8507 	 18.4469 	 11.0153
| 38> H 	 -37.7916 	 16.9879 	 10.2948
| 39> H 	 -36.541 	 18.1092 	 17.8125
| 40> H 	 -33.5171 	 11.8419 	 13.311
| 41> *
| 42>
| 43>                          ****END OF INPUT****

CARTESIAN COORDINATES (ANGSTROEM)
---------------------------------
  S    -36.049300   15.947400   16.533200
  C    -35.841800   17.620800   17.123000
  C    -34.757900   18.254000   16.447400
  C    -34.217100   17.335400   15.498000
  C    -34.831500   16.102500   15.294000
  H    -33.495000   17.591600   14.694700
  C    -34.293700   19.664100   16.715600
  H    -34.937300   20.093000   17.523600
  H    -34.575600   20.254200   15.885100
  C    -32.859200   19.798300   17.115300
  H    -32.735500   19.051000   17.867600
  H    -32.372800   19.586800   16.194100
  C    -32.399600   21.134700   17.658100
  H    -33.130700   21.435500   18.470900
  H    -31.410400   21.195200   18.091700
  H    -32.537700   21.943500   16.955100
  S    -33.808800   13.587100   15.018800
  C    -33.868900   12.816300   13.445800
  C    -34.163500   13.671400   12.410900
  C    -34.464300   15.012200   12.924300
  C    -34.477300   15.054900   14.363100
  H    -34.126100   13.209800   11.406500
  C    -34.851600   16.165000   11.994100
  H    -34.296700   16.119100   11.074800
  H    -34.418000   17.038400   12.500200
  C    -36.359300   16.281500   11.853400
  H    -36.688600   16.580500   12.836800
  H    -36.888500   15.365100   11.739300
  C    -36.855200   17.323500   10.735600
  H    -36.207700   17.136800    9.801720
  H    -36.850700   18.446900   11.015300
  H    -37.791600   16.987900   10.294800
  H    -36.541000   18.109200   17.812500
  H    -33.517100   11.841900   13.311000

 Total Charge           Charge          ....    0
 Multiplicity           Mult            ....    1
 Number of Electrons    NEL             ....  134
 Basis Dimension        Dim             ....  322

ORBITAL ENERGIES
----------------

  NO   OCC          E(Eh)            E(eV)
   0   2.0000     -88.966482     -2420.9010
   1   2.0000     -88.965486     -2420.8740
   2   2.0000     -10.331753      -281.1413
   3   2.0000     -10.330949      -281.1194
   4   2.0000     -10.325013      -280.9579
   5   2.0000     -10.316796      -280.7343
   6   2.0000     -10.312668      -280.6220
   7   2.0000     -10.310038      -280.5504
   8   2.0000     -10.301041      -280.3056
   9   2.0000     -10.297719      -280.2152
  10   2.0000     -10.292574      -280.0752
  11   2.0000     -10.291145      -280.0363
  12   2.0000     -10.290067      -280.0070
  13   2.0000     -10.284288      -279.8497
  14   2.0000     -10.281543      -279.7750
  15   2.0000     -10.279689      -279.7246
  16   2.0000      -8.080609      -219.8845
  17   2.0000      -8.080491      -219.8813
  18   2.0000      -6.039083      -164.3318
  19   2.0000      -6.038904      -164.3269
  20   2.0000      -6.035038      -164.2217
  21   2.0000      -6.035008      -164.2209
  22   2.0000      -6.031602      -164.1282
  23   2.0000      -6.031254      -164.1188
  24   2.0000      -1.002558       -27.2810
  25   2.0000      -0.979138       -26.6437
  26   2.0000      -0.921792       -25.0832
  27   2.0000      -0.903485       -24.5851
  28   2.0000      -0.871711       -23.7204
  29   2.0000      -0.845019       -22.9941
  30   2.0000      -0.838840       -22.8260
  31   2.0000      -0.813376       -22.1331
  32   2.0000      -0.785037       -21.3619
  33   2.0000      -0.768017       -20.8988
  34   2.0000      -0.712730       -19.3944
  35   2.0000      -0.701394       -19.0859
  36   2.0000      -0.692622       -18.8472
  37   2.0000      -0.657447       -17.8900
  38   2.0000      -0.644648       -17.5418
  39   2.0000      -0.616625       -16.7792
  40   2.0000      -0.591271       -16.0893
  41   2.0000      -0.581320       -15.8185
  42   2.0000      -0.567260       -15.4359
  43   2.0000      -0.554363       -15.0850
  44   2.0000      -0.528463       -14.3802
  45   2.0000      -0.520208       -14.1556
  46   2.0000      -0.516631       -14.0582
  47   2.0000      -0.508950       -13.8492
  48   2.0000      -0.503769       -13.7082
  49   2.0000      -0.500682       -13.6242
  50   2.0000      -0.498372       -13.5614
  51   2.0000      -0.475406       -12.9365
  52   2.0000      -0.468193       -12.7402
  53   2.0000      -0.462412       -12.5829
  54   2.0000      -0.454771       -12.3750
  55   2.0000      -0.452405       -12.3106
  56   2.0000      -0.444061       -12.0835
  57   2.0000      -0.434053       -11.8112
  58   2.0000      -0.430845       -11.7239
  59   2.0000      -0.423428       -11.5221
  60   2.0000      -0.419589       -11.4176
  61   2.0000      -0.413145       -11.2422
  62   2.0000      -0.410221       -11.1627
  63   2.0000      -0.340739        -9.2720
  64   2.0000      -0.331040        -9.0080
  65   2.0000      -0.327147        -8.9021
  66   2.0000      -0.295814        -8.0495
  67   0.0000       0.030505         0.8301
  68   0.0000       0.056408         1.5349
  69   0.0000       0.109926         2.9912
  70   0.0000       0.124065         3.3760
  71   0.0000       0.127445         3.4680

MULLIKEN ATOMIC CHARGES
-----------------------
   0 S :    0.110226
   1 C :   -0.135201
   2 C :   -0.100251
   3 C :    0.033475
   4 C :   -0.189661
   5 H :    0.025325
   6 C :    0.082718
   7 H :    0.004630
   8 H :    0.024175
   9 C :   -0.049022
  10 H :    0.032713
  11 H :    0.027219
  12 C :   -0.038590
  13 H :    0.020283
  14 H :    0.046244
  15 H :    0.020727
  16 S :    0.114713
  17 C :   -0.081180
  18 C :   -0.041219
  19 C :   -0.061940
  20 C :   -0.165213
  21 H :    0.038153
  22 C :    0.108111
  23 H :    0.015865
  24 H :    0.011889
  25 C :   -0.039756
  26 H :    0.024128
  27 H :    0.024016
  28 C :   -0.089231
  29 H :    0.027830
  30 H :    0.065964
  31 H :    0.031100
  32 H :    0.064381
  33 H :    0.037379
Sum of atomic charges:   -0.0000000

LOEWDIN ATOMIC CHARGES
----------------------
   0 S :    0.400904
   1 C :   -0.188356
   2 C :   -0.059716
   3 C :   -0.070740
   4 C :   -0.210646
   5 H :    0.031940
   6 C :   -0.029863
   7 H :    0.029137
   8 H :    0.025238
   9 C :   -0.038687
  10 H :    0.027488
  11 H :    0.022374
  12 C :   -0.066120
  13 H :    0.029491
  14 H :    0.028903
  15 H :    0.022163
  16 S :    0.412707
  17 C :   -0.174250
  18 C :   -0.075578
  19 C :   -0.038997
  20 C :   -0.212715
  21 H :    0.043722
  22 C :   -0.033306
  23 H :    0.024619
  24 H :    0.031139
  25 C :   -0.036933
  26 H :    0.026900
  27 H :    0.022751
  28 C :   -0.084597
  29 H :    0.030074
  30 H :    0.038533
  31 H :    0.024643
  32 H :    0.032689
  33 H :    0.015087

  Mayer bond orders larger than 0.100000
B(  0-S ,  1-C ) :   1.1564 B(  0-S ,  4-C ) :   1.1458 B(  1-C ,  2-C ) :   1.5716
B(  1-C ,  4-C ) :   0.1110 B(  1-C , 32-H ) :   0.9652 B(  2-C ,  3-C ) :   1.2560
B(  2-C ,  6-C ) :   1.0322 B(  3-C ,  4-C ) :   1.5763 B(  3-C ,  5-H ) :   0.9773
B(  4-C , 20-C ) :   1.0490 B(  6-C ,  7-H ) :   0.9329 B(  6-C ,  8-H ) :   0.9295
B(  6-C ,  9-C ) :   1.0563 B(  9-C , 10-H ) :   0.9575 B(  9-C , 11-H ) :   0.9504
B(  9-C , 12-C ) :   1.0965 B( 12-C , 13-H ) :   0.9703 B( 12-C , 14-H ) :   0.9754
B( 12-C , 15-H ) :   0.9714 B( 16-S , 17-C ) :   1.1562 B( 16-S , 20-C ) :   1.1578
B( 17-C , 18-C ) :   1.6288 B( 17-C , 33-H ) :   0.9708 B( 18-C , 19-C ) :   1.2199
B( 18-C , 21-H ) :   0.9890 B( 19-C , 20-C ) :   1.5692 B( 19-C , 22-C ) :   1.0459
B( 22-C , 23-H ) :   0.9355 B( 22-C , 24-H ) :   0.9264 B( 22-C , 25-C ) :   1.0563
B( 25-C , 26-H ) :   0.9521 B( 25-C , 27-H ) :   0.9630 B( 25-C , 28-C ) :   1.0608
B( 28-C , 29-H ) :   0.9749 B( 28-C , 30-H ) :   0.9760 B( 28-C , 31-H ) :   0.9766

Dispersion correction           -0.013850152
FINAL SINGLE POINT ENERGY     -1339.858676676118

DIPOLE MOMENT
-------------
                                X             Y             Z
Electronic contribution:     -1.42995     -24.63727       8.72465
Nuclear contribution   :      1.55141      25.09070      -9.10707
                        -----------------------------------------
Total Dipole Moment    :      0.12146       0.45343      -0.38242
                        -----------------------------------------
Magnitude (a.u.)       :      0.60547
Magnitude (Debye)      :      1.53899

Rotational constants in cm-1:     0.017642     0.007831     0.006697
Rotational constants in MHz :   528.900591   234.753628   200.766081

                             ****ORCA TERMINATED NORMALLY****
TOTAL RUN TIME: 0 days 0 hours 0 minutes 21 seconds 152 msec
