                         Program Version 4.2.1 -  RELEASE  -
|  1> ! wB97X-D3 SP def2-SVP
|  2> %pal
|  3> nprocs 24
|  4> end
|  5>
|  6> * xyz 0 1
|  7> S 	 -104.762 	 44.2203 	 -9.60272
|  8> C 	 -105.262 	 45.7443 	 -8.92842
|  9> C 	 -105.954 	 46.4261 	 -9.94664
| 10> C 	 -106.025 	 45.7841 	 -11.1961
| 11> C 	 -105.504 	 44.5365 	 -11.1295
| 12> H 	 -106.503 	 46.1316 	 -12.1139
| 13> C 	 -106.616 	 47.7587 	 -9.70123
| 14> H 	 -106.556 	 48.4409 	 -10.5898
| 15> H 	 -105.993 	 48.3114 	 -8.97208
| 16> C 	 -108.03 	 47.6764 	 -9.14768
| 17> H 	 -108.562 	 48.673 	 -9.07129
| 18> H 	 -108.606 	 47.175 	 -9.8953
| 19> C 	 -108.153 	 46.9612 	 -7.82646
| 20> H 	 -107.887 	 46.0005 	 -8.10301
| 21> H 	 -107.593 	 47.2731 	 -7.02789
| 22> H 	 -109.205 	 47.0716 	 -7.5762
| 23> S 	 -104.257 	 43.1011 	 -13.128
| 24> C 	 -105.134 	 41.8299 	 -13.9526
| 25> C 	 -106.5 	 42.0144 	 -13.7425
| 26> C 	 -106.833 	 42.9588 	 -12.7196
| 27> C 	 -105.69 	 43.5754 	 -12.2112
| 28> H 	 -107.234 	 41.4896 	 -14.2206
| 29> C 	 -108.227 	 42.996 	 -12.1254
| 30> H 	 -108.198 	 43.6115 	 -11.2744
| 31> H 	 -108.358 	 41.9824 	 -11.8159
| 32> C 	 -109.259 	 43.6359 	 -13.0463
| 33> H 	 -109.358 	 43.0289 	 -13.9903
| 34> H 	 -108.887 	 44.676 	 -13.2517
| 35> C 	 -110.648 	 43.8569 	 -12.5093
| 36> H 	 -111.333 	 44.376 	 -13.1669
| 37> H 	 -110.573 	 44.4628 	 -11.6464
| 38> H 	 -110.987 	 42.9806 	 -12.1453
| 39> H 	 -105.122 	 46.1174 	 -7.89387
| 40> H 	 -104.753 	 41.1605 	 -14.7533
| 41> *
| 42>
| 43>                          ****END OF INPUT****

CARTESIAN COORDINATES (ANGSTROEM)
---------------------------------
  S    -104.762000   44.220300   -9.602720
  C    -105.262000   45.744300   -8.928420
  C    -105.954000   46.426100   -9.946640
  C    -106.025000   45.784100  -11.196100
  C    -105.504000   44.536500  -11.129500
  H    -106.503000   46.131600  -12.113900
  C    -106.616000   47.758700   -9.701230
  H    -106.556000   48.440900  -10.589800
  H    -105.993000   48.311400   -8.972080
  C    -108.030000   47.676400   -9.147680
  H    -108.562000   48.673000   -9.071290
  H    -108.606000   47.175000   -9.895300
  C    -108.153000   46.961200   -7.826460
  H    -107.887000   46.000500   -8.103010
  H    -107.593000   47.273100   -7.027890
  H    -109.205000   47.071600   -7.576200
  S    -104.257000   43.101100  -13.128000
  C    -105.134000   41.829900  -13.952600
  C    -106.500000   42.014400  -13.742500
  C    -106.833000   42.958800  -12.719600
  C    -105.690000   43.575400  -12.211200
  H    -107.234000   41.489600  -14.220600
  C    -108.227000   42.996000  -12.125400
  H    -108.198000   43.611500  -11.274400
  H    -108.358000   41.982400  -11.815900
  C    -109.259000   43.635900  -13.046300
  H    -109.358000   43.028900  -13.990300
  H    -108.887000   44.676000  -13.251700
  C    -110.648000   43.856900  -12.509300
  H    -111.333000   44.376000  -13.166900
  H    -110.573000   44.462800  -11.646400
  H    -110.987000   42.980600  -12.145300
  H    -105.122000   46.117400   -7.893870
  H    -104.753000   41.160500  -14.753300

 Total Charge           Charge          ....    0
 Multiplicity           Mult            ....    1
 Number of Electrons    NEL             ....  134
 Basis Dimension        Dim             ....  322

ORBITAL ENERGIES
----------------

  NO   OCC          E(Eh)            E(eV)
   0   2.0000     -88.969533     -2420.9841
   1   2.0000     -88.963621     -2420.8232
   2   2.0000     -10.326238      -280.9912
   3   2.0000     -10.324241      -280.9369
   4   2.0000     -10.321439      -280.8606
   5   2.0000     -10.320741      -280.8416
   6   2.0000     -10.302908      -280.3564
   7   2.0000     -10.301009      -280.3047
   8   2.0000     -10.291682      -280.0509
   9   2.0000     -10.291045      -280.0336
  10   2.0000     -10.289884      -280.0020
  11   2.0000     -10.287470      -279.9363
  12   2.0000     -10.286176      -279.9011
  13   2.0000     -10.283130      -279.8182
  14   2.0000     -10.264291      -279.3056
  15   2.0000     -10.260627      -279.2059
  16   2.0000      -8.084470      -219.9896
  17   2.0000      -8.078125      -219.8170
  18   2.0000      -6.042961      -164.4373
  19   2.0000      -6.038730      -164.3222
  20   2.0000      -6.036670      -164.2661
  21   2.0000      -6.035439      -164.2326
  22   2.0000      -6.032641      -164.1565
  23   2.0000      -6.028888      -164.0544
  24   2.0000      -1.011406       -27.5218
  25   2.0000      -0.985677       -26.8216
  26   2.0000      -0.916591       -24.9417
  27   2.0000      -0.915161       -24.9028
  28   2.0000      -0.870272       -23.6813
  29   2.0000      -0.857298       -23.3283
  30   2.0000      -0.853340       -23.2206
  31   2.0000      -0.815652       -22.1950
  32   2.0000      -0.787525       -21.4297
  33   2.0000      -0.775182       -21.0938
  34   2.0000      -0.705798       -19.2057
  35   2.0000      -0.696672       -18.9574
  36   2.0000      -0.692991       -18.8572
  37   2.0000      -0.664105       -18.0712
  38   2.0000      -0.644380       -17.5345
  39   2.0000      -0.619055       -16.8453
  40   2.0000      -0.594840       -16.1864
  41   2.0000      -0.576739       -15.6939
  42   2.0000      -0.573726       -15.6119
  43   2.0000      -0.553674       -15.0662
  44   2.0000      -0.538390       -14.6503
  45   2.0000      -0.538203       -14.6452
  46   2.0000      -0.525129       -14.2895
  47   2.0000      -0.518818       -14.1177
  48   2.0000      -0.509811       -13.8727
  49   2.0000      -0.505089       -13.7442
  50   2.0000      -0.488770       -13.3001
  51   2.0000      -0.487870       -13.2756
  52   2.0000      -0.474435       -12.9100
  53   2.0000      -0.465439       -12.6653
  54   2.0000      -0.464796       -12.6478
  55   2.0000      -0.454998       -12.3811
  56   2.0000      -0.444711       -12.1012
  57   2.0000      -0.431489       -11.7414
  58   2.0000      -0.429081       -11.6759
  59   2.0000      -0.420461       -11.4413
  60   2.0000      -0.419065       -11.4033
  61   2.0000      -0.415945       -11.3184
  62   2.0000      -0.406182       -11.0528
  63   2.0000      -0.340340        -9.2611
  64   2.0000      -0.329144        -8.9565
  65   2.0000      -0.326425        -8.8825
  66   2.0000      -0.304188        -8.2774
  67   0.0000       0.035087         0.9548
  68   0.0000       0.060132         1.6363
  69   0.0000       0.114223         3.1082
  70   0.0000       0.118538         3.2256
  71   0.0000       0.121824         3.3150

MULLIKEN ATOMIC CHARGES
-----------------------
   0 S :    0.132065
   1 C :   -0.128677
   2 C :   -0.111908
   3 C :    0.042132
   4 C :   -0.153700
   5 H :    0.024154
   6 C :    0.043680
   7 H :    0.030625
   8 H :    0.017793
   9 C :   -0.075231
  10 H :    0.029179
  11 H :    0.009778
  12 C :    0.006479
  13 H :    0.028022
  14 H :    0.009881
  15 H :    0.029961
  16 S :    0.104769
  17 C :   -0.091749
  18 C :   -0.007054
  19 C :   -0.030603
  20 C :   -0.204750
  21 H :   -0.019848
  22 C :    0.124775
  23 H :    0.001886
  24 H :    0.033499
  25 C :   -0.142379
  26 H :    0.036074
  27 H :    0.031401
  28 C :    0.052508
  29 H :    0.039325
  30 H :    0.000707
  31 H :   -0.004918
  32 H :    0.068132
  33 H :    0.073994
Sum of atomic charges:   -0.0000000

LOEWDIN ATOMIC CHARGES
----------------------
   0 S :    0.430737
   1 C :   -0.210421
   2 C :   -0.066739
   3 C :   -0.061202
   4 C :   -0.209896
   5 H :    0.039300
   6 C :   -0.042444
   7 H :    0.033896
   8 H :    0.027113
   9 C :   -0.040401
  10 H :    0.025448
  11 H :    0.017156
  12 C :   -0.051479
  13 H :    0.018562
  14 H :    0.010590
  15 H :    0.032047
  16 S :    0.398027
  17 C :   -0.189679
  18 C :   -0.060885
  19 C :   -0.047173
  20 C :   -0.195911
  21 H :    0.011996
  22 C :   -0.023809
  23 H :    0.023464
  24 H :    0.031780
  25 C :   -0.040975
  26 H :    0.024251
  27 H :    0.029495
  28 C :   -0.054274
  29 H :    0.030951
  30 H :    0.020201
  31 H :    0.009193
  32 H :    0.041333
  33 H :    0.039748

  Mayer bond orders larger than 0.100000
B(  0-S ,  1-C ) :   1.1423 B(  0-S ,  4-C ) :   1.1721 B(  1-C ,  2-C ) :   1.5735
B(  1-C , 32-H ) :   0.9681 B(  2-C ,  3-C ) :   1.2549 B(  2-C ,  6-C ) :   1.0251
B(  3-C ,  4-C ) :   1.5501 B(  3-C ,  5-H ) :   1.0014 B(  4-C , 20-C ) :   1.0099
B(  6-C ,  7-H ) :   0.9443 B(  6-C ,  8-H ) :   0.9428 B(  6-C ,  9-C ) :   1.0684
B(  9-C , 10-H ) :   0.9566 B(  9-C , 11-H ) :   0.9535 B(  9-C , 12-C ) :   1.0754
B( 12-C , 13-H ) :   0.9721 B( 12-C , 14-H ) :   0.9770 B( 12-C , 15-H ) :   0.9694
B( 16-S , 17-C ) :   1.1490 B( 16-S , 20-C ) :   1.1503 B( 17-C , 18-C ) :   1.5992
B( 17-C , 33-H ) :   0.9633 B( 18-C , 19-C ) :   1.2462 B( 18-C , 21-H ) :   0.9953
B( 19-C , 20-C ) :   1.5954 B( 19-C , 22-C ) :   1.0394 B( 22-C , 23-H ) :   0.9229
B( 22-C , 24-H ) :   0.9358 B( 22-C , 25-C ) :   1.0601 B( 25-C , 26-H ) :   0.9580
B( 25-C , 27-H ) :   0.9543 B( 25-C , 28-C ) :   1.0950 B( 28-C , 29-H ) :   0.9720
B( 28-C , 30-H ) :   0.9639 B( 28-C , 31-H ) :   0.9641

Dispersion correction           -0.014971402
FINAL SINGLE POINT ENERGY     -1339.859031660795

DIPOLE MOMENT
-------------
                                X             Y             Z
Electronic contribution:     27.46449     -11.67278      -5.39276
Nuclear contribution   :    -28.16388      11.85460       5.40013
                        -----------------------------------------
Total Dipole Moment    :     -0.69939       0.18183       0.00737
                        -----------------------------------------
Magnitude (a.u.)       :      0.72267
Magnitude (Debye)      :      1.83689

Rotational constants in cm-1:     0.017657     0.009928     0.007047
Rotational constants in MHz :   529.345519   297.645306   211.249363

                             ****ORCA TERMINATED NORMALLY****
TOTAL RUN TIME: 0 days 0 hours 0 minutes 21 seconds 78 msec
