                         Program Version 4.2.1 -  RELEASE  -
|  1> ! wB97X-D3 SP def2-SVP
|  2> %pal
|  3> nprocs 24
|  4> end
|  5>
|  6> * xyz 0 1
|  7> S 	 -135.512 	 11.1141 	 -14.5974
|  8> C 	 -135.066 	 9.61027 	 -13.6381
|  9> C 	 -133.738 	 9.31497 	 -13.7954
| 10> C 	 -133.144 	 10.176 	 -14.7491
| 11> C 	 -133.879 	 11.2594 	 -15.1749
| 12> H 	 -132.128 	 10.0947 	 -15.1593
| 13> C 	 -133.095 	 8.00258 	 -13.2078
| 14> H 	 -133.96 	 7.36376 	 -12.9934
| 15> H 	 -132.717 	 8.14938 	 -12.2215
| 16> C 	 -132.038 	 7.27644 	 -14.0947
| 17> H 	 -132.549 	 7.01482 	 -15.0996
| 18> H 	 -131.176 	 7.87675 	 -14.3952
| 19> C 	 -131.616 	 6.00287 	 -13.3507
| 20> H 	 -131.443 	 6.17607 	 -12.2974
| 21> H 	 -132.408 	 5.2836 	 -13.5589
| 22> H 	 -130.759 	 5.5209 	 -13.8564
| 23> S 	 -133.521 	 13.987 	 -15.5038
| 24> C 	 -133.093 	 14.584 	 -17.1059
| 25> C 	 -132.833 	 13.5367 	 -17.9746
| 26> C 	 -133.026 	 12.2659 	 -17.3553
| 27> C 	 -133.438 	 12.3243 	 -16.0284
| 28> H 	 -132.616 	 13.7002 	 -18.9705
| 29> C 	 -133.097 	 11.0379 	 -18.2246
| 30> H 	 -133.442 	 11.4235 	 -19.1692
| 31> H 	 -133.972 	 10.4539 	 -17.9743
| 32> C 	 -131.784 	 10.1188 	 -18.4304
| 33> H 	 -131.377 	 9.68884 	 -17.4728
| 34> H 	 -131.075 	 10.8796 	 -18.6992
| 35> C 	 -132.022 	 9.00506 	 -19.4282
| 36> H 	 -131.287 	 8.87008 	 -20.1969
| 37> H 	 -132.893 	 9.08654 	 -19.9734
| 38> H 	 -132.113 	 8.15352 	 -18.802
| 39> H 	 -135.815 	 8.96546 	 -13.1201
| 40> H 	 -133.09 	 15.6407 	 -17.3314
| 41> *
| 42>
| 43>                          ****END OF INPUT****

CARTESIAN COORDINATES (ANGSTROEM)
---------------------------------
  S    -135.512000   11.114100  -14.597400
  C    -135.066000    9.610270  -13.638100
  C    -133.738000    9.314970  -13.795400
  C    -133.144000   10.176000  -14.749100
  C    -133.879000   11.259400  -15.174900
  H    -132.128000   10.094700  -15.159300
  C    -133.095000    8.002580  -13.207800
  H    -133.960000    7.363760  -12.993400
  H    -132.717000    8.149380  -12.221500
  C    -132.038000    7.276440  -14.094700
  H    -132.549000    7.014820  -15.099600
  H    -131.176000    7.876750  -14.395200
  C    -131.616000    6.002870  -13.350700
  H    -131.443000    6.176070  -12.297400
  H    -132.408000    5.283600  -13.558900
  H    -130.759000    5.520900  -13.856400
  S    -133.521000   13.987000  -15.503800
  C    -133.093000   14.584000  -17.105900
  C    -132.833000   13.536700  -17.974600
  C    -133.026000   12.265900  -17.355300
  C    -133.438000   12.324300  -16.028400
  H    -132.616000   13.700200  -18.970500
  C    -133.097000   11.037900  -18.224600
  H    -133.442000   11.423500  -19.169200
  H    -133.972000   10.453900  -17.974300
  C    -131.784000   10.118800  -18.430400
  H    -131.377000    9.688840  -17.472800
  H    -131.075000   10.879600  -18.699200
  C    -132.022000    9.005060  -19.428200
  H    -131.287000    8.870080  -20.196900
  H    -132.893000    9.086540  -19.973400
  H    -132.113000    8.153520  -18.802000
  H    -135.815000    8.965460  -13.120100
  H    -133.090000   15.640700  -17.331400

 Total Charge           Charge          ....    0
 Multiplicity           Mult            ....    1
 Number of Electrons    NEL             ....  134
 Basis Dimension        Dim             ....  322

ORBITAL ENERGIES
----------------

  NO   OCC          E(Eh)            E(eV)
   0   2.0000     -88.964652     -2420.8513
   1   2.0000     -88.964510     -2420.8474
   2   2.0000     -10.324992      -280.9573
   3   2.0000     -10.323008      -280.9033
   4   2.0000     -10.322248      -280.8827
   5   2.0000     -10.319452      -280.8066
   6   2.0000     -10.305068      -280.4152
   7   2.0000     -10.299888      -280.2742
   8   2.0000     -10.299848      -280.2731
   9   2.0000     -10.299147      -280.2540
  10   2.0000     -10.292042      -280.0607
  11   2.0000     -10.291227      -280.0385
  12   2.0000     -10.290209      -280.0108
  13   2.0000     -10.287757      -279.9441
  14   2.0000     -10.282518      -279.8015
  15   2.0000     -10.266191      -279.3573
  16   2.0000      -8.079341      -219.8501
  17   2.0000      -8.078201      -219.8190
  18   2.0000      -6.037848      -164.2982
  19   2.0000      -6.036761      -164.2686
  20   2.0000      -6.033746      -164.1866
  21   2.0000      -6.032924      -164.1642
  22   2.0000      -6.030219      -164.0906
  23   2.0000      -6.028880      -164.0542
  24   2.0000      -1.004744       -27.3405
  25   2.0000      -0.979945       -26.6657
  26   2.0000      -0.908678       -24.7264
  27   2.0000      -0.901378       -24.5277
  28   2.0000      -0.872744       -23.7486
  29   2.0000      -0.855432       -23.2775
  30   2.0000      -0.840515       -22.8716
  31   2.0000      -0.813650       -22.1406
  32   2.0000      -0.782439       -21.2912
  33   2.0000      -0.769925       -20.9507
  34   2.0000      -0.712428       -19.3861
  35   2.0000      -0.703605       -19.1461
  36   2.0000      -0.690475       -18.7888
  37   2.0000      -0.666807       -18.1448
  38   2.0000      -0.641631       -17.4597
  39   2.0000      -0.613281       -16.6882
  40   2.0000      -0.594921       -16.1886
  41   2.0000      -0.572343       -15.5743
  42   2.0000      -0.564392       -15.3579
  43   2.0000      -0.559781       -15.2324
  44   2.0000      -0.531664       -14.4673
  45   2.0000      -0.522197       -14.2097
  46   2.0000      -0.517354       -14.0779
  47   2.0000      -0.511891       -13.9293
  48   2.0000      -0.501176       -13.6377
  49   2.0000      -0.497522       -13.5383
  50   2.0000      -0.493260       -13.4223
  51   2.0000      -0.478484       -13.0202
  52   2.0000      -0.468884       -12.7590
  53   2.0000      -0.463253       -12.6058
  54   2.0000      -0.459724       -12.5097
  55   2.0000      -0.453789       -12.3482
  56   2.0000      -0.448295       -12.1987
  57   2.0000      -0.438253       -11.9255
  58   2.0000      -0.431088       -11.7305
  59   2.0000      -0.422993       -11.5102
  60   2.0000      -0.419806       -11.4235
  61   2.0000      -0.414958       -11.2916
  62   2.0000      -0.408793       -11.1238
  63   2.0000      -0.339728        -9.2445
  64   2.0000      -0.335462        -9.1284
  65   2.0000      -0.326626        -8.8880
  66   2.0000      -0.295434        -8.0392
  67   0.0000       0.032355         0.8804
  68   0.0000       0.064387         1.7520
  69   0.0000       0.110949         3.0191
  70   0.0000       0.119115         3.2413
  71   0.0000       0.128321         3.4918

MULLIKEN ATOMIC CHARGES
-----------------------
   0 S :    0.100517
   1 C :   -0.161688
   2 C :   -0.032347
   3 C :    0.016544
   4 C :   -0.154919
   5 H :    0.009397
   6 C :    0.065537
   7 H :    0.016975
   8 H :    0.028681
   9 C :   -0.122924
  10 H :    0.044274
  11 H :    0.044160
  12 C :   -0.039787
  13 H :    0.043183
  14 H :    0.033024
  15 H :    0.034029
  16 S :    0.109889
  17 C :   -0.100654
  18 C :    0.003157
  19 C :   -0.016414
  20 C :   -0.170382
  21 H :   -0.005107
  22 C :    0.032958
  23 H :    0.007381
  24 H :    0.025196
  25 C :   -0.077265
  26 H :    0.034776
  27 H :    0.021188
  28 C :    0.020328
  29 H :    0.028678
  30 H :    0.007176
  31 H :    0.026427
  32 H :    0.066826
  33 H :    0.061184
Sum of atomic charges:    0.0000000

LOEWDIN ATOMIC CHARGES
----------------------
   0 S :    0.375144
   1 C :   -0.175405
   2 C :   -0.063168
   3 C :   -0.064245
   4 C :   -0.198749
   5 H :    0.030713
   6 C :   -0.026164
   7 H :    0.032101
   8 H :    0.026282
   9 C :   -0.046927
  10 H :    0.033525
  11 H :    0.020876
  12 C :   -0.065792
  13 H :    0.025217
  14 H :    0.029296
  15 H :    0.029910
  16 S :    0.406240
  17 C :   -0.174533
  18 C :   -0.061117
  19 C :   -0.057225
  20 C :   -0.205593
  21 H :    0.020472
  22 C :   -0.033281
  23 H :    0.027235
  24 H :    0.027533
  25 C :   -0.034986
  26 H :    0.025585
  27 H :    0.018246
  28 C :   -0.058669
  29 H :    0.027559
  30 H :    0.016275
  31 H :    0.029065
  32 H :    0.036361
  33 H :    0.028217

  Mayer bond orders larger than 0.100000
B(  0-S ,  1-C ) :   1.1213 B(  0-S ,  4-C ) :   1.1382 B(  1-C ,  2-C ) :   1.6303
B(  1-C ,  4-C ) :   0.1018 B(  1-C , 32-H ) :   0.9620 B(  2-C ,  3-C ) :   1.2362
B(  2-C ,  6-C ) :   0.9905 B(  3-C ,  4-C ) :   1.5951 B(  3-C ,  5-H ) :   0.9888
B(  4-C , 20-C ) :   1.0521 B(  6-C ,  7-H ) :   0.9490 B(  6-C ,  8-H ) :   0.9367
B(  6-C ,  9-C ) :   1.0587 B(  9-C , 10-H ) :   0.9594 B(  9-C , 11-H ) :   0.9550
B(  9-C , 12-C ) :   1.0736 B( 12-C , 13-H ) :   0.9761 B( 12-C , 14-H ) :   0.9764
B( 12-C , 15-H ) :   0.9723 B( 16-S , 17-C ) :   1.1619 B( 16-S , 20-C ) :   1.1417
B( 17-C , 18-C ) :   1.5844 B( 17-C , 33-H ) :   0.9707 B( 18-C , 19-C ) :   1.2551
B( 18-C , 21-H ) :   1.0031 B( 19-C , 20-C ) :   1.5793 B( 19-C , 22-C ) :   1.0388
B( 22-C , 23-H ) :   0.9410 B( 22-C , 24-H ) :   0.9333 B( 22-C , 25-C ) :   1.0380
B( 25-C , 26-H ) :   0.9660 B( 25-C , 27-H ) :   0.9603 B( 25-C , 28-C ) :   1.0596
B( 28-C , 29-H ) :   0.9735 B( 28-C , 30-H ) :   0.9746 B( 28-C , 31-H ) :   0.9778

Dispersion correction           -0.014142621
FINAL SINGLE POINT ENERGY     -1339.863671393286

DIPOLE MOMENT
-------------
                                X             Y             Z
Electronic contribution:    -14.24714      27.80152       7.81429
Nuclear contribution   :     14.50750     -28.41204      -8.17502
                        -----------------------------------------
Total Dipole Moment    :      0.26035      -0.61052      -0.36073
                        -----------------------------------------
Magnitude (a.u.)       :      0.75541
Magnitude (Debye)      :      1.92011

Rotational constants in cm-1:     0.017117     0.008990     0.006664
Rotational constants in MHz :   513.167161   269.498643   199.774410

                             ****ORCA TERMINATED NORMALLY****
TOTAL RUN TIME: 0 days 0 hours 0 minutes 21 seconds 385 msec
