                         Program Version 4.2.1 -  RELEASE  -
|  1> ! wB97X-D3 SP def2-SVP
|  2> %pal
|  3> nprocs 24
|  4> end
|  5>
|  6> * xyz 0 1
|  7> S 	 -132.673 	 65.0845 	 -61.5408
|  8> C 	 -133.868 	 66.1829 	 -60.8889
|  9> C 	 -134.684 	 65.5079 	 -60.0031
| 10> C 	 -134.381 	 64.1157 	 -59.9168
| 11> C 	 -133.312 	 63.7165 	 -60.6398
| 12> H 	 -134.927 	 63.2577 	 -59.4654
| 13> C 	 -135.713 	 66.1431 	 -59.1986
| 14> H 	 -135.544 	 67.2013 	 -59.1693
| 15> H 	 -135.713 	 65.7431 	 -58.1945
| 16> C 	 -137.176 	 65.7329 	 -59.7214
| 17> H 	 -137.277 	 64.7093 	 -59.7695
| 18> H 	 -137.806 	 65.9989 	 -58.9182
| 19> C 	 -137.526 	 66.3266 	 -61.0936
| 20> H 	 -138.511 	 66.0587 	 -61.223
| 21> H 	 -137.402 	 67.4379 	 -61.0868
| 22> H 	 -136.947 	 65.8408 	 -61.9245
| 23> S 	 -132.94 	 61.6253 	 -62.409
| 24> C 	 -132.362 	 60.0817 	 -61.8103
| 25> C 	 -132.286 	 60.1301 	 -60.4547
| 26> C 	 -132.587 	 61.4062 	 -59.8642
| 27> C 	 -132.848 	 62.3726 	 -60.8253
| 28> H 	 -132.103 	 59.181 	 -59.9684
| 29> C 	 -132.657 	 61.6893 	 -58.3807
| 30> H 	 -133.068 	 62.6889 	 -58.191
| 31> H 	 -131.659 	 61.742 	 -57.9894
| 32> C 	 -133.291 	 60.6669 	 -57.5199
| 33> H 	 -132.679 	 59.7499 	 -57.4822
| 34> H 	 -134.223 	 60.2139 	 -57.9687
| 35> C 	 -133.386 	 61.1148 	 -55.9977
| 36> H 	 -134.103 	 60.4734 	 -55.5352
| 37> H 	 -133.84 	 62.125 	 -55.8547
| 38> H 	 -132.334 	 61.045 	 -55.4875
| 39> H 	 -133.909 	 67.2883 	 -61.1483
| 40> H 	 -132.304 	 59.1205 	 -62.3994
| 41> *
| 42>
| 43>                          ****END OF INPUT****

CARTESIAN COORDINATES (ANGSTROEM)
---------------------------------
  S    -132.673000   65.084500  -61.540800
  C    -133.868000   66.182900  -60.888900
  C    -134.684000   65.507900  -60.003100
  C    -134.381000   64.115700  -59.916800
  C    -133.312000   63.716500  -60.639800
  H    -134.927000   63.257700  -59.465400
  C    -135.713000   66.143100  -59.198600
  H    -135.544000   67.201300  -59.169300
  H    -135.713000   65.743100  -58.194500
  C    -137.176000   65.732900  -59.721400
  H    -137.277000   64.709300  -59.769500
  H    -137.806000   65.998900  -58.918200
  C    -137.526000   66.326600  -61.093600
  H    -138.511000   66.058700  -61.223000
  H    -137.402000   67.437900  -61.086800
  H    -136.947000   65.840800  -61.924500
  S    -132.940000   61.625300  -62.409000
  C    -132.362000   60.081700  -61.810300
  C    -132.286000   60.130100  -60.454700
  C    -132.587000   61.406200  -59.864200
  C    -132.848000   62.372600  -60.825300
  H    -132.103000   59.181000  -59.968400
  C    -132.657000   61.689300  -58.380700
  H    -133.068000   62.688900  -58.191000
  H    -131.659000   61.742000  -57.989400
  C    -133.291000   60.666900  -57.519900
  H    -132.679000   59.749900  -57.482200
  H    -134.223000   60.213900  -57.968700
  C    -133.386000   61.114800  -55.997700
  H    -134.103000   60.473400  -55.535200
  H    -133.840000   62.125000  -55.854700
  H    -132.334000   61.045000  -55.487500
  H    -133.909000   67.288300  -61.148300
  H    -132.304000   59.120500  -62.399400

 Total Charge           Charge          ....    0
 Multiplicity           Mult            ....    1
 Number of Electrons    NEL             ....  134
 Basis Dimension        Dim             ....  322

ORBITAL ENERGIES
----------------

  NO   OCC          E(Eh)            E(eV)
   0   2.0000     -88.963023     -2420.8069
   1   2.0000     -88.960608     -2420.7412
   2   2.0000     -10.324103      -280.9331
   3   2.0000     -10.323150      -280.9072
   4   2.0000     -10.320203      -280.8270
   5   2.0000     -10.317548      -280.7548
   6   2.0000     -10.305159      -280.4176
   7   2.0000     -10.297187      -280.2007
   8   2.0000     -10.292988      -280.0865
   9   2.0000     -10.292791      -280.0811
  10   2.0000     -10.292116      -280.0627
  11   2.0000     -10.291671      -280.0506
  12   2.0000     -10.285271      -279.8765
  13   2.0000     -10.284188      -279.8470
  14   2.0000     -10.279258      -279.7128
  15   2.0000     -10.275385      -279.6075
  16   2.0000      -8.077783      -219.8077
  17   2.0000      -8.075473      -219.7448
  18   2.0000      -6.036377      -164.2582
  19   2.0000      -6.034035      -164.1944
  20   2.0000      -6.032299      -164.1472
  21   2.0000      -6.029903      -164.0820
  22   2.0000      -6.028414      -164.0415
  23   2.0000      -6.026223      -163.9819
  24   2.0000      -1.009997       -27.4834
  25   2.0000      -0.986386       -26.8409
  26   2.0000      -0.912788       -24.8382
  27   2.0000      -0.911988       -24.8165
  28   2.0000      -0.873985       -23.7823
  29   2.0000      -0.848260       -23.0823
  30   2.0000      -0.841547       -22.8997
  31   2.0000      -0.818938       -22.2844
  32   2.0000      -0.782107       -21.2822
  33   2.0000      -0.771413       -20.9912
  34   2.0000      -0.712893       -19.3988
  35   2.0000      -0.698921       -19.0186
  36   2.0000      -0.694790       -18.9062
  37   2.0000      -0.651808       -17.7366
  38   2.0000      -0.641582       -17.4583
  39   2.0000      -0.619184       -16.8489
  40   2.0000      -0.599795       -16.3213
  41   2.0000      -0.570509       -15.5243
  42   2.0000      -0.563238       -15.3265
  43   2.0000      -0.547977       -14.9112
  44   2.0000      -0.534313       -14.5394
  45   2.0000      -0.528318       -14.3763
  46   2.0000      -0.523789       -14.2530
  47   2.0000      -0.511830       -13.9276
  48   2.0000      -0.505958       -13.7678
  49   2.0000      -0.494311       -13.4509
  50   2.0000      -0.485450       -13.2098
  51   2.0000      -0.482455       -13.1283
  52   2.0000      -0.471495       -12.8300
  53   2.0000      -0.469400       -12.7730
  54   2.0000      -0.460069       -12.5191
  55   2.0000      -0.445405       -12.1201
  56   2.0000      -0.444396       -12.0926
  57   2.0000      -0.440362       -11.9829
  58   2.0000      -0.438420       -11.9300
  59   2.0000      -0.423779       -11.5316
  60   2.0000      -0.418423       -11.3859
  61   2.0000      -0.411192       -11.1891
  62   2.0000      -0.409993       -11.1565
  63   2.0000      -0.349349        -9.5063
  64   2.0000      -0.327902        -8.9227
  65   2.0000      -0.321314        -8.7434
  66   2.0000      -0.296505        -8.0683
  67   0.0000       0.033686         0.9166
  68   0.0000       0.071416         1.9433
  69   0.0000       0.116199         3.1619
  70   0.0000       0.118109         3.2139
  71   0.0000       0.131974         3.5912

MULLIKEN ATOMIC CHARGES
-----------------------
   0 S :    0.100589
   1 C :   -0.151735
   2 C :   -0.072692
   3 C :    0.021885
   4 C :   -0.190077
   5 H :    0.035473
   6 C :    0.074809
   7 H :    0.017010
   8 H :    0.021224
   9 C :   -0.060618
  10 H :    0.008411
  11 H :    0.015259
  12 C :   -0.033669
  13 H :    0.017878
  14 H :    0.036845
  15 H :    0.053525
  16 S :    0.102968
  17 C :   -0.112620
  18 C :   -0.042747
  19 C :   -0.017851
  20 C :   -0.138999
  21 H :    0.017055
  22 C :    0.114384
  23 H :    0.020063
  24 H :    0.021503
  25 C :   -0.134658
  26 H :    0.028365
  27 H :    0.031883
  28 C :   -0.071247
  29 H :    0.032727
  30 H :    0.038326
  31 H :    0.059388
  32 H :    0.076357
  33 H :    0.080984
Sum of atomic charges:   -0.0000000

LOEWDIN ATOMIC CHARGES
----------------------
   0 S :    0.394960
   1 C :   -0.207674
   2 C :   -0.069488
   3 C :   -0.066689
   4 C :   -0.193192
   5 H :    0.041917
   6 C :   -0.027197
   7 H :    0.025717
   8 H :    0.031342
   9 C :   -0.024651
  10 H :    0.012848
  11 H :    0.016760
  12 C :   -0.061165
  13 H :    0.015640
  14 H :    0.028399
  15 H :    0.036418
  16 S :    0.400968
  17 C :   -0.191887
  18 C :   -0.077918
  19 C :   -0.049318
  20 C :   -0.200614
  21 H :    0.031370
  22 C :   -0.040592
  23 H :    0.030220
  24 H :    0.034830
  25 C :   -0.051867
  26 H :    0.023788
  27 H :    0.023985
  28 C :   -0.070246
  29 H :    0.022998
  30 H :    0.026785
  31 H :    0.040984
  32 H :    0.045406
  33 H :    0.047165

  Mayer bond orders larger than 0.100000
B(  0-S ,  1-C ) :   1.1298 B(  0-S ,  4-C ) :   1.1402 B(  1-C ,  2-C ) :   1.6036
B(  1-C , 32-H ) :   0.9626 B(  2-C ,  3-C ) :   1.2072 B(  2-C ,  6-C ) :   1.0557
B(  3-C ,  4-C ) :   1.6140 B(  3-C ,  5-H ) :   0.9805 B(  4-C , 20-C ) :   1.0379
B(  6-C ,  7-H ) :   0.9442 B(  6-C ,  8-H ) :   0.9327 B(  6-C ,  9-C ) :   1.0630
B(  9-C , 10-H ) :   0.9566 B(  9-C , 11-H ) :   0.9584 B(  9-C , 12-C ) :   1.0707
B( 12-C , 13-H ) :   0.9715 B( 12-C , 14-H ) :   0.9785 B( 12-C , 15-H ) :   0.9724
B( 16-S , 17-C ) :   1.1465 B( 16-S , 20-C ) :   1.1439 B( 17-C , 18-C ) :   1.6293
B( 17-C , 33-H ) :   0.9577 B( 18-C , 19-C ) :   1.2224 B( 18-C , 21-H ) :   0.9911
B( 19-C , 20-C ) :   1.5913 B( 19-C , 22-C ) :   1.0498 B( 22-C , 23-H ) :   0.9353
B( 22-C , 24-H ) :   0.9147 B( 22-C , 25-C ) :   1.0581 B( 25-C , 26-H ) :   0.9440
B( 25-C , 27-H ) :   0.9632 B( 25-C , 28-C ) :   1.0719 B( 28-C , 29-H ) :   0.9750
B( 28-C , 30-H ) :   0.9774 B( 28-C , 31-H ) :   0.9733

Dispersion correction           -0.014354809
FINAL SINGLE POINT ENERGY     -1339.868657066169

DIPOLE MOMENT
-------------
                                X             Y             Z
Electronic contribution:     15.38603      -1.23614     -20.88949
Nuclear contribution   :    -15.89893       0.99175      21.51279
                        -----------------------------------------
Total Dipole Moment    :     -0.51290      -0.24438       0.62331
                        -----------------------------------------
Magnitude (a.u.)       :      0.84339
Magnitude (Debye)      :      2.14372

Rotational constants in cm-1:     0.017161     0.009103     0.007049
Rotational constants in MHz :   514.480190   272.902701   211.313240

                             ****ORCA TERMINATED NORMALLY****
TOTAL RUN TIME: 0 days 0 hours 0 minutes 20 seconds 753 msec
