                         Program Version 4.2.1 -  RELEASE  -
|  1> ! wB97X-D3 SP def2-SVP
|  2> %pal
|  3> nprocs 24
|  4> end
|  5>
|  6> * xyz 0 1
|  7> S 	 -100.729 	 16.932 	 -124.106
|  8> C 	 -99.0299 	 17.2823 	 -123.907
|  9> C 	 -98.6506 	 17.139 	 -122.597
| 10> C 	 -99.7616 	 16.6654 	 -121.782
| 11> C 	 -100.912 	 16.4277 	 -122.447
| 12> H 	 -99.6699 	 16.4165 	 -120.696
| 13> C 	 -97.2335 	 17.2876 	 -122.06
| 14> H 	 -96.5298 	 17.4636 	 -122.902
| 15> H 	 -97.0712 	 16.3085 	 -121.515
| 16> C 	 -97.1078 	 18.5204 	 -121.121
| 17> H 	 -97.7885 	 19.2964 	 -121.532
| 18> H 	 -97.5096 	 18.189 	 -120.096
| 19> C 	 -95.6846 	 19.0881 	 -120.936
| 20> H 	 -95.2923 	 19.3636 	 -121.967
| 21> H 	 -95.8265 	 20.0679 	 -120.382
| 22> H 	 -94.9442 	 18.4577 	 -120.45
| 23> S 	 -103.643 	 16.6954 	 -122.411
| 24> C 	 -104.554 	 15.6734 	 -121.303
| 25> C 	 -103.814 	 14.7005 	 -120.723
| 26> C 	 -102.396 	 14.9536 	 -120.925
| 27> C 	 -102.159 	 15.9685 	 -121.858
| 28> H 	 -104.355 	 13.9332 	 -120.182
| 29> C 	 -101.326 	 13.9644 	 -120.349
| 30> H 	 -101.796 	 13.1947 	 -119.695
| 31> H 	 -100.76 	 14.6532 	 -119.705
| 32> C 	 -100.431 	 13.1885 	 -121.347
| 33> H 	 -100.021 	 13.8497 	 -122.114
| 34> H 	 -101.008 	 12.4935 	 -121.908
| 35> C 	 -99.2999 	 12.4306 	 -120.59
| 36> H 	 -98.7575 	 12.9799 	 -119.858
| 37> H 	 -98.4326 	 12.2514 	 -121.2
| 38> H 	 -99.5266 	 11.4869 	 -120.049
| 39> H 	 -98.2264 	 17.3814 	 -124.652
| 40> H 	 -105.573 	 15.4561 	 -121.545
| 41> *
| 42>
| 43>                          ****END OF INPUT****

CARTESIAN COORDINATES (ANGSTROEM)
---------------------------------
  S    -100.729000   16.932000  -124.106000
  C    -99.029900   17.282300  -123.907000
  C    -98.650600   17.139000  -122.597000
  C    -99.761600   16.665400  -121.782000
  C    -100.912000   16.427700  -122.447000
  H    -99.669900   16.416500  -120.696000
  C    -97.233500   17.287600  -122.060000
  H    -96.529800   17.463600  -122.902000
  H    -97.071200   16.308500  -121.515000
  C    -97.107800   18.520400  -121.121000
  H    -97.788500   19.296400  -121.532000
  H    -97.509600   18.189000  -120.096000
  C    -95.684600   19.088100  -120.936000
  H    -95.292300   19.363600  -121.967000
  H    -95.826500   20.067900  -120.382000
  H    -94.944200   18.457700  -120.450000
  S    -103.643000   16.695400  -122.411000
  C    -104.554000   15.673400  -121.303000
  C    -103.814000   14.700500  -120.723000
  C    -102.396000   14.953600  -120.925000
  C    -102.159000   15.968500  -121.858000
  H    -104.355000   13.933200  -120.182000
  C    -101.326000   13.964400  -120.349000
  H    -101.796000   13.194700  -119.695000
  H    -100.760000   14.653200  -119.705000
  C    -100.431000   13.188500  -121.347000
  H    -100.021000   13.849700  -122.114000
  H    -101.008000   12.493500  -121.908000
  C    -99.299900   12.430600  -120.590000
  H    -98.757500   12.979900  -119.858000
  H    -98.432600   12.251400  -121.200000
  H    -99.526600   11.486900  -120.049000
  H    -98.226400   17.381400  -124.652000
  H    -105.573000   15.456100  -121.545000

 Total Charge           Charge          ....    0
 Multiplicity           Mult            ....    1
 Number of Electrons    NEL             ....  134
 Basis Dimension        Dim             ....  322

ORBITAL ENERGIES
----------------

  NO   OCC          E(Eh)            E(eV)
   0   2.0000     -88.967089     -2420.9176
   1   2.0000     -88.964477     -2420.8465
   2   2.0000     -10.330789      -281.1151
   3   2.0000     -10.328864      -281.0627
   4   2.0000     -10.315325      -280.6943
   5   2.0000     -10.310910      -280.5741
   6   2.0000     -10.308809      -280.5169
   7   2.0000     -10.302744      -280.3519
   8   2.0000     -10.302268      -280.3390
   9   2.0000     -10.299575      -280.2657
  10   2.0000     -10.298164      -280.2273
  11   2.0000     -10.297330      -280.2046
  12   2.0000     -10.295848      -280.1643
  13   2.0000     -10.291278      -280.0399
  14   2.0000     -10.287455      -279.9359
  15   2.0000     -10.275737      -279.6170
  16   2.0000      -8.081975      -219.9217
  17   2.0000      -8.079544      -219.8556
  18   2.0000      -6.040706      -164.3760
  19   2.0000      -6.038051      -164.3037
  20   2.0000      -6.036498      -164.2615
  21   2.0000      -6.034157      -164.1978
  22   2.0000      -6.032432      -164.1508
  23   2.0000      -6.030130      -164.0882
  24   2.0000      -1.010586       -27.4994
  25   2.0000      -0.986157       -26.8347
  26   2.0000      -0.909275       -24.7426
  27   2.0000      -0.900463       -24.5028
  28   2.0000      -0.873933       -23.7809
  29   2.0000      -0.848811       -23.0973
  30   2.0000      -0.842807       -22.9339
  31   2.0000      -0.819531       -22.3006
  32   2.0000      -0.780370       -21.2350
  33   2.0000      -0.771680       -20.9985
  34   2.0000      -0.715406       -19.4672
  35   2.0000      -0.697102       -18.9691
  36   2.0000      -0.688029       -18.7222
  37   2.0000      -0.661901       -18.0112
  38   2.0000      -0.634903       -17.2766
  39   2.0000      -0.620661       -16.8891
  40   2.0000      -0.588820       -16.0226
  41   2.0000      -0.569023       -15.4839
  42   2.0000      -0.564216       -15.3531
  43   2.0000      -0.558008       -15.1842
  44   2.0000      -0.525589       -14.3020
  45   2.0000      -0.519473       -14.1356
  46   2.0000      -0.512671       -13.9505
  47   2.0000      -0.505493       -13.7552
  48   2.0000      -0.501847       -13.6559
  49   2.0000      -0.500491       -13.6191
  50   2.0000      -0.495293       -13.4776
  51   2.0000      -0.485423       -13.2090
  52   2.0000      -0.471858       -12.8399
  53   2.0000      -0.463304       -12.6072
  54   2.0000      -0.458960       -12.4889
  55   2.0000      -0.452407       -12.3106
  56   2.0000      -0.444557       -12.0970
  57   2.0000      -0.434325       -11.8186
  58   2.0000      -0.430908       -11.7256
  59   2.0000      -0.424635       -11.5549
  60   2.0000      -0.421028       -11.4568
  61   2.0000      -0.412815       -11.2333
  62   2.0000      -0.411576       -11.1995
  63   2.0000      -0.358090        -9.7441
  64   2.0000      -0.332964        -9.0604
  65   2.0000      -0.327712        -8.9175
  66   2.0000      -0.292732        -7.9657
  67   0.0000       0.025740         0.7004
  68   0.0000       0.073137         1.9902
  69   0.0000       0.104742         2.8502
  70   0.0000       0.117602         3.2001
  71   0.0000       0.127596         3.4721

MULLIKEN ATOMIC CHARGES
-----------------------
   0 S :    0.106488
   1 C :   -0.112794
   2 C :   -0.117685
   3 C :   -0.004820
   4 C :   -0.125523
   5 H :    0.023517
   6 C :    0.059479
   7 H :    0.017617
   8 H :    0.050459
   9 C :   -0.122148
  10 H :    0.050066
  11 H :    0.041580
  12 C :   -0.067928
  13 H :    0.034039
  14 H :    0.050148
  15 H :    0.045587
  16 S :    0.092443
  17 C :   -0.072222
  18 C :   -0.054338
  19 C :   -0.042193
  20 C :   -0.140055
  21 H :    0.030846
  22 C :    0.030341
  23 H :    0.029181
  24 H :    0.032916
  25 C :   -0.025473
  26 H :    0.044571
  27 H :    0.025580
  28 C :   -0.052115
  29 H :    0.003454
  30 H :    0.018462
  31 H :    0.038917
  32 H :    0.054694
  33 H :    0.056911
Sum of atomic charges:    0.0000000

LOEWDIN ATOMIC CHARGES
----------------------
   0 S :    0.400101
   1 C :   -0.207563
   2 C :   -0.064400
   3 C :   -0.069683
   4 C :   -0.195538
   5 H :    0.035675
   6 C :   -0.037206
   7 H :    0.028147
   8 H :    0.039713
   9 C :   -0.051356
  10 H :    0.031734
  11 H :    0.029126
  12 C :   -0.074839
  13 H :    0.028136
  14 H :    0.037708
  15 H :    0.024427
  16 S :    0.397361
  17 C :   -0.189232
  18 C :   -0.060712
  19 C :   -0.056431
  20 C :   -0.193291
  21 H :    0.037919
  22 C :   -0.033301
  23 H :    0.033306
  24 H :    0.028768
  25 C :   -0.033438
  26 H :    0.029544
  27 H :    0.023377
  28 C :   -0.077296
  29 H :    0.019477
  30 H :    0.027262
  31 H :    0.029761
  32 H :    0.038370
  33 H :    0.024376

  Mayer bond orders larger than 0.100000
B(  0-S ,  1-C ) :   1.1180 B(  0-S ,  4-C ) :   1.1290 B(  1-C ,  2-C ) :   1.6525
B(  1-C , 32-H ) :   0.9568 B(  2-C ,  3-C ) :   1.2103 B(  2-C ,  6-C ) :   1.0309
B(  3-C ,  4-C ) :   1.6015 B(  3-C ,  5-H ) :   0.9871 B(  4-C , 20-C ) :   1.0579
B(  6-C ,  7-H ) :   0.9419 B(  6-C ,  8-H ) :   0.9411 B(  6-C ,  9-C ) :   1.0445
B(  9-C , 10-H ) :   0.9595 B(  9-C , 11-H ) :   0.9517 B(  9-C , 12-C ) :   1.0850
B( 12-C , 13-H ) :   0.9724 B( 12-C , 14-H ) :   0.9738 B( 12-C , 15-H ) :   0.9751
B( 16-S , 17-C ) :   1.1362 B( 16-S , 20-C ) :   1.1420 B( 17-C , 18-C ) :   1.6676
B( 17-C , 33-H ) :   0.9528 B( 18-C , 19-C ) :   1.2198 B( 18-C , 21-H ) :   0.9867
B( 19-C , 20-C ) :   1.5992 B( 19-C , 22-C ) :   1.0206 B( 22-C , 23-H ) :   0.9467
B( 22-C , 24-H ) :   0.9356 B( 22-C , 25-C ) :   1.0592 B( 25-C , 26-H ) :   0.9558
B( 25-C , 27-H ) :   0.9553 B( 25-C , 28-C ) :   1.0688 B( 28-C , 29-H ) :   0.9722
B( 28-C , 30-H ) :   0.9713 B( 28-C , 31-H ) :   0.9780

Dispersion correction           -0.014450158
FINAL SINGLE POINT ENERGY     -1339.869154863370

DIPOLE MOMENT
-------------
                                X             Y             Z
Electronic contribution:    -25.62665       6.69044     -13.82929
Nuclear contribution   :     26.17200      -7.12085      14.14537
                        -----------------------------------------
Total Dipole Moment    :      0.54535      -0.43042       0.31608
                        -----------------------------------------
Magnitude (a.u.)       :      0.76326
Magnitude (Debye)      :      1.94006

Rotational constants in cm-1:     0.018428     0.008526     0.006904
Rotational constants in MHz :   552.460274   255.596115   206.969943

                             ****ORCA TERMINATED NORMALLY****
TOTAL RUN TIME: 0 days 0 hours 0 minutes 21 seconds 808 msec
