                         Program Version 4.2.1 -  RELEASE  -
|  1> ! wB97X-D3 SP def2-SVP
|  2> %pal
|  3> nprocs 24
|  4> end
|  5>
|  6> * xyz 0 1
|  7> S 	 -47.4005 	 7.37119 	 26.8839
|  8> C 	 -46.4549 	 8.272 	 25.7643
|  9> C 	 -47.1845 	 9.12244 	 25.0023
| 10> C 	 -48.6067 	 8.90002 	 25.1361
| 11> C 	 -48.888 	 8.16659 	 26.3049
| 12> H 	 -49.4254 	 9.49916 	 24.6588
| 13> C 	 -46.6864 	 10.1551 	 24.0014
| 14> H 	 -45.5978 	 10.3765 	 24.2359
| 15> H 	 -47.2485 	 11.0813 	 24.1599
| 16> C 	 -46.6662 	 9.71668 	 22.5682
| 17> H 	 -47.7384 	 9.61152 	 22.4176
| 18> H 	 -46.2835 	 10.4657 	 21.808
| 19> C 	 -46.0354 	 8.3843 	 22.255
| 20> H 	 -45.0476 	 8.52971 	 21.795
| 21> H 	 -45.8666 	 7.69967 	 23.1605
| 22> H 	 -46.5664 	 7.8858 	 21.5132
| 23> S 	 -50.6035 	 6.05694 	 26.4357
| 24> C 	 -52.1581 	 6.2251 	 27.2211
| 25> C 	 -52.3327 	 7.57775 	 27.5172
| 26> C 	 -51.1962 	 8.45596 	 27.3914
| 27> C 	 -50.2074 	 7.73347 	 26.7861
| 28> H 	 -53.3108 	 7.90481 	 27.7997
| 29> C 	 -51.2332 	 9.89133 	 27.7811
| 30> H 	 -52.231 	 10.2964 	 27.6249
| 31> H 	 -50.6934 	 10.3897 	 26.9221
| 32> C 	 -50.6481 	 10.2717 	 29.1115
| 33> H 	 -50.7402 	 11.3669 	 29.2231
| 34> H 	 -49.5317 	 10.0418 	 29.0621
| 35> C 	 -51.3669 	 9.46834 	 30.2542
| 36> H 	 -50.7435 	 9.43882 	 31.1336
| 37> H 	 -51.6496 	 8.53085 	 29.9162
| 38> H 	 -52.2554 	 10.1332 	 30.4185
| 39> H 	 -45.3886 	 8.13088 	 25.6794
| 40> H 	 -52.8297 	 5.31876 	 27.2599
| 41> *
| 42>
| 43>                          ****END OF INPUT****

CARTESIAN COORDINATES (ANGSTROEM)
---------------------------------
  S    -47.400500    7.371190   26.883900
  C    -46.454900    8.272000   25.764300
  C    -47.184500    9.122440   25.002300
  C    -48.606700    8.900020   25.136100
  C    -48.888000    8.166590   26.304900
  H    -49.425400    9.499160   24.658800
  C    -46.686400   10.155100   24.001400
  H    -45.597800   10.376500   24.235900
  H    -47.248500   11.081300   24.159900
  C    -46.666200    9.716680   22.568200
  H    -47.738400    9.611520   22.417600
  H    -46.283500   10.465700   21.808000
  C    -46.035400    8.384300   22.255000
  H    -45.047600    8.529710   21.795000
  H    -45.866600    7.699670   23.160500
  H    -46.566400    7.885800   21.513200
  S    -50.603500    6.056940   26.435700
  C    -52.158100    6.225100   27.221100
  C    -52.332700    7.577750   27.517200
  C    -51.196200    8.455960   27.391400
  C    -50.207400    7.733470   26.786100
  H    -53.310800    7.904810   27.799700
  C    -51.233200    9.891330   27.781100
  H    -52.231000   10.296400   27.624900
  H    -50.693400   10.389700   26.922100
  C    -50.648100   10.271700   29.111500
  H    -50.740200   11.366900   29.223100
  H    -49.531700   10.041800   29.062100
  C    -51.366900    9.468340   30.254200
  H    -50.743500    9.438820   31.133600
  H    -51.649600    8.530850   29.916200
  H    -52.255400   10.133200   30.418500
  H    -45.388600    8.130880   25.679400
  H    -52.829700    5.318760   27.259900

 Total Charge           Charge          ....    0
 Multiplicity           Mult            ....    1
 Number of Electrons    NEL             ....  134
 Basis Dimension        Dim             ....  322

ORBITAL ENERGIES
----------------

  NO   OCC          E(Eh)            E(eV)
   0   2.0000     -88.965286     -2420.8685
   1   2.0000     -88.962299     -2420.7872
   2   2.0000     -10.332334      -281.1571
   3   2.0000     -10.325030      -280.9583
   4   2.0000     -10.323943      -280.9288
   5   2.0000     -10.311233      -280.5829
   6   2.0000     -10.302970      -280.3581
   7   2.0000     -10.302736      -280.3517
   8   2.0000     -10.300595      -280.2934
   9   2.0000     -10.295629      -280.1583
  10   2.0000     -10.294432      -280.1257
  11   2.0000     -10.292619      -280.0764
  12   2.0000     -10.290904      -280.0297
  13   2.0000     -10.284571      -279.8574
  14   2.0000     -10.272696      -279.5343
  15   2.0000     -10.272111      -279.5183
  16   2.0000      -8.080247      -219.8747
  17   2.0000      -8.077366      -219.7963
  18   2.0000      -6.038688      -164.3211
  19   2.0000      -6.035836      -164.2435
  20   2.0000      -6.034716      -164.2130
  21   2.0000      -6.031834      -164.1345
  22   2.0000      -6.031057      -164.1134
  23   2.0000      -6.028120      -164.0335
  24   2.0000      -1.006581       -27.3905
  25   2.0000      -0.985525       -26.8175
  26   2.0000      -0.915079       -24.9006
  27   2.0000      -0.913322       -24.8528
  28   2.0000      -0.866659       -23.5830
  29   2.0000      -0.848674       -23.0936
  30   2.0000      -0.844205       -22.9720
  31   2.0000      -0.808300       -21.9950
  32   2.0000      -0.785987       -21.3878
  33   2.0000      -0.777573       -21.1588
  34   2.0000      -0.706356       -19.2209
  35   2.0000      -0.690253       -18.7827
  36   2.0000      -0.685600       -18.6561
  37   2.0000      -0.663977       -18.0677
  38   2.0000      -0.640668       -17.4335
  39   2.0000      -0.612756       -16.6739
  40   2.0000      -0.592757       -16.1297
  41   2.0000      -0.565352       -15.3840
  42   2.0000      -0.557718       -15.1763
  43   2.0000      -0.555017       -15.1028
  44   2.0000      -0.550212       -14.9720
  45   2.0000      -0.542143       -14.7525
  46   2.0000      -0.514415       -13.9979
  47   2.0000      -0.506918       -13.7939
  48   2.0000      -0.500430       -13.6174
  49   2.0000      -0.493474       -13.4281
  50   2.0000      -0.488959       -13.3052
  51   2.0000      -0.481095       -13.0913
  52   2.0000      -0.469099       -12.7648
  53   2.0000      -0.463204       -12.6044
  54   2.0000      -0.454641       -12.3714
  55   2.0000      -0.446699       -12.1553
  56   2.0000      -0.445127       -12.1125
  57   2.0000      -0.441479       -12.0133
  58   2.0000      -0.434260       -11.8168
  59   2.0000      -0.423491       -11.5238
  60   2.0000      -0.419283       -11.4093
  61   2.0000      -0.404512       -11.0073
  62   2.0000      -0.396257       -10.7827
  63   2.0000      -0.338219        -9.2034
  64   2.0000      -0.331782        -9.0282
  65   2.0000      -0.321957        -8.7609
  66   2.0000      -0.305199        -8.3049
  67   0.0000       0.034927         0.9504
  68   0.0000       0.060219         1.6386
  69   0.0000       0.109171         2.9707
  70   0.0000       0.114435         3.1139
  71   0.0000       0.127592         3.4720

MULLIKEN ATOMIC CHARGES
-----------------------
   0 S :    0.110515
   1 C :   -0.114114
   2 C :   -0.103471
   3 C :    0.033922
   4 C :   -0.188574
   5 H :    0.045067
   6 C :    0.065297
   7 H :    0.019803
   8 H :    0.037996
   9 C :   -0.082167
  10 H :    0.015935
  11 H :    0.046252
  12 C :   -0.051290
  13 H :    0.023193
  14 H :    0.047626
  15 H :    0.021602
  16 S :    0.109364
  17 C :   -0.123888
  18 C :   -0.032162
  19 C :   -0.033049
  20 C :   -0.180453
  21 H :    0.008152
  22 C :    0.069592
  23 H :    0.017811
  24 H :    0.024522
  25 C :   -0.088602
  26 H :    0.039415
  27 H :    0.045048
  28 C :   -0.023400
  29 H :    0.039719
  30 H :    0.032976
  31 H :    0.029880
  32 H :    0.049967
  33 H :    0.087514
Sum of atomic charges:    0.0000000

LOEWDIN ATOMIC CHARGES
----------------------
   0 S :    0.403680
   1 C :   -0.199799
   2 C :   -0.068341
   3 C :   -0.059895
   4 C :   -0.189084
   5 H :    0.040609
   6 C :   -0.033904
   7 H :    0.029095
   8 H :    0.033632
   9 C :   -0.053564
  10 H :    0.019801
  11 H :    0.034572
  12 C :   -0.071281
  13 H :    0.025393
  14 H :    0.036602
  15 H :    0.019295
  16 S :    0.401753
  17 C :   -0.196882
  18 C :   -0.068768
  19 C :   -0.058954
  20 C :   -0.196849
  21 H :    0.022000
  22 C :   -0.041531
  23 H :    0.029424
  24 H :    0.038802
  25 C :   -0.041601
  26 H :    0.026481
  27 H :    0.030047
  28 C :   -0.054323
  29 H :    0.025989
  30 H :    0.014629
  31 H :    0.033106
  32 H :    0.026821
  33 H :    0.043049

  Mayer bond orders larger than 0.100000
B(  0-S ,  1-C ) :   1.1430 B(  0-S ,  4-C ) :   1.1484 B(  1-C ,  2-C ) :   1.6313
B(  1-C , 32-H ) :   0.9610 B(  2-C ,  3-C ) :   1.2195 B(  2-C ,  6-C ) :   1.0243
B(  3-C ,  4-C ) :   1.6027 B(  3-C ,  5-H ) :   0.9702 B(  4-C , 20-C ) :   1.0078
B(  6-C ,  7-H ) :   0.9405 B(  6-C ,  8-H ) :   0.9443 B(  6-C ,  9-C ) :   1.0647
B(  9-C , 10-H ) :   0.9595 B(  9-C , 11-H ) :   0.9558 B(  9-C , 12-C ) :   1.0720
B( 12-C , 13-H ) :   0.9738 B( 12-C , 14-H ) :   0.9719 B( 12-C , 15-H ) :   0.9736
B( 16-S , 17-C ) :   1.1437 B( 16-S , 20-C ) :   1.1670 B( 17-C , 18-C ) :   1.5958
B( 17-C , 33-H ) :   0.9656 B( 18-C , 19-C ) :   1.2176 B( 18-C , 21-H ) :   0.9890
B( 19-C , 20-C ) :   1.6180 B( 19-C , 22-C ) :   1.0357 B( 22-C , 23-H ) :   0.9322
B( 22-C , 24-H ) :   0.9191 B( 22-C , 25-C ) :   1.0754 B( 25-C , 26-H ) :   0.9590
B( 25-C , 27-H ) :   0.9558 B( 25-C , 28-C ) :   1.0506 B( 28-C , 29-H ) :   0.9761
B( 28-C , 30-H ) :   0.9803 B( 28-C , 31-H ) :   0.9770

Dispersion correction           -0.014799244
FINAL SINGLE POINT ENERGY     -1339.863704859988

DIPOLE MOMENT
-------------
                                X             Y             Z
Electronic contribution:     -2.15315     -16.56365       4.45388
Nuclear contribution   :      1.96752      17.02887      -4.69325
                        -----------------------------------------
Total Dipole Moment    :     -0.18563       0.46522      -0.23937
                        -----------------------------------------
Magnitude (a.u.)       :      0.55514
Magnitude (Debye)      :      1.41106

Rotational constants in cm-1:     0.022756     0.007908     0.007082
Rotational constants in MHz :   682.210381   237.063844   212.324281

                             ****ORCA TERMINATED NORMALLY****
TOTAL RUN TIME: 0 days 0 hours 0 minutes 21 seconds 892 msec
