                         Program Version 4.2.1 -  RELEASE  -
|  1> ! wB97X-D3 SP def2-SVP
|  2> %pal
|  3> nprocs 24
|  4> end
|  5>
|  6> * xyz 0 1
|  7> S 	 -101.736 	 -2.06761 	 -118
|  8> C 	 -103.091 	 -3.02217 	 -118.575
|  9> C 	 -102.953 	 -3.28848 	 -119.91
| 10> C 	 -101.615 	 -2.99472 	 -120.392
| 11> C 	 -100.888 	 -2.30824 	 -119.478
| 12> H 	 -101.266 	 -3.29477 	 -121.372
| 13> C 	 -103.813 	 -4.15259 	 -120.733
| 14> H 	 -103.963 	 -3.59547 	 -121.678
| 15> H 	 -104.817 	 -3.99798 	 -120.406
| 16> C 	 -103.362 	 -5.6246 	 -120.947
| 17> H 	 -104.029 	 -6.1331 	 -121.68
| 18> H 	 -102.34 	 -5.54344 	 -121.313
| 19> C 	 -103.361 	 -6.33509 	 -119.584
| 20> H 	 -102.578 	 -5.77286 	 -118.993
| 21> H 	 -104.331 	 -6.23989 	 -119.13
| 22> H 	 -103.18 	 -7.44205 	 -119.72
| 23> S 	 -99.2993 	 -0.0980185 	 -119.773
| 24> C 	 -97.6352 	 -0.305845 	 -120.149
| 25> C 	 -97.2406 	 -1.616 	 -120.081
| 26> C 	 -98.324 	 -2.4643 	 -119.694
| 27> C 	 -99.5669 	 -1.82804 	 -119.629
| 28> H 	 -96.182 	 -1.88192 	 -120.35
| 29> C 	 -98.0376 	 -3.94245 	 -119.518
| 30> H 	 -97.2739 	 -4.14749 	 -120.277
| 31> H 	 -98.9818 	 -4.32697 	 -119.913
| 32> C 	 -97.8354 	 -4.36553 	 -118.112
| 33> H 	 -98.764 	 -3.98723 	 -117.56
| 34> H 	 -96.863 	 -4.02769 	 -117.635
| 35> C 	 -98.0008 	 -5.89264 	 -118.029
| 36> H 	 -97.1718 	 -6.25445 	 -118.682
| 37> H 	 -99.0239 	 -6.26094 	 -118.402
| 38> H 	 -97.8471 	 -6.26449 	 -116.941
| 39> H 	 -103.871 	 -3.30261 	 -117.864
| 40> H 	 -97.1258 	 0.51767 	 -120.469
| 41> *
| 42>
| 43>                          ****END OF INPUT****

CARTESIAN COORDINATES (ANGSTROEM)
---------------------------------
  S    -101.736000   -2.067610  -118.000000
  C    -103.091000   -3.022170  -118.575000
  C    -102.953000   -3.288480  -119.910000
  C    -101.615000   -2.994720  -120.392000
  C    -100.888000   -2.308240  -119.478000
  H    -101.266000   -3.294770  -121.372000
  C    -103.813000   -4.152590  -120.733000
  H    -103.963000   -3.595470  -121.678000
  H    -104.817000   -3.997980  -120.406000
  C    -103.362000   -5.624600  -120.947000
  H    -104.029000   -6.133100  -121.680000
  H    -102.340000   -5.543440  -121.313000
  C    -103.361000   -6.335090  -119.584000
  H    -102.578000   -5.772860  -118.993000
  H    -104.331000   -6.239890  -119.130000
  H    -103.180000   -7.442050  -119.720000
  S    -99.299300   -0.098018  -119.773000
  C    -97.635200   -0.305845  -120.149000
  C    -97.240600   -1.616000  -120.081000
  C    -98.324000   -2.464300  -119.694000
  C    -99.566900   -1.828040  -119.629000
  H    -96.182000   -1.881920  -120.350000
  C    -98.037600   -3.942450  -119.518000
  H    -97.273900   -4.147490  -120.277000
  H    -98.981800   -4.326970  -119.913000
  C    -97.835400   -4.365530  -118.112000
  H    -98.764000   -3.987230  -117.560000
  H    -96.863000   -4.027690  -117.635000
  C    -98.000800   -5.892640  -118.029000
  H    -97.171800   -6.254450  -118.682000
  H    -99.023900   -6.260940  -118.402000
  H    -97.847100   -6.264490  -116.941000
  H    -103.871000   -3.302610  -117.864000
  H    -97.125800    0.517670  -120.469000

 Total Charge           Charge          ....    0
 Multiplicity           Mult            ....    1
 Number of Electrons    NEL             ....  134
 Basis Dimension        Dim             ....  322

ORBITAL ENERGIES
----------------

  NO   OCC          E(Eh)            E(eV)
   0   2.0000     -88.963952     -2420.8322
   1   2.0000     -88.959242     -2420.7040
   2   2.0000     -10.323054      -280.9046
   3   2.0000     -10.320057      -280.8230
   4   2.0000     -10.317353      -280.7494
   5   2.0000     -10.307213      -280.4735
   6   2.0000     -10.300816      -280.2995
   7   2.0000     -10.300058      -280.2788
   8   2.0000     -10.294342      -280.1233
   9   2.0000     -10.294191      -280.1192
  10   2.0000     -10.294151      -280.1181
  11   2.0000     -10.291093      -280.0349
  12   2.0000     -10.289421      -279.9894
  13   2.0000     -10.286197      -279.9017
  14   2.0000     -10.284829      -279.8644
  15   2.0000     -10.283116      -279.8178
  16   2.0000      -8.079622      -219.8577
  17   2.0000      -8.075047      -219.7332
  18   2.0000      -6.038077      -164.3044
  19   2.0000      -6.034013      -164.1938
  20   2.0000      -6.033427      -164.1779
  21   2.0000      -6.030355      -164.0943
  22   2.0000      -6.029346      -164.0669
  23   2.0000      -6.025948      -163.9744
  24   2.0000      -1.013886       -27.5892
  25   2.0000      -0.988889       -26.9090
  26   2.0000      -0.918046       -24.9813
  27   2.0000      -0.914465       -24.8839
  28   2.0000      -0.874026       -23.7835
  29   2.0000      -0.849724       -23.1222
  30   2.0000      -0.846057       -23.0224
  31   2.0000      -0.815260       -22.1844
  32   2.0000      -0.780861       -21.2483
  33   2.0000      -0.767094       -20.8737
  34   2.0000      -0.710141       -19.3239
  35   2.0000      -0.695537       -18.9265
  36   2.0000      -0.685371       -18.6499
  37   2.0000      -0.662352       -18.0235
  38   2.0000      -0.647720       -17.6254
  39   2.0000      -0.626746       -17.0546
  40   2.0000      -0.594348       -16.1730
  41   2.0000      -0.572353       -15.5745
  42   2.0000      -0.569104       -15.4861
  43   2.0000      -0.548629       -14.9290
  44   2.0000      -0.539487       -14.6802
  45   2.0000      -0.524546       -14.2736
  46   2.0000      -0.517711       -14.0876
  47   2.0000      -0.515435       -14.0257
  48   2.0000      -0.505245       -13.7484
  49   2.0000      -0.501282       -13.6406
  50   2.0000      -0.492286       -13.3958
  51   2.0000      -0.480760       -13.0821
  52   2.0000      -0.469112       -12.7652
  53   2.0000      -0.462798       -12.5934
  54   2.0000      -0.459510       -12.5039
  55   2.0000      -0.447761       -12.1842
  56   2.0000      -0.440466       -11.9857
  57   2.0000      -0.434185       -11.8148
  58   2.0000      -0.428397       -11.6573
  59   2.0000      -0.424659       -11.5556
  60   2.0000      -0.417494       -11.3606
  61   2.0000      -0.414009       -11.2658
  62   2.0000      -0.400271       -10.8919
  63   2.0000      -0.339296        -9.2327
  64   2.0000      -0.330936        -9.0052
  65   2.0000      -0.327589        -8.9142
  66   2.0000      -0.301075        -8.1927
  67   0.0000       0.045664         1.2426
  68   0.0000       0.055325         1.5055
  69   0.0000       0.111574         3.0361
  70   0.0000       0.119876         3.2620
  71   0.0000       0.123871         3.3707

MULLIKEN ATOMIC CHARGES
-----------------------
   0 S :    0.113435
   1 C :   -0.144092
   2 C :   -0.094308
   3 C :    0.032053
   4 C :   -0.164864
   5 H :    0.017567
   6 C :    0.056446
   7 H :    0.022133
   8 H :   -0.000020
   9 C :   -0.039978
  10 H :    0.042439
  11 H :    0.027398
  12 C :   -0.078360
  13 H :    0.061521
  14 H :    0.026327
  15 H :    0.047736
  16 S :    0.100205
  17 C :   -0.061668
  18 C :   -0.047011
  19 C :   -0.057136
  20 C :   -0.163090
  21 H :    0.039409
  22 C :    0.094750
  23 H :    0.021680
  24 H :    0.005651
  25 C :   -0.072947
  26 H :    0.040625
  27 H :    0.049127
  28 C :   -0.095256
  29 H :    0.033876
  30 H :    0.052085
  31 H :    0.050155
  32 H :    0.060085
  33 H :    0.024028
Sum of atomic charges:   -0.0000000

LOEWDIN ATOMIC CHARGES
----------------------
   0 S :    0.411263
   1 C :   -0.188761
   2 C :   -0.067842
   3 C :   -0.052747
   4 C :   -0.207256
   5 H :    0.033083
   6 C :   -0.047524
   7 H :    0.036589
   8 H :    0.023483
   9 C :   -0.033376
  10 H :    0.028607
  11 H :    0.022119
  12 C :   -0.071108
  13 H :    0.036726
  14 H :    0.018967
  15 H :    0.031841
  16 S :    0.413488
  17 C :   -0.172633
  18 C :   -0.083120
  19 C :   -0.048792
  20 C :   -0.212434
  21 H :    0.042584
  22 C :   -0.038875
  23 H :    0.028651
  24 H :    0.031581
  25 C :   -0.050977
  26 H :    0.035333
  27 H :    0.033145
  28 C :   -0.078789
  29 H :    0.024187
  30 H :    0.032337
  31 H :    0.032309
  32 H :    0.030741
  33 H :    0.007202

  Mayer bond orders larger than 0.100000
B(  0-S ,  1-C ) :   1.1333 B(  0-S ,  4-C ) :   1.1497 B(  1-C ,  2-C ) :   1.6082
B(  1-C , 32-H ) :   0.9756 B(  2-C ,  3-C ) :   1.1942 B(  2-C ,  6-C ) :   1.0546
B(  3-C ,  4-C ) :   1.6075 B(  3-C ,  5-H ) :   1.0003 B(  4-C , 20-C ) :   1.0249
B(  6-C ,  7-H ) :   0.9225 B(  6-C ,  8-H ) :   0.9320 B(  6-C ,  9-C ) :   1.0514
B(  9-C , 10-H ) :   0.9544 B(  9-C , 11-H ) :   0.9562 B(  9-C , 12-C ) :   1.0687
B( 12-C , 13-H ) :   0.9721 B( 12-C , 14-H ) :   0.9761 B( 12-C , 15-H ) :   0.9734
B( 16-S , 17-C ) :   1.1793 B( 16-S , 20-C ) :   1.1386 B( 17-C , 18-C ) :   1.5866
B( 17-C , 20-C ) :   0.1047 B( 17-C , 33-H ) :   0.9803 B( 18-C , 19-C ) :   1.2416
B( 18-C , 21-H ) :   0.9868 B( 19-C , 20-C ) :   1.5955 B( 19-C , 22-C ) :   1.0245
B( 22-C , 23-H ) :   0.9291 B( 22-C , 24-H ) :   0.9269 B( 22-C , 25-C ) :   1.0680
B( 25-C , 26-H ) :   0.9505 B( 25-C , 27-H ) :   0.9522 B( 25-C , 28-C ) :   1.0714
B( 28-C , 29-H ) :   0.9722 B( 28-C , 30-H ) :   0.9739 B( 28-C , 31-H ) :   0.9742

Dispersion correction           -0.015224612
FINAL SINGLE POINT ENERGY     -1339.867608419839

DIPOLE MOMENT
-------------
                                X             Y             Z
Electronic contribution:      1.47124      27.25292       2.08192
Nuclear contribution   :     -1.48279     -27.74931      -2.40677
                        -----------------------------------------
Total Dipole Moment    :     -0.01156      -0.49639      -0.32485
                        -----------------------------------------
Magnitude (a.u.)       :      0.59335
Magnitude (Debye)      :      1.50816

Rotational constants in cm-1:     0.018656     0.009663     0.007643
Rotational constants in MHz :   559.282787   289.685209   229.136678

                             ****ORCA TERMINATED NORMALLY****
TOTAL RUN TIME: 0 days 0 hours 0 minutes 22 seconds 869 msec
