                         Program Version 4.2.1 -  RELEASE  -
|  1> ! wB97X-D3 SP def2-SVP
|  2> %pal
|  3> nprocs 24
|  4> end
|  5>
|  6> * xyz 0 1
|  7> S 	 -44.6856 	 -51.7611 	 -69.8059
|  8> C 	 -45.1696 	 -53.4694 	 -69.9678
|  9> C 	 -44.5541 	 -54.1686 	 -69.0138
| 10> C 	 -43.6564 	 -53.4043 	 -68.1722
| 11> C 	 -43.545 	 -52.0852 	 -68.5892
| 12> H 	 -43.1793 	 -53.7009 	 -67.2365
| 13> C 	 -44.6483 	 -55.6249 	 -68.8362
| 14> H 	 -44.3571 	 -55.853 	 -67.8211
| 15> H 	 -43.9035 	 -56.0632 	 -69.4857
| 16> C 	 -45.9404 	 -56.2411 	 -69.1817
| 17> H 	 -46.093 	 -56.0604 	 -70.2574
| 18> H 	 -45.7942 	 -57.3413 	 -69.1624
| 19> C 	 -47.1016 	 -55.8474 	 -68.239
| 20> H 	 -47.0871 	 -54.7695 	 -68.0057
| 21> H 	 -48.0213 	 -56.0552 	 -68.6807
| 22> H 	 -47.0697 	 -56.3565 	 -67.2729
| 23> S 	 -44.1257 	 -49.82 	 -67.273
| 24> C 	 -42.8585 	 -48.857 	 -66.4996
| 25> C 	 -41.6353 	 -49.4741 	 -66.6281
| 26> C 	 -41.7099 	 -50.7211 	 -67.3618
| 27> C 	 -42.9692 	 -50.9676 	 -67.7957
| 28> H 	 -40.7576 	 -49.0051 	 -66.2868
| 29> C 	 -40.5141 	 -51.5368 	 -67.7105
| 30> H 	 -40.7397 	 -52.578 	 -67.7303
| 31> H 	 -39.7726 	 -51.4204 	 -66.9204
| 32> C 	 -39.929 	 -51.0702 	 -69.0586
| 33> H 	 -40.0989 	 -50.025 	 -69.4178
| 34> H 	 -40.4533 	 -51.611 	 -69.8329
| 35> C 	 -38.4844 	 -51.4393 	 -69.0877
| 36> H 	 -38.3153 	 -52.4681 	 -68.7446
| 37> H 	 -37.9599 	 -50.8338 	 -68.4742
| 38> H 	 -38.0309 	 -51.1545 	 -70.0687
| 39> H 	 -45.9626 	 -53.8443 	 -70.5613
| 40> H 	 -42.9521 	 -47.8937 	 -66.1507
| 41> *
| 42>
| 43>                          ****END OF INPUT****

CARTESIAN COORDINATES (ANGSTROEM)
---------------------------------
  S    -44.685600  -51.761100  -69.805900
  C    -45.169600  -53.469400  -69.967800
  C    -44.554100  -54.168600  -69.013800
  C    -43.656400  -53.404300  -68.172200
  C    -43.545000  -52.085200  -68.589200
  H    -43.179300  -53.700900  -67.236500
  C    -44.648300  -55.624900  -68.836200
  H    -44.357100  -55.853000  -67.821100
  H    -43.903500  -56.063200  -69.485700
  C    -45.940400  -56.241100  -69.181700
  H    -46.093000  -56.060400  -70.257400
  H    -45.794200  -57.341300  -69.162400
  C    -47.101600  -55.847400  -68.239000
  H    -47.087100  -54.769500  -68.005700
  H    -48.021300  -56.055200  -68.680700
  H    -47.069700  -56.356500  -67.272900
  S    -44.125700  -49.820000  -67.273000
  C    -42.858500  -48.857000  -66.499600
  C    -41.635300  -49.474100  -66.628100
  C    -41.709900  -50.721100  -67.361800
  C    -42.969200  -50.967600  -67.795700
  H    -40.757600  -49.005100  -66.286800
  C    -40.514100  -51.536800  -67.710500
  H    -40.739700  -52.578000  -67.730300
  H    -39.772600  -51.420400  -66.920400
  C    -39.929000  -51.070200  -69.058600
  H    -40.098900  -50.025000  -69.417800
  H    -40.453300  -51.611000  -69.832900
  C    -38.484400  -51.439300  -69.087700
  H    -38.315300  -52.468100  -68.744600
  H    -37.959900  -50.833800  -68.474200
  H    -38.030900  -51.154500  -70.068700
  H    -45.962600  -53.844300  -70.561300
  H    -42.952100  -47.893700  -66.150700

 Total Charge           Charge          ....    0
 Multiplicity           Mult            ....    1
 Number of Electrons    NEL             ....  134
 Basis Dimension        Dim             ....  322

ORBITAL ENERGIES
----------------

  NO   OCC          E(Eh)            E(eV)
   0   2.0000     -88.961917     -2420.7768
   1   2.0000     -88.961429     -2420.7635
   2   2.0000     -10.327072      -281.0139
   3   2.0000     -10.318845      -280.7900
   4   2.0000     -10.309603      -280.5386
   5   2.0000     -10.307139      -280.4715
   6   2.0000     -10.296169      -280.1730
   7   2.0000     -10.293689      -280.1055
   8   2.0000     -10.293461      -280.0993
   9   2.0000     -10.290555      -280.0202
  10   2.0000     -10.287040      -279.9246
  11   2.0000     -10.286104      -279.8991
  12   2.0000     -10.280235      -279.7394
  13   2.0000     -10.279920      -279.7308
  14   2.0000     -10.274038      -279.5708
  15   2.0000     -10.267046      -279.3805
  16   2.0000      -8.077280      -219.7940
  17   2.0000      -8.076727      -219.7789
  18   2.0000      -6.035797      -164.2424
  19   2.0000      -6.035303      -164.2289
  20   2.0000      -6.031680      -164.1304
  21   2.0000      -6.031151      -164.1160
  22   2.0000      -6.027971      -164.0294
  23   2.0000      -6.027356      -164.0127
  24   2.0000      -1.012873       -27.5617
  25   2.0000      -0.988537       -26.8995
  26   2.0000      -0.925277       -25.1781
  27   2.0000      -0.915073       -24.9004
  28   2.0000      -0.869242       -23.6533
  29   2.0000      -0.853910       -23.2361
  30   2.0000      -0.842848       -22.9351
  31   2.0000      -0.817487       -22.2450
  32   2.0000      -0.788235       -21.4490
  33   2.0000      -0.774118       -21.0648
  34   2.0000      -0.712836       -19.3973
  35   2.0000      -0.704707       -19.1761
  36   2.0000      -0.694438       -18.8966
  37   2.0000      -0.669861       -18.2278
  38   2.0000      -0.639916       -17.4130
  39   2.0000      -0.607623       -16.5343
  40   2.0000      -0.598550       -16.2874
  41   2.0000      -0.581577       -15.8255
  42   2.0000      -0.566139       -15.4054
  43   2.0000      -0.557942       -15.1824
  44   2.0000      -0.536963       -14.6115
  45   2.0000      -0.534803       -14.5527
  46   2.0000      -0.520065       -14.1517
  47   2.0000      -0.518984       -14.1223
  48   2.0000      -0.506753       -13.7895
  49   2.0000      -0.501923       -13.6580
  50   2.0000      -0.486063       -13.2265
  51   2.0000      -0.484354       -13.1799
  52   2.0000      -0.476729       -12.9725
  53   2.0000      -0.462609       -12.5882
  54   2.0000      -0.459035       -12.4910
  55   2.0000      -0.454090       -12.3564
  56   2.0000      -0.442702       -12.0465
  57   2.0000      -0.438069       -11.9205
  58   2.0000      -0.432318       -11.7640
  59   2.0000      -0.431614       -11.7448
  60   2.0000      -0.420027       -11.4295
  61   2.0000      -0.410007       -11.1569
  62   2.0000      -0.407601       -11.0914
  63   2.0000      -0.345033        -9.3888
  64   2.0000      -0.329602        -8.9689
  65   2.0000      -0.322567        -8.7775
  66   2.0000      -0.299830        -8.1588
  67   0.0000       0.037149         1.0109
  68   0.0000       0.073845         2.0094
  69   0.0000       0.114770         3.1231
  70   0.0000       0.124046         3.3755
  71   0.0000       0.133522         3.6333

MULLIKEN ATOMIC CHARGES
-----------------------
   0 S :    0.088433
   1 C :   -0.116413
   2 C :   -0.099574
   3 C :    0.026020
   4 C :   -0.130303
   5 H :    0.024249
   6 C :    0.106164
   7 H :    0.006679
   8 H :    0.039972
   9 C :   -0.108378
  10 H :    0.024865
  11 H :    0.028540
  12 C :   -0.021648
  13 H :    0.039770
  14 H :    0.020518
  15 H :    0.032215
  16 S :    0.108150
  17 C :   -0.060747
  18 C :   -0.018072
  19 C :   -0.059286
  20 C :   -0.163793
  21 H :   -0.000103
  22 C :    0.094436
  23 H :    0.016959
  24 H :    0.015375
  25 C :   -0.073314
  26 H :    0.038284
  27 H :    0.025947
  28 C :   -0.011725
  29 H :    0.034153
  30 H :   -0.000232
  31 H :    0.027546
  32 H :    0.039199
  33 H :    0.026110
Sum of atomic charges:   -0.0000000

LOEWDIN ATOMIC CHARGES
----------------------
   0 S :    0.409070
   1 C :   -0.186828
   2 C :   -0.063659
   3 C :   -0.067485
   4 C :   -0.205425
   5 H :    0.033207
   6 C :   -0.034598
   7 H :    0.025920
   8 H :    0.040037
   9 C :   -0.047557
  10 H :    0.022809
  11 H :    0.029538
  12 C :   -0.061435
  13 H :    0.029978
  14 H :    0.017677
  15 H :    0.029392
  16 S :    0.409511
  17 C :   -0.168711
  18 C :   -0.055823
  19 C :   -0.059772
  20 C :   -0.208858
  21 H :    0.023418
  22 C :   -0.025469
  23 H :    0.028400
  24 H :    0.027629
  25 C :   -0.040188
  26 H :    0.031331
  27 H :    0.024147
  28 C :   -0.060983
  29 H :    0.028658
  30 H :    0.006921
  31 H :    0.031582
  32 H :    0.024314
  33 H :    0.013251

  Mayer bond orders larger than 0.100000
B(  0-S ,  1-C ) :   1.1052 B(  0-S ,  4-C ) :   1.1677 B(  1-C ,  2-C ) :   1.6317
B(  1-C , 32-H ) :   0.9752 B(  2-C ,  3-C ) :   1.2208 B(  2-C ,  6-C ) :   1.0224
B(  3-C ,  4-C ) :   1.5784 B(  3-C ,  5-H ) :   0.9882 B(  4-C , 20-C ) :   0.9919
B(  6-C ,  7-H ) :   0.9354 B(  6-C ,  8-H ) :   0.9232 B(  6-C ,  9-C ) :   1.0988
B(  9-C , 10-H ) :   0.9470 B(  9-C , 11-H ) :   0.9494 B(  9-C , 12-C ) :   1.0682
B( 12-C , 13-H ) :   0.9781 B( 12-C , 14-H ) :   0.9750 B( 12-C , 15-H ) :   0.9724
B( 16-S , 17-C ) :   1.1349 B( 16-S , 20-C ) :   1.1464 B( 17-C , 18-C ) :   1.6367
B( 17-C , 33-H ) :   0.9761 B( 18-C , 19-C ) :   1.2129 B( 18-C , 21-H ) :   0.9970
B( 19-C , 20-C ) :   1.6419 B( 19-C , 22-C ) :   1.0651 B( 22-C , 23-H ) :   0.9147
B( 22-C , 24-H ) :   0.9418 B( 22-C , 25-C ) :   1.0421 B( 25-C , 26-H ) :   0.9631
B( 25-C , 27-H ) :   0.9496 B( 25-C , 28-C ) :   1.0890 B( 28-C , 29-H ) :   0.9677
B( 28-C , 30-H ) :   0.9739 B( 28-C , 31-H ) :   0.9669

Dispersion correction           -0.014217325
FINAL SINGLE POINT ENERGY     -1339.869611739997

DIPOLE MOMENT
-------------
                                X             Y             Z
Electronic contribution:     -9.42258      17.59754       1.50240
Nuclear contribution   :      9.72101     -18.01507      -1.36017
                        -----------------------------------------
Total Dipole Moment    :      0.29843      -0.41752       0.14223
                        -----------------------------------------
Magnitude (a.u.)       :      0.53256
Magnitude (Debye)      :      1.35366

Rotational constants in cm-1:     0.021657     0.007976     0.006675
Rotational constants in MHz :   649.266595   239.128368   200.107129

                             ****ORCA TERMINATED NORMALLY****
TOTAL RUN TIME: 0 days 0 hours 0 minutes 21 seconds 758 msec
