                         Program Version 4.2.1 -  RELEASE  -
|  1> ! wB97X-D3 SP def2-SVP
|  2> %pal
|  3> nprocs 24
|  4> end
|  5>
|  6> * xyz 0 1
|  7> S 	 -146.049 	 3.2903 	 13.6663
|  8> C 	 -144.792 	 2.10581 	 13.1905
|  9> C 	 -143.834 	 2.75239 	 12.4856
| 10> C 	 -143.915 	 4.18782 	 12.5072
| 11> C 	 -145.056 	 4.66159 	 13.0968
| 12> H 	 -143.231 	 4.8693 	 12.0601
| 13> C 	 -142.754 	 1.94613 	 11.8048
| 14> H 	 -142.81 	 0.914747 	 12.1144
| 15> H 	 -141.773 	 2.27126 	 12.3224
| 16> C 	 -142.655 	 2.03387 	 10.291
| 17> H 	 -143.585 	 1.66371 	 9.87066
| 18> H 	 -142.486 	 3.08198 	 10.0977
| 19> C 	 -141.575 	 1.17218 	 9.65219
| 20> H 	 -140.777 	 1.29038 	 10.3161
| 21> H 	 -141.821 	 0.139086 	 9.76839
| 22> H 	 -141.27 	 1.30794 	 8.59156
| 23> S 	 -143.843 	 6.92934 	 14.1945
| 24> C 	 -144.81 	 8.31749 	 14.5061
| 25> C 	 -146.091 	 8.22693 	 13.9794
| 26> C 	 -146.32 	 6.93531 	 13.356
| 27> C 	 -145.234 	 6.06339 	 13.492
| 28> H 	 -146.733 	 9.11623 	 14.0075
| 29> C 	 -147.61 	 6.44801 	 12.7209
| 30> H 	 -148.471 	 6.85804 	 13.3469
| 31> H 	 -147.741 	 5.40181 	 12.9018
| 32> C 	 -147.676 	 6.6508 	 11.1821
| 33> H 	 -146.875 	 6.01585 	 10.7444
| 34> H 	 -147.531 	 7.70879 	 10.8916
| 35> C 	 -148.952 	 6.13491 	 10.6158
| 36> H 	 -148.84 	 5.83235 	 9.60854
| 37> H 	 -149.744 	 6.89769 	 10.4355
| 38> H 	 -149.333 	 5.24032 	 11.0891
| 39> H 	 -145.034 	 1.06338 	 13.1866
| 40> H 	 -144.338 	 9.18137 	 14.876
| 41> *
| 42>
| 43>                          ****END OF INPUT****

CARTESIAN COORDINATES (ANGSTROEM)
---------------------------------
  S    -146.049000    3.290300   13.666300
  C    -144.792000    2.105810   13.190500
  C    -143.834000    2.752390   12.485600
  C    -143.915000    4.187820   12.507200
  C    -145.056000    4.661590   13.096800
  H    -143.231000    4.869300   12.060100
  C    -142.754000    1.946130   11.804800
  H    -142.810000    0.914747   12.114400
  H    -141.773000    2.271260   12.322400
  C    -142.655000    2.033870   10.291000
  H    -143.585000    1.663710    9.870660
  H    -142.486000    3.081980   10.097700
  C    -141.575000    1.172180    9.652190
  H    -140.777000    1.290380   10.316100
  H    -141.821000    0.139086    9.768390
  H    -141.270000    1.307940    8.591560
  S    -143.843000    6.929340   14.194500
  C    -144.810000    8.317490   14.506100
  C    -146.091000    8.226930   13.979400
  C    -146.320000    6.935310   13.356000
  C    -145.234000    6.063390   13.492000
  H    -146.733000    9.116230   14.007500
  C    -147.610000    6.448010   12.720900
  H    -148.471000    6.858040   13.346900
  H    -147.741000    5.401810   12.901800
  C    -147.676000    6.650800   11.182100
  H    -146.875000    6.015850   10.744400
  H    -147.531000    7.708790   10.891600
  C    -148.952000    6.134910   10.615800
  H    -148.840000    5.832350    9.608540
  H    -149.744000    6.897690   10.435500
  H    -149.333000    5.240320   11.089100
  H    -145.034000    1.063380   13.186600
  H    -144.338000    9.181370   14.876000

 Total Charge           Charge          ....    0
 Multiplicity           Mult            ....    1
 Number of Electrons    NEL             ....  134
 Basis Dimension        Dim             ....  322

ORBITAL ENERGIES
----------------

  NO   OCC          E(Eh)            E(eV)
   0   2.0000     -88.965852     -2420.8839
   1   2.0000     -88.962511     -2420.7930
   2   2.0000     -10.334269      -281.2098
   3   2.0000     -10.328703      -281.0583
   4   2.0000     -10.315165      -280.6899
   5   2.0000     -10.314449      -280.6704
   6   2.0000     -10.308306      -280.5033
   7   2.0000     -10.303075      -280.3609
   8   2.0000     -10.301176      -280.3092
   9   2.0000     -10.295452      -280.1535
  10   2.0000     -10.294119      -280.1172
  11   2.0000     -10.292452      -280.0719
  12   2.0000     -10.287440      -279.9355
  13   2.0000     -10.284311      -279.8503
  14   2.0000     -10.272778      -279.5365
  15   2.0000     -10.268498      -279.4200
  16   2.0000      -8.080625      -219.8850
  17   2.0000      -8.076158      -219.7634
  18   2.0000      -6.039077      -164.3316
  19   2.0000      -6.035122      -164.2240
  20   2.0000      -6.034965      -164.2197
  21   2.0000      -6.031454      -164.1242
  22   2.0000      -6.030881      -164.1086
  23   2.0000      -6.026599      -163.9921
  24   2.0000      -1.003199       -27.2984
  25   2.0000      -0.982294       -26.7296
  26   2.0000      -0.915092       -24.9009
  27   2.0000      -0.908342       -24.7172
  28   2.0000      -0.873454       -23.7679
  29   2.0000      -0.853754       -23.2318
  30   2.0000      -0.845697       -23.0126
  31   2.0000      -0.816981       -22.2312
  32   2.0000      -0.781779       -21.2733
  33   2.0000      -0.770800       -20.9745
  34   2.0000      -0.709355       -19.3025
  35   2.0000      -0.698352       -19.0031
  36   2.0000      -0.690846       -18.7989
  37   2.0000      -0.665681       -18.1141
  38   2.0000      -0.641395       -17.4532
  39   2.0000      -0.619459       -16.8563
  40   2.0000      -0.598056       -16.2739
  41   2.0000      -0.574065       -15.6211
  42   2.0000      -0.564780       -15.3684
  43   2.0000      -0.559660       -15.2291
  44   2.0000      -0.527584       -14.3563
  45   2.0000      -0.522728       -14.2241
  46   2.0000      -0.519987       -14.1496
  47   2.0000      -0.517918       -14.0933
  48   2.0000      -0.511107       -13.9079
  49   2.0000      -0.507398       -13.8070
  50   2.0000      -0.487284       -13.2597
  51   2.0000      -0.477726       -12.9996
  52   2.0000      -0.470809       -12.8114
  53   2.0000      -0.460298       -12.5254
  54   2.0000      -0.456901       -12.4329
  55   2.0000      -0.452770       -12.3205
  56   2.0000      -0.451875       -12.2961
  57   2.0000      -0.436324       -11.8730
  58   2.0000      -0.428481       -11.6596
  59   2.0000      -0.423397       -11.5212
  60   2.0000      -0.416066       -11.3217
  61   2.0000      -0.410990       -11.1836
  62   2.0000      -0.406358       -11.0576
  63   2.0000      -0.348810        -9.4916
  64   2.0000      -0.331202        -9.0125
  65   2.0000      -0.329453        -8.9649
  66   2.0000      -0.295405        -8.0384
  67   0.0000       0.025968         0.7066
  68   0.0000       0.066802         1.8178
  69   0.0000       0.102872         2.7993
  70   0.0000       0.115109         3.1323
  71   0.0000       0.125618         3.4182

MULLIKEN ATOMIC CHARGES
-----------------------
   0 S :    0.070070
   1 C :   -0.122567
   2 C :   -0.058614
   3 C :    0.000942
   4 C :   -0.097704
   5 H :    0.009306
   6 C :    0.016979
   7 H :    0.004194
   8 H :    0.039250
   9 C :   -0.045929
  10 H :    0.027513
  11 H :    0.028168
  12 C :   -0.017114
  13 H :    0.003020
  14 H :    0.014536
  15 H :    0.052479
  16 S :    0.105788
  17 C :   -0.084746
  18 C :   -0.029424
  19 C :   -0.035605
  20 C :   -0.155472
  21 H :    0.030233
  22 C :    0.047374
  23 H :    0.036707
  24 H :    0.002119
  25 C :   -0.065747
  26 H :    0.040871
  27 H :    0.035820
  28 C :   -0.021345
  29 H :    0.008963
  30 H :    0.030306
  31 H :    0.026583
  32 H :    0.056518
  33 H :    0.046527
Sum of atomic charges:   -0.0000000

LOEWDIN ATOMIC CHARGES
----------------------
   0 S :    0.363816
   1 C :   -0.174965
   2 C :   -0.059969
   3 C :   -0.065762
   4 C :   -0.171694
   5 H :    0.026367
   6 C :   -0.036306
   7 H :    0.022142
   8 H :    0.038016
   9 C :   -0.037326
  10 H :    0.024280
  11 H :    0.022353
  12 C :   -0.064552
  13 H :    0.016159
  14 H :    0.021897
  15 H :    0.035239
  16 S :    0.409346
  17 C :   -0.181761
  18 C :   -0.073171
  19 C :   -0.049248
  20 C :   -0.190654
  21 H :    0.037418
  22 C :   -0.039238
  23 H :    0.037414
  24 H :    0.016702
  25 C :   -0.038226
  26 H :    0.033843
  27 H :    0.028187
  28 C :   -0.073452
  29 H :    0.021923
  30 H :    0.030126
  31 H :    0.025472
  32 H :    0.026927
  33 H :    0.018697

  Mayer bond orders larger than 0.100000
B(  0-S ,  1-C ) :   1.1072 B(  0-S ,  4-C ) :   1.1318 B(  1-C ,  2-C ) :   1.6462
B(  1-C , 32-H ) :   0.9693 B(  2-C ,  3-C ) :   1.1920 B(  2-C ,  6-C ) :   1.0320
B(  3-C ,  4-C ) :   1.5862 B(  3-C ,  5-H ) :   1.0051 B(  4-C , 20-C ) :   1.0511
B(  6-C ,  7-H ) :   0.9438 B(  6-C ,  8-H ) :   0.9300 B(  6-C ,  9-C ) :   1.0591
B(  9-C , 10-H ) :   0.9569 B(  9-C , 11-H ) :   0.9558 B(  9-C , 12-C ) :   1.0787
B( 12-C , 13-H ) :   0.9708 B( 12-C , 14-H ) :   0.9718 B( 12-C , 15-H ) :   0.9750
B( 16-S , 17-C ) :   1.1758 B( 16-S , 20-C ) :   1.1275 B( 17-C , 18-C ) :   1.5896
B( 17-C , 33-H ) :   0.9720 B( 18-C , 19-C ) :   1.2370 B( 18-C , 21-H ) :   0.9941
B( 19-C , 20-C ) :   1.5791 B( 19-C , 22-C ) :   1.0496 B( 22-C , 23-H ) :   0.9406
B( 22-C , 24-H ) :   0.9271 B( 22-C , 25-C ) :   1.0550 B( 25-C , 26-H ) :   0.9540
B( 25-C , 27-H ) :   0.9582 B( 25-C , 28-C ) :   1.0921 B( 28-C , 29-H ) :   0.9679
B( 28-C , 30-H ) :   0.9716 B( 28-C , 31-H ) :   0.9689

Dispersion correction           -0.013795942
FINAL SINGLE POINT ENERGY     -1339.873865016363

DIPOLE MOMENT
-------------
                                X             Y             Z
Electronic contribution:      1.37208       8.27708      20.38441
Nuclear contribution   :     -1.29040      -8.27354     -20.87441
                        -----------------------------------------
Total Dipole Moment    :      0.08168       0.00354      -0.49000
                        -----------------------------------------
Magnitude (a.u.)       :      0.49677
Magnitude (Debye)      :      1.26269

Rotational constants in cm-1:     0.018326     0.007886     0.006765
Rotational constants in MHz :   549.409652   236.409199   202.808292

                             ****ORCA TERMINATED NORMALLY****
TOTAL RUN TIME: 0 days 0 hours 0 minutes 20 seconds 104 msec
