                         Program Version 4.2.1 -  RELEASE  -
|  1> ! wB97X-D3 SP def2-SVP
|  2> %pal
|  3> nprocs 24
|  4> end
|  5>
|  6> * xyz 0 1
|  7> S 	 33.8831 	 -29.919 	 -130.244
|  8> C 	 35.0587 	 -30.491 	 -131.399
|  9> C 	 35.7259 	 -31.6478 	 -130.814
| 10> C 	 35.3663 	 -31.923 	 -129.444
| 11> C 	 34.3423 	 -31.0692 	 -129.028
| 12> H 	 35.785 	 -32.6871 	 -128.811
| 13> C 	 36.7921 	 -32.4893 	 -131.643
| 14> H 	 36.8395 	 -31.9577 	 -132.665
| 15> H 	 36.3257 	 -33.4338 	 -131.791
| 16> C 	 38.1308 	 -32.749 	 -131.011
| 17> H 	 38.2247 	 -33.4414 	 -130.18
| 18> H 	 38.7387 	 -33.1642 	 -131.856
| 19> C 	 38.8117 	 -31.4765 	 -130.47
| 20> H 	 38.3554 	 -31.3431 	 -129.54
| 21> H 	 39.9009 	 -31.6486 	 -130.346
| 22> H 	 38.6486 	 -30.6984 	 -131.155
| 23> S 	 31.7447 	 -31.2758 	 -127.932
| 24> C 	 31.5649 	 -30.9104 	 -126.283
| 25> C 	 32.7741 	 -30.6359 	 -125.722
| 26> C 	 33.929 	 -30.9329 	 -126.535
| 27> C 	 33.5097 	 -31.1238 	 -127.813
| 28> H 	 32.7654 	 -30.3429 	 -124.702
| 29> C 	 35.4676 	 -30.9515 	 -126.007
| 30> H 	 35.5568 	 -30.0427 	 -125.327
| 31> H 	 36.0216 	 -30.741 	 -126.896
| 32> C 	 35.9768 	 -32.2713 	 -125.322
| 33> H 	 36.9729 	 -32.1832 	 -125.057
| 34> H 	 36.0712 	 -32.9695 	 -126.142
| 35> C 	 35.1441 	 -32.8867 	 -124.109
| 36> H 	 34.9689 	 -32.1109 	 -123.313
| 37> H 	 35.6962 	 -33.6455 	 -123.64
| 38> H 	 34.2664 	 -33.4958 	 -124.488
| 39> H 	 35.1481 	 -30.1137 	 -132.403
| 40> H 	 30.6488 	 -30.6626 	 -125.827
| 41> *
| 42>
| 43>                          ****END OF INPUT****

CARTESIAN COORDINATES (ANGSTROEM)
---------------------------------
  S     33.883100  -29.919000  -130.244000
  C     35.058700  -30.491000  -131.399000
  C     35.725900  -31.647800  -130.814000
  C     35.366300  -31.923000  -129.444000
  C     34.342300  -31.069200  -129.028000
  H     35.785000  -32.687100  -128.811000
  C     36.792100  -32.489300  -131.643000
  H     36.839500  -31.957700  -132.665000
  H     36.325700  -33.433800  -131.791000
  C     38.130800  -32.749000  -131.011000
  H     38.224700  -33.441400  -130.180000
  H     38.738700  -33.164200  -131.856000
  C     38.811700  -31.476500  -130.470000
  H     38.355400  -31.343100  -129.540000
  H     39.900900  -31.648600  -130.346000
  H     38.648600  -30.698400  -131.155000
  S     31.744700  -31.275800  -127.932000
  C     31.564900  -30.910400  -126.283000
  C     32.774100  -30.635900  -125.722000
  C     33.929000  -30.932900  -126.535000
  C     33.509700  -31.123800  -127.813000
  H     32.765400  -30.342900  -124.702000
  C     35.467600  -30.951500  -126.007000
  H     35.556800  -30.042700  -125.327000
  H     36.021600  -30.741000  -126.896000
  C     35.976800  -32.271300  -125.322000
  H     36.972900  -32.183200  -125.057000
  H     36.071200  -32.969500  -126.142000
  C     35.144100  -32.886700  -124.109000
  H     34.968900  -32.110900  -123.313000
  H     35.696200  -33.645500  -123.640000
  H     34.266400  -33.495800  -124.488000
  H     35.148100  -30.113700  -132.403000
  H     30.648800  -30.662600  -125.827000

 Total Charge           Charge          ....    0
 Multiplicity           Mult            ....    1
 Number of Electrons    NEL             ....  134
 Basis Dimension        Dim             ....  322

ORBITAL ENERGIES
----------------

  NO   OCC          E(Eh)            E(eV)
   0   2.0000     -88.967316     -2420.9237
   1   2.0000     -88.962337     -2420.7883
   2   2.0000     -10.331342      -281.1301
   3   2.0000     -10.324181      -280.9353
   4   2.0000     -10.319482      -280.8074
   5   2.0000     -10.313759      -280.6517
   6   2.0000     -10.307073      -280.4697
   7   2.0000     -10.306210      -280.4462
   8   2.0000     -10.306030      -280.4413
   9   2.0000     -10.300075      -280.2793
  10   2.0000     -10.298955      -280.2488
  11   2.0000     -10.291164      -280.0368
  12   2.0000     -10.287467      -279.9362
  13   2.0000     -10.286756      -279.9169
  14   2.0000     -10.286336      -279.9054
  15   2.0000     -10.265988      -279.3517
  16   2.0000      -8.082056      -219.9239
  17   2.0000      -8.077886      -219.8105
  18   2.0000      -6.040432      -164.3685
  19   2.0000      -6.036366      -164.2579
  20   2.0000      -6.036352      -164.2575
  21   2.0000      -6.033151      -164.1704
  22   2.0000      -6.032381      -164.1494
  23   2.0000      -6.028508      -164.0441
  24   2.0000      -1.006752       -27.3951
  25   2.0000      -0.981224       -26.7005
  26   2.0000      -0.909543       -24.7499
  27   2.0000      -0.894904       -24.3516
  28   2.0000      -0.865262       -23.5450
  29   2.0000      -0.846631       -23.0380
  30   2.0000      -0.840914       -22.8824
  31   2.0000      -0.812014       -22.0960
  32   2.0000      -0.786843       -21.4111
  33   2.0000      -0.774589       -21.0776
  34   2.0000      -0.708154       -19.2699
  35   2.0000      -0.697545       -18.9812
  36   2.0000      -0.688010       -18.7217
  37   2.0000      -0.655126       -17.8269
  38   2.0000      -0.640479       -17.4283
  39   2.0000      -0.617590       -16.8055
  40   2.0000      -0.584885       -15.9155
  41   2.0000      -0.566499       -15.4152
  42   2.0000      -0.556838       -15.1523
  43   2.0000      -0.553316       -15.0565
  44   2.0000      -0.542357       -14.7583
  45   2.0000      -0.540354       -14.7038
  46   2.0000      -0.520661       -14.1679
  47   2.0000      -0.507886       -13.8203
  48   2.0000      -0.501707       -13.6521
  49   2.0000      -0.494824       -13.4649
  50   2.0000      -0.486694       -13.2436
  51   2.0000      -0.473649       -12.8886
  52   2.0000      -0.468879       -12.7588
  53   2.0000      -0.468028       -12.7357
  54   2.0000      -0.459076       -12.4921
  55   2.0000      -0.444253       -12.0887
  56   2.0000      -0.442582       -12.0433
  57   2.0000      -0.440584       -11.9889
  58   2.0000      -0.434362       -11.8196
  59   2.0000      -0.427639       -11.6366
  60   2.0000      -0.419858       -11.4249
  61   2.0000      -0.413758       -11.2589
  62   2.0000      -0.402407       -10.9500
  63   2.0000      -0.343570        -9.3490
  64   2.0000      -0.333530        -9.0758
  65   2.0000      -0.323856        -8.8126
  66   2.0000      -0.293722        -7.9926
  67   0.0000       0.034188         0.9303
  68   0.0000       0.067350         1.8327
  69   0.0000       0.116014         3.1569
  70   0.0000       0.124816         3.3964
  71   0.0000       0.127908         3.4806

MULLIKEN ATOMIC CHARGES
-----------------------
   0 S :    0.120544
   1 C :   -0.127956
   2 C :   -0.138587
   3 C :    0.050361
   4 C :   -0.170012
   5 H :    0.012829
   6 C :    0.074662
   7 H :    0.036026
   8 H :    0.034158
   9 C :   -0.116629
  10 H :    0.029400
  11 H :    0.035317
  12 C :   -0.009200
  13 H :    0.022529
  14 H :    0.034791
  15 H :    0.021186
  16 S :    0.114473
  17 C :   -0.071087
  18 C :   -0.036285
  19 C :   -0.032592
  20 C :   -0.173092
  21 H :    0.003186
  22 C :    0.062087
  23 H :    0.040013
  24 H :    0.027031
  25 C :   -0.032824
  26 H :    0.016049
  27 H :    0.011696
  28 C :   -0.060128
  29 H :    0.047905
  30 H :    0.017536
  31 H :    0.055399
  32 H :    0.056115
  33 H :    0.045101
Sum of atomic charges:    0.0000000

LOEWDIN ATOMIC CHARGES
----------------------
   0 S :    0.429613
   1 C :   -0.218709
   2 C :   -0.053732
   3 C :   -0.071309
   4 C :   -0.191046
   5 H :    0.030972
   6 C :   -0.034126
   7 H :    0.039709
   8 H :    0.029661
   9 C :   -0.050657
  10 H :    0.021867
  11 H :    0.030409
  12 C :   -0.053071
  13 H :    0.017091
  14 H :    0.029571
  15 H :    0.016834
  16 S :    0.407473
  17 C :   -0.196511
  18 C :   -0.068463
  19 C :   -0.050661
  20 C :   -0.200559
  21 H :    0.023092
  22 C :   -0.020633
  23 H :    0.034828
  24 H :    0.025593
  25 C :   -0.036363
  26 H :    0.016669
  27 H :    0.021847
  28 C :   -0.071409
  29 H :    0.033408
  30 H :    0.018242
  31 H :    0.040087
  32 H :    0.026724
  33 H :    0.023559

  Mayer bond orders larger than 0.100000
B(  0-S ,  1-C ) :   1.1498 B(  0-S ,  4-C ) :   1.1933 B(  1-C ,  2-C ) :   1.5588
B(  1-C ,  4-C ) :   0.1072 B(  1-C , 32-H ) :   0.9737 B(  2-C ,  3-C ) :   1.2680
B(  2-C ,  6-C ) :   1.0083 B(  3-C ,  4-C ) :   1.5309 B(  3-C ,  5-H ) :   0.9955
B(  4-C , 20-C ) :   1.0168 B(  6-C ,  7-H ) :   0.9443 B(  6-C ,  8-H ) :   0.9365
B(  6-C ,  9-C ) :   1.0760 B(  9-C , 10-H ) :   0.9577 B(  9-C , 11-H ) :   0.9531
B(  9-C , 12-C ) :   1.0767 B( 12-C , 13-H ) :   0.9736 B( 12-C , 14-H ) :   0.9747
B( 12-C , 15-H ) :   0.9784 B( 16-S , 17-C ) :   1.1402 B( 16-S , 20-C ) :   1.1437
B( 17-C , 18-C ) :   1.6473 B( 17-C , 33-H ) :   0.9686 B( 18-C , 19-C ) :   1.2178
B( 18-C , 21-H ) :   0.9913 B( 19-C , 20-C ) :   1.6254 B( 19-C , 22-C ) :   1.0093
B( 22-C , 23-H ) :   0.9463 B( 22-C , 24-H ) :   0.9343 B( 22-C , 25-C ) :   1.0691
B( 25-C , 26-H ) :   0.9547 B( 25-C , 27-H ) :   0.9523 B( 25-C , 28-C ) :   1.0725
B( 28-C , 29-H ) :   0.9769 B( 28-C , 30-H ) :   0.9723 B( 28-C , 31-H ) :   0.9741

Dispersion correction           -0.014819865
FINAL SINGLE POINT ENERGY     -1339.851418728863

DIPOLE MOMENT
-------------
                                X             Y             Z
Electronic contribution:    -25.15904       9.91626      -7.28929
Nuclear contribution   :     25.67534     -10.17782       7.53628
                        -----------------------------------------
Total Dipole Moment    :      0.51630      -0.26156       0.24699
                        -----------------------------------------
Magnitude (a.u.)       :      0.62927
Magnitude (Debye)      :      1.59949

Rotational constants in cm-1:     0.018503     0.009279     0.006749
Rotational constants in MHz :   554.696153   278.166675   202.330929

                             ****ORCA TERMINATED NORMALLY****
TOTAL RUN TIME: 0 days 0 hours 0 minutes 21 seconds 813 msec
