                         Program Version 4.2.1 -  RELEASE  -
|  1> ! wB97X-D3 SP def2-SVP
|  2> %pal
|  3> nprocs 24
|  4> end
|  5>
|  6> * xyz 0 1
|  7> S 	 -124.895 	 53.2187 	 -31.5201
|  8> C 	 -123.795 	 52.9318 	 -30.1839
|  9> C 	 -122.523 	 52.8954 	 -30.6604
| 10> C 	 -122.333 	 53.2902 	 -32.0399
| 11> C 	 -123.536 	 53.6553 	 -32.6305
| 12> H 	 -121.456 	 53.386 	 -32.5951
| 13> C 	 -121.331 	 52.39 	 -29.8975
| 14> H 	 -120.682 	 51.7182 	 -30.5569
| 15> H 	 -121.756 	 51.7459 	 -29.129
| 16> C 	 -120.546 	 53.519 	 -29.2096
| 17> H 	 -120.233 	 54.2602 	 -29.9946
| 18> H 	 -121.089 	 54.1183 	 -28.4857
| 19> C 	 -119.383 	 52.89 	 -28.4851
| 20> H 	 -118.766 	 53.6761 	 -28.2012
| 21> H 	 -119.672 	 52.3906 	 -27.5855
| 22> H 	 -118.741 	 52.2029 	 -29.069
| 23> S 	 -123.809 	 52.723 	 -35.1301
| 24> C 	 -123.859 	 53.8039 	 -36.5129
| 25> C 	 -123.823 	 55.0978 	 -36.0826
| 26> C 	 -123.568 	 55.2256 	 -34.715
| 27> C 	 -123.714 	 54.0401 	 -34.0212
| 28> H 	 -123.87 	 55.8559 	 -36.7745
| 29> C 	 -123.468 	 56.5287 	 -33.9307
| 30> H 	 -124.043 	 56.5319 	 -32.9839
| 31> H 	 -123.857 	 57.2892 	 -34.5981
| 32> C 	 -122.089 	 57.0801 	 -33.6476
| 33> H 	 -121.608 	 57.0044 	 -34.603
| 34> H 	 -121.49 	 56.4851 	 -32.9461
| 35> C 	 -122.078 	 58.4984 	 -33.058
| 36> H 	 -121.105 	 58.9017 	 -33.2737
| 37> H 	 -122.318 	 58.5177 	 -32.0154
| 38> H 	 -122.863 	 59.1283 	 -33.513
| 39> H 	 -124.182 	 52.8423 	 -29.2081
| 40> H 	 -124.273 	 53.4467 	 -37.4757
| 41> *
| 42>
| 43>                          ****END OF INPUT****

CARTESIAN COORDINATES (ANGSTROEM)
---------------------------------
  S    -124.895000   53.218700  -31.520100
  C    -123.795000   52.931800  -30.183900
  C    -122.523000   52.895400  -30.660400
  C    -122.333000   53.290200  -32.039900
  C    -123.536000   53.655300  -32.630500
  H    -121.456000   53.386000  -32.595100
  C    -121.331000   52.390000  -29.897500
  H    -120.682000   51.718200  -30.556900
  H    -121.756000   51.745900  -29.129000
  C    -120.546000   53.519000  -29.209600
  H    -120.233000   54.260200  -29.994600
  H    -121.089000   54.118300  -28.485700
  C    -119.383000   52.890000  -28.485100
  H    -118.766000   53.676100  -28.201200
  H    -119.672000   52.390600  -27.585500
  H    -118.741000   52.202900  -29.069000
  S    -123.809000   52.723000  -35.130100
  C    -123.859000   53.803900  -36.512900
  C    -123.823000   55.097800  -36.082600
  C    -123.568000   55.225600  -34.715000
  C    -123.714000   54.040100  -34.021200
  H    -123.870000   55.855900  -36.774500
  C    -123.468000   56.528700  -33.930700
  H    -124.043000   56.531900  -32.983900
  H    -123.857000   57.289200  -34.598100
  C    -122.089000   57.080100  -33.647600
  H    -121.608000   57.004400  -34.603000
  H    -121.490000   56.485100  -32.946100
  C    -122.078000   58.498400  -33.058000
  H    -121.105000   58.901700  -33.273700
  H    -122.318000   58.517700  -32.015400
  H    -122.863000   59.128300  -33.513000
  H    -124.182000   52.842300  -29.208100
  H    -124.273000   53.446700  -37.475700

 Total Charge           Charge          ....    0
 Multiplicity           Mult            ....    1
 Number of Electrons    NEL             ....  134
 Basis Dimension        Dim             ....  322

ORBITAL ENERGIES
----------------

  NO   OCC          E(Eh)            E(eV)
   0   2.0000     -88.961055     -2420.7534
   1   2.0000     -88.960191     -2420.7299
   2   2.0000     -10.332423      -281.1595
   3   2.0000     -10.321093      -280.8512
   4   2.0000     -10.316177      -280.7174
   5   2.0000     -10.312401      -280.6147
   6   2.0000     -10.300039      -280.2783
   7   2.0000     -10.299180      -280.2549
   8   2.0000     -10.293978      -280.1134
   9   2.0000     -10.292521      -280.0737
  10   2.0000     -10.288257      -279.9577
  11   2.0000     -10.287997      -279.9506
  12   2.0000     -10.286062      -279.8980
  13   2.0000     -10.277868      -279.6750
  14   2.0000     -10.274119      -279.5730
  15   2.0000     -10.269055      -279.4352
  16   2.0000      -8.075777      -219.7531
  17   2.0000      -8.075237      -219.7384
  18   2.0000      -6.034159      -164.1978
  19   2.0000      -6.033903      -164.1908
  20   2.0000      -6.029993      -164.0845
  21   2.0000      -6.029891      -164.0817
  22   2.0000      -6.026784      -163.9971
  23   2.0000      -6.025787      -163.9700
  24   2.0000      -1.009412       -27.4675
  25   2.0000      -0.984621       -26.7929
  26   2.0000      -0.912422       -24.8283
  27   2.0000      -0.909713       -24.7545
  28   2.0000      -0.876727       -23.8570
  29   2.0000      -0.850330       -23.1386
  30   2.0000      -0.847960       -23.0742
  31   2.0000      -0.819713       -22.3055
  32   2.0000      -0.779091       -21.2001
  33   2.0000      -0.767455       -20.8835
  34   2.0000      -0.706344       -19.2206
  35   2.0000      -0.699609       -19.0373
  36   2.0000      -0.689688       -18.7674
  37   2.0000      -0.667572       -18.1656
  38   2.0000      -0.654246       -17.8029
  39   2.0000      -0.617282       -16.7971
  40   2.0000      -0.597737       -16.2653
  41   2.0000      -0.573538       -15.6068
  42   2.0000      -0.567192       -15.4341
  43   2.0000      -0.558923       -15.2091
  44   2.0000      -0.529987       -14.4217
  45   2.0000      -0.525186       -14.2910
  46   2.0000      -0.521598       -14.1934
  47   2.0000      -0.520204       -14.1555
  48   2.0000      -0.511074       -13.9070
  49   2.0000      -0.500651       -13.6234
  50   2.0000      -0.493524       -13.4295
  51   2.0000      -0.476286       -12.9604
  52   2.0000      -0.470402       -12.8003
  53   2.0000      -0.462650       -12.5894
  54   2.0000      -0.461703       -12.5636
  55   2.0000      -0.450399       -12.2560
  56   2.0000      -0.444922       -12.1069
  57   2.0000      -0.433901       -11.8071
  58   2.0000      -0.430900       -11.7254
  59   2.0000      -0.423818       -11.5327
  60   2.0000      -0.419044       -11.4028
  61   2.0000      -0.410738       -11.1768
  62   2.0000      -0.405842       -11.0435
  63   2.0000      -0.340233        -9.2582
  64   2.0000      -0.326742        -8.8911
  65   2.0000      -0.316549        -8.6137
  66   2.0000      -0.311627        -8.4798
  67   0.0000       0.041408         1.1268
  68   0.0000       0.047645         1.2965
  69   0.0000       0.107409         2.9228
  70   0.0000       0.122535         3.3344
  71   0.0000       0.132722         3.6115

MULLIKEN ATOMIC CHARGES
-----------------------
   0 S :    0.084871
   1 C :   -0.108692
   2 C :   -0.057769
   3 C :    0.076153
   4 C :   -0.155785
   5 H :   -0.000786
   6 C :    0.029292
   7 H :    0.046974
   8 H :    0.015888
   9 C :   -0.085527
  10 H :    0.030698
  11 H :    0.027834
  12 C :   -0.000118
  13 H :    0.011945
  14 H :    0.025319
  15 H :    0.027249
  16 S :    0.103678
  17 C :   -0.104309
  18 C :    0.001612
  19 C :   -0.007059
  20 C :   -0.184914
  21 H :   -0.011978
  22 C :    0.056558
  23 H :    0.039843
  24 H :    0.003269
  25 C :   -0.077899
  26 H :    0.013959
  27 H :    0.023977
  28 C :   -0.028429
  29 H :    0.037014
  30 H :    0.032629
  31 H :    0.019293
  32 H :    0.040077
  33 H :    0.075133
Sum of atomic charges:   -0.0000000

LOEWDIN ATOMIC CHARGES
----------------------
   0 S :    0.371320
   1 C :   -0.181871
   2 C :   -0.064367
   3 C :   -0.043694
   4 C :   -0.179135
   5 H :    0.024810
   6 C :   -0.036926
   7 H :    0.040639
   8 H :    0.026854
   9 C :   -0.039418
  10 H :    0.026162
  11 H :    0.026015
  12 C :   -0.061557
  13 H :    0.017810
  14 H :    0.022833
  15 H :    0.026570
  16 S :    0.418585
  17 C :   -0.188881
  18 C :   -0.060992
  19 C :   -0.057903
  20 C :   -0.205378
  21 H :    0.019744
  22 C :   -0.031648
  23 H :    0.033284
  24 H :    0.026988
  25 C :   -0.042225
  26 H :    0.018189
  27 H :    0.020603
  28 C :   -0.060391
  29 H :    0.027836
  30 H :    0.023719
  31 H :    0.023440
  32 H :    0.022576
  33 H :    0.036412

  Mayer bond orders larger than 0.100000
B(  0-S ,  1-C ) :   1.1241 B(  0-S ,  4-C ) :   1.1327 B(  1-C ,  2-C ) :   1.6239
B(  1-C , 32-H ) :   0.9829 B(  2-C ,  3-C ) :   1.1980 B(  2-C ,  6-C ) :   1.0187
B(  3-C ,  4-C ) :   1.5998 B(  3-C ,  5-H ) :   1.0068 B(  4-C , 20-C ) :   1.0061
B(  6-C ,  7-H ) :   0.9490 B(  6-C ,  8-H ) :   0.9415 B(  6-C ,  9-C ) :   1.0614
B(  9-C , 10-H ) :   0.9582 B(  9-C , 11-H ) :   0.9526 B(  9-C , 12-C ) :   1.0865
B( 12-C , 13-H ) :   0.9688 B( 12-C , 14-H ) :   0.9725 B( 12-C , 15-H ) :   0.9730
B( 16-S , 17-C ) :   1.1647 B( 16-S , 20-C ) :   1.1753 B( 17-C , 18-C ) :   1.5923
B( 17-C , 20-C ) :   0.1082 B( 17-C , 33-H ) :   0.9578 B( 18-C , 19-C ) :   1.2604
B( 18-C , 21-H ) :   0.9997 B( 19-C , 20-C ) :   1.5803 B( 19-C , 22-C ) :   1.0424
B( 22-C , 23-H ) :   0.9437 B( 22-C , 24-H ) :   0.9285 B( 22-C , 25-C ) :   1.0683
B( 25-C , 26-H ) :   0.9546 B( 25-C , 27-H ) :   0.9501 B( 25-C , 28-C ) :   1.0822
B( 28-C , 29-H ) :   0.9746 B( 28-C , 30-H ) :   0.9747 B( 28-C , 31-H ) :   0.9738

Dispersion correction           -0.013949332
FINAL SINGLE POINT ENERGY     -1339.866036108888

DIPOLE MOMENT
-------------
                                X             Y             Z
Electronic contribution:    -19.82726     -14.72429     -13.89480
Nuclear contribution   :     20.24430      15.00907      14.10154
                        -----------------------------------------
Total Dipole Moment    :      0.41703       0.28478       0.20673
                        -----------------------------------------
Magnitude (a.u.)       :      0.54567
Magnitude (Debye)      :      1.38698

Rotational constants in cm-1:     0.017275     0.008560     0.006910
Rotational constants in MHz :   517.895518   256.627743   207.162058

                             ****ORCA TERMINATED NORMALLY****
TOTAL RUN TIME: 0 days 0 hours 0 minutes 21 seconds 454 msec
