                         Program Version 4.2.1 -  RELEASE  -
|  1> ! wB97X-D3 SP def2-SVP
|  2> %pal
|  3> nprocs 24
|  4> end
|  5>
|  6> * xyz 0 1
|  7> S 	 -86.58 	 -3.67468 	 -114.815
|  8> C 	 -86.4003 	 -3.51556 	 -116.534
|  9> C 	 -87.6204 	 -3.21991 	 -117.248
| 10> C 	 -88.6516 	 -3.15829 	 -116.335
| 11> C 	 -88.2994 	 -3.37112 	 -115.026
| 12> H 	 -89.6166 	 -2.9147 	 -116.536
| 13> C 	 -87.6687 	 -3.00529 	 -118.729
| 14> H 	 -87.9359 	 -3.90297 	 -119.205
| 15> H 	 -86.6574 	 -2.83158 	 -119.089
| 16> C 	 -88.5789 	 -1.95505 	 -119.291
| 17> H 	 -88.8563 	 -2.09168 	 -120.346
| 18> H 	 -89.5898 	 -1.94088 	 -118.76
| 19> C 	 -87.8857 	 -0.614159 	 -118.977
| 20> H 	 -87.6468 	 -0.532171 	 -117.927
| 21> H 	 -86.9788 	 -0.275184 	 -119.586
| 22> H 	 -88.5481 	 0.208657 	 -119.077
| 23> S 	 -88.846 	 -4.40606 	 -112.58
| 24> C 	 -90.3293 	 -4.18454 	 -111.8
| 25> C 	 -90.9142 	 -3.10364 	 -112.371
| 26> C 	 -90.2792 	 -2.53099 	 -113.563
| 27> C 	 -89.0997 	 -3.23139 	 -113.849
| 28> H 	 -91.8582 	 -2.82049 	 -112.013
| 29> C 	 -90.9249 	 -1.46242 	 -114.411
| 30> H 	 -91.9564 	 -1.45655 	 -114.254
| 31> H 	 -90.764 	 -1.42059 	 -115.467
| 32> C 	 -90.5381 	 -0.00600573 	 -113.978
| 33> H 	 -91.0189 	 0.11313 	 -113.003
| 34> H 	 -91.2054 	 0.640163 	 -114.577
| 35> C 	 -89.0583 	 0.407914 	 -114.141
| 36> H 	 -88.7364 	 1.42533 	 -113.88
| 37> H 	 -88.8408 	 0.33967 	 -115.252
| 38> H 	 -88.3935 	 -0.221797 	 -113.568
| 39> H 	 -85.4397 	 -3.57667 	 -117.028
| 40> H 	 -90.7523 	 -4.73033 	 -110.893
| 41> *
| 42>
| 43>                          ****END OF INPUT****

CARTESIAN COORDINATES (ANGSTROEM)
---------------------------------
  S    -86.580000   -3.674680  -114.815000
  C    -86.400300   -3.515560  -116.534000
  C    -87.620400   -3.219910  -117.248000
  C    -88.651600   -3.158290  -116.335000
  C    -88.299400   -3.371120  -115.026000
  H    -89.616600   -2.914700  -116.536000
  C    -87.668700   -3.005290  -118.729000
  H    -87.935900   -3.902970  -119.205000
  H    -86.657400   -2.831580  -119.089000
  C    -88.578900   -1.955050  -119.291000
  H    -88.856300   -2.091680  -120.346000
  H    -89.589800   -1.940880  -118.760000
  C    -87.885700   -0.614159  -118.977000
  H    -87.646800   -0.532171  -117.927000
  H    -86.978800   -0.275184  -119.586000
  H    -88.548100    0.208657  -119.077000
  S    -88.846000   -4.406060  -112.580000
  C    -90.329300   -4.184540  -111.800000
  C    -90.914200   -3.103640  -112.371000
  C    -90.279200   -2.530990  -113.563000
  C    -89.099700   -3.231390  -113.849000
  H    -91.858200   -2.820490  -112.013000
  C    -90.924900   -1.462420  -114.411000
  H    -91.956400   -1.456550  -114.254000
  H    -90.764000   -1.420590  -115.467000
  C    -90.538100   -0.006006  -113.978000
  H    -91.018900    0.113130  -113.003000
  H    -91.205400    0.640163  -114.577000
  C    -89.058300    0.407914  -114.141000
  H    -88.736400    1.425330  -113.880000
  H    -88.840800    0.339670  -115.252000
  H    -88.393500   -0.221797  -113.568000
  H    -85.439700   -3.576670  -117.028000
  H    -90.752300   -4.730330  -110.893000

 Total Charge           Charge          ....    0
 Multiplicity           Mult            ....    1
 Number of Electrons    NEL             ....  134
 Basis Dimension        Dim             ....  322

ORBITAL ENERGIES
----------------

  NO   OCC          E(Eh)            E(eV)
   0   2.0000     -88.971030     -2421.0248
   1   2.0000     -88.958361     -2420.6801
   2   2.0000     -10.325801      -280.9793
   3   2.0000     -10.325355      -280.9672
   4   2.0000     -10.317214      -280.7457
   5   2.0000     -10.315138      -280.6892
   6   2.0000     -10.309105      -280.5250
   7   2.0000     -10.303335      -280.3680
   8   2.0000     -10.295919      -280.1662
   9   2.0000     -10.289452      -279.9902
  10   2.0000     -10.289360      -279.9877
  11   2.0000     -10.288639      -279.9681
  12   2.0000     -10.285963      -279.8953
  13   2.0000     -10.283805      -279.8365
  14   2.0000     -10.280050      -279.7344
  15   2.0000     -10.275899      -279.6214
  16   2.0000      -8.085669      -220.0222
  17   2.0000      -8.074773      -219.7258
  18   2.0000      -6.043909      -164.4631
  19   2.0000      -6.040309      -164.3652
  20   2.0000      -6.036617      -164.2647
  21   2.0000      -6.033300      -164.1744
  22   2.0000      -6.028906      -164.0549
  23   2.0000      -6.025509      -163.9624
  24   2.0000      -1.012873       -27.5617
  25   2.0000      -0.988243       -26.8915
  26   2.0000      -0.921109       -25.0647
  27   2.0000      -0.909002       -24.7352
  28   2.0000      -0.871650       -23.7188
  29   2.0000      -0.856540       -23.3076
  30   2.0000      -0.839412       -22.8416
  31   2.0000      -0.815809       -22.1993
  32   2.0000      -0.787333       -21.4244
  33   2.0000      -0.775396       -21.0996
  34   2.0000      -0.715180       -19.4610
  35   2.0000      -0.695505       -18.9257
  36   2.0000      -0.690084       -18.7781
  37   2.0000      -0.660622       -17.9764
  38   2.0000      -0.641555       -17.4576
  39   2.0000      -0.635300       -17.2874
  40   2.0000      -0.602036       -16.3822
  41   2.0000      -0.569677       -15.5017
  42   2.0000      -0.562555       -15.3079
  43   2.0000      -0.552482       -15.0338
  44   2.0000      -0.541513       -14.7353
  45   2.0000      -0.536654       -14.6031
  46   2.0000      -0.516123       -14.0444
  47   2.0000      -0.509479       -13.8636
  48   2.0000      -0.506230       -13.7752
  49   2.0000      -0.489136       -13.3101
  50   2.0000      -0.487817       -13.2742
  51   2.0000      -0.481666       -13.1068
  52   2.0000      -0.471818       -12.8388
  53   2.0000      -0.467790       -12.7292
  54   2.0000      -0.463427       -12.6105
  55   2.0000      -0.450782       -12.2664
  56   2.0000      -0.444049       -12.0832
  57   2.0000      -0.438409       -11.9297
  58   2.0000      -0.429439       -11.6856
  59   2.0000      -0.427378       -11.6296
  60   2.0000      -0.422497       -11.4967
  61   2.0000      -0.414041       -11.2666
  62   2.0000      -0.407252       -11.0819
  63   2.0000      -0.356260        -9.6943
  64   2.0000      -0.338844        -9.2204
  65   2.0000      -0.322958        -8.7881
  66   2.0000      -0.278520        -7.5789
  67   0.0000       0.023137         0.6296
  68   0.0000       0.074453         2.0260
  69   0.0000       0.102343         2.7849
  70   0.0000       0.116716         3.1760
  71   0.0000       0.131906         3.5894

MULLIKEN ATOMIC CHARGES
-----------------------
   0 S :    0.127168
   1 C :   -0.120508
   2 C :   -0.084908
   3 C :    0.032427
   4 C :   -0.111071
   5 H :   -0.048740
   6 C :    0.128127
   7 H :    0.022743
   8 H :    0.012715
   9 C :   -0.090879
  10 H :    0.038753
  11 H :    0.037001
  12 C :   -0.069463
  13 H :    0.036022
  14 H :    0.044700
  15 H :    0.008870
  16 S :    0.083443
  17 C :   -0.096630
  18 C :   -0.031730
  19 C :   -0.043590
  20 C :   -0.121385
  21 H :   -0.008141
  22 C :    0.083751
  23 H :    0.003515
  24 H :    0.021373
  25 C :   -0.090786
  26 H :    0.016643
  27 H :    0.020362
  28 C :   -0.046340
  29 H :    0.035627
  30 H :    0.035307
  31 H :    0.043525
  32 H :    0.043481
  33 H :    0.088618
Sum of atomic charges:    0.0000000

LOEWDIN ATOMIC CHARGES
----------------------
   0 S :    0.420384
   1 C :   -0.201792
   2 C :   -0.051482
   3 C :   -0.053409
   4 C :   -0.183609
   5 H :    0.011676
   6 C :   -0.032371
   7 H :    0.028104
   8 H :    0.033076
   9 C :   -0.042107
  10 H :    0.028970
  11 H :    0.031271
  12 C :   -0.075476
  13 H :    0.026444
  14 H :    0.034503
  15 H :    0.015205
  16 S :    0.417697
  17 C :   -0.213841
  18 C :   -0.073577
  19 C :   -0.054314
  20 C :   -0.199607
  21 H :    0.017054
  22 C :   -0.026218
  23 H :    0.026350
  24 H :    0.024674
  25 C :   -0.039044
  26 H :    0.017644
  27 H :    0.021933
  28 C :   -0.072176
  29 H :    0.028564
  30 H :    0.033064
  31 H :    0.026015
  32 H :    0.021072
  33 H :    0.055322

  Mayer bond orders larger than 0.100000
B(  0-S ,  1-C ) :   1.1695 B(  0-S ,  4-C ) :   1.1538 B(  1-C ,  2-C ) :   1.5520
B(  1-C ,  4-C ) :   0.1154 B(  1-C , 32-H ) :   0.9659 B(  2-C ,  3-C ) :   1.2739
B(  2-C ,  6-C ) :   1.0244 B(  3-C ,  4-C ) :   1.5552 B(  3-C ,  5-H ) :   1.0138
B(  4-C , 20-C ) :   1.0502 B(  6-C ,  7-H ) :   0.9221 B(  6-C ,  8-H ) :   0.9341
B(  6-C ,  9-C ) :   1.0753 B(  9-C , 10-H ) :   0.9542 B(  9-C , 11-H ) :   0.9530
B(  9-C , 12-C ) :   1.0666 B( 12-C , 13-H ) :   0.9753 B( 12-C , 14-H ) :   0.9730
B( 12-C , 15-H ) :   0.9728 B( 16-S , 17-C ) :   1.1569 B( 16-S , 20-C ) :   1.1375
B( 17-C , 18-C ) :   1.6129 B( 17-C , 33-H ) :   0.9577 B( 18-C , 19-C ) :   1.2367
B( 18-C , 21-H ) :   0.9949 B( 19-C , 20-C ) :   1.5684 B( 19-C , 22-C ) :   1.0505
B( 22-C , 23-H ) :   0.9204 B( 22-C , 24-H ) :   0.9485 B( 22-C , 25-C ) :   1.0776
B( 25-C , 26-H ) :   0.9580 B( 25-C , 27-H ) :   0.9568 B( 25-C , 28-C ) :   1.0583
B( 28-C , 29-H ) :   0.9746 B( 28-C , 30-H ) :   0.9729 B( 28-C , 31-H ) :   0.9765

Dispersion correction           -0.015470667
FINAL SINGLE POINT ENERGY     -1339.856600099024

DIPOLE MOMENT
-------------
                                X             Y             Z
Electronic contribution:      7.38340     -21.27095      18.03383
Nuclear contribution   :     -7.85279      21.62064     -18.45066
                        -----------------------------------------
Total Dipole Moment    :     -0.46939       0.34969      -0.41683
                        -----------------------------------------
Magnitude (a.u.)       :      0.71858
Magnitude (Debye)      :      1.82648

Rotational constants in cm-1:     0.019629     0.009891     0.007642
Rotational constants in MHz :   588.470975   296.537304   229.107995

                             ****ORCA TERMINATED NORMALLY****
TOTAL RUN TIME: 0 days 0 hours 0 minutes 21 seconds 799 msec
