                         Program Version 4.2.1 -  RELEASE  -
|  1> ! wB97X-D3 SP def2-SVP
|  2> %pal
|  3> nprocs 24
|  4> end
|  5>
|  6> * xyz 0 1
|  7> S 	 -124 	 23.8201 	 -112.001
|  8> C 	 -122.565 	 24.4178 	 -111.156
|  9> C 	 -122.542 	 25.8317 	 -111.188
| 10> C 	 -123.708 	 26.378 	 -111.84
| 11> C 	 -124.584 	 25.4482 	 -112.336
| 12> H 	 -123.913 	 27.3855 	 -112.01
| 13> C 	 -121.479 	 26.6828 	 -110.481
| 14> H 	 -121.57 	 27.6339 	 -111.009
| 15> H 	 -120.395 	 26.4863 	 -110.698
| 16> C 	 -121.711 	 26.9053 	 -108.966
| 17> H 	 -121.536 	 26.0852 	 -108.269
| 18> H 	 -120.906 	 27.5388 	 -108.69
| 19> C 	 -123.014 	 27.5381 	 -108.541
| 20> H 	 -122.895 	 28.1913 	 -107.763
| 21> H 	 -123.461 	 28.0481 	 -109.388
| 22> H 	 -123.649 	 26.7737 	 -108.132
| 23> S 	 -125.523 	 24.9842 	 -114.808
| 24> C 	 -127.095 	 25.5926 	 -115.4
| 25> C 	 -127.564 	 26.5133 	 -114.413
| 26> C 	 -126.774 	 26.632 	 -113.24
| 27> C 	 -125.686 	 25.7136 	 -113.262
| 28> H 	 -128.475 	 27.0451 	 -114.618
| 29> C 	 -127.254 	 27.3391 	 -111.975
| 30> H 	 -126.706 	 27.0495 	 -111.024
| 31> H 	 -128.323 	 27.0859 	 -111.846
| 32> C 	 -126.953 	 28.8702 	 -112.133
| 33> H 	 -127.172 	 29.1903 	 -113.174
| 34> H 	 -125.832 	 28.9053 	 -112.073
| 35> C 	 -127.674 	 29.8154 	 -111.195
| 36> H 	 -127.396 	 30.8945 	 -111.167
| 37> H 	 -127.482 	 29.4741 	 -110.173
| 38> H 	 -128.783 	 29.7906 	 -111.289
| 39> H 	 -121.782 	 23.7654 	 -110.652
| 40> H 	 -127.482 	 25.4538 	 -116.428
| 41> *
| 42>
| 43>                          ****END OF INPUT****

CARTESIAN COORDINATES (ANGSTROEM)
---------------------------------
  S    -124.000000   23.820100  -112.001000
  C    -122.565000   24.417800  -111.156000
  C    -122.542000   25.831700  -111.188000
  C    -123.708000   26.378000  -111.840000
  C    -124.584000   25.448200  -112.336000
  H    -123.913000   27.385500  -112.010000
  C    -121.479000   26.682800  -110.481000
  H    -121.570000   27.633900  -111.009000
  H    -120.395000   26.486300  -110.698000
  C    -121.711000   26.905300  -108.966000
  H    -121.536000   26.085200  -108.269000
  H    -120.906000   27.538800  -108.690000
  C    -123.014000   27.538100  -108.541000
  H    -122.895000   28.191300  -107.763000
  H    -123.461000   28.048100  -109.388000
  H    -123.649000   26.773700  -108.132000
  S    -125.523000   24.984200  -114.808000
  C    -127.095000   25.592600  -115.400000
  C    -127.564000   26.513300  -114.413000
  C    -126.774000   26.632000  -113.240000
  C    -125.686000   25.713600  -113.262000
  H    -128.475000   27.045100  -114.618000
  C    -127.254000   27.339100  -111.975000
  H    -126.706000   27.049500  -111.024000
  H    -128.323000   27.085900  -111.846000
  C    -126.953000   28.870200  -112.133000
  H    -127.172000   29.190300  -113.174000
  H    -125.832000   28.905300  -112.073000
  C    -127.674000   29.815400  -111.195000
  H    -127.396000   30.894500  -111.167000
  H    -127.482000   29.474100  -110.173000
  H    -128.783000   29.790600  -111.289000
  H    -121.782000   23.765400  -110.652000
  H    -127.482000   25.453800  -116.428000

 Total Charge           Charge          ....    0
 Multiplicity           Mult            ....    1
 Number of Electrons    NEL             ....  134
 Basis Dimension        Dim             ....  322

ORBITAL ENERGIES
----------------

  NO   OCC          E(Eh)            E(eV)
   0   2.0000     -88.968735     -2420.9624
   1   2.0000     -88.966362     -2420.8978
   2   2.0000     -10.331257      -281.1278
   3   2.0000     -10.330731      -281.1135
   4   2.0000     -10.325912      -280.9823
   5   2.0000     -10.325293      -280.9655
   6   2.0000     -10.308757      -280.5155
   7   2.0000     -10.308121      -280.4982
   8   2.0000     -10.301082      -280.3067
   9   2.0000     -10.300384      -280.2877
  10   2.0000     -10.300207      -280.2829
  11   2.0000     -10.293918      -280.1117
  12   2.0000     -10.293219      -280.0927
  13   2.0000     -10.282827      -279.8099
  14   2.0000     -10.281163      -279.7647
  15   2.0000     -10.264763      -279.3184
  16   2.0000      -8.082698      -219.9414
  17   2.0000      -8.080831      -219.8906
  18   2.0000      -6.041260      -164.3910
  19   2.0000      -6.039277      -164.3371
  20   2.0000      -6.037167      -164.2797
  21   2.0000      -6.035137      -164.2244
  22   2.0000      -6.033573      -164.1819
  23   2.0000      -6.031881      -164.1358
  24   2.0000      -1.004321       -27.3290
  25   2.0000      -0.978033       -26.6136
  26   2.0000      -0.910490       -24.7757
  27   2.0000      -0.903983       -24.5986
  28   2.0000      -0.867195       -23.5976
  29   2.0000      -0.850047       -23.1310
  30   2.0000      -0.845538       -23.0083
  31   2.0000      -0.814090       -22.1525
  32   2.0000      -0.782881       -21.3033
  33   2.0000      -0.768863       -20.9218
  34   2.0000      -0.705307       -19.1924
  35   2.0000      -0.698611       -19.0102
  36   2.0000      -0.690296       -18.7839
  37   2.0000      -0.662941       -18.0395
  38   2.0000      -0.641639       -17.4599
  39   2.0000      -0.615525       -16.7493
  40   2.0000      -0.593180       -16.1413
  41   2.0000      -0.568958       -15.4821
  42   2.0000      -0.557415       -15.1680
  43   2.0000      -0.556387       -15.1401
  44   2.0000      -0.538135       -14.6434
  45   2.0000      -0.520158       -14.1542
  46   2.0000      -0.514218       -13.9926
  47   2.0000      -0.513395       -13.9702
  48   2.0000      -0.509825       -13.8731
  49   2.0000      -0.498011       -13.5516
  50   2.0000      -0.492558       -13.4032
  51   2.0000      -0.478537       -13.0217
  52   2.0000      -0.469779       -12.7833
  53   2.0000      -0.467791       -12.7292
  54   2.0000      -0.457606       -12.4521
  55   2.0000      -0.451848       -12.2954
  56   2.0000      -0.441721       -12.0198
  57   2.0000      -0.435805       -11.8589
  58   2.0000      -0.430078       -11.7030
  59   2.0000      -0.426963       -11.6182
  60   2.0000      -0.416211       -11.3257
  61   2.0000      -0.412668       -11.2293
  62   2.0000      -0.402545       -10.9538
  63   2.0000      -0.347591        -9.4584
  64   2.0000      -0.330641        -8.9972
  65   2.0000      -0.328501        -8.9390
  66   2.0000      -0.291792        -7.9401
  67   0.0000       0.025553         0.6953
  68   0.0000       0.063996         1.7414
  69   0.0000       0.113902         3.0994
  70   0.0000       0.119300         3.2463
  71   0.0000       0.121630         3.3097

MULLIKEN ATOMIC CHARGES
-----------------------
   0 S :    0.110867
   1 C :   -0.143119
   2 C :   -0.083224
   3 C :    0.066426
   4 C :   -0.152211
   5 H :   -0.016929
   6 C :    0.040969
   7 H :    0.017625
   8 H :    0.041728
   9 C :   -0.063013
  10 H :    0.022056
  11 H :    0.011057
  12 C :    0.002221
  13 H :    0.009455
  14 H :    0.020318
  15 H :    0.030537
  16 S :    0.109522
  17 C :   -0.122401
  18 C :   -0.037911
  19 C :   -0.010395
  20 C :   -0.158296
  21 H :    0.018804
  22 C :    0.021395
  23 H :    0.047681
  24 H :    0.041968
  25 C :   -0.107414
  26 H :    0.032481
  27 H :    0.031215
  28 C :   -0.038467
  29 H :    0.043815
  30 H :    0.017657
  31 H :    0.035615
  32 H :    0.081130
  33 H :    0.078838
Sum of atomic charges:   -0.0000000

LOEWDIN ATOMIC CHARGES
----------------------
   0 S :    0.399598
   1 C :   -0.199923
   2 C :   -0.064268
   3 C :   -0.055235
   4 C :   -0.196282
   5 H :    0.018802
   6 C :   -0.038155
   7 H :    0.031010
   8 H :    0.039537
   9 C :   -0.042593
  10 H :    0.024560
  11 H :    0.019226
  12 C :   -0.055476
  13 H :    0.016094
  14 H :    0.023846
  15 H :    0.029045
  16 S :    0.419934
  17 C :   -0.195931
  18 C :   -0.063580
  19 C :   -0.065215
  20 C :   -0.202857
  21 H :    0.028280
  22 C :   -0.030956
  23 H :    0.038290
  24 H :    0.031807
  25 C :   -0.049819
  26 H :    0.022107
  27 H :    0.026319
  28 C :   -0.078372
  29 H :    0.032314
  30 H :    0.022877
  31 H :    0.029244
  32 H :    0.046589
  33 H :    0.039182

  Mayer bond orders larger than 0.100000
B(  0-S ,  1-C ) :   1.1444 B(  0-S ,  4-C ) :   1.1480 B(  1-C ,  2-C ) :   1.5911
B(  1-C , 32-H ) :   0.9631 B(  2-C ,  3-C ) :   1.2488 B(  2-C ,  6-C ) :   1.0175
B(  3-C ,  4-C ) :   1.5689 B(  3-C ,  5-H ) :   0.9976 B(  4-C , 20-C ) :   1.0273
B(  6-C ,  7-H ) :   0.9367 B(  6-C ,  8-H ) :   0.9476 B(  6-C ,  9-C ) :   1.0754
B(  9-C , 10-H ) :   0.9594 B(  9-C , 11-H ) :   0.9547 B(  9-C , 12-C ) :   1.0768
B( 12-C , 13-H ) :   0.9699 B( 12-C , 14-H ) :   0.9769 B( 12-C , 15-H ) :   0.9739
B( 16-S , 17-C ) :   1.1537 B( 16-S , 20-C ) :   1.1915 B( 17-C , 18-C ) :   1.5615
B( 17-C , 20-C ) :   0.1148 B( 17-C , 33-H ) :   0.9684 B( 18-C , 19-C ) :   1.2809
B( 18-C , 21-H ) :   0.9874 B( 19-C , 20-C ) :   1.5237 B( 19-C , 22-C ) :   1.0366
B( 22-C , 23-H ) :   0.9442 B( 22-C , 24-H ) :   0.9528 B( 22-C , 25-C ) :   1.0253
B( 25-C , 26-H ) :   0.9656 B( 25-C , 27-H ) :   0.9536 B( 25-C , 28-C ) :   1.0726
B( 28-C , 29-H ) :   0.9740 B( 28-C , 30-H ) :   0.9689 B( 28-C , 31-H ) :   0.9742

Dispersion correction           -0.014586365
FINAL SINGLE POINT ENERGY     -1339.866330082858

DIPOLE MOMENT
-------------
                                X             Y             Z
Electronic contribution:      0.31465     -23.65267     -19.58997
Nuclear contribution   :     -0.21769      24.23194      19.93789
                        -----------------------------------------
Total Dipole Moment    :      0.09697       0.57927       0.34791
                        -----------------------------------------
Magnitude (a.u.)       :      0.68264
Magnitude (Debye)      :      1.73514

Rotational constants in cm-1:     0.016666     0.009983     0.006728
Rotational constants in MHz :   499.629565   299.283407   201.698105

                             ****ORCA TERMINATED NORMALLY****
TOTAL RUN TIME: 0 days 0 hours 0 minutes 20 seconds 608 msec
