                         Program Version 4.2.1 -  RELEASE  -
|  1> ! wB97X-D3 SP def2-SVP
|  2> %pal
|  3> nprocs 24
|  4> end
|  5>
|  6> * xyz 0 1
|  7> S 	 -33.0023 	 -13.7303 	 13.9049
|  8> C 	 -33.5274 	 -12.4072 	 14.8538
|  9> C 	 -34.1358 	 -11.4285 	 14.0995
| 10> C 	 -34.2925 	 -11.8296 	 12.7517
| 11> C 	 -33.6187 	 -12.9975 	 12.4375
| 12> H 	 -34.8558 	 -11.2342 	 12.0228
| 13> C 	 -34.6268 	 -10.1266 	 14.6731
| 14> H 	 -33.9065 	 -9.34653 	 14.4288
| 15> H 	 -34.5332 	 -10.3152 	 15.8133
| 16> C 	 -36.0341 	 -9.66459 	 14.2949
| 17> H 	 -36.1047 	 -8.59346 	 14.5595
| 18> H 	 -36.1208 	 -9.69585 	 13.1913
| 19> C 	 -37.1991 	 -10.4344 	 14.9429
| 20> H 	 -36.9376 	 -11.4523 	 14.7008
| 21> H 	 -37.3046 	 -10.4633 	 16.0084
| 22> H 	 -38.1347 	 -10.1667 	 14.5834
| 23> S 	 -33.6738 	 -15.3734 	 11.0073
| 24> C 	 -33.1859 	 -15.4626 	 9.32885
| 25> C 	 -32.9635 	 -14.1881 	 8.94007
| 26> C 	 -33.1017 	 -13.1644 	 9.8784
| 27> C 	 -33.4604 	 -13.6299 	 11.1142
| 28> H 	 -32.4963 	 -14.0238 	 7.98316
| 29> C 	 -32.8752 	 -11.6655 	 9.43772
| 30> H 	 -33.8183 	 -11.1267 	 9.70387
| 31> H 	 -32.9918 	 -11.6783 	 8.35218
| 32> C 	 -31.541 	 -11.0481 	 9.8245
| 33> H 	 -30.7015 	 -11.6366 	 9.37769
| 34> H 	 -31.3251 	 -11.0909 	 10.9145
| 35> C 	 -31.4411 	 -9.57441 	 9.43447
| 36> H 	 -30.546 	 -9.18833 	 9.87391
| 37> H 	 -32.25 	 -8.91837 	 9.82709
| 38> H 	 -31.5872 	 -9.45802 	 8.38321
| 39> H 	 -33.2557 	 -12.2093 	 15.8577
| 40> H 	 -33.1812 	 -16.337 	 8.72175
| 41> *
| 42>
| 43>                          ****END OF INPUT****

CARTESIAN COORDINATES (ANGSTROEM)
---------------------------------
  S    -33.002300  -13.730300   13.904900
  C    -33.527400  -12.407200   14.853800
  C    -34.135800  -11.428500   14.099500
  C    -34.292500  -11.829600   12.751700
  C    -33.618700  -12.997500   12.437500
  H    -34.855800  -11.234200   12.022800
  C    -34.626800  -10.126600   14.673100
  H    -33.906500   -9.346530   14.428800
  H    -34.533200  -10.315200   15.813300
  C    -36.034100   -9.664590   14.294900
  H    -36.104700   -8.593460   14.559500
  H    -36.120800   -9.695850   13.191300
  C    -37.199100  -10.434400   14.942900
  H    -36.937600  -11.452300   14.700800
  H    -37.304600  -10.463300   16.008400
  H    -38.134700  -10.166700   14.583400
  S    -33.673800  -15.373400   11.007300
  C    -33.185900  -15.462600    9.328850
  C    -32.963500  -14.188100    8.940070
  C    -33.101700  -13.164400    9.878400
  C    -33.460400  -13.629900   11.114200
  H    -32.496300  -14.023800    7.983160
  C    -32.875200  -11.665500    9.437720
  H    -33.818300  -11.126700    9.703870
  H    -32.991800  -11.678300    8.352180
  C    -31.541000  -11.048100    9.824500
  H    -30.701500  -11.636600    9.377690
  H    -31.325100  -11.090900   10.914500
  C    -31.441100   -9.574410    9.434470
  H    -30.546000   -9.188330    9.873910
  H    -32.250000   -8.918370    9.827090
  H    -31.587200   -9.458020    8.383210
  H    -33.255700  -12.209300   15.857700
  H    -33.181200  -16.337000    8.721750

 Total Charge           Charge          ....    0
 Multiplicity           Mult            ....    1
 Number of Electrons    NEL             ....  134
 Basis Dimension        Dim             ....  322

ORBITAL ENERGIES
----------------

  NO   OCC          E(Eh)            E(eV)
   0   2.0000     -88.968515     -2420.9564
   1   2.0000     -88.960432     -2420.7364
   2   2.0000     -10.333416      -281.1865
   3   2.0000     -10.328733      -281.0591
   4   2.0000     -10.313400      -280.6419
   5   2.0000     -10.307026      -280.4684
   6   2.0000     -10.300020      -280.2778
   7   2.0000     -10.298733      -280.2428
   8   2.0000     -10.298410      -280.2340
   9   2.0000     -10.296387      -280.1789
  10   2.0000     -10.294804      -280.1359
  11   2.0000     -10.293270      -280.0941
  12   2.0000     -10.290375      -280.0153
  13   2.0000     -10.284923      -279.8670
  14   2.0000     -10.275193      -279.6022
  15   2.0000     -10.268112      -279.4095
  16   2.0000      -8.083724      -219.9693
  17   2.0000      -8.075396      -219.7427
  18   2.0000      -6.042192      -164.4164
  19   2.0000      -6.038113      -164.3054
  20   2.0000      -6.034532      -164.2080
  21   2.0000      -6.033908      -164.1910
  22   2.0000      -6.029785      -164.0788
  23   2.0000      -6.026202      -163.9813
  24   2.0000      -1.011374       -27.5209
  25   2.0000      -0.992120       -26.9970
  26   2.0000      -0.912774       -24.8378
  27   2.0000      -0.905097       -24.6289
  28   2.0000      -0.871584       -23.7170
  29   2.0000      -0.852489       -23.1974
  30   2.0000      -0.846141       -23.0247
  31   2.0000      -0.819475       -22.2991
  32   2.0000      -0.783507       -21.3203
  33   2.0000      -0.776541       -21.1308
  34   2.0000      -0.714303       -19.4372
  35   2.0000      -0.698412       -19.0048
  36   2.0000      -0.693119       -18.8607
  37   2.0000      -0.662615       -18.0307
  38   2.0000      -0.637714       -17.3531
  39   2.0000      -0.625269       -17.0144
  40   2.0000      -0.596660       -16.2359
  41   2.0000      -0.569625       -15.5003
  42   2.0000      -0.559130       -15.2147
  43   2.0000      -0.558810       -15.2060
  44   2.0000      -0.534135       -14.5345
  45   2.0000      -0.533421       -14.5151
  46   2.0000      -0.520637       -14.1672
  47   2.0000      -0.515182       -14.0188
  48   2.0000      -0.503420       -13.6988
  49   2.0000      -0.498240       -13.5578
  50   2.0000      -0.491504       -13.3745
  51   2.0000      -0.485286       -13.2053
  52   2.0000      -0.478671       -13.0253
  53   2.0000      -0.469208       -12.7678
  54   2.0000      -0.456815       -12.4306
  55   2.0000      -0.451666       -12.2904
  56   2.0000      -0.447282       -12.1712
  57   2.0000      -0.437483       -11.9045
  58   2.0000      -0.427531       -11.6337
  59   2.0000      -0.425903       -11.5894
  60   2.0000      -0.414696       -11.2844
  61   2.0000      -0.410045       -11.1579
  62   2.0000      -0.406110       -11.0508
  63   2.0000      -0.353653        -9.6234
  64   2.0000      -0.332451        -9.0464
  65   2.0000      -0.331822        -9.0293
  66   2.0000      -0.292300        -7.9539
  67   0.0000       0.027896         0.7591
  68   0.0000       0.075632         2.0580
  69   0.0000       0.117053         3.1852
  70   0.0000       0.124315         3.3828
  71   0.0000       0.139298         3.7905

MULLIKEN ATOMIC CHARGES
-----------------------
   0 S :    0.128204
   1 C :   -0.099815
   2 C :   -0.115173
   3 C :    0.016778
   4 C :   -0.133253
   5 H :    0.015676
   6 C :    0.043138
   7 H :    0.045099
   8 H :    0.027583
   9 C :   -0.086373
  10 H :    0.028887
  11 H :    0.032513
  12 C :   -0.003669
  13 H :    0.025268
  14 H :    0.021647
  15 H :    0.021801
  16 S :    0.081939
  17 C :   -0.078753
  18 C :   -0.034489
  19 C :   -0.035593
  20 C :   -0.160487
  21 H :    0.013702
  22 C :    0.056967
  23 H :    0.030276
  24 H :    0.009810
  25 C :   -0.070077
  26 H :    0.035516
  27 H :    0.041478
  28 C :   -0.023638
  29 H :    0.034318
  30 H :    0.022537
  31 H :    0.021746
  32 H :    0.033874
  33 H :    0.052561
Sum of atomic charges:    0.0000000

LOEWDIN ATOMIC CHARGES
----------------------
   0 S :    0.428296
   1 C :   -0.208345
   2 C :   -0.071671
   3 C :   -0.065318
   4 C :   -0.189765
   5 H :    0.031328
   6 C :   -0.036916
   7 H :    0.035354
   8 H :    0.037806
   9 C :   -0.041696
  10 H :    0.025026
  11 H :    0.025876
  12 C :   -0.059224
  13 H :    0.028677
  14 H :    0.023790
  15 H :    0.017650
  16 S :    0.395459
  17 C :   -0.178266
  18 C :   -0.079729
  19 C :   -0.063683
  20 C :   -0.189178
  21 H :    0.028526
  22 C :   -0.031742
  23 H :    0.032603
  24 H :    0.028092
  25 C :   -0.045047
  26 H :    0.031634
  27 H :    0.030084
  28 C :   -0.064718
  29 H :    0.025640
  30 H :    0.027907
  31 H :    0.019681
  32 H :    0.021904
  33 H :    0.029966

  Mayer bond orders larger than 0.100000
B(  0-S ,  1-C ) :   1.1470 B(  0-S ,  4-C ) :   1.1646 B(  1-C ,  2-C ) :   1.6085
B(  1-C , 32-H ) :   0.9620 B(  2-C ,  3-C ) :   1.2583 B(  2-C ,  6-C ) :   1.0157
B(  3-C ,  4-C ) :   1.5578 B(  3-C ,  5-H ) :   0.9893 B(  4-C , 20-C ) :   1.0345
B(  6-C ,  7-H ) :   0.9312 B(  6-C ,  8-H ) :   0.9442 B(  6-C ,  9-C ) :   1.0762
B(  9-C , 10-H ) :   0.9522 B(  9-C , 11-H ) :   0.9539 B(  9-C , 12-C ) :   1.0686
B( 12-C , 13-H ) :   0.9757 B( 12-C , 14-H ) :   0.9745 B( 12-C , 15-H ) :   0.9747
B( 16-S , 17-C ) :   1.1471 B( 16-S , 20-C ) :   1.1498 B( 17-C , 18-C ) :   1.5921
B( 17-C , 20-C ) :   0.1028 B( 17-C , 33-H ) :   0.9754 B( 18-C , 19-C ) :   1.2837
B( 18-C , 21-H ) :   0.9816 B( 19-C , 20-C ) :   1.5993 B( 19-C , 22-C ) :   1.0112
B( 22-C , 23-H ) :   0.9425 B( 22-C , 24-H ) :   0.9331 B( 22-C , 25-C ) :   1.0588
B( 25-C , 26-H ) :   0.9489 B( 25-C , 27-H ) :   0.9592 B( 25-C , 28-C ) :   1.0833
B( 28-C , 29-H ) :   0.9740 B( 28-C , 30-H ) :   0.9727 B( 28-C , 31-H ) :   0.9738

Dispersion correction           -0.014125344
FINAL SINGLE POINT ENERGY     -1339.882249885136

DIPOLE MOMENT
-------------
                                X             Y             Z
Electronic contribution:      4.43989     -26.77686       1.63449
Nuclear contribution   :     -4.42051      27.43344      -1.86361
                        -----------------------------------------
Total Dipole Moment    :      0.01939       0.65658      -0.22912
                        -----------------------------------------
Magnitude (a.u.)       :      0.69568
Magnitude (Debye)      :      1.76827

Rotational constants in cm-1:     0.017255     0.009007     0.007070
Rotational constants in MHz :   517.305931   270.034891   211.962976

                             ****ORCA TERMINATED NORMALLY****
TOTAL RUN TIME: 0 days 0 hours 0 minutes 21 seconds 824 msec
