                         Program Version 4.2.1 -  RELEASE  -
|  1> ! wB97X-D3 SP def2-SVP
|  2> %pal
|  3> nprocs 24
|  4> end
|  5>
|  6> * xyz 0 1
|  7> S 	 -100.86 	 5.97224 	 -6.52857
|  8> C 	 -99.3922 	 6.78134 	 -6.10791
|  9> C 	 -99.6183 	 7.92374 	 -5.36764
| 10> C 	 -101.009 	 7.99963 	 -4.90987
| 11> C 	 -101.767 	 7.00881 	 -5.50902
| 12> H 	 -101.58 	 8.67701 	 -4.3136
| 13> C 	 -98.5609 	 8.88086 	 -4.85802
| 14> H 	 -98.8415 	 9.90132 	 -4.98667
| 15> H 	 -97.7317 	 8.66067 	 -5.50344
| 16> C 	 -98.2432 	 8.76324 	 -3.30181
| 17> H 	 -97.9126 	 7.73816 	 -3.14276
| 18> H 	 -97.4039 	 9.38758 	 -3.09341
| 19> C 	 -99.4598 	 9.02715 	 -2.38447
| 20> H 	 -100.142 	 8.12399 	 -2.29074
| 21> H 	 -99.162 	 9.41476 	 -1.40708
| 22> H 	 -100.009 	 9.8905 	 -2.76006
| 23> S 	 -104.178 	 7.37076 	 -6.86887
| 24> C 	 -105.571 	 6.89991 	 -6.04703
| 25> C 	 -105.434 	 6.82523 	 -4.6862
| 26> C 	 -104.078 	 7.02185 	 -4.28286
| 27> C 	 -103.254 	 7.05636 	 -5.39719
| 28> H 	 -106.254 	 6.62128 	 -4.01043
| 29> C 	 -103.593 	 6.87812 	 -2.86775
| 30> H 	 -102.536 	 6.44821 	 -2.83705
| 31> H 	 -104.182 	 6.12195 	 -2.34718
| 32> C 	 -103.542 	 8.2435 	 -2.09956
| 33> H 	 -102.706 	 8.85973 	 -2.44179
| 34> H 	 -103.274 	 8.0446 	 -1.08936
| 35> C 	 -104.822 	 9.07413 	 -2.09947
| 36> H 	 -105.713 	 8.5212 	 -1.87031
| 37> H 	 -104.92 	 9.37565 	 -3.17153
| 38> H 	 -104.738 	 9.97399 	 -1.4687
| 39> H 	 -98.4202 	 6.37557 	 -6.35845
| 40> H 	 -106.511 	 6.79974 	 -6.57338
| 41> *
| 42>
| 43>                          ****END OF INPUT****

CARTESIAN COORDINATES (ANGSTROEM)
---------------------------------
  S    -100.860000    5.972240   -6.528570
  C    -99.392200    6.781340   -6.107910
  C    -99.618300    7.923740   -5.367640
  C    -101.009000    7.999630   -4.909870
  C    -101.767000    7.008810   -5.509020
  H    -101.580000    8.677010   -4.313600
  C    -98.560900    8.880860   -4.858020
  H    -98.841500    9.901320   -4.986670
  H    -97.731700    8.660670   -5.503440
  C    -98.243200    8.763240   -3.301810
  H    -97.912600    7.738160   -3.142760
  H    -97.403900    9.387580   -3.093410
  C    -99.459800    9.027150   -2.384470
  H    -100.142000    8.123990   -2.290740
  H    -99.162000    9.414760   -1.407080
  H    -100.009000    9.890500   -2.760060
  S    -104.178000    7.370760   -6.868870
  C    -105.571000    6.899910   -6.047030
  C    -105.434000    6.825230   -4.686200
  C    -104.078000    7.021850   -4.282860
  C    -103.254000    7.056360   -5.397190
  H    -106.254000    6.621280   -4.010430
  C    -103.593000    6.878120   -2.867750
  H    -102.536000    6.448210   -2.837050
  H    -104.182000    6.121950   -2.347180
  C    -103.542000    8.243500   -2.099560
  H    -102.706000    8.859730   -2.441790
  H    -103.274000    8.044600   -1.089360
  C    -104.822000    9.074130   -2.099470
  H    -105.713000    8.521200   -1.870310
  H    -104.920000    9.375650   -3.171530
  H    -104.738000    9.973990   -1.468700
  H    -98.420200    6.375570   -6.358450
  H    -106.511000    6.799740   -6.573380

 Total Charge           Charge          ....    0
 Multiplicity           Mult            ....    1
 Number of Electrons    NEL             ....  134
 Basis Dimension        Dim             ....  322

ORBITAL ENERGIES
----------------

  NO   OCC          E(Eh)            E(eV)
   0   2.0000     -88.966880     -2420.9119
   1   2.0000     -88.961670     -2420.7701
   2   2.0000     -10.323608      -280.9197
   3   2.0000     -10.323503      -280.9168
   4   2.0000     -10.313936      -280.6565
   5   2.0000     -10.307167      -280.4723
   6   2.0000     -10.305393      -280.4240
   7   2.0000     -10.299323      -280.2588
   8   2.0000     -10.296742      -280.1886
   9   2.0000     -10.291764      -280.0531
  10   2.0000     -10.290002      -280.0052
  11   2.0000     -10.289818      -280.0002
  12   2.0000     -10.289327      -279.9868
  13   2.0000     -10.285770      -279.8900
  14   2.0000     -10.284899      -279.8663
  15   2.0000     -10.276825      -279.6466
  16   2.0000      -8.082543      -219.9372
  17   2.0000      -8.077844      -219.8093
  18   2.0000      -6.040940      -164.3823
  19   2.0000      -6.036931      -164.2732
  20   2.0000      -6.036083      -164.2502
  21   2.0000      -6.033358      -164.1760
  22   2.0000      -6.032446      -164.1512
  23   2.0000      -6.028519      -164.0444
  24   2.0000      -1.009747       -27.4766
  25   2.0000      -0.989638       -26.9294
  26   2.0000      -0.907603       -24.6971
  27   2.0000      -0.906639       -24.6709
  28   2.0000      -0.866432       -23.5768
  29   2.0000      -0.851013       -23.1573
  30   2.0000      -0.844142       -22.9703
  31   2.0000      -0.812404       -22.1066
  32   2.0000      -0.784778       -21.3549
  33   2.0000      -0.771825       -21.0024
  34   2.0000      -0.705194       -19.1893
  35   2.0000      -0.702066       -19.1042
  36   2.0000      -0.685528       -18.6542
  37   2.0000      -0.661264       -17.9939
  38   2.0000      -0.647415       -17.6171
  39   2.0000      -0.606960       -16.5162
  40   2.0000      -0.594140       -16.1674
  41   2.0000      -0.575035       -15.6475
  42   2.0000      -0.553093       -15.0504
  43   2.0000      -0.546917       -14.8824
  44   2.0000      -0.542245       -14.7552
  45   2.0000      -0.539665       -14.6850
  46   2.0000      -0.514622       -14.0036
  47   2.0000      -0.507623       -13.8131
  48   2.0000      -0.499307       -13.5868
  49   2.0000      -0.492337       -13.3972
  50   2.0000      -0.489866       -13.3299
  51   2.0000      -0.481150       -13.0928
  52   2.0000      -0.473300       -12.8792
  53   2.0000      -0.469338       -12.7713
  54   2.0000      -0.459610       -12.5066
  55   2.0000      -0.449442       -12.2299
  56   2.0000      -0.443165       -12.0591
  57   2.0000      -0.436036       -11.8651
  58   2.0000      -0.433889       -11.8067
  59   2.0000      -0.425356       -11.5745
  60   2.0000      -0.423612       -11.5271
  61   2.0000      -0.420607       -11.4453
  62   2.0000      -0.411195       -11.1892
  63   2.0000      -0.339888        -9.2488
  64   2.0000      -0.332347        -9.0436
  65   2.0000      -0.324223        -8.8226
  66   2.0000      -0.293718        -7.9925
  67   0.0000       0.037292         1.0148
  68   0.0000       0.070278         1.9123
  69   0.0000       0.112646         3.0652
  70   0.0000       0.119206         3.2438
  71   0.0000       0.129639         3.5277

MULLIKEN ATOMIC CHARGES
-----------------------
   0 S :    0.126594
   1 C :   -0.127581
   2 C :   -0.077704
   3 C :    0.038182
   4 C :   -0.152744
   5 H :   -0.007641
   6 C :    0.075449
   7 H :    0.026089
   8 H :    0.013907
   9 C :   -0.047339
  10 H :    0.023579
  11 H :    0.028814
  12 C :   -0.082876
  13 H :    0.068887
  14 H :    0.032847
  15 H :    0.023890
  16 S :    0.118738
  17 C :   -0.083960
  18 C :   -0.030682
  19 C :   -0.020908
  20 C :   -0.193589
  21 H :    0.015199
  22 C :    0.028037
  23 H :    0.045781
  24 H :    0.028420
  25 C :   -0.065269
  26 H :    0.021426
  27 H :    0.014676
  28 C :   -0.055033
  29 H :    0.026836
  30 H :    0.044113
  31 H :    0.042872
  32 H :    0.049920
  33 H :    0.051069
Sum of atomic charges:   -0.0000000

LOEWDIN ATOMIC CHARGES
----------------------
   0 S :    0.428354
   1 C :   -0.204476
   2 C :   -0.056894
   3 C :   -0.056106
   4 C :   -0.210731
   5 H :    0.025469
   6 C :   -0.028468
   7 H :    0.025835
   8 H :    0.026670
   9 C :   -0.031264
  10 H :    0.023129
  11 H :    0.020367
  12 C :   -0.074379
  13 H :    0.037493
  14 H :    0.028380
  15 H :    0.020936
  16 S :    0.417434
  17 C :   -0.201595
  18 C :   -0.072304
  19 C :   -0.063300
  20 C :   -0.186920
  21 H :    0.030890
  22 C :   -0.033845
  23 H :    0.041740
  24 H :    0.029155
  25 C :   -0.039930
  26 H :    0.021058
  27 H :    0.016438
  28 C :   -0.068208
  29 H :    0.019172
  30 H :    0.032360
  31 H :    0.030205
  32 H :    0.028288
  33 H :    0.025045

  Mayer bond orders larger than 0.100000
B(  0-S ,  1-C ) :   1.1408 B(  0-S ,  4-C ) :   1.1599 B(  1-C ,  2-C ) :   1.6156
B(  1-C , 32-H ) :   0.9691 B(  2-C ,  3-C ) :   1.2028 B(  2-C ,  6-C ) :   1.0385
B(  3-C ,  4-C ) :   1.5809 B(  3-C ,  5-H ) :   0.9928 B(  4-C , 20-C ) :   1.0141
B(  6-C ,  7-H ) :   0.9395 B(  6-C ,  8-H ) :   0.9396 B(  6-C ,  9-C ) :   1.0615
B(  9-C , 10-H ) :   0.9567 B(  9-C , 11-H ) :   0.9598 B(  9-C , 12-C ) :   1.0764
B( 12-C , 13-H ) :   0.9666 B( 12-C , 14-H ) :   0.9687 B( 12-C , 15-H ) :   0.9713
B( 16-S , 17-C ) :   1.1609 B( 16-S , 20-C ) :   1.1548 B( 17-C , 18-C ) :   1.6071
B( 17-C , 33-H ) :   0.9678 B( 18-C , 19-C ) :   1.2237 B( 18-C , 21-H ) :   0.9965
B( 19-C , 20-C ) :   1.6057 B( 19-C , 22-C ) :   1.0403 B( 22-C , 23-H ) :   0.9367
B( 22-C , 24-H ) :   0.9436 B( 22-C , 25-C ) :   1.0639 B( 25-C , 26-H ) :   0.9493
B( 25-C , 27-H ) :   0.9517 B( 25-C , 28-C ) :   1.0818 B( 28-C , 29-H ) :   0.9759
B( 28-C , 30-H ) :   0.9696 B( 28-C , 31-H ) :   0.9723

Dispersion correction           -0.016390767
FINAL SINGLE POINT ENERGY     -1339.878898465670

DIPOLE MOMENT
-------------
                                X             Y             Z
Electronic contribution:     -5.79686     -12.75948     -25.13372
Nuclear contribution   :      5.99412      13.01696      25.68472
                        -----------------------------------------
Total Dipole Moment    :      0.19726       0.25747       0.55100
                        -----------------------------------------
Magnitude (a.u.)       :      0.63938
Magnitude (Debye)      :      1.62517

Rotational constants in cm-1:     0.018166     0.010757     0.007430
Rotational constants in MHz :   544.596511   322.498032   222.736322

                             ****ORCA TERMINATED NORMALLY****
TOTAL RUN TIME: 0 days 0 hours 0 minutes 23 seconds 418 msec
