                         Program Version 4.2.1 -  RELEASE  -
|  1> ! wB97X-D3 SP def2-SVP
|  2> %pal
|  3> nprocs 24
|  4> end
|  5>
|  6> * xyz 0 1
|  7> S 	 -118.914 	 27.3694 	 -13.6046
|  8> C 	 -118.918 	 26.2673 	 -14.9564
|  9> C 	 -117.65 	 26.3311 	 -15.5845
| 10> C 	 -116.707 	 27.1137 	 -14.8399
| 11> C 	 -117.188 	 27.8464 	 -13.7774
| 12> H 	 -115.644 	 27.1848 	 -15.1014
| 13> C 	 -117.164 	 25.3752 	 -16.6901
| 14> H 	 -117.958 	 24.681 	 -17.0281
| 15> H 	 -116.389 	 24.6695 	 -16.3401
| 16> C 	 -116.793 	 26.0299 	 -18.0599
| 17> H 	 -117.572 	 26.5878 	 -18.5369
| 18> H 	 -115.935 	 26.6736 	 -18.089
| 19> C 	 -116.581 	 24.9194 	 -19.0954
| 20> H 	 -116.08 	 25.2186 	 -20.0292
| 21> H 	 -115.923 	 24.2246 	 -18.6989
| 22> H 	 -117.412 	 24.2951 	 -19.3783
| 23> S 	 -116.869 	 28.5508 	 -11.2271
| 24> C 	 -115.725 	 29.8024 	 -10.8075
| 25> C 	 -115.19 	 30.3968 	 -11.8835
| 26> C 	 -115.616 	 29.8515 	 -13.1355
| 27> C 	 -116.472 	 28.7441 	 -12.9241
| 28> H 	 -114.619 	 31.2769 	 -11.7569
| 29> C 	 -115.128 	 30.3631 	 -14.489
| 30> H 	 -115.961 	 30.0186 	 -15.1901
| 31> H 	 -114.269 	 29.7379 	 -14.7219
| 32> C 	 -114.815 	 31.8841 	 -14.6148
| 33> H 	 -114.264 	 32.0095 	 -15.5731
| 34> H 	 -114.053 	 32.1503 	 -13.9004
| 35> C 	 -116.015 	 32.7927 	 -14.5893
| 36> H 	 -116.678 	 32.756 	 -15.4195
| 37> H 	 -115.71 	 33.8282 	 -14.5333
| 38> H 	 -116.647 	 32.5154 	 -13.748
| 39> H 	 -119.785 	 25.7029 	 -15.3115
| 40> H 	 -115.572 	 30.1607 	 -9.82142
| 41> *
| 42>
| 43>                          ****END OF INPUT****

CARTESIAN COORDINATES (ANGSTROEM)
---------------------------------
  S    -118.914000   27.369400  -13.604600
  C    -118.918000   26.267300  -14.956400
  C    -117.650000   26.331100  -15.584500
  C    -116.707000   27.113700  -14.839900
  C    -117.188000   27.846400  -13.777400
  H    -115.644000   27.184800  -15.101400
  C    -117.164000   25.375200  -16.690100
  H    -117.958000   24.681000  -17.028100
  H    -116.389000   24.669500  -16.340100
  C    -116.793000   26.029900  -18.059900
  H    -117.572000   26.587800  -18.536900
  H    -115.935000   26.673600  -18.089000
  C    -116.581000   24.919400  -19.095400
  H    -116.080000   25.218600  -20.029200
  H    -115.923000   24.224600  -18.698900
  H    -117.412000   24.295100  -19.378300
  S    -116.869000   28.550800  -11.227100
  C    -115.725000   29.802400  -10.807500
  C    -115.190000   30.396800  -11.883500
  C    -115.616000   29.851500  -13.135500
  C    -116.472000   28.744100  -12.924100
  H    -114.619000   31.276900  -11.756900
  C    -115.128000   30.363100  -14.489000
  H    -115.961000   30.018600  -15.190100
  H    -114.269000   29.737900  -14.721900
  C    -114.815000   31.884100  -14.614800
  H    -114.264000   32.009500  -15.573100
  H    -114.053000   32.150300  -13.900400
  C    -116.015000   32.792700  -14.589300
  H    -116.678000   32.756000  -15.419500
  H    -115.710000   33.828200  -14.533300
  H    -116.647000   32.515400  -13.748000
  H    -119.785000   25.702900  -15.311500
  H    -115.572000   30.160700   -9.821420

 Total Charge           Charge          ....    0
 Multiplicity           Mult            ....    1
 Number of Electrons    NEL             ....  134
 Basis Dimension        Dim             ....  322

ORBITAL ENERGIES
----------------

  NO   OCC          E(Eh)            E(eV)
   0   2.0000     -88.964867     -2420.8571
   1   2.0000     -88.963568     -2420.8217
   2   2.0000     -10.331217      -281.1267
   3   2.0000     -10.328010      -281.0394
   4   2.0000     -10.322644      -280.8934
   5   2.0000     -10.311311      -280.5851
   6   2.0000     -10.309902      -280.5467
   7   2.0000     -10.306594      -280.4567
   8   2.0000     -10.300237      -280.2837
   9   2.0000     -10.299560      -280.2653
  10   2.0000     -10.294220      -280.1200
  11   2.0000     -10.292071      -280.0615
  12   2.0000     -10.287452      -279.9358
  13   2.0000     -10.284177      -279.8467
  14   2.0000     -10.272478      -279.5284
  15   2.0000     -10.268652      -279.4242
  16   2.0000      -8.078842      -219.8365
  17   2.0000      -8.078717      -219.8331
  18   2.0000      -6.037488      -164.2884
  19   2.0000      -6.037235      -164.2815
  20   2.0000      -6.033287      -164.1741
  21   2.0000      -6.033220      -164.1723
  22   2.0000      -6.029636      -164.0748
  23   2.0000      -6.029384      -164.0679
  24   2.0000      -1.005742       -27.3676
  25   2.0000      -0.980953       -26.6931
  26   2.0000      -0.908781       -24.7292
  27   2.0000      -0.906615       -24.6702
  28   2.0000      -0.876268       -23.8445
  29   2.0000      -0.852543       -23.1989
  30   2.0000      -0.843227       -22.9454
  31   2.0000      -0.817964       -22.2579
  32   2.0000      -0.781799       -21.2738
  33   2.0000      -0.768173       -20.9030
  34   2.0000      -0.714130       -19.4325
  35   2.0000      -0.704499       -19.1704
  36   2.0000      -0.699996       -19.0478
  37   2.0000      -0.658027       -17.9058
  38   2.0000      -0.642670       -17.4879
  39   2.0000      -0.619433       -16.8556
  40   2.0000      -0.596160       -16.2224
  41   2.0000      -0.566622       -15.4186
  42   2.0000      -0.560439       -15.2503
  43   2.0000      -0.557990       -15.1837
  44   2.0000      -0.536718       -14.6048
  45   2.0000      -0.523914       -14.2564
  46   2.0000      -0.521110       -14.1801
  47   2.0000      -0.511384       -13.9155
  48   2.0000      -0.504525       -13.7288
  49   2.0000      -0.498129       -13.5548
  50   2.0000      -0.495523       -13.4839
  51   2.0000      -0.476793       -12.9742
  52   2.0000      -0.469737       -12.7822
  53   2.0000      -0.466939       -12.7061
  54   2.0000      -0.460595       -12.5334
  55   2.0000      -0.448680       -12.2092
  56   2.0000      -0.442934       -12.0528
  57   2.0000      -0.440012       -11.9733
  58   2.0000      -0.433278       -11.7901
  59   2.0000      -0.427275       -11.6267
  60   2.0000      -0.422323       -11.4920
  61   2.0000      -0.411927       -11.2091
  62   2.0000      -0.408434       -11.1141
  63   2.0000      -0.354570        -9.6483
  64   2.0000      -0.331043        -9.0081
  65   2.0000      -0.326768        -8.8918
  66   2.0000      -0.288035        -7.8378
  67   0.0000       0.023780         0.6471
  68   0.0000       0.071486         1.9452
  69   0.0000       0.111862         3.0439
  70   0.0000       0.123547         3.3619
  71   0.0000       0.130935         3.5629

MULLIKEN ATOMIC CHARGES
-----------------------
   0 S :    0.099135
   1 C :   -0.123088
   2 C :   -0.047396
   3 C :    0.008128
   4 C :   -0.128100
   5 H :    0.020607
   6 C :   -0.001861
   7 H :    0.017418
   8 H :    0.049348
   9 C :   -0.034259
  10 H :    0.027879
  11 H :    0.024165
  12 C :   -0.056788
  13 H :    0.029677
  14 H :   -0.002603
  15 H :    0.026706
  16 S :    0.098732
  17 C :   -0.059678
  18 C :   -0.025361
  19 C :   -0.039412
  20 C :   -0.177997
  21 H :    0.003991
  22 C :    0.031411
  23 H :    0.046148
  24 H :    0.047534
  25 C :   -0.067825
  26 H :    0.028695
  27 H :    0.026075
  28 C :   -0.017079
  29 H :    0.022707
  30 H :    0.031703
  31 H :    0.034249
  32 H :    0.066798
  33 H :    0.040342
Sum of atomic charges:    0.0000000

LOEWDIN ATOMIC CHARGES
----------------------
   0 S :    0.385800
   1 C :   -0.196066
   2 C :   -0.069141
   3 C :   -0.066039
   4 C :   -0.189376
   5 H :    0.033218
   6 C :   -0.035028
   7 H :    0.032881
   8 H :    0.036600
   9 C :   -0.036160
  10 H :    0.025002
  11 H :    0.019190
  12 C :   -0.069310
  13 H :    0.028918
  14 H :    0.011315
  15 H :    0.022137
  16 S :    0.405678
  17 C :   -0.171848
  18 C :   -0.073317
  19 C :   -0.048653
  20 C :   -0.199048
  21 H :    0.026409
  22 C :   -0.037300
  23 H :    0.041699
  24 H :    0.035114
  25 C :   -0.043264
  26 H :    0.031096
  27 H :    0.021302
  28 C :   -0.062740
  29 H :    0.023456
  30 H :    0.028168
  31 H :    0.029063
  32 H :    0.036940
  33 H :    0.023306

  Mayer bond orders larger than 0.100000
B(  0-S ,  1-C ) :   1.1500 B(  0-S ,  4-C ) :   1.1206 B(  1-C ,  2-C ) :   1.5765
B(  1-C , 32-H ) :   0.9680 B(  2-C ,  3-C ) :   1.2484 B(  2-C ,  6-C ) :   1.0276
B(  3-C ,  4-C ) :   1.5684 B(  3-C ,  5-H ) :   0.9928 B(  4-C , 20-C ) :   1.0910
B(  6-C ,  7-H ) :   0.9500 B(  6-C ,  8-H ) :   0.9516 B(  6-C ,  9-C ) :   1.0457
B(  9-C , 10-H ) :   0.9595 B(  9-C , 11-H ) :   0.9582 B(  9-C , 12-C ) :   1.0777
B( 12-C , 13-H ) :   0.9727 B( 12-C , 14-H ) :   0.9702 B( 12-C , 15-H ) :   0.9749
B( 16-S , 17-C ) :   1.1471 B( 16-S , 20-C ) :   1.1395 B( 17-C , 18-C ) :   1.6323
B( 17-C , 33-H ) :   0.9676 B( 18-C , 19-C ) :   1.2296 B( 18-C , 21-H ) :   0.9927
B( 19-C , 20-C ) :   1.5675 B( 19-C , 22-C ) :   1.0225 B( 22-C , 23-H ) :   0.9360
B( 22-C , 24-H ) :   0.9346 B( 22-C , 25-C ) :   1.0731 B( 25-C , 26-H ) :   0.9498
B( 25-C , 27-H ) :   0.9517 B( 25-C , 28-C ) :   1.0785 B( 28-C , 29-H ) :   0.9723
B( 28-C , 30-H ) :   0.9721 B( 28-C , 31-H ) :   0.9751

Dispersion correction           -0.013556806
FINAL SINGLE POINT ENERGY     -1339.874171091240

DIPOLE MOMENT
-------------
                                X             Y             Z
Electronic contribution:    -10.47642      -3.79091      25.95565
Nuclear contribution   :     10.92197       3.99466     -26.43067
                        -----------------------------------------
Total Dipole Moment    :      0.44555       0.20375      -0.47503
                        -----------------------------------------
Magnitude (a.u.)       :      0.68241
Magnitude (Debye)      :      1.73455

Rotational constants in cm-1:     0.018593     0.007877     0.006197
Rotational constants in MHz :   557.394438   236.139901   185.774089

                             ****ORCA TERMINATED NORMALLY****
TOTAL RUN TIME: 0 days 0 hours 0 minutes 20 seconds 908 msec
