                         Program Version 4.2.1 -  RELEASE  -
|  1> ! wB97X-D3 SP def2-SVP
|  2> %pal
|  3> nprocs 24
|  4> end
|  5>
|  6> * xyz 0 1
|  7> S 	 5.36133 	 -26.6797 	 -115.172
|  8> C 	 6.86043 	 -25.8207 	 -115.511
|  9> C 	 6.78266 	 -24.4786 	 -115.009
| 10> C 	 5.64762 	 -24.3526 	 -114.092
| 11> C 	 4.89325 	 -25.5126 	 -113.951
| 12> H 	 5.37647 	 -23.5055 	 -113.523
| 13> C 	 7.80031 	 -23.4315 	 -115.322
| 14> H 	 7.24475 	 -22.4974 	 -115.318
| 15> H 	 8.06059 	 -23.6345 	 -116.314
| 16> C 	 8.92732 	 -23.3145 	 -114.358
| 17> H 	 8.65127 	 -23.0163 	 -113.341
| 18> H 	 9.45708 	 -24.2958 	 -114.289
| 19> C 	 9.82477 	 -22.1608 	 -114.693
| 20> H 	 10.0988 	 -22.1788 	 -115.728
| 21> H 	 9.28884 	 -21.1946 	 -114.503
| 22> H 	 10.7096 	 -22.225 	 -114.133
| 23> S 	 2.47003 	 -24.5836 	 -113.184
| 24> C 	 1.708 	 -25.3419 	 -111.806
| 25> C 	 2.31001 	 -26.514 	 -111.434
| 26> C 	 3.52933 	 -26.765 	 -112.14
| 27> C 	 3.82506 	 -25.7113 	 -113.015
| 28> H 	 1.92232 	 -27.1785 	 -110.704
| 29> C 	 4.34297 	 -28.0742 	 -111.772
| 30> H 	 4.35808 	 -28.1111 	 -110.628
| 31> H 	 5.36106 	 -28.0195 	 -112.168
| 32> C 	 3.75595 	 -29.3543 	 -112.242
| 33> H 	 3.37257 	 -29.1196 	 -113.23
| 34> H 	 2.94417 	 -29.6885 	 -111.542
| 35> C 	 4.71368 	 -30.6031 	 -112.297
| 36> H 	 5.05371 	 -30.9546 	 -111.331
| 37> H 	 5.61436 	 -30.3102 	 -112.798
| 38> H 	 4.35268 	 -31.4265 	 -112.876
| 39> H 	 7.62079 	 -26.169 	 -116.197
| 40> H 	 0.709429 	 -25.0107 	 -111.429
| 41> *
| 42>
| 43>                          ****END OF INPUT****

CARTESIAN COORDINATES (ANGSTROEM)
---------------------------------
  S      5.361330  -26.679700  -115.172000
  C      6.860430  -25.820700  -115.511000
  C      6.782660  -24.478600  -115.009000
  C      5.647620  -24.352600  -114.092000
  C      4.893250  -25.512600  -113.951000
  H      5.376470  -23.505500  -113.523000
  C      7.800310  -23.431500  -115.322000
  H      7.244750  -22.497400  -115.318000
  H      8.060590  -23.634500  -116.314000
  C      8.927320  -23.314500  -114.358000
  H      8.651270  -23.016300  -113.341000
  H      9.457080  -24.295800  -114.289000
  C      9.824770  -22.160800  -114.693000
  H     10.098800  -22.178800  -115.728000
  H      9.288840  -21.194600  -114.503000
  H     10.709600  -22.225000  -114.133000
  S      2.470030  -24.583600  -113.184000
  C      1.708000  -25.341900  -111.806000
  C      2.310010  -26.514000  -111.434000
  C      3.529330  -26.765000  -112.140000
  C      3.825060  -25.711300  -113.015000
  H      1.922320  -27.178500  -110.704000
  C      4.342970  -28.074200  -111.772000
  H      4.358080  -28.111100  -110.628000
  H      5.361060  -28.019500  -112.168000
  C      3.755950  -29.354300  -112.242000
  H      3.372570  -29.119600  -113.230000
  H      2.944170  -29.688500  -111.542000
  C      4.713680  -30.603100  -112.297000
  H      5.053710  -30.954600  -111.331000
  H      5.614360  -30.310200  -112.798000
  H      4.352680  -31.426500  -112.876000
  H      7.620790  -26.169000  -116.197000
  H      0.709429  -25.010700  -111.429000

 Total Charge           Charge          ....    0
 Multiplicity           Mult            ....    1
 Number of Electrons    NEL             ....  134
 Basis Dimension        Dim             ....  322

ORBITAL ENERGIES
----------------

  NO   OCC          E(Eh)            E(eV)
   0   2.0000     -88.967210     -2420.9209
   1   2.0000     -88.965306     -2420.8690
   2   2.0000     -10.328154      -281.0433
   3   2.0000     -10.325697      -280.9765
   4   2.0000     -10.319797      -280.8159
   5   2.0000     -10.316797      -280.7343
   6   2.0000     -10.309932      -280.5475
   7   2.0000     -10.307334      -280.4768
   8   2.0000     -10.298181      -280.2278
   9   2.0000     -10.293632      -280.1040
  10   2.0000     -10.291311      -280.0408
  11   2.0000     -10.286208      -279.9019
  12   2.0000     -10.283514      -279.8286
  13   2.0000     -10.283156      -279.8189
  14   2.0000     -10.273671      -279.5608
  15   2.0000     -10.271457      -279.5006
  16   2.0000      -8.081753      -219.9157
  17   2.0000      -8.079462      -219.8533
  18   2.0000      -6.040231      -164.3630
  19   2.0000      -6.038005      -164.3025
  20   2.0000      -6.036449      -164.2601
  21   2.0000      -6.034130      -164.1970
  22   2.0000      -6.032381      -164.1494
  23   2.0000      -6.030161      -164.0890
  24   2.0000      -1.002936       -27.2913
  25   2.0000      -0.977906       -26.6102
  26   2.0000      -0.922690       -25.1077
  27   2.0000      -0.906463       -24.6661
  28   2.0000      -0.870590       -23.6900
  29   2.0000      -0.850932       -23.1550
  30   2.0000      -0.843806       -22.9611
  31   2.0000      -0.812042       -22.0968
  32   2.0000      -0.785832       -21.3836
  33   2.0000      -0.768928       -20.9236
  34   2.0000      -0.703204       -19.1351
  35   2.0000      -0.697350       -18.9759
  36   2.0000      -0.685291       -18.6477
  37   2.0000      -0.665196       -18.1009
  38   2.0000      -0.639848       -17.4112
  39   2.0000      -0.614021       -16.7083
  40   2.0000      -0.596200       -16.2234
  41   2.0000      -0.577326       -15.7098
  42   2.0000      -0.568935       -15.4815
  43   2.0000      -0.559538       -15.2258
  44   2.0000      -0.534494       -14.5443
  45   2.0000      -0.520366       -14.1599
  46   2.0000      -0.516760       -14.0618
  47   2.0000      -0.509549       -13.8655
  48   2.0000      -0.509037       -13.8516
  49   2.0000      -0.496702       -13.5159
  50   2.0000      -0.492872       -13.4117
  51   2.0000      -0.476515       -12.9666
  52   2.0000      -0.470439       -12.8013
  53   2.0000      -0.461143       -12.5483
  54   2.0000      -0.457280       -12.4432
  55   2.0000      -0.454244       -12.3606
  56   2.0000      -0.445068       -12.1109
  57   2.0000      -0.442535       -12.0420
  58   2.0000      -0.434292       -11.8177
  59   2.0000      -0.419121       -11.4049
  60   2.0000      -0.417079       -11.3493
  61   2.0000      -0.414466       -11.2782
  62   2.0000      -0.409987       -11.1563
  63   2.0000      -0.339232        -9.2310
  64   2.0000      -0.334608        -9.1051
  65   2.0000      -0.321230        -8.7411
  66   2.0000      -0.292834        -7.9684
  67   0.0000       0.024722         0.6727
  68   0.0000       0.068969         1.8768
  69   0.0000       0.095004         2.5852
  70   0.0000       0.115267         3.1366
  71   0.0000       0.120003         3.2654

MULLIKEN ATOMIC CHARGES
-----------------------
   0 S :    0.115434
   1 C :   -0.132954
   2 C :   -0.111771
   3 C :    0.043432
   4 C :   -0.147167
   5 H :   -0.004582
   6 C :    0.110345
   7 H :    0.014297
   8 H :    0.009484
   9 C :   -0.077466
  10 H :    0.028374
  11 H :    0.031366
  12 C :   -0.016021
  13 H :    0.013341
  14 H :    0.034968
  15 H :    0.025813
  16 S :    0.111450
  17 C :   -0.096329
  18 C :   -0.017296
  19 C :   -0.018721
  20 C :   -0.190533
  21 H :    0.007729
  22 C :    0.056729
  23 H :    0.039151
  24 H :    0.025894
  25 C :   -0.090053
  26 H :    0.032554
  27 H :    0.034754
  28 C :   -0.027063
  29 H :    0.025341
  30 H :    0.014647
  31 H :    0.034750
  32 H :    0.050417
  33 H :    0.069683
Sum of atomic charges:   -0.0000000

LOEWDIN ATOMIC CHARGES
----------------------
   0 S :    0.398160
   1 C :   -0.202915
   2 C :   -0.048106
   3 C :   -0.057605
   4 C :   -0.200564
   5 H :    0.021674
   6 C :   -0.033400
   7 H :    0.034425
   8 H :    0.025259
   9 C :   -0.043344
  10 H :    0.029316
  11 H :    0.027024
  12 C :   -0.058210
  13 H :    0.016757
  14 H :    0.030884
  15 H :    0.020629
  16 S :    0.403106
  17 C :   -0.187056
  18 C :   -0.066417
  19 C :   -0.046480
  20 C :   -0.195865
  21 H :    0.026957
  22 C :   -0.032451
  23 H :    0.037414
  24 H :    0.027272
  25 C :   -0.046433
  26 H :    0.024457
  27 H :    0.026351
  28 C :   -0.061528
  29 H :    0.023113
  30 H :    0.020540
  31 H :    0.026403
  32 H :    0.024908
  33 H :    0.035726

  Mayer bond orders larger than 0.100000
B(  0-S ,  1-C ) :   1.1402 B(  0-S ,  4-C ) :   1.1374 B(  1-C ,  2-C ) :   1.5811
B(  1-C , 32-H ) :   0.9717 B(  2-C ,  3-C ) :   1.2276 B(  2-C ,  6-C ) :   1.0339
B(  3-C ,  4-C ) :   1.5577 B(  3-C ,  5-H ) :   1.0030 B(  4-C , 20-C ) :   1.0697
B(  6-C ,  7-H ) :   0.9300 B(  6-C ,  8-H ) :   0.9290 B(  6-C ,  9-C ) :   1.0803
B(  9-C , 10-H ) :   0.9545 B(  9-C , 11-H ) :   0.9518 B(  9-C , 12-C ) :   1.0831
B( 12-C , 13-H ) :   0.9719 B( 12-C , 14-H ) :   0.9746 B( 12-C , 15-H ) :   0.9716
B( 16-S , 17-C ) :   1.1468 B( 16-S , 20-C ) :   1.1407 B( 17-C , 18-C ) :   1.6139
B( 17-C , 33-H ) :   0.9610 B( 18-C , 19-C ) :   1.2309 B( 18-C , 21-H ) :   0.9955
B( 19-C , 20-C ) :   1.5917 B( 19-C , 22-C ) :   1.0381 B( 22-C , 23-H ) :   0.9396
B( 22-C , 24-H ) :   0.9362 B( 22-C , 25-C ) :   1.0635 B( 25-C , 26-H ) :   0.9549
B( 25-C , 27-H ) :   0.9538 B( 25-C , 28-C ) :   1.0843 B( 28-C , 29-H ) :   0.9757
B( 28-C , 30-H ) :   0.9732 B( 28-C , 31-H ) :   0.9763

Dispersion correction           -0.013704308
FINAL SINGLE POINT ENERGY     -1339.865972776147

DIPOLE MOMENT
-------------
                                X             Y             Z
Electronic contribution:    -18.09173       4.14664      -4.28167
Nuclear contribution   :     18.34258      -4.14563       4.43074
                        -----------------------------------------
Total Dipole Moment    :      0.25084       0.00102       0.14907
                        -----------------------------------------
Magnitude (a.u.)       :      0.29180
Magnitude (Debye)      :      0.74169

Rotational constants in cm-1:     0.019679     0.007517     0.006178
Rotational constants in MHz :   589.971779   225.352547   185.215198

                             ****ORCA TERMINATED NORMALLY****
TOTAL RUN TIME: 0 days 0 hours 0 minutes 19 seconds 691 msec
