                         Program Version 4.2.1 -  RELEASE  -
|  1> ! wB97X-D3 SP def2-SVP
|  2> %pal
|  3> nprocs 24
|  4> end
|  5>
|  6> * xyz 0 1
|  7> S 	 -5.69449 	 -21.2557 	 -105.702
|  8> C 	 -4.69692 	 -22.6406 	 -105.2
|  9> C 	 -3.56969 	 -22.1393 	 -104.602
| 10> C 	 -3.57137 	 -20.7441 	 -104.32
| 11> C 	 -4.63088 	 -20.0755 	 -104.881
| 12> H 	 -2.81512 	 -20.183 	 -103.88
| 13> C 	 -2.45191 	 -23.0121 	 -104.05
| 14> H 	 -1.50644 	 -22.3976 	 -103.939
| 15> H 	 -2.28513 	 -23.774 	 -104.732
| 16> C 	 -2.66209 	 -23.8136 	 -102.79
| 17> H 	 -2.67883 	 -23.1207 	 -101.923
| 18> H 	 -3.59561 	 -24.2607 	 -102.927
| 19> C 	 -1.48308 	 -24.8859 	 -102.607
| 20> H 	 -1.71977 	 -25.6745 	 -101.861
| 21> H 	 -1.19717 	 -25.4544 	 -103.401
| 22> H 	 -0.595894 	 -24.181 	 -102.34
| 23> S 	 -3.54129 	 -17.5698 	 -105.554
| 24> C 	 -4.47137 	 -16.1232 	 -105.271
| 25> C 	 -5.62388 	 -16.496 	 -104.573
| 26> C 	 -5.85073 	 -17.8964 	 -104.321
| 27> C 	 -4.82435 	 -18.6386 	 -104.841
| 28> H 	 -6.33098 	 -15.6881 	 -104.302
| 29> C 	 -7.20666 	 -18.4108 	 -103.822
| 30> H 	 -7.82334 	 -18.8071 	 -104.666
| 31> H 	 -7.77253 	 -17.5568 	 -103.457
| 32> C 	 -7.21404 	 -19.347 	 -102.607
| 33> H 	 -6.85019 	 -20.3434 	 -102.719
| 34> H 	 -8.28128 	 -19.3982 	 -102.33
| 35> C 	 -6.52172 	 -18.8288 	 -101.351
| 36> H 	 -7.15077 	 -18.8795 	 -100.502
| 37> H 	 -6.19473 	 -17.7629 	 -101.456
| 38> H 	 -5.61353 	 -19.393 	 -101.143
| 39> H 	 -4.77674 	 -23.6779 	 -105.542
| 40> H 	 -4.25773 	 -15.1494 	 -105.599
| 41> *
| 42>
| 43>                          ****END OF INPUT****

CARTESIAN COORDINATES (ANGSTROEM)
---------------------------------
  S     -5.694490  -21.255700  -105.702000
  C     -4.696920  -22.640600  -105.200000
  C     -3.569690  -22.139300  -104.602000
  C     -3.571370  -20.744100  -104.320000
  C     -4.630880  -20.075500  -104.881000
  H     -2.815120  -20.183000  -103.880000
  C     -2.451910  -23.012100  -104.050000
  H     -1.506440  -22.397600  -103.939000
  H     -2.285130  -23.774000  -104.732000
  C     -2.662090  -23.813600  -102.790000
  H     -2.678830  -23.120700  -101.923000
  H     -3.595610  -24.260700  -102.927000
  C     -1.483080  -24.885900  -102.607000
  H     -1.719770  -25.674500  -101.861000
  H     -1.197170  -25.454400  -103.401000
  H     -0.595894  -24.181000  -102.340000
  S     -3.541290  -17.569800  -105.554000
  C     -4.471370  -16.123200  -105.271000
  C     -5.623880  -16.496000  -104.573000
  C     -5.850730  -17.896400  -104.321000
  C     -4.824350  -18.638600  -104.841000
  H     -6.330980  -15.688100  -104.302000
  C     -7.206660  -18.410800  -103.822000
  H     -7.823340  -18.807100  -104.666000
  H     -7.772530  -17.556800  -103.457000
  C     -7.214040  -19.347000  -102.607000
  H     -6.850190  -20.343400  -102.719000
  H     -8.281280  -19.398200  -102.330000
  C     -6.521720  -18.828800  -101.351000
  H     -7.150770  -18.879500  -100.502000
  H     -6.194730  -17.762900  -101.456000
  H     -5.613530  -19.393000  -101.143000
  H     -4.776740  -23.677900  -105.542000
  H     -4.257730  -15.149400  -105.599000

 Total Charge           Charge          ....    0
 Multiplicity           Mult            ....    1
 Number of Electrons    NEL             ....  134
 Basis Dimension        Dim             ....  322

ORBITAL ENERGIES
----------------

  NO   OCC          E(Eh)            E(eV)
   0   2.0000     -88.967852     -2420.9383
   1   2.0000     -88.967125     -2420.9185
   2   2.0000     -10.332211      -281.1537
   3   2.0000     -10.331011      -281.1211
   4   2.0000     -10.319988      -280.8211
   5   2.0000     -10.319080      -280.7964
   6   2.0000     -10.306789      -280.4620
   7   2.0000     -10.300454      -280.2896
   8   2.0000     -10.298939      -280.2484
   9   2.0000     -10.298307      -280.2312
  10   2.0000     -10.288464      -279.9633
  11   2.0000     -10.286905      -279.9209
  12   2.0000     -10.285917      -279.8940
  13   2.0000     -10.284637      -279.8592
  14   2.0000     -10.278541      -279.6933
  15   2.0000     -10.268349      -279.4160
  16   2.0000      -8.081113      -219.8983
  17   2.0000      -8.080927      -219.8932
  18   2.0000      -6.039908      -164.3542
  19   2.0000      -6.039597      -164.3458
  20   2.0000      -6.035714      -164.2401
  21   2.0000      -6.035488      -164.2340
  22   2.0000      -6.031747      -164.1322
  23   2.0000      -6.031632      -164.1290
  24   2.0000      -1.002802       -27.2876
  25   2.0000      -0.981260       -26.7014
  26   2.0000      -0.912192       -24.8220
  27   2.0000      -0.906629       -24.6706
  28   2.0000      -0.870513       -23.6879
  29   2.0000      -0.849082       -23.1047
  30   2.0000      -0.842760       -22.9327
  31   2.0000      -0.811291       -22.0763
  32   2.0000      -0.784050       -21.3351
  33   2.0000      -0.773409       -21.0455
  34   2.0000      -0.711382       -19.3577
  35   2.0000      -0.703353       -19.1392
  36   2.0000      -0.687847       -18.7173
  37   2.0000      -0.666071       -18.1247
  38   2.0000      -0.642248       -17.4765
  39   2.0000      -0.616086       -16.7646
  40   2.0000      -0.591366       -16.0919
  41   2.0000      -0.577482       -15.7141
  42   2.0000      -0.561584       -15.2815
  43   2.0000      -0.556929       -15.1548
  44   2.0000      -0.547069       -14.8865
  45   2.0000      -0.517130       -14.0718
  46   2.0000      -0.517065       -14.0700
  47   2.0000      -0.511353       -13.9146
  48   2.0000      -0.506477       -13.7819
  49   2.0000      -0.502040       -13.6612
  50   2.0000      -0.484638       -13.1877
  51   2.0000      -0.479828       -13.0568
  52   2.0000      -0.472326       -12.8526
  53   2.0000      -0.468334       -12.7440
  54   2.0000      -0.459407       -12.5011
  55   2.0000      -0.440567       -11.9884
  56   2.0000      -0.435826       -11.8594
  57   2.0000      -0.434720       -11.8293
  58   2.0000      -0.429041       -11.6748
  59   2.0000      -0.428128       -11.6499
  60   2.0000      -0.417253       -11.3540
  61   2.0000      -0.409780       -11.1507
  62   2.0000      -0.407791       -11.0966
  63   2.0000      -0.344688        -9.3794
  64   2.0000      -0.331979        -9.0336
  65   2.0000      -0.330236        -8.9862
  66   2.0000      -0.300500        -8.1770
  67   0.0000       0.028548         0.7768
  68   0.0000       0.055625         1.5136
  69   0.0000       0.105858         2.8805
  70   0.0000       0.118879         3.2349
  71   0.0000       0.121289         3.3004

MULLIKEN ATOMIC CHARGES
-----------------------
   0 S :    0.100514
   1 C :   -0.129220
   2 C :   -0.063755
   3 C :    0.044944
   4 C :   -0.139336
   5 H :   -0.010084
   6 C :    0.045348
   7 H :    0.026776
   8 H :   -0.003071
   9 C :   -0.034888
  10 H :    0.034415
  11 H :    0.009313
  12 C :   -0.066848
  13 H :    0.044573
  14 H :    0.013049
  15 H :    0.044983
  16 S :    0.103629
  17 C :   -0.069996
  18 C :   -0.062312
  19 C :    0.004791
  20 C :   -0.179499
  21 H :    0.027632
  22 C :    0.054546
  23 H :    0.058028
  24 H :    0.014257
  25 C :   -0.065355
  26 H :    0.036453
  27 H :    0.027561
  28 C :   -0.058900
  29 H :    0.024115
  30 H :    0.028219
  31 H :    0.033072
  32 H :    0.063004
  33 H :    0.044042
Sum of atomic charges:   -0.0000000

LOEWDIN ATOMIC CHARGES
----------------------
   0 S :    0.381661
   1 C :   -0.193781
   2 C :   -0.060946
   3 C :   -0.056051
   4 C :   -0.175064
   5 H :    0.021717
   6 C :   -0.035696
   7 H :    0.032103
   8 H :    0.018444
   9 C :   -0.028413
  10 H :    0.026229
  11 H :    0.010991
  12 C :   -0.067149
  13 H :    0.032737
  14 H :    0.006752
  15 H :    0.040189
  16 S :    0.385818
  17 C :   -0.179684
  18 C :   -0.074362
  19 C :   -0.057307
  20 C :   -0.176817
  21 H :    0.031735
  22 C :   -0.031168
  23 H :    0.042212
  24 H :    0.031197
  25 C :   -0.044570
  26 H :    0.019593
  27 H :    0.029122
  28 C :   -0.066604
  29 H :    0.019532
  30 H :    0.028028
  31 H :    0.027252
  32 H :    0.037925
  33 H :    0.024379

  Mayer bond orders larger than 0.100000
B(  0-S ,  1-C ) :   1.1190 B(  0-S ,  4-C ) :   1.1298 B(  1-C ,  2-C ) :   1.6174
B(  1-C , 32-H ) :   0.9657 B(  2-C ,  3-C ) :   1.2195 B(  2-C ,  6-C ) :   1.0364
B(  3-C ,  4-C ) :   1.5890 B(  3-C ,  5-H ) :   1.0054 B(  4-C , 20-C ) :   1.0519
B(  6-C ,  7-H ) :   0.9432 B(  6-C ,  8-H ) :   0.9323 B(  6-C ,  9-C ) :   1.0641
B(  9-C , 10-H ) :   0.9597 B(  9-C , 11-H ) :   0.9535 B(  9-C , 12-C ) :   1.0620
B( 12-C , 13-H ) :   0.9762 B( 12-C , 14-H ) :   0.9795 B( 12-C , 15-H ) :   0.9779
B( 16-S , 17-C ) :   1.1451 B( 16-S , 20-C ) :   1.1270 B( 17-C , 18-C ) :   1.6175
B( 17-C , 33-H ) :   0.9758 B( 18-C , 19-C ) :   1.2310 B( 18-C , 21-H ) :   0.9785
B( 19-C , 20-C ) :   1.5942 B( 19-C , 22-C ) :   1.0322 B( 22-C , 23-H ) :   0.9407
B( 22-C , 24-H ) :   0.9327 B( 22-C , 25-C ) :   1.0758 B( 25-C , 26-H ) :   0.9611
B( 25-C , 27-H ) :   0.9631 B( 25-C , 28-C ) :   1.0623 B( 28-C , 29-H ) :   0.9795
B( 28-C , 30-H ) :   0.9775 B( 28-C , 31-H ) :   0.9775

Dispersion correction           -0.014671845
FINAL SINGLE POINT ENERGY     -1339.857213888840

DIPOLE MOMENT
-------------
                                X             Y             Z
Electronic contribution:     -1.62054      13.66993     -19.54651
Nuclear contribution   :      1.56256     -13.76881      19.79399
                        -----------------------------------------
Total Dipole Moment    :     -0.05798      -0.09888       0.24748
                        -----------------------------------------
Magnitude (a.u.)       :      0.27273
Magnitude (Debye)      :      0.69323

Rotational constants in cm-1:     0.020590     0.007786     0.007043
Rotational constants in MHz :   617.271697   233.415369   211.153202

                             ****ORCA TERMINATED NORMALLY****
TOTAL RUN TIME: 0 days 0 hours 0 minutes 21 seconds 693 msec
