                         Program Version 4.2.1 -  RELEASE  -
|  1> ! wB97X-D3 SP def2-SVP
|  2> %pal
|  3> nprocs 24
|  4> end
|  5>
|  6> * xyz 0 1
|  7> S 	 -135.9 	 67.9213 	 -62.1605
|  8> C 	 -136.355 	 68.7597 	 -63.6652
|  9> C 	 -137.272 	 69.8059 	 -63.4005
| 10> C 	 -137.475 	 69.9736 	 -62.0178
| 11> C 	 -136.904 	 68.9848 	 -61.2029
| 12> H 	 -138.18 	 70.7129 	 -61.53
| 13> C 	 -137.615 	 70.8045 	 -64.4898
| 14> H 	 -137.802 	 70.2518 	 -65.4572
| 15> H 	 -136.664 	 71.37 	 -64.6852
| 16> C 	 -138.817 	 71.7502 	 -64.267
| 17> H 	 -138.904 	 72.2015 	 -63.2484
| 18> H 	 -138.909 	 72.4268 	 -65.0949
| 19> C 	 -140.144 	 70.9973 	 -64.2367
| 20> H 	 -140.081 	 70.2815 	 -63.4705
| 21> H 	 -140.986 	 71.7559 	 -64.116
| 22> H 	 -140.407 	 70.4855 	 -65.2358
| 23> S 	 -137.532 	 67.46 	 -59.125
| 24> C 	 -137.027 	 68.0075 	 -57.4903
| 25> C 	 -136.504 	 69.2386 	 -57.5897
| 26> C 	 -136.513 	 69.8319 	 -58.8701
| 27> C 	 -136.934 	 68.8979 	 -59.79
| 28> H 	 -136.175 	 69.6672 	 -56.6029
| 29> C 	 -136.013 	 71.2756 	 -59.1339
| 30> H 	 -136.262 	 72.0875 	 -58.4772
| 31> H 	 -136.586 	 71.6273 	 -60.0097
| 32> C 	 -134.597 	 71.525 	 -59.6573
| 33> H 	 -134.561 	 72.574 	 -59.9327
| 34> H 	 -134.445 	 71.0237 	 -60.6217
| 35> C 	 -133.428 	 71.1936 	 -58.6803
| 36> H 	 -133.452 	 70.1673 	 -58.4186
| 37> H 	 -133.522 	 71.779 	 -57.7915
| 38> H 	 -132.44 	 71.2813 	 -59.1139
| 39> H 	 -136.124 	 68.4287 	 -64.6855
| 40> H 	 -137.237 	 67.457 	 -56.5482
| 41> *
| 42>
| 43>                          ****END OF INPUT****

CARTESIAN COORDINATES (ANGSTROEM)
---------------------------------
  S    -135.900000   67.921300  -62.160500
  C    -136.355000   68.759700  -63.665200
  C    -137.272000   69.805900  -63.400500
  C    -137.475000   69.973600  -62.017800
  C    -136.904000   68.984800  -61.202900
  H    -138.180000   70.712900  -61.530000
  C    -137.615000   70.804500  -64.489800
  H    -137.802000   70.251800  -65.457200
  H    -136.664000   71.370000  -64.685200
  C    -138.817000   71.750200  -64.267000
  H    -138.904000   72.201500  -63.248400
  H    -138.909000   72.426800  -65.094900
  C    -140.144000   70.997300  -64.236700
  H    -140.081000   70.281500  -63.470500
  H    -140.986000   71.755900  -64.116000
  H    -140.407000   70.485500  -65.235800
  S    -137.532000   67.460000  -59.125000
  C    -137.027000   68.007500  -57.490300
  C    -136.504000   69.238600  -57.589700
  C    -136.513000   69.831900  -58.870100
  C    -136.934000   68.897900  -59.790000
  H    -136.175000   69.667200  -56.602900
  C    -136.013000   71.275600  -59.133900
  H    -136.262000   72.087500  -58.477200
  H    -136.586000   71.627300  -60.009700
  C    -134.597000   71.525000  -59.657300
  H    -134.561000   72.574000  -59.932700
  H    -134.445000   71.023700  -60.621700
  C    -133.428000   71.193600  -58.680300
  H    -133.452000   70.167300  -58.418600
  H    -133.522000   71.779000  -57.791500
  H    -132.440000   71.281300  -59.113900
  H    -136.124000   68.428700  -64.685500
  H    -137.237000   67.457000  -56.548200

 Total Charge           Charge          ....    0
 Multiplicity           Mult            ....    1
 Number of Electrons    NEL             ....  134
 Basis Dimension        Dim             ....  322

ORBITAL ENERGIES
----------------

  NO   OCC          E(Eh)            E(eV)
   0   2.0000     -88.970870     -2421.0205
   1   2.0000     -88.965226     -2420.8669
   2   2.0000     -10.328107      -281.0421
   3   2.0000     -10.321809      -280.8707
   4   2.0000     -10.318659      -280.7850
   5   2.0000     -10.317042      -280.7410
   6   2.0000     -10.306185      -280.4456
   7   2.0000     -10.305738      -280.4334
   8   2.0000     -10.302694      -280.3506
   9   2.0000     -10.300233      -280.2836
  10   2.0000     -10.293007      -280.0870
  11   2.0000     -10.292380      -280.0699
  12   2.0000     -10.289796      -279.9996
  13   2.0000     -10.283209      -279.8204
  14   2.0000     -10.280879      -279.7569
  15   2.0000     -10.266125      -279.3555
  16   2.0000      -8.084653      -219.9946
  17   2.0000      -8.080673      -219.8863
  18   2.0000      -6.043095      -164.4410
  19   2.0000      -6.039145      -164.3335
  20   2.0000      -6.039135      -164.3332
  21   2.0000      -6.035679      -164.2392
  22   2.0000      -6.035083      -164.2230
  23   2.0000      -6.031415      -164.1231
  24   2.0000      -1.015010       -27.6198
  25   2.0000      -0.983550       -26.7638
  26   2.0000      -0.913030       -24.8448
  27   2.0000      -0.902796       -24.5663
  28   2.0000      -0.876298       -23.8453
  29   2.0000      -0.847271       -23.0554
  30   2.0000      -0.845353       -23.0032
  31   2.0000      -0.814979       -22.1767
  32   2.0000      -0.787288       -21.4232
  33   2.0000      -0.771427       -20.9916
  34   2.0000      -0.712305       -19.3828
  35   2.0000      -0.690729       -18.7957
  36   2.0000      -0.686540       -18.6817
  37   2.0000      -0.657280       -17.8855
  38   2.0000      -0.635981       -17.3059
  39   2.0000      -0.620983       -16.8978
  40   2.0000      -0.598512       -16.2863
  41   2.0000      -0.569203       -15.4888
  42   2.0000      -0.552017       -15.0212
  43   2.0000      -0.549819       -14.9613
  44   2.0000      -0.543631       -14.7929
  45   2.0000      -0.535105       -14.5609
  46   2.0000      -0.515719       -14.0334
  47   2.0000      -0.513840       -13.9823
  48   2.0000      -0.501233       -13.6393
  49   2.0000      -0.491075       -13.3628
  50   2.0000      -0.488498       -13.2927
  51   2.0000      -0.478648       -13.0247
  52   2.0000      -0.474478       -12.9112
  53   2.0000      -0.464370       -12.6362
  54   2.0000      -0.460241       -12.5238
  55   2.0000      -0.448233       -12.1970
  56   2.0000      -0.435838       -11.8597
  57   2.0000      -0.434489       -11.8230
  58   2.0000      -0.427283       -11.6270
  59   2.0000      -0.424761       -11.5583
  60   2.0000      -0.419188       -11.4067
  61   2.0000      -0.414143       -11.2694
  62   2.0000      -0.409306       -11.1378
  63   2.0000      -0.346776        -9.4362
  64   2.0000      -0.333391        -9.0720
  65   2.0000      -0.331193        -9.0122
  66   2.0000      -0.292613        -7.9624
  67   0.0000       0.027684         0.7533
  68   0.0000       0.063148         1.7183
  69   0.0000       0.112239         3.0542
  70   0.0000       0.118047         3.2122
  71   0.0000       0.128459         3.4955

MULLIKEN ATOMIC CHARGES
-----------------------
   0 S :    0.127799
   1 C :   -0.136349
   2 C :   -0.079892
   3 C :    0.002201
   4 C :   -0.166817
   5 H :    0.045493
   6 C :    0.020068
   7 H :    0.032308
   8 H :    0.061238
   9 C :   -0.055104
  10 H :    0.040773
  11 H :    0.031015
  12 C :   -0.099512
  13 H :    0.034216
  14 H :    0.044166
  15 H :    0.031877
  16 S :    0.112298
  17 C :   -0.117869
  18 C :   -0.051455
  19 C :    0.027218
  20 C :   -0.187007
  21 H :    0.034150
  22 C :    0.074412
  23 H :    0.024110
  24 H :    0.003011
  25 C :   -0.082390
  26 H :    0.020811
  27 H :    0.031305
  28 C :   -0.019127
  29 H :    0.021868
  30 H :    0.020429
  31 H :    0.028337
  32 H :    0.056719
  33 H :    0.069700
Sum of atomic charges:    0.0000000

LOEWDIN ATOMIC CHARGES
----------------------
   0 S :    0.410681
   1 C :   -0.198403
   2 C :   -0.067714
   3 C :   -0.076510
   4 C :   -0.198743
   5 H :    0.040117
   6 C :   -0.039812
   7 H :    0.037305
   8 H :    0.042868
   9 C :   -0.048107
  10 H :    0.031610
  11 H :    0.025081
  12 C :   -0.068361
  13 H :    0.013791
  14 H :    0.032111
  15 H :    0.025595
  16 S :    0.412066
  17 C :   -0.182895
  18 C :   -0.075162
  19 C :   -0.054625
  20 C :   -0.215420
  21 H :    0.042340
  22 C :   -0.038224
  23 H :    0.030510
  24 H :    0.037193
  25 C :   -0.036771
  26 H :    0.022787
  27 H :    0.024798
  28 C :   -0.065579
  29 H :    0.021094
  30 H :    0.019359
  31 H :    0.026554
  32 H :    0.031233
  33 H :    0.039235

  Mayer bond orders larger than 0.100000
B(  0-S ,  1-C ) :   1.1486 B(  0-S ,  4-C ) :   1.1613 B(  1-C ,  2-C ) :   1.5720
B(  1-C ,  4-C ) :   0.1211 B(  1-C , 32-H ) :   0.9673 B(  2-C ,  3-C ) :   1.2745
B(  2-C ,  6-C ) :   1.0131 B(  3-C ,  4-C ) :   1.5560 B(  3-C ,  5-H ) :   0.9699
B(  4-C , 20-C ) :   1.0432 B(  6-C ,  7-H ) :   0.9382 B(  6-C ,  8-H ) :   0.9447
B(  6-C ,  9-C ) :   1.0763 B(  9-C , 10-H ) :   0.9556 B(  9-C , 11-H ) :   0.9548
B(  9-C , 12-C ) :   1.0624 B( 12-C , 13-H ) :   0.9804 B( 12-C , 14-H ) :   0.9763
B( 12-C , 15-H ) :   0.9730 B( 16-S , 17-C ) :   1.1177 B( 16-S , 20-C ) :   1.1727
B( 17-C , 18-C ) :   1.6465 B( 17-C , 33-H ) :   0.9647 B( 18-C , 19-C ) :   1.2218
B( 18-C , 21-H ) :   0.9802 B( 19-C , 20-C ) :   1.5823 B( 19-C , 22-C ) :   1.0281
B( 22-C , 23-H ) :   0.9442 B( 22-C , 24-H ) :   0.9175 B( 22-C , 25-C ) :   1.0871
B( 25-C , 26-H ) :   0.9516 B( 25-C , 27-H ) :   0.9563 B( 25-C , 28-C ) :   1.0751
B( 28-C , 29-H ) :   0.9752 B( 28-C , 30-H ) :   0.9755 B( 28-C , 31-H ) :   0.9744

Dispersion correction           -0.014909704
FINAL SINGLE POINT ENERGY     -1339.863832435800

DIPOLE MOMENT
-------------
                                X             Y             Z
Electronic contribution:      0.29580     -22.21654       7.22761
Nuclear contribution   :     -0.33891      22.80108      -7.29117
                        -----------------------------------------
Total Dipole Moment    :     -0.04311       0.58454      -0.06356
                        -----------------------------------------
Magnitude (a.u.)       :      0.58956
Magnitude (Debye)      :      1.49855

Rotational constants in cm-1:     0.018768     0.008730     0.007793
Rotational constants in MHz :   562.658041   261.710910   233.637879

                             ****ORCA TERMINATED NORMALLY****
TOTAL RUN TIME: 0 days 0 hours 0 minutes 21 seconds 48 msec
