                         Program Version 4.2.1 -  RELEASE  -
|  1> ! wB97X-D3 SP def2-SVP
|  2> %pal
|  3> nprocs 24
|  4> end
|  5>
|  6> * xyz 0 1
|  7> S 	 -106.255 	 -0.0704729 	 -105.262
|  8> C 	 -105.792 	 0.754914 	 -106.736
|  9> C 	 -104.724 	 1.61159 	 -106.497
| 10> C 	 -104.155 	 1.42011 	 -105.212
| 11> C 	 -104.835 	 0.56569 	 -104.396
| 12> H 	 -103.38 	 2.04681 	 -104.755
| 13> C 	 -104.044 	 2.51792 	 -107.504
| 14> H 	 -104.458 	 3.45085 	 -107.228
| 15> H 	 -104.482 	 2.31443 	 -108.463
| 16> C 	 -102.508 	 2.43495 	 -107.597
| 17> H 	 -102.05 	 2.96943 	 -106.844
| 18> H 	 -102.226 	 1.41338 	 -107.55
| 19> C 	 -102.107 	 3.01026 	 -108.942
| 20> H 	 -101.024 	 2.77966 	 -109.162
| 21> H 	 -102.701 	 2.63012 	 -109.675
| 22> H 	 -102.157 	 4.0927 	 -109.167
| 23> S 	 -106.034 	 0.218294 	 -101.897
| 24> C 	 -104.959 	 -0.0362627 	 -100.574
| 25> C 	 -103.613 	 0.0600468 	 -100.914
| 26> C 	 -103.411 	 0.201315 	 -102.281
| 27> C 	 -104.617 	 0.291339 	 -103.001
| 28> H 	 -102.787 	 -0.0548805 	 -100.197
| 29> C 	 -102.047 	 0.184812 	 -102.88
| 30> H 	 -102.146 	 -0.173946 	 -103.945
| 31> H 	 -101.517 	 -0.600897 	 -102.475
| 32> C 	 -101.247 	 1.58432 	 -102.84
| 33> H 	 -101.107 	 1.93104 	 -101.791
| 34> H 	 -101.981 	 2.40384 	 -103.209
| 35> C 	 -99.9015 	 1.59957 	 -103.535
| 36> H 	 -99.1719 	 0.999008 	 -103.067
| 37> H 	 -99.5787 	 2.67812 	 -103.634
| 38> H 	 -100.098 	 1.27491 	 -104.521
| 39> H 	 -106.396 	 0.915465 	 -107.683
| 40> H 	 -105.382 	 -0.321351 	 -99.6335
| 41> *
| 42>
| 43>                          ****END OF INPUT****

CARTESIAN COORDINATES (ANGSTROEM)
---------------------------------
  S    -106.255000   -0.070473  -105.262000
  C    -105.792000    0.754914  -106.736000
  C    -104.724000    1.611590  -106.497000
  C    -104.155000    1.420110  -105.212000
  C    -104.835000    0.565690  -104.396000
  H    -103.380000    2.046810  -104.755000
  C    -104.044000    2.517920  -107.504000
  H    -104.458000    3.450850  -107.228000
  H    -104.482000    2.314430  -108.463000
  C    -102.508000    2.434950  -107.597000
  H    -102.050000    2.969430  -106.844000
  H    -102.226000    1.413380  -107.550000
  C    -102.107000    3.010260  -108.942000
  H    -101.024000    2.779660  -109.162000
  H    -102.701000    2.630120  -109.675000
  H    -102.157000    4.092700  -109.167000
  S    -106.034000    0.218294  -101.897000
  C    -104.959000   -0.036263  -100.574000
  C    -103.613000    0.060047  -100.914000
  C    -103.411000    0.201315  -102.281000
  C    -104.617000    0.291339  -103.001000
  H    -102.787000   -0.054880  -100.197000
  C    -102.047000    0.184812  -102.880000
  H    -102.146000   -0.173946  -103.945000
  H    -101.517000   -0.600897  -102.475000
  C    -101.247000    1.584320  -102.840000
  H    -101.107000    1.931040  -101.791000
  H    -101.981000    2.403840  -103.209000
  C    -99.901500    1.599570  -103.535000
  H    -99.171900    0.999008  -103.067000
  H    -99.578700    2.678120  -103.634000
  H    -100.098000    1.274910  -104.521000
  H    -106.396000    0.915465  -107.683000
  H    -105.382000   -0.321351  -99.633500

 Total Charge           Charge          ....    0
 Multiplicity           Mult            ....    1
 Number of Electrons    NEL             ....  134
 Basis Dimension        Dim             ....  322

ORBITAL ENERGIES
----------------

  NO   OCC          E(Eh)            E(eV)
   0   2.0000     -88.968451     -2420.9546
   1   2.0000     -88.963615     -2420.8230
   2   2.0000     -10.328342      -281.0485
   3   2.0000     -10.326957      -281.0108
   4   2.0000     -10.316697      -280.7316
   5   2.0000     -10.315525      -280.6997
   6   2.0000     -10.301892      -280.3287
   7   2.0000     -10.300751      -280.2977
   8   2.0000     -10.297097      -280.1983
   9   2.0000     -10.293883      -280.1108
  10   2.0000     -10.291998      -280.0595
  11   2.0000     -10.288305      -279.9590
  12   2.0000     -10.285759      -279.8897
  13   2.0000     -10.282096      -279.7901
  14   2.0000     -10.278972      -279.7051
  15   2.0000     -10.274819      -279.5920
  16   2.0000      -8.082978      -219.9490
  17   2.0000      -8.077794      -219.8080
  18   2.0000      -6.041367      -164.3940
  19   2.0000      -6.037553      -164.2902
  20   2.0000      -6.036488      -164.2612
  21   2.0000      -6.033852      -164.1895
  22   2.0000      -6.032392      -164.1497
  23   2.0000      -6.028378      -164.0405
  24   2.0000      -1.005331       -27.3564
  25   2.0000      -0.983203       -26.7543
  26   2.0000      -0.917197       -24.9582
  27   2.0000      -0.905718       -24.6459
  28   2.0000      -0.870640       -23.6913
  29   2.0000      -0.860924       -23.4269
  30   2.0000      -0.846856       -23.0441
  31   2.0000      -0.812512       -22.1096
  32   2.0000      -0.785757       -21.3815
  33   2.0000      -0.768074       -20.9004
  34   2.0000      -0.719036       -19.5660
  35   2.0000      -0.701853       -19.0984
  36   2.0000      -0.695253       -18.9188
  37   2.0000      -0.662912       -18.0387
  38   2.0000      -0.636862       -17.3299
  39   2.0000      -0.617420       -16.8008
  40   2.0000      -0.600845       -16.3498
  41   2.0000      -0.578302       -15.7364
  42   2.0000      -0.560511       -15.2523
  43   2.0000      -0.557888       -15.1809
  44   2.0000      -0.529559       -14.4100
  45   2.0000      -0.525369       -14.2960
  46   2.0000      -0.517146       -14.0723
  47   2.0000      -0.514732       -14.0066
  48   2.0000      -0.504172       -13.7192
  49   2.0000      -0.496401       -13.5077
  50   2.0000      -0.490611       -13.3502
  51   2.0000      -0.482077       -13.1180
  52   2.0000      -0.475018       -12.9259
  53   2.0000      -0.463135       -12.6025
  54   2.0000      -0.458506       -12.4766
  55   2.0000      -0.453444       -12.3388
  56   2.0000      -0.446258       -12.1433
  57   2.0000      -0.438365       -11.9285
  58   2.0000      -0.436145       -11.8681
  59   2.0000      -0.429990       -11.7006
  60   2.0000      -0.424799       -11.5594
  61   2.0000      -0.414997       -11.2926
  62   2.0000      -0.414077       -11.2676
  63   2.0000      -0.351829        -9.5738
  64   2.0000      -0.336797        -9.1647
  65   2.0000      -0.327177        -8.9030
  66   2.0000      -0.281791        -7.6679
  67   0.0000       0.020426         0.5558
  68   0.0000       0.075872         2.0646
  69   0.0000       0.106603         2.9008
  70   0.0000       0.123185         3.3520
  71   0.0000       0.131936         3.5902

MULLIKEN ATOMIC CHARGES
-----------------------
   0 S :    0.094386
   1 C :   -0.127393
   2 C :   -0.132461
   3 C :    0.005519
   4 C :   -0.127976
   5 H :   -0.000722
   6 C :    0.087498
   7 H :    0.027901
   8 H :   -0.003250
   9 C :    0.002890
  10 H :    0.018782
  11 H :    0.032974
  12 C :   -0.053693
  13 H :    0.033884
  14 H :    0.004674
  15 H :    0.030235
  16 S :    0.109851
  17 C :   -0.091741
  18 C :   -0.021956
  19 C :   -0.036246
  20 C :   -0.142284
  21 H :    0.023276
  22 C :    0.068366
  23 H :    0.031612
  24 H :    0.005252
  25 C :   -0.133659
  26 H :    0.027697
  27 H :    0.040620
  28 C :    0.005912
  29 H :    0.035826
  30 H :    0.042772
  31 H :    0.017701
  32 H :    0.069735
  33 H :    0.054020
Sum of atomic charges:   -0.0000000

LOEWDIN ATOMIC CHARGES
----------------------
   0 S :    0.384601
   1 C :   -0.218907
   2 C :   -0.063467
   3 C :   -0.071764
   4 C :   -0.178540
   5 H :    0.031606
   6 C :   -0.025552
   7 H :    0.031282
   8 H :    0.023746
   9 C :   -0.022708
  10 H :    0.015789
  11 H :    0.028103
  12 C :   -0.064052
  13 H :    0.031749
  14 H :    0.008624
  15 H :    0.029594
  16 S :    0.402840
  17 C :   -0.183508
  18 C :   -0.071065
  19 C :   -0.055972
  20 C :   -0.185379
  21 H :    0.036707
  22 C :   -0.033056
  23 H :    0.038307
  24 H :    0.018604
  25 C :   -0.045232
  26 H :    0.022562
  27 H :    0.028775
  28 C :   -0.060563
  29 H :    0.021832
  30 H :    0.038837
  31 H :    0.019576
  32 H :    0.044637
  33 H :    0.021994

  Mayer bond orders larger than 0.100000
B(  0-S ,  1-C ) :   1.1236 B(  0-S ,  4-C ) :   1.1300 B(  1-C ,  2-C ) :   1.6314
B(  1-C , 32-H ) :   0.9495 B(  2-C ,  3-C ) :   1.2434 B(  2-C ,  6-C ) :   1.0129
B(  3-C ,  4-C ) :   1.5779 B(  3-C ,  5-H ) :   0.9845 B(  4-C , 20-C ) :   1.0815
B(  6-C ,  7-H ) :   0.9201 B(  6-C ,  8-H ) :   0.9456 B(  6-C ,  9-C ) :   1.0677
B(  9-C , 10-H ) :   0.9440 B(  9-C , 11-H ) :   0.9581 B(  9-C , 12-C ) :   1.0873
B( 12-C , 13-H ) :   0.9730 B( 12-C , 14-H ) :   0.9763 B( 12-C , 15-H ) :   0.9744
B( 16-S , 17-C ) :   1.1755 B( 16-S , 20-C ) :   1.1346 B( 17-C , 18-C ) :   1.5538
B( 17-C , 20-C ) :   0.1100 B( 17-C , 33-H ) :   0.9721 B( 18-C , 19-C ) :   1.2842
B( 18-C , 21-H ) :   0.9891 B( 19-C , 20-C ) :   1.5531 B( 19-C , 22-C ) :   1.0542
B( 22-C , 23-H ) :   0.9310 B( 22-C , 24-H ) :   0.9307 B( 22-C , 25-C ) :   1.0333
B( 25-C , 26-H ) :   0.9530 B( 25-C , 27-H ) :   0.9528 B( 25-C , 28-C ) :   1.0796
B( 28-C , 29-H ) :   0.9740 B( 28-C , 30-H ) :   0.9706 B( 28-C , 31-H ) :   0.9722

Dispersion correction           -0.014579152
FINAL SINGLE POINT ENERGY     -1339.865560802918

DIPOLE MOMENT
-------------
                                X             Y             Z
Electronic contribution:    -27.76287     -12.98724      14.45620
Nuclear contribution   :     28.42940      13.36489     -14.53811
                        -----------------------------------------
Total Dipole Moment    :      0.66653       0.37765      -0.08191
                        -----------------------------------------
Magnitude (a.u.)       :      0.77045
Magnitude (Debye)      :      1.95832

Rotational constants in cm-1:     0.017372     0.009819     0.006544
Rotational constants in MHz :   520.794423   294.373733   196.173262

                             ****ORCA TERMINATED NORMALLY****
TOTAL RUN TIME: 0 days 0 hours 0 minutes 21 seconds 1 msec
