                         Program Version 4.2.1 -  RELEASE  -
|  1> ! wB97X-D3 SP def2-SVP
|  2> %pal
|  3> nprocs 24
|  4> end
|  5>
|  6> * xyz 0 1
|  7> S 	 -104.42 	 46.6216 	 -101.494
|  8> C 	 -104.699 	 48.343 	 -101.481
|  9> C 	 -103.569 	 49.1429 	 -101.136
| 10> C 	 -102.514 	 48.2582 	 -100.739
| 11> C 	 -102.819 	 46.9117 	 -100.874
| 12> H 	 -101.606 	 48.5124 	 -100.291
| 13> C 	 -103.548 	 50.6585 	 -101.01
| 14> H 	 -102.875 	 50.9919 	 -100.181
| 15> H 	 -104.61 	 50.929 	 -100.774
| 16> C 	 -103.16 	 51.5139 	 -102.25
| 17> H 	 -103.968 	 51.2555 	 -102.971
| 18> H 	 -103.278 	 52.5675 	 -102.007
| 19> C 	 -101.694 	 51.2824 	 -102.745
| 20> H 	 -101.623 	 50.2717 	 -103.223
| 21> H 	 -101.341 	 52.085 	 -103.4
| 22> H 	 -100.935 	 51.4333 	 -101.996
| 23> S 	 -102.661 	 44.2769 	 -100.043
| 24> C 	 -101.127 	 43.5346 	 -99.8318
| 25> C 	 -100.134 	 44.3039 	 -100.437
| 26> C 	 -100.599 	 45.5898 	 -100.835
| 27> C 	 -101.971 	 45.7706 	 -100.578
| 28> H 	 -99.1311 	 43.9517 	 -100.43
| 29> C 	 -99.5883 	 46.486 	 -101.649
| 30> H 	 -99.9063 	 47.5783 	 -101.915
| 31> H 	 -99.4423 	 46.1941 	 -102.718
| 32> C 	 -98.1541 	 46.571 	 -100.988
| 33> H 	 -97.3757 	 46.7499 	 -101.728
| 34> H 	 -97.8926 	 45.6214 	 -100.456
| 35> C 	 -97.9159 	 47.7673 	 -99.9334
| 36> H 	 -96.9242 	 47.5458 	 -99.6355
| 37> H 	 -98.706 	 47.6849 	 -99.1654
| 38> H 	 -97.9743 	 48.7281 	 -100.41
| 39> H 	 -105.675 	 48.78 	 -101.678
| 40> H 	 -101.216 	 42.4047 	 -99.644
| 41> *
| 42>
| 43>                          ****END OF INPUT****

CARTESIAN COORDINATES (ANGSTROEM)
---------------------------------
  S    -104.420000   46.621600  -101.494000
  C    -104.699000   48.343000  -101.481000
  C    -103.569000   49.142900  -101.136000
  C    -102.514000   48.258200  -100.739000
  C    -102.819000   46.911700  -100.874000
  H    -101.606000   48.512400  -100.291000
  C    -103.548000   50.658500  -101.010000
  H    -102.875000   50.991900  -100.181000
  H    -104.610000   50.929000  -100.774000
  C    -103.160000   51.513900  -102.250000
  H    -103.968000   51.255500  -102.971000
  H    -103.278000   52.567500  -102.007000
  C    -101.694000   51.282400  -102.745000
  H    -101.623000   50.271700  -103.223000
  H    -101.341000   52.085000  -103.400000
  H    -100.935000   51.433300  -101.996000
  S    -102.661000   44.276900  -100.043000
  C    -101.127000   43.534600  -99.831800
  C    -100.134000   44.303900  -100.437000
  C    -100.599000   45.589800  -100.835000
  C    -101.971000   45.770600  -100.578000
  H    -99.131100   43.951700  -100.430000
  C    -99.588300   46.486000  -101.649000
  H    -99.906300   47.578300  -101.915000
  H    -99.442300   46.194100  -102.718000
  C    -98.154100   46.571000  -100.988000
  H    -97.375700   46.749900  -101.728000
  H    -97.892600   45.621400  -100.456000
  C    -97.915900   47.767300  -99.933400
  H    -96.924200   47.545800  -99.635500
  H    -98.706000   47.684900  -99.165400
  H    -97.974300   48.728100  -100.410000
  H    -105.675000   48.780000  -101.678000
  H    -101.216000   42.404700  -99.644000

 Total Charge           Charge          ....    0
 Multiplicity           Mult            ....    1
 Number of Electrons    NEL             ....  134
 Basis Dimension        Dim             ....  322

ORBITAL ENERGIES
----------------

  NO   OCC          E(Eh)            E(eV)
   0   2.0000     -88.971053     -2421.0254
   1   2.0000     -88.965179     -2420.8656
   2   2.0000     -10.328675      -281.0575
   3   2.0000     -10.326718      -281.0043
   4   2.0000     -10.322563      -280.8912
   5   2.0000     -10.316897      -280.7370
   6   2.0000     -10.312432      -280.6155
   7   2.0000     -10.309162      -280.5265
   8   2.0000     -10.308660      -280.5129
   9   2.0000     -10.300962      -280.3034
  10   2.0000     -10.296817      -280.1906
  11   2.0000     -10.294258      -280.1210
  12   2.0000     -10.293862      -280.1102
  13   2.0000     -10.290345      -280.0145
  14   2.0000     -10.282743      -279.8077
  15   2.0000     -10.277549      -279.6663
  16   2.0000      -8.085843      -220.0270
  17   2.0000      -8.081198      -219.9006
  18   2.0000      -6.044215      -164.4715
  19   2.0000      -6.040456      -164.3692
  20   2.0000      -6.039489      -164.3428
  21   2.0000      -6.036657      -164.2658
  22   2.0000      -6.035515      -164.2347
  23   2.0000      -6.032129      -164.1426
  24   2.0000      -1.009871       -27.4800
  25   2.0000      -0.984405       -26.7870
  26   2.0000      -0.906318       -24.6622
  27   2.0000      -0.893270       -24.3071
  28   2.0000      -0.865725       -23.5576
  29   2.0000      -0.851217       -23.1628
  30   2.0000      -0.843033       -22.9401
  31   2.0000      -0.810135       -22.0449
  32   2.0000      -0.782443       -21.2914
  33   2.0000      -0.770895       -20.9771
  34   2.0000      -0.704059       -19.1584
  35   2.0000      -0.696431       -18.9508
  36   2.0000      -0.688109       -18.7244
  37   2.0000      -0.658170       -17.9097
  38   2.0000      -0.639143       -17.3920
  39   2.0000      -0.618269       -16.8240
  40   2.0000      -0.600707       -16.3461
  41   2.0000      -0.571353       -15.5473
  42   2.0000      -0.548039       -14.9129
  43   2.0000      -0.546062       -14.8591
  44   2.0000      -0.541849       -14.7445
  45   2.0000      -0.525004       -14.2861
  46   2.0000      -0.509777       -13.8717
  47   2.0000      -0.505281       -13.7494
  48   2.0000      -0.496862       -13.5203
  49   2.0000      -0.491743       -13.3810
  50   2.0000      -0.487143       -13.2558
  51   2.0000      -0.481409       -13.0998
  52   2.0000      -0.470657       -12.8072
  53   2.0000      -0.467090       -12.7102
  54   2.0000      -0.463186       -12.6039
  55   2.0000      -0.455343       -12.3905
  56   2.0000      -0.446034       -12.1372
  57   2.0000      -0.434192       -11.8150
  58   2.0000      -0.428249       -11.6532
  59   2.0000      -0.426123       -11.5954
  60   2.0000      -0.421176       -11.4608
  61   2.0000      -0.417343       -11.3565
  62   2.0000      -0.403113       -10.9693
  63   2.0000      -0.351420        -9.5626
  64   2.0000      -0.335095        -9.1184
  65   2.0000      -0.329697        -8.9715
  66   2.0000      -0.282734        -7.6936
  67   0.0000       0.020525         0.5585
  68   0.0000       0.071479         1.9450
  69   0.0000       0.100787         2.7425
  70   0.0000       0.112121         3.0510
  71   0.0000       0.128532         3.4975

MULLIKEN ATOMIC CHARGES
-----------------------
   0 S :    0.119859
   1 C :   -0.125511
   2 C :   -0.066645
   3 C :    0.031676
   4 C :   -0.137713
   5 H :   -0.013860
   6 C :    0.023420
   7 H :    0.036638
   8 H :    0.032711
   9 C :   -0.065588
  10 H :    0.034325
  11 H :    0.032902
  12 C :   -0.067803
  13 H :    0.062426
  14 H :    0.030808
  15 H :    0.019298
  16 S :    0.099845
  17 C :   -0.128244
  18 C :   -0.032640
  19 C :    0.001266
  20 C :   -0.143288
  21 H :    0.023571
  22 C :    0.010304
  23 H :    0.033813
  24 H :    0.050297
  25 C :   -0.134772
  26 H :    0.026593
  27 H :    0.038778
  28 C :   -0.041200
  29 H :    0.033018
  30 H :    0.045929
  31 H :    0.030166
  32 H :    0.044824
  33 H :    0.094797
Sum of atomic charges:    0.0000000

LOEWDIN ATOMIC CHARGES
----------------------
   0 S :    0.414614
   1 C :   -0.202393
   2 C :   -0.058247
   3 C :   -0.054789
   4 C :   -0.190897
   5 H :    0.021112
   6 C :   -0.037377
   7 H :    0.032833
   8 H :    0.037060
   9 C :   -0.040363
  10 H :    0.027576
  11 H :    0.023807
  12 C :   -0.077957
  13 H :    0.035813
  14 H :    0.029302
  15 H :    0.022316
  16 S :    0.426779
  17 C :   -0.210773
  18 C :   -0.066846
  19 C :   -0.058130
  20 C :   -0.208383
  21 H :    0.027235
  22 C :   -0.048190
  23 H :    0.038341
  24 H :    0.039392
  25 C :   -0.043734
  26 H :    0.020431
  27 H :    0.023619
  28 C :   -0.058269
  29 H :    0.022056
  30 H :    0.027383
  31 H :    0.018563
  32 H :    0.022740
  33 H :    0.045375

  Mayer bond orders larger than 0.100000
B(  0-S ,  1-C ) :   1.1529 B(  0-S ,  4-C ) :   1.1471 B(  1-C ,  2-C ) :   1.5901
B(  1-C , 32-H ) :   0.9648 B(  2-C ,  3-C ) :   1.2377 B(  2-C ,  6-C ) :   1.0180
B(  3-C ,  4-C ) :   1.5784 B(  3-C ,  5-H ) :   1.0038 B(  4-C , 20-C ) :   1.0673
B(  6-C ,  7-H ) :   0.9477 B(  6-C ,  8-H ) :   0.9414 B(  6-C ,  9-C ) :   1.0700
B(  9-C , 10-H ) :   0.9578 B(  9-C , 11-H ) :   0.9568 B(  9-C , 12-C ) :   1.0702
B( 12-C , 13-H ) :   0.9753 B( 12-C , 14-H ) :   0.9730 B( 12-C , 15-H ) :   0.9722
B( 16-S , 17-C ) :   1.1812 B( 16-S , 20-C ) :   1.1634 B( 17-C , 18-C ) :   1.5601
B( 17-C , 20-C ) :   0.1031 B( 17-C , 33-H ) :   0.9568 B( 18-C , 19-C ) :   1.2784
B( 18-C , 21-H ) :   0.9922 B( 19-C , 20-C ) :   1.5422 B( 19-C , 22-C ) :   1.0140
B( 22-C , 23-H ) :   0.9479 B( 22-C , 24-H ) :   0.9481 B( 22-C , 25-C ) :   1.0427
B( 25-C , 26-H ) :   0.9592 B( 25-C , 27-H ) :   0.9643 B( 25-C , 28-C ) :   1.0662
B( 28-C , 29-H ) :   0.9779 B( 28-C , 30-H ) :   0.9805 B( 28-C , 31-H ) :   0.9786

Dispersion correction           -0.014241310
FINAL SINGLE POINT ENERGY     -1339.860886742351

DIPOLE MOMENT
-------------
                                X             Y             Z
Electronic contribution:    -19.77815     -23.58496       4.45031
Nuclear contribution   :     20.20665      23.95662      -4.64164
                        -----------------------------------------
Total Dipole Moment    :      0.42850       0.37166      -0.19133
                        -----------------------------------------
Magnitude (a.u.)       :      0.59863
Magnitude (Debye)      :      1.52159

Rotational constants in cm-1:     0.017193     0.009726     0.006591
Rotational constants in MHz :   515.443773   291.567279   197.586884

                             ****ORCA TERMINATED NORMALLY****
TOTAL RUN TIME: 0 days 0 hours 0 minutes 21 seconds 267 msec
