                         Program Version 4.2.1 -  RELEASE  -
|  1> ! wB97X-D3 SP def2-SVP
|  2> %pal
|  3> nprocs 24
|  4> end
|  5>
|  6> * xyz 0 1
|  7> S 	 -107.229 	 49.5945 	 -7.0085
|  8> C 	 -107.718 	 50.9308 	 -5.98345
|  9> C 	 -107.043 	 50.9004 	 -4.76908
| 10> C 	 -106.093 	 49.8481 	 -4.73228
| 11> C 	 -106.043 	 49.079 	 -5.8548
| 12> H 	 -105.542 	 49.5197 	 -3.85304
| 13> C 	 -107.274 	 51.8359 	 -3.55359
| 14> H 	 -106.857 	 51.3238 	 -2.65289
| 15> H 	 -108.324 	 51.846 	 -3.37844
| 16> C 	 -106.72 	 53.2846 	 -3.50873
| 17> H 	 -106.638 	 53.4543 	 -2.42848
| 18> H 	 -105.642 	 53.405 	 -3.80614
| 19> C 	 -107.589 	 54.2245 	 -4.28163
| 20> H 	 -108.657 	 54.0593 	 -4.09988
| 21> H 	 -107.225 	 55.1733 	 -4.006
| 22> H 	 -107.399 	 54.0482 	 -5.38978
| 23> S 	 -106.08 	 46.3812 	 -6.5578
| 24> C 	 -104.577 	 45.5279 	 -6.73949
| 25> C 	 -103.504 	 46.2924 	 -6.48483
| 26> C 	 -103.922 	 47.657 	 -6.14768
| 27> C 	 -105.266 	 47.8825 	 -6.14542
| 28> H 	 -102.489 	 45.8713 	 -6.55762
| 29> C 	 -102.939 	 48.7655 	 -5.79915
| 30> H 	 -102.46 	 48.5047 	 -4.89596
| 31> H 	 -103.477 	 49.6816 	 -5.59338
| 32> C 	 -101.87 	 49.0873 	 -6.80882
| 33> H 	 -101.294 	 48.2194 	 -6.96349
| 34> H 	 -101.236 	 49.8908 	 -6.49004
| 35> C 	 -102.431 	 49.6801 	 -8.11163
| 36> H 	 -103.198 	 48.9693 	 -8.54446
| 37> H 	 -101.557 	 49.8066 	 -8.66884
| 38> H 	 -102.882 	 50.6729 	 -7.80214
| 39> H 	 -108.541 	 51.6307 	 -6.12378
| 40> H 	 -104.437 	 44.4957 	 -6.96827
| 41> *
| 42>
| 43>                          ****END OF INPUT****

CARTESIAN COORDINATES (ANGSTROEM)
---------------------------------
  S    -107.229000   49.594500   -7.008500
  C    -107.718000   50.930800   -5.983450
  C    -107.043000   50.900400   -4.769080
  C    -106.093000   49.848100   -4.732280
  C    -106.043000   49.079000   -5.854800
  H    -105.542000   49.519700   -3.853040
  C    -107.274000   51.835900   -3.553590
  H    -106.857000   51.323800   -2.652890
  H    -108.324000   51.846000   -3.378440
  C    -106.720000   53.284600   -3.508730
  H    -106.638000   53.454300   -2.428480
  H    -105.642000   53.405000   -3.806140
  C    -107.589000   54.224500   -4.281630
  H    -108.657000   54.059300   -4.099880
  H    -107.225000   55.173300   -4.006000
  H    -107.399000   54.048200   -5.389780
  S    -106.080000   46.381200   -6.557800
  C    -104.577000   45.527900   -6.739490
  C    -103.504000   46.292400   -6.484830
  C    -103.922000   47.657000   -6.147680
  C    -105.266000   47.882500   -6.145420
  H    -102.489000   45.871300   -6.557620
  C    -102.939000   48.765500   -5.799150
  H    -102.460000   48.504700   -4.895960
  H    -103.477000   49.681600   -5.593380
  C    -101.870000   49.087300   -6.808820
  H    -101.294000   48.219400   -6.963490
  H    -101.236000   49.890800   -6.490040
  C    -102.431000   49.680100   -8.111630
  H    -103.198000   48.969300   -8.544460
  H    -101.557000   49.806600   -8.668840
  H    -102.882000   50.672900   -7.802140
  H    -108.541000   51.630700   -6.123780
  H    -104.437000   44.495700   -6.968270

 Total Charge           Charge          ....    0
 Multiplicity           Mult            ....    1
 Number of Electrons    NEL             ....  134
 Basis Dimension        Dim             ....  322

ORBITAL ENERGIES
----------------

  NO   OCC          E(Eh)            E(eV)
   0   2.0000     -88.967236     -2420.9216
   1   2.0000     -88.961983     -2420.7786
   2   2.0000     -10.326560      -281.0000
   3   2.0000     -10.323670      -280.9213
   4   2.0000     -10.315173      -280.6901
   5   2.0000     -10.312944      -280.6295
   6   2.0000     -10.303207      -280.3645
   7   2.0000     -10.302291      -280.3396
   8   2.0000     -10.295621      -280.1581
   9   2.0000     -10.294317      -280.1226
  10   2.0000     -10.291188      -280.0375
  11   2.0000     -10.290158      -280.0094
  12   2.0000     -10.279256      -279.7128
  13   2.0000     -10.276247      -279.6309
  14   2.0000     -10.272489      -279.5286
  15   2.0000     -10.271301      -279.4963
  16   2.0000      -8.082123      -219.9257
  17   2.0000      -8.077149      -219.7904
  18   2.0000      -6.040651      -164.3745
  19   2.0000      -6.036537      -164.2625
  20   2.0000      -6.035813      -164.2428
  21   2.0000      -6.032906      -164.1637
  22   2.0000      -6.031631      -164.1290
  23   2.0000      -6.027669      -164.0212
  24   2.0000      -1.010844       -27.5065
  25   2.0000      -0.987593       -26.8738
  26   2.0000      -0.911966       -24.8159
  27   2.0000      -0.911328       -24.7985
  28   2.0000      -0.874848       -23.8058
  29   2.0000      -0.851988       -23.1838
  30   2.0000      -0.842151       -22.9161
  31   2.0000      -0.819397       -22.2969
  32   2.0000      -0.784923       -21.3588
  33   2.0000      -0.773709       -21.0537
  34   2.0000      -0.707014       -19.2388
  35   2.0000      -0.695958       -18.9380
  36   2.0000      -0.689365       -18.7586
  37   2.0000      -0.652868       -17.7654
  38   2.0000      -0.642200       -17.4752
  39   2.0000      -0.620114       -16.8742
  40   2.0000      -0.597961       -16.2713
  41   2.0000      -0.572758       -15.5855
  42   2.0000      -0.556442       -15.1416
  43   2.0000      -0.553312       -15.0564
  44   2.0000      -0.547588       -14.9006
  45   2.0000      -0.533952       -14.5296
  46   2.0000      -0.524234       -14.2651
  47   2.0000      -0.516702       -14.0602
  48   2.0000      -0.504986       -13.7414
  49   2.0000      -0.493149       -13.4193
  50   2.0000      -0.485875       -13.2213
  51   2.0000      -0.481701       -13.1078
  52   2.0000      -0.473094       -12.8735
  53   2.0000      -0.463512       -12.6128
  54   2.0000      -0.460118       -12.5205
  55   2.0000      -0.449732       -12.2378
  56   2.0000      -0.444265       -12.0891
  57   2.0000      -0.438741       -11.9388
  58   2.0000      -0.426732       -11.6120
  59   2.0000      -0.421571       -11.4715
  60   2.0000      -0.419177       -11.4064
  61   2.0000      -0.408215       -11.1081
  62   2.0000      -0.404821       -11.0157
  63   2.0000      -0.349392        -9.5074
  64   2.0000      -0.333253        -9.0683
  65   2.0000      -0.327609        -8.9147
  66   2.0000      -0.299594        -8.1524
  67   0.0000       0.036523         0.9938
  68   0.0000       0.072332         1.9683
  69   0.0000       0.114085         3.1044
  70   0.0000       0.127356         3.4655
  71   0.0000       0.129066         3.5121

MULLIKEN ATOMIC CHARGES
-----------------------
   0 S :    0.119843
   1 C :   -0.115675
   2 C :   -0.096301
   3 C :    0.040460
   4 C :   -0.172680
   5 H :    0.017171
   6 C :    0.046836
   7 H :    0.020495
   8 H :    0.021982
   9 C :   -0.077680
  10 H :    0.026103
  11 H :    0.033413
  12 C :   -0.032934
  13 H :    0.032930
  14 H :    0.028852
  15 H :    0.046984
  16 S :    0.100793
  17 C :   -0.068687
  18 C :   -0.037597
  19 C :   -0.062894
  20 C :   -0.146133
  21 H :    0.032229
  22 C :    0.113305
  23 H :    0.015541
  24 H :    0.007814
  25 C :   -0.080086
  26 H :    0.012060
  27 H :    0.019187
  28 C :   -0.058402
  29 H :    0.057270
  30 H :    0.026955
  31 H :    0.037590
  32 H :    0.045996
  33 H :    0.045259
Sum of atomic charges:    0.0000000

LOEWDIN ATOMIC CHARGES
----------------------
   0 S :    0.418537
   1 C :   -0.202695
   2 C :   -0.064427
   3 C :   -0.065025
   4 C :   -0.196979
   5 H :    0.034840
   6 C :   -0.032035
   7 H :    0.033391
   8 H :    0.025938
   9 C :   -0.045683
  10 H :    0.024151
  11 H :    0.031051
  12 C :   -0.065435
  13 H :    0.024288
  14 H :    0.021997
  15 H :    0.036644
  16 S :    0.395170
  17 C :   -0.176678
  18 C :   -0.077134
  19 C :   -0.049444
  20 C :   -0.204019
  21 H :    0.039051
  22 C :   -0.030747
  23 H :    0.024877
  24 H :    0.026325
  25 C :   -0.038836
  26 H :    0.010174
  27 H :    0.023412
  28 C :   -0.060685
  29 H :    0.032581
  30 H :    0.016561
  31 H :    0.031887
  32 H :    0.030138
  33 H :    0.028808

  Mayer bond orders larger than 0.100000
B(  0-S ,  1-C ) :   1.1381 B(  0-S ,  4-C ) :   1.1580 B(  1-C ,  2-C ) :   1.6134
B(  1-C ,  4-C ) :   0.1014 B(  1-C , 32-H ) :   0.9654 B(  2-C ,  3-C ) :   1.2557
B(  2-C ,  6-C ) :   1.0082 B(  3-C ,  4-C ) :   1.5832 B(  3-C ,  5-H ) :   0.9929
B(  4-C , 20-C ) :   1.0199 B(  6-C ,  7-H ) :   0.9458 B(  6-C ,  8-H ) :   0.9410
B(  6-C ,  9-C ) :   1.0645 B(  9-C , 10-H ) :   0.9565 B(  9-C , 11-H ) :   0.9532
B(  9-C , 12-C ) :   1.0760 B( 12-C , 13-H ) :   0.9766 B( 12-C , 14-H ) :   0.9709
B( 12-C , 15-H ) :   0.9709 B( 16-S , 17-C ) :   1.1440 B( 16-S , 20-C ) :   1.1120
B( 17-C , 18-C ) :   1.6599 B( 17-C , 33-H ) :   0.9636 B( 18-C , 19-C ) :   1.1868
B( 18-C , 21-H ) :   0.9893 B( 19-C , 20-C ) :   1.6521 B( 19-C , 22-C ) :   1.0436
B( 22-C , 23-H ) :   0.9254 B( 22-C , 24-H ) :   0.9284 B( 22-C , 25-C ) :   1.0896
B( 25-C , 26-H ) :   0.9550 B( 25-C , 27-H ) :   0.9548 B( 25-C , 28-C ) :   1.0683
B( 28-C , 29-H ) :   0.9763 B( 28-C , 30-H ) :   0.9765 B( 28-C , 31-H ) :   0.9751

Dispersion correction           -0.014515237
FINAL SINGLE POINT ENERGY     -1339.878666843259

DIPOLE MOMENT
-------------
                                X             Y             Z
Electronic contribution:    -11.10002     -21.75575      -7.32448
Nuclear contribution   :     11.50510      22.02915       7.83054
                        -----------------------------------------
Total Dipole Moment    :      0.40508       0.27341       0.50605
                        -----------------------------------------
Magnitude (a.u.)       :      0.70351
Magnitude (Debye)      :      1.78818

Rotational constants in cm-1:     0.021985     0.007955     0.006763
Rotational constants in MHz :   659.104883   238.484168   202.738873

                             ****ORCA TERMINATED NORMALLY****
TOTAL RUN TIME: 0 days 0 hours 0 minutes 21 seconds 884 msec
