                         Program Version 4.2.1 -  RELEASE  -
|  1> ! wB97X-D3 SP def2-SVP
|  2> %pal
|  3> nprocs 24
|  4> end
|  5>
|  6> * xyz 0 1
|  7> S 	 -140.799 	 6.56964 	 4.44959
|  8> C 	 -142.06 	 6.52372 	 3.19829
|  9> C 	 -142.374 	 7.78681 	 2.72508
| 10> C 	 -141.491 	 8.82096 	 3.19567
| 11> C 	 -140.547 	 8.28769 	 4.06328
| 12> H 	 -141.527 	 9.82919 	 3.06033
| 13> C 	 -143.66 	 7.99689 	 1.91902
| 14> H 	 -144.117 	 6.94638 	 1.85335
| 15> H 	 -143.503 	 8.3405 	 0.947018
| 16> C 	 -144.489 	 9.09797 	 2.57387
| 17> H 	 -144.785 	 8.7996 	 3.59747
| 18> H 	 -143.906 	 9.9964 	 2.77862
| 19> C 	 -145.77 	 9.56297 	 1.75889
| 20> H 	 -145.548 	 9.85933 	 0.790746
| 21> H 	 -146.336 	 8.64329 	 1.67535
| 22> H 	 -146.447 	 10.2562 	 2.26635
| 23> S 	 -137.782 	 8.7557 	 3.94382
| 24> C 	 -137.089 	 10.063 	 4.96978
| 25> C 	 -138.11 	 10.5477 	 5.78313
| 26> C 	 -139.436 	 10.1082 	 5.47641
| 27> C 	 -139.45 	 9.0636 	 4.5532
| 28> H 	 -137.85 	 11.2837 	 6.50868
| 29> C 	 -140.679 	 10.6554 	 6.10838
| 30> H 	 -140.472 	 10.8191 	 7.18157
| 31> H 	 -141.558 	 10.0483 	 6.08096
| 32> C 	 -140.954 	 12.0485 	 5.54854
| 33> H 	 -140.939 	 12.1084 	 4.44828
| 34> H 	 -140.012 	 12.6645 	 5.58532
| 35> C 	 -142.197 	 12.8814 	 6.03578
| 36> H 	 -143.119 	 12.5421 	 5.58037
| 37> H 	 -142.045 	 13.8401 	 5.65198
| 38> H 	 -142.367 	 12.7145 	 7.05123
| 39> H 	 -142.709 	 5.58271 	 3.08997
| 40> H 	 -136.086 	 10.5447 	 4.89567
| 41> *
| 42>
| 43>                          ****END OF INPUT****

CARTESIAN COORDINATES (ANGSTROEM)
---------------------------------
  S    -140.799000    6.569640    4.449590
  C    -142.060000    6.523720    3.198290
  C    -142.374000    7.786810    2.725080
  C    -141.491000    8.820960    3.195670
  C    -140.547000    8.287690    4.063280
  H    -141.527000    9.829190    3.060330
  C    -143.660000    7.996890    1.919020
  H    -144.117000    6.946380    1.853350
  H    -143.503000    8.340500    0.947018
  C    -144.489000    9.097970    2.573870
  H    -144.785000    8.799600    3.597470
  H    -143.906000    9.996400    2.778620
  C    -145.770000    9.562970    1.758890
  H    -145.548000    9.859330    0.790746
  H    -146.336000    8.643290    1.675350
  H    -146.447000   10.256200    2.266350
  S    -137.782000    8.755700    3.943820
  C    -137.089000   10.063000    4.969780
  C    -138.110000   10.547700    5.783130
  C    -139.436000   10.108200    5.476410
  C    -139.450000    9.063600    4.553200
  H    -137.850000   11.283700    6.508680
  C    -140.679000   10.655400    6.108380
  H    -140.472000   10.819100    7.181570
  H    -141.558000   10.048300    6.080960
  C    -140.954000   12.048500    5.548540
  H    -140.939000   12.108400    4.448280
  H    -140.012000   12.664500    5.585320
  C    -142.197000   12.881400    6.035780
  H    -143.119000   12.542100    5.580370
  H    -142.045000   13.840100    5.651980
  H    -142.367000   12.714500    7.051230
  H    -142.709000    5.582710    3.089970
  H    -136.086000   10.544700    4.895670

 Total Charge           Charge          ....    0
 Multiplicity           Mult            ....    1
 Number of Electrons    NEL             ....  134
 Basis Dimension        Dim             ....  322

ORBITAL ENERGIES
----------------

  NO   OCC          E(Eh)            E(eV)
   0   2.0000     -88.968008     -2420.9426
   1   2.0000     -88.962807     -2420.8010
   2   2.0000     -10.329796      -281.0880
   3   2.0000     -10.326510      -280.9986
   4   2.0000     -10.326475      -280.9977
   5   2.0000     -10.321919      -280.8737
   6   2.0000     -10.306067      -280.4423
   7   2.0000     -10.305997      -280.4404
   8   2.0000     -10.296411      -280.1796
   9   2.0000     -10.295416      -280.1525
  10   2.0000     -10.293580      -280.1025
  11   2.0000     -10.292226      -280.0657
  12   2.0000     -10.292080      -280.0617
  13   2.0000     -10.290433      -280.0169
  14   2.0000     -10.276670      -279.6424
  15   2.0000     -10.273682      -279.5611
  16   2.0000      -8.081959      -219.9213
  17   2.0000      -8.075979      -219.7586
  18   2.0000      -6.040417      -164.3681
  19   2.0000      -6.036795      -164.2695
  20   2.0000      -6.034705      -164.2127
  21   2.0000      -6.032597      -164.1553
  22   2.0000      -6.030652      -164.1024
  23   2.0000      -6.026631      -163.9930
  24   2.0000      -1.000168       -27.2160
  25   2.0000      -0.975554       -26.5462
  26   2.0000      -0.909655       -24.7530
  27   2.0000      -0.906912       -24.6783
  28   2.0000      -0.869161       -23.6511
  29   2.0000      -0.847614       -23.0648
  30   2.0000      -0.844735       -22.9864
  31   2.0000      -0.814964       -22.1763
  32   2.0000      -0.786254       -21.3950
  33   2.0000      -0.771343       -20.9893
  34   2.0000      -0.712903       -19.3991
  35   2.0000      -0.702331       -19.1114
  36   2.0000      -0.691672       -18.8214
  37   2.0000      -0.659559       -17.9475
  38   2.0000      -0.646208       -17.5842
  39   2.0000      -0.618038       -16.8177
  40   2.0000      -0.597730       -16.2651
  41   2.0000      -0.574376       -15.6296
  42   2.0000      -0.557220       -15.1627
  43   2.0000      -0.549672       -14.9573
  44   2.0000      -0.538671       -14.6580
  45   2.0000      -0.522360       -14.2141
  46   2.0000      -0.517985       -14.0951
  47   2.0000      -0.512330       -13.9412
  48   2.0000      -0.507918       -13.8211
  49   2.0000      -0.505298       -13.7499
  50   2.0000      -0.488112       -13.2822
  51   2.0000      -0.479405       -13.0453
  52   2.0000      -0.471165       -12.8210
  53   2.0000      -0.467862       -12.7312
  54   2.0000      -0.458928       -12.4881
  55   2.0000      -0.453905       -12.3514
  56   2.0000      -0.445942       -12.1347
  57   2.0000      -0.438294       -11.9266
  58   2.0000      -0.437929       -11.9166
  59   2.0000      -0.426590       -11.6081
  60   2.0000      -0.419848       -11.4247
  61   2.0000      -0.414128       -11.2690
  62   2.0000      -0.395850       -10.7716
  63   2.0000      -0.339914        -9.2495
  64   2.0000      -0.326789        -8.8924
  65   2.0000      -0.326565        -8.8863
  66   2.0000      -0.298379        -8.1193
  67   0.0000       0.034704         0.9443
  68   0.0000       0.050460         1.3731
  69   0.0000       0.104505         2.8437
  70   0.0000       0.118714         3.2304
  71   0.0000       0.127151         3.4600

MULLIKEN ATOMIC CHARGES
-----------------------
   0 S :    0.115893
   1 C :   -0.162482
   2 C :   -0.072198
   3 C :    0.078342
   4 C :   -0.176891
   5 H :   -0.022901
   6 C :    0.120261
   7 H :    0.032438
   8 H :    0.014011
   9 C :   -0.135042
  10 H :    0.028845
  11 H :    0.033087
  12 C :   -0.019865
  13 H :    0.020950
  14 H :    0.020393
  15 H :    0.040116
  16 S :    0.096742
  17 C :   -0.120814
  18 C :   -0.023203
  19 C :   -0.028148
  20 C :   -0.174207
  21 H :    0.013219
  22 C :    0.131622
  23 H :    0.025203
  24 H :    0.028128
  25 C :   -0.165617
  26 H :    0.013989
  27 H :    0.017013
  28 C :    0.040953
  29 H :    0.018268
  30 H :    0.028625
  31 H :    0.019461
  32 H :    0.081072
  33 H :    0.082737
Sum of atomic charges:    0.0000000

LOEWDIN ATOMIC CHARGES
----------------------
   0 S :    0.383262
   1 C :   -0.203708
   2 C :   -0.057099
   3 C :   -0.037912
   4 C :   -0.181190
   5 H :    0.016534
   6 C :   -0.025536
   7 H :    0.038864
   8 H :    0.020168
   9 C :   -0.041261
  10 H :    0.025103
  11 H :    0.021067
  12 C :   -0.061345
  13 H :    0.013130
  14 H :    0.025493
  15 H :    0.029881
  16 S :    0.364160
  17 C :   -0.179898
  18 C :   -0.069056
  19 C :   -0.049080
  20 C :   -0.186407
  21 H :    0.026091
  22 C :   -0.030226
  23 H :    0.036274
  24 H :    0.027199
  25 C :   -0.054953
  26 H :    0.020285
  27 H :    0.026362
  28 C :   -0.051703
  29 H :    0.024908
  30 H :    0.024766
  31 H :    0.017614
  32 H :    0.042471
  33 H :    0.045739

  Mayer bond orders larger than 0.100000
B(  0-S ,  1-C ) :   1.1212 B(  0-S ,  4-C ) :   1.1448 B(  1-C ,  2-C ) :   1.6365
B(  1-C , 32-H ) :   0.9533 B(  2-C ,  3-C ) :   1.2018 B(  2-C ,  6-C ) :   1.0231
B(  3-C ,  4-C ) :   1.5798 B(  3-C ,  5-H ) :   1.0093 B(  4-C , 20-C ) :   1.0641
B(  6-C ,  7-H ) :   0.9436 B(  6-C ,  8-H ) :   0.9307 B(  6-C ,  9-C ) :   1.0481
B(  9-C , 10-H ) :   0.9576 B(  9-C , 11-H ) :   0.9577 B(  9-C , 12-C ) :   1.0714
B( 12-C , 13-H ) :   0.9771 B( 12-C , 14-H ) :   0.9755 B( 12-C , 15-H ) :   0.9768
B( 16-S , 17-C ) :   1.1384 B( 16-S , 20-C ) :   1.1204 B( 17-C , 18-C ) :   1.6212
B( 17-C , 20-C ) :   0.1038 B( 17-C , 33-H ) :   0.9615 B( 18-C , 19-C ) :   1.2329
B( 18-C , 21-H ) :   0.9856 B( 19-C , 20-C ) :   1.5978 B( 19-C , 22-C ) :   1.0595
B( 22-C , 23-H ) :   0.9232 B( 22-C , 24-H ) :   0.9346 B( 22-C , 25-C ) :   1.0432
B( 25-C , 26-H ) :   0.9479 B( 25-C , 27-H ) :   0.9551 B( 25-C , 28-C ) :   1.0713
B( 28-C , 29-H ) :   0.9730 B( 28-C , 30-H ) :   0.9717 B( 28-C , 31-H ) :   0.9754

Dispersion correction           -0.014476134
FINAL SINGLE POINT ENERGY     -1339.849803074022

DIPOLE MOMENT
-------------
                                X             Y             Z
Electronic contribution:     25.46457     -19.09327       1.55758
Nuclear contribution   :    -26.03433      19.69322      -1.49213
                        -----------------------------------------
Total Dipole Moment    :     -0.56976       0.59995       0.06545
                        -----------------------------------------
Magnitude (a.u.)       :      0.82997
Magnitude (Debye)      :      2.10961

Rotational constants in cm-1:     0.016769     0.009395     0.006731
Rotational constants in MHz :   502.732929   281.664579   201.803813

                             ****ORCA TERMINATED NORMALLY****
TOTAL RUN TIME: 0 days 0 hours 0 minutes 21 seconds 501 msec
