                         Program Version 4.2.1 -  RELEASE  -
|  1> ! wB97X-D3 SP def2-SVP
|  2> %pal
|  3> nprocs 24
|  4> end
|  5>
|  6> * xyz 0 1
|  7> S 	 -64.335 	 7.29386 	 -78.1979
|  8> C 	 -64.9269 	 5.95578 	 -79.1497
|  9> C 	 -66.1406 	 6.07846 	 -79.7862
| 10> C 	 -66.614 	 7.36978 	 -79.5226
| 11> C 	 -65.7636 	 8.15616 	 -78.7706
| 12> H 	 -67.5751 	 7.74819 	 -79.7904
| 13> C 	 -66.976 	 4.98769 	 -80.5319
| 14> H 	 -67.6364 	 5.52607 	 -81.215
| 15> H 	 -67.7117 	 4.67206 	 -79.7378
| 16> C 	 -66.2071 	 3.83089 	 -81.2241
| 17> H 	 -65.6417 	 4.39905 	 -81.9896
| 18> H 	 -65.5219 	 3.34811 	 -80.5495
| 19> C 	 -67.1036 	 2.84519 	 -81.9758
| 20> H 	 -67.7527 	 3.35852 	 -82.6969
| 21> H 	 -66.501 	 2.18672 	 -82.5593
| 22> H 	 -67.8639 	 2.29978 	 -81.3908
| 23> S 	 -66.1231 	 10.7341 	 -79.3762
| 24> C 	 -66.5638 	 11.9263 	 -78.2243
| 25> C 	 -66.4961 	 11.4668 	 -76.9426
| 26> C 	 -66.2304 	 10.0386 	 -76.8513
| 27> C 	 -66.107 	 9.48444 	 -78.1946
| 28> H 	 -66.7426 	 12.1938 	 -76.1081
| 29> C 	 -65.9927 	 9.34485 	 -75.5185
| 30> H 	 -66.0681 	 8.29326 	 -75.6831
| 31> H 	 -66.8192 	 9.66505 	 -74.9194
| 32> C 	 -64.6738 	 9.70264 	 -74.7194
| 33> H 	 -64.4047 	 10.7235 	 -74.8604
| 34> H 	 -63.9127 	 9.14045 	 -75.1028
| 35> C 	 -64.8704 	 9.38793 	 -73.2664
| 36> H 	 -63.9641 	 9.69235 	 -72.7409
| 37> H 	 -65.1008 	 8.37197 	 -73.0646
| 38> H 	 -65.6107 	 9.98856 	 -72.7499
| 39> H 	 -64.3768 	 5.05585 	 -79.2884
| 40> H 	 -66.8624 	 12.858 	 -78.5799
| 41> *
| 42>
| 43>                          ****END OF INPUT****

CARTESIAN COORDINATES (ANGSTROEM)
---------------------------------
  S    -64.335000    7.293860  -78.197900
  C    -64.926900    5.955780  -79.149700
  C    -66.140600    6.078460  -79.786200
  C    -66.614000    7.369780  -79.522600
  C    -65.763600    8.156160  -78.770600
  H    -67.575100    7.748190  -79.790400
  C    -66.976000    4.987690  -80.531900
  H    -67.636400    5.526070  -81.215000
  H    -67.711700    4.672060  -79.737800
  C    -66.207100    3.830890  -81.224100
  H    -65.641700    4.399050  -81.989600
  H    -65.521900    3.348110  -80.549500
  C    -67.103600    2.845190  -81.975800
  H    -67.752700    3.358520  -82.696900
  H    -66.501000    2.186720  -82.559300
  H    -67.863900    2.299780  -81.390800
  S    -66.123100   10.734100  -79.376200
  C    -66.563800   11.926300  -78.224300
  C    -66.496100   11.466800  -76.942600
  C    -66.230400   10.038600  -76.851300
  C    -66.107000    9.484440  -78.194600
  H    -66.742600   12.193800  -76.108100
  C    -65.992700    9.344850  -75.518500
  H    -66.068100    8.293260  -75.683100
  H    -66.819200    9.665050  -74.919400
  C    -64.673800    9.702640  -74.719400
  H    -64.404700   10.723500  -74.860400
  H    -63.912700    9.140450  -75.102800
  C    -64.870400    9.387930  -73.266400
  H    -63.964100    9.692350  -72.740900
  H    -65.100800    8.371970  -73.064600
  H    -65.610700    9.988560  -72.749900
  H    -64.376800    5.055850  -79.288400
  H    -66.862400   12.858000  -78.579900

 Total Charge           Charge          ....    0
 Multiplicity           Mult            ....    1
 Number of Electrons    NEL             ....  134
 Basis Dimension        Dim             ....  322

ORBITAL ENERGIES
----------------

  NO   OCC          E(Eh)            E(eV)
   0   2.0000     -88.970959     -2421.0229
   1   2.0000     -88.958051     -2420.6716
   2   2.0000     -10.327192      -281.0172
   3   2.0000     -10.326365      -280.9947
   4   2.0000     -10.309799      -280.5439
   5   2.0000     -10.308016      -280.4954
   6   2.0000     -10.304811      -280.4082
   7   2.0000     -10.303829      -280.3815
   8   2.0000     -10.300216      -280.2831
   9   2.0000     -10.295999      -280.1684
  10   2.0000     -10.295824      -280.1636
  11   2.0000     -10.290133      -280.0088
  12   2.0000     -10.284906      -279.8665
  13   2.0000     -10.282368      -279.7975
  14   2.0000     -10.275558      -279.6122
  15   2.0000     -10.269884      -279.4577
  16   2.0000      -8.085154      -220.0082
  17   2.0000      -8.074186      -219.7098
  18   2.0000      -6.043469      -164.4512
  19   2.0000      -6.040020      -164.3573
  20   2.0000      -6.035889      -164.2449
  21   2.0000      -6.032496      -164.1526
  22   2.0000      -6.028371      -164.0403
  23   2.0000      -6.025221      -163.9546
  24   2.0000      -1.004039       -27.3213
  25   2.0000      -0.983246       -26.7555
  26   2.0000      -0.908082       -24.7102
  27   2.0000      -0.907120       -24.6840
  28   2.0000      -0.865118       -23.5411
  29   2.0000      -0.856339       -23.3022
  30   2.0000      -0.848014       -23.0756
  31   2.0000      -0.810090       -22.0437
  32   2.0000      -0.784023       -21.3343
  33   2.0000      -0.767192       -20.8764
  34   2.0000      -0.713445       -19.4138
  35   2.0000      -0.708636       -19.2830
  36   2.0000      -0.687834       -18.7169
  37   2.0000      -0.654091       -17.7987
  38   2.0000      -0.638160       -17.3652
  39   2.0000      -0.613668       -16.6988
  40   2.0000      -0.595308       -16.1992
  41   2.0000      -0.570630       -15.5276
  42   2.0000      -0.562939       -15.3183
  43   2.0000      -0.559002       -15.2112
  44   2.0000      -0.529968       -14.4212
  45   2.0000      -0.528817       -14.3899
  46   2.0000      -0.515823       -14.0362
  47   2.0000      -0.508669       -13.8416
  48   2.0000      -0.504128       -13.7180
  49   2.0000      -0.496408       -13.5079
  50   2.0000      -0.481179       -13.0935
  51   2.0000      -0.475179       -12.9303
  52   2.0000      -0.470563       -12.8047
  53   2.0000      -0.462099       -12.5744
  54   2.0000      -0.456571       -12.4239
  55   2.0000      -0.452519       -12.3137
  56   2.0000      -0.446144       -12.1402
  57   2.0000      -0.439164       -11.9503
  58   2.0000      -0.434416       -11.8211
  59   2.0000      -0.432225       -11.7614
  60   2.0000      -0.429927       -11.6989
  61   2.0000      -0.422878       -11.5071
  62   2.0000      -0.414739       -11.2856
  63   2.0000      -0.339624        -9.2416
  64   2.0000      -0.334180        -9.0935
  65   2.0000      -0.318690        -8.6720
  66   2.0000      -0.292204        -7.9513
  67   0.0000       0.037356         1.0165
  68   0.0000       0.070591         1.9209
  69   0.0000       0.101618         2.7652
  70   0.0000       0.123074         3.3490
  71   0.0000       0.133977         3.6457

MULLIKEN ATOMIC CHARGES
-----------------------
   0 S :    0.129912
   1 C :   -0.126177
   2 C :   -0.068202
   3 C :    0.031656
   4 C :   -0.147635
   5 H :    0.000135
   6 C :    0.049772
   7 H :    0.021480
   8 H :    0.047416
   9 C :   -0.080635
  10 H :    0.042019
  11 H :    0.041342
  12 C :   -0.025821
  13 H :    0.019252
  14 H :    0.032185
  15 H :    0.033951
  16 S :    0.109515
  17 C :   -0.081503
  18 C :   -0.054365
  19 C :   -0.044268
  20 C :   -0.193430
  21 H :    0.042760
  22 C :    0.069083
  23 H :    0.020426
  24 H :    0.014675
  25 C :    0.003453
  26 H :    0.018962
  27 H :    0.005846
  28 C :   -0.044105
  29 H :    0.025174
  30 H :    0.029036
  31 H :    0.021387
  32 H :    0.023930
  33 H :    0.032774
Sum of atomic charges:    0.0000000

LOEWDIN ATOMIC CHARGES
----------------------
   0 S :    0.406795
   1 C :   -0.193209
   2 C :   -0.064855
   3 C :   -0.049988
   4 C :   -0.201177
   5 H :    0.027520
   6 C :   -0.030860
   7 H :    0.028675
   8 H :    0.039276
   9 C :   -0.040143
  10 H :    0.035699
  11 H :    0.022082
  12 C :   -0.064641
  13 H :    0.026885
  14 H :    0.024572
  15 H :    0.027523
  16 S :    0.436340
  17 C :   -0.192303
  18 C :   -0.081585
  19 C :   -0.056561
  20 C :   -0.216113
  21 H :    0.043163
  22 C :   -0.029381
  23 H :    0.024083
  24 H :    0.027677
  25 C :   -0.021203
  26 H :    0.022209
  27 H :    0.012360
  28 C :   -0.061099
  29 H :    0.028557
  30 H :    0.021173
  31 H :    0.022822
  32 H :    0.013173
  33 H :    0.012533

  Mayer bond orders larger than 0.100000
B(  0-S ,  1-C ) :   1.1469 B(  0-S ,  4-C ) :   1.1328 B(  1-C ,  2-C ) :   1.6338
B(  1-C , 32-H ) :   0.9591 B(  2-C ,  3-C ) :   1.2494 B(  2-C ,  6-C ) :   0.9959
B(  3-C ,  4-C ) :   1.5965 B(  3-C ,  5-H ) :   0.9936 B(  4-C , 20-C ) :   0.9948
B(  6-C ,  7-H ) :   0.9446 B(  6-C ,  8-H ) :   0.9351 B(  6-C ,  9-C ) :   1.0522
B(  9-C , 10-H ) :   0.9583 B(  9-C , 11-H ) :   0.9548 B(  9-C , 12-C ) :   1.0879
B( 12-C , 13-H ) :   0.9714 B( 12-C , 14-H ) :   0.9739 B( 12-C , 15-H ) :   0.9752
B( 16-S , 17-C ) :   1.1681 B( 16-S , 20-C ) :   1.1878 B( 17-C , 18-C ) :   1.5916
B( 17-C , 33-H ) :   0.9793 B( 18-C , 19-C ) :   1.2421 B( 18-C , 21-H ) :   0.9810
B( 19-C , 20-C ) :   1.5454 B( 19-C , 22-C ) :   1.0554 B( 22-C , 23-H ) :   0.9323
B( 22-C , 24-H ) :   0.9352 B( 22-C , 25-C ) :   1.0530 B( 25-C , 26-H ) :   0.9573
B( 25-C , 27-H ) :   0.9499 B( 25-C , 28-C ) :   1.0921 B( 28-C , 29-H ) :   0.9696
B( 28-C , 30-H ) :   0.9756 B( 28-C , 31-H ) :   0.9738

Dispersion correction           -0.013570918
FINAL SINGLE POINT ENERGY     -1339.868422295222

DIPOLE MOMENT
-------------
                                X             Y             Z
Electronic contribution:      4.36934      15.55911      -6.35301
Nuclear contribution   :     -4.62795     -15.88104       6.44588
                        -----------------------------------------
Total Dipole Moment    :     -0.25860      -0.32193       0.09286
                        -----------------------------------------
Magnitude (a.u.)       :      0.42324
Magnitude (Debye)      :      1.07580

Rotational constants in cm-1:     0.022762     0.006730     0.005628
Rotational constants in MHz :   682.380924   201.759090   168.721182

                             ****ORCA TERMINATED NORMALLY****
TOTAL RUN TIME: 0 days 0 hours 0 minutes 20 seconds 488 msec
