                         Program Version 4.2.1 -  RELEASE  -
|  1> ! wB97X-D3 SP def2-SVP
|  2> %pal
|  3> nprocs 24
|  4> end
|  5>
|  6> * xyz 0 1
|  7> S 	 -143.951 	 8.68725 	 -7.29786
|  8> C 	 -144.036 	 10.2353 	 -6.48991
|  9> C 	 -143.816 	 10.111 	 -5.1554
| 10> C 	 -143.578 	 8.78175 	 -4.74772
| 11> C 	 -143.326 	 7.9063 	 -5.77853
| 12> H 	 -143.524 	 8.44132 	 -3.72984
| 13> C 	 -143.891 	 11.2771 	 -4.1657
| 14> H 	 -143.716 	 12.2825 	 -4.61855
| 15> H 	 -143.154 	 11.1871 	 -3.41719
| 16> C 	 -145.327 	 11.3742 	 -3.60528
| 17> H 	 -146.03 	 11.5998 	 -4.38677
| 18> H 	 -145.523 	 10.3409 	 -3.19638
| 19> C 	 -145.423 	 12.359 	 -2.37686
| 20> H 	 -144.702 	 12.1944 	 -1.58099
| 21> H 	 -145.268 	 13.3686 	 -2.86462
| 22> H 	 -146.446 	 12.4792 	 -1.9448
| 23> S 	 -143.708 	 5.27768 	 -6.28686
| 24> C 	 -142.5 	 4.11211 	 -5.7312
| 25> C 	 -141.486 	 4.67259 	 -5.0095
| 26> C 	 -141.521 	 6.16721 	 -5.03507
| 27> C 	 -142.664 	 6.61291 	 -5.69719
| 28> H 	 -140.78 	 4.07238 	 -4.48246
| 29> C 	 -140.496 	 6.98384 	 -4.32645
| 30> H 	 -140.414 	 6.56163 	 -3.32223
| 31> H 	 -140.76 	 7.98893 	 -4.26192
| 32> C 	 -139.026 	 6.82752 	 -4.86029
| 33> H 	 -138.696 	 5.77937 	 -4.86039
| 34> H 	 -138.225 	 7.32953 	 -4.37547
| 35> C 	 -138.964 	 7.52734 	 -6.25379
| 36> H 	 -139.848 	 7.12326 	 -6.84545
| 37> H 	 -138.131 	 7.34383 	 -6.95552
| 38> H 	 -139.15 	 8.65844 	 -6.23655
| 39> H 	 -144.19 	 11.1686 	 -7.0146
| 40> H 	 -142.63 	 3.06956 	 -5.90573
| 41> *
| 42>
| 43>                          ****END OF INPUT****

CARTESIAN COORDINATES (ANGSTROEM)
---------------------------------
  S    -143.951000    8.687250   -7.297860
  C    -144.036000   10.235300   -6.489910
  C    -143.816000   10.111000   -5.155400
  C    -143.578000    8.781750   -4.747720
  C    -143.326000    7.906300   -5.778530
  H    -143.524000    8.441320   -3.729840
  C    -143.891000   11.277100   -4.165700
  H    -143.716000   12.282500   -4.618550
  H    -143.154000   11.187100   -3.417190
  C    -145.327000   11.374200   -3.605280
  H    -146.030000   11.599800   -4.386770
  H    -145.523000   10.340900   -3.196380
  C    -145.423000   12.359000   -2.376860
  H    -144.702000   12.194400   -1.580990
  H    -145.268000   13.368600   -2.864620
  H    -146.446000   12.479200   -1.944800
  S    -143.708000    5.277680   -6.286860
  C    -142.500000    4.112110   -5.731200
  C    -141.486000    4.672590   -5.009500
  C    -141.521000    6.167210   -5.035070
  C    -142.664000    6.612910   -5.697190
  H    -140.780000    4.072380   -4.482460
  C    -140.496000    6.983840   -4.326450
  H    -140.414000    6.561630   -3.322230
  H    -140.760000    7.988930   -4.261920
  C    -139.026000    6.827520   -4.860290
  H    -138.696000    5.779370   -4.860390
  H    -138.225000    7.329530   -4.375470
  C    -138.964000    7.527340   -6.253790
  H    -139.848000    7.123260   -6.845450
  H    -138.131000    7.343830   -6.955520
  H    -139.150000    8.658440   -6.236550
  H    -144.190000   11.168600   -7.014600
  H    -142.630000    3.069560   -5.905730

 Total Charge           Charge          ....    0
 Multiplicity           Mult            ....    1
 Number of Electrons    NEL             ....  134
 Basis Dimension        Dim             ....  322

ORBITAL ENERGIES
----------------

  NO   OCC          E(Eh)            E(eV)
   0   2.0000     -88.962483     -2420.7922
   1   2.0000     -88.961780     -2420.7731
   2   2.0000     -10.333231      -281.1815
   3   2.0000     -10.332805      -281.1699
   4   2.0000     -10.319716      -280.8138
   5   2.0000     -10.316957      -280.7387
   6   2.0000     -10.312149      -280.6078
   7   2.0000     -10.300473      -280.2901
   8   2.0000     -10.298133      -280.2264
   9   2.0000     -10.293706      -280.1060
  10   2.0000     -10.293558      -280.1019
  11   2.0000     -10.293323      -280.0956
  12   2.0000     -10.292299      -280.0677
  13   2.0000     -10.290620      -280.0220
  14   2.0000     -10.287769      -279.9444
  15   2.0000     -10.280486      -279.7463
  16   2.0000      -8.076921      -219.7842
  17   2.0000      -8.075986      -219.7588
  18   2.0000      -6.035607      -164.2372
  19   2.0000      -6.034663      -164.2115
  20   2.0000      -6.031656      -164.1297
  21   2.0000      -6.030722      -164.1043
  22   2.0000      -6.027320      -164.0117
  23   2.0000      -6.026426      -163.9874
  24   2.0000      -1.001741       -27.2588
  25   2.0000      -0.979952       -26.6659
  26   2.0000      -0.908419       -24.7193
  27   2.0000      -0.906532       -24.6680
  28   2.0000      -0.869791       -23.6682
  29   2.0000      -0.844831       -22.9890
  30   2.0000      -0.839085       -22.8327
  31   2.0000      -0.815050       -22.1786
  32   2.0000      -0.778714       -21.1899
  33   2.0000      -0.768134       -20.9020
  34   2.0000      -0.708526       -19.2800
  35   2.0000      -0.697317       -18.9750
  36   2.0000      -0.696163       -18.9436
  37   2.0000      -0.662972       -18.0404
  38   2.0000      -0.643947       -17.5227
  39   2.0000      -0.622710       -16.9448
  40   2.0000      -0.600289       -16.3347
  41   2.0000      -0.569252       -15.4901
  42   2.0000      -0.561163       -15.2700
  43   2.0000      -0.550615       -14.9830
  44   2.0000      -0.543711       -14.7951
  45   2.0000      -0.523370       -14.2416
  46   2.0000      -0.514112       -13.9897
  47   2.0000      -0.506563       -13.7843
  48   2.0000      -0.503526       -13.7016
  49   2.0000      -0.494800       -13.4642
  50   2.0000      -0.493193       -13.4205
  51   2.0000      -0.476444       -12.9647
  52   2.0000      -0.470867       -12.8130
  53   2.0000      -0.464852       -12.6493
  54   2.0000      -0.453746       -12.3471
  55   2.0000      -0.448048       -12.1920
  56   2.0000      -0.442820       -12.0497
  57   2.0000      -0.437880       -11.9153
  58   2.0000      -0.436651       -11.8819
  59   2.0000      -0.427644       -11.6368
  60   2.0000      -0.415891       -11.3170
  61   2.0000      -0.408576       -11.1179
  62   2.0000      -0.407071       -11.0770
  63   2.0000      -0.344461        -9.3733
  64   2.0000      -0.328360        -8.9351
  65   2.0000      -0.326801        -8.8927
  66   2.0000      -0.294472        -8.0130
  67   0.0000       0.025906         0.7049
  68   0.0000       0.063951         1.7402
  69   0.0000       0.096644         2.6298
  70   0.0000       0.119281         3.2458
  71   0.0000       0.128372         3.4932

MULLIKEN ATOMIC CHARGES
-----------------------
   0 S :    0.092636
   1 C :   -0.110276
   2 C :   -0.090548
   3 C :    0.048639
   4 C :   -0.153608
   5 H :    0.015245
   6 C :    0.078400
   7 H :    0.020549
   8 H :    0.012294
   9 C :   -0.092532
  10 H :    0.035669
  11 H :    0.031444
  12 C :   -0.064988
  13 H :    0.042693
  14 H :    0.026806
  15 H :    0.044500
  16 S :    0.079143
  17 C :   -0.068184
  18 C :   -0.023364
  19 C :   -0.049027
  20 C :   -0.147449
  21 H :    0.016861
  22 C :    0.102038
  23 H :    0.033839
  24 H :    0.012308
  25 C :   -0.051117
  26 H :    0.031782
  27 H :    0.029056
  28 C :   -0.128393
  29 H :    0.040536
  30 H :    0.040422
  31 H :    0.044285
  32 H :    0.048629
  33 H :    0.051714
Sum of atomic charges:   -0.0000000

LOEWDIN ATOMIC CHARGES
----------------------
   0 S :    0.366266
   1 C :   -0.186663
   2 C :   -0.068742
   3 C :   -0.054950
   4 C :   -0.176068
   5 H :    0.031060
   6 C :   -0.025967
   7 H :    0.030790
   8 H :    0.019681
   9 C :   -0.037139
  10 H :    0.023497
  11 H :    0.024175
  12 C :   -0.076254
  13 H :    0.024064
  14 H :    0.027951
  15 H :    0.030569
  16 S :    0.369554
  17 C :   -0.161591
  18 C :   -0.063593
  19 C :   -0.040240
  20 C :   -0.181367
  21 H :    0.027975
  22 C :   -0.022225
  23 H :    0.038827
  24 H :    0.021886
  25 C :   -0.038604
  26 H :    0.024971
  27 H :    0.021768
  28 C :   -0.089144
  29 H :    0.029719
  30 H :    0.023850
  31 H :    0.032765
  32 H :    0.029789
  33 H :    0.023388

  Mayer bond orders larger than 0.100000
B(  0-S ,  1-C ) :   1.1253 B(  0-S ,  4-C ) :   1.1238 B(  1-C ,  2-C ) :   1.6360
B(  1-C , 32-H ) :   0.9684 B(  2-C ,  3-C ) :   1.2204 B(  2-C ,  6-C ) :   1.0262
B(  3-C ,  4-C ) :   1.5843 B(  3-C ,  5-H ) :   0.9977 B(  4-C , 20-C ) :   1.0452
B(  6-C ,  7-H ) :   0.9445 B(  6-C ,  8-H ) :   0.9432 B(  6-C ,  9-C ) :   1.0479
B(  9-C , 10-H ) :   0.9602 B(  9-C , 11-H ) :   0.9617 B(  9-C , 12-C ) :   1.0653
B( 12-C , 13-H ) :   0.9776 B( 12-C , 14-H ) :   0.9743 B( 12-C , 15-H ) :   0.9758
B( 16-S , 17-C ) :   1.1287 B( 16-S , 20-C ) :   1.1175 B( 17-C , 18-C ) :   1.6681
B( 17-C , 33-H ) :   0.9709 B( 18-C , 19-C ) :   1.1599 B( 18-C , 21-H ) :   0.9921
B( 19-C , 20-C ) :   1.6403 B( 19-C , 22-C ) :   1.0614 B( 22-C , 23-H ) :   0.9259
B( 22-C , 24-H ) :   0.9386 B( 22-C , 25-C ) :   1.0593 B( 25-C , 26-H ) :   0.9583
B( 25-C , 27-H ) :   0.9619 B( 25-C , 28-C ) :   1.0480 B( 28-C , 29-H ) :   0.9779
B( 28-C , 30-H ) :   0.9764 B( 28-C , 31-H ) :   0.9748

Dispersion correction           -0.014344168
FINAL SINGLE POINT ENERGY     -1339.861473298734

DIPOLE MOMENT
-------------
                                X             Y             Z
Electronic contribution:     -9.64296     -16.66278     -15.24104
Nuclear contribution   :      9.97576      16.85200      15.91296
                        -----------------------------------------
Total Dipole Moment    :      0.33280       0.18922       0.67192
                        -----------------------------------------
Magnitude (a.u.)       :      0.77333
Magnitude (Debye)      :      1.96564

Rotational constants in cm-1:     0.019579     0.007729     0.006854
Rotational constants in MHz :   586.968182   231.701396   205.491622

                             ****ORCA TERMINATED NORMALLY****
TOTAL RUN TIME: 0 days 0 hours 0 minutes 21 seconds 514 msec
