                         Program Version 4.2.1 -  RELEASE  -
|  1> ! wB97X-D3 SP def2-SVP
|  2> %pal
|  3> nprocs 24
|  4> end
|  5>
|  6> * xyz 0 1
|  7> S 	 -39.0762 	 -43.6191 	 -75.8325
|  8> C 	 -40.207 	 -42.2948 	 -75.683
|  9> C 	 -39.7903 	 -41.153 	 -76.3808
| 10> C 	 -38.4859 	 -41.285 	 -76.8992
| 11> C 	 -37.9434 	 -42.5177 	 -76.7278
| 12> H 	 -37.8208 	 -40.6535 	 -77.4652
| 13> C 	 -40.5888 	 -39.787 	 -76.4498
| 14> H 	 -41.36 	 -39.7258 	 -75.6705
| 15> H 	 -41.1751 	 -39.7249 	 -77.3738
| 16> C 	 -39.8004 	 -38.4846 	 -76.3385
| 17> H 	 -39.231 	 -38.4556 	 -75.4084
| 18> H 	 -39.046 	 -38.5303 	 -77.0403
| 19> C 	 -40.6571 	 -37.184 	 -76.4691
| 20> H 	 -41.258 	 -37.1297 	 -75.5588
| 21> H 	 -39.9913 	 -36.2553 	 -76.4997
| 22> H 	 -41.3174 	 -37.2055 	 -77.3643
| 23> S 	 -36.8224 	 -44.414 	 -78.4237
| 24> C 	 -35.0507 	 -44.4272 	 -78.6356
| 25> C 	 -34.4243 	 -43.4135 	 -77.8771
| 26> C 	 -35.3628 	 -42.5607 	 -77.2158
| 27> C 	 -36.6663 	 -42.982 	 -77.3172
| 28> H 	 -33.3855 	 -43.3943 	 -77.9351
| 29> C 	 -34.8615 	 -41.3756 	 -76.3318
| 30> H 	 -33.9139 	 -41.6071 	 -75.8727
| 31> H 	 -35.5762 	 -41.2198 	 -75.5075
| 32> C 	 -34.7013 	 -40.0888 	 -77.1697
| 33> H 	 -35.5235 	 -39.8802 	 -77.8857
| 34> H 	 -33.8735 	 -40.151 	 -77.8198
| 35> C 	 -34.4071 	 -38.9654 	 -76.1725
| 36> H 	 -33.567 	 -39.1711 	 -75.5086
| 37> H 	 -35.2641 	 -38.7407 	 -75.4794
| 38> H 	 -34.1627 	 -38.0921 	 -76.8195
| 39> H 	 -41.1011 	 -42.4393 	 -75.1392
| 40> H 	 -34.507 	 -45.1575 	 -79.2454
| 41> *
| 42>
| 43>                          ****END OF INPUT****

CARTESIAN COORDINATES (ANGSTROEM)
---------------------------------
  S    -39.076200  -43.619100  -75.832500
  C    -40.207000  -42.294800  -75.683000
  C    -39.790300  -41.153000  -76.380800
  C    -38.485900  -41.285000  -76.899200
  C    -37.943400  -42.517700  -76.727800
  H    -37.820800  -40.653500  -77.465200
  C    -40.588800  -39.787000  -76.449800
  H    -41.360000  -39.725800  -75.670500
  H    -41.175100  -39.724900  -77.373800
  C    -39.800400  -38.484600  -76.338500
  H    -39.231000  -38.455600  -75.408400
  H    -39.046000  -38.530300  -77.040300
  C    -40.657100  -37.184000  -76.469100
  H    -41.258000  -37.129700  -75.558800
  H    -39.991300  -36.255300  -76.499700
  H    -41.317400  -37.205500  -77.364300
  S    -36.822400  -44.414000  -78.423700
  C    -35.050700  -44.427200  -78.635600
  C    -34.424300  -43.413500  -77.877100
  C    -35.362800  -42.560700  -77.215800
  C    -36.666300  -42.982000  -77.317200
  H    -33.385500  -43.394300  -77.935100
  C    -34.861500  -41.375600  -76.331800
  H    -33.913900  -41.607100  -75.872700
  H    -35.576200  -41.219800  -75.507500
  C    -34.701300  -40.088800  -77.169700
  H    -35.523500  -39.880200  -77.885700
  H    -33.873500  -40.151000  -77.819800
  C    -34.407100  -38.965400  -76.172500
  H    -33.567000  -39.171100  -75.508600
  H    -35.264100  -38.740700  -75.479400
  H    -34.162700  -38.092100  -76.819500
  H    -41.101100  -42.439300  -75.139200
  H    -34.507000  -45.157500  -79.245400

 Total Charge           Charge          ....    0
 Multiplicity           Mult            ....    1
 Number of Electrons    NEL             ....  134
 Basis Dimension        Dim             ....  322

ORBITAL ENERGIES
----------------

  NO   OCC          E(Eh)            E(eV)
   0   2.0000     -88.967428     -2420.9268
   1   2.0000     -88.964658     -2420.8514
   2   2.0000     -10.331538      -281.1354
   3   2.0000     -10.331277      -281.1283
   4   2.0000     -10.323521      -280.9173
   5   2.0000     -10.317451      -280.7521
   6   2.0000     -10.311169      -280.5812
   7   2.0000     -10.307675      -280.4861
   8   2.0000     -10.296706      -280.1876
   9   2.0000     -10.295553      -280.1562
  10   2.0000     -10.294607      -280.1305
  11   2.0000     -10.293159      -280.0911
  12   2.0000     -10.290847      -280.0282
  13   2.0000     -10.286878      -279.9202
  14   2.0000     -10.283864      -279.8382
  15   2.0000     -10.280850      -279.7562
  16   2.0000      -8.081291      -219.9031
  17   2.0000      -8.077909      -219.8111
  18   2.0000      -6.039751      -164.3500
  19   2.0000      -6.036480      -164.2610
  20   2.0000      -6.035983      -164.2475
  21   2.0000      -6.032693      -164.1579
  22   2.0000      -6.032086      -164.1414
  23   2.0000      -6.028620      -164.0471
  24   2.0000      -0.998332       -27.1660
  25   2.0000      -0.975028       -26.5319
  26   2.0000      -0.907962       -24.7069
  27   2.0000      -0.904235       -24.6055
  28   2.0000      -0.866792       -23.5866
  29   2.0000      -0.849325       -23.1113
  30   2.0000      -0.844256       -22.9734
  31   2.0000      -0.811316       -22.0770
  32   2.0000      -0.776777       -21.1372
  33   2.0000      -0.767037       -20.8721
  34   2.0000      -0.707015       -19.2389
  35   2.0000      -0.701786       -19.0966
  36   2.0000      -0.692133       -18.8339
  37   2.0000      -0.663054       -18.0426
  38   2.0000      -0.652800       -17.7636
  39   2.0000      -0.617661       -16.8074
  40   2.0000      -0.590542       -16.0695
  41   2.0000      -0.568489       -15.4694
  42   2.0000      -0.565177       -15.3792
  43   2.0000      -0.556869       -15.1532
  44   2.0000      -0.527509       -14.3543
  45   2.0000      -0.521840       -14.2000
  46   2.0000      -0.515859       -14.0373
  47   2.0000      -0.507584       -13.8121
  48   2.0000      -0.500600       -13.6220
  49   2.0000      -0.491948       -13.3866
  50   2.0000      -0.486871       -13.2484
  51   2.0000      -0.481305       -13.0970
  52   2.0000      -0.470807       -12.8113
  53   2.0000      -0.466690       -12.6993
  54   2.0000      -0.461047       -12.5457
  55   2.0000      -0.451738       -12.2924
  56   2.0000      -0.444267       -12.0891
  57   2.0000      -0.436052       -11.8656
  58   2.0000      -0.434068       -11.8116
  59   2.0000      -0.424229       -11.5439
  60   2.0000      -0.422712       -11.5026
  61   2.0000      -0.417969       -11.3735
  62   2.0000      -0.408573       -11.1178
  63   2.0000      -0.347970        -9.4688
  64   2.0000      -0.333577        -9.0771
  65   2.0000      -0.329148        -8.9566
  66   2.0000      -0.292878        -7.9696
  67   0.0000       0.031181         0.8485
  68   0.0000       0.058665         1.5964
  69   0.0000       0.109881         2.9900
  70   0.0000       0.117840         3.2066
  71   0.0000       0.132758         3.6125

MULLIKEN ATOMIC CHARGES
-----------------------
   0 S :    0.106679
   1 C :   -0.118366
   2 C :   -0.024308
   3 C :    0.035266
   4 C :   -0.160470
   5 H :    0.001667
   6 C :    0.054539
   7 H :    0.014538
   8 H :    0.034174
   9 C :   -0.065990
  10 H :    0.025577
  11 H :    0.008640
  12 C :   -0.079544
  13 H :    0.038187
  14 H :    0.050368
  15 H :    0.042529
  16 S :    0.089725
  17 C :   -0.109610
  18 C :   -0.015662
  19 C :   -0.005122
  20 C :   -0.175143
  21 H :   -0.001533
  22 C :    0.055523
  23 H :    0.021356
  24 H :    0.037355
  25 C :   -0.072312
  26 H :    0.038452
  27 H :    0.014223
  28 C :   -0.057814
  29 H :    0.030669
  30 H :    0.041874
  31 H :    0.038269
  32 H :    0.041238
  33 H :    0.065025
Sum of atomic charges:    0.0000000

LOEWDIN ATOMIC CHARGES
----------------------
   0 S :    0.380133
   1 C :   -0.181825
   2 C :   -0.058044
   3 C :   -0.061989
   4 C :   -0.174051
   5 H :    0.034532
   6 C :   -0.030413
   7 H :    0.025771
   8 H :    0.031315
   9 C :   -0.043462
  10 H :    0.025366
  11 H :    0.007061
  12 C :   -0.066761
  13 H :    0.025466
  14 H :    0.037068
  15 H :    0.027564
  16 S :    0.362742
  17 C :   -0.172582
  18 C :   -0.065295
  19 C :   -0.053935
  20 C :   -0.177939
  21 H :    0.022088
  22 C :   -0.022073
  23 H :    0.028357
  24 H :    0.031773
  25 C :   -0.040538
  26 H :    0.025933
  27 H :    0.018149
  28 C :   -0.068659
  29 H :    0.024384
  30 H :    0.029014
  31 H :    0.029371
  32 H :    0.020033
  33 H :    0.031450

  Mayer bond orders larger than 0.100000
B(  0-S ,  1-C ) :   1.1465 B(  0-S ,  4-C ) :   1.1282 B(  1-C ,  2-C ) :   1.6097
B(  1-C , 32-H ) :   0.9767 B(  2-C ,  3-C ) :   1.2082 B(  2-C ,  6-C ) :   1.0036
B(  3-C ,  4-C ) :   1.6173 B(  3-C ,  5-H ) :   0.9913 B(  4-C , 20-C ) :   1.0274
B(  6-C ,  7-H ) :   0.9530 B(  6-C ,  8-H ) :   0.9381 B(  6-C ,  9-C ) :   1.0639
B(  9-C , 10-H ) :   0.9562 B(  9-C , 11-H ) :   0.9491 B(  9-C , 12-C ) :   1.0762
B( 12-C , 13-H ) :   0.9778 B( 12-C , 14-H ) :   0.9745 B( 12-C , 15-H ) :   0.9764
B( 16-S , 17-C ) :   1.1452 B( 16-S , 20-C ) :   1.1174 B( 17-C , 18-C ) :   1.6282
B( 17-C , 20-C ) :   0.1011 B( 17-C , 33-H ) :   0.9642 B( 18-C , 19-C ) :   1.2059
B( 18-C , 21-H ) :   1.0013 B( 19-C , 20-C ) :   1.6383 B( 19-C , 22-C ) :   1.0286
B( 22-C , 23-H ) :   0.9392 B( 22-C , 24-H ) :   0.9480 B( 22-C , 25-C ) :   1.0529
B( 25-C , 26-H ) :   0.9560 B( 25-C , 27-H ) :   0.9499 B( 25-C , 28-C ) :   1.0806
B( 28-C , 29-H ) :   0.9704 B( 28-C , 30-H ) :   0.9765 B( 28-C , 31-H ) :   0.9741

Dispersion correction           -0.014017483
FINAL SINGLE POINT ENERGY     -1339.874356977342

DIPOLE MOMENT
-------------
                                X             Y             Z
Electronic contribution:     -2.55996     -32.40150      -4.21466
Nuclear contribution   :      2.85167      33.02161       4.25305
                        -----------------------------------------
Total Dipole Moment    :      0.29172       0.62010       0.03838
                        -----------------------------------------
Magnitude (a.u.)       :      0.68637
Magnitude (Debye)      :      1.74461

Rotational constants in cm-1:     0.016479     0.009254     0.006548
Rotational constants in MHz :   494.027346   277.420315   196.307820

                             ****ORCA TERMINATED NORMALLY****
TOTAL RUN TIME: 0 days 0 hours 0 minutes 20 seconds 280 msec
