                         Program Version 4.2.1 -  RELEASE  -
|  1> ! wB97X-D3 SP def2-SVP
|  2> %pal
|  3> nprocs 24
|  4> end
|  5>
|  6> * xyz 0 1
|  7> S 	 0.680861 	 -23.9402 	 -113.867
|  8> C 	 0.514818 	 -25.3874 	 -114.903
|  9> C 	 0.113489 	 -26.4899 	 -114.139
| 10> C 	 -0.286555 	 -26.0611 	 -112.812
| 11> C 	 0.0712223 	 -24.739 	 -112.54
| 12> H 	 -0.715987 	 -26.682 	 -111.973
| 13> C 	 -0.167393 	 -27.9079 	 -114.68
| 14> H 	 0.301513 	 -28.5777 	 -113.975
| 15> H 	 0.505789 	 -27.9502 	 -115.596
| 16> C 	 -1.62546 	 -28.2868 	 -115.028
| 17> H 	 -2.06024 	 -28.0848 	 -114.064
| 18> H 	 -2.0098 	 -27.6142 	 -115.817
| 19> C 	 -1.87685 	 -29.7743 	 -115.3
| 20> H 	 -2.94265 	 -30.0016 	 -115.541
| 21> H 	 -1.2897 	 -30.1336 	 -116.162
| 22> H 	 -1.69772 	 -30.3314 	 -114.409
| 23> S 	 -0.864489 	 -22.2647 	 -111.478
| 24> C 	 -1.13422 	 -22.1793 	 -109.748
| 25> C 	 -0.775981 	 -23.3544 	 -109.1
| 26> C 	 -0.339196 	 -24.3562 	 -110.033
| 27> C 	 -0.33565 	 -23.9557 	 -111.348
| 28> H 	 -0.967141 	 -23.4274 	 -108.028
| 29> C 	 0.24278 	 -25.658 	 -109.491
| 30> H 	 1.10221 	 -25.4381 	 -108.941
| 31> H 	 0.516231 	 -26.3941 	 -110.286
| 32> C 	 -0.822518 	 -26.4796 	 -108.688
| 33> H 	 -1.82711 	 -26.2528 	 -109.138
| 34> H 	 -0.756087 	 -25.9707 	 -107.673
| 35> C 	 -0.537663 	 -27.9951 	 -108.597
| 36> H 	 -0.668003 	 -28.5306 	 -109.541
| 37> H 	 -1.25903 	 -28.4948 	 -107.984
| 38> H 	 0.425656 	 -28.3186 	 -108.166
| 39> H 	 0.696444 	 -25.3483 	 -115.947
| 40> H 	 -1.57427 	 -21.3993 	 -109.228
| 41> *
| 42>
| 43>                          ****END OF INPUT****

CARTESIAN COORDINATES (ANGSTROEM)
---------------------------------
  S      0.680861  -23.940200  -113.867000
  C      0.514818  -25.387400  -114.903000
  C      0.113489  -26.489900  -114.139000
  C     -0.286555  -26.061100  -112.812000
  C      0.071222  -24.739000  -112.540000
  H     -0.715987  -26.682000  -111.973000
  C     -0.167393  -27.907900  -114.680000
  H      0.301513  -28.577700  -113.975000
  H      0.505789  -27.950200  -115.596000
  C     -1.625460  -28.286800  -115.028000
  H     -2.060240  -28.084800  -114.064000
  H     -2.009800  -27.614200  -115.817000
  C     -1.876850  -29.774300  -115.300000
  H     -2.942650  -30.001600  -115.541000
  H     -1.289700  -30.133600  -116.162000
  H     -1.697720  -30.331400  -114.409000
  S     -0.864489  -22.264700  -111.478000
  C     -1.134220  -22.179300  -109.748000
  C     -0.775981  -23.354400  -109.100000
  C     -0.339196  -24.356200  -110.033000
  C     -0.335650  -23.955700  -111.348000
  H     -0.967141  -23.427400  -108.028000
  C      0.242780  -25.658000  -109.491000
  H      1.102210  -25.438100  -108.941000
  H      0.516231  -26.394100  -110.286000
  C     -0.822518  -26.479600  -108.688000
  H     -1.827110  -26.252800  -109.138000
  H     -0.756087  -25.970700  -107.673000
  C     -0.537663  -27.995100  -108.597000
  H     -0.668003  -28.530600  -109.541000
  H     -1.259030  -28.494800  -107.984000
  H      0.425656  -28.318600  -108.166000
  H      0.696444  -25.348300  -115.947000
  H     -1.574270  -21.399300  -109.228000

 Total Charge           Charge          ....    0
 Multiplicity           Mult            ....    1
 Number of Electrons    NEL             ....  134
 Basis Dimension        Dim             ....  322

ORBITAL ENERGIES
----------------

  NO   OCC          E(Eh)            E(eV)
   0   2.0000     -88.967991     -2420.9421
   1   2.0000     -88.966393     -2420.8986
   2   2.0000     -10.329327      -281.0753
   3   2.0000     -10.326794      -281.0063
   4   2.0000     -10.316500      -280.7262
   5   2.0000     -10.315588      -280.7014
   6   2.0000     -10.310071      -280.5513
   7   2.0000     -10.302536      -280.3463
   8   2.0000     -10.299000      -280.2500
   9   2.0000     -10.298632      -280.2400
  10   2.0000     -10.298342      -280.2321
  11   2.0000     -10.296667      -280.1865
  12   2.0000     -10.290152      -280.0093
  13   2.0000     -10.287096      -279.9261
  14   2.0000     -10.282834      -279.8101
  15   2.0000     -10.282590      -279.8035
  16   2.0000      -8.082308      -219.9308
  17   2.0000      -8.082100      -219.9251
  18   2.0000      -6.040733      -164.3767
  19   2.0000      -6.040632      -164.3740
  20   2.0000      -6.036750      -164.2683
  21   2.0000      -6.036643      -164.2654
  22   2.0000      -6.033187      -164.1714
  23   2.0000      -6.032721      -164.1587
  24   2.0000      -1.008252       -27.4359
  25   2.0000      -0.982886       -26.7457
  26   2.0000      -0.910280       -24.7700
  27   2.0000      -0.904211       -24.6048
  28   2.0000      -0.868086       -23.6218
  29   2.0000      -0.850641       -23.1471
  30   2.0000      -0.842082       -22.9142
  31   2.0000      -0.812466       -22.1083
  32   2.0000      -0.784738       -21.3538
  33   2.0000      -0.776110       -21.1190
  34   2.0000      -0.704016       -19.1573
  35   2.0000      -0.697789       -18.9878
  36   2.0000      -0.696285       -18.9469
  37   2.0000      -0.657764       -17.8987
  38   2.0000      -0.640813       -17.4374
  39   2.0000      -0.615639       -16.7524
  40   2.0000      -0.595675       -16.2092
  41   2.0000      -0.572538       -15.5796
  42   2.0000      -0.565837       -15.3972
  43   2.0000      -0.561620       -15.2824
  44   2.0000      -0.524307       -14.2671
  45   2.0000      -0.520801       -14.1717
  46   2.0000      -0.512237       -13.9387
  47   2.0000      -0.510058       -13.8794
  48   2.0000      -0.505246       -13.7484
  49   2.0000      -0.501967       -13.6592
  50   2.0000      -0.492016       -13.3884
  51   2.0000      -0.481686       -13.1073
  52   2.0000      -0.473007       -12.8712
  53   2.0000      -0.468008       -12.7351
  54   2.0000      -0.462479       -12.5847
  55   2.0000      -0.456433       -12.4202
  56   2.0000      -0.441444       -12.0123
  57   2.0000      -0.436262       -11.8713
  58   2.0000      -0.435199       -11.8424
  59   2.0000      -0.428401       -11.6574
  60   2.0000      -0.421142       -11.4599
  61   2.0000      -0.410269       -11.1640
  62   2.0000      -0.403528       -10.9806
  63   2.0000      -0.351365        -9.5611
  64   2.0000      -0.332453        -9.0465
  65   2.0000      -0.332003        -9.0343
  66   2.0000      -0.288324        -7.8457
  67   0.0000       0.027575         0.7504
  68   0.0000       0.077224         2.1014
  69   0.0000       0.102747         2.7959
  70   0.0000       0.118777         3.2321
  71   0.0000       0.124616         3.3910

MULLIKEN ATOMIC CHARGES
-----------------------
   0 S :    0.101265
   1 C :   -0.130126
   2 C :   -0.079349
   3 C :   -0.015894
   4 C :   -0.132522
   5 H :    0.036801
   6 C :    0.037709
   7 H :    0.025057
   8 H :    0.022124
   9 C :   -0.048270
  10 H :    0.020349
  11 H :    0.043063
  12 C :   -0.044532
  13 H :    0.038758
  14 H :    0.038108
  15 H :    0.026145
  16 S :    0.105517
  17 C :   -0.070161
  18 C :   -0.036256
  19 C :   -0.060762
  20 C :   -0.116916
  21 H :    0.031173
  22 C :    0.074025
  23 H :    0.031744
  24 H :    0.016691
  25 C :   -0.133058
  26 H :    0.051754
  27 H :    0.040896
  28 C :   -0.034676
  29 H :    0.026323
  30 H :    0.024530
  31 H :    0.036940
  32 H :    0.041470
  33 H :    0.032081
Sum of atomic charges:   -0.0000000

LOEWDIN ATOMIC CHARGES
----------------------
   0 S :    0.428591
   1 C :   -0.185100
   2 C :   -0.056803
   3 C :   -0.078763
   4 C :   -0.212739
   5 H :    0.038005
   6 C :   -0.035754
   7 H :    0.027845
   8 H :    0.030470
   9 C :   -0.039997
  10 H :    0.024011
  11 H :    0.030283
  12 C :   -0.065824
  13 H :    0.033022
  14 H :    0.026630
  15 H :    0.021952
  16 S :    0.389321
  17 C :   -0.168325
  18 C :   -0.069609
  19 C :   -0.058363
  20 C :   -0.191309
  21 H :    0.035806
  22 C :   -0.029790
  23 H :    0.023311
  24 H :    0.027574
  25 C :   -0.047028
  26 H :    0.031978
  27 H :    0.027979
  28 C :   -0.074687
  29 H :    0.025109
  30 H :    0.025596
  31 H :    0.030143
  32 H :    0.019883
  33 H :    0.016581

  Mayer bond orders larger than 0.100000
B(  0-S ,  1-C ) :   1.1394 B(  0-S ,  4-C ) :   1.1756 B(  1-C ,  2-C ) :   1.5876
B(  1-C , 32-H ) :   0.9784 B(  2-C ,  3-C ) :   1.2414 B(  2-C ,  6-C ) :   1.0289
B(  3-C ,  4-C ) :   1.5596 B(  3-C ,  5-H ) :   0.9732 B(  4-C , 20-C ) :   1.0335
B(  6-C ,  7-H ) :   0.9393 B(  6-C ,  8-H ) :   0.9380 B(  6-C ,  9-C ) :   1.0506
B(  9-C , 10-H ) :   0.9558 B(  9-C , 11-H ) :   0.9569 B(  9-C , 12-C ) :   1.0837
B( 12-C , 13-H ) :   0.9733 B( 12-C , 14-H ) :   0.9768 B( 12-C , 15-H ) :   0.9737
B( 16-S , 17-C ) :   1.1498 B( 16-S , 20-C ) :   1.1157 B( 17-C , 18-C ) :   1.6303
B( 17-C , 33-H ) :   0.9730 B( 18-C , 19-C ) :   1.2171 B( 18-C , 21-H ) :   0.9884
B( 19-C , 20-C ) :   1.6293 B( 19-C , 22-C ) :   1.0425 B( 22-C , 23-H ) :   0.9400
B( 22-C , 24-H ) :   0.9425 B( 22-C , 25-C ) :   1.0284 B( 25-C , 26-H ) :   0.9619
B( 25-C , 27-H ) :   0.9555 B( 25-C , 28-C ) :   1.0886 B( 28-C , 29-H ) :   0.9705
B( 28-C , 30-H ) :   0.9716 B( 28-C , 31-H ) :   0.9727

Dispersion correction           -0.013827446
FINAL SINGLE POINT ENERGY     -1339.873737085574

DIPOLE MOMENT
-------------
                                X             Y             Z
Electronic contribution:      6.14085      31.38288      -4.42728
Nuclear contribution   :     -6.35910     -31.99970       4.72449
                        -----------------------------------------
Total Dipole Moment    :     -0.21826      -0.61681       0.29721
                        -----------------------------------------
Magnitude (a.u.)       :      0.71863
Magnitude (Debye)      :      1.82661

Rotational constants in cm-1:     0.016766     0.008880     0.006367
Rotational constants in MHz :   502.621355   266.225987   190.874354

                             ****ORCA TERMINATED NORMALLY****
TOTAL RUN TIME: 0 days 0 hours 0 minutes 21 seconds 353 msec
