                         Program Version 4.2.1 -  RELEASE  -
|  1> ! wB97X-D3 SP def2-SVP
|  2> %pal
|  3> nprocs 24
|  4> end
|  5>
|  6> * xyz 0 1
|  7> S 	 -120.417 	 26.8361 	 -15.1166
|  8> C 	 -118.702 	 26.6963 	 -15.589
|  9> C 	 -118.043 	 25.6824 	 -14.9045
| 10> C 	 -118.907 	 25.0931 	 -13.9533
| 11> C 	 -120.196 	 25.554 	 -13.9675
| 12> H 	 -118.608 	 24.1943 	 -13.3326
| 13> C 	 -116.72 	 25.2112 	 -15.3027
| 14> H 	 -116.06 	 25.346 	 -14.4076
| 15> H 	 -116.307 	 25.7488 	 -16.2049
| 16> C 	 -116.615 	 23.6607 	 -15.7189
| 17> H 	 -116.856 	 23.0534 	 -14.8694
| 18> H 	 -117.295 	 23.3019 	 -16.4511
| 19> C 	 -115.334 	 23.1827 	 -16.3572
| 20> H 	 -115.241 	 23.6711 	 -17.309
| 21> H 	 -114.508 	 23.5858 	 -15.7152
| 22> H 	 -115.227 	 22.1338 	 -16.5707
| 23> S 	 -122.73 	 24.4956 	 -13.6865
| 24> C 	 -123.41 	 24.3342 	 -12.1062
| 25> C 	 -122.543 	 24.7195 	 -11.1423
| 26> C 	 -121.321 	 25.1972 	 -11.6448
| 27> C 	 -121.258 	 25.1562 	 -13.0887
| 28> H 	 -122.829 	 24.5909 	 -10.0923
| 29> C 	 -120.356 	 25.9415 	 -10.6722
| 30> H 	 -119.492 	 26.3189 	 -11.2655
| 31> H 	 -119.959 	 25.2376 	 -9.97986
| 32> C 	 -120.95 	 27.122 	 -9.81042
| 33> H 	 -121.289 	 27.9633 	 -10.4419
| 34> H 	 -120.195 	 27.6021 	 -9.21556
| 35> C 	 -122.131 	 26.989 	 -8.84171
| 36> H 	 -122.072 	 26.0444 	 -8.25643
| 37> H 	 -123.077 	 26.8593 	 -9.35186
| 38> H 	 -122.153 	 27.7941 	 -8.129
| 39> H 	 -118.13 	 27.185 	 -16.458
| 40> H 	 -124.352 	 23.8485 	 -11.8343
| 41> *
| 42>
| 43>                          ****END OF INPUT****

CARTESIAN COORDINATES (ANGSTROEM)
---------------------------------
  S    -120.417000   26.836100  -15.116600
  C    -118.702000   26.696300  -15.589000
  C    -118.043000   25.682400  -14.904500
  C    -118.907000   25.093100  -13.953300
  C    -120.196000   25.554000  -13.967500
  H    -118.608000   24.194300  -13.332600
  C    -116.720000   25.211200  -15.302700
  H    -116.060000   25.346000  -14.407600
  H    -116.307000   25.748800  -16.204900
  C    -116.615000   23.660700  -15.718900
  H    -116.856000   23.053400  -14.869400
  H    -117.295000   23.301900  -16.451100
  C    -115.334000   23.182700  -16.357200
  H    -115.241000   23.671100  -17.309000
  H    -114.508000   23.585800  -15.715200
  H    -115.227000   22.133800  -16.570700
  S    -122.730000   24.495600  -13.686500
  C    -123.410000   24.334200  -12.106200
  C    -122.543000   24.719500  -11.142300
  C    -121.321000   25.197200  -11.644800
  C    -121.258000   25.156200  -13.088700
  H    -122.829000   24.590900  -10.092300
  C    -120.356000   25.941500  -10.672200
  H    -119.492000   26.318900  -11.265500
  H    -119.959000   25.237600   -9.979860
  C    -120.950000   27.122000   -9.810420
  H    -121.289000   27.963300  -10.441900
  H    -120.195000   27.602100   -9.215560
  C    -122.131000   26.989000   -8.841710
  H    -122.072000   26.044400   -8.256430
  H    -123.077000   26.859300   -9.351860
  H    -122.153000   27.794100   -8.129000
  H    -118.130000   27.185000  -16.458000
  H    -124.352000   23.848500  -11.834300

 Total Charge           Charge          ....    0
 Multiplicity           Mult            ....    1
 Number of Electrons    NEL             ....  134
 Basis Dimension        Dim             ....  322

ORBITAL ENERGIES
----------------

  NO   OCC          E(Eh)            E(eV)
   0   2.0000     -88.969408     -2420.9807
   1   2.0000     -88.968207     -2420.9480
   2   2.0000     -10.328159      -281.0435
   3   2.0000     -10.327099      -281.0147
   4   2.0000     -10.320025      -280.8222
   5   2.0000     -10.312693      -280.6226
   6   2.0000     -10.307375      -280.4779
   7   2.0000     -10.305504      -280.4270
   8   2.0000     -10.298404      -280.2338
   9   2.0000     -10.296870      -280.1921
  10   2.0000     -10.296797      -280.1901
  11   2.0000     -10.287879      -279.9474
  12   2.0000     -10.285384      -279.8795
  13   2.0000     -10.283433      -279.8264
  14   2.0000     -10.277360      -279.6612
  15   2.0000     -10.276402      -279.6351
  16   2.0000      -8.083703      -219.9687
  17   2.0000      -8.083595      -219.9658
  18   2.0000      -6.042251      -164.4180
  19   2.0000      -6.041950      -164.4098
  20   2.0000      -6.038332      -164.3114
  21   2.0000      -6.037853      -164.2983
  22   2.0000      -6.034637      -164.2108
  23   2.0000      -6.034362      -164.2033
  24   2.0000      -1.010514       -27.4975
  25   2.0000      -0.987927       -26.8829
  26   2.0000      -0.913050       -24.8454
  27   2.0000      -0.898085       -24.4381
  28   2.0000      -0.874991       -23.8097
  29   2.0000      -0.852058       -23.1857
  30   2.0000      -0.848344       -23.0846
  31   2.0000      -0.817250       -22.2385
  32   2.0000      -0.785887       -21.3851
  33   2.0000      -0.768758       -20.9190
  34   2.0000      -0.712257       -19.3815
  35   2.0000      -0.696339       -18.9484
  36   2.0000      -0.689793       -18.7702
  37   2.0000      -0.654127       -17.7997
  38   2.0000      -0.636809       -17.3284
  39   2.0000      -0.618336       -16.8258
  40   2.0000      -0.591056       -16.0835
  41   2.0000      -0.572594       -15.5811
  42   2.0000      -0.561409       -15.2767
  43   2.0000      -0.548272       -14.9192
  44   2.0000      -0.538286       -14.6475
  45   2.0000      -0.530059       -14.4236
  46   2.0000      -0.517495       -14.0817
  47   2.0000      -0.507886       -13.8203
  48   2.0000      -0.502775       -13.6812
  49   2.0000      -0.499496       -13.5920
  50   2.0000      -0.487686       -13.2706
  51   2.0000      -0.481883       -13.1127
  52   2.0000      -0.473224       -12.8771
  53   2.0000      -0.465396       -12.6641
  54   2.0000      -0.460648       -12.5349
  55   2.0000      -0.454778       -12.3752
  56   2.0000      -0.443557       -12.0698
  57   2.0000      -0.437914       -11.9163
  58   2.0000      -0.430974       -11.7274
  59   2.0000      -0.422312       -11.4917
  60   2.0000      -0.418799       -11.3961
  61   2.0000      -0.410263       -11.1638
  62   2.0000      -0.407415       -11.0863
  63   2.0000      -0.344180        -9.3656
  64   2.0000      -0.333359        -9.0711
  65   2.0000      -0.329716        -8.9720
  66   2.0000      -0.294120        -8.0034
  67   0.0000       0.032269         0.8781
  68   0.0000       0.067538         1.8378
  69   0.0000       0.114234         3.1085
  70   0.0000       0.124996         3.4013
  71   0.0000       0.128952         3.5090

MULLIKEN ATOMIC CHARGES
-----------------------
   0 S :    0.122718
   1 C :   -0.139501
   2 C :   -0.081634
   3 C :    0.018001
   4 C :   -0.162279
   5 H :    0.036527
   6 C :    0.045392
   7 H :    0.046465
   8 H :    0.029700
   9 C :   -0.075130
  10 H :    0.019107
  11 H :    0.021499
  12 C :   -0.053281
  13 H :    0.020934
  14 H :    0.027194
  15 H :    0.042469
  16 S :    0.126306
  17 C :   -0.094843
  18 C :   -0.051205
  19 C :   -0.019734
  20 C :   -0.179461
  21 H :    0.024891
  22 C :    0.096297
  23 H :    0.039093
  24 H :    0.021796
  25 C :   -0.087537
  26 H :    0.031582
  27 H :    0.022430
  28 C :   -0.062068
  29 H :    0.017236
  30 H :    0.036308
  31 H :    0.035019
  32 H :    0.067536
  33 H :    0.058172
Sum of atomic charges:    0.0000000

LOEWDIN ATOMIC CHARGES
----------------------
   0 S :    0.403932
   1 C :   -0.202240
   2 C :   -0.074602
   3 C :   -0.065097
   4 C :   -0.202602
   5 H :    0.043019
   6 C :   -0.030445
   7 H :    0.040686
   8 H :    0.035482
   9 C :   -0.043423
  10 H :    0.016169
  11 H :    0.022010
  12 C :   -0.065103
  13 H :    0.020688
  14 H :    0.025996
  15 H :    0.028631
  16 S :    0.435883
  17 C :   -0.198178
  18 C :   -0.077734
  19 C :   -0.052289
  20 C :   -0.220288
  21 H :    0.037478
  22 C :   -0.026871
  23 H :    0.038326
  24 H :    0.025435
  25 C :   -0.046793
  26 H :    0.029595
  27 H :    0.024087
  28 C :   -0.069474
  29 H :    0.019739
  30 H :    0.020955
  31 H :    0.026976
  32 H :    0.044695
  33 H :    0.035358

  Mayer bond orders larger than 0.100000
B(  0-S ,  1-C ) :   1.1258 B(  0-S ,  4-C ) :   1.1483 B(  1-C ,  2-C ) :   1.6262
B(  1-C , 32-H ) :   0.9509 B(  2-C ,  3-C ) :   1.2314 B(  2-C ,  6-C ) :   1.0489
B(  3-C ,  4-C ) :   1.5878 B(  3-C ,  5-H ) :   0.9863 B(  4-C , 20-C ) :   1.0410
B(  6-C ,  7-H ) :   0.9227 B(  6-C ,  8-H ) :   0.9468 B(  6-C ,  9-C ) :   1.0436
B(  9-C , 10-H ) :   0.9527 B(  9-C , 11-H ) :   0.9610 B(  9-C , 12-C ) :   1.0895
B( 12-C , 13-H ) :   0.9742 B( 12-C , 14-H ) :   0.9740 B( 12-C , 15-H ) :   0.9733
B( 16-S , 17-C ) :   1.1654 B( 16-S , 20-C ) :   1.1705 B( 17-C , 18-C ) :   1.5943
B( 17-C , 20-C ) :   0.1038 B( 17-C , 33-H ) :   0.9617 B( 18-C , 19-C ) :   1.2826
B( 18-C , 21-H ) :   0.9829 B( 19-C , 20-C ) :   1.5292 B( 19-C , 22-C ) :   1.0371
B( 22-C , 23-H ) :   0.9372 B( 22-C , 24-H ) :   0.9331 B( 22-C , 25-C ) :   1.0635
B( 25-C , 26-H ) :   0.9555 B( 25-C , 27-H ) :   0.9586 B( 25-C , 28-C ) :   1.0805
B( 28-C , 29-H ) :   0.9719 B( 28-C , 30-H ) :   0.9724 B( 28-C , 31-H ) :   0.9702

Dispersion correction           -0.013902347
FINAL SINGLE POINT ENERGY     -1339.865099535936

DIPOLE MOMENT
-------------
                                X             Y             Z
Electronic contribution:    -17.89736       2.44120     -10.30118
Nuclear contribution   :     18.26669      -2.67363      10.58977
                        -----------------------------------------
Total Dipole Moment    :      0.36933      -0.23244       0.28859
                        -----------------------------------------
Magnitude (a.u.)       :      0.52318
Magnitude (Debye)      :      1.32982

Rotational constants in cm-1:     0.021948     0.006919     0.006458
Rotational constants in MHz :   657.987036   207.418752   193.604657

                             ****ORCA TERMINATED NORMALLY****
TOTAL RUN TIME: 0 days 0 hours 0 minutes 21 seconds 122 msec
