                         Program Version 4.2.1 -  RELEASE  -
|  1> ! wB97X-D3 SP def2-SVP
|  2> %pal
|  3> nprocs 24
|  4> end
|  5>
|  6> * xyz 0 1
|  7> S 	 -80.1097 	 -4.879 	 -60.0107
|  8> C 	 -78.4971 	 -4.93955 	 -59.2705
|  9> C 	 -78.1438 	 -6.20125 	 -58.8173
| 10> C 	 -79.2027 	 -7.17474 	 -59.0355
| 11> C 	 -80.3398 	 -6.60008 	 -59.6565
| 12> H 	 -79.2063 	 -8.1613 	 -58.795
| 13> C 	 -76.9064 	 -6.58932 	 -58.138
| 14> H 	 -76.0428 	 -6.07823 	 -58.3924
| 15> H 	 -76.8205 	 -7.68272 	 -58.4592
| 16> C 	 -77.2351 	 -6.54286 	 -56.5938
| 17> H 	 -77.4059 	 -5.48468 	 -56.5154
| 18> H 	 -78.1705 	 -6.89944 	 -56.3122
| 19> C 	 -76.1504 	 -7.11862 	 -55.6733
| 20> H 	 -75.2164 	 -6.54338 	 -55.9141
| 21> H 	 -76.3281 	 -6.88113 	 -54.6683
| 22> H 	 -76.0136 	 -8.19392 	 -55.8624
| 23> S 	 -82.9648 	 -6.32015 	 -59.6462
| 24> C 	 -84.0693 	 -7.73868 	 -60.0176
| 25> C 	 -83.2749 	 -8.8481 	 -60.3659
| 26> C 	 -81.9316 	 -8.58281 	 -60.4285
| 27> C 	 -81.5839 	 -7.32028 	 -59.8588
| 28> H 	 -83.7606 	 -9.68189 	 -60.7659
| 29> C 	 -81.0284 	 -9.61919 	 -61.0771
| 30> H 	 -81.5147 	 -10.6071 	 -61.0426
| 31> H 	 -80.0629 	 -9.73969 	 -60.5071
| 32> C 	 -80.6137 	 -9.26038 	 -62.5081
| 33> H 	 -80.167 	 -8.27025 	 -62.4394
| 34> H 	 -81.5177 	 -9.15641 	 -63.0813
| 35> C 	 -79.6988 	 -10.3198 	 -63.125
| 36> H 	 -79.4207 	 -10.1186 	 -64.1573
| 37> H 	 -80.0616 	 -11.3264 	 -62.9778
| 38> H 	 -78.6343 	 -10.3831 	 -62.7601
| 39> H 	 -77.7975 	 -4.10782 	 -59.2364
| 40> H 	 -85.1436 	 -7.69374 	 -60.1704
| 41> *
| 42>
| 43>                          ****END OF INPUT****

CARTESIAN COORDINATES (ANGSTROEM)
---------------------------------
  S    -80.109700   -4.879000  -60.010700
  C    -78.497100   -4.939550  -59.270500
  C    -78.143800   -6.201250  -58.817300
  C    -79.202700   -7.174740  -59.035500
  C    -80.339800   -6.600080  -59.656500
  H    -79.206300   -8.161300  -58.795000
  C    -76.906400   -6.589320  -58.138000
  H    -76.042800   -6.078230  -58.392400
  H    -76.820500   -7.682720  -58.459200
  C    -77.235100   -6.542860  -56.593800
  H    -77.405900   -5.484680  -56.515400
  H    -78.170500   -6.899440  -56.312200
  C    -76.150400   -7.118620  -55.673300
  H    -75.216400   -6.543380  -55.914100
  H    -76.328100   -6.881130  -54.668300
  H    -76.013600   -8.193920  -55.862400
  S    -82.964800   -6.320150  -59.646200
  C    -84.069300   -7.738680  -60.017600
  C    -83.274900   -8.848100  -60.365900
  C    -81.931600   -8.582810  -60.428500
  C    -81.583900   -7.320280  -59.858800
  H    -83.760600   -9.681890  -60.765900
  C    -81.028400   -9.619190  -61.077100
  H    -81.514700  -10.607100  -61.042600
  H    -80.062900   -9.739690  -60.507100
  C    -80.613700   -9.260380  -62.508100
  H    -80.167000   -8.270250  -62.439400
  H    -81.517700   -9.156410  -63.081300
  C    -79.698800  -10.319800  -63.125000
  H    -79.420700  -10.118600  -64.157300
  H    -80.061600  -11.326400  -62.977800
  H    -78.634300  -10.383100  -62.760100
  H    -77.797500   -4.107820  -59.236400
  H    -85.143600   -7.693740  -60.170400

 Total Charge           Charge          ....    0
 Multiplicity           Mult            ....    1
 Number of Electrons    NEL             ....  134
 Basis Dimension        Dim             ....  322

ORBITAL ENERGIES
----------------

  NO   OCC          E(Eh)            E(eV)
   0   2.0000     -88.970600     -2421.0131
   1   2.0000     -88.968744     -2420.9626
   2   2.0000     -10.334658      -281.2203
   3   2.0000     -10.329555      -281.0815
   4   2.0000     -10.323537      -280.9177
   5   2.0000     -10.314873      -280.6820
   6   2.0000     -10.302981      -280.3584
   7   2.0000     -10.302686      -280.3503
   8   2.0000     -10.294277      -280.1215
   9   2.0000     -10.292893      -280.0838
  10   2.0000     -10.291745      -280.0526
  11   2.0000     -10.289923      -280.0030
  12   2.0000     -10.283311      -279.8231
  13   2.0000     -10.281195      -279.7655
  14   2.0000     -10.279527      -279.7201
  15   2.0000     -10.279374      -279.7160
  16   2.0000      -8.084226      -219.9830
  17   2.0000      -8.082617      -219.9392
  18   2.0000      -6.042901      -164.4357
  19   2.0000      -6.041093      -164.3865
  20   2.0000      -6.039007      -164.3297
  21   2.0000      -6.037212      -164.2809
  22   2.0000      -6.034754      -164.2140
  23   2.0000      -6.033483      -164.1794
  24   2.0000      -1.003294       -27.3010
  25   2.0000      -0.977968       -26.6119
  26   2.0000      -0.917052       -24.9542
  27   2.0000      -0.906806       -24.6755
  28   2.0000      -0.871321       -23.7098
  29   2.0000      -0.849592       -23.1186
  30   2.0000      -0.846922       -23.0459
  31   2.0000      -0.812221       -22.1017
  32   2.0000      -0.779141       -21.2015
  33   2.0000      -0.768014       -20.8987
  34   2.0000      -0.709693       -19.3117
  35   2.0000      -0.707700       -19.2575
  36   2.0000      -0.692944       -18.8560
  37   2.0000      -0.670713       -18.2510
  38   2.0000      -0.643545       -17.5117
  39   2.0000      -0.623615       -16.9694
  40   2.0000      -0.594123       -16.1669
  41   2.0000      -0.567301       -15.4370
  42   2.0000      -0.563966       -15.3463
  43   2.0000      -0.556524       -15.1438
  44   2.0000      -0.528201       -14.3731
  45   2.0000      -0.521412       -14.1883
  46   2.0000      -0.517910       -14.0931
  47   2.0000      -0.515695       -14.0328
  48   2.0000      -0.508893       -13.8477
  49   2.0000      -0.500713       -13.6251
  50   2.0000      -0.494755       -13.4630
  51   2.0000      -0.482326       -13.1248
  52   2.0000      -0.469002       -12.7622
  53   2.0000      -0.463410       -12.6100
  54   2.0000      -0.456789       -12.4299
  55   2.0000      -0.448371       -12.2008
  56   2.0000      -0.441067       -12.0020
  57   2.0000      -0.436816       -11.8864
  58   2.0000      -0.435975       -11.8635
  59   2.0000      -0.428398       -11.6573
  60   2.0000      -0.423368       -11.5204
  61   2.0000      -0.415079       -11.2949
  62   2.0000      -0.412687       -11.2298
  63   2.0000      -0.351473        -9.5641
  64   2.0000      -0.334242        -9.0952
  65   2.0000      -0.324910        -8.8412
  66   2.0000      -0.279387        -7.6025
  67   0.0000       0.016743         0.4556
  68   0.0000       0.069687         1.8963
  69   0.0000       0.095313         2.5936
  70   0.0000       0.115937         3.1548
  71   0.0000       0.131900         3.5892

MULLIKEN ATOMIC CHARGES
-----------------------
   0 S :    0.110510
   1 C :   -0.125040
   2 C :   -0.086784
   3 C :    0.049230
   4 C :   -0.127424
   5 H :   -0.026007
   6 C :    0.080276
   7 H :    0.012663
   8 H :    0.031146
   9 C :   -0.073249
  10 H :    0.008456
  11 H :    0.014982
  12 C :   -0.002495
  13 H :    0.024391
  14 H :    0.028058
  15 H :    0.044238
  16 S :    0.092224
  17 C :   -0.109666
  18 C :   -0.006057
  19 C :   -0.025267
  20 C :   -0.151186
  21 H :    0.003230
  22 C :    0.018660
  23 H :    0.021021
  24 H :    0.025452
  25 C :   -0.036166
  26 H :    0.038625
  27 H :    0.022598
  28 C :   -0.048638
  29 H :    0.032150
  30 H :    0.027707
  31 H :    0.025206
  32 H :    0.044593
  33 H :    0.062562
Sum of atomic charges:   -0.0000000

LOEWDIN ATOMIC CHARGES
----------------------
   0 S :    0.381865
   1 C :   -0.201573
   2 C :   -0.053389
   3 C :   -0.045042
   4 C :   -0.186565
   5 H :    0.012028
   6 C :   -0.023238
   7 H :    0.018490
   8 H :    0.037555
   9 C :   -0.032602
  10 H :    0.022758
  11 H :    0.016124
  12 C :   -0.061918
  13 H :    0.030172
  14 H :    0.020026
  15 H :    0.029620
  16 S :    0.400730
  17 C :   -0.170457
  18 C :   -0.059885
  19 C :   -0.062634
  20 C :   -0.201868
  21 H :    0.025258
  22 C :   -0.033568
  23 H :    0.027110
  24 H :    0.030737
  25 C :   -0.036082
  26 H :    0.029959
  27 H :    0.022066
  28 C :   -0.075929
  29 H :    0.028222
  30 H :    0.022891
  31 H :    0.031422
  32 H :    0.027924
  33 H :    0.029794

  Mayer bond orders larger than 0.100000
B(  0-S ,  1-C ) :   1.1084 B(  0-S ,  4-C ) :   1.1350 B(  1-C ,  2-C ) :   1.6262
B(  1-C , 32-H ) :   0.9652 B(  2-C ,  3-C ) :   1.2157 B(  2-C ,  6-C ) :   1.0375
B(  3-C ,  4-C ) :   1.5669 B(  3-C ,  5-H ) :   1.0060 B(  4-C , 20-C ) :   1.0823
B(  6-C ,  7-H ) :   0.9439 B(  6-C ,  8-H ) :   0.9383 B(  6-C ,  9-C ) :   1.0324
B(  9-C , 10-H ) :   0.9521 B(  9-C , 11-H ) :   0.9618 B(  9-C , 12-C ) :   1.0749
B( 12-C , 13-H ) :   0.9717 B( 12-C , 14-H ) :   0.9727 B( 12-C , 15-H ) :   0.9756
B( 16-S , 17-C ) :   1.1492 B( 16-S , 20-C ) :   1.1612 B( 17-C , 18-C ) :   1.5620
B( 17-C , 20-C ) :   0.1226 B( 17-C , 33-H ) :   0.9681 B( 18-C , 19-C ) :   1.3146
B( 18-C , 21-H ) :   0.9879 B( 19-C , 20-C ) :   1.5014 B( 19-C , 22-C ) :   1.0442
B( 22-C , 23-H ) :   0.9376 B( 22-C , 24-H ) :   0.9371 B( 22-C , 25-C ) :   1.0597
B( 25-C , 26-H ) :   0.9550 B( 25-C , 27-H ) :   0.9529 B( 25-C , 28-C ) :   1.0799
B( 28-C , 29-H ) :   0.9725 B( 28-C , 30-H ) :   0.9739 B( 28-C , 31-H ) :   0.9706

Dispersion correction           -0.013944276
FINAL SINGLE POINT ENERGY     -1339.851948931293

DIPOLE MOMENT
-------------
                                X             Y             Z
Electronic contribution:    -19.80899      16.82428      -1.82520
Nuclear contribution   :     20.19403     -17.25514       1.77804
                        -----------------------------------------
Total Dipole Moment    :      0.38504      -0.43086      -0.04716
                        -----------------------------------------
Magnitude (a.u.)       :      0.57975
Magnitude (Debye)      :      1.47361

Rotational constants in cm-1:     0.017603     0.008210     0.006884
Rotational constants in MHz :   527.722594   246.127459   206.386618

                             ****ORCA TERMINATED NORMALLY****
TOTAL RUN TIME: 0 days 0 hours 0 minutes 21 seconds 342 msec
