                         Program Version 4.2.1 -  RELEASE  -
|  1> ! wB97X-D3 SP def2-SVP
|  2> %pal
|  3> nprocs 24
|  4> end
|  5>
|  6> * xyz 0 1
|  7> S 	 -47.8783 	 15.0348 	 21.4034
|  8> C 	 -49.0859 	 14.0068 	 20.6252
|  9> C 	 -50.2246 	 13.7723 	 21.3563
| 10> C 	 -50.1269 	 14.3908 	 22.6532
| 11> C 	 -48.9325 	 15.1013 	 22.8137
| 12> H 	 -50.8497 	 14.3214 	 23.3659
| 13> C 	 -51.3886 	 12.8856 	 20.9947
| 14> H 	 -51.4777 	 13.1853 	 19.9061
| 15> H 	 -52.2309 	 13.235 	 21.5512
| 16> C 	 -51.2279 	 11.392 	 21.211
| 17> H 	 -52.1739 	 10.9502 	 20.9062
| 18> H 	 -50.5188 	 10.9396 	 20.5585
| 19> C 	 -50.9171 	 11.0586 	 22.633
| 20> H 	 -49.9122 	 11.4784 	 22.8508
| 21> H 	 -51.6332 	 11.4347 	 23.3796
| 22> H 	 -50.8908 	 9.9622 	 22.874
| 23> S 	 -49.4499 	 17.3329 	 24.2606
| 24> C 	 -48.7568 	 17.5548 	 25.8136
| 25> C 	 -47.7443 	 16.6218 	 25.9584
| 26> C 	 -47.7351 	 15.6076 	 25.0174
| 27> C 	 -48.6145 	 15.8356 	 24.0038
| 28> H 	 -47.2384 	 16.7446 	 26.8572
| 29> C 	 -46.7969 	 14.4177 	 25.1614
| 30> H 	 -46.2071 	 14.5618 	 26.0795
| 31> H 	 -46.2492 	 14.3837 	 24.2562
| 32> C 	 -47.4049 	 13.0688 	 25.4888
| 33> H 	 -46.6795 	 12.2818 	 25.3646
| 34> H 	 -48.1653 	 12.7904 	 24.732
| 35> C 	 -48.0042 	 12.9033 	 26.8215
| 36> H 	 -48.5766 	 12.0045 	 26.7886
| 37> H 	 -48.594 	 13.8488 	 26.9472
| 38> H 	 -47.28 	 12.843 	 27.6043
| 39> H 	 -49.0932 	 13.7227 	 19.5335
| 40> H 	 -49.0693 	 18.3474 	 26.5608
| 41> *
| 42>
| 43>                          ****END OF INPUT****

CARTESIAN COORDINATES (ANGSTROEM)
---------------------------------
  S    -47.878300   15.034800   21.403400
  C    -49.085900   14.006800   20.625200
  C    -50.224600   13.772300   21.356300
  C    -50.126900   14.390800   22.653200
  C    -48.932500   15.101300   22.813700
  H    -50.849700   14.321400   23.365900
  C    -51.388600   12.885600   20.994700
  H    -51.477700   13.185300   19.906100
  H    -52.230900   13.235000   21.551200
  C    -51.227900   11.392000   21.211000
  H    -52.173900   10.950200   20.906200
  H    -50.518800   10.939600   20.558500
  C    -50.917100   11.058600   22.633000
  H    -49.912200   11.478400   22.850800
  H    -51.633200   11.434700   23.379600
  H    -50.890800    9.962200   22.874000
  S    -49.449900   17.332900   24.260600
  C    -48.756800   17.554800   25.813600
  C    -47.744300   16.621800   25.958400
  C    -47.735100   15.607600   25.017400
  C    -48.614500   15.835600   24.003800
  H    -47.238400   16.744600   26.857200
  C    -46.796900   14.417700   25.161400
  H    -46.207100   14.561800   26.079500
  H    -46.249200   14.383700   24.256200
  C    -47.404900   13.068800   25.488800
  H    -46.679500   12.281800   25.364600
  H    -48.165300   12.790400   24.732000
  C    -48.004200   12.903300   26.821500
  H    -48.576600   12.004500   26.788600
  H    -48.594000   13.848800   26.947200
  H    -47.280000   12.843000   27.604300
  H    -49.093200   13.722700   19.533500
  H    -49.069300   18.347400   26.560800

 Total Charge           Charge          ....    0
 Multiplicity           Mult            ....    1
 Number of Electrons    NEL             ....  134
 Basis Dimension        Dim             ....  322

ORBITAL ENERGIES
----------------

  NO   OCC          E(Eh)            E(eV)
   0   2.0000     -88.972775     -2421.0723
   1   2.0000     -88.960535     -2420.7392
   2   2.0000     -10.328051      -281.0405
   3   2.0000     -10.317030      -280.7407
   4   2.0000     -10.315775      -280.7065
   5   2.0000     -10.315000      -280.6854
   6   2.0000     -10.297883      -280.2197
   7   2.0000     -10.294389      -280.1246
   8   2.0000     -10.294211      -280.1197
   9   2.0000     -10.289747      -279.9982
  10   2.0000     -10.284249      -279.8486
  11   2.0000     -10.283773      -279.8357
  12   2.0000     -10.281448      -279.7724
  13   2.0000     -10.281139      -279.7640
  14   2.0000     -10.272416      -279.5266
  15   2.0000     -10.266836      -279.3748
  16   2.0000      -8.086572      -220.0468
  17   2.0000      -8.076358      -219.7689
  18   2.0000      -6.045061      -164.4945
  19   2.0000      -6.041333      -164.3930
  20   2.0000      -6.037307      -164.2835
  21   2.0000      -6.034631      -164.2107
  22   2.0000      -6.030597      -164.1009
  23   2.0000      -6.027403      -164.0140
  24   2.0000      -1.012606       -27.5544
  25   2.0000      -0.985923       -26.8283
  26   2.0000      -0.919847       -25.0303
  27   2.0000      -0.915971       -24.9248
  28   2.0000      -0.871372       -23.7112
  29   2.0000      -0.855881       -23.2897
  30   2.0000      -0.850931       -23.1550
  31   2.0000      -0.812284       -22.1034
  32   2.0000      -0.786055       -21.3897
  33   2.0000      -0.773929       -21.0597
  34   2.0000      -0.707240       -19.2450
  35   2.0000      -0.705732       -19.2039
  36   2.0000      -0.684085       -18.6149
  37   2.0000      -0.662288       -18.0218
  38   2.0000      -0.640729       -17.4351
  39   2.0000      -0.611760       -16.6468
  40   2.0000      -0.590342       -16.0640
  41   2.0000      -0.580309       -15.7910
  42   2.0000      -0.569087       -15.4856
  43   2.0000      -0.554864       -15.0986
  44   2.0000      -0.552715       -15.0401
  45   2.0000      -0.542005       -14.7487
  46   2.0000      -0.519502       -14.1364
  47   2.0000      -0.512545       -13.9471
  48   2.0000      -0.499956       -13.6045
  49   2.0000      -0.494449       -13.4546
  50   2.0000      -0.484190       -13.1755
  51   2.0000      -0.477548       -12.9948
  52   2.0000      -0.473803       -12.8928
  53   2.0000      -0.470894       -12.8137
  54   2.0000      -0.456859       -12.4318
  55   2.0000      -0.451465       -12.2850
  56   2.0000      -0.447187       -12.1686
  57   2.0000      -0.437390       -11.9020
  58   2.0000      -0.431205       -11.7337
  59   2.0000      -0.427581       -11.6351
  60   2.0000      -0.415223       -11.2988
  61   2.0000      -0.414249       -11.2723
  62   2.0000      -0.400012       -10.8849
  63   2.0000      -0.337527        -9.1846
  64   2.0000      -0.329662        -8.9706
  65   2.0000      -0.325101        -8.8465
  66   2.0000      -0.303104        -8.2479
  67   0.0000       0.036853         1.0028
  68   0.0000       0.060328         1.6416
  69   0.0000       0.107043         2.9128
  70   0.0000       0.121650         3.3103
  71   0.0000       0.123732         3.3669

MULLIKEN ATOMIC CHARGES
-----------------------
   0 S :    0.131671
   1 C :   -0.143180
   2 C :   -0.116356
   3 C :    0.081224
   4 C :   -0.167695
   5 H :   -0.030442
   6 C :    0.063650
   7 H :    0.036906
   8 H :    0.017080
   9 C :    0.005191
  10 H :    0.023420
  11 H :    0.019597
  12 C :   -0.102955
  13 H :    0.059230
  14 H :    0.029054
  15 H :    0.039361
  16 S :    0.122761
  17 C :   -0.139610
  18 C :   -0.031147
  19 C :   -0.011868
  20 C :   -0.199549
  21 H :   -0.009429
  22 C :    0.133997
  23 H :    0.012252
  24 H :    0.021700
  25 C :   -0.085294
  26 H :    0.012891
  27 H :    0.024995
  28 C :   -0.028436
  29 H :    0.032190
  30 H :    0.038057
  31 H :    0.019566
  32 H :    0.058493
  33 H :    0.082676
Sum of atomic charges:   -0.0000000

LOEWDIN ATOMIC CHARGES
----------------------
   0 S :    0.400617
   1 C :   -0.205989
   2 C :   -0.066635
   3 C :   -0.036573
   4 C :   -0.194604
   5 H :    0.013045
   6 C :   -0.029776
   7 H :    0.041557
   8 H :    0.027062
   9 C :   -0.037452
  10 H :    0.025207
  11 H :    0.022357
  12 C :   -0.073875
  13 H :    0.031864
  14 H :    0.024024
  15 H :    0.031543
  16 S :    0.432584
  17 C :   -0.205426
  18 C :   -0.075601
  19 C :   -0.063161
  20 C :   -0.212815
  21 H :    0.020049
  22 C :   -0.022067
  23 H :    0.033422
  24 H :    0.027509
  25 C :   -0.047805
  26 H :    0.019558
  27 H :    0.022900
  28 C :   -0.060990
  29 H :    0.026995
  30 H :    0.033470
  31 H :    0.016891
  32 H :    0.036811
  33 H :    0.045306

  Mayer bond orders larger than 0.100000
B(  0-S ,  1-C ) :   1.1267 B(  0-S ,  4-C ) :   1.1412 B(  1-C ,  2-C ) :   1.6450
B(  1-C , 32-H ) :   0.9509 B(  2-C ,  3-C ) :   1.2225 B(  2-C ,  6-C ) :   1.0115
B(  3-C ,  4-C ) :   1.5711 B(  3-C ,  5-H ) :   1.0084 B(  4-C , 20-C ) :   1.0422
B(  6-C ,  7-H ) :   0.9343 B(  6-C ,  8-H ) :   0.9381 B(  6-C ,  9-C ) :   1.0785
B(  9-C , 10-H ) :   0.9500 B(  9-C , 11-H ) :   0.9512 B(  9-C , 12-C ) :   1.0805
B( 12-C , 13-H ) :   0.9692 B( 12-C , 14-H ) :   0.9733 B( 12-C , 15-H ) :   0.9702
B( 16-S , 17-C ) :   1.1802 B( 16-S , 20-C ) :   1.1680 B( 17-C , 18-C ) :   1.5703
B( 17-C , 20-C ) :   0.1095 B( 17-C , 33-H ) :   0.9607 B( 18-C , 19-C ) :   1.2584
B( 18-C , 21-H ) :   1.0040 B( 19-C , 20-C ) :   1.5636 B( 19-C , 22-C ) :   1.0397
B( 22-C , 23-H ) :   0.9330 B( 22-C , 24-H ) :   0.9208 B( 22-C , 25-C ) :   1.0812
B( 25-C , 26-H ) :   0.9473 B( 25-C , 27-H ) :   0.9532 B( 25-C , 28-C ) :   1.0824
B( 28-C , 29-H ) :   0.9696 B( 28-C , 30-H ) :   0.9771 B( 28-C , 31-H ) :   0.9706

Dispersion correction           -0.015777458
FINAL SINGLE POINT ENERGY     -1339.868324879234

DIPOLE MOMENT
-------------
                                X             Y             Z
Electronic contribution:      4.68446      24.20664      -7.70872
Nuclear contribution   :     -4.90455     -24.67506       7.85861
                        -----------------------------------------
Total Dipole Moment    :     -0.22009      -0.46842       0.14989
                        -----------------------------------------
Magnitude (a.u.)       :      0.53881
Magnitude (Debye)      :      1.36956

Rotational constants in cm-1:     0.019046     0.009604     0.008005
Rotational constants in MHz :   570.985864   287.926810   239.998329

                             ****ORCA TERMINATED NORMALLY****
TOTAL RUN TIME: 0 days 0 hours 0 minutes 23 seconds 868 msec
