                         Program Version 4.2.1 -  RELEASE  -
|  1> ! wB97X-D3 SP def2-SVP
|  2> %pal
|  3> nprocs 24
|  4> end
|  5>
|  6> * xyz 0 1
|  7> S 	 -67.0705 	 8.52781 	 -77.8671
|  8> C 	 -66.5375 	 8.8025 	 -76.29
|  9> C 	 -67.568 	 8.77873 	 -75.3634
| 10> C 	 -68.8095 	 8.43019 	 -76.0102
| 11> C 	 -68.7172 	 8.42911 	 -77.3364
| 12> H 	 -69.7859 	 8.37566 	 -75.4759
| 13> C 	 -67.457 	 9.14466 	 -73.8641
| 14> H 	 -68.0934 	 9.97937 	 -73.666
| 15> H 	 -66.4235 	 9.40937 	 -73.559
| 16> C 	 -67.9198 	 7.9987 	 -72.91
| 17> H 	 -67.9125 	 8.41883 	 -71.8842
| 18> H 	 -68.9064 	 7.67534 	 -73.0554
| 19> C 	 -67.0774 	 6.6961 	 -72.8913
| 20> H 	 -66.8513 	 6.24412 	 -73.9253
| 21> H 	 -66.1339 	 6.87884 	 -72.3275
| 22> H 	 -67.5692 	 5.92639 	 -72.2642
| 23> S 	 -69.3715 	 9.34663 	 -79.8932
| 24> C 	 -70.9569 	 9.16539 	 -80.5424
| 25> C 	 -71.7841 	 8.56908 	 -79.6169
| 26> C 	 -71.1189 	 8.23704 	 -78.363
| 27> C 	 -69.781 	 8.54923 	 -78.3578
| 28> H 	 -72.8264 	 8.43755 	 -79.8146
| 29> C 	 -71.9076 	 7.4972 	 -77.2745
| 30> H 	 -71.2617 	 6.73092 	 -76.7143
| 31> H 	 -72.6574 	 6.81794 	 -77.7358
| 32> C 	 -72.7009 	 8.36654 	 -76.2596
| 33> H 	 -73.4225 	 8.91411 	 -76.8768
| 34> H 	 -72.0452 	 9.07676 	 -75.8347
| 35> C 	 -73.4112 	 7.53623 	 -75.2123
| 36> H 	 -74.0133 	 6.73075 	 -75.6354
| 37> H 	 -74.0629 	 8.28835 	 -74.7287
| 38> H 	 -72.7024 	 7.22205 	 -74.4696
| 39> H 	 -65.5463 	 9.10885 	 -76.0362
| 40> H 	 -71.2868 	 9.42279 	 -81.531
| 41> *
| 42>
| 43>                          ****END OF INPUT****

CARTESIAN COORDINATES (ANGSTROEM)
---------------------------------
  S    -67.070500    8.527810  -77.867100
  C    -66.537500    8.802500  -76.290000
  C    -67.568000    8.778730  -75.363400
  C    -68.809500    8.430190  -76.010200
  C    -68.717200    8.429110  -77.336400
  H    -69.785900    8.375660  -75.475900
  C    -67.457000    9.144660  -73.864100
  H    -68.093400    9.979370  -73.666000
  H    -66.423500    9.409370  -73.559000
  C    -67.919800    7.998700  -72.910000
  H    -67.912500    8.418830  -71.884200
  H    -68.906400    7.675340  -73.055400
  C    -67.077400    6.696100  -72.891300
  H    -66.851300    6.244120  -73.925300
  H    -66.133900    6.878840  -72.327500
  H    -67.569200    5.926390  -72.264200
  S    -69.371500    9.346630  -79.893200
  C    -70.956900    9.165390  -80.542400
  C    -71.784100    8.569080  -79.616900
  C    -71.118900    8.237040  -78.363000
  C    -69.781000    8.549230  -78.357800
  H    -72.826400    8.437550  -79.814600
  C    -71.907600    7.497200  -77.274500
  H    -71.261700    6.730920  -76.714300
  H    -72.657400    6.817940  -77.735800
  C    -72.700900    8.366540  -76.259600
  H    -73.422500    8.914110  -76.876800
  H    -72.045200    9.076760  -75.834700
  C    -73.411200    7.536230  -75.212300
  H    -74.013300    6.730750  -75.635400
  H    -74.062900    8.288350  -74.728700
  H    -72.702400    7.222050  -74.469600
  H    -65.546300    9.108850  -76.036200
  H    -71.286800    9.422790  -81.531000

 Total Charge           Charge          ....    0
 Multiplicity           Mult            ....    1
 Number of Electrons    NEL             ....  134
 Basis Dimension        Dim             ....  322

ORBITAL ENERGIES
----------------

  NO   OCC          E(Eh)            E(eV)
   0   2.0000     -88.964320     -2420.8422
   1   2.0000     -88.964119     -2420.8367
   2   2.0000     -10.331261      -281.1279
   3   2.0000     -10.327206      -281.0176
   4   2.0000     -10.315172      -280.6901
   5   2.0000     -10.307643      -280.4852
   6   2.0000     -10.305023      -280.4139
   7   2.0000     -10.304124      -280.3895
   8   2.0000     -10.299506      -280.2638
   9   2.0000     -10.298761      -280.2435
  10   2.0000     -10.294263      -280.1212
  11   2.0000     -10.293209      -280.0925
  12   2.0000     -10.287548      -279.9384
  13   2.0000     -10.285151      -279.8732
  14   2.0000     -10.284367      -279.8518
  15   2.0000     -10.280565      -279.7484
  16   2.0000      -8.080855      -219.8912
  17   2.0000      -8.078910      -219.8383
  18   2.0000      -6.039316      -164.3381
  19   2.0000      -6.037601      -164.2915
  20   2.0000      -6.035174      -164.2254
  21   2.0000      -6.033323      -164.1751
  22   2.0000      -6.031485      -164.1251
  23   2.0000      -6.029552      -164.0724
  24   2.0000      -1.015428       -27.6312
  25   2.0000      -0.988127       -26.8883
  26   2.0000      -0.909038       -24.7362
  27   2.0000      -0.905221       -24.6323
  28   2.0000      -0.871103       -23.7039
  29   2.0000      -0.853811       -23.2334
  30   2.0000      -0.845363       -23.0035
  31   2.0000      -0.817322       -22.2405
  32   2.0000      -0.780868       -21.2485
  33   2.0000      -0.772992       -21.0342
  34   2.0000      -0.705208       -19.1897
  35   2.0000      -0.695117       -18.9151
  36   2.0000      -0.690236       -18.7823
  37   2.0000      -0.663991       -18.0681
  38   2.0000      -0.642236       -17.4761
  39   2.0000      -0.626042       -17.0355
  40   2.0000      -0.596093       -16.2205
  41   2.0000      -0.571024       -15.5384
  42   2.0000      -0.567066       -15.4306
  43   2.0000      -0.550331       -14.9753
  44   2.0000      -0.537399       -14.6234
  45   2.0000      -0.522667       -14.2225
  46   2.0000      -0.514967       -14.0130
  47   2.0000      -0.513458       -13.9719
  48   2.0000      -0.504081       -13.7167
  49   2.0000      -0.498431       -13.5630
  50   2.0000      -0.495139       -13.4734
  51   2.0000      -0.480797       -13.0831
  52   2.0000      -0.472585       -12.8597
  53   2.0000      -0.464125       -12.6295
  54   2.0000      -0.461561       -12.5597
  55   2.0000      -0.454032       -12.3549
  56   2.0000      -0.443705       -12.0738
  57   2.0000      -0.439769       -11.9667
  58   2.0000      -0.430693       -11.7198
  59   2.0000      -0.423192       -11.5156
  60   2.0000      -0.418263       -11.3815
  61   2.0000      -0.417877       -11.3710
  62   2.0000      -0.410831       -11.1793
  63   2.0000      -0.364201        -9.9104
  64   2.0000      -0.331579        -9.0227
  65   2.0000      -0.327361        -8.9080
  66   2.0000      -0.288605        -7.8533
  67   0.0000       0.028025         0.7626
  68   0.0000       0.084311         2.2942
  69   0.0000       0.110010         2.9935
  70   0.0000       0.116712         3.1759
  71   0.0000       0.124955         3.4002

MULLIKEN ATOMIC CHARGES
-----------------------
   0 S :    0.112178
   1 C :   -0.100898
   2 C :   -0.110459
   3 C :   -0.018451
   4 C :   -0.095754
   5 H :    0.018586
   6 C :    0.102273
   7 H :    0.033634
   8 H :    0.023447
   9 C :   -0.088680
  10 H :    0.028997
  11 H :    0.017831
  12 C :   -0.095710
  13 H :    0.061794
  14 H :    0.029950
  15 H :    0.034987
  16 S :    0.091096
  17 C :   -0.073271
  18 C :   -0.025500
  19 C :   -0.034841
  20 C :   -0.105929
  21 H :    0.011134
  22 C :   -0.027666
  23 H :    0.036331
  24 H :    0.022312
  25 C :   -0.064050
  26 H :    0.021441
  27 H :    0.019286
  28 C :   -0.020684
  29 H :    0.039694
  30 H :    0.036417
  31 H :    0.030668
  32 H :    0.036539
  33 H :    0.053295
Sum of atomic charges:    0.0000000

LOEWDIN ATOMIC CHARGES
----------------------
   0 S :    0.429690
   1 C :   -0.212518
   2 C :   -0.059995
   3 C :   -0.070366
   4 C :   -0.187034
   5 H :    0.037842
   6 C :   -0.022531
   7 H :    0.030475
   8 H :    0.032703
   9 C :   -0.043641
  10 H :    0.028520
  11 H :    0.011956
  12 C :   -0.079277
  13 H :    0.036522
  14 H :    0.024181
  15 H :    0.027772
  16 S :    0.397842
  17 C :   -0.190227
  18 C :   -0.068275
  19 C :   -0.063203
  20 C :   -0.181623
  21 H :    0.026596
  22 C :   -0.045001
  23 H :    0.032008
  24 H :    0.029766
  25 C :   -0.038735
  26 H :    0.023533
  27 H :    0.014227
  28 C :   -0.060110
  29 H :    0.027351
  30 H :    0.033839
  31 H :    0.023353
  32 H :    0.023519
  33 H :    0.030842

  Mayer bond orders larger than 0.100000
B(  0-S ,  1-C ) :   1.1429 B(  0-S ,  4-C ) :   1.1456 B(  1-C ,  2-C ) :   1.6282
B(  1-C , 32-H ) :   0.9684 B(  2-C ,  3-C ) :   1.2240 B(  2-C ,  6-C ) :   1.0233
B(  3-C ,  4-C ) :   1.6069 B(  3-C ,  5-H ) :   0.9832 B(  4-C , 20-C ) :   1.0386
B(  6-C ,  7-H ) :   0.9377 B(  6-C ,  8-H ) :   0.9467 B(  6-C ,  9-C ) :   1.0648
B(  9-C , 10-H ) :   0.9557 B(  9-C , 11-H ) :   0.9617 B(  9-C , 12-C ) :   1.0716
B( 12-C , 13-H ) :   0.9740 B( 12-C , 14-H ) :   0.9762 B( 12-C , 15-H ) :   0.9742
B( 16-S , 17-C ) :   1.1491 B( 16-S , 20-C ) :   1.1225 B( 17-C , 18-C ) :   1.6152
B( 17-C , 33-H ) :   0.9695 B( 18-C , 19-C ) :   1.2332 B( 18-C , 21-H ) :   0.9930
B( 19-C , 20-C ) :   1.6272 B( 19-C , 22-C ) :   1.0335 B( 22-C , 23-H ) :   0.9452
B( 22-C , 24-H ) :   0.9391 B( 22-C , 25-C ) :   1.0557 B( 25-C , 26-H ) :   0.9526
B( 25-C , 27-H ) :   0.9536 B( 25-C , 28-C ) :   1.0855 B( 28-C , 29-H ) :   0.9729
B( 28-C , 30-H ) :   0.9726 B( 28-C , 31-H ) :   0.9734

Dispersion correction           -0.014164958
FINAL SINGLE POINT ENERGY     -1339.889555574802

DIPOLE MOMENT
-------------
                                X             Y             Z
Electronic contribution:     12.02994       7.85657     -27.94922
Nuclear contribution   :    -12.50854      -7.78139      28.50691
                        -----------------------------------------
Total Dipole Moment    :     -0.47860       0.07518       0.55769
                        -----------------------------------------
Magnitude (a.u.)       :      0.73873
Magnitude (Debye)      :      1.87771

Rotational constants in cm-1:     0.017249     0.009740     0.006573
Rotational constants in MHz :   517.117765   292.004888   197.051786

                             ****ORCA TERMINATED NORMALLY****
TOTAL RUN TIME: 0 days 0 hours 0 minutes 20 seconds 535 msec
