                         Program Version 4.2.1 -  RELEASE  -
|  1> ! wB97X-D3 SP def2-SVP
|  2> %pal
|  3> nprocs 24
|  4> end
|  5>
|  6> * xyz 0 1
|  7> S 	 40.2331 	 -22.2521 	 -123.678
|  8> C 	 38.5499 	 -22.0835 	 -123.137
|  9> C 	 38.1655 	 -23.3061 	 -122.646
| 10> C 	 39.2374 	 -24.262 	 -122.685
| 11> C 	 40.3776 	 -23.8959 	 -123.328
| 12> H 	 39.0402 	 -25.3119 	 -122.479
| 13> C 	 36.7407 	 -23.7302 	 -122.212
| 14> H 	 36.6852 	 -24.7936 	 -121.901
| 15> H 	 36.2261 	 -23.8325 	 -123.166
| 16> C 	 36.0265 	 -22.7442 	 -121.31
| 17> H 	 36.1252 	 -21.6763 	 -121.679
| 18> H 	 34.9493 	 -22.9519 	 -121.349
| 19> C 	 36.4593 	 -22.7629 	 -119.865
| 20> H 	 37.4704 	 -22.3381 	 -119.744
| 21> H 	 35.7376 	 -22.067 	 -119.412
| 22> H 	 36.4597 	 -23.7411 	 -119.36
| 23> S 	 43.0603 	 -23.9469 	 -123.227
| 24> C 	 43.9693 	 -25.3547 	 -123.451
| 25> C 	 43.1173 	 -26.4919 	 -123.572
| 26> C 	 41.7366 	 -26.1411 	 -123.614
| 27> C 	 41.5088 	 -24.7452 	 -123.501
| 28> H 	 43.5162 	 -27.4265 	 -123.698
| 29> C 	 40.7414 	 -27.2523 	 -123.734
| 30> H 	 39.8932 	 -27.2231 	 -123.025
| 31> H 	 41.2615 	 -28.2305 	 -123.613
| 32> C 	 40.071 	 -27.3135 	 -125.155
| 33> H 	 40.8766 	 -27.6002 	 -125.745
| 34> H 	 39.5747 	 -26.3524 	 -125.352
| 35> C 	 39.0147 	 -28.4453 	 -125.289
| 36> H 	 39.6193 	 -29.3773 	 -125.475
| 37> H 	 38.3369 	 -28.3014 	 -126.14
| 38> H 	 38.3085 	 -28.5208 	 -124.427
| 39> H 	 37.9939 	 -21.1474 	 -123.185
| 40> H 	 45.0313 	 -25.4519 	 -123.562
| 41> *
| 42>
| 43>                          ****END OF INPUT****

CARTESIAN COORDINATES (ANGSTROEM)
---------------------------------
  S     40.233100  -22.252100  -123.678000
  C     38.549900  -22.083500  -123.137000
  C     38.165500  -23.306100  -122.646000
  C     39.237400  -24.262000  -122.685000
  C     40.377600  -23.895900  -123.328000
  H     39.040200  -25.311900  -122.479000
  C     36.740700  -23.730200  -122.212000
  H     36.685200  -24.793600  -121.901000
  H     36.226100  -23.832500  -123.166000
  C     36.026500  -22.744200  -121.310000
  H     36.125200  -21.676300  -121.679000
  H     34.949300  -22.951900  -121.349000
  C     36.459300  -22.762900  -119.865000
  H     37.470400  -22.338100  -119.744000
  H     35.737600  -22.067000  -119.412000
  H     36.459700  -23.741100  -119.360000
  S     43.060300  -23.946900  -123.227000
  C     43.969300  -25.354700  -123.451000
  C     43.117300  -26.491900  -123.572000
  C     41.736600  -26.141100  -123.614000
  C     41.508800  -24.745200  -123.501000
  H     43.516200  -27.426500  -123.698000
  C     40.741400  -27.252300  -123.734000
  H     39.893200  -27.223100  -123.025000
  H     41.261500  -28.230500  -123.613000
  C     40.071000  -27.313500  -125.155000
  H     40.876600  -27.600200  -125.745000
  H     39.574700  -26.352400  -125.352000
  C     39.014700  -28.445300  -125.289000
  H     39.619300  -29.377300  -125.475000
  H     38.336900  -28.301400  -126.140000
  H     38.308500  -28.520800  -124.427000
  H     37.993900  -21.147400  -123.185000
  H     45.031300  -25.451900  -123.562000

 Total Charge           Charge          ....    0
 Multiplicity           Mult            ....    1
 Number of Electrons    NEL             ....  134
 Basis Dimension        Dim             ....  322

ORBITAL ENERGIES
----------------

  NO   OCC          E(Eh)            E(eV)
   0   2.0000     -88.968788     -2420.9638
   1   2.0000     -88.963347     -2420.8157
   2   2.0000     -10.331515      -281.1348
   3   2.0000     -10.323918      -280.9281
   4   2.0000     -10.317125      -280.7432
   5   2.0000     -10.317060      -280.7415
   6   2.0000     -10.309683      -280.5407
   7   2.0000     -10.303542      -280.3736
   8   2.0000     -10.296723      -280.1881
   9   2.0000     -10.295269      -280.1485
  10   2.0000     -10.291626      -280.0494
  11   2.0000     -10.291551      -280.0473
  12   2.0000     -10.285600      -279.8854
  13   2.0000     -10.285360      -279.8789
  14   2.0000     -10.283234      -279.8210
  15   2.0000     -10.276956      -279.6502
  16   2.0000      -8.084043      -219.9780
  17   2.0000      -8.078898      -219.8380
  18   2.0000      -6.042411      -164.4224
  19   2.0000      -6.038230      -164.3086
  20   2.0000      -6.037428      -164.2868
  21   2.0000      -6.035167      -164.2252
  22   2.0000      -6.033222      -164.1723
  23   2.0000      -6.029606      -164.0739
  24   2.0000      -1.015180       -27.6245
  25   2.0000      -0.988435       -26.8967
  26   2.0000      -0.914489       -24.8845
  27   2.0000      -0.909503       -24.7488
  28   2.0000      -0.874604       -23.7992
  29   2.0000      -0.853706       -23.2305
  30   2.0000      -0.844011       -22.9667
  31   2.0000      -0.811562       -22.0837
  32   2.0000      -0.784140       -21.3375
  33   2.0000      -0.774032       -21.0625
  34   2.0000      -0.709119       -19.2961
  35   2.0000      -0.697333       -18.9754
  36   2.0000      -0.687156       -18.6985
  37   2.0000      -0.671998       -18.2860
  38   2.0000      -0.639574       -17.4037
  39   2.0000      -0.616661       -16.7802
  40   2.0000      -0.595446       -16.2029
  41   2.0000      -0.578736       -15.7482
  42   2.0000      -0.577133       -15.7046
  43   2.0000      -0.554460       -15.0876
  44   2.0000      -0.541235       -14.7278
  45   2.0000      -0.522259       -14.2114
  46   2.0000      -0.516915       -14.0660
  47   2.0000      -0.511699       -13.9240
  48   2.0000      -0.507731       -13.8161
  49   2.0000      -0.502926       -13.6853
  50   2.0000      -0.493309       -13.4236
  51   2.0000      -0.484717       -13.1898
  52   2.0000      -0.479640       -13.0517
  53   2.0000      -0.467718       -12.7272
  54   2.0000      -0.463876       -12.6227
  55   2.0000      -0.439766       -11.9667
  56   2.0000      -0.436364       -11.8741
  57   2.0000      -0.434366       -11.8197
  58   2.0000      -0.429875       -11.6975
  59   2.0000      -0.428594       -11.6626
  60   2.0000      -0.418549       -11.3893
  61   2.0000      -0.414391       -11.2762
  62   2.0000      -0.406182       -11.0528
  63   2.0000      -0.354485        -9.6460
  64   2.0000      -0.331797        -9.0287
  65   2.0000      -0.327004        -8.8982
  66   2.0000      -0.286468        -7.7952
  67   0.0000       0.019762         0.5378
  68   0.0000       0.081825         2.2266
  69   0.0000       0.107233         2.9180
  70   0.0000       0.114613         3.1188
  71   0.0000       0.137645         3.7455

MULLIKEN ATOMIC CHARGES
-----------------------
   0 S :    0.098778
   1 C :   -0.152070
   2 C :   -0.080026
   3 C :    0.001691
   4 C :   -0.105467
   5 H :   -0.009649
   6 C :    0.078425
   7 H :    0.020837
   8 H :    0.035485
   9 C :   -0.099884
  10 H :    0.033599
  11 H :    0.028095
  12 C :   -0.047806
  13 H :    0.041865
  14 H :    0.035181
  15 H :    0.036815
  16 S :    0.117477
  17 C :   -0.079289
  18 C :   -0.026641
  19 C :   -0.002273
  20 C :   -0.136095
  21 H :   -0.016064
  22 C :    0.012858
  23 H :    0.033778
  24 H :    0.020459
  25 C :   -0.062528
  26 H :    0.019112
  27 H :    0.047982
  28 C :   -0.071584
  29 H :    0.038742
  30 H :    0.038337
  31 H :    0.033203
  32 H :    0.060748
  33 H :    0.055910
Sum of atomic charges:   -0.0000000

LOEWDIN ATOMIC CHARGES
----------------------
   0 S :    0.418481
   1 C :   -0.196334
   2 C :   -0.059539
   3 C :   -0.077549
   4 C :   -0.220545
   5 H :    0.024094
   6 C :   -0.037908
   7 H :    0.032175
   8 H :    0.037017
   9 C :   -0.049352
  10 H :    0.030929
  11 H :    0.024918
  12 C :   -0.067993
  13 H :    0.028756
  14 H :    0.030291
  15 H :    0.025793
  16 S :    0.441996
  17 C :   -0.202578
  18 C :   -0.061806
  19 C :   -0.050346
  20 C :   -0.189604
  21 H :    0.014586
  22 C :   -0.033653
  23 H :    0.024302
  24 H :    0.032085
  25 C :   -0.031120
  26 H :    0.016252
  27 H :    0.027011
  28 C :   -0.075207
  29 H :    0.030835
  30 H :    0.027463
  31 H :    0.024681
  32 H :    0.032664
  33 H :    0.029205

  Mayer bond orders larger than 0.100000
B(  0-S ,  1-C ) :   1.1271 B(  0-S ,  4-C ) :   1.1596 B(  1-C ,  2-C ) :   1.5864
B(  1-C , 32-H ) :   0.9750 B(  2-C ,  3-C ) :   1.2735 B(  2-C ,  6-C ) :   0.9990
B(  3-C ,  4-C ) :   1.5388 B(  3-C ,  5-H ) :   0.9900 B(  4-C , 20-C ) :   1.0823
B(  6-C ,  7-H ) :   0.9447 B(  6-C ,  8-H ) :   0.9333 B(  6-C ,  9-C ) :   1.0761
B(  9-C , 10-H ) :   0.9538 B(  9-C , 11-H ) :   0.9535 B(  9-C , 12-C ) :   1.0783
B( 12-C , 13-H ) :   0.9744 B( 12-C , 14-H ) :   0.9733 B( 12-C , 15-H ) :   0.9748
B( 16-S , 17-C ) :   1.1988 B( 16-S , 20-C ) :   1.1560 B( 17-C , 18-C ) :   1.5392
B( 17-C , 20-C ) :   0.1130 B( 17-C , 33-H ) :   0.9697 B( 18-C , 19-C ) :   1.2969
B( 18-C , 21-H ) :   1.0028 B( 19-C , 20-C ) :   1.5140 B( 19-C , 22-C ) :   1.0537
B( 22-C , 23-H ) :   0.9357 B( 22-C , 24-H ) :   0.9371 B( 22-C , 25-C ) :   1.0527
B( 25-C , 26-H ) :   0.9600 B( 25-C , 27-H ) :   0.9616 B( 25-C , 28-C ) :   1.0792
B( 28-C , 29-H ) :   0.9782 B( 28-C , 30-H ) :   0.9755 B( 28-C , 31-H ) :   0.9740

Dispersion correction           -0.013838987
FINAL SINGLE POINT ENERGY     -1339.868450454192

DIPOLE MOMENT
-------------
                                X             Y             Z
Electronic contribution:     23.20311      14.50822      -3.78709
Nuclear contribution   :    -23.66111     -15.00910       3.78494
                        -----------------------------------------
Total Dipole Moment    :     -0.45800      -0.50088      -0.00215
                        -----------------------------------------
Magnitude (a.u.)       :      0.67871
Magnitude (Debye)      :      1.72515

Rotational constants in cm-1:     0.018134     0.008625     0.006649
Rotational constants in MHz :   543.655086   258.570724   199.319194

                             ****ORCA TERMINATED NORMALLY****
TOTAL RUN TIME: 0 days 0 hours 0 minutes 20 seconds 385 msec
