                         Program Version 4.2.1 -  RELEASE  -
|  1> ! wB97X-D3 SP def2-SVP
|  2> %pal
|  3> nprocs 24
|  4> end
|  5>
|  6> * xyz 0 1
|  7> S 	 16.2062 	 -4.93722 	 -111.981
|  8> C 	 16.4763 	 -4.75109 	 -110.271
|  9> C 	 16.604 	 -6.00502 	 -109.596
| 10> C 	 16.5174 	 -7.07602 	 -110.505
| 11> C 	 16.5584 	 -6.68295 	 -111.87
| 12> H 	 16.6439 	 -8.13824 	 -110.334
| 13> C 	 16.8255 	 -6.16913 	 -108.104
| 14> H 	 16.5643 	 -7.16567 	 -107.77
| 15> H 	 16.1755 	 -5.55505 	 -107.408
| 16> C 	 18.2895 	 -5.82972 	 -107.569
| 17> H 	 18.6527 	 -4.96228 	 -108.126
| 18> H 	 18.2859 	 -5.73625 	 -106.454
| 19> C 	 19.283 	 -6.93312 	 -107.873
| 20> H 	 19.2846 	 -7.78755 	 -107.204
| 21> H 	 19.2506 	 -7.36419 	 -108.908
| 22> H 	 20.323 	 -6.46739 	 -107.732
| 23> S 	 17.8335 	 -7.22436 	 -114.231
| 24> C 	 17.4413 	 -8.68378 	 -115.128
| 25> C 	 16.3639 	 -9.32751 	 -114.514
| 26> C 	 15.9177 	 -8.65788 	 -113.306
| 27> C 	 16.5796 	 -7.52369 	 -113.062
| 28> H 	 15.9862 	 -10.3101 	 -114.873
| 29> C 	 14.6741 	 -9.07476 	 -112.512
| 30> H 	 14.8835 	 -9.06364 	 -111.494
| 31> H 	 14.3463 	 -10.0856 	 -112.761
| 32> C 	 13.5015 	 -8.11793 	 -112.664
| 33> H 	 13.0968 	 -8.34505 	 -113.691
| 34> H 	 13.7786 	 -7.07482 	 -112.746
| 35> C 	 12.5224 	 -8.30126 	 -111.483
| 36> H 	 12.1785 	 -9.26257 	 -111.544
| 37> H 	 11.6863 	 -7.64311 	 -111.434
| 38> H 	 13.0322 	 -8.16287 	 -110.583
| 39> H 	 16.7533 	 -3.86382 	 -109.732
| 40> H 	 17.9721 	 -9.02247 	 -115.985
| 41> *
| 42>
| 43>                          ****END OF INPUT****

CARTESIAN COORDINATES (ANGSTROEM)
---------------------------------
  S     16.206200   -4.937220  -111.981000
  C     16.476300   -4.751090  -110.271000
  C     16.604000   -6.005020  -109.596000
  C     16.517400   -7.076020  -110.505000
  C     16.558400   -6.682950  -111.870000
  H     16.643900   -8.138240  -110.334000
  C     16.825500   -6.169130  -108.104000
  H     16.564300   -7.165670  -107.770000
  H     16.175500   -5.555050  -107.408000
  C     18.289500   -5.829720  -107.569000
  H     18.652700   -4.962280  -108.126000
  H     18.285900   -5.736250  -106.454000
  C     19.283000   -6.933120  -107.873000
  H     19.284600   -7.787550  -107.204000
  H     19.250600   -7.364190  -108.908000
  H     20.323000   -6.467390  -107.732000
  S     17.833500   -7.224360  -114.231000
  C     17.441300   -8.683780  -115.128000
  C     16.363900   -9.327510  -114.514000
  C     15.917700   -8.657880  -113.306000
  C     16.579600   -7.523690  -113.062000
  H     15.986200  -10.310100  -114.873000
  C     14.674100   -9.074760  -112.512000
  H     14.883500   -9.063640  -111.494000
  H     14.346300  -10.085600  -112.761000
  C     13.501500   -8.117930  -112.664000
  H     13.096800   -8.345050  -113.691000
  H     13.778600   -7.074820  -112.746000
  C     12.522400   -8.301260  -111.483000
  H     12.178500   -9.262570  -111.544000
  H     11.686300   -7.643110  -111.434000
  H     13.032200   -8.162870  -110.583000
  H     16.753300   -3.863820  -109.732000
  H     17.972100   -9.022470  -115.985000

 Total Charge           Charge          ....    0
 Multiplicity           Mult            ....    1
 Number of Electrons    NEL             ....  134
 Basis Dimension        Dim             ....  322

ORBITAL ENERGIES
----------------

  NO   OCC          E(Eh)            E(eV)
   0   2.0000     -88.972904     -2421.0758
   1   2.0000     -88.964903     -2420.8581
   2   2.0000     -10.335282      -281.2373
   3   2.0000     -10.321812      -280.8708
   4   2.0000     -10.320578      -280.8372
   5   2.0000     -10.316944      -280.7383
   6   2.0000     -10.309327      -280.5311
   7   2.0000     -10.302763      -280.3524
   8   2.0000     -10.301560      -280.3197
   9   2.0000     -10.300662      -280.2953
  10   2.0000     -10.299507      -280.2638
  11   2.0000     -10.294528      -280.1283
  12   2.0000     -10.285066      -279.8709
  13   2.0000     -10.281541      -279.7749
  14   2.0000     -10.279861      -279.7292
  15   2.0000     -10.261340      -279.2253
  16   2.0000      -8.086560      -220.0465
  17   2.0000      -8.079977      -219.8673
  18   2.0000      -6.044986      -164.4924
  19   2.0000      -6.041192      -164.3892
  20   2.0000      -6.038491      -164.3157
  21   2.0000      -6.037503      -164.2888
  22   2.0000      -6.034380      -164.2038
  23   2.0000      -6.030745      -164.1049
  24   2.0000      -1.007796       -27.4235
  25   2.0000      -0.981761       -26.7151
  26   2.0000      -0.911864       -24.8131
  27   2.0000      -0.904499       -24.6127
  28   2.0000      -0.866946       -23.5908
  29   2.0000      -0.852430       -23.1958
  30   2.0000      -0.846120       -23.0241
  31   2.0000      -0.811623       -22.0854
  32   2.0000      -0.783352       -21.3161
  33   2.0000      -0.770828       -20.9753
  34   2.0000      -0.705360       -19.1938
  35   2.0000      -0.697997       -18.9935
  36   2.0000      -0.691359       -18.8128
  37   2.0000      -0.668763       -18.1980
  38   2.0000      -0.641163       -17.4469
  39   2.0000      -0.614086       -16.7101
  40   2.0000      -0.598474       -16.2853
  41   2.0000      -0.576456       -15.6862
  42   2.0000      -0.568679       -15.4745
  43   2.0000      -0.543634       -14.7930
  44   2.0000      -0.532434       -14.4883
  45   2.0000      -0.521219       -14.1831
  46   2.0000      -0.515331       -14.0229
  47   2.0000      -0.513106       -13.9623
  48   2.0000      -0.509362       -13.8605
  49   2.0000      -0.496073       -13.4988
  50   2.0000      -0.487196       -13.2573
  51   2.0000      -0.484717       -13.1898
  52   2.0000      -0.478126       -13.0105
  53   2.0000      -0.463151       -12.6030
  54   2.0000      -0.459624       -12.5070
  55   2.0000      -0.443772       -12.0757
  56   2.0000      -0.438972       -11.9450
  57   2.0000      -0.436707       -11.8834
  58   2.0000      -0.429507       -11.6875
  59   2.0000      -0.425426       -11.5764
  60   2.0000      -0.421625       -11.4730
  61   2.0000      -0.416504       -11.3337
  62   2.0000      -0.410970       -11.1831
  63   2.0000      -0.343574        -9.3491
  64   2.0000      -0.333134        -9.0650
  65   2.0000      -0.330681        -8.9983
  66   2.0000      -0.293438        -7.9848
  67   0.0000       0.020963         0.5704
  68   0.0000       0.063435         1.7262
  69   0.0000       0.101791         2.7699
  70   0.0000       0.118626         3.2280
  71   0.0000       0.134359         3.6561

MULLIKEN ATOMIC CHARGES
-----------------------
   0 S :    0.122251
   1 C :   -0.092155
   2 C :   -0.084469
   3 C :    0.041228
   4 C :   -0.189716
   5 H :    0.027849
   6 C :    0.035112
   7 H :    0.013900
   8 H :    0.038816
   9 C :   -0.066541
  10 H :    0.036788
  11 H :    0.043269
  12 C :   -0.101191
  13 H :    0.027715
  14 H :    0.046173
  15 H :    0.036516
  16 S :    0.108587
  17 C :   -0.086230
  18 C :   -0.040802
  19 C :   -0.042945
  20 C :   -0.155152
  21 H :    0.031642
  22 C :    0.118007
  23 H :   -0.017281
  24 H :    0.015374
  25 C :   -0.094819
  26 H :    0.025768
  27 H :    0.030548
  28 C :    0.021979
  29 H :    0.006254
  30 H :    0.024478
  31 H :    0.018016
  32 H :    0.047469
  33 H :    0.053560
Sum of atomic charges:    0.0000000

LOEWDIN ATOMIC CHARGES
----------------------
   0 S :    0.409698
   1 C :   -0.202452
   2 C :   -0.061684
   3 C :   -0.060271
   4 C :   -0.182359
   5 H :    0.032212
   6 C :   -0.040269
   7 H :    0.025688
   8 H :    0.037461
   9 C :   -0.039905
  10 H :    0.025955
  11 H :    0.032483
  12 C :   -0.081564
  13 H :    0.018050
  14 H :    0.029305
  15 H :    0.033010
  16 S :    0.409192
  17 C :   -0.175029
  18 C :   -0.071765
  19 C :   -0.053574
  20 C :   -0.213105
  21 H :    0.036373
  22 C :   -0.022537
  23 H :    0.014688
  24 H :    0.028561
  25 C :   -0.035287
  26 H :    0.025744
  27 H :    0.018540
  28 C :   -0.047988
  29 H :    0.013672
  30 H :    0.024752
  31 H :    0.020397
  32 H :    0.026209
  33 H :    0.025796

  Mayer bond orders larger than 0.100000
B(  0-S ,  1-C ) :   1.1594 B(  0-S ,  4-C ) :   1.1591 B(  1-C ,  2-C ) :   1.5651
B(  1-C ,  4-C ) :   0.1213 B(  1-C , 32-H ) :   0.9645 B(  2-C ,  3-C ) :   1.2773
B(  2-C ,  6-C ) :   1.0278 B(  3-C ,  4-C ) :   1.5482 B(  3-C ,  5-H ) :   0.9833
B(  4-C , 20-C ) :   1.0208 B(  6-C ,  7-H ) :   0.9466 B(  6-C ,  8-H ) :   0.9470
B(  6-C ,  9-C ) :   1.0538 B(  9-C , 10-H ) :   0.9622 B(  9-C , 11-H ) :   0.9551
B(  9-C , 12-C ) :   1.0740 B( 12-C , 13-H ) :   0.9768 B( 12-C , 14-H ) :   0.9756
B( 12-C , 15-H ) :   0.9741 B( 16-S , 17-C ) :   1.1579 B( 16-S , 20-C ) :   1.1305
B( 17-C , 18-C ) :   1.5993 B( 17-C , 33-H ) :   0.9750 B( 18-C , 19-C ) :   1.2334
B( 18-C , 21-H ) :   0.9846 B( 19-C , 20-C ) :   1.6243 B( 19-C , 22-C ) :   1.0466
B( 22-C , 23-H ) :   0.9282 B( 22-C , 24-H ) :   0.9316 B( 22-C , 25-C ) :   1.0526
B( 25-C , 26-H ) :   0.9558 B( 25-C , 27-H ) :   0.9617 B( 25-C , 28-C ) :   1.0707
B( 28-C , 29-H ) :   0.9741 B( 28-C , 30-H ) :   0.9724 B( 28-C , 31-H ) :   0.9734

Dispersion correction           -0.015114612
FINAL SINGLE POINT ENERGY     -1339.866124807466

DIPOLE MOMENT
-------------
                                X             Y             Z
Electronic contribution:      6.46902       8.14777     -20.42569
Nuclear contribution   :     -6.54458      -8.58385      20.82099
                        -----------------------------------------
Total Dipole Moment    :     -0.07556      -0.43608       0.39530
                        -----------------------------------------
Magnitude (a.u.)       :      0.59341
Magnitude (Debye)      :      1.50833

Rotational constants in cm-1:     0.018170     0.009000     0.007721
Rotational constants in MHz :   544.726298   269.819135   231.460378

                             ****ORCA TERMINATED NORMALLY****
TOTAL RUN TIME: 0 days 0 hours 0 minutes 22 seconds 92 msec
