                         Program Version 4.2.1 -  RELEASE  -
|  1> ! wB97X-D3 SP def2-SVP
|  2> %pal
|  3> nprocs 24
|  4> end
|  5>
|  6> * xyz 0 1
|  7> S 	 -111.429 	 56.2292 	 -100.443
|  8> C 	 -112.827 	 55.6062 	 -101.149
|  9> C 	 -113.779 	 56.5319 	 -101.434
| 10> C 	 -113.374 	 57.8425 	 -101.047
| 11> C 	 -112.112 	 57.8787 	 -100.516
| 12> H 	 -114.033 	 58.6934 	 -101.137
| 13> C 	 -115.097 	 56.093 	 -101.869
| 14> H 	 -114.99 	 55.3152 	 -102.625
| 15> H 	 -115.399 	 56.9988 	 -102.468
| 16> C 	 -116.048 	 55.8314 	 -100.641
| 17> H 	 -115.494 	 55.0876 	 -100.205
| 18> H 	 -116.059 	 56.8191 	 -100.106
| 19> C 	 -117.441 	 55.3724 	 -100.99
| 20> H 	 -118.065 	 56.1526 	 -101.599
| 21> H 	 -117.432 	 54.4322 	 -101.489
| 22> H 	 -117.904 	 55.2172 	 -100.041
| 23> S 	 -110.376 	 58.8979 	 -98.6448
| 24> C 	 -110.194 	 60.6244 	 -98.468
| 25> C 	 -110.847 	 61.2943 	 -99.5036
| 26> C 	 -111.474 	 60.4172 	 -100.491
| 27> C 	 -111.434 	 59.063 	 -100.029
| 28> H 	 -110.873 	 62.3808 	 -99.4864
| 29> C 	 -112.043 	 60.8526 	 -101.787
| 30> H 	 -112.992 	 61.2684 	 -101.517
| 31> H 	 -112.303 	 59.9965 	 -102.384
| 32> C 	 -111.226 	 61.9243 	 -102.54
| 33> H 	 -110.229 	 61.6909 	 -102.959
| 34> H 	 -110.996 	 62.7573 	 -101.915
| 35> C 	 -112.038 	 62.2728 	 -103.776
| 36> H 	 -113.174 	 62.2317 	 -103.627
| 37> H 	 -111.865 	 61.4932 	 -104.56
| 38> H 	 -111.816 	 63.2591 	 -104.236
| 39> H 	 -113.027 	 54.5307 	 -101.24
| 40> H 	 -109.6 	 61.1636 	 -97.6847
| 41> *
| 42>
| 43>                          ****END OF INPUT****

CARTESIAN COORDINATES (ANGSTROEM)
---------------------------------
  S    -111.429000   56.229200  -100.443000
  C    -112.827000   55.606200  -101.149000
  C    -113.779000   56.531900  -101.434000
  C    -113.374000   57.842500  -101.047000
  C    -112.112000   57.878700  -100.516000
  H    -114.033000   58.693400  -101.137000
  C    -115.097000   56.093000  -101.869000
  H    -114.990000   55.315200  -102.625000
  H    -115.399000   56.998800  -102.468000
  C    -116.048000   55.831400  -100.641000
  H    -115.494000   55.087600  -100.205000
  H    -116.059000   56.819100  -100.106000
  C    -117.441000   55.372400  -100.990000
  H    -118.065000   56.152600  -101.599000
  H    -117.432000   54.432200  -101.489000
  H    -117.904000   55.217200  -100.041000
  S    -110.376000   58.897900  -98.644800
  C    -110.194000   60.624400  -98.468000
  C    -110.847000   61.294300  -99.503600
  C    -111.474000   60.417200  -100.491000
  C    -111.434000   59.063000  -100.029000
  H    -110.873000   62.380800  -99.486400
  C    -112.043000   60.852600  -101.787000
  H    -112.992000   61.268400  -101.517000
  H    -112.303000   59.996500  -102.384000
  C    -111.226000   61.924300  -102.540000
  H    -110.229000   61.690900  -102.959000
  H    -110.996000   62.757300  -101.915000
  C    -112.038000   62.272800  -103.776000
  H    -113.174000   62.231700  -103.627000
  H    -111.865000   61.493200  -104.560000
  H    -111.816000   63.259100  -104.236000
  H    -113.027000   54.530700  -101.240000
  H    -109.600000   61.163600  -97.684700

 Total Charge           Charge          ....    0
 Multiplicity           Mult            ....    1
 Number of Electrons    NEL             ....  134
 Basis Dimension        Dim             ....  322

ORBITAL ENERGIES
----------------

  NO   OCC          E(Eh)            E(eV)
   0   2.0000     -88.964313     -2420.8420
   1   2.0000     -88.964031     -2420.8343
   2   2.0000     -10.329861      -281.0898
   3   2.0000     -10.327497      -281.0255
   4   2.0000     -10.321785      -280.8700
   5   2.0000     -10.308360      -280.5047
   6   2.0000     -10.303874      -280.3827
   7   2.0000     -10.298536      -280.2374
   8   2.0000     -10.293123      -280.0901
   9   2.0000     -10.289812      -280.0000
  10   2.0000     -10.288330      -279.9597
  11   2.0000     -10.287835      -279.9462
  12   2.0000     -10.287467      -279.9362
  13   2.0000     -10.287044      -279.9247
  14   2.0000     -10.285866      -279.8926
  15   2.0000     -10.281352      -279.7698
  16   2.0000      -8.079890      -219.8650
  17   2.0000      -8.078808      -219.8355
  18   2.0000      -6.038409      -164.3135
  19   2.0000      -6.037312      -164.2836
  20   2.0000      -6.034334      -164.2026
  21   2.0000      -6.033312      -164.1748
  22   2.0000      -6.030548      -164.0996
  23   2.0000      -6.029578      -164.0732
  24   2.0000      -1.008553       -27.4441
  25   2.0000      -0.983503       -26.7625
  26   2.0000      -0.916596       -24.9419
  27   2.0000      -0.914211       -24.8769
  28   2.0000      -0.871144       -23.7050
  29   2.0000      -0.857775       -23.3413
  30   2.0000      -0.847242       -23.0546
  31   2.0000      -0.817976       -22.2583
  32   2.0000      -0.778795       -21.1921
  33   2.0000      -0.762419       -20.7465
  34   2.0000      -0.709167       -19.2974
  35   2.0000      -0.702506       -19.1161
  36   2.0000      -0.698654       -19.0113
  37   2.0000      -0.655988       -17.8503
  38   2.0000      -0.635814       -17.3014
  39   2.0000      -0.624091       -16.9824
  40   2.0000      -0.595515       -16.2048
  41   2.0000      -0.572230       -15.5712
  42   2.0000      -0.564458       -15.3597
  43   2.0000      -0.557878       -15.1806
  44   2.0000      -0.530575       -14.4377
  45   2.0000      -0.526664       -14.3312
  46   2.0000      -0.518387       -14.1060
  47   2.0000      -0.509901       -13.8751
  48   2.0000      -0.507986       -13.8230
  49   2.0000      -0.502005       -13.6603
  50   2.0000      -0.495317       -13.4782
  51   2.0000      -0.472000       -12.8438
  52   2.0000      -0.469680       -12.7806
  53   2.0000      -0.461695       -12.5634
  54   2.0000      -0.457488       -12.4489
  55   2.0000      -0.455840       -12.4040
  56   2.0000      -0.448284       -12.1984
  57   2.0000      -0.441945       -12.0259
  58   2.0000      -0.434879       -11.8337
  59   2.0000      -0.424344       -11.5470
  60   2.0000      -0.421317       -11.4646
  61   2.0000      -0.414784       -11.2869
  62   2.0000      -0.410167       -11.1612
  63   2.0000      -0.356668        -9.7054
  64   2.0000      -0.330076        -8.9818
  65   2.0000      -0.322796        -8.7837
  66   2.0000      -0.280853        -7.6424
  67   0.0000       0.024673         0.6714
  68   0.0000       0.081108         2.2071
  69   0.0000       0.107826         2.9341
  70   0.0000       0.121744         3.3128
  71   0.0000       0.135956         3.6996

MULLIKEN ATOMIC CHARGES
-----------------------
   0 S :    0.115669
   1 C :   -0.116775
   2 C :   -0.108819
   3 C :    0.001208
   4 C :   -0.121102
   5 H :    0.008999
   6 C :    0.022564
   7 H :    0.026626
   8 H :    0.014755
   9 C :   -0.038553
  10 H :    0.005082
  11 H :    0.042491
  12 C :   -0.016603
  13 H :    0.046994
  14 H :    0.025344
  15 H :    0.031307
  16 S :    0.101828
  17 C :   -0.107121
  18 C :   -0.052309
  19 C :   -0.045713
  20 C :   -0.151537
  21 H :    0.024677
  22 C :    0.073568
  23 H :    0.028600
  24 H :    0.027018
  25 C :   -0.040104
  26 H :    0.039320
  27 H :    0.021034
  28 C :   -0.095062
  29 H :    0.030387
  30 H :    0.039415
  31 H :    0.039828
  32 H :    0.050009
  33 H :    0.076973
Sum of atomic charges:    0.0000000

LOEWDIN ATOMIC CHARGES
----------------------
   0 S :    0.409036
   1 C :   -0.215274
   2 C :   -0.076602
   3 C :   -0.060961
   4 C :   -0.180708
   5 H :    0.030880
   6 C :   -0.042165
   7 H :    0.028300
   8 H :    0.029484
   9 C :   -0.027180
  10 H :    0.013121
  11 H :    0.036222
  12 C :   -0.066204
  13 H :    0.037797
  14 H :    0.021140
  15 H :    0.025677
  16 S :    0.403538
  17 C :   -0.198991
  18 C :   -0.075555
  19 C :   -0.048897
  20 C :   -0.200636
  21 H :    0.029850
  22 C :   -0.031567
  23 H :    0.034117
  24 H :    0.031675
  25 C :   -0.038035
  26 H :    0.033820
  27 H :    0.017973
  28 C :   -0.076233
  29 H :    0.026504
  30 H :    0.029670
  31 H :    0.026234
  32 H :    0.030667
  33 H :    0.043302

  Mayer bond orders larger than 0.100000
B(  0-S ,  1-C ) :   1.1423 B(  0-S ,  4-C ) :   1.1378 B(  1-C ,  2-C ) :   1.6145
B(  1-C , 32-H ) :   0.9572 B(  2-C ,  3-C ) :   1.2508 B(  2-C ,  6-C ) :   1.0373
B(  3-C ,  4-C ) :   1.5535 B(  3-C ,  5-H ) :   0.9982 B(  4-C , 20-C ) :   1.0860
B(  6-C ,  7-H ) :   0.9402 B(  6-C ,  8-H ) :   0.9314 B(  6-C ,  9-C ) :   1.0333
B(  9-C , 10-H ) :   0.9562 B(  9-C , 11-H ) :   0.9539 B(  9-C , 12-C ) :   1.0940
B( 12-C , 13-H ) :   0.9727 B( 12-C , 14-H ) :   0.9702 B( 12-C , 15-H ) :   0.9702
B( 16-S , 17-C ) :   1.1513 B( 16-S , 20-C ) :   1.1387 B( 17-C , 18-C ) :   1.6143
B( 17-C , 33-H ) :   0.9616 B( 18-C , 19-C ) :   1.2296 B( 18-C , 21-H ) :   0.9859
B( 19-C , 20-C ) :   1.5521 B( 19-C , 22-C ) :   1.0499 B( 22-C , 23-H ) :   0.9171
B( 22-C , 24-H ) :   0.9355 B( 22-C , 25-C ) :   1.0560 B( 25-C , 26-H ) :   0.9566
B( 25-C , 27-H ) :   0.9550 B( 25-C , 28-C ) :   1.0702 B( 28-C , 29-H ) :   0.9736
B( 28-C , 30-H ) :   0.9763 B( 28-C , 31-H ) :   0.9733

Dispersion correction           -0.013504682
FINAL SINGLE POINT ENERGY     -1339.867780684553

DIPOLE MOMENT
-------------
                                X             Y             Z
Electronic contribution:     20.98206      -7.34737      15.73801
Nuclear contribution   :    -21.49128       7.63467     -15.98239
                        -----------------------------------------
Total Dipole Moment    :     -0.50922       0.28730      -0.24438
                        -----------------------------------------
Magnitude (a.u.)       :      0.63369
Magnitude (Debye)      :      1.61072

Rotational constants in cm-1:     0.018007     0.007913     0.006314
Rotational constants in MHz :   539.830640   237.232362   189.298863

                             ****ORCA TERMINATED NORMALLY****
TOTAL RUN TIME: 0 days 0 hours 0 minutes 21 seconds 18 msec
