                         Program Version 4.2.1 -  RELEASE  -
|  1> ! wB97X-D3 SP def2-SVP
|  2> %pal
|  3> nprocs 24
|  4> end
|  5>
|  6> * xyz 0 1
|  7> S 	 -97.8692 	 -27.6643 	 -61.312
|  8> C 	 -99.1192 	 -26.4769 	 -61.3936
|  9> C 	 -98.6073 	 -25.2121 	 -61.3544
| 10> C 	 -97.1665 	 -25.26 	 -61.3522
| 11> C 	 -96.6054 	 -26.4944 	 -61.2829
| 12> H 	 -96.4848 	 -24.4424 	 -61.4679
| 13> C 	 -99.3502 	 -23.9063 	 -61.6015
| 14> H 	 -98.7824 	 -23.1743 	 -61.0173
| 15> H 	 -100.379 	 -23.8784 	 -61.1964
| 16> C 	 -99.4621 	 -23.3953 	 -63.0735
| 17> H 	 -100.235 	 -22.5868 	 -62.9594
| 18> H 	 -98.4948 	 -22.9168 	 -63.3561
| 19> C 	 -99.8971 	 -24.4417 	 -64.1555
| 20> H 	 -100.854 	 -24.8735 	 -63.9782
| 21> H 	 -99.8636 	 -23.9671 	 -65.1441
| 22> H 	 -99.1995 	 -25.3519 	 -64.132
| 23> S 	 -94.2932 	 -26.8771 	 -62.8311
| 24> C 	 -92.7554 	 -27.2658 	 -62.1758
| 25> C 	 -92.8097 	 -27.1671 	 -60.7922
| 26> C 	 -94.1815 	 -26.9589 	 -60.3213
| 27> C 	 -95.1461 	 -26.7804 	 -61.3008
| 28> H 	 -91.857 	 -27.2137 	 -60.1952
| 29> C 	 -94.515 	 -26.8614 	 -58.8272
| 30> H 	 -94.3352 	 -27.8692 	 -58.557
| 31> H 	 -95.5996 	 -26.6532 	 -58.751
| 32> C 	 -93.7312 	 -25.9595 	 -57.8898
| 33> H 	 -93.8165 	 -24.9539 	 -58.2073
| 34> H 	 -92.6688 	 -26.2923 	 -57.9128
| 35> C 	 -94.3122 	 -25.9908 	 -56.4898
| 36> H 	 -94.027 	 -24.9973 	 -56.0692
| 37> H 	 -93.9426 	 -26.7645 	 -55.7698
| 38> H 	 -95.4141 	 -26.0201 	 -56.45
| 39> H 	 -100.192 	 -26.726 	 -61.5915
| 40> H 	 -91.9621 	 -27.7798 	 -62.7065
| 41> *
| 42>
| 43>                          ****END OF INPUT****

CARTESIAN COORDINATES (ANGSTROEM)
---------------------------------
  S    -97.869200  -27.664300  -61.312000
  C    -99.119200  -26.476900  -61.393600
  C    -98.607300  -25.212100  -61.354400
  C    -97.166500  -25.260000  -61.352200
  C    -96.605400  -26.494400  -61.282900
  H    -96.484800  -24.442400  -61.467900
  C    -99.350200  -23.906300  -61.601500
  H    -98.782400  -23.174300  -61.017300
  H    -100.379000  -23.878400  -61.196400
  C    -99.462100  -23.395300  -63.073500
  H    -100.235000  -22.586800  -62.959400
  H    -98.494800  -22.916800  -63.356100
  C    -99.897100  -24.441700  -64.155500
  H    -100.854000  -24.873500  -63.978200
  H    -99.863600  -23.967100  -65.144100
  H    -99.199500  -25.351900  -64.132000
  S    -94.293200  -26.877100  -62.831100
  C    -92.755400  -27.265800  -62.175800
  C    -92.809700  -27.167100  -60.792200
  C    -94.181500  -26.958900  -60.321300
  C    -95.146100  -26.780400  -61.300800
  H    -91.857000  -27.213700  -60.195200
  C    -94.515000  -26.861400  -58.827200
  H    -94.335200  -27.869200  -58.557000
  H    -95.599600  -26.653200  -58.751000
  C    -93.731200  -25.959500  -57.889800
  H    -93.816500  -24.953900  -58.207300
  H    -92.668800  -26.292300  -57.912800
  C    -94.312200  -25.990800  -56.489800
  H    -94.027000  -24.997300  -56.069200
  H    -93.942600  -26.764500  -55.769800
  H    -95.414100  -26.020100  -56.450000
  H    -100.192000  -26.726000  -61.591500
  H    -91.962100  -27.779800  -62.706500

 Total Charge           Charge          ....    0
 Multiplicity           Mult            ....    1
 Number of Electrons    NEL             ....  134
 Basis Dimension        Dim             ....  322

ORBITAL ENERGIES
----------------

  NO   OCC          E(Eh)            E(eV)
   0   2.0000     -88.964654     -2420.8513
   1   2.0000     -88.959068     -2420.6993
   2   2.0000     -10.328368      -281.0492
   3   2.0000     -10.328091      -281.0416
   4   2.0000     -10.317779      -280.7611
   5   2.0000     -10.317334      -280.7489
   6   2.0000     -10.307477      -280.4807
   7   2.0000     -10.301386      -280.3150
   8   2.0000     -10.301302      -280.3127
   9   2.0000     -10.297764      -280.2164
  10   2.0000     -10.296246      -280.1751
  11   2.0000     -10.291177      -280.0372
  12   2.0000     -10.284276      -279.8494
  13   2.0000     -10.283046      -279.8159
  14   2.0000     -10.282116      -279.7906
  15   2.0000     -10.281917      -279.7852
  16   2.0000      -8.080323      -219.8768
  17   2.0000      -8.074587      -219.7207
  18   2.0000      -6.038830      -164.3249
  19   2.0000      -6.034513      -164.2075
  20   2.0000      -6.033091      -164.1688
  21   2.0000      -6.031214      -164.1177
  22   2.0000      -6.028781      -164.0515
  23   2.0000      -6.025480      -163.9616
  24   2.0000      -1.010515       -27.4975
  25   2.0000      -0.989003       -26.9121
  26   2.0000      -0.909796       -24.7568
  27   2.0000      -0.904689       -24.6178
  28   2.0000      -0.869261       -23.6538
  29   2.0000      -0.845620       -23.0105
  30   2.0000      -0.843778       -22.9604
  31   2.0000      -0.815733       -22.1972
  32   2.0000      -0.783279       -21.3141
  33   2.0000      -0.770315       -20.9613
  34   2.0000      -0.701843       -19.0981
  35   2.0000      -0.696747       -18.9595
  36   2.0000      -0.691495       -18.8165
  37   2.0000      -0.653140       -17.7729
  38   2.0000      -0.644845       -17.5471
  39   2.0000      -0.617169       -16.7940
  40   2.0000      -0.590122       -16.0580
  41   2.0000      -0.570883       -15.5345
  42   2.0000      -0.568958       -15.4821
  43   2.0000      -0.546459       -14.8699
  44   2.0000      -0.537342       -14.6218
  45   2.0000      -0.522236       -14.2108
  46   2.0000      -0.520864       -14.1734
  47   2.0000      -0.511659       -13.9230
  48   2.0000      -0.511068       -13.9069
  49   2.0000      -0.496125       -13.5002
  50   2.0000      -0.485682       -13.2161
  51   2.0000      -0.476770       -12.9736
  52   2.0000      -0.474637       -12.9155
  53   2.0000      -0.468005       -12.7351
  54   2.0000      -0.459109       -12.4930
  55   2.0000      -0.441254       -12.0071
  56   2.0000      -0.440001       -11.9730
  57   2.0000      -0.436351       -11.8737
  58   2.0000      -0.425495       -11.5783
  59   2.0000      -0.424790       -11.5591
  60   2.0000      -0.420123       -11.4321
  61   2.0000      -0.413970       -11.2647
  62   2.0000      -0.404728       -11.0132
  63   2.0000      -0.333423        -9.0729
  64   2.0000      -0.329356        -8.9622
  65   2.0000      -0.321276        -8.7424
  66   2.0000      -0.315379        -8.5819
  67   0.0000       0.045874         1.2483
  68   0.0000       0.056021         1.5244
  69   0.0000       0.115325         3.1381
  70   0.0000       0.127035         3.4568
  71   0.0000       0.132259         3.5989

MULLIKEN ATOMIC CHARGES
-----------------------
   0 S :    0.121939
   1 C :   -0.147214
   2 C :   -0.063255
   3 C :    0.035996
   4 C :   -0.173379
   5 H :    0.003544
   6 C :    0.043888
   7 H :    0.029377
   8 H :    0.029740
   9 C :   -0.091542
  10 H :    0.039970
  11 H :    0.038251
  12 C :   -0.066669
  13 H :    0.022206
  14 H :    0.047107
  15 H :    0.056152
  16 S :    0.098052
  17 C :   -0.100106
  18 C :   -0.062634
  19 C :   -0.043808
  20 C :   -0.162532
  21 H :    0.046129
  22 C :    0.052152
  23 H :    0.023618
  24 H :    0.030207
  25 C :   -0.038839
  26 H :    0.024329
  27 H :    0.033877
  28 C :   -0.081434
  29 H :    0.031539
  30 H :    0.044882
  31 H :    0.035392
  32 H :    0.068972
  33 H :    0.074092
Sum of atomic charges:    0.0000000

LOEWDIN ATOMIC CHARGES
----------------------
   0 S :    0.426170
   1 C :   -0.202703
   2 C :   -0.074398
   3 C :   -0.054850
   4 C :   -0.213203
   5 H :    0.028373
   6 C :   -0.038740
   7 H :    0.033789
   8 H :    0.030965
   9 C :   -0.042000
  10 H :    0.029843
  11 H :    0.025585
  12 C :   -0.072337
  13 H :    0.016637
  14 H :    0.030920
  15 H :    0.037485
  16 S :    0.413466
  17 C :   -0.196360
  18 C :   -0.087556
  19 C :   -0.050752
  20 C :   -0.209618
  21 H :    0.041115
  22 C :   -0.036292
  23 H :    0.028790
  24 H :    0.030904
  25 C :   -0.038288
  26 H :    0.020992
  27 H :    0.029168
  28 C :   -0.072053
  29 H :    0.030957
  30 H :    0.029262
  31 H :    0.027307
  32 H :    0.040369
  33 H :    0.037050

  Mayer bond orders larger than 0.100000
B(  0-S ,  1-C ) :   1.1588 B(  0-S ,  4-C ) :   1.1462 B(  1-C ,  2-C ) :   1.6007
B(  1-C , 32-H ) :   0.9637 B(  2-C ,  3-C ) :   1.2226 B(  2-C ,  6-C ) :   1.0336
B(  3-C ,  4-C ) :   1.6101 B(  3-C ,  5-H ) :   0.9984 B(  4-C , 20-C ) :   0.9964
B(  6-C ,  7-H ) :   0.9379 B(  6-C ,  8-H ) :   0.9473 B(  6-C ,  9-C ) :   1.0616
B(  9-C , 10-H ) :   0.9578 B(  9-C , 11-H ) :   0.9581 B(  9-C , 12-C ) :   1.0725
B( 12-C , 13-H ) :   0.9764 B( 12-C , 14-H ) :   0.9751 B( 12-C , 15-H ) :   0.9705
B( 16-S , 17-C ) :   1.1872 B( 16-S , 20-C ) :   1.1302 B( 17-C , 18-C ) :   1.5868
B( 17-C , 33-H ) :   0.9638 B( 18-C , 19-C ) :   1.2416 B( 18-C , 21-H ) :   0.9833
B( 19-C , 20-C ) :   1.6118 B( 19-C , 22-C ) :   1.0285 B( 22-C , 23-H ) :   0.9299
B( 22-C , 24-H ) :   0.9371 B( 22-C , 25-C ) :   1.0790 B( 25-C , 26-H ) :   0.9604
B( 25-C , 27-H ) :   0.9454 B( 25-C , 28-C ) :   1.0804 B( 28-C , 29-H ) :   0.9778
B( 28-C , 30-H ) :   0.9757 B( 28-C , 31-H ) :   0.9739

Dispersion correction           -0.014244505
FINAL SINGLE POINT ENERGY     -1339.876243774489

DIPOLE MOMENT
-------------
                                X             Y             Z
Electronic contribution:      5.47552     -13.77453     -10.28470
Nuclear contribution   :     -5.49029      14.11631      10.50564
                        -----------------------------------------
Total Dipole Moment    :     -0.01477       0.34178       0.22094
                        -----------------------------------------
Magnitude (a.u.)       :      0.40724
Magnitude (Debye)      :      1.03512

Rotational constants in cm-1:     0.019321     0.007948     0.006700
Rotational constants in MHz :   579.227910   238.283840   200.860640

                             ****ORCA TERMINATED NORMALLY****
TOTAL RUN TIME: 0 days 0 hours 0 minutes 21 seconds 68 msec
