                         Program Version 4.2.1 -  RELEASE  -
|  1> ! wB97X-D3 SP def2-SVP
|  2> %pal
|  3> nprocs 24
|  4> end
|  5>
|  6> * xyz 0 1
|  7> S 	 13.1073 	 -16.9163 	 -119.336
|  8> C 	 11.6436 	 -16.194 	 -118.859
|  9> C 	 11.3729 	 -16.385 	 -117.477
| 10> C 	 12.3761 	 -17.1172 	 -116.873
| 11> C 	 13.41 	 -17.371 	 -117.74
| 12> H 	 12.4253 	 -17.4302 	 -115.828
| 13> C 	 10.2121 	 -15.7731 	 -116.758
| 14> H 	 9.70295 	 -16.5469 	 -116.156
| 15> H 	 9.34069 	 -15.5995 	 -117.472
| 16> C 	 10.5875 	 -14.5402 	 -115.924
| 17> H 	 11.1292 	 -14.8606 	 -115.127
| 18> H 	 11.2253 	 -13.8501 	 -116.473
| 19> C 	 9.30946 	 -13.9429 	 -115.275
| 20> H 	 9.6342 	 -13.2451 	 -114.556
| 21> H 	 8.81525 	 -13.3219 	 -116.038
| 22> H 	 8.69773 	 -14.707 	 -114.87
| 23> S 	 16.0939 	 -17.2944 	 -117.193
| 24> C 	 16.8891 	 -18.8573 	 -117.127
| 25> C 	 16.0534 	 -19.9128 	 -116.864
| 26> C 	 14.7289 	 -19.4497 	 -116.918
| 27> C 	 14.5701 	 -18.1841 	 -117.439
| 28> H 	 16.3785 	 -20.9007 	 -116.627
| 29> C 	 13.5896 	 -20.4796 	 -116.785
| 30> H 	 12.7039 	 -19.9495 	 -116.314
| 31> H 	 13.9598 	 -21.1182 	 -116.011
| 32> C 	 13.1053 	 -21.2134 	 -118.047
| 33> H 	 12.5631 	 -20.544 	 -118.72
| 34> H 	 12.2497 	 -21.9101 	 -117.896
| 35> C 	 14.204 	 -22.0349 	 -118.648
| 36> H 	 14.958 	 -21.3836 	 -119.155
| 37> H 	 13.8479 	 -22.7932 	 -119.383
| 38> H 	 14.5964 	 -22.6351 	 -117.868
| 39> H 	 10.9278 	 -15.7048 	 -119.461
| 40> H 	 17.9509 	 -18.9855 	 -116.969
| 41> *
| 42>
| 43>                          ****END OF INPUT****

CARTESIAN COORDINATES (ANGSTROEM)
---------------------------------
  S     13.107300  -16.916300  -119.336000
  C     11.643600  -16.194000  -118.859000
  C     11.372900  -16.385000  -117.477000
  C     12.376100  -17.117200  -116.873000
  C     13.410000  -17.371000  -117.740000
  H     12.425300  -17.430200  -115.828000
  C     10.212100  -15.773100  -116.758000
  H      9.702950  -16.546900  -116.156000
  H      9.340690  -15.599500  -117.472000
  C     10.587500  -14.540200  -115.924000
  H     11.129200  -14.860600  -115.127000
  H     11.225300  -13.850100  -116.473000
  C      9.309460  -13.942900  -115.275000
  H      9.634200  -13.245100  -114.556000
  H      8.815250  -13.321900  -116.038000
  H      8.697730  -14.707000  -114.870000
  S     16.093900  -17.294400  -117.193000
  C     16.889100  -18.857300  -117.127000
  C     16.053400  -19.912800  -116.864000
  C     14.728900  -19.449700  -116.918000
  C     14.570100  -18.184100  -117.439000
  H     16.378500  -20.900700  -116.627000
  C     13.589600  -20.479600  -116.785000
  H     12.703900  -19.949500  -116.314000
  H     13.959800  -21.118200  -116.011000
  C     13.105300  -21.213400  -118.047000
  H     12.563100  -20.544000  -118.720000
  H     12.249700  -21.910100  -117.896000
  C     14.204000  -22.034900  -118.648000
  H     14.958000  -21.383600  -119.155000
  H     13.847900  -22.793200  -119.383000
  H     14.596400  -22.635100  -117.868000
  H     10.927800  -15.704800  -119.461000
  H     17.950900  -18.985500  -116.969000

 Total Charge           Charge          ....    0
 Multiplicity           Mult            ....    1
 Number of Electrons    NEL             ....  134
 Basis Dimension        Dim             ....  322

ORBITAL ENERGIES
----------------

  NO   OCC          E(Eh)            E(eV)
   0   2.0000     -88.970860     -2421.0202
   1   2.0000     -88.960825     -2420.7471
   2   2.0000     -10.319437      -280.8062
   3   2.0000     -10.316809      -280.7347
   4   2.0000     -10.312081      -280.6060
   5   2.0000     -10.306721      -280.4601
   6   2.0000     -10.297981      -280.2223
   7   2.0000     -10.295264      -280.1484
   8   2.0000     -10.294147      -280.1180
   9   2.0000     -10.289877      -280.0018
  10   2.0000     -10.287931      -279.9488
  11   2.0000     -10.287775      -279.9446
  12   2.0000     -10.283150      -279.8187
  13   2.0000     -10.278661      -279.6966
  14   2.0000     -10.273425      -279.5541
  15   2.0000     -10.272646      -279.5329
  16   2.0000      -8.087100      -220.0612
  17   2.0000      -8.075482      -219.7450
  18   2.0000      -6.045153      -164.4970
  19   2.0000      -6.041312      -164.3925
  20   2.0000      -6.038340      -164.3116
  21   2.0000      -6.033861      -164.1897
  22   2.0000      -6.030461      -164.0972
  23   2.0000      -6.025924      -163.9737
  24   2.0000      -1.016471       -27.6596
  25   2.0000      -0.989555       -26.9272
  26   2.0000      -0.914854       -24.8945
  27   2.0000      -0.905286       -24.6341
  28   2.0000      -0.869303       -23.6549
  29   2.0000      -0.859129       -23.3781
  30   2.0000      -0.846650       -23.0385
  31   2.0000      -0.812290       -22.1035
  32   2.0000      -0.781693       -21.2710
  33   2.0000      -0.766281       -20.8516
  34   2.0000      -0.710765       -19.3409
  35   2.0000      -0.702807       -19.1244
  36   2.0000      -0.688323       -18.7302
  37   2.0000      -0.661704       -18.0059
  38   2.0000      -0.645638       -17.5687
  39   2.0000      -0.621278       -16.9058
  40   2.0000      -0.584590       -15.9075
  41   2.0000      -0.574740       -15.6395
  42   2.0000      -0.562164       -15.2973
  43   2.0000      -0.548502       -14.9255
  44   2.0000      -0.544625       -14.8200
  45   2.0000      -0.532299       -14.4846
  46   2.0000      -0.519431       -14.1344
  47   2.0000      -0.514211       -13.9924
  48   2.0000      -0.499462       -13.5911
  49   2.0000      -0.492607       -13.4045
  50   2.0000      -0.484681       -13.1888
  51   2.0000      -0.475798       -12.9471
  52   2.0000      -0.467686       -12.7264
  53   2.0000      -0.467409       -12.7188
  54   2.0000      -0.459582       -12.5059
  55   2.0000      -0.453524       -12.3410
  56   2.0000      -0.446700       -12.1553
  57   2.0000      -0.436843       -11.8871
  58   2.0000      -0.433170       -11.7872
  59   2.0000      -0.426002       -11.5921
  60   2.0000      -0.424833       -11.5603
  61   2.0000      -0.413033       -11.2392
  62   2.0000      -0.398443       -10.8422
  63   2.0000      -0.340996        -9.2790
  64   2.0000      -0.329470        -8.9653
  65   2.0000      -0.323662        -8.8073
  66   2.0000      -0.296488        -8.0679
  67   0.0000       0.033717         0.9175
  68   0.0000       0.060710         1.6520
  69   0.0000       0.100154         2.7253
  70   0.0000       0.122671         3.3380
  71   0.0000       0.138030         3.7560

MULLIKEN ATOMIC CHARGES
-----------------------
   0 S :    0.158886
   1 C :   -0.091688
   2 C :   -0.089488
   3 C :    0.032166
   4 C :   -0.177516
   5 H :    0.019430
   6 C :    0.020061
   7 H :    0.020488
   8 H :    0.018788
   9 C :   -0.034645
  10 H :    0.003246
  11 H :    0.034891
  12 C :   -0.015919
  13 H :    0.022477
  14 H :    0.032073
  15 H :    0.030718
  16 S :    0.094317
  17 C :   -0.060426
  18 C :   -0.034952
  19 C :   -0.031410
  20 C :   -0.172824
  21 H :    0.011035
  22 C :    0.052519
  23 H :    0.023842
  24 H :    0.013735
  25 C :   -0.042551
  26 H :    0.025358
  27 H :    0.020778
  28 C :   -0.056079
  29 H :    0.058035
  30 H :    0.030937
  31 H :    0.014767
  32 H :    0.022404
  33 H :    0.046545
Sum of atomic charges:    0.0000000

LOEWDIN ATOMIC CHARGES
----------------------
   0 S :    0.475697
   1 C :   -0.214617
   2 C :   -0.063756
   3 C :   -0.059400
   4 C :   -0.228723
   5 H :    0.036482
   6 C :   -0.042463
   7 H :    0.030621
   8 H :    0.031538
   9 C :   -0.027384
  10 H :    0.010364
  11 H :    0.027695
  12 C :   -0.052336
  13 H :    0.020522
  14 H :    0.027992
  15 H :    0.021625
  16 S :    0.384177
  17 C :   -0.172980
  18 C :   -0.067897
  19 C :   -0.055453
  20 C :   -0.191343
  21 H :    0.030503
  22 C :   -0.033230
  23 H :    0.033545
  24 H :    0.022705
  25 C :   -0.047898
  26 H :    0.024790
  27 H :    0.028746
  28 C :   -0.069629
  29 H :    0.033102
  30 H :    0.029034
  31 H :    0.017614
  32 H :    0.017379
  33 H :    0.022978

  Mayer bond orders larger than 0.100000
B(  0-S ,  1-C ) :   1.1724 B(  0-S ,  4-C ) :   1.1996 B(  1-C ,  2-C ) :   1.5496
B(  1-C ,  4-C ) :   0.1086 B(  1-C , 32-H ) :   0.9732 B(  2-C ,  3-C ) :   1.2941
B(  2-C ,  6-C ) :   1.0351 B(  3-C ,  4-C ) :   1.5292 B(  3-C ,  5-H ) :   0.9988
B(  4-C , 20-C ) :   1.0077 B(  6-C ,  7-H ) :   0.9316 B(  6-C ,  8-H ) :   0.9423
B(  6-C ,  9-C ) :   1.0553 B(  9-C , 10-H ) :   0.9511 B(  9-C , 11-H ) :   0.9587
B(  9-C , 12-C ) :   1.0812 B( 12-C , 13-H ) :   0.9746 B( 12-C , 14-H ) :   0.9779
B( 12-C , 15-H ) :   0.9733 B( 16-S , 17-C ) :   1.1536 B( 16-S , 20-C ) :   1.1341
B( 17-C , 18-C ) :   1.6150 B( 17-C , 20-C ) :   0.1052 B( 17-C , 33-H ) :   0.9628
B( 18-C , 19-C ) :   1.2236 B( 18-C , 21-H ) :   0.9992 B( 19-C , 20-C ) :   1.6045
B( 19-C , 22-C ) :   1.0488 B( 22-C , 23-H ) :   0.9310 B( 22-C , 24-H ) :   0.9363
B( 22-C , 25-C ) :   1.0725 B( 25-C , 26-H ) :   0.9532 B( 25-C , 27-H ) :   0.9503
B( 25-C , 28-C ) :   1.0801 B( 28-C , 29-H ) :   0.9717 B( 28-C , 30-H ) :   0.9707
B( 28-C , 31-H ) :   0.9711

Dispersion correction           -0.014878317
FINAL SINGLE POINT ENERGY     -1339.854504816436

DIPOLE MOMENT
-------------
                                X             Y             Z
Electronic contribution:     17.82721       5.40336      -8.29252
Nuclear contribution   :    -18.25479      -5.64022       8.66562
                        -----------------------------------------
Total Dipole Moment    :     -0.42758      -0.23686       0.37309
                        -----------------------------------------
Magnitude (a.u.)       :      0.61492
Magnitude (Debye)      :      1.56299

Rotational constants in cm-1:     0.022101     0.007678     0.007010
Rotational constants in MHz :   662.568770   230.186689   210.165300

                             ****ORCA TERMINATED NORMALLY****
TOTAL RUN TIME: 0 days 0 hours 0 minutes 22 seconds 184 msec
