                         Program Version 4.2.1 -  RELEASE  -
|  1> ! wB97X-D3 SP def2-SVP
|  2> %pal
|  3> nprocs 24
|  4> end
|  5>
|  6> * xyz 0 1
|  7> S 	 -0.443652 	 -25.3421 	 -116.07
|  8> C 	 -0.441397 	 -23.6618 	 -116.437
|  9> C 	 -1.69894 	 -23.1054 	 -116.283
| 10> C 	 -2.72953 	 -24.0747 	 -115.982
| 11> C 	 -2.16711 	 -25.3447 	 -115.772
| 12> H 	 -3.74027 	 -23.9079 	 -115.765
| 13> C 	 -1.92509 	 -21.636 	 -116.412
| 14> H 	 -0.897399 	 -21.2521 	 -116.217
| 15> H 	 -2.5702 	 -21.2356 	 -115.685
| 16> C 	 -2.31497 	 -21.1547 	 -117.851
| 17> H 	 -2.17078 	 -20.0793 	 -118.035
| 18> H 	 -1.45264 	 -21.5209 	 -118.53
| 19> C 	 -3.77876 	 -21.4446 	 -118.282
| 20> H 	 -4.42492 	 -21.1675 	 -117.543
| 21> H 	 -3.98727 	 -20.9058 	 -119.148
| 22> H 	 -3.92627 	 -22.4936 	 -118.442
| 23> S 	 -1.89166 	 -27.9881 	 -115.027
| 24> C 	 -3.2508 	 -28.8991 	 -114.481
| 25> C 	 -4.42114 	 -28.2427 	 -114.634
| 26> C 	 -4.2156 	 -26.8958 	 -115.083
| 27> C 	 -2.85542 	 -26.5985 	 -115.371
| 28> H 	 -5.36319 	 -28.6807 	 -114.342
| 29> C 	 -5.33163 	 -25.9674 	 -115.407
| 30> H 	 -5.05897 	 -25.5424 	 -116.335
| 31> H 	 -5.29648 	 -25.1458 	 -114.726
| 32> C 	 -6.80607 	 -26.3834 	 -115.213
| 33> H 	 -7.35563 	 -25.4123 	 -115.217
| 34> H 	 -6.90015 	 -26.7322 	 -114.24
| 35> C 	 -7.3679 	 -27.3636 	 -116.239
| 36> H 	 -6.88796 	 -28.3031 	 -116.264
| 37> H 	 -7.42457 	 -26.9459 	 -117.241
| 38> H 	 -8.47096 	 -27.6707 	 -116.001
| 39> H 	 0.394758 	 -23.0553 	 -116.655
| 40> H 	 -3.13873 	 -29.9548 	 -114.105
| 41> *
| 42>
| 43>                          ****END OF INPUT****

CARTESIAN COORDINATES (ANGSTROEM)
---------------------------------
  S     -0.443652  -25.342100  -116.070000
  C     -0.441397  -23.661800  -116.437000
  C     -1.698940  -23.105400  -116.283000
  C     -2.729530  -24.074700  -115.982000
  C     -2.167110  -25.344700  -115.772000
  H     -3.740270  -23.907900  -115.765000
  C     -1.925090  -21.636000  -116.412000
  H     -0.897399  -21.252100  -116.217000
  H     -2.570200  -21.235600  -115.685000
  C     -2.314970  -21.154700  -117.851000
  H     -2.170780  -20.079300  -118.035000
  H     -1.452640  -21.520900  -118.530000
  C     -3.778760  -21.444600  -118.282000
  H     -4.424920  -21.167500  -117.543000
  H     -3.987270  -20.905800  -119.148000
  H     -3.926270  -22.493600  -118.442000
  S     -1.891660  -27.988100  -115.027000
  C     -3.250800  -28.899100  -114.481000
  C     -4.421140  -28.242700  -114.634000
  C     -4.215600  -26.895800  -115.083000
  C     -2.855420  -26.598500  -115.371000
  H     -5.363190  -28.680700  -114.342000
  C     -5.331630  -25.967400  -115.407000
  H     -5.058970  -25.542400  -116.335000
  H     -5.296480  -25.145800  -114.726000
  C     -6.806070  -26.383400  -115.213000
  H     -7.355630  -25.412300  -115.217000
  H     -6.900150  -26.732200  -114.240000
  C     -7.367900  -27.363600  -116.239000
  H     -6.887960  -28.303100  -116.264000
  H     -7.424570  -26.945900  -117.241000
  H     -8.470960  -27.670700  -116.001000
  H      0.394758  -23.055300  -116.655000
  H     -3.138730  -29.954800  -114.105000

 Total Charge           Charge          ....    0
 Multiplicity           Mult            ....    1
 Number of Electrons    NEL             ....  134
 Basis Dimension        Dim             ....  322

ORBITAL ENERGIES
----------------

  NO   OCC          E(Eh)            E(eV)
   0   2.0000     -88.968439     -2420.9543
   1   2.0000     -88.964739     -2420.8536
   2   2.0000     -10.336773      -281.2779
   3   2.0000     -10.328653      -281.0569
   4   2.0000     -10.317506      -280.7536
   5   2.0000     -10.308167      -280.4995
   6   2.0000     -10.305402      -280.4243
   7   2.0000     -10.300204      -280.2828
   8   2.0000     -10.294069      -280.1159
   9   2.0000     -10.293589      -280.1028
  10   2.0000     -10.292638      -280.0769
  11   2.0000     -10.290495      -280.0186
  12   2.0000     -10.289808      -279.9999
  13   2.0000     -10.284831      -279.8645
  14   2.0000     -10.282050      -279.7888
  15   2.0000     -10.265339      -279.3341
  16   2.0000      -8.083473      -219.9625
  17   2.0000      -8.080489      -219.8813
  18   2.0000      -6.042058      -164.4128
  19   2.0000      -6.038984      -164.3291
  20   2.0000      -6.037965      -164.3014
  21   2.0000      -6.034813      -164.2156
  22   2.0000      -6.034137      -164.1972
  23   2.0000      -6.031272      -164.1192
  24   2.0000      -1.009870       -27.4800
  25   2.0000      -0.988351       -26.8944
  26   2.0000      -0.915863       -24.9219
  27   2.0000      -0.908278       -24.7155
  28   2.0000      -0.869857       -23.6700
  29   2.0000      -0.854179       -23.2434
  30   2.0000      -0.844904       -22.9910
  31   2.0000      -0.822731       -22.3876
  32   2.0000      -0.789156       -21.4740
  33   2.0000      -0.774312       -21.0701
  34   2.0000      -0.714403       -19.4399
  35   2.0000      -0.701779       -19.0964
  36   2.0000      -0.696680       -18.9576
  37   2.0000      -0.658710       -17.9244
  38   2.0000      -0.640856       -17.4386
  39   2.0000      -0.620703       -16.8902
  40   2.0000      -0.598531       -16.2868
  41   2.0000      -0.574783       -15.6406
  42   2.0000      -0.556151       -15.1336
  43   2.0000      -0.549749       -14.9594
  44   2.0000      -0.542603       -14.7650
  45   2.0000      -0.536258       -14.5923
  46   2.0000      -0.520868       -14.1735
  47   2.0000      -0.514064       -13.9884
  48   2.0000      -0.504701       -13.7336
  49   2.0000      -0.499354       -13.5881
  50   2.0000      -0.495782       -13.4909
  51   2.0000      -0.486581       -13.2406
  52   2.0000      -0.473915       -12.8959
  53   2.0000      -0.472774       -12.8648
  54   2.0000      -0.464959       -12.6522
  55   2.0000      -0.452533       -12.3140
  56   2.0000      -0.446531       -12.1507
  57   2.0000      -0.443775       -12.0757
  58   2.0000      -0.433667       -11.8007
  59   2.0000      -0.428162       -11.6509
  60   2.0000      -0.419921       -11.4266
  61   2.0000      -0.411585       -11.1998
  62   2.0000      -0.405612       -11.0373
  63   2.0000      -0.364380        -9.9153
  64   2.0000      -0.335326        -9.1247
  65   2.0000      -0.325338        -8.8529
  66   2.0000      -0.279261        -7.5991
  67   0.0000       0.020524         0.5585
  68   0.0000       0.090897         2.4734
  69   0.0000       0.101087         2.7507
  70   0.0000       0.119522         3.2524
  71   0.0000       0.135953         3.6995

MULLIKEN ATOMIC CHARGES
-----------------------
   0 S :    0.108798
   1 C :   -0.088679
   2 C :   -0.092318
   3 C :    0.012717
   4 C :   -0.111355
   5 H :   -0.020189
   6 C :    0.076932
   7 H :    0.017682
   8 H :    0.020203
   9 C :   -0.120729
  10 H :    0.026383
  11 H :    0.028400
  12 C :    0.028214
  13 H :    0.005312
  14 H :    0.022437
  15 H :    0.031533
  16 S :    0.097207
  17 C :   -0.101851
  18 C :   -0.022561
  19 C :   -0.075033
  20 C :   -0.121376
  21 H :    0.018425
  22 C :    0.024069
  23 H :    0.031251
  24 H :    0.033644
  25 C :   -0.020166
  26 H :    0.031950
  27 H :    0.011803
  28 C :   -0.057275
  29 H :    0.027965
  30 H :    0.036498
  31 H :    0.034907
  32 H :    0.030380
  33 H :    0.074821
Sum of atomic charges:   -0.0000000

LOEWDIN ATOMIC CHARGES
----------------------
   0 S :    0.415426
   1 C :   -0.205085
   2 C :   -0.056348
   3 C :   -0.069149
   4 C :   -0.177316
   5 H :    0.019023
   6 C :   -0.031293
   7 H :    0.036859
   8 H :    0.020933
   9 C :   -0.045547
  10 H :    0.021461
  11 H :    0.030132
  12 C :   -0.050581
  13 H :    0.013463
  14 H :    0.021848
  15 H :    0.025266
  16 S :    0.420568
  17 C :   -0.195099
  18 C :   -0.078877
  19 C :   -0.051306
  20 C :   -0.209409
  21 H :    0.032864
  22 C :   -0.037786
  23 H :    0.027035
  24 H :    0.033117
  25 C :   -0.032938
  26 H :    0.035129
  27 H :    0.015697
  28 C :   -0.070698
  29 H :    0.016999
  30 H :    0.026710
  31 H :    0.035733
  32 H :    0.021936
  33 H :    0.041234

  Mayer bond orders larger than 0.100000
B(  0-S ,  1-C ) :   1.1325 B(  0-S ,  4-C ) :   1.1581 B(  1-C ,  2-C ) :   1.6191
B(  1-C , 32-H ) :   0.9662 B(  2-C ,  3-C ) :   1.2239 B(  2-C ,  6-C ) :   1.0326
B(  3-C ,  4-C ) :   1.5514 B(  3-C ,  5-H ) :   0.9934 B(  4-C , 20-C ) :   1.0816
B(  6-C ,  7-H ) :   0.9335 B(  6-C ,  8-H ) :   0.9457 B(  6-C ,  9-C ) :   1.0699
B(  9-C , 10-H ) :   0.9603 B(  9-C , 11-H ) :   0.9544 B(  9-C , 12-C ) :   1.0667
B( 12-C , 13-H ) :   0.9715 B( 12-C , 14-H ) :   0.9733 B( 12-C , 15-H ) :   0.9752
B( 16-S , 17-C ) :   1.1730 B( 16-S , 20-C ) :   1.1425 B( 17-C , 18-C ) :   1.5888
B( 17-C , 33-H ) :   0.9561 B( 18-C , 19-C ) :   1.2741 B( 18-C , 21-H ) :   0.9866
B( 19-C , 20-C ) :   1.5488 B( 19-C , 22-C ) :   1.0451 B( 22-C , 23-H ) :   0.9335
B( 22-C , 24-H ) :   0.9101 B( 22-C , 25-C ) :   1.0740 B( 25-C , 26-H ) :   0.9530
B( 25-C , 27-H ) :   0.9455 B( 25-C , 28-C ) :   1.0800 B( 28-C , 29-H ) :   0.9762
B( 28-C , 30-H ) :   0.9742 B( 28-C , 31-H ) :   0.9722

Dispersion correction           -0.014047826
FINAL SINGLE POINT ENERGY     -1339.869836425050

DIPOLE MOMENT
-------------
                                X             Y             Z
Electronic contribution:     22.98236     -16.24521       8.14151
Nuclear contribution   :    -23.58095      16.59429      -8.06810
                        -----------------------------------------
Total Dipole Moment    :     -0.59859       0.34907       0.07341
                        -----------------------------------------
Magnitude (a.u.)       :      0.69681
Magnitude (Debye)      :      1.77116

Rotational constants in cm-1:     0.018226     0.009042     0.006293
Rotational constants in MHz :   546.395005   271.085311   188.648713

                             ****ORCA TERMINATED NORMALLY****
TOTAL RUN TIME: 0 days 0 hours 0 minutes 21 seconds 711 msec
