                         Program Version 4.2.1 -  RELEASE  -
|  1> ! wB97X-D3 SP def2-SVP
|  2> %pal
|  3> nprocs 24
|  4> end
|  5>
|  6> * xyz 0 1
|  7> S 	 -43.9399 	 15.3611 	 -102.226
|  8> C 	 -45.2584 	 16.2804 	 -101.55
|  9> C 	 -45.868 	 17.0841 	 -102.507
| 10> C 	 -45.2019 	 17.0405 	 -103.798
| 11> C 	 -44.2017 	 16.1144 	 -103.767
| 12> H 	 -45.3562 	 17.6588 	 -104.656
| 13> C 	 -46.9712 	 18.1382 	 -102.237
| 14> H 	 -47.3108 	 18.083 	 -101.235
| 15> H 	 -47.8135 	 17.7448 	 -102.771
| 16> C 	 -46.5721 	 19.5735 	 -102.62
| 17> H 	 -46.4951 	 19.7007 	 -103.727
| 18> H 	 -47.3205 	 20.3166 	 -102.285
| 19> C 	 -45.2716 	 20.0175 	 -101.942
| 20> H 	 -45.2879 	 19.8528 	 -100.878
| 21> H 	 -44.4922 	 19.3739 	 -102.411
| 22> H 	 -44.919 	 21.0149 	 -102.115
| 23> S 	 -41.5707 	 15.5435 	 -104.141
| 24> C 	 -40.8607 	 15.3865 	 -105.662
| 25> C 	 -41.7109 	 15.7251 	 -106.686
| 26> C 	 -43.0345 	 15.8649 	 -106.153
| 27> C 	 -43.1568 	 15.8306 	 -104.759
| 28> H 	 -41.4362 	 15.728 	 -107.695
| 29> C 	 -44.2263 	 15.945 	 -107.023
| 30> H 	 -43.963 	 16.5947 	 -107.882
| 31> H 	 -44.9332 	 16.576 	 -106.473
| 32> C 	 -44.8645 	 14.5893 	 -107.565
| 33> H 	 -44.1641 	 13.9419 	 -108.002
| 34> H 	 -45.613 	 14.6899 	 -108.265
| 35> C 	 -45.4907 	 13.8128 	 -106.372
| 36> H 	 -45.8286 	 12.7774 	 -106.557
| 37> H 	 -46.3276 	 14.2979 	 -105.987
| 38> H 	 -44.7038 	 13.6804 	 -105.663
| 39> H 	 -45.7997 	 16.1999 	 -100.549
| 40> H 	 -39.84 	 15.0787 	 -105.794
| 41> *
| 42>
| 43>                          ****END OF INPUT****

CARTESIAN COORDINATES (ANGSTROEM)
---------------------------------
  S    -43.939900   15.361100  -102.226000
  C    -45.258400   16.280400  -101.550000
  C    -45.868000   17.084100  -102.507000
  C    -45.201900   17.040500  -103.798000
  C    -44.201700   16.114400  -103.767000
  H    -45.356200   17.658800  -104.656000
  C    -46.971200   18.138200  -102.237000
  H    -47.310800   18.083000  -101.235000
  H    -47.813500   17.744800  -102.771000
  C    -46.572100   19.573500  -102.620000
  H    -46.495100   19.700700  -103.727000
  H    -47.320500   20.316600  -102.285000
  C    -45.271600   20.017500  -101.942000
  H    -45.287900   19.852800  -100.878000
  H    -44.492200   19.373900  -102.411000
  H    -44.919000   21.014900  -102.115000
  S    -41.570700   15.543500  -104.141000
  C    -40.860700   15.386500  -105.662000
  C    -41.710900   15.725100  -106.686000
  C    -43.034500   15.864900  -106.153000
  C    -43.156800   15.830600  -104.759000
  H    -41.436200   15.728000  -107.695000
  C    -44.226300   15.945000  -107.023000
  H    -43.963000   16.594700  -107.882000
  H    -44.933200   16.576000  -106.473000
  C    -44.864500   14.589300  -107.565000
  H    -44.164100   13.941900  -108.002000
  H    -45.613000   14.689900  -108.265000
  C    -45.490700   13.812800  -106.372000
  H    -45.828600   12.777400  -106.557000
  H    -46.327600   14.297900  -105.987000
  H    -44.703800   13.680400  -105.663000
  H    -45.799700   16.199900  -100.549000
  H    -39.840000   15.078700  -105.794000

 Total Charge           Charge          ....    0
 Multiplicity           Mult            ....    1
 Number of Electrons    NEL             ....  134
 Basis Dimension        Dim             ....  322

ORBITAL ENERGIES
----------------

  NO   OCC          E(Eh)            E(eV)
   0   2.0000     -88.969704     -2420.9887
   1   2.0000     -88.962338     -2420.7883
   2   2.0000     -10.332137      -281.1517
   3   2.0000     -10.324104      -280.9332
   4   2.0000     -10.317356      -280.7495
   5   2.0000     -10.312160      -280.6081
   6   2.0000     -10.305488      -280.4266
   7   2.0000     -10.300631      -280.2944
   8   2.0000     -10.295494      -280.1546
   9   2.0000     -10.293223      -280.0928
  10   2.0000     -10.291165      -280.0368
  11   2.0000     -10.290994      -280.0322
  12   2.0000     -10.290671      -280.0234
  13   2.0000     -10.278790      -279.7001
  14   2.0000     -10.270989      -279.4878
  15   2.0000     -10.261081      -279.2182
  16   2.0000      -8.084634      -219.9941
  17   2.0000      -8.078912      -219.8384
  18   2.0000      -6.043256      -164.4454
  19   2.0000      -6.039167      -164.3341
  20   2.0000      -6.037246      -164.2818
  21   2.0000      -6.035190      -164.2259
  22   2.0000      -6.032992      -164.1660
  23   2.0000      -6.029895      -164.0818
  24   2.0000      -1.016616       -27.6635
  25   2.0000      -0.990072       -26.9412
  26   2.0000      -0.911704       -24.8087
  27   2.0000      -0.905175       -24.6311
  28   2.0000      -0.870388       -23.6845
  29   2.0000      -0.852746       -23.2044
  30   2.0000      -0.843576       -22.9549
  31   2.0000      -0.818842       -22.2818
  32   2.0000      -0.783589       -21.3225
  33   2.0000      -0.769185       -20.9306
  34   2.0000      -0.712414       -19.3858
  35   2.0000      -0.701041       -19.0763
  36   2.0000      -0.690512       -18.7898
  37   2.0000      -0.665588       -18.1116
  38   2.0000      -0.637569       -17.3491
  39   2.0000      -0.627360       -17.0713
  40   2.0000      -0.594902       -16.1881
  41   2.0000      -0.568700       -15.4751
  42   2.0000      -0.556233       -15.1359
  43   2.0000      -0.554039       -15.0762
  44   2.0000      -0.542052       -14.7500
  45   2.0000      -0.537284       -14.6202
  46   2.0000      -0.517280       -14.0759
  47   2.0000      -0.510087       -13.8802
  48   2.0000      -0.503794       -13.7089
  49   2.0000      -0.494645       -13.4600
  50   2.0000      -0.489525       -13.3207
  51   2.0000      -0.477478       -12.9928
  52   2.0000      -0.468778       -12.7561
  53   2.0000      -0.465309       -12.6617
  54   2.0000      -0.461183       -12.5494
  55   2.0000      -0.452047       -12.3008
  56   2.0000      -0.446228       -12.1425
  57   2.0000      -0.436160       -11.8685
  58   2.0000      -0.430160       -11.7053
  59   2.0000      -0.428240       -11.6530
  60   2.0000      -0.422200       -11.4886
  61   2.0000      -0.409678       -11.1479
  62   2.0000      -0.405851       -11.0438
  63   2.0000      -0.358727        -9.7615
  64   2.0000      -0.333838        -9.0842
  65   2.0000      -0.327168        -8.9027
  66   2.0000      -0.286815        -7.8046
  67   0.0000       0.026661         0.7255
  68   0.0000       0.082281         2.2390
  69   0.0000       0.105095         2.8598
  70   0.0000       0.114359         3.1119
  71   0.0000       0.139639         3.7998

MULLIKEN ATOMIC CHARGES
-----------------------
   0 S :    0.109755
   1 C :   -0.122766
   2 C :   -0.147483
   3 C :    0.009046
   4 C :   -0.105789
   5 H :    0.023286
   6 C :    0.128420
   7 H :   -0.000015
   8 H :    0.029186
   9 C :   -0.106618
  10 H :    0.036980
  11 H :    0.036425
  12 C :   -0.045850
  13 H :    0.029129
  14 H :    0.040691
  15 H :    0.029601
  16 S :    0.099672
  17 C :   -0.082306
  18 C :    0.012559
  19 C :   -0.109274
  20 C :   -0.117117
  21 H :   -0.000974
  22 C :    0.048045
  23 H :    0.020229
  24 H :    0.000423
  25 C :    0.019343
  26 H :    0.012015
  27 H :    0.011270
  28 C :   -0.058742
  29 H :    0.023263
  30 H :    0.019686
  31 H :    0.034358
  32 H :    0.068903
  33 H :    0.054647
Sum of atomic charges:   -0.0000000

LOEWDIN ATOMIC CHARGES
----------------------
   0 S :    0.413197
   1 C :   -0.223882
   2 C :   -0.055821
   3 C :   -0.065740
   4 C :   -0.179241
   5 H :    0.029649
   6 C :   -0.027041
   7 H :    0.022461
   8 H :    0.032259
   9 C :   -0.045111
  10 H :    0.025264
  11 H :    0.027566
  12 C :   -0.066836
  13 H :    0.022816
  14 H :    0.031939
  15 H :    0.021948
  16 S :    0.437676
  17 C :   -0.194619
  18 C :   -0.063296
  19 C :   -0.065027
  20 C :   -0.213812
  21 H :    0.025047
  22 C :   -0.035979
  23 H :    0.031751
  24 H :    0.026330
  25 C :   -0.018872
  26 H :    0.018216
  27 H :    0.012950
  28 C :   -0.060596
  29 H :    0.025735
  30 H :    0.014122
  31 H :    0.022666
  32 H :    0.047170
  33 H :    0.027115

  Mayer bond orders larger than 0.100000
B(  0-S ,  1-C ) :   1.1138 B(  0-S ,  4-C ) :   1.1528 B(  1-C ,  2-C ) :   1.6596
B(  1-C , 32-H ) :   0.9503 B(  2-C ,  3-C ) :   1.1982 B(  2-C ,  6-C ) :   1.0138
B(  3-C ,  4-C ) :   1.6060 B(  3-C ,  5-H ) :   0.9857 B(  4-C , 20-C ) :   1.0284
B(  6-C ,  7-H ) :   0.9396 B(  6-C ,  8-H ) :   0.9348 B(  6-C ,  9-C ) :   1.0664
B(  9-C , 10-H ) :   0.9549 B(  9-C , 11-H ) :   0.9570 B(  9-C , 12-C ) :   1.0728
B( 12-C , 13-H ) :   0.9762 B( 12-C , 14-H ) :   0.9699 B( 12-C , 15-H ) :   0.9750
B( 16-S , 17-C ) :   1.1935 B( 16-S , 20-C ) :   1.1410 B( 17-C , 18-C ) :   1.5572
B( 17-C , 33-H ) :   0.9690 B( 18-C , 19-C ) :   1.2658 B( 18-C , 21-H ) :   1.0077
B( 19-C , 20-C ) :   1.5694 B( 19-C , 22-C ) :   1.0626 B( 22-C , 23-H ) :   0.9269
B( 22-C , 24-H ) :   0.9377 B( 22-C , 25-C ) :   1.0525 B( 25-C , 26-H ) :   0.9582
B( 25-C , 27-H ) :   0.9589 B( 25-C , 28-C ) :   1.0735 B( 28-C , 29-H ) :   0.9730
B( 28-C , 30-H ) :   0.9790 B( 28-C , 31-H ) :   0.9783

Dispersion correction           -0.015636422
FINAL SINGLE POINT ENERGY     -1339.868908261197

DIPOLE MOMENT
-------------
                                X             Y             Z
Electronic contribution:     16.81647      -9.46508       7.40919
Nuclear contribution   :    -17.10045       9.74294      -7.73202
                        -----------------------------------------
Total Dipole Moment    :     -0.28397       0.27786      -0.32283
                        -----------------------------------------
Magnitude (a.u.)       :      0.51193
Magnitude (Debye)      :      1.30121

Rotational constants in cm-1:     0.020242     0.009106     0.008105
Rotational constants in MHz :   606.825702   272.992915   242.967642

                             ****ORCA TERMINATED NORMALLY****
TOTAL RUN TIME: 0 days 0 hours 0 minutes 22 seconds 691 msec
