                         Program Version 4.2.1 -  RELEASE  -
|  1> ! wB97X-D3 SP def2-SVP
|  2> %pal
|  3> nprocs 24
|  4> end
|  5>
|  6> * xyz 0 1
|  7> S 	 -112.847 	 20.2924 	 -116.672
|  8> C 	 -112.513 	 19.0878 	 -115.535
|  9> C 	 -112.439 	 19.5473 	 -114.212
| 10> C 	 -112.531 	 20.9504 	 -114.183
| 11> C 	 -112.905 	 21.5117 	 -115.381
| 12> H 	 -112.327 	 21.5505 	 -113.344
| 13> C 	 -112.179 	 18.6692 	 -113
| 14> H 	 -111.226 	 18.0719 	 -113.218
| 15> H 	 -112.992 	 17.9843 	 -112.865
| 16> C 	 -112.061 	 19.3788 	 -111.695
| 17> H 	 -111.395 	 20.2332 	 -111.706
| 18> H 	 -112.977 	 19.8438 	 -111.436
| 19> C 	 -111.593 	 18.3646 	 -110.636
| 20> H 	 -110.529 	 18.0795 	 -110.7
| 21> H 	 -111.825 	 18.6588 	 -109.562
| 22> H 	 -112.189 	 17.4505 	 -110.599
| 23> S 	 -114.733 	 23.5589 	 -115.888
| 24> C 	 -114.14 	 25.073 	 -116.219
| 25> C 	 -112.775 	 25.1974 	 -116.218
| 26> C 	 -112.121 	 23.9876 	 -115.836
| 27> C 	 -113.082 	 22.9388 	 -115.673
| 28> H 	 -112.392 	 26.1757 	 -116.5
| 29> C 	 -110.616 	 23.8734 	 -115.589
| 30> H 	 -110.159 	 23.9325 	 -116.553
| 31> H 	 -110.429 	 22.8549 	 -115.273
| 32> C 	 -109.9 	 24.7803 	 -114.571
| 33> H 	 -110.222 	 24.1893 	 -113.664
| 34> H 	 -110.312 	 25.756 	 -114.554
| 35> C 	 -108.33 	 24.6418 	 -114.576
| 36> H 	 -108.115 	 23.5404 	 -114.546
| 37> H 	 -107.831 	 25.1931 	 -113.816
| 38> H 	 -108.002 	 25.0769 	 -115.522
| 39> H 	 -112.627 	 18.0224 	 -115.692
| 40> H 	 -114.804 	 25.9083 	 -116.511
| 41> *
| 42>
| 43>                          ****END OF INPUT****

CARTESIAN COORDINATES (ANGSTROEM)
---------------------------------
  S    -112.847000   20.292400  -116.672000
  C    -112.513000   19.087800  -115.535000
  C    -112.439000   19.547300  -114.212000
  C    -112.531000   20.950400  -114.183000
  C    -112.905000   21.511700  -115.381000
  H    -112.327000   21.550500  -113.344000
  C    -112.179000   18.669200  -113.000000
  H    -111.226000   18.071900  -113.218000
  H    -112.992000   17.984300  -112.865000
  C    -112.061000   19.378800  -111.695000
  H    -111.395000   20.233200  -111.706000
  H    -112.977000   19.843800  -111.436000
  C    -111.593000   18.364600  -110.636000
  H    -110.529000   18.079500  -110.700000
  H    -111.825000   18.658800  -109.562000
  H    -112.189000   17.450500  -110.599000
  S    -114.733000   23.558900  -115.888000
  C    -114.140000   25.073000  -116.219000
  C    -112.775000   25.197400  -116.218000
  C    -112.121000   23.987600  -115.836000
  C    -113.082000   22.938800  -115.673000
  H    -112.392000   26.175700  -116.500000
  C    -110.616000   23.873400  -115.589000
  H    -110.159000   23.932500  -116.553000
  H    -110.429000   22.854900  -115.273000
  C    -109.900000   24.780300  -114.571000
  H    -110.222000   24.189300  -113.664000
  H    -110.312000   25.756000  -114.554000
  C    -108.330000   24.641800  -114.576000
  H    -108.115000   23.540400  -114.546000
  H    -107.831000   25.193100  -113.816000
  H    -108.002000   25.076900  -115.522000
  H    -112.627000   18.022400  -115.692000
  H    -114.804000   25.908300  -116.511000

 Total Charge           Charge          ....    0
 Multiplicity           Mult            ....    1
 Number of Electrons    NEL             ....  134
 Basis Dimension        Dim             ....  322

ORBITAL ENERGIES
----------------

  NO   OCC          E(Eh)            E(eV)
   0   2.0000     -88.966049     -2420.8893
   1   2.0000     -88.964788     -2420.8550
   2   2.0000     -10.325977      -280.9841
   3   2.0000     -10.324337      -280.9395
   4   2.0000     -10.311029      -280.5774
   5   2.0000     -10.309563      -280.5375
   6   2.0000     -10.306985      -280.4673
   7   2.0000     -10.295897      -280.1656
   8   2.0000     -10.293416      -280.0981
   9   2.0000     -10.289335      -279.9870
  10   2.0000     -10.289203      -279.9835
  11   2.0000     -10.287635      -279.9408
  12   2.0000     -10.286603      -279.9127
  13   2.0000     -10.285387      -279.8796
  14   2.0000     -10.284912      -279.8667
  15   2.0000     -10.283900      -279.8391
  16   2.0000      -8.081270      -219.9025
  17   2.0000      -8.080924      -219.8931
  18   2.0000      -6.039628      -164.3466
  19   2.0000      -6.039031      -164.3304
  20   2.0000      -6.035634      -164.2380
  21   2.0000      -6.035236      -164.2271
  22   2.0000      -6.032248      -164.1458
  23   2.0000      -6.032029      -164.1399
  24   2.0000      -1.006162       -27.3791
  25   2.0000      -0.988710       -26.9042
  26   2.0000      -0.918332       -24.9891
  27   2.0000      -0.906678       -24.6720
  28   2.0000      -0.865995       -23.5649
  29   2.0000      -0.851316       -23.1655
  30   2.0000      -0.850048       -23.1310
  31   2.0000      -0.811373       -22.0786
  32   2.0000      -0.783927       -21.3317
  33   2.0000      -0.767130       -20.8747
  34   2.0000      -0.714876       -19.4528
  35   2.0000      -0.699557       -19.0359
  36   2.0000      -0.686061       -18.6687
  37   2.0000      -0.647539       -17.6204
  38   2.0000      -0.641713       -17.4619
  39   2.0000      -0.625772       -17.0281
  40   2.0000      -0.600086       -16.3292
  41   2.0000      -0.576153       -15.6779
  42   2.0000      -0.567908       -15.4536
  43   2.0000      -0.562714       -15.3122
  44   2.0000      -0.525391       -14.2966
  45   2.0000      -0.518287       -14.1033
  46   2.0000      -0.514411       -13.9978
  47   2.0000      -0.503928       -13.7126
  48   2.0000      -0.502171       -13.6648
  49   2.0000      -0.498049       -13.5526
  50   2.0000      -0.489741       -13.3265
  51   2.0000      -0.472898       -12.8682
  52   2.0000      -0.470438       -12.8013
  53   2.0000      -0.468136       -12.7386
  54   2.0000      -0.459610       -12.5066
  55   2.0000      -0.455794       -12.4028
  56   2.0000      -0.451016       -12.2728
  57   2.0000      -0.437119       -11.8946
  58   2.0000      -0.431050       -11.7295
  59   2.0000      -0.429825       -11.6961
  60   2.0000      -0.425856       -11.5881
  61   2.0000      -0.419068       -11.4034
  62   2.0000      -0.406024       -11.0485
  63   2.0000      -0.338836        -9.2202
  64   2.0000      -0.330207        -8.9854
  65   2.0000      -0.316867        -8.6224
  66   2.0000      -0.301722        -8.2103
  67   0.0000       0.042987         1.1697
  68   0.0000       0.056737         1.5439
  69   0.0000       0.114501         3.1157
  70   0.0000       0.127195         3.4612
  71   0.0000       0.135585         3.6895

MULLIKEN ATOMIC CHARGES
-----------------------
   0 S :    0.135028
   1 C :   -0.108685
   2 C :   -0.107666
   3 C :    0.045883
   4 C :   -0.166362
   5 H :   -0.006625
   6 C :    0.053086
   7 H :    0.049855
   8 H :    0.031022
   9 C :   -0.056740
  10 H :    0.027318
  11 H :    0.020297
  12 C :   -0.065774
  13 H :    0.046611
  14 H :    0.029657
  15 H :    0.020589
  16 S :    0.133689
  17 C :   -0.104198
  18 C :   -0.051766
  19 C :    0.002128
  20 C :   -0.216129
  21 H :    0.016883
  22 C :    0.082705
  23 H :    0.020002
  24 H :    0.013324
  25 C :   -0.087229
  26 H :    0.031069
  27 H :    0.031285
  28 C :   -0.038536
  29 H :    0.042182
  30 H :    0.038943
  31 H :    0.029111
  32 H :    0.044767
  33 H :    0.064280
Sum of atomic charges:   -0.0000000

LOEWDIN ATOMIC CHARGES
----------------------
   0 S :    0.429887
   1 C :   -0.218115
   2 C :   -0.068709
   3 C :   -0.053224
   4 C :   -0.200432
   5 H :    0.024322
   6 C :   -0.034321
   7 H :    0.042846
   8 H :    0.031383
   9 C :   -0.043452
  10 H :    0.021998
  11 H :    0.022127
  12 C :   -0.072467
  13 H :    0.029106
  14 H :    0.031922
  15 H :    0.023905
  16 S :    0.440497
  17 C :   -0.214647
  18 C :   -0.085436
  19 C :   -0.037020
  20 C :   -0.211692
  21 H :    0.033081
  22 C :   -0.034637
  23 H :    0.024937
  24 H :    0.027620
  25 C :   -0.038871
  26 H :    0.031586
  27 H :    0.014604
  28 C :   -0.058753
  29 H :    0.034467
  30 H :    0.023050
  31 H :    0.023301
  32 H :    0.027153
  33 H :    0.033983

  Mayer bond orders larger than 0.100000
B(  0-S ,  1-C ) :   1.1735 B(  0-S ,  4-C ) :   1.1572 B(  1-C ,  2-C ) :   1.5927
B(  1-C ,  4-C ) :   0.1055 B(  1-C , 32-H ) :   0.9630 B(  2-C ,  3-C ) :   1.2837
B(  2-C ,  6-C ) :   0.9976 B(  3-C ,  4-C ) :   1.5538 B(  3-C ,  5-H ) :   1.0001
B(  4-C , 20-C ) :   1.0209 B(  6-C ,  7-H ) :   0.9458 B(  6-C ,  8-H ) :   0.9289
B(  6-C ,  9-C ) :   1.0953 B(  9-C , 10-H ) :   0.9471 B(  9-C , 11-H ) :   0.9455
B(  9-C , 12-C ) :   1.0795 B( 12-C , 13-H ) :   0.9767 B( 12-C , 14-H ) :   0.9716
B( 12-C , 15-H ) :   0.9710 B( 16-S , 17-C ) :   1.1937 B( 16-S , 20-C ) :   1.1609
B( 17-C , 18-C ) :   1.5982 B( 17-C , 33-H ) :   0.9573 B( 18-C , 19-C ) :   1.2413
B( 18-C , 21-H ) :   0.9939 B( 19-C , 20-C ) :   1.5658 B( 19-C , 22-C ) :   1.0418
B( 22-C , 23-H ) :   0.9281 B( 22-C , 24-H ) :   0.9351 B( 22-C , 25-C ) :   1.0368
B( 25-C , 26-H ) :   0.9631 B( 25-C , 27-H ) :   0.9666 B( 25-C , 28-C ) :   1.0667
B( 28-C , 29-H ) :   0.9749 B( 28-C , 30-H ) :   0.9770 B( 28-C , 31-H ) :   0.9781

Dispersion correction           -0.013687641
FINAL SINGLE POINT ENERGY     -1339.869712777463

DIPOLE MOMENT
-------------
                                X             Y             Z
Electronic contribution:    -20.46226       2.75553     -20.64217
Nuclear contribution   :     20.77887      -2.70437      21.03832
                        -----------------------------------------
Total Dipole Moment    :      0.31661       0.05115       0.39616
                        -----------------------------------------
Magnitude (a.u.)       :      0.50970
Magnitude (Debye)      :      1.29556

Rotational constants in cm-1:     0.015807     0.008452     0.006719
Rotational constants in MHz :   473.872070   253.372886   201.437078

                             ****ORCA TERMINATED NORMALLY****
TOTAL RUN TIME: 0 days 0 hours 0 minutes 21 seconds 148 msec
