                         Program Version 4.2.1 -  RELEASE  -
|  1> ! wB97X-D3 SP def2-SVP
|  2> %pal
|  3> nprocs 24
|  4> end
|  5>
|  6> * xyz 0 1
|  7> S 	 -89.643 	 -49.901 	 -75.5959
|  8> C 	 -88.6606 	 -48.5391 	 -74.9357
|  9> C 	 -87.6588 	 -48.2602 	 -75.8649
| 10> C 	 -87.8955 	 -48.8888 	 -77.1406
| 11> C 	 -88.9023 	 -49.8782 	 -77.1473
| 12> H 	 -87.2562 	 -48.8392 	 -78.0043
| 13> C 	 -86.3133 	 -47.4529 	 -75.5555
| 14> H 	 -85.5005 	 -48.1098 	 -75.9122
| 15> H 	 -86.327 	 -47.3426 	 -74.4078
| 16> C 	 -86.2268 	 -46.1707 	 -76.3517
| 17> H 	 -85.2873 	 -45.7227 	 -76.4276
| 18> H 	 -86.3965 	 -46.3366 	 -77.3912
| 19> C 	 -87.2051 	 -45.0237 	 -75.9088
| 20> H 	 -87.2412 	 -44.8224 	 -74.82
| 21> H 	 -87.0905 	 -44.142 	 -76.4772
| 22> H 	 -88.2765 	 -45.1682 	 -76.112
| 23> S 	 -89.3072 	 -52.3988 	 -78.1807
| 24> C 	 -89.9014 	 -52.5219 	 -79.8229
| 25> C 	 -90.1862 	 -51.2975 	 -80.4214
| 26> C 	 -89.9379 	 -50.2117 	 -79.485
| 27> C 	 -89.2825 	 -50.6437 	 -78.3216
| 28> H 	 -90.4414 	 -51.3025 	 -81.4762
| 29> C 	 -90.2971 	 -48.8151 	 -79.8992
| 30> H 	 -90.0456 	 -48.7855 	 -80.9033
| 31> H 	 -89.7545 	 -48.0355 	 -79.4896
| 32> C 	 -91.7731 	 -48.4758 	 -79.7979
| 33> H 	 -92.4406 	 -49.1208 	 -80.3166
| 34> H 	 -91.9857 	 -47.5365 	 -80.2235
| 35> C 	 -92.1862 	 -48.5021 	 -78.3357
| 36> H 	 -93.265 	 -48.229 	 -78.2829
| 37> H 	 -91.6423 	 -47.833 	 -77.7393
| 38> H 	 -92.0391 	 -49.5078 	 -77.8843
| 39> H 	 -88.5592 	 -48.2911 	 -73.8905
| 40> H 	 -89.8474 	 -53.4919 	 -80.2898
| 41> *
| 42>
| 43>                          ****END OF INPUT****

CARTESIAN COORDINATES (ANGSTROEM)
---------------------------------
  S    -89.643000  -49.901000  -75.595900
  C    -88.660600  -48.539100  -74.935700
  C    -87.658800  -48.260200  -75.864900
  C    -87.895500  -48.888800  -77.140600
  C    -88.902300  -49.878200  -77.147300
  H    -87.256200  -48.839200  -78.004300
  C    -86.313300  -47.452900  -75.555500
  H    -85.500500  -48.109800  -75.912200
  H    -86.327000  -47.342600  -74.407800
  C    -86.226800  -46.170700  -76.351700
  H    -85.287300  -45.722700  -76.427600
  H    -86.396500  -46.336600  -77.391200
  C    -87.205100  -45.023700  -75.908800
  H    -87.241200  -44.822400  -74.820000
  H    -87.090500  -44.142000  -76.477200
  H    -88.276500  -45.168200  -76.112000
  S    -89.307200  -52.398800  -78.180700
  C    -89.901400  -52.521900  -79.822900
  C    -90.186200  -51.297500  -80.421400
  C    -89.937900  -50.211700  -79.485000
  C    -89.282500  -50.643700  -78.321600
  H    -90.441400  -51.302500  -81.476200
  C    -90.297100  -48.815100  -79.899200
  H    -90.045600  -48.785500  -80.903300
  H    -89.754500  -48.035500  -79.489600
  C    -91.773100  -48.475800  -79.797900
  H    -92.440600  -49.120800  -80.316600
  H    -91.985700  -47.536500  -80.223500
  C    -92.186200  -48.502100  -78.335700
  H    -93.265000  -48.229000  -78.282900
  H    -91.642300  -47.833000  -77.739300
  H    -92.039100  -49.507800  -77.884300
  H    -88.559200  -48.291100  -73.890500
  H    -89.847400  -53.491900  -80.289800

 Total Charge           Charge          ....    0
 Multiplicity           Mult            ....    1
 Number of Electrons    NEL             ....  134
 Basis Dimension        Dim             ....  322

ORBITAL ENERGIES
----------------

  NO   OCC          E(Eh)            E(eV)
   0   2.0000     -88.966443     -2420.9000
   1   2.0000     -88.966101     -2420.8907
   2   2.0000     -10.330637      -281.1109
   3   2.0000     -10.329751      -281.0868
   4   2.0000     -10.321280      -280.8563
   5   2.0000     -10.317720      -280.7594
   6   2.0000     -10.312698      -280.6228
   7   2.0000     -10.309891      -280.5464
   8   2.0000     -10.309298      -280.5303
   9   2.0000     -10.301834      -280.3271
  10   2.0000     -10.293539      -280.1014
  11   2.0000     -10.284356      -279.8516
  12   2.0000     -10.276411      -279.6354
  13   2.0000     -10.274729      -279.5896
  14   2.0000     -10.272944      -279.5410
  15   2.0000     -10.263765      -279.2912
  16   2.0000      -8.081341      -219.9045
  17   2.0000      -8.080078      -219.8701
  18   2.0000      -6.039745      -164.3498
  19   2.0000      -6.038768      -164.3232
  20   2.0000      -6.035938      -164.2462
  21   2.0000      -6.034544      -164.2083
  22   2.0000      -6.032094      -164.1416
  23   2.0000      -6.030799      -164.1064
  24   2.0000      -1.003074       -27.2950
  25   2.0000      -0.978848       -26.6358
  26   2.0000      -0.916235       -24.9320
  27   2.0000      -0.906399       -24.6644
  28   2.0000      -0.867515       -23.6063
  29   2.0000      -0.848428       -23.0869
  30   2.0000      -0.836934       -22.7741
  31   2.0000      -0.809715       -22.0335
  32   2.0000      -0.784983       -21.3605
  33   2.0000      -0.776713       -21.1354
  34   2.0000      -0.711212       -19.3531
  35   2.0000      -0.702801       -19.1242
  36   2.0000      -0.694287       -18.8925
  37   2.0000      -0.660648       -17.9771
  38   2.0000      -0.637142       -17.3375
  39   2.0000      -0.617551       -16.8044
  40   2.0000      -0.601031       -16.3549
  41   2.0000      -0.563784       -15.3413
  42   2.0000      -0.556477       -15.1425
  43   2.0000      -0.553514       -15.0619
  44   2.0000      -0.541612       -14.7380
  45   2.0000      -0.534578       -14.5466
  46   2.0000      -0.518678       -14.1140
  47   2.0000      -0.510776       -13.8989
  48   2.0000      -0.504474       -13.7274
  49   2.0000      -0.498132       -13.5549
  50   2.0000      -0.480562       -13.0767
  51   2.0000      -0.478780       -13.0283
  52   2.0000      -0.467945       -12.7334
  53   2.0000      -0.462749       -12.5920
  54   2.0000      -0.449827       -12.2404
  55   2.0000      -0.448780       -12.2119
  56   2.0000      -0.444722       -12.1015
  57   2.0000      -0.439161       -11.9502
  58   2.0000      -0.430815       -11.7231
  59   2.0000      -0.423176       -11.5152
  60   2.0000      -0.420742       -11.4490
  61   2.0000      -0.418590       -11.3904
  62   2.0000      -0.404609       -11.0100
  63   2.0000      -0.340377        -9.2621
  64   2.0000      -0.332131        -9.0377
  65   2.0000      -0.325838        -8.8665
  66   2.0000      -0.298322        -8.1177
  67   0.0000       0.032015         0.8712
  68   0.0000       0.058677         1.5967
  69   0.0000       0.102793         2.7972
  70   0.0000       0.117710         3.2031
  71   0.0000       0.121882         3.3166

MULLIKEN ATOMIC CHARGES
-----------------------
   0 S :    0.104391
   1 C :   -0.123028
   2 C :   -0.101016
   3 C :    0.019284
   4 C :   -0.135272
   5 H :    0.010046
   6 C :    0.051982
   7 H :    0.048080
   8 H :    0.042381
   9 C :   -0.019978
  10 H :    0.014786
  11 H :    0.014952
  12 C :   -0.068885
  13 H :    0.031441
  14 H :    0.019284
  15 H :    0.025432
  16 S :    0.099181
  17 C :   -0.099642
  18 C :   -0.024899
  19 C :   -0.057768
  20 C :   -0.174291
  21 H :    0.033366
  22 C :    0.153433
  23 H :   -0.004384
  24 H :    0.000918
  25 C :   -0.034420
  26 H :    0.011543
  27 H :    0.011457
  28 C :   -0.058310
  29 H :    0.030502
  30 H :    0.019313
  31 H :    0.043371
  32 H :    0.054930
  33 H :    0.061820
Sum of atomic charges:   -0.0000000

LOEWDIN ATOMIC CHARGES
----------------------
   0 S :    0.403062
   1 C :   -0.198375
   2 C :   -0.054320
   3 C :   -0.073012
   4 C :   -0.205441
   5 H :    0.025707
   6 C :   -0.023511
   7 H :    0.038937
   8 H :    0.038010
   9 C :   -0.041690
  10 H :    0.018771
  11 H :    0.025166
  12 C :   -0.073488
  13 H :    0.026205
  14 H :    0.020169
  15 H :    0.027361
  16 S :    0.398122
  17 C :   -0.173101
  18 C :   -0.068649
  19 C :   -0.035283
  20 C :   -0.204017
  21 H :    0.037750
  22 C :   -0.022207
  23 H :    0.024095
  24 H :    0.022351
  25 C :   -0.029848
  26 H :    0.018416
  27 H :    0.018255
  28 C :   -0.061548
  29 H :    0.027401
  30 H :    0.014213
  31 H :    0.027675
  32 H :    0.028414
  33 H :    0.024412

  Mayer bond orders larger than 0.100000
B(  0-S ,  1-C ) :   1.1230 B(  0-S ,  4-C ) :   1.1590 B(  1-C ,  2-C ) :   1.6132
B(  1-C ,  4-C ) :   0.1014 B(  1-C , 32-H ) :   0.9643 B(  2-C ,  3-C ) :   1.2430
B(  2-C ,  6-C ) :   1.0012 B(  3-C ,  4-C ) :   1.5672 B(  3-C ,  5-H ) :   0.9897
B(  4-C , 20-C ) :   1.0472 B(  6-C ,  7-H ) :   0.9430 B(  6-C ,  8-H ) :   0.9497
B(  6-C ,  9-C ) :   1.0688 B(  9-C , 10-H ) :   0.9560 B(  9-C , 11-H ) :   0.9496
B(  9-C , 12-C ) :   1.0663 B( 12-C , 13-H ) :   0.9788 B( 12-C , 14-H ) :   0.9738
B( 12-C , 15-H ) :   0.9743 B( 16-S , 17-C ) :   1.1653 B( 16-S , 20-C ) :   1.1251
B( 17-C , 18-C ) :   1.6188 B( 17-C , 33-H ) :   0.9662 B( 18-C , 19-C ) :   1.2043
B( 18-C , 21-H ) :   0.9897 B( 19-C , 20-C ) :   1.6007 B( 19-C , 22-C ) :   1.0446
B( 22-C , 23-H ) :   0.9157 B( 22-C , 24-H ) :   0.9328 B( 22-C , 25-C ) :   1.0847
B( 25-C , 26-H ) :   0.9527 B( 25-C , 27-H ) :   0.9507 B( 25-C , 28-C ) :   1.0787
B( 28-C , 29-H ) :   0.9724 B( 28-C , 30-H ) :   0.9755 B( 28-C , 31-H ) :   0.9733

Dispersion correction           -0.015487072
FINAL SINGLE POINT ENERGY     -1339.858027253621

DIPOLE MOMENT
-------------
                                X             Y             Z
Electronic contribution:     -0.89767     -24.83335       3.34432
Nuclear contribution   :      1.20374      25.19592      -3.84629
                        -----------------------------------------
Total Dipole Moment    :      0.30608       0.36257      -0.50197
                        -----------------------------------------
Magnitude (a.u.)       :      0.69074
Magnitude (Debye)      :      1.75571

Rotational constants in cm-1:     0.020808     0.008554     0.007536
Rotational constants in MHz :   623.819202   256.454685   225.935066

                             ****ORCA TERMINATED NORMALLY****
TOTAL RUN TIME: 0 days 0 hours 0 minutes 22 seconds 271 msec
