                         Program Version 4.2.1 -  RELEASE  -
|  1> ! wB97X-D3 SP def2-SVP
|  2> %pal
|  3> nprocs 24
|  4> end
|  5>
|  6> * xyz 0 1
|  7> S 	 -34.8754 	 -51.1461 	 -77.4014
|  8> C 	 -33.7083 	 -52.2667 	 -76.7263
|  9> C 	 -33.0156 	 -51.6667 	 -75.6508
| 10> C 	 -33.57 	 -50.4318 	 -75.2833
| 11> C 	 -34.5456 	 -49.9848 	 -76.1514
| 12> H 	 -33.3739 	 -49.8277 	 -74.4304
| 13> C 	 -31.8802 	 -52.3833 	 -74.9282
| 14> H 	 -31.9894 	 -53.4862 	 -74.8641
| 15> H 	 -31.7845 	 -52.0864 	 -73.8466
| 16> C 	 -30.5261 	 -52.2741 	 -75.6811
| 17> H 	 -29.6976 	 -52.6947 	 -75.0447
| 18> H 	 -30.4956 	 -52.7645 	 -76.6507
| 19> C 	 -30.0923 	 -50.7984 	 -75.923
| 20> H 	 -30.7521 	 -50.3225 	 -76.5317
| 21> H 	 -30.036 	 -50.2218 	 -74.9757
| 22> H 	 -29.0907 	 -50.7647 	 -76.4629
| 23> S 	 -37.1412 	 -49.2737 	 -75.6629
| 24> C 	 -37.5462 	 -47.6799 	 -75.102
| 25> C 	 -36.425 	 -46.8649 	 -75.1466
| 26> C 	 -35.2357 	 -47.4585 	 -75.6192
| 27> C 	 -35.4399 	 -48.8104 	 -75.9293
| 28> H 	 -36.4285 	 -45.8352 	 -74.7706
| 29> C 	 -33.9391 	 -46.6874 	 -75.6372
| 30> H 	 -34.1331 	 -45.6941 	 -76.0831
| 31> H 	 -33.2505 	 -47.2438 	 -76.3
| 32> C 	 -33.2903 	 -46.4626 	 -74.2083
| 33> H 	 -33.4228 	 -47.3188 	 -73.5716
| 34> H 	 -33.8053 	 -45.692 	 -73.6236
| 35> C 	 -31.7963 	 -46.075 	 -74.2025
| 36> H 	 -31.421 	 -45.5204 	 -73.4794
| 37> H 	 -31.6723 	 -45.4609 	 -75.133
| 38> H 	 -31.1881 	 -46.95 	 -74.298
| 39> H 	 -33.5237 	 -53.2661 	 -76.9938
| 40> H 	 -38.5212 	 -47.397 	 -74.7887
| 41> *
| 42>
| 43>                          ****END OF INPUT****

CARTESIAN COORDINATES (ANGSTROEM)
---------------------------------
  S    -34.875400  -51.146100  -77.401400
  C    -33.708300  -52.266700  -76.726300
  C    -33.015600  -51.666700  -75.650800
  C    -33.570000  -50.431800  -75.283300
  C    -34.545600  -49.984800  -76.151400
  H    -33.373900  -49.827700  -74.430400
  C    -31.880200  -52.383300  -74.928200
  H    -31.989400  -53.486200  -74.864100
  H    -31.784500  -52.086400  -73.846600
  C    -30.526100  -52.274100  -75.681100
  H    -29.697600  -52.694700  -75.044700
  H    -30.495600  -52.764500  -76.650700
  C    -30.092300  -50.798400  -75.923000
  H    -30.752100  -50.322500  -76.531700
  H    -30.036000  -50.221800  -74.975700
  H    -29.090700  -50.764700  -76.462900
  S    -37.141200  -49.273700  -75.662900
  C    -37.546200  -47.679900  -75.102000
  C    -36.425000  -46.864900  -75.146600
  C    -35.235700  -47.458500  -75.619200
  C    -35.439900  -48.810400  -75.929300
  H    -36.428500  -45.835200  -74.770600
  C    -33.939100  -46.687400  -75.637200
  H    -34.133100  -45.694100  -76.083100
  H    -33.250500  -47.243800  -76.300000
  C    -33.290300  -46.462600  -74.208300
  H    -33.422800  -47.318800  -73.571600
  H    -33.805300  -45.692000  -73.623600
  C    -31.796300  -46.075000  -74.202500
  H    -31.421000  -45.520400  -73.479400
  H    -31.672300  -45.460900  -75.133000
  H    -31.188100  -46.950000  -74.298000
  H    -33.523700  -53.266100  -76.993800
  H    -38.521200  -47.397000  -74.788700

 Total Charge           Charge          ....    0
 Multiplicity           Mult            ....    1
 Number of Electrons    NEL             ....  134
 Basis Dimension        Dim             ....  322

ORBITAL ENERGIES
----------------

  NO   OCC          E(Eh)            E(eV)
   0   2.0000     -88.970641     -2421.0142
   1   2.0000     -88.964743     -2420.8537
   2   2.0000     -10.332467      -281.1607
   3   2.0000     -10.330259      -281.1006
   4   2.0000     -10.317384      -280.7503
   5   2.0000     -10.314386      -280.6687
   6   2.0000     -10.305343      -280.4226
   7   2.0000     -10.304945      -280.4118
   8   2.0000     -10.301703      -280.3236
   9   2.0000     -10.300597      -280.2935
  10   2.0000     -10.293140      -280.0906
  11   2.0000     -10.291950      -280.0582
  12   2.0000     -10.290749      -280.0255
  13   2.0000     -10.290686      -280.0238
  14   2.0000     -10.271254      -279.4950
  15   2.0000     -10.269804      -279.4556
  16   2.0000      -8.085137      -220.0078
  17   2.0000      -8.079264      -219.8479
  18   2.0000      -6.043544      -164.4532
  19   2.0000      -6.039579      -164.3453
  20   2.0000      -6.037683      -164.2937
  21   2.0000      -6.036119      -164.2511
  22   2.0000      -6.033724      -164.1860
  23   2.0000      -6.030188      -164.0898
  24   2.0000      -1.006048       -27.3760
  25   2.0000      -0.984348       -26.7855
  26   2.0000      -0.906874       -24.6773
  27   2.0000      -0.904457       -24.6115
  28   2.0000      -0.862270       -23.4636
  29   2.0000      -0.855634       -23.2830
  30   2.0000      -0.847021       -23.0486
  31   2.0000      -0.812203       -22.1012
  32   2.0000      -0.783933       -21.3319
  33   2.0000      -0.772381       -21.0176
  34   2.0000      -0.709345       -19.3023
  35   2.0000      -0.698926       -19.0187
  36   2.0000      -0.693871       -18.8812
  37   2.0000      -0.662667       -18.0321
  38   2.0000      -0.645701       -17.5704
  39   2.0000      -0.614395       -16.7185
  40   2.0000      -0.598618       -16.2892
  41   2.0000      -0.572458       -15.5774
  42   2.0000      -0.562024       -15.2934
  43   2.0000      -0.544195       -14.8083
  44   2.0000      -0.538390       -14.6503
  45   2.0000      -0.531904       -14.4738
  46   2.0000      -0.515900       -14.0383
  47   2.0000      -0.513463       -13.9720
  48   2.0000      -0.508171       -13.8280
  49   2.0000      -0.496989       -13.5238
  50   2.0000      -0.488518       -13.2932
  51   2.0000      -0.480059       -13.0631
  52   2.0000      -0.470824       -12.8118
  53   2.0000      -0.464500       -12.6397
  54   2.0000      -0.461487       -12.5577
  55   2.0000      -0.451004       -12.2725
  56   2.0000      -0.442379       -12.0377
  57   2.0000      -0.435333       -11.8460
  58   2.0000      -0.429951       -11.6996
  59   2.0000      -0.425164       -11.5693
  60   2.0000      -0.420917       -11.4537
  61   2.0000      -0.419647       -11.4192
  62   2.0000      -0.413504       -11.2520
  63   2.0000      -0.343980        -9.3602
  64   2.0000      -0.331131        -9.0105
  65   2.0000      -0.330805        -9.0017
  66   2.0000      -0.294757        -8.0208
  67   0.0000       0.028934         0.7873
  68   0.0000       0.063335         1.7234
  69   0.0000       0.115802         3.1511
  70   0.0000       0.120698         3.2843
  71   0.0000       0.125255         3.4084

MULLIKEN ATOMIC CHARGES
-----------------------
   0 S :    0.124524
   1 C :   -0.097898
   2 C :   -0.073341
   3 C :    0.059117
   4 C :   -0.169906
   5 H :   -0.004631
   6 C :    0.036542
   7 H :    0.034552
   8 H :    0.037541
   9 C :   -0.093129
  10 H :    0.037785
  11 H :    0.034897
  12 C :   -0.061222
  13 H :    0.023489
  14 H :    0.028615
  15 H :    0.038458
  16 S :    0.102372
  17 C :   -0.076282
  18 C :   -0.043657
  19 C :   -0.032449
  20 C :   -0.163664
  21 H :    0.022014
  22 C :    0.062983
  23 H :    0.038055
  24 H :    0.037680
  25 C :   -0.085337
  26 H :    0.024201
  27 H :    0.023995
  28 C :   -0.001530
  29 H :    0.002906
  30 H :    0.024385
  31 H :    0.029212
  32 H :    0.030920
  33 H :    0.048806
Sum of atomic charges:   -0.0000000

LOEWDIN ATOMIC CHARGES
----------------------
   0 S :    0.419064
   1 C :   -0.190565
   2 C :   -0.060301
   3 C :   -0.058345
   4 C :   -0.204243
   5 H :    0.029026
   6 C :   -0.040116
   7 H :    0.035192
   8 H :    0.035529
   9 C :   -0.041293
  10 H :    0.028567
  11 H :    0.022783
  12 C :   -0.067263
  13 H :    0.006709
  14 H :    0.024250
  15 H :    0.032904
  16 S :    0.404109
  17 C :   -0.181371
  18 C :   -0.074596
  19 C :   -0.059350
  20 C :   -0.189335
  21 H :    0.032528
  22 C :   -0.029136
  23 H :    0.036848
  24 H :    0.034891
  25 C :   -0.039192
  26 H :    0.017166
  27 H :    0.024067
  28 C :   -0.053548
  29 H :    0.004087
  30 H :    0.033303
  31 H :    0.024187
  32 H :    0.019556
  33 H :    0.023890

  Mayer bond orders larger than 0.100000
B(  0-S ,  1-C ) :   1.1508 B(  0-S ,  4-C ) :   1.1668 B(  1-C ,  2-C ) :   1.5727
B(  1-C ,  4-C ) :   0.1020 B(  1-C , 32-H ) :   0.9749 B(  2-C ,  3-C ) :   1.2549
B(  2-C ,  6-C ) :   1.0224 B(  3-C ,  4-C ) :   1.5585 B(  3-C ,  5-H ) :   1.0013
B(  4-C , 20-C ) :   0.9990 B(  6-C ,  7-H ) :   0.9453 B(  6-C ,  8-H ) :   0.9477
B(  6-C ,  9-C ) :   1.0629 B(  9-C , 10-H ) :   0.9586 B(  9-C , 11-H ) :   0.9587
B(  9-C , 12-C ) :   1.0745 B( 12-C , 13-H ) :   0.9752 B( 12-C , 14-H ) :   0.9764
B( 12-C , 15-H ) :   0.9740 B( 16-S , 17-C ) :   1.1640 B( 16-S , 20-C ) :   1.1527
B( 17-C , 18-C ) :   1.5773 B( 17-C , 20-C ) :   0.1028 B( 17-C , 33-H ) :   0.9759
B( 18-C , 19-C ) :   1.2624 B( 18-C , 21-H ) :   0.9865 B( 19-C , 20-C ) :   1.5841
B( 19-C , 22-C ) :   1.0566 B( 22-C , 23-H ) :   0.9283 B( 22-C , 24-H ) :   0.9408
B( 22-C , 25-C ) :   1.0441 B( 25-C , 26-H ) :   0.9632 B( 25-C , 27-H ) :   0.9544
B( 25-C , 28-C ) :   1.0779 B( 28-C , 29-H ) :   0.9757 B( 28-C , 30-H ) :   0.9731
B( 28-C , 31-H ) :   0.9768

Dispersion correction           -0.014806478
FINAL SINGLE POINT ENERGY     -1339.871921875555

DIPOLE MOMENT
-------------
                                X             Y             Z
Electronic contribution:    -28.19995      -7.70619      -9.61667
Nuclear contribution   :     28.60477       7.91103      10.07782
                        -----------------------------------------
Total Dipole Moment    :      0.40483       0.20484       0.46115
                        -----------------------------------------
Magnitude (a.u.)       :      0.64691
Magnitude (Debye)      :      1.64433

Rotational constants in cm-1:     0.017086     0.010063     0.006869
Rotational constants in MHz :   512.217965   301.675385   205.927612

                             ****ORCA TERMINATED NORMALLY****
TOTAL RUN TIME: 0 days 0 hours 0 minutes 22 seconds 116 msec
