                         Program Version 4.2.1 -  RELEASE  -
|  1> ! wB97X-D3 SP def2-SVP
|  2> %pal
|  3> nprocs 24
|  4> end
|  5>
|  6> * xyz 0 1
|  7> S 	 -47.3869 	 9.04474 	 -20.3015
|  8> C 	 -48.1157 	 8.54563 	 -18.8372
|  9> C 	 -48.9391 	 9.50027 	 -18.3222
| 10> C 	 -48.8226 	 10.7782 	 -18.9919
| 11> C 	 -48.022 	 10.6365 	 -20.1409
| 12> H 	 -49.3588 	 11.7376 	 -18.8743
| 13> C 	 -49.9789 	 9.2949 	 -17.2274
| 14> H 	 -50.2748 	 8.21184 	 -17.161
| 15> H 	 -50.8481 	 9.74289 	 -17.6608
| 16> C 	 -49.7387 	 9.7392 	 -15.7596
| 17> H 	 -49.5495 	 10.8184 	 -15.7455
| 18> H 	 -50.7431 	 9.63115 	 -15.3045
| 19> C 	 -48.6028 	 9.02335 	 -14.955
| 20> H 	 -48.5442 	 9.20929 	 -13.8791
| 21> H 	 -48.844 	 8.01593 	 -15.0577
| 22> H 	 -47.5585 	 9.09693 	 -15.3784
| 23> S 	 -47.2736 	 11.2757 	 -22.6749
| 24> C 	 -47.0075 	 12.9315 	 -23.0871
| 25> C 	 -47.014 	 13.743 	 -21.9861
| 26> C 	 -47.3661 	 13.0308 	 -20.7811
| 27> C 	 -47.6255 	 11.7057 	 -21.0041
| 28> H 	 -46.8625 	 14.8421 	 -22.0494
| 29> C 	 -47.4024 	 13.6812 	 -19.504
| 30> H 	 -46.5484 	 14.3528 	 -19.4502
| 31> H 	 -47.1345 	 12.9675 	 -18.7543
| 32> C 	 -48.6704 	 14.499 	 -19.0312
| 33> H 	 -49.5945 	 13.9248 	 -18.8864
| 34> H 	 -48.8381 	 15.2593 	 -19.8192
| 35> C 	 -48.4406 	 15.2818 	 -17.6668
| 36> H 	 -48.1937 	 14.6252 	 -16.8317
| 37> H 	 -49.2183 	 15.9842 	 -17.3249
| 38> H 	 -47.49 	 15.8179 	 -17.8696
| 39> H 	 -48.1106 	 7.55326 	 -18.4217
| 40> H 	 -46.5558 	 13.1627 	 -24.0584
| 41> *
| 42>
| 43>                          ****END OF INPUT****

CARTESIAN COORDINATES (ANGSTROEM)
---------------------------------
  S    -47.386900    9.044740  -20.301500
  C    -48.115700    8.545630  -18.837200
  C    -48.939100    9.500270  -18.322200
  C    -48.822600   10.778200  -18.991900
  C    -48.022000   10.636500  -20.140900
  H    -49.358800   11.737600  -18.874300
  C    -49.978900    9.294900  -17.227400
  H    -50.274800    8.211840  -17.161000
  H    -50.848100    9.742890  -17.660800
  C    -49.738700    9.739200  -15.759600
  H    -49.549500   10.818400  -15.745500
  H    -50.743100    9.631150  -15.304500
  C    -48.602800    9.023350  -14.955000
  H    -48.544200    9.209290  -13.879100
  H    -48.844000    8.015930  -15.057700
  H    -47.558500    9.096930  -15.378400
  S    -47.273600   11.275700  -22.674900
  C    -47.007500   12.931500  -23.087100
  C    -47.014000   13.743000  -21.986100
  C    -47.366100   13.030800  -20.781100
  C    -47.625500   11.705700  -21.004100
  H    -46.862500   14.842100  -22.049400
  C    -47.402400   13.681200  -19.504000
  H    -46.548400   14.352800  -19.450200
  H    -47.134500   12.967500  -18.754300
  C    -48.670400   14.499000  -19.031200
  H    -49.594500   13.924800  -18.886400
  H    -48.838100   15.259300  -19.819200
  C    -48.440600   15.281800  -17.666800
  H    -48.193700   14.625200  -16.831700
  H    -49.218300   15.984200  -17.324900
  H    -47.490000   15.817900  -17.869600
  H    -48.110600    7.553260  -18.421700
  H    -46.555800   13.162700  -24.058400

 Total Charge           Charge          ....    0
 Multiplicity           Mult            ....    1
 Number of Electrons    NEL             ....  134
 Basis Dimension        Dim             ....  322

ORBITAL ENERGIES
----------------

  NO   OCC          E(Eh)            E(eV)
   0   2.0000     -88.968031     -2420.9432
   1   2.0000     -88.960893     -2420.7490
   2   2.0000     -10.326566      -281.0002
   3   2.0000     -10.322950      -280.9017
   4   2.0000     -10.316436      -280.7245
   5   2.0000     -10.308290      -280.5028
   6   2.0000     -10.301643      -280.3220
   7   2.0000     -10.299574      -280.2656
   8   2.0000     -10.298289      -280.2307
   9   2.0000     -10.298015      -280.2232
  10   2.0000     -10.297241      -280.2022
  11   2.0000     -10.295229      -280.1474
  12   2.0000     -10.294733      -280.1339
  13   2.0000     -10.286651      -279.9140
  14   2.0000     -10.286100      -279.8990
  15   2.0000     -10.279906      -279.7305
  16   2.0000      -8.083895      -219.9740
  17   2.0000      -8.076604      -219.7756
  18   2.0000      -6.042355      -164.4208
  19   2.0000      -6.038285      -164.3101
  20   2.0000      -6.035075      -164.2227
  21   2.0000      -6.034608      -164.2100
  22   2.0000      -6.031085      -164.1142
  23   2.0000      -6.027255      -164.0099
  24   2.0000      -1.014937       -27.6178
  25   2.0000      -0.990214       -26.9451
  26   2.0000      -0.910142       -24.7662
  27   2.0000      -0.906605       -24.6700
  28   2.0000      -0.873144       -23.7594
  29   2.0000      -0.853162       -23.2157
  30   2.0000      -0.845947       -23.0194
  31   2.0000      -0.813527       -22.1372
  32   2.0000      -0.785089       -21.3634
  33   2.0000      -0.774497       -21.0751
  34   2.0000      -0.710322       -19.3288
  35   2.0000      -0.703007       -19.1298
  36   2.0000      -0.696955       -18.9651
  37   2.0000      -0.667879       -18.1739
  38   2.0000      -0.639088       -17.3905
  39   2.0000      -0.615535       -16.7496
  40   2.0000      -0.599418       -16.3110
  41   2.0000      -0.565170       -15.3790
  42   2.0000      -0.561668       -15.2838
  43   2.0000      -0.546831       -14.8800
  44   2.0000      -0.535299       -14.5662
  45   2.0000      -0.525292       -14.2939
  46   2.0000      -0.518375       -14.1057
  47   2.0000      -0.511831       -13.9276
  48   2.0000      -0.504363       -13.7244
  49   2.0000      -0.501694       -13.6518
  50   2.0000      -0.493135       -13.4189
  51   2.0000      -0.479272       -13.0416
  52   2.0000      -0.475365       -12.9353
  53   2.0000      -0.461868       -12.5681
  54   2.0000      -0.458073       -12.4648
  55   2.0000      -0.455633       -12.3984
  56   2.0000      -0.447056       -12.1650
  57   2.0000      -0.444589       -12.0979
  58   2.0000      -0.430286       -11.7087
  59   2.0000      -0.424859       -11.5610
  60   2.0000      -0.419131       -11.4051
  61   2.0000      -0.417283       -11.3548
  62   2.0000      -0.412136       -11.2148
  63   2.0000      -0.359564        -9.7842
  64   2.0000      -0.332718        -9.0537
  65   2.0000      -0.328099        -8.9280
  66   2.0000      -0.286625        -7.7995
  67   0.0000       0.024973         0.6796
  68   0.0000       0.078328         2.1314
  69   0.0000       0.107615         2.9283
  70   0.0000       0.116781         3.1778
  71   0.0000       0.129349         3.5198

MULLIKEN ATOMIC CHARGES
-----------------------
   0 S :    0.121934
   1 C :   -0.103912
   2 C :   -0.066360
   3 C :   -0.011627
   4 C :   -0.132138
   5 H :    0.016175
   6 C :    0.035072
   7 H :    0.020675
   8 H :    0.027801
   9 C :   -0.063805
  10 H :    0.024548
  11 H :    0.036405
  12 C :   -0.045306
  13 H :    0.042964
  14 H :    0.005082
  15 H :    0.048557
  16 S :    0.082012
  17 C :   -0.087413
  18 C :   -0.034163
  19 C :   -0.034745
  20 C :   -0.127738
  21 H :    0.033657
  22 C :    0.030565
  23 H :    0.012748
  24 H :    0.020733
  25 C :   -0.071285
  26 H :    0.042936
  27 H :    0.032654
  28 C :   -0.076908
  29 H :    0.033716
  30 H :    0.052527
  31 H :    0.026286
  32 H :    0.039374
  33 H :    0.068980
Sum of atomic charges:    0.0000000

LOEWDIN ATOMIC CHARGES
----------------------
   0 S :    0.431533
   1 C :   -0.210232
   2 C :   -0.064159
   3 C :   -0.066671
   4 C :   -0.200600
   5 H :    0.037869
   6 C :   -0.036071
   7 H :    0.031487
   8 H :    0.032676
   9 C :   -0.040332
  10 H :    0.018889
  11 H :    0.030485
  12 C :   -0.071162
  13 H :    0.030445
  14 H :    0.013581
  15 H :    0.036319
  16 S :    0.395319
  17 C :   -0.189464
  18 C :   -0.070820
  19 C :   -0.063307
  20 C :   -0.185255
  21 H :    0.039028
  22 C :   -0.041394
  23 H :    0.033664
  24 H :    0.029914
  25 C :   -0.033904
  26 H :    0.018802
  27 H :    0.025889
  28 C :   -0.074216
  29 H :    0.023668
  30 H :    0.030595
  31 H :    0.026301
  32 H :    0.028706
  33 H :    0.032415

  Mayer bond orders larger than 0.100000
B(  0-S ,  1-C ) :   1.1326 B(  0-S ,  4-C ) :   1.1606 B(  1-C ,  2-C ) :   1.6267
B(  1-C , 32-H ) :   0.9656 B(  2-C ,  3-C ) :   1.2171 B(  2-C ,  6-C ) :   1.0109
B(  3-C ,  4-C ) :   1.5519 B(  3-C ,  5-H ) :   0.9911 B(  4-C , 20-C ) :   1.0814
B(  6-C ,  7-H ) :   0.9431 B(  6-C ,  8-H ) :   0.9389 B(  6-C ,  9-C ) :   1.0742
B(  9-C , 10-H ) :   0.9586 B(  9-C , 11-H ) :   0.9543 B(  9-C , 12-C ) :   1.0577
B( 12-C , 13-H ) :   0.9766 B( 12-C , 14-H ) :   0.9745 B( 12-C , 15-H ) :   0.9758
B( 16-S , 17-C ) :   1.1564 B( 16-S , 20-C ) :   1.1174 B( 17-C , 18-C ) :   1.6133
B( 17-C , 33-H ) :   0.9628 B( 18-C , 19-C ) :   1.2227 B( 18-C , 21-H ) :   0.9865
B( 19-C , 20-C ) :   1.5963 B( 19-C , 22-C ) :   1.0832 B( 22-C , 23-H ) :   0.9195
B( 22-C , 24-H ) :   0.9192 B( 22-C , 25-C ) :   1.0473 B( 25-C , 26-H ) :   0.9540
B( 25-C , 27-H ) :   0.9557 B( 25-C , 28-C ) :   1.0634 B( 28-C , 29-H ) :   0.9778
B( 28-C , 30-H ) :   0.9766 B( 28-C , 31-H ) :   0.9760

Dispersion correction           -0.014232360
FINAL SINGLE POINT ENERGY     -1339.879093847753

DIPOLE MOMENT
-------------
                                X             Y             Z
Electronic contribution:      8.66687     -11.32898     -28.36401
Nuclear contribution   :     -8.83794      11.65131      28.86101
                        -----------------------------------------
Total Dipole Moment    :     -0.17107       0.32233       0.49700
                        -----------------------------------------
Magnitude (a.u.)       :      0.61658
Magnitude (Debye)      :      1.56722

Rotational constants in cm-1:     0.017823     0.009470     0.006525
Rotational constants in MHz :   534.314212   283.906797   195.603407

                             ****ORCA TERMINATED NORMALLY****
TOTAL RUN TIME: 0 days 0 hours 0 minutes 21 seconds 755 msec
