                         Program Version 4.2.1 -  RELEASE  -
|  1> ! wB97X-D3 SP def2-SVP
|  2> %pal
|  3> nprocs 24
|  4> end
|  5>
|  6> * xyz 0 1
|  7> S 	 -86.7875 	 -2.02672 	 -64.7052
|  8> C 	 -87.6372 	 -0.523032 	 -64.4563
|  9> C 	 -87.5622 	 -0.216568 	 -63.1057
| 10> C 	 -86.7788 	 -1.11655 	 -62.355
| 11> C 	 -86.2369 	 -2.17155 	 -63.0663
| 12> H 	 -86.5066 	 -0.986166 	 -61.3054
| 13> C 	 -88.0064 	 1.12979 	 -62.5517
| 14> H 	 -88.7027 	 0.804662 	 -61.7139
| 15> H 	 -88.6122 	 1.62341 	 -63.4172
| 16> C 	 -86.937 	 1.96508 	 -62.0495
| 17> H 	 -87.2709 	 2.82344 	 -61.4153
| 18> H 	 -86.4392 	 1.48012 	 -61.2651
| 19> C 	 -85.9677 	 2.48116 	 -63.2227
| 20> H 	 -86.6018 	 3.24261 	 -63.8035
| 21> H 	 -85.0946 	 2.95747 	 -62.8261
| 22> H 	 -85.5326 	 1.78607 	 -63.8755
| 23> S 	 -84.0895 	 -3.73545 	 -63.5449
| 24> C 	 -83.6218 	 -5.03511 	 -62.4422
| 25> C 	 -84.2971 	 -4.93138 	 -61.2325
| 26> C 	 -85.2276 	 -3.88038 	 -61.2719
| 27> C 	 -85.4134 	 -3.24255 	 -62.5091
| 28> H 	 -84.1558 	 -5.59479 	 -60.4229
| 29> C 	 -86.104 	 -3.61194 	 -60.0624
| 30> H 	 -86.5888 	 -4.56209 	 -59.6625
| 31> H 	 -86.9235 	 -3.02338 	 -60.4152
| 32> C 	 -85.539 	 -2.77628 	 -58.8299
| 33> H 	 -86.4741 	 -2.21216 	 -58.4874
| 34> H 	 -84.7571 	 -2.03889 	 -59.0926
| 35> C 	 -85.0528 	 -3.62808 	 -57.5814
| 36> H 	 -84.1246 	 -4.08766 	 -57.8356
| 37> H 	 -85.7345 	 -4.42398 	 -57.3549
| 38> H 	 -84.9019 	 -3.06064 	 -56.6345
| 39> H 	 -87.9627 	 0.213362 	 -65.2114
| 40> H 	 -82.8517 	 -5.75161 	 -62.7314
| 41> *
| 42>
| 43>                          ****END OF INPUT****

CARTESIAN COORDINATES (ANGSTROEM)
---------------------------------
  S    -86.787500   -2.026720  -64.705200
  C    -87.637200   -0.523032  -64.456300
  C    -87.562200   -0.216568  -63.105700
  C    -86.778800   -1.116550  -62.355000
  C    -86.236900   -2.171550  -63.066300
  H    -86.506600   -0.986166  -61.305400
  C    -88.006400    1.129790  -62.551700
  H    -88.702700    0.804662  -61.713900
  H    -88.612200    1.623410  -63.417200
  C    -86.937000    1.965080  -62.049500
  H    -87.270900    2.823440  -61.415300
  H    -86.439200    1.480120  -61.265100
  C    -85.967700    2.481160  -63.222700
  H    -86.601800    3.242610  -63.803500
  H    -85.094600    2.957470  -62.826100
  H    -85.532600    1.786070  -63.875500
  S    -84.089500   -3.735450  -63.544900
  C    -83.621800   -5.035110  -62.442200
  C    -84.297100   -4.931380  -61.232500
  C    -85.227600   -3.880380  -61.271900
  C    -85.413400   -3.242550  -62.509100
  H    -84.155800   -5.594790  -60.422900
  C    -86.104000   -3.611940  -60.062400
  H    -86.588800   -4.562090  -59.662500
  H    -86.923500   -3.023380  -60.415200
  C    -85.539000   -2.776280  -58.829900
  H    -86.474100   -2.212160  -58.487400
  H    -84.757100   -2.038890  -59.092600
  C    -85.052800   -3.628080  -57.581400
  H    -84.124600   -4.087660  -57.835600
  H    -85.734500   -4.423980  -57.354900
  H    -84.901900   -3.060640  -56.634500
  H    -87.962700    0.213362  -65.211400
  H    -82.851700   -5.751610  -62.731400

 Total Charge           Charge          ....    0
 Multiplicity           Mult            ....    1
 Number of Electrons    NEL             ....  134
 Basis Dimension        Dim             ....  322

ORBITAL ENERGIES
----------------

  NO   OCC          E(Eh)            E(eV)
   0   2.0000     -88.967928     -2420.9404
   1   2.0000     -88.964264     -2420.8407
   2   2.0000     -10.333409      -281.1864
   3   2.0000     -10.332917      -281.1730
   4   2.0000     -10.323528      -280.9175
   5   2.0000     -10.316650      -280.7303
   6   2.0000     -10.306881      -280.4645
   7   2.0000     -10.302769      -280.3526
   8   2.0000     -10.299369      -280.2601
   9   2.0000     -10.298496      -280.2363
  10   2.0000     -10.295909      -280.1659
  11   2.0000     -10.295134      -280.1448
  12   2.0000     -10.292198      -280.0649
  13   2.0000     -10.287208      -279.9292
  14   2.0000     -10.281058      -279.7618
  15   2.0000     -10.280642      -279.7505
  16   2.0000      -8.082593      -219.9385
  17   2.0000      -8.079103      -219.8436
  18   2.0000      -6.041146      -164.3879
  19   2.0000      -6.037566      -164.2905
  20   2.0000      -6.036945      -164.2736
  21   2.0000      -6.033554      -164.1813
  22   2.0000      -6.033430      -164.1780
  23   2.0000      -6.029937      -164.0829
  24   2.0000      -1.010798       -27.5052
  25   2.0000      -0.988662       -26.9028
  26   2.0000      -0.918418       -24.9914
  27   2.0000      -0.896790       -24.4029
  28   2.0000      -0.872336       -23.7375
  29   2.0000      -0.847949       -23.0739
  30   2.0000      -0.840172       -22.8623
  31   2.0000      -0.815861       -22.2007
  32   2.0000      -0.782931       -21.3046
  33   2.0000      -0.774452       -21.0739
  34   2.0000      -0.714657       -19.4468
  35   2.0000      -0.699558       -19.0359
  36   2.0000      -0.691941       -18.8287
  37   2.0000      -0.667914       -18.1749
  38   2.0000      -0.636019       -17.3070
  39   2.0000      -0.623699       -16.9717
  40   2.0000      -0.596908       -16.2427
  41   2.0000      -0.569149       -15.4873
  42   2.0000      -0.558953       -15.2099
  43   2.0000      -0.542344       -14.7579
  44   2.0000      -0.539611       -14.6835
  45   2.0000      -0.537671       -14.6308
  46   2.0000      -0.517606       -14.0848
  47   2.0000      -0.513534       -13.9740
  48   2.0000      -0.509118       -13.8538
  49   2.0000      -0.499108       -13.5814
  50   2.0000      -0.488138       -13.2829
  51   2.0000      -0.473995       -12.8981
  52   2.0000      -0.471693       -12.8354
  53   2.0000      -0.466827       -12.7030
  54   2.0000      -0.460589       -12.5333
  55   2.0000      -0.451843       -12.2953
  56   2.0000      -0.449233       -12.2243
  57   2.0000      -0.436915       -11.8891
  58   2.0000      -0.436069       -11.8660
  59   2.0000      -0.418940       -11.3999
  60   2.0000      -0.416751       -11.3404
  61   2.0000      -0.409829       -11.1520
  62   2.0000      -0.403248       -10.9729
  63   2.0000      -0.355297        -9.6681
  64   2.0000      -0.331535        -9.0215
  65   2.0000      -0.331189        -9.0121
  66   2.0000      -0.289900        -7.8886
  67   0.0000       0.017567         0.4780
  68   0.0000       0.079070         2.1516
  69   0.0000       0.107670         2.9298
  70   0.0000       0.122231         3.3261
  71   0.0000       0.125663         3.4195

MULLIKEN ATOMIC CHARGES
-----------------------
   0 S :    0.115809
   1 C :   -0.129504
   2 C :   -0.095143
   3 C :   -0.010212
   4 C :   -0.110862
   5 H :    0.014921
   6 C :    0.031964
   7 H :    0.043943
   8 H :    0.031381
   9 C :   -0.032495
  10 H :    0.028960
  11 H :    0.003535
  12 C :   -0.058723
  13 H :    0.039826
  14 H :    0.026236
  15 H :    0.037791
  16 S :    0.085661
  17 C :   -0.094458
  18 C :    0.002223
  19 C :   -0.033083
  20 C :   -0.136443
  21 H :    0.008951
  22 C :    0.018723
  23 H :    0.040016
  24 H :    0.013727
  25 C :   -0.111469
  26 H :    0.040205
  27 H :    0.048482
  28 C :   -0.046031
  29 H :    0.025559
  30 H :    0.022910
  31 H :    0.044106
  32 H :    0.066863
  33 H :    0.066628
Sum of atomic charges:   -0.0000000

LOEWDIN ATOMIC CHARGES
----------------------
   0 S :    0.418860
   1 C :   -0.211231
   2 C :   -0.068064
   3 C :   -0.073172
   4 C :   -0.201655
   5 H :    0.030652
   6 C :   -0.040409
   7 H :    0.041348
   8 H :    0.034873
   9 C :   -0.048081
  10 H :    0.033701
  11 H :    0.015458
  12 C :   -0.061417
  13 H :    0.034419
  14 H :    0.023512
  15 H :    0.019559
  16 S :    0.400181
  17 C :   -0.169889
  18 C :   -0.064901
  19 C :   -0.059601
  20 C :   -0.191350
  21 H :    0.029471
  22 C :   -0.039542
  23 H :    0.038091
  24 H :    0.024062
  25 C :   -0.043361
  26 H :    0.030907
  27 H :    0.027026
  28 C :   -0.069914
  29 H :    0.018581
  30 H :    0.019320
  31 H :    0.032123
  32 H :    0.040604
  33 H :    0.029839

  Mayer bond orders larger than 0.100000
B(  0-S ,  1-C ) :   1.1380 B(  0-S ,  4-C ) :   1.1627 B(  1-C ,  2-C ) :   1.5820
B(  1-C ,  4-C ) :   0.1017 B(  1-C , 32-H ) :   0.9621 B(  2-C ,  3-C ) :   1.2705
B(  2-C ,  6-C ) :   1.0167 B(  3-C ,  4-C ) :   1.5359 B(  3-C ,  5-H ) :   0.9921
B(  4-C , 20-C ) :   1.0512 B(  6-C ,  7-H ) :   0.9263 B(  6-C ,  8-H ) :   0.9467
B(  6-C ,  9-C ) :   1.0964 B(  9-C , 10-H ) :   0.9468 B(  9-C , 11-H ) :   0.9434
B(  9-C , 12-C ) :   1.0508 B( 12-C , 13-H ) :   0.9781 B( 12-C , 14-H ) :   0.9754
B( 12-C , 15-H ) :   0.9810 B( 16-S , 17-C ) :   1.1691 B( 16-S , 20-C ) :   1.1417
B( 17-C , 18-C ) :   1.5593 B( 17-C , 20-C ) :   0.1110 B( 17-C , 33-H ) :   0.9694
B( 18-C , 19-C ) :   1.2624 B( 18-C , 21-H ) :   1.0046 B( 19-C , 20-C ) :   1.5611
B( 19-C , 22-C ) :   1.0491 B( 22-C , 23-H ) :   0.9416 B( 22-C , 24-H ) :   0.9423
B( 22-C , 25-C ) :   1.0372 B( 25-C , 26-H ) :   0.9645 B( 25-C , 27-H ) :   0.9606
B( 25-C , 28-C ) :   1.0672 B( 28-C , 29-H ) :   0.9784 B( 28-C , 30-H ) :   0.9773
B( 28-C , 31-H ) :   0.9754

Dispersion correction           -0.014530630
FINAL SINGLE POINT ENERGY     -1339.859335422098

DIPOLE MOMENT
-------------
                                X             Y             Z
Electronic contribution:      3.28399     -14.84634     -22.12819
Nuclear contribution   :     -3.21909      15.09779      22.77483
                        -----------------------------------------
Total Dipole Moment    :      0.06490       0.25145       0.64664
                        -----------------------------------------
Magnitude (a.u.)       :      0.69684
Magnitude (Debye)      :      1.77122

Rotational constants in cm-1:     0.017809     0.009155     0.006860
Rotational constants in MHz :   533.895567   274.467852   205.669765

                             ****ORCA TERMINATED NORMALLY****
TOTAL RUN TIME: 0 days 0 hours 0 minutes 21 seconds 852 msec
