                         Program Version 4.2.1 -  RELEASE  -
|  1> ! wB97X-D3 SP def2-SVP
|  2> %pal
|  3> nprocs 24
|  4> end
|  5>
|  6> * xyz 0 1
|  7> S 	 -31.3921 	 9.92472 	 9.85989
|  8> C 	 -31.1945 	 11.5394 	 9.13319
|  9> C 	 -30.6763 	 12.4483 	 10.029
| 10> C 	 -30.097 	 11.8087 	 11.1777
| 11> C 	 -30.3816 	 10.4794 	 11.2325
| 12> H 	 -29.804 	 12.2458 	 12.144
| 13> C 	 -30.8678 	 13.9329 	 9.78386
| 14> H 	 -30.9879 	 14.1296 	 8.72702
| 15> H 	 -29.9894 	 14.5371 	 10.0429
| 16> C 	 -32.0547 	 14.5739 	 10.4549
| 17> H 	 -32.9476 	 13.9717 	 10.2751
| 18> H 	 -32.0691 	 14.3269 	 11.5053
| 19> C 	 -32.3398 	 16.0525 	 10.2359
| 20> H 	 -31.3796 	 16.6139 	 10.4461
| 21> H 	 -32.5066 	 16.317 	 9.27339
| 22> H 	 -33.0813 	 16.4673 	 10.8756
| 23> S 	 -28.7144 	 8.55303 	 12.1015
| 24> C 	 -28.6418 	 8.155 	 13.7648
| 25> C 	 -29.6098 	 8.79661 	 14.4566
| 26> C 	 -30.4 	 9.71873 	 13.6829
| 27> C 	 -30.0492 	 9.64582 	 12.3582
| 28> H 	 -29.6918 	 8.58929 	 15.5197
| 29> C 	 -31.49 	 10.601 	 14.2506
| 30> H 	 -32.0181 	 9.86466 	 14.9491
| 31> H 	 -32.1703 	 10.9811 	 13.4443
| 32> C 	 -30.93 	 11.8054 	 15.0419
| 33> H 	 -30.1471 	 12.347 	 14.4887
| 34> H 	 -30.3452 	 11.4408 	 15.8798
| 35> C 	 -31.8472 	 12.8616 	 15.665
| 36> H 	 -32.4745 	 13.0147 	 14.8346
| 37> H 	 -31.4064 	 13.8106 	 15.8509
| 38> H 	 -32.5479 	 12.609 	 16.5021
| 39> H 	 -31.433 	 11.7619 	 8.11385
| 40> H 	 -28.0316 	 7.46517 	 14.3833
| 41> *
| 42>
| 43>                          ****END OF INPUT****

CARTESIAN COORDINATES (ANGSTROEM)
---------------------------------
  S    -31.392100    9.924720    9.859890
  C    -31.194500   11.539400    9.133190
  C    -30.676300   12.448300   10.029000
  C    -30.097000   11.808700   11.177700
  C    -30.381600   10.479400   11.232500
  H    -29.804000   12.245800   12.144000
  C    -30.867800   13.932900    9.783860
  H    -30.987900   14.129600    8.727020
  H    -29.989400   14.537100   10.042900
  C    -32.054700   14.573900   10.454900
  H    -32.947600   13.971700   10.275100
  H    -32.069100   14.326900   11.505300
  C    -32.339800   16.052500   10.235900
  H    -31.379600   16.613900   10.446100
  H    -32.506600   16.317000    9.273390
  H    -33.081300   16.467300   10.875600
  S    -28.714400    8.553030   12.101500
  C    -28.641800    8.155000   13.764800
  C    -29.609800    8.796610   14.456600
  C    -30.400000    9.718730   13.682900
  C    -30.049200    9.645820   12.358200
  H    -29.691800    8.589290   15.519700
  C    -31.490000   10.601000   14.250600
  H    -32.018100    9.864660   14.949100
  H    -32.170300   10.981100   13.444300
  C    -30.930000   11.805400   15.041900
  H    -30.147100   12.347000   14.488700
  H    -30.345200   11.440800   15.879800
  C    -31.847200   12.861600   15.665000
  H    -32.474500   13.014700   14.834600
  H    -31.406400   13.810600   15.850900
  H    -32.547900   12.609000   16.502100
  H    -31.433000   11.761900    8.113850
  H    -28.031600    7.465170   14.383300

 Total Charge           Charge          ....    0
 Multiplicity           Mult            ....    1
 Number of Electrons    NEL             ....  134
 Basis Dimension        Dim             ....  322

ORBITAL ENERGIES
----------------

  NO   OCC          E(Eh)            E(eV)
   0   2.0000     -88.967185     -2420.9202
   1   2.0000     -88.963944     -2420.8320
   2   2.0000     -10.328549      -281.0541
   3   2.0000     -10.319956      -280.8203
   4   2.0000     -10.315934      -280.7108
   5   2.0000     -10.313515      -280.6450
   6   2.0000     -10.306161      -280.4449
   7   2.0000     -10.305550      -280.4283
   8   2.0000     -10.305072      -280.4153
   9   2.0000     -10.296534      -280.1829
  10   2.0000     -10.291849      -280.0555
  11   2.0000     -10.290202      -280.0106
  12   2.0000     -10.289228      -279.9841
  13   2.0000     -10.281271      -279.7676
  14   2.0000     -10.275214      -279.6028
  15   2.0000     -10.274445      -279.5818
  16   2.0000      -8.080935      -219.8934
  17   2.0000      -8.079547      -219.8557
  18   2.0000      -6.039445      -164.3417
  19   2.0000      -6.038058      -164.3039
  20   2.0000      -6.035857      -164.2440
  21   2.0000      -6.033895      -164.1906
  22   2.0000      -6.031478      -164.1248
  23   2.0000      -6.030246      -164.0913
  24   2.0000      -1.011670       -27.5289
  25   2.0000      -0.985233       -26.8095
  26   2.0000      -0.914596       -24.8874
  27   2.0000      -0.909973       -24.7616
  28   2.0000      -0.875602       -23.8264
  29   2.0000      -0.855135       -23.2694
  30   2.0000      -0.847975       -23.0746
  31   2.0000      -0.821339       -22.3498
  32   2.0000      -0.787765       -21.4362
  33   2.0000      -0.774852       -21.0848
  34   2.0000      -0.712318       -19.3832
  35   2.0000      -0.703527       -19.1439
  36   2.0000      -0.696287       -18.9469
  37   2.0000      -0.658553       -17.9202
  38   2.0000      -0.648395       -17.6437
  39   2.0000      -0.616595       -16.7784
  40   2.0000      -0.594425       -16.1751
  41   2.0000      -0.572428       -15.5766
  42   2.0000      -0.561262       -15.2727
  43   2.0000      -0.553296       -15.0560
  44   2.0000      -0.530055       -14.4235
  45   2.0000      -0.525712       -14.3054
  46   2.0000      -0.521426       -14.1887
  47   2.0000      -0.520153       -14.1541
  48   2.0000      -0.510016       -13.8783
  49   2.0000      -0.505261       -13.7488
  50   2.0000      -0.492978       -13.4146
  51   2.0000      -0.481355       -13.0983
  52   2.0000      -0.469958       -12.7882
  53   2.0000      -0.463550       -12.6138
  54   2.0000      -0.462469       -12.5844
  55   2.0000      -0.453855       -12.3500
  56   2.0000      -0.452420       -12.3110
  57   2.0000      -0.439628       -11.9629
  58   2.0000      -0.436226       -11.8703
  59   2.0000      -0.431504       -11.7418
  60   2.0000      -0.420141       -11.4326
  61   2.0000      -0.407079       -11.0772
  62   2.0000      -0.399584       -10.8732
  63   2.0000      -0.340165        -9.2564
  64   2.0000      -0.328768        -8.9462
  65   2.0000      -0.325460        -8.8562
  66   2.0000      -0.309717        -8.4278
  67   0.0000       0.036505         0.9934
  68   0.0000       0.061844         1.6829
  69   0.0000       0.099511         2.7078
  70   0.0000       0.120380         3.2757
  71   0.0000       0.130124         3.5408

MULLIKEN ATOMIC CHARGES
-----------------------
   0 S :    0.105943
   1 C :   -0.113294
   2 C :   -0.083849
   3 C :    0.061632
   4 C :   -0.179614
   5 H :    0.020973
   6 C :    0.082132
   7 H :    0.009201
   8 H :    0.018410
   9 C :   -0.066799
  10 H :    0.006307
  11 H :    0.001699
  12 C :    0.015341
  13 H :    0.017859
  14 H :    0.006651
  15 H :    0.034711
  16 S :    0.125233
  17 C :   -0.073388
  18 C :   -0.068301
  19 C :   -0.011928
  20 C :   -0.189635
  21 H :    0.015566
  22 C :    0.064188
  23 H :    0.046607
  24 H :    0.044384
  25 C :   -0.101883
  26 H :    0.028381
  27 H :    0.017635
  28 C :   -0.014015
  29 H :    0.002364
  30 H :    0.029691
  31 H :    0.041493
  32 H :    0.047415
  33 H :    0.058892
Sum of atomic charges:    0.0000000

LOEWDIN ATOMIC CHARGES
----------------------
   0 S :    0.370516
   1 C :   -0.174849
   2 C :   -0.057140
   3 C :   -0.059843
   4 C :   -0.183222
   5 H :    0.038641
   6 C :   -0.031090
   7 H :    0.027832
   8 H :    0.027274
   9 C :   -0.051865
  10 H :    0.023060
  11 H :    0.020207
  12 C :   -0.052611
  13 H :    0.031874
  14 H :    0.009342
  15 H :    0.028361
  16 S :    0.428358
  17 C :   -0.203915
  18 C :   -0.080233
  19 C :   -0.053132
  20 C :   -0.208406
  21 H :    0.029818
  22 C :   -0.032750
  23 H :    0.044914
  24 H :    0.035575
  25 C :   -0.048703
  26 H :    0.026645
  27 H :    0.020311
  28 C :   -0.069896
  29 H :    0.018685
  30 H :    0.025669
  31 H :    0.031571
  32 H :    0.024493
  33 H :    0.044507

  Mayer bond orders larger than 0.100000
B(  0-S ,  1-C ) :   1.1214 B(  0-S ,  4-C ) :   1.1311 B(  1-C ,  2-C ) :   1.6353
B(  1-C , 32-H ) :   0.9699 B(  2-C ,  3-C ) :   1.2070 B(  2-C ,  6-C ) :   1.0399
B(  3-C ,  4-C ) :   1.6214 B(  3-C ,  5-H ) :   0.9852 B(  4-C , 20-C ) :   1.0133
B(  6-C ,  7-H ) :   0.9362 B(  6-C ,  8-H ) :   0.9349 B(  6-C ,  9-C ) :   1.0616
B(  9-C , 10-H ) :   0.9419 B(  9-C , 11-H ) :   0.9475 B(  9-C , 12-C ) :   1.0834
B( 12-C , 13-H ) :   0.9693 B( 12-C , 14-H ) :   0.9747 B( 12-C , 15-H ) :   0.9722
B( 16-S , 17-C ) :   1.1482 B( 16-S , 20-C ) :   1.1462 B( 17-C , 18-C ) :   1.6538
B( 17-C , 33-H ) :   0.9567 B( 18-C , 19-C ) :   1.2132 B( 18-C , 21-H ) :   0.9858
B( 19-C , 20-C ) :   1.6209 B( 19-C , 22-C ) :   1.0421 B( 22-C , 23-H ) :   0.9330
B( 22-C , 24-H ) :   0.9319 B( 22-C , 25-C ) :   1.0558 B( 25-C , 26-H ) :   0.9517
B( 25-C , 27-H ) :   0.9514 B( 25-C , 28-C ) :   1.0751 B( 28-C , 29-H ) :   0.9702
B( 28-C , 30-H ) :   0.9728 B( 28-C , 31-H ) :   0.9747

Dispersion correction           -0.014632537
FINAL SINGLE POINT ENERGY     -1339.854423112369

DIPOLE MOMENT
-------------
                                X             Y             Z
Electronic contribution:     11.06064     -28.62223     -11.16038
Nuclear contribution   :    -11.27488      29.17842      11.61162
                        -----------------------------------------
Total Dipole Moment    :     -0.21423       0.55619       0.45124
                        -----------------------------------------
Magnitude (a.u.)       :      0.74757
Magnitude (Debye)      :      1.90017

Rotational constants in cm-1:     0.017647     0.009339     0.006712
Rotational constants in MHz :   529.034256   279.983937   201.211000

                             ****ORCA TERMINATED NORMALLY****
TOTAL RUN TIME: 0 days 0 hours 0 minutes 21 seconds 930 msec
