                         Program Version 4.2.1 -  RELEASE  -
|  1> ! wB97X-D3 SP def2-SVP
|  2> %pal
|  3> nprocs 24
|  4> end
|  5>
|  6> * xyz 0 1
|  7> S 	 -91.5389 	 -3.57683 	 -120.06
|  8> C 	 -90.5868 	 -3.25155 	 -121.47
|  9> C 	 -90.8188 	 -4.25387 	 -122.384
| 10> C 	 -91.5562 	 -5.39452 	 -121.886
| 11> C 	 -91.9825 	 -5.18337 	 -120.628
| 12> H 	 -91.7901 	 -6.27137 	 -122.393
| 13> C 	 -90.1697 	 -4.39598 	 -123.805
| 14> H 	 -90.1979 	 -3.38936 	 -124.246
| 15> H 	 -90.8778 	 -5.02075 	 -124.339
| 16> C 	 -88.7799 	 -5.02732 	 -123.855
| 17> H 	 -88.1125 	 -4.36702 	 -123.257
| 18> H 	 -88.8793 	 -6.05834 	 -123.446
| 19> C 	 -88.1376 	 -4.9895 	 -125.239
| 20> H 	 -88.5276 	 -5.67891 	 -125.956
| 21> H 	 -88.1794 	 -3.97734 	 -125.673
| 22> H 	 -87.1227 	 -5.28007 	 -125.113
| 23> S 	 -94.1981 	 -5.86002 	 -119.138
| 24> C 	 -94.2282 	 -7.39603 	 -118.353
| 25> C 	 -93.1179 	 -8.14636 	 -118.57
| 26> C 	 -92.1246 	 -7.45449 	 -119.377
| 27> C 	 -92.5558 	 -6.18204 	 -119.744
| 28> H 	 -93.1096 	 -9.21882 	 -118.233
| 29> C 	 -90.8133 	 -8.06656 	 -119.747
| 30> H 	 -90.4953 	 -7.71954 	 -120.734
| 31> H 	 -90.9504 	 -9.17263 	 -119.855
| 32> C 	 -89.7862 	 -7.80403 	 -118.672
| 33> H 	 -90.0783 	 -8.22201 	 -117.666
| 34> H 	 -89.4931 	 -6.71879 	 -118.431
| 35> C 	 -88.3817 	 -8.32379 	 -118.925
| 36> H 	 -87.6588 	 -8.11957 	 -118.108
| 37> H 	 -88.0668 	 -7.91715 	 -119.837
| 38> H 	 -88.3516 	 -9.345 	 -118.927
| 39> H 	 -90.0691 	 -2.3565 	 -121.64
| 40> H 	 -95.1307 	 -7.69773 	 -117.907
| 41> *
| 42>
| 43>                          ****END OF INPUT****

CARTESIAN COORDINATES (ANGSTROEM)
---------------------------------
  S    -91.538900   -3.576830  -120.060000
  C    -90.586800   -3.251550  -121.470000
  C    -90.818800   -4.253870  -122.384000
  C    -91.556200   -5.394520  -121.886000
  C    -91.982500   -5.183370  -120.628000
  H    -91.790100   -6.271370  -122.393000
  C    -90.169700   -4.395980  -123.805000
  H    -90.197900   -3.389360  -124.246000
  H    -90.877800   -5.020750  -124.339000
  C    -88.779900   -5.027320  -123.855000
  H    -88.112500   -4.367020  -123.257000
  H    -88.879300   -6.058340  -123.446000
  C    -88.137600   -4.989500  -125.239000
  H    -88.527600   -5.678910  -125.956000
  H    -88.179400   -3.977340  -125.673000
  H    -87.122700   -5.280070  -125.113000
  S    -94.198100   -5.860020  -119.138000
  C    -94.228200   -7.396030  -118.353000
  C    -93.117900   -8.146360  -118.570000
  C    -92.124600   -7.454490  -119.377000
  C    -92.555800   -6.182040  -119.744000
  H    -93.109600   -9.218820  -118.233000
  C    -90.813300   -8.066560  -119.747000
  H    -90.495300   -7.719540  -120.734000
  H    -90.950400   -9.172630  -119.855000
  C    -89.786200   -7.804030  -118.672000
  H    -90.078300   -8.222010  -117.666000
  H    -89.493100   -6.718790  -118.431000
  C    -88.381700   -8.323790  -118.925000
  H    -87.658800   -8.119570  -118.108000
  H    -88.066800   -7.917150  -119.837000
  H    -88.351600   -9.345000  -118.927000
  H    -90.069100   -2.356500  -121.640000
  H    -95.130700   -7.697730  -117.907000

 Total Charge           Charge          ....    0
 Multiplicity           Mult            ....    1
 Number of Electrons    NEL             ....  134
 Basis Dimension        Dim             ....  322

ORBITAL ENERGIES
----------------

  NO   OCC          E(Eh)            E(eV)
   0   2.0000     -88.961764     -2420.7727
   1   2.0000     -88.960607     -2420.7412
   2   2.0000     -10.325725      -280.9773
   3   2.0000     -10.324430      -280.9420
   4   2.0000     -10.311153      -280.5807
   5   2.0000     -10.311073      -280.5785
   6   2.0000     -10.307733      -280.4877
   7   2.0000     -10.301912      -280.3293
   8   2.0000     -10.298078      -280.2250
   9   2.0000     -10.296262      -280.1755
  10   2.0000     -10.291880      -280.0563
  11   2.0000     -10.290920      -280.0302
  12   2.0000     -10.287897      -279.9479
  13   2.0000     -10.287780      -279.9447
  14   2.0000     -10.274767      -279.5906
  15   2.0000     -10.262676      -279.2616
  16   2.0000      -8.076987      -219.7860
  17   2.0000      -8.075972      -219.7584
  18   2.0000      -6.035535      -164.2353
  19   2.0000      -6.034381      -164.2038
  20   2.0000      -6.031396      -164.1226
  21   2.0000      -6.030463      -164.0973
  22   2.0000      -6.027685      -164.0216
  23   2.0000      -6.026738      -163.9959
  24   2.0000      -1.007732       -27.4218
  25   2.0000      -0.985110       -26.8062
  26   2.0000      -0.912967       -24.8431
  27   2.0000      -0.907865       -24.7043
  28   2.0000      -0.873892       -23.7798
  29   2.0000      -0.853593       -23.2275
  30   2.0000      -0.848128       -23.0787
  31   2.0000      -0.817259       -22.2387
  32   2.0000      -0.784648       -21.3514
  33   2.0000      -0.772066       -21.0090
  34   2.0000      -0.702589       -19.1184
  35   2.0000      -0.696368       -18.9491
  36   2.0000      -0.689510       -18.7625
  37   2.0000      -0.660851       -17.9827
  38   2.0000      -0.651483       -17.7277
  39   2.0000      -0.619397       -16.8546
  40   2.0000      -0.599528       -16.3140
  41   2.0000      -0.570961       -15.5366
  42   2.0000      -0.566418       -15.4130
  43   2.0000      -0.558264       -15.1911
  44   2.0000      -0.530098       -14.4247
  45   2.0000      -0.525653       -14.3038
  46   2.0000      -0.522015       -14.2048
  47   2.0000      -0.517146       -14.0722
  48   2.0000      -0.514168       -13.9912
  49   2.0000      -0.501426       -13.6445
  50   2.0000      -0.493992       -13.4422
  51   2.0000      -0.481597       -13.1049
  52   2.0000      -0.471498       -12.8301
  53   2.0000      -0.461873       -12.5682
  54   2.0000      -0.459845       -12.5130
  55   2.0000      -0.450947       -12.2709
  56   2.0000      -0.444331       -12.0909
  57   2.0000      -0.435744       -11.8572
  58   2.0000      -0.430514       -11.7149
  59   2.0000      -0.423221       -11.5164
  60   2.0000      -0.418964       -11.4006
  61   2.0000      -0.407542       -11.0898
  62   2.0000      -0.405015       -11.0210
  63   2.0000      -0.345139        -9.3917
  64   2.0000      -0.329606        -8.9690
  65   2.0000      -0.328958        -8.9514
  66   2.0000      -0.298780        -8.1302
  67   0.0000       0.039027         1.0620
  68   0.0000       0.065062         1.7704
  69   0.0000       0.111455         3.0328
  70   0.0000       0.123114         3.3501
  71   0.0000       0.128355         3.4927

MULLIKEN ATOMIC CHARGES
-----------------------
   0 S :    0.107018
   1 C :   -0.104946
   2 C :   -0.088167
   3 C :    0.041395
   4 C :   -0.126672
   5 H :   -0.004904
   6 C :    0.049105
   7 H :    0.021339
   8 H :    0.016919
   9 C :   -0.071445
  10 H :    0.029966
  11 H :    0.035145
  12 C :   -0.023596
  13 H :    0.024399
  14 H :    0.031791
  15 H :    0.026839
  16 S :    0.093331
  17 C :   -0.070935
  18 C :   -0.048916
  19 C :   -0.031283
  20 C :   -0.172300
  21 H :    0.041213
  22 C :    0.112158
  23 H :    0.014095
  24 H :    0.027837
  25 C :   -0.131858
  26 H :    0.028009
  27 H :    0.046806
  28 C :    0.006182
  29 H :    0.031405
  30 H :    0.018404
  31 H :   -0.002745
  32 H :    0.032719
  33 H :    0.041694
Sum of atomic charges:   -0.0000000

LOEWDIN ATOMIC CHARGES
----------------------
   0 S :    0.403214
   1 C :   -0.192454
   2 C :   -0.059073
   3 C :   -0.055723
   4 C :   -0.188991
   5 H :    0.023929
   6 C :   -0.034538
   7 H :    0.026567
   8 H :    0.024657
   9 C :   -0.041328
  10 H :    0.028613
  11 H :    0.028240
  12 C :   -0.063356
  13 H :    0.019420
  14 H :    0.028787
  15 H :    0.024204
  16 S :    0.396057
  17 C :   -0.177389
  18 C :   -0.079617
  19 C :   -0.045758
  20 C :   -0.191462
  21 H :    0.043480
  22 C :   -0.033230
  23 H :    0.028866
  24 H :    0.038094
  25 C :   -0.049538
  26 H :    0.026390
  27 H :    0.037414
  28 C :   -0.059699
  29 H :    0.033140
  30 H :    0.016395
  31 H :    0.006169
  32 H :    0.020733
  33 H :    0.017786

  Mayer bond orders larger than 0.100000
B(  0-S ,  1-C ) :   1.1309 B(  0-S ,  4-C ) :   1.1460 B(  1-C ,  2-C ) :   1.6226
B(  1-C , 32-H ) :   0.9832 B(  2-C ,  3-C ) :   1.1992 B(  2-C ,  6-C ) :   1.0218
B(  3-C ,  4-C ) :   1.6083 B(  3-C ,  5-H ) :   1.0101 B(  4-C , 20-C ) :   1.0101
B(  6-C ,  7-H ) :   0.9400 B(  6-C ,  8-H ) :   0.9412 B(  6-C ,  9-C ) :   1.0753
B(  9-C , 10-H ) :   0.9555 B(  9-C , 11-H ) :   0.9518 B(  9-C , 12-C ) :   1.0839
B( 12-C , 13-H ) :   0.9745 B( 12-C , 14-H ) :   0.9725 B( 12-C , 15-H ) :   0.9731
B( 16-S , 17-C ) :   1.1580 B( 16-S , 20-C ) :   1.1369 B( 17-C , 18-C ) :   1.6290
B( 17-C , 33-H ) :   0.9724 B( 18-C , 19-C ) :   1.2094 B( 18-C , 21-H ) :   0.9824
B( 19-C , 20-C ) :   1.6272 B( 19-C , 22-C ) :   1.0560 B( 22-C , 23-H ) :   0.9250
B( 22-C , 24-H ) :   0.9262 B( 22-C , 25-C ) :   1.0616 B( 25-C , 26-H ) :   0.9542
B( 25-C , 27-H ) :   0.9606 B( 25-C , 28-C ) :   1.0848 B( 28-C , 29-H ) :   0.9722
B( 28-C , 30-H ) :   0.9741 B( 28-C , 31-H ) :   0.9698

Dispersion correction           -0.014136561
FINAL SINGLE POINT ENERGY     -1339.876479290941

DIPOLE MOMENT
-------------
                                X             Y             Z
Electronic contribution:    -25.18310      11.02042      13.56840
Nuclear contribution   :     25.58422     -11.51333     -13.95938
                        -----------------------------------------
Total Dipole Moment    :      0.40112      -0.49291      -0.39098
                        -----------------------------------------
Magnitude (a.u.)       :      0.74614
Magnitude (Debye)      :      1.89654

Rotational constants in cm-1:     0.018145     0.008687     0.006875
Rotational constants in MHz :   543.983265   260.421865   206.112066

                             ****ORCA TERMINATED NORMALLY****
TOTAL RUN TIME: 0 days 0 hours 0 minutes 21 seconds 756 msec
