                         Program Version 4.2.1 -  RELEASE  -
|  1> ! wB97X-D3 SP def2-SVP
|  2> %pal
|  3> nprocs 24
|  4> end
|  5>
|  6> * xyz 0 1
|  7> S 	 -67.5693 	 -0.0885668 	 -72.0488
|  8> C 	 -67.7937 	 1.23499 	 -73.2089
|  9> C 	 -68.5388 	 0.853618 	 -74.3486
| 10> C 	 -68.8732 	 -0.532711 	 -74.2359
| 11> C 	 -68.3148 	 -1.23741 	 -73.1235
| 12> H 	 -69.4053 	 -1.09722 	 -75.0027
| 13> C 	 -69.0113 	 1.5903 	 -75.6207
| 14> H 	 -70.073 	 1.36395 	 -75.6863
| 15> H 	 -68.3722 	 1.28437 	 -76.4428
| 16> C 	 -68.9637 	 3.10124 	 -75.4937
| 17> H 	 -69.6798 	 3.44846 	 -74.7329
| 18> H 	 -67.9291 	 3.37959 	 -75.3134
| 19> C 	 -69.4524 	 3.89419 	 -76.7132
| 20> H 	 -70.4275 	 3.62306 	 -77.0201
| 21> H 	 -69.3239 	 4.90378 	 -76.438
| 22> H 	 -68.7554 	 3.76672 	 -77.525
| 23> S 	 -66.5794 	 -3.33817 	 -73.1653
| 24> C 	 -67.1049 	 -4.95197 	 -72.853
| 25> C 	 -68.4851 	 -4.99479 	 -72.8615
| 26> C 	 -69.128 	 -3.72004 	 -72.8548
| 27> C 	 -68.1685 	 -2.68725 	 -72.9061
| 28> H 	 -68.9554 	 -5.95487 	 -72.7526
| 29> C 	 -70.6519 	 -3.44877 	 -72.7123
| 30> H 	 -71.0944 	 -4.44685 	 -72.7241
| 31> H 	 -70.8883 	 -2.99612 	 -73.7358
| 32> C 	 -71.0968 	 -2.55626 	 -71.5431
| 33> H 	 -72.1509 	 -2.62192 	 -71.2651
| 34> H 	 -70.8721 	 -1.52464 	 -71.7028
| 35> C 	 -70.389 	 -2.91707 	 -70.1941
| 36> H 	 -70.8442 	 -2.54166 	 -69.291
| 37> H 	 -69.3987 	 -2.41383 	 -70.2911
| 38> H 	 -70.0617 	 -3.98328 	 -70.0871
| 39> H 	 -67.6394 	 2.29897 	 -73.0076
| 40> H 	 -66.4478 	 -5.79643 	 -72.785
| 41> *
| 42>
| 43>                          ****END OF INPUT****

CARTESIAN COORDINATES (ANGSTROEM)
---------------------------------
  S    -67.569300   -0.088567  -72.048800
  C    -67.793700    1.234990  -73.208900
  C    -68.538800    0.853618  -74.348600
  C    -68.873200   -0.532711  -74.235900
  C    -68.314800   -1.237410  -73.123500
  H    -69.405300   -1.097220  -75.002700
  C    -69.011300    1.590300  -75.620700
  H    -70.073000    1.363950  -75.686300
  H    -68.372200    1.284370  -76.442800
  C    -68.963700    3.101240  -75.493700
  H    -69.679800    3.448460  -74.732900
  H    -67.929100    3.379590  -75.313400
  C    -69.452400    3.894190  -76.713200
  H    -70.427500    3.623060  -77.020100
  H    -69.323900    4.903780  -76.438000
  H    -68.755400    3.766720  -77.525000
  S    -66.579400   -3.338170  -73.165300
  C    -67.104900   -4.951970  -72.853000
  C    -68.485100   -4.994790  -72.861500
  C    -69.128000   -3.720040  -72.854800
  C    -68.168500   -2.687250  -72.906100
  H    -68.955400   -5.954870  -72.752600
  C    -70.651900   -3.448770  -72.712300
  H    -71.094400   -4.446850  -72.724100
  H    -70.888300   -2.996120  -73.735800
  C    -71.096800   -2.556260  -71.543100
  H    -72.150900   -2.621920  -71.265100
  H    -70.872100   -1.524640  -71.702800
  C    -70.389000   -2.917070  -70.194100
  H    -70.844200   -2.541660  -69.291000
  H    -69.398700   -2.413830  -70.291100
  H    -70.061700   -3.983280  -70.087100
  H    -67.639400    2.298970  -73.007600
  H    -66.447800   -5.796430  -72.785000

 Total Charge           Charge          ....    0
 Multiplicity           Mult            ....    1
 Number of Electrons    NEL             ....  134
 Basis Dimension        Dim             ....  322

ORBITAL ENERGIES
----------------

  NO   OCC          E(Eh)            E(eV)
   0   2.0000     -88.970506     -2421.0106
   1   2.0000     -88.963286     -2420.8141
   2   2.0000     -10.333467      -281.1879
   3   2.0000     -10.325175      -280.9623
   4   2.0000     -10.320541      -280.8362
   5   2.0000     -10.314404      -280.6692
   6   2.0000     -10.307521      -280.4819
   7   2.0000     -10.307441      -280.4797
   8   2.0000     -10.301923      -280.3296
   9   2.0000     -10.297788      -280.2171
  10   2.0000     -10.297655      -280.2134
  11   2.0000     -10.293277      -280.0943
  12   2.0000     -10.285909      -279.8938
  13   2.0000     -10.284348      -279.8513
  14   2.0000     -10.272133      -279.5189
  15   2.0000     -10.271514      -279.5021
  16   2.0000      -8.084348      -219.9863
  17   2.0000      -8.078688      -219.8323
  18   2.0000      -6.042896      -164.4356
  19   2.0000      -6.038802      -164.3242
  20   2.0000      -6.037071      -164.2770
  21   2.0000      -6.035301      -164.2289
  22   2.0000      -6.033020      -164.1668
  23   2.0000      -6.029623      -164.0744
  24   2.0000      -1.003924       -27.3182
  25   2.0000      -0.980052       -26.6686
  26   2.0000      -0.916627       -24.9427
  27   2.0000      -0.901097       -24.5201
  28   2.0000      -0.867230       -23.5985
  29   2.0000      -0.848445       -23.0874
  30   2.0000      -0.842115       -22.9151
  31   2.0000      -0.806266       -21.9396
  32   2.0000      -0.786366       -21.3981
  33   2.0000      -0.770973       -20.9792
  34   2.0000      -0.707765       -19.2593
  35   2.0000      -0.697112       -18.9694
  36   2.0000      -0.683599       -18.6017
  37   2.0000      -0.660073       -17.9615
  38   2.0000      -0.634174       -17.2568
  39   2.0000      -0.609652       -16.5895
  40   2.0000      -0.590939       -16.0803
  41   2.0000      -0.582612       -15.8537
  42   2.0000      -0.566730       -15.4215
  43   2.0000      -0.553699       -15.0669
  44   2.0000      -0.546681       -14.8760
  45   2.0000      -0.525315       -14.2945
  46   2.0000      -0.516152       -14.0452
  47   2.0000      -0.511256       -13.9120
  48   2.0000      -0.500050       -13.6071
  49   2.0000      -0.497561       -13.5393
  50   2.0000      -0.480748       -13.0818
  51   2.0000      -0.479315       -13.0428
  52   2.0000      -0.474222       -12.9042
  53   2.0000      -0.468509       -12.7488
  54   2.0000      -0.452213       -12.3053
  55   2.0000      -0.447394       -12.1742
  56   2.0000      -0.442805       -12.0493
  57   2.0000      -0.432188       -11.7604
  58   2.0000      -0.430367       -11.7109
  59   2.0000      -0.426417       -11.6034
  60   2.0000      -0.421622       -11.4729
  61   2.0000      -0.417049       -11.3485
  62   2.0000      -0.400321       -10.8933
  63   2.0000      -0.338670        -9.2157
  64   2.0000      -0.330422        -8.9913
  65   2.0000      -0.325051        -8.8451
  66   2.0000      -0.295922        -8.0524
  67   0.0000       0.029054         0.7906
  68   0.0000       0.061508         1.6737
  69   0.0000       0.109858         2.9894
  70   0.0000       0.118545         3.2258
  71   0.0000       0.127999         3.4830

MULLIKEN ATOMIC CHARGES
-----------------------
   0 S :    0.123977
   1 C :   -0.128723
   2 C :   -0.112403
   3 C :    0.042562
   4 C :   -0.198370
   5 H :    0.013582
   6 C :    0.094847
   7 H :    0.035027
   8 H :    0.050878
   9 C :   -0.153927
  10 H :    0.036896
  11 H :    0.031749
  12 C :    0.014235
  13 H :    0.026420
  14 H :    0.024644
  15 H :    0.014092
  16 S :    0.120979
  17 C :   -0.087317
  18 C :   -0.044593
  19 C :   -0.060204
  20 C :   -0.165298
  21 H :    0.012939
  22 C :    0.091631
  23 H :    0.019313
  24 H :    0.046474
  25 C :   -0.050437
  26 H :    0.036920
  27 H :    0.038832
  28 C :   -0.080219
  29 H :    0.037443
  30 H :    0.023068
  31 H :    0.035514
  32 H :    0.056273
  33 H :    0.053196
Sum of atomic charges:   -0.0000000

LOEWDIN ATOMIC CHARGES
----------------------
   0 S :    0.414179
   1 C :   -0.203093
   2 C :   -0.062684
   3 C :   -0.059534
   4 C :   -0.210241
   5 H :    0.028010
   6 C :   -0.025786
   7 H :    0.036402
   8 H :    0.037706
   9 C :   -0.045631
  10 H :    0.027533
  11 H :    0.021703
  12 C :   -0.052566
  13 H :    0.018558
  14 H :    0.024883
  15 H :    0.020396
  16 S :    0.430884
  17 C :   -0.189410
  18 C :   -0.076361
  19 C :   -0.054899
  20 C :   -0.217940
  21 H :    0.028063
  22 C :   -0.030085
  23 H :    0.029623
  24 H :    0.042568
  25 C :   -0.040986
  26 H :    0.027545
  27 H :    0.024149
  28 C :   -0.075695
  29 H :    0.021702
  30 H :    0.025905
  31 H :    0.028229
  32 H :    0.029445
  33 H :    0.027426

  Mayer bond orders larger than 0.100000
B(  0-S ,  1-C ) :   1.1456 B(  0-S ,  4-C ) :   1.1654 B(  1-C ,  2-C ) :   1.5913
B(  1-C ,  4-C ) :   0.1062 B(  1-C , 32-H ) :   0.9606 B(  2-C ,  3-C ) :   1.2833
B(  2-C ,  6-C ) :   0.9974 B(  3-C ,  4-C ) :   1.5419 B(  3-C ,  5-H ) :   0.9881
B(  4-C , 20-C ) :   1.0233 B(  6-C ,  7-H ) :   0.9423 B(  6-C ,  8-H ) :   0.9383
B(  6-C ,  9-C ) :   1.0866 B(  9-C , 10-H ) :   0.9623 B(  9-C , 11-H ) :   0.9491
B(  9-C , 12-C ) :   1.0916 B( 12-C , 13-H ) :   0.9750 B( 12-C , 14-H ) :   0.9716
B( 12-C , 15-H ) :   0.9711 B( 16-S , 17-C ) :   1.1716 B( 16-S , 20-C ) :   1.1729
B( 17-C , 18-C ) :   1.5773 B( 17-C , 20-C ) :   0.1062 B( 17-C , 33-H ) :   0.9723
B( 18-C , 19-C ) :   1.2708 B( 18-C , 21-H ) :   0.9917 B( 19-C , 20-C ) :   1.5524
B( 19-C , 22-C ) :   1.0175 B( 22-C , 23-H ) :   0.9373 B( 22-C , 24-H ) :   0.9352
B( 22-C , 25-C ) :   1.0628 B( 25-C , 26-H ) :   0.9642 B( 25-C , 27-H ) :   0.9553
B( 25-C , 28-C ) :   1.0675 B( 28-C , 29-H ) :   0.9779 B( 28-C , 30-H ) :   0.9692
B( 28-C , 31-H ) :   0.9774

Dispersion correction           -0.015006629
FINAL SINGLE POINT ENERGY     -1339.867197682109

DIPOLE MOMENT
-------------
                                X             Y             Z
Electronic contribution:     16.98865     -12.46262       6.19223
Nuclear contribution   :    -17.41406      12.59582      -6.60661
                        -----------------------------------------
Total Dipole Moment    :     -0.42540       0.13321      -0.41438
                        -----------------------------------------
Magnitude (a.u.)       :      0.60863
Magnitude (Debye)      :      1.54700

Rotational constants in cm-1:     0.023310     0.007270     0.006716
Rotational constants in MHz :   698.813920   217.945250   201.349929

                             ****ORCA TERMINATED NORMALLY****
TOTAL RUN TIME: 0 days 0 hours 0 minutes 21 seconds 553 msec
