                         Program Version 4.2.1 -  RELEASE  -
|  1> ! wB97X-D3 SP def2-SVP
|  2> %pal
|  3> nprocs 24
|  4> end
|  5>
|  6> * xyz 0 1
|  7> S 	 -58.5007 	 9.60583 	 -92.9571
|  8> C 	 -57.4922 	 8.55616 	 -93.8964
|  9> C 	 -56.1846 	 9.11353 	 -93.9976
| 10> C 	 -56.153 	 10.3867 	 -93.3594
| 11> C 	 -57.3196 	 10.8264 	 -92.9007
| 12> H 	 -55.2839 	 11.0034 	 -93.3344
| 13> C 	 -55.0403 	 8.45144 	 -94.7007
| 14> H 	 -55.494 	 7.78931 	 -95.5269
| 15> H 	 -54.3996 	 7.87472 	 -94.0337
| 16> C 	 -54.0225 	 9.38818 	 -95.4793
| 17> H 	 -54.6739 	 9.71952 	 -96.2251
| 18> H 	 -53.7259 	 10.1983 	 -94.7862
| 19> C 	 -52.8035 	 8.66535 	 -96.1305
| 20> H 	 -53.0586 	 7.89471 	 -96.8065
| 21> H 	 -52.1002 	 9.31062 	 -96.7012
| 22> H 	 -52.2384 	 8.17564 	 -95.2963
| 23> S 	 -58.1738 	 12.2777 	 -90.7193
| 24> C 	 -57.7091 	 13.949 	 -90.6051
| 25> C 	 -57.1366 	 14.4333 	 -91.7672
| 26> C 	 -57.0786 	 13.4064 	 -92.7671
| 27> C 	 -57.4955 	 12.1491 	 -92.3315
| 28> H 	 -56.8931 	 15.5449 	 -91.9758
| 29> C 	 -56.5696 	 13.7282 	 -94.1214
| 30> H 	 -57.4352 	 13.9023 	 -94.7937
| 31> H 	 -56.1043 	 12.8243 	 -94.4702
| 32> C 	 -55.5962 	 14.9299 	 -94.1816
| 33> H 	 -54.916 	 15.0042 	 -93.35
| 34> H 	 -56.1993 	 15.8157 	 -94.1623
| 35> C 	 -54.7751 	 15.0196 	 -95.5304
| 36> H 	 -55.407 	 15.1353 	 -96.3949
| 37> H 	 -54.2099 	 14.1118 	 -95.7505
| 38> H 	 -54.0711 	 15.849 	 -95.5773
| 39> H 	 -57.7143 	 7.57093 	 -94.272
| 40> H 	 -58.0067 	 14.5137 	 -89.8047
| 41> *
| 42>
| 43>                          ****END OF INPUT****

CARTESIAN COORDINATES (ANGSTROEM)
---------------------------------
  S    -58.500700    9.605830  -92.957100
  C    -57.492200    8.556160  -93.896400
  C    -56.184600    9.113530  -93.997600
  C    -56.153000   10.386700  -93.359400
  C    -57.319600   10.826400  -92.900700
  H    -55.283900   11.003400  -93.334400
  C    -55.040300    8.451440  -94.700700
  H    -55.494000    7.789310  -95.526900
  H    -54.399600    7.874720  -94.033700
  C    -54.022500    9.388180  -95.479300
  H    -54.673900    9.719520  -96.225100
  H    -53.725900   10.198300  -94.786200
  C    -52.803500    8.665350  -96.130500
  H    -53.058600    7.894710  -96.806500
  H    -52.100200    9.310620  -96.701200
  H    -52.238400    8.175640  -95.296300
  S    -58.173800   12.277700  -90.719300
  C    -57.709100   13.949000  -90.605100
  C    -57.136600   14.433300  -91.767200
  C    -57.078600   13.406400  -92.767100
  C    -57.495500   12.149100  -92.331500
  H    -56.893100   15.544900  -91.975800
  C    -56.569600   13.728200  -94.121400
  H    -57.435200   13.902300  -94.793700
  H    -56.104300   12.824300  -94.470200
  C    -55.596200   14.929900  -94.181600
  H    -54.916000   15.004200  -93.350000
  H    -56.199300   15.815700  -94.162300
  C    -54.775100   15.019600  -95.530400
  H    -55.407000   15.135300  -96.394900
  H    -54.209900   14.111800  -95.750500
  H    -54.071100   15.849000  -95.577300
  H    -57.714300    7.570930  -94.272000
  H    -58.006700   14.513700  -89.804700

 Total Charge           Charge          ....    0
 Multiplicity           Mult            ....    1
 Number of Electrons    NEL             ....  134
 Basis Dimension        Dim             ....  322

ORBITAL ENERGIES
----------------

  NO   OCC          E(Eh)            E(eV)
   0   2.0000     -88.967735     -2420.9351
   1   2.0000     -88.963938     -2420.8318
   2   2.0000     -10.324150      -280.9344
   3   2.0000     -10.320119      -280.8247
   4   2.0000     -10.315908      -280.7101
   5   2.0000     -10.312387      -280.6143
   6   2.0000     -10.303928      -280.3841
   7   2.0000     -10.301514      -280.3185
   8   2.0000     -10.300338      -280.2864
   9   2.0000     -10.300180      -280.2821
  10   2.0000     -10.289969      -280.0043
  11   2.0000     -10.289695      -279.9968
  12   2.0000     -10.288266      -279.9580
  13   2.0000     -10.285815      -279.8912
  14   2.0000     -10.284044      -279.8431
  15   2.0000     -10.279456      -279.7182
  16   2.0000      -8.083504      -219.9633
  17   2.0000      -8.079088      -219.8432
  18   2.0000      -6.041945      -164.4097
  19   2.0000      -6.037764      -164.2959
  20   2.0000      -6.037502      -164.2888
  21   2.0000      -6.034400      -164.2044
  22   2.0000      -6.033564      -164.1816
  23   2.0000      -6.029915      -164.0823
  24   2.0000      -1.015440       -27.6315
  25   2.0000      -0.988364       -26.8948
  26   2.0000      -0.909508       -24.7490
  27   2.0000      -0.907437       -24.6926
  28   2.0000      -0.872047       -23.7296
  29   2.0000      -0.852210       -23.1898
  30   2.0000      -0.845044       -22.9948
  31   2.0000      -0.817446       -22.2438
  32   2.0000      -0.781302       -21.2603
  33   2.0000      -0.771316       -20.9886
  34   2.0000      -0.715564       -19.4715
  35   2.0000      -0.707295       -19.2465
  36   2.0000      -0.694490       -18.8980
  37   2.0000      -0.651812       -17.7367
  38   2.0000      -0.642248       -17.4765
  39   2.0000      -0.625081       -17.0093
  40   2.0000      -0.601170       -16.3587
  41   2.0000      -0.576111       -15.6768
  42   2.0000      -0.567091       -15.4313
  43   2.0000      -0.562560       -15.3080
  44   2.0000      -0.527784       -14.3617
  45   2.0000      -0.520989       -14.1768
  46   2.0000      -0.513268       -13.9667
  47   2.0000      -0.510276       -13.8853
  48   2.0000      -0.502666       -13.6783
  49   2.0000      -0.497147       -13.5281
  50   2.0000      -0.492689       -13.4068
  51   2.0000      -0.481512       -13.1026
  52   2.0000      -0.473211       -12.8767
  53   2.0000      -0.468046       -12.7362
  54   2.0000      -0.462689       -12.5904
  55   2.0000      -0.455666       -12.3993
  56   2.0000      -0.452516       -12.3136
  57   2.0000      -0.438416       -11.9299
  58   2.0000      -0.431793       -11.7497
  59   2.0000      -0.429351       -11.6832
  60   2.0000      -0.422826       -11.5057
  61   2.0000      -0.419401       -11.4125
  62   2.0000      -0.410576       -11.1723
  63   2.0000      -0.348820        -9.4919
  64   2.0000      -0.332518        -9.0483
  65   2.0000      -0.325990        -8.8707
  66   2.0000      -0.290323        -7.9001
  67   0.0000       0.031938         0.8691
  68   0.0000       0.069470         1.8904
  69   0.0000       0.113341         3.0842
  70   0.0000       0.121176         3.2974
  71   0.0000       0.132242         3.5985

MULLIKEN ATOMIC CHARGES
-----------------------
   0 S :    0.125673
   1 C :   -0.111177
   2 C :   -0.084953
   3 C :    0.026898
   4 C :   -0.142191
   5 H :    0.003811
   6 C :    0.021922
   7 H :    0.037981
   8 H :    0.040063
   9 C :   -0.101056
  10 H :    0.025199
  11 H :    0.045667
  12 C :   -0.047799
  13 H :    0.023699
  14 H :    0.045544
  15 H :    0.032878
  16 S :    0.100730
  17 C :   -0.053502
  18 C :   -0.057277
  19 C :   -0.088391
  20 C :   -0.136026
  21 H :    0.058257
  22 C :    0.100489
  23 H :    0.048621
  24 H :    0.005339
  25 C :   -0.098191
  26 H :    0.036520
  27 H :    0.029163
  28 C :   -0.039260
  29 H :    0.021905
  30 H :    0.028248
  31 H :    0.031884
  32 H :    0.042467
  33 H :    0.026865
Sum of atomic charges:    0.0000000

LOEWDIN ATOMIC CHARGES
----------------------
   0 S :    0.435980
   1 C :   -0.203872
   2 C :   -0.061496
   3 C :   -0.064065
   4 C :   -0.212662
   5 H :    0.026117
   6 C :   -0.037397
   7 H :    0.039497
   8 H :    0.027817
   9 C :   -0.039445
  10 H :    0.015920
  11 H :    0.024168
  12 C :   -0.067616
  13 H :    0.019098
  14 H :    0.033246
  15 H :    0.029691
  16 S :    0.408369
  17 C :   -0.169909
  18 C :   -0.082366
  19 C :   -0.056338
  20 C :   -0.200397
  21 H :    0.051491
  22 C :   -0.033131
  23 H :    0.043495
  24 H :    0.024712
  25 C :   -0.036692
  26 H :    0.022382
  27 H :    0.021156
  28 C :   -0.065298
  29 H :    0.022019
  30 H :    0.023362
  31 H :    0.025660
  32 H :    0.027392
  33 H :    0.009113

  Mayer bond orders larger than 0.100000
B(  0-S ,  1-C ) :   1.1506 B(  0-S ,  4-C ) :   1.1589 B(  1-C ,  2-C ) :   1.5787
B(  1-C , 32-H ) :   0.9728 B(  2-C ,  3-C ) :   1.2609 B(  2-C ,  6-C ) :   1.0273
B(  3-C ,  4-C ) :   1.5742 B(  3-C ,  5-H ) :   0.9939 B(  4-C , 20-C ) :   1.0179
B(  6-C ,  7-H ) :   0.9503 B(  6-C ,  8-H ) :   0.9358 B(  6-C ,  9-C ) :   1.0469
B(  9-C , 10-H ) :   0.9651 B(  9-C , 11-H ) :   0.9553 B(  9-C , 12-C ) :   1.0800
B( 12-C , 13-H ) :   0.9754 B( 12-C , 14-H ) :   0.9753 B( 12-C , 15-H ) :   0.9747
B( 16-S , 17-C ) :   1.1746 B( 16-S , 20-C ) :   1.1341 B( 17-C , 18-C ) :   1.5763
B( 17-C , 20-C ) :   0.1019 B( 17-C , 33-H ) :   0.9748 B( 18-C , 19-C ) :   1.2642
B( 18-C , 21-H ) :   0.9709 B( 19-C , 20-C ) :   1.5943 B( 19-C , 22-C ) :   1.0445
B( 22-C , 23-H ) :   0.9161 B( 22-C , 24-H ) :   0.9329 B( 22-C , 25-C ) :   1.0687
B( 25-C , 26-H ) :   0.9645 B( 25-C , 27-H ) :   0.9440 B( 25-C , 28-C ) :   1.0790
B( 28-C , 29-H ) :   0.9747 B( 28-C , 30-H ) :   0.9775 B( 28-C , 31-H ) :   0.9766

Dispersion correction           -0.013690236
FINAL SINGLE POINT ENERGY     -1339.872310140377

DIPOLE MOMENT
-------------
                                X             Y             Z
Electronic contribution:    -24.81161      -5.15757      22.18564
Nuclear contribution   :     25.30461       5.38046     -22.65862
                        -----------------------------------------
Total Dipole Moment    :      0.49300       0.22289      -0.47298
                        -----------------------------------------
Magnitude (a.u.)       :      0.71864
Magnitude (Debye)      :      1.82663

Rotational constants in cm-1:     0.015475     0.009720     0.006468
Rotational constants in MHz :   463.928700   291.413231   193.911322

                             ****ORCA TERMINATED NORMALLY****
TOTAL RUN TIME: 0 days 0 hours 0 minutes 20 seconds 360 msec
