                         Program Version 4.2.1 -  RELEASE  -
|  1> ! wB97X-D3 SP def2-SVP
|  2> %pal
|  3> nprocs 24
|  4> end
|  5>
|  6> * xyz 0 1
|  7> S 	 -133.605 	 9.52522 	 -1.36793
|  8> C 	 -134.213 	 8.77928 	 0.123295
|  9> C 	 -135.572 	 8.79912 	 0.204165
| 10> C 	 -136.119 	 9.57727 	 -0.868978
| 11> C 	 -135.182 	 10.1517 	 -1.74099
| 12> H 	 -137.175 	 9.79661 	 -1.02692
| 13> C 	 -136.361 	 8.23024 	 1.40663
| 14> H 	 -135.864 	 8.64947 	 2.2636
| 15> H 	 -136.114 	 7.16386 	 1.36279
| 16> C 	 -137.865 	 8.38851 	 1.40274
| 17> H 	 -138.257 	 8.19193 	 2.41846
| 18> H 	 -138.199 	 9.3909 	 1.24213
| 19> C 	 -138.566 	 7.37623 	 0.445526
| 20> H 	 -139.708 	 7.36312 	 0.713617
| 21> H 	 -138.324 	 7.58516 	 -0.552462
| 22> H 	 -138.174 	 6.40339 	 0.899271
| 23> S 	 -135.556 	 10.3602 	 -4.57414
| 24> C 	 -136.154 	 11.8292 	 -5.18858
| 25> C 	 -136.158 	 12.7916 	 -4.26501
| 26> C 	 -135.779 	 12.3611 	 -2.94452
| 27> C 	 -135.484 	 11.0089 	 -2.88425
| 28> H 	 -136.579 	 13.7829 	 -4.55809
| 29> C 	 -135.879 	 13.2805 	 -1.72149
| 30> H 	 -135.496 	 14.2665 	 -2.00328
| 31> H 	 -135.275 	 12.8927 	 -0.973033
| 32> C 	 -137.336 	 13.4251 	 -1.22121
| 33> H 	 -137.728 	 12.5113 	 -0.943581
| 34> H 	 -138 	 13.8458 	 -2.05392
| 35> C 	 -137.38 	 14.1114 	 0.117754
| 36> H 	 -138.372 	 14.1078 	 0.50361
| 37> H 	 -137.199 	 15.1704 	 0.201742
| 38> H 	 -136.855 	 13.5726 	 0.892931
| 39> H 	 -133.57 	 8.5005 	 0.969739
| 40> H 	 -136.537 	 11.9778 	 -6.21958
| 41> *
| 42>
| 43>                          ****END OF INPUT****

CARTESIAN COORDINATES (ANGSTROEM)
---------------------------------
  S    -133.605000    9.525220   -1.367930
  C    -134.213000    8.779280    0.123295
  C    -135.572000    8.799120    0.204165
  C    -136.119000    9.577270   -0.868978
  C    -135.182000   10.151700   -1.740990
  H    -137.175000    9.796610   -1.026920
  C    -136.361000    8.230240    1.406630
  H    -135.864000    8.649470    2.263600
  H    -136.114000    7.163860    1.362790
  C    -137.865000    8.388510    1.402740
  H    -138.257000    8.191930    2.418460
  H    -138.199000    9.390900    1.242130
  C    -138.566000    7.376230    0.445526
  H    -139.708000    7.363120    0.713617
  H    -138.324000    7.585160   -0.552462
  H    -138.174000    6.403390    0.899271
  S    -135.556000   10.360200   -4.574140
  C    -136.154000   11.829200   -5.188580
  C    -136.158000   12.791600   -4.265010
  C    -135.779000   12.361100   -2.944520
  C    -135.484000   11.008900   -2.884250
  H    -136.579000   13.782900   -4.558090
  C    -135.879000   13.280500   -1.721490
  H    -135.496000   14.266500   -2.003280
  H    -135.275000   12.892700   -0.973033
  C    -137.336000   13.425100   -1.221210
  H    -137.728000   12.511300   -0.943581
  H    -138.000000   13.845800   -2.053920
  C    -137.380000   14.111400    0.117754
  H    -138.372000   14.107800    0.503610
  H    -137.199000   15.170400    0.201742
  H    -136.855000   13.572600    0.892931
  H    -133.570000    8.500500    0.969739
  H    -136.537000   11.977800   -6.219580

 Total Charge           Charge          ....    0
 Multiplicity           Mult            ....    1
 Number of Electrons    NEL             ....  134
 Basis Dimension        Dim             ....  322

ORBITAL ENERGIES
----------------

  NO   OCC          E(Eh)            E(eV)
   0   2.0000     -88.966028     -2420.8887
   1   2.0000     -88.958103     -2420.6730
   2   2.0000     -10.330769      -281.1145
   3   2.0000     -10.327463      -281.0246
   4   2.0000     -10.314018      -280.6587
   5   2.0000     -10.312578      -280.6195
   6   2.0000     -10.304377      -280.3963
   7   2.0000     -10.302941      -280.3573
   8   2.0000     -10.298160      -280.2272
   9   2.0000     -10.296316      -280.1770
  10   2.0000     -10.291589      -280.0484
  11   2.0000     -10.289357      -279.9876
  12   2.0000     -10.289169      -279.9825
  13   2.0000     -10.285246      -279.8758
  14   2.0000     -10.284920      -279.8669
  15   2.0000     -10.269506      -279.4475
  16   2.0000      -8.080539      -219.8826
  17   2.0000      -8.073397      -219.6883
  18   2.0000      -6.039033      -164.3304
  19   2.0000      -6.035053      -164.2222
  20   2.0000      -6.031964      -164.1381
  21   2.0000      -6.031337      -164.1210
  22   2.0000      -6.027841      -164.0259
  23   2.0000      -6.024036      -163.9224
  24   2.0000      -1.004034       -27.3211
  25   2.0000      -0.985724       -26.8229
  26   2.0000      -0.915121       -24.9017
  27   2.0000      -0.910910       -24.7871
  28   2.0000      -0.871502       -23.7148
  29   2.0000      -0.850287       -23.1375
  30   2.0000      -0.840955       -22.8835
  31   2.0000      -0.814186       -22.1551
  32   2.0000      -0.785457       -21.3734
  33   2.0000      -0.773332       -21.0434
  34   2.0000      -0.710823       -19.3425
  35   2.0000      -0.701592       -19.0913
  36   2.0000      -0.691808       -18.8251
  37   2.0000      -0.649852       -17.6834
  38   2.0000      -0.638594       -17.3770
  39   2.0000      -0.619772       -16.8649
  40   2.0000      -0.596582       -16.2338
  41   2.0000      -0.573209       -15.5978
  42   2.0000      -0.567997       -15.4560
  43   2.0000      -0.552981       -15.0474
  44   2.0000      -0.545084       -14.8325
  45   2.0000      -0.522314       -14.2129
  46   2.0000      -0.516718       -14.0606
  47   2.0000      -0.512207       -13.9379
  48   2.0000      -0.508514       -13.8374
  49   2.0000      -0.496953       -13.5228
  50   2.0000      -0.490010       -13.3338
  51   2.0000      -0.477721       -12.9994
  52   2.0000      -0.474497       -12.9117
  53   2.0000      -0.464527       -12.6404
  54   2.0000      -0.456300       -12.4166
  55   2.0000      -0.447339       -12.1727
  56   2.0000      -0.442935       -12.0529
  57   2.0000      -0.432690       -11.7741
  58   2.0000      -0.431687       -11.7468
  59   2.0000      -0.430090       -11.7033
  60   2.0000      -0.423649       -11.5281
  61   2.0000      -0.416705       -11.3391
  62   2.0000      -0.411971       -11.2103
  63   2.0000      -0.332888        -9.0583
  64   2.0000      -0.330921        -9.0048
  65   2.0000      -0.325320        -8.8524
  66   2.0000      -0.305478        -8.3125
  67   0.0000       0.039660         1.0792
  68   0.0000       0.054776         1.4905
  69   0.0000       0.119867         3.2617
  70   0.0000       0.125180         3.4063
  71   0.0000       0.127160         3.4602

MULLIKEN ATOMIC CHARGES
-----------------------
   0 S :    0.121774
   1 C :   -0.154678
   2 C :   -0.081386
   3 C :    0.020124
   4 C :   -0.180747
   5 H :    0.018919
   6 C :    0.082018
   7 H :    0.036574
   8 H :    0.034278
   9 C :   -0.071263
  10 H :    0.026264
  11 H :    0.021037
  12 C :   -0.084664
  13 H :    0.054576
  14 H :    0.050331
  15 H :    0.039119
  16 S :    0.095945
  17 C :   -0.094744
  18 C :   -0.050239
  19 C :   -0.030388
  20 C :   -0.182261
  21 H :    0.028558
  22 C :    0.122562
  23 H :    0.023494
  24 H :    0.007107
  25 C :   -0.050534
  26 H :    0.002517
  27 H :    0.039701
  28 C :   -0.028332
  29 H :    0.008361
  30 H :    0.022441
  31 H :    0.027478
  32 H :    0.056023
  33 H :    0.070034
Sum of atomic charges:    0.0000000

LOEWDIN ATOMIC CHARGES
----------------------
   0 S :    0.404493
   1 C :   -0.193990
   2 C :   -0.064727
   3 C :   -0.062877
   4 C :   -0.203483
   5 H :    0.029143
   6 C :   -0.029202
   7 H :    0.033177
   8 H :    0.036286
   9 C :   -0.049196
  10 H :    0.029950
  11 H :    0.015367
  12 C :   -0.064213
  13 H :    0.040228
  14 H :    0.015821
  15 H :    0.034429
  16 S :    0.386961
  17 C :   -0.195455
  18 C :   -0.091125
  19 C :   -0.043088
  20 C :   -0.192875
  21 H :    0.037487
  22 C :   -0.018274
  23 H :    0.031905
  24 H :    0.020368
  25 C :   -0.033707
  26 H :    0.015151
  27 H :    0.032850
  28 C :   -0.067845
  29 H :    0.023619
  30 H :    0.020719
  31 H :    0.027723
  32 H :    0.032644
  33 H :    0.041734

  Mayer bond orders larger than 0.100000
B(  0-S ,  1-C ) :   1.1402 B(  0-S ,  4-C ) :   1.1529 B(  1-C ,  2-C ) :   1.6289
B(  1-C ,  4-C ) :   0.1014 B(  1-C , 32-H ) :   0.9668 B(  2-C ,  3-C ) :   1.2451
B(  2-C ,  6-C ) :   0.9778 B(  3-C ,  4-C ) :   1.5764 B(  3-C ,  5-H ) :   0.9840
B(  4-C , 20-C ) :   1.0376 B(  6-C ,  7-H ) :   0.9419 B(  6-C ,  8-H ) :   0.9392
B(  6-C ,  9-C ) :   1.0872 B(  9-C , 10-H ) :   0.9529 B(  9-C , 11-H ) :   0.9501
B(  9-C , 12-C ) :   1.0584 B( 12-C , 13-H ) :   0.9750 B( 12-C , 14-H ) :   0.9818
B( 12-C , 15-H ) :   0.9747 B( 16-S , 17-C ) :   1.1587 B( 16-S , 20-C ) :   1.1133
B( 17-C , 18-C ) :   1.6469 B( 17-C , 33-H ) :   0.9566 B( 18-C , 19-C ) :   1.2116
B( 18-C , 21-H ) :   0.9842 B( 19-C , 20-C ) :   1.6316 B( 19-C , 22-C ) :   1.0545
B( 22-C , 23-H ) :   0.9327 B( 22-C , 24-H ) :   0.9231 B( 22-C , 25-C ) :   1.0763
B( 25-C , 26-H ) :   0.9479 B( 25-C , 27-H ) :   0.9546 B( 25-C , 28-C ) :   1.0884
B( 28-C , 29-H ) :   0.9677 B( 28-C , 30-H ) :   0.9728 B( 28-C , 31-H ) :   0.9701

Dispersion correction           -0.014580921
FINAL SINGLE POINT ENERGY     -1339.865645709963

DIPOLE MOMENT
-------------
                                X             Y             Z
Electronic contribution:     19.25116      -5.03996     -20.21580
Nuclear contribution   :    -19.84057       5.29618      20.83218
                        -----------------------------------------
Total Dipole Moment    :     -0.58941       0.25623       0.61638
                        -----------------------------------------
Magnitude (a.u.)       :      0.89049
Magnitude (Debye)      :      2.26346

Rotational constants in cm-1:     0.016273     0.009324     0.007723
Rotational constants in MHz :   487.843692   279.533135   231.525778

                             ****ORCA TERMINATED NORMALLY****
TOTAL RUN TIME: 0 days 0 hours 0 minutes 21 seconds 993 msec
