                         Program Version 4.2.1 -  RELEASE  -
|  1> ! wB97X-D3 SP def2-SVP
|  2> %pal
|  3> nprocs 24
|  4> end
|  5>
|  6> * xyz 0 1
|  7> S 	 41.2711 	 -18.3301 	 -111.272
|  8> C 	 42.8791 	 -18.8401 	 -111.825
|  9> C 	 43.3099 	 -19.9595 	 -111.235
| 10> C 	 42.3546 	 -20.4576 	 -110.241
| 11> C 	 41.322 	 -19.5725 	 -110.016
| 12> H 	 42.466 	 -21.3846 	 -109.646
| 13> C 	 44.6276 	 -20.6749 	 -111.571
| 14> H 	 45.0576 	 -21.0557 	 -110.609
| 15> H 	 45.3476 	 -19.9055 	 -111.922
| 16> C 	 44.5458 	 -21.7881 	 -112.582
| 17> H 	 45.4465 	 -22.3483 	 -112.693
| 18> H 	 43.7052 	 -22.4555 	 -112.206
| 19> C 	 44.009 	 -21.3054 	 -113.976
| 20> H 	 43.073 	 -20.793 	 -113.924
| 21> H 	 44.82 	 -20.7761 	 -114.529
| 22> H 	 43.8519 	 -22.161 	 -114.637
| 23> S 	 38.5517 	 -19.6969 	 -109.485
| 24> C 	 37.9805 	 -19.5268 	 -107.862
| 25> C 	 39.0458 	 -19.4971 	 -106.952
| 26> C 	 40.2779 	 -19.7289 	 -107.577
| 27> C 	 40.2168 	 -19.6696 	 -108.973
| 28> H 	 38.8436 	 -19.335 	 -105.877
| 29> C 	 41.5904 	 -19.7144 	 -106.772
| 30> H 	 42.3457 	 -20.2512 	 -107.317
| 31> H 	 41.4036 	 -20.3351 	 -105.899
| 32> C 	 42.1196 	 -18.358 	 -106.362
| 33> H 	 41.4961 	 -17.996 	 -105.642
| 34> H 	 41.9635 	 -17.7198 	 -107.233
| 35> C 	 43.5742 	 -18.347 	 -105.791
| 36> H 	 44.0163 	 -17.3056 	 -105.896
| 37> H 	 44.2633 	 -19.0108 	 -106.352
| 38> H 	 43.6389 	 -18.504 	 -104.744
| 39> H 	 43.5294 	 -18.2677 	 -112.478
| 40> H 	 36.9317 	 -19.3489 	 -107.512
| 41> *
| 42>
| 43>                          ****END OF INPUT****

CARTESIAN COORDINATES (ANGSTROEM)
---------------------------------
  S     41.271100  -18.330100  -111.272000
  C     42.879100  -18.840100  -111.825000
  C     43.309900  -19.959500  -111.235000
  C     42.354600  -20.457600  -110.241000
  C     41.322000  -19.572500  -110.016000
  H     42.466000  -21.384600  -109.646000
  C     44.627600  -20.674900  -111.571000
  H     45.057600  -21.055700  -110.609000
  H     45.347600  -19.905500  -111.922000
  C     44.545800  -21.788100  -112.582000
  H     45.446500  -22.348300  -112.693000
  H     43.705200  -22.455500  -112.206000
  C     44.009000  -21.305400  -113.976000
  H     43.073000  -20.793000  -113.924000
  H     44.820000  -20.776100  -114.529000
  H     43.851900  -22.161000  -114.637000
  S     38.551700  -19.696900  -109.485000
  C     37.980500  -19.526800  -107.862000
  C     39.045800  -19.497100  -106.952000
  C     40.277900  -19.728900  -107.577000
  C     40.216800  -19.669600  -108.973000
  H     38.843600  -19.335000  -105.877000
  C     41.590400  -19.714400  -106.772000
  H     42.345700  -20.251200  -107.317000
  H     41.403600  -20.335100  -105.899000
  C     42.119600  -18.358000  -106.362000
  H     41.496100  -17.996000  -105.642000
  H     41.963500  -17.719800  -107.233000
  C     43.574200  -18.347000  -105.791000
  H     44.016300  -17.305600  -105.896000
  H     44.263300  -19.010800  -106.352000
  H     43.638900  -18.504000  -104.744000
  H     43.529400  -18.267700  -112.478000
  H     36.931700  -19.348900  -107.512000

 Total Charge           Charge          ....    0
 Multiplicity           Mult            ....    1
 Number of Electrons    NEL             ....  134
 Basis Dimension        Dim             ....  322

ORBITAL ENERGIES
----------------

  NO   OCC          E(Eh)            E(eV)
   0   2.0000     -88.969282     -2420.9772
   1   2.0000     -88.966676     -2420.9063
   2   2.0000     -10.338634      -281.3285
   3   2.0000     -10.331387      -281.1313
   4   2.0000     -10.320148      -280.8255
   5   2.0000     -10.312925      -280.6290
   6   2.0000     -10.302970      -280.3581
   7   2.0000     -10.302204      -280.3372
   8   2.0000     -10.301581      -280.3203
   9   2.0000     -10.298578      -280.2386
  10   2.0000     -10.295439      -280.1531
  11   2.0000     -10.291309      -280.0408
  12   2.0000     -10.283590      -279.8307
  13   2.0000     -10.282027      -279.7882
  14   2.0000     -10.276703      -279.6433
  15   2.0000     -10.275914      -279.6218
  16   2.0000      -8.084116      -219.9800
  17   2.0000      -8.080943      -219.8936
  18   2.0000      -6.042556      -164.4263
  19   2.0000      -6.039636      -164.3469
  20   2.0000      -6.038486      -164.3156
  21   2.0000      -6.035682      -164.2392
  22   2.0000      -6.035072      -164.2227
  23   2.0000      -6.031362      -164.1217
  24   2.0000      -1.005082       -27.3497
  25   2.0000      -0.986296       -26.8385
  26   2.0000      -0.910309       -24.7708
  27   2.0000      -0.907021       -24.6813
  28   2.0000      -0.862555       -23.4713
  29   2.0000      -0.848655       -23.0931
  30   2.0000      -0.840036       -22.8586
  31   2.0000      -0.812622       -22.1126
  32   2.0000      -0.783038       -21.3075
  33   2.0000      -0.774471       -21.0744
  34   2.0000      -0.706625       -19.2282
  35   2.0000      -0.696304       -18.9474
  36   2.0000      -0.690283       -18.7835
  37   2.0000      -0.656846       -17.8737
  38   2.0000      -0.637260       -17.3407
  39   2.0000      -0.618379       -16.8269
  40   2.0000      -0.592477       -16.1221
  41   2.0000      -0.572339       -15.5741
  42   2.0000      -0.564019       -15.3477
  43   2.0000      -0.551526       -15.0078
  44   2.0000      -0.541981       -14.7481
  45   2.0000      -0.514202       -13.9922
  46   2.0000      -0.510095       -13.8804
  47   2.0000      -0.505675       -13.7601
  48   2.0000      -0.498906       -13.5759
  49   2.0000      -0.496224       -13.5029
  50   2.0000      -0.487782       -13.2732
  51   2.0000      -0.483912       -13.1679
  52   2.0000      -0.469082       -12.7644
  53   2.0000      -0.468412       -12.7462
  54   2.0000      -0.460036       -12.5182
  55   2.0000      -0.450865       -12.2687
  56   2.0000      -0.446309       -12.1447
  57   2.0000      -0.435524       -11.8512
  58   2.0000      -0.430946       -11.7266
  59   2.0000      -0.423881       -11.5344
  60   2.0000      -0.421782       -11.4773
  61   2.0000      -0.414066       -11.2673
  62   2.0000      -0.408271       -11.1096
  63   2.0000      -0.344539        -9.3754
  64   2.0000      -0.335596        -9.1320
  65   2.0000      -0.330965        -9.0060
  66   2.0000      -0.296708        -8.0738
  67   0.0000       0.030900         0.8408
  68   0.0000       0.066034         1.7969
  69   0.0000       0.111897         3.0449
  70   0.0000       0.120377         3.2756
  71   0.0000       0.131073         3.5667

MULLIKEN ATOMIC CHARGES
-----------------------
   0 S :    0.100729
   1 C :   -0.109839
   2 C :   -0.110393
   3 C :    0.035336
   4 C :   -0.147847
   5 H :    0.034262
   6 C :    0.059036
   7 H :    0.032330
   8 H :    0.023608
   9 C :   -0.063030
  10 H :    0.035993
  11 H :    0.033148
  12 C :   -0.073978
  13 H :    0.051439
  14 H :    0.028365
  15 H :    0.027200
  16 S :    0.123399
  17 C :   -0.113101
  18 C :   -0.061288
  19 C :   -0.045178
  20 C :   -0.167955
  21 H :    0.034596
  22 C :    0.081004
  23 H :   -0.002791
  24 H :    0.015292
  25 C :   -0.011898
  26 H :   -0.002252
  27 H :    0.033683
  28 C :   -0.064445
  29 H :    0.036927
  30 H :    0.037578
  31 H :    0.030800
  32 H :    0.045761
  33 H :    0.073508
Sum of atomic charges:   -0.0000000

LOEWDIN ATOMIC CHARGES
----------------------
   0 S :    0.378330
   1 C :   -0.182472
   2 C :   -0.065363
   3 C :   -0.063238
   4 C :   -0.180333
   5 H :    0.037561
   6 C :   -0.035545
   7 H :    0.033462
   8 H :    0.029398
   9 C :   -0.040499
  10 H :    0.022407
  11 H :    0.031349
  12 C :   -0.070468
  13 H :    0.024098
  14 H :    0.025374
  15 H :    0.026273
  16 S :    0.425356
  17 C :   -0.205497
  18 C :   -0.077032
  19 C :   -0.058210
  20 C :   -0.206938
  21 H :    0.038735
  22 C :   -0.029690
  23 H :    0.020244
  24 H :    0.027185
  25 C :   -0.032475
  26 H :    0.010687
  27 H :    0.029561
  28 C :   -0.066998
  29 H :    0.036291
  30 H :    0.026992
  31 H :    0.019672
  32 H :    0.030401
  33 H :    0.041383

  Mayer bond orders larger than 0.100000
B(  0-S ,  1-C ) :   1.1075 B(  0-S ,  4-C ) :   1.1339 B(  1-C ,  2-C ) :   1.6894
B(  1-C , 32-H ) :   0.9595 B(  2-C ,  3-C ) :   1.1844 B(  2-C ,  6-C ) :   1.0156
B(  3-C ,  4-C ) :   1.6296 B(  3-C ,  5-H ) :   0.9828 B(  4-C , 20-C ) :   1.0008
B(  6-C ,  7-H ) :   0.9399 B(  6-C ,  8-H ) :   0.9427 B(  6-C ,  9-C ) :   1.0704
B(  9-C , 10-H ) :   0.9579 B(  9-C , 11-H ) :   0.9549 B(  9-C , 12-C ) :   1.0758
B( 12-C , 13-H ) :   0.9738 B( 12-C , 14-H ) :   0.9752 B( 12-C , 15-H ) :   0.9737
B( 16-S , 17-C ) :   1.1710 B( 16-S , 20-C ) :   1.1640 B( 17-C , 18-C ) :   1.5820
B( 17-C , 20-C ) :   0.1065 B( 17-C , 33-H ) :   0.9609 B( 18-C , 19-C ) :   1.2739
B( 18-C , 21-H ) :   0.9874 B( 19-C , 20-C ) :   1.5658 B( 19-C , 22-C ) :   1.0561
B( 22-C , 23-H ) :   0.9293 B( 22-C , 24-H ) :   0.9271 B( 22-C , 25-C ) :   1.0652
B( 25-C , 26-H ) :   0.9497 B( 25-C , 27-H ) :   0.9580 B( 25-C , 28-C ) :   1.0747
B( 28-C , 29-H ) :   0.9746 B( 28-C , 30-H ) :   0.9784 B( 28-C , 31-H ) :   0.9775

Dispersion correction           -0.014405299
FINAL SINGLE POINT ENERGY     -1339.878092466027

DIPOLE MOMENT
-------------
                                X             Y             Z
Electronic contribution:    -22.87392       5.31897      -4.13543
Nuclear contribution   :     23.34050      -5.46397       4.45526
                        -----------------------------------------
Total Dipole Moment    :      0.46657      -0.14499       0.31983
                        -----------------------------------------
Magnitude (a.u.)       :      0.58396
Magnitude (Debye)      :      1.48430

Rotational constants in cm-1:     0.019217     0.008376     0.006710
Rotational constants in MHz :   576.124634   251.100166   201.165418

                             ****ORCA TERMINATED NORMALLY****
TOTAL RUN TIME: 0 days 0 hours 0 minutes 21 seconds 499 msec
