                         Program Version 4.2.1 -  RELEASE  -
|  1> ! wB97X-D3 SP def2-SVP
|  2> %pal
|  3> nprocs 24
|  4> end
|  5>
|  6> * xyz 0 1
|  7> S 	 -43.6819 	 16.7531 	 -101.967
|  8> C 	 -44.768 	 17.8545 	 -101.096
|  9> C 	 -44.0867 	 18.4777 	 -100.064
| 10> C 	 -42.6749 	 18.3396 	 -100.181
| 11> C 	 -42.2718 	 17.4219 	 -101.147
| 12> H 	 -41.9191 	 18.7215 	 -99.5667
| 13> C 	 -44.7702 	 19.3433 	 -98.969
| 14> H 	 -45.8132 	 19.5524 	 -99.3676
| 15> H 	 -44.2356 	 20.2918 	 -98.8281
| 16> C 	 -44.822 	 18.7196 	 -97.5641
| 17> H 	 -43.7275 	 18.7095 	 -97.2491
| 18> H 	 -45.4041 	 19.5075 	 -96.989
| 19> C 	 -45.4676 	 17.3431 	 -97.3888
| 20> H 	 -46.563 	 17.3756 	 -97.8209
| 21> H 	 -44.9221 	 16.5352 	 -97.9152
| 22> H 	 -45.5118 	 16.9455 	 -96.3664
| 23> S 	 -40.0342 	 16.1262 	 -100.075
| 24> C 	 -38.612 	 16.1144 	 -101.02
| 25> C 	 -38.9086 	 16.3177 	 -102.344
| 26> C 	 -40.2875 	 16.7241 	 -102.596
| 27> C 	 -40.9379 	 16.9168 	 -101.379
| 28> H 	 -38.1191 	 16.0403 	 -103.055
| 29> C 	 -40.7964 	 17.1026 	 -104.046
| 30> H 	 -41.7197 	 16.54 	 -104.175
| 31> H 	 -40.1894 	 16.48 	 -104.729
| 32> C 	 -40.8065 	 18.6377 	 -104.52
| 33> H 	 -40.0145 	 19.0952 	 -103.877
| 34> H 	 -41.6984 	 19.16 	 -104.369
| 35> C 	 -40.3413 	 18.7794 	 -105.957
| 36> H 	 -39.3459 	 18.3626 	 -106.048
| 37> H 	 -40.0407 	 19.8282 	 -106.2
| 38> H 	 -41.0453 	 18.3549 	 -106.626
| 39> H 	 -45.8786 	 17.8295 	 -101.087
| 40> H 	 -37.652 	 15.7776 	 -100.706
| 41> *
| 42>
| 43>                          ****END OF INPUT****

CARTESIAN COORDINATES (ANGSTROEM)
---------------------------------
  S    -43.681900   16.753100  -101.967000
  C    -44.768000   17.854500  -101.096000
  C    -44.086700   18.477700  -100.064000
  C    -42.674900   18.339600  -100.181000
  C    -42.271800   17.421900  -101.147000
  H    -41.919100   18.721500  -99.566700
  C    -44.770200   19.343300  -98.969000
  H    -45.813200   19.552400  -99.367600
  H    -44.235600   20.291800  -98.828100
  C    -44.822000   18.719600  -97.564100
  H    -43.727500   18.709500  -97.249100
  H    -45.404100   19.507500  -96.989000
  C    -45.467600   17.343100  -97.388800
  H    -46.563000   17.375600  -97.820900
  H    -44.922100   16.535200  -97.915200
  H    -45.511800   16.945500  -96.366400
  S    -40.034200   16.126200  -100.075000
  C    -38.612000   16.114400  -101.020000
  C    -38.908600   16.317700  -102.344000
  C    -40.287500   16.724100  -102.596000
  C    -40.937900   16.916800  -101.379000
  H    -38.119100   16.040300  -103.055000
  C    -40.796400   17.102600  -104.046000
  H    -41.719700   16.540000  -104.175000
  H    -40.189400   16.480000  -104.729000
  C    -40.806500   18.637700  -104.520000
  H    -40.014500   19.095200  -103.877000
  H    -41.698400   19.160000  -104.369000
  C    -40.341300   18.779400  -105.957000
  H    -39.345900   18.362600  -106.048000
  H    -40.040700   19.828200  -106.200000
  H    -41.045300   18.354900  -106.626000
  H    -45.878600   17.829500  -101.087000
  H    -37.652000   15.777600  -100.706000

 Total Charge           Charge          ....    0
 Multiplicity           Mult            ....    1
 Number of Electrons    NEL             ....  134
 Basis Dimension        Dim             ....  322

ORBITAL ENERGIES
----------------

  NO   OCC          E(Eh)            E(eV)
   0   2.0000     -88.966598     -2420.9042
   1   2.0000     -88.965567     -2420.8761
   2   2.0000     -10.328761      -281.0599
   3   2.0000     -10.327165      -281.0164
   4   2.0000     -10.317591      -280.7559
   5   2.0000     -10.311641      -280.5940
   6   2.0000     -10.311529      -280.5910
   7   2.0000     -10.303000      -280.3589
   8   2.0000     -10.300682      -280.2958
   9   2.0000     -10.299317      -280.2587
  10   2.0000     -10.298352      -280.2324
  11   2.0000     -10.295060      -280.1428
  12   2.0000     -10.290466      -280.0178
  13   2.0000     -10.287750      -279.9439
  14   2.0000     -10.286956      -279.9223
  15   2.0000     -10.274066      -279.5716
  16   2.0000      -8.080765      -219.8888
  17   2.0000      -8.080338      -219.8772
  18   2.0000      -6.039268      -164.3368
  19   2.0000      -6.038943      -164.3280
  20   2.0000      -6.035406      -164.2317
  21   2.0000      -6.035002      -164.2207
  22   2.0000      -6.031296      -164.1199
  23   2.0000      -6.031030      -164.1127
  24   2.0000      -1.004894       -27.3446
  25   2.0000      -0.982161       -26.7260
  26   2.0000      -0.905561       -24.6416
  27   2.0000      -0.896528       -24.3958
  28   2.0000      -0.868010       -23.6198
  29   2.0000      -0.849420       -23.1139
  30   2.0000      -0.840441       -22.8696
  31   2.0000      -0.811171       -22.0731
  32   2.0000      -0.781839       -21.2749
  33   2.0000      -0.771869       -21.0036
  34   2.0000      -0.708765       -19.2865
  35   2.0000      -0.696587       -18.9551
  36   2.0000      -0.683248       -18.5921
  37   2.0000      -0.656964       -17.8769
  38   2.0000      -0.634661       -17.2700
  39   2.0000      -0.613824       -16.7030
  40   2.0000      -0.589063       -16.0292
  41   2.0000      -0.563920       -15.3450
  42   2.0000      -0.561391       -15.2762
  43   2.0000      -0.551784       -15.0148
  44   2.0000      -0.536146       -14.5893
  45   2.0000      -0.528747       -14.3879
  46   2.0000      -0.512632       -13.9494
  47   2.0000      -0.509065       -13.8524
  48   2.0000      -0.505143       -13.7457
  49   2.0000      -0.491093       -13.3633
  50   2.0000      -0.487536       -13.2665
  51   2.0000      -0.472766       -12.8646
  52   2.0000      -0.465276       -12.6608
  53   2.0000      -0.460297       -12.5253
  54   2.0000      -0.456578       -12.4241
  55   2.0000      -0.445567       -12.1245
  56   2.0000      -0.444727       -12.1016
  57   2.0000      -0.438778       -11.9398
  58   2.0000      -0.424692       -11.5564
  59   2.0000      -0.423036       -11.5114
  60   2.0000      -0.418086       -11.3767
  61   2.0000      -0.414661       -11.2835
  62   2.0000      -0.408915       -11.1271
  63   2.0000      -0.340133        -9.2555
  64   2.0000      -0.331294        -9.0150
  65   2.0000      -0.327167        -8.9027
  66   2.0000      -0.296156        -8.0588
  67   0.0000       0.023453         0.6382
  68   0.0000       0.068816         1.8726
  69   0.0000       0.098716         2.6862
  70   0.0000       0.119274         3.2456
  71   0.0000       0.123101         3.3497

MULLIKEN ATOMIC CHARGES
-----------------------
   0 S :    0.105904
   1 C :   -0.122731
   2 C :   -0.093470
   3 C :    0.049930
   4 C :   -0.160797
   5 H :   -0.010934
   6 C :    0.042247
   7 H :    0.025415
   8 H :    0.039232
   9 C :   -0.100730
  10 H :    0.041918
  11 H :    0.047278
  12 C :   -0.081071
  13 H :    0.038070
  14 H :    0.046525
  15 H :    0.043506
  16 S :    0.118609
  17 C :   -0.075948
  18 C :   -0.057265
  19 C :   -0.047713
  20 C :   -0.164645
  21 H :    0.026770
  22 C :    0.072088
  23 H :    0.022199
  24 H :    0.011507
  25 C :   -0.027363
  26 H :    0.036866
  27 H :    0.034920
  28 C :   -0.061789
  29 H :    0.020939
  30 H :    0.031893
  31 H :    0.042407
  32 H :    0.061835
  33 H :    0.044401
Sum of atomic charges:    0.0000000

LOEWDIN ATOMIC CHARGES
----------------------
   0 S :    0.397276
   1 C :   -0.200697
   2 C :   -0.064191
   3 C :   -0.057118
   4 C :   -0.186514
   5 H :    0.021594
   6 C :   -0.033671
   7 H :    0.030227
   8 H :    0.034856
   9 C :   -0.053104
  10 H :    0.030515
  11 H :    0.033457
  12 C :   -0.082642
  13 H :    0.034533
  14 H :    0.030143
  15 H :    0.028908
  16 S :    0.411817
  17 C :   -0.194566
  18 C :   -0.077612
  19 C :   -0.051333
  20 C :   -0.198061
  21 H :    0.034269
  22 C :   -0.037880
  23 H :    0.024026
  24 H :    0.031986
  25 C :   -0.029853
  26 H :    0.033313
  27 H :    0.018576
  28 C :   -0.067101
  29 H :    0.024136
  30 H :    0.032745
  31 H :    0.020458
  32 H :    0.036475
  33 H :    0.025033

  Mayer bond orders larger than 0.100000
B(  0-S ,  1-C ) :   1.1314 B(  0-S ,  4-C ) :   1.1410 B(  1-C ,  2-C ) :   1.6227
B(  1-C , 32-H ) :   0.9567 B(  2-C ,  3-C ) :   1.2206 B(  2-C ,  6-C ) :   1.0189
B(  3-C ,  4-C ) :   1.5739 B(  3-C ,  5-H ) :   1.0049 B(  4-C , 20-C ) :   1.0895
B(  6-C ,  7-H ) :   0.9428 B(  6-C ,  8-H ) :   0.9453 B(  6-C ,  9-C ) :   1.0647
B(  9-C , 10-H ) :   0.9536 B(  9-C , 11-H ) :   0.9554 B(  9-C , 12-C ) :   1.0741
B( 12-C , 13-H ) :   0.9721 B( 12-C , 14-H ) :   0.9709 B( 12-C , 15-H ) :   0.9742
B( 16-S , 17-C ) :   1.1495 B( 16-S , 20-C ) :   1.1385 B( 17-C , 18-C ) :   1.6254
B( 17-C , 33-H ) :   0.9698 B( 18-C , 19-C ) :   1.2247 B( 18-C , 21-H ) :   0.9859
B( 19-C , 20-C ) :   1.5659 B( 19-C , 22-C ) :   1.0488 B( 22-C , 23-H ) :   0.9255
B( 22-C , 24-H ) :   0.9398 B( 22-C , 25-C ) :   1.0210 B( 25-C , 26-H ) :   0.9621
B( 25-C , 27-H ) :   0.9608 B( 25-C , 28-C ) :   1.0913 B( 28-C , 29-H ) :   0.9719
B( 28-C , 30-H ) :   0.9705 B( 28-C , 31-H ) :   0.9790

Dispersion correction           -0.014368484
FINAL SINGLE POINT ENERGY     -1339.860140238902

DIPOLE MOMENT
-------------
                                X             Y             Z
Electronic contribution:      6.25474     -10.79306       2.54042
Nuclear contribution   :     -6.15701      10.93218      -2.53131
                        -----------------------------------------
Total Dipole Moment    :      0.09773       0.13913       0.00911
                        -----------------------------------------
Magnitude (a.u.)       :      0.17027
Magnitude (Debye)      :      0.43278

Rotational constants in cm-1:     0.020533     0.008169     0.006546
Rotational constants in MHz :   615.555511   244.914465   196.250240

                             ****ORCA TERMINATED NORMALLY****
TOTAL RUN TIME: 0 days 0 hours 0 minutes 20 seconds 129 msec
