                         Program Version 4.2.1 -  RELEASE  -
|  1> ! wB97X-D3 SP def2-SVP
|  2> %pal
|  3> nprocs 24
|  4> end
|  5>
|  6> * xyz 0 1
|  7> S 	 -113.602 	 16.8566 	 -9.32622
|  8> C 	 -112.672 	 16.0706 	 -8.08218
|  9> C 	 -112.805 	 14.7119 	 -8.04154
| 10> C 	 -113.717 	 14.2892 	 -9.02515
| 11> C 	 -114.277 	 15.3108 	 -9.79964
| 12> H 	 -113.966 	 13.3136 	 -9.34262
| 13> C 	 -112.049 	 13.7866 	 -7.1209
| 14> H 	 -111.327 	 14.2832 	 -6.4869
| 15> H 	 -111.307 	 13.2318 	 -7.72554
| 16> C 	 -112.913 	 12.6237 	 -6.48587
| 17> H 	 -113.447 	 12.2654 	 -7.30203
| 18> H 	 -112.346 	 11.7595 	 -6.21028
| 19> C 	 -113.905 	 12.9602 	 -5.3309
| 20> H 	 -114.738 	 13.4895 	 -5.85765
| 21> H 	 -114.448 	 12.079 	 -4.93585
| 22> H 	 -113.542 	 13.533 	 -4.49632
| 23> S 	 -114.744 	 14.7736 	 -12.5284
| 24> C 	 -116.341 	 14.9711 	 -13.1744
| 25> C 	 -117.224 	 15.3575 	 -12.2156
| 26> C 	 -116.587 	 15.5119 	 -10.9485
| 27> C 	 -115.27 	 15.1866 	 -10.8783
| 28> H 	 -118.319 	 15.4561 	 -12.3809
| 29> C 	 -117.414 	 16.0022 	 -9.68068
| 30> H 	 -116.7 	 16.1076 	 -8.89749
| 31> H 	 -118.263 	 15.3107 	 -9.41078
| 32> C 	 -118 	 17.4456 	 -9.90433
| 33> H 	 -118.506 	 17.6451 	 -8.99704
| 34> H 	 -118.818 	 17.4441 	 -10.6684
| 35> C 	 -116.908 	 18.4944 	 -10.2319
| 36> H 	 -117.355 	 19.4982 	 -10.4694
| 37> H 	 -116.332 	 18.2881 	 -11.1229
| 38> H 	 -116.275 	 18.6214 	 -9.48091
| 39> H 	 -111.867 	 16.5398 	 -7.50722
| 40> H 	 -116.654 	 14.718 	 -14.1954
| 41> *
| 42>
| 43>                          ****END OF INPUT****

CARTESIAN COORDINATES (ANGSTROEM)
---------------------------------
  S    -113.602000   16.856600   -9.326220
  C    -112.672000   16.070600   -8.082180
  C    -112.805000   14.711900   -8.041540
  C    -113.717000   14.289200   -9.025150
  C    -114.277000   15.310800   -9.799640
  H    -113.966000   13.313600   -9.342620
  C    -112.049000   13.786600   -7.120900
  H    -111.327000   14.283200   -6.486900
  H    -111.307000   13.231800   -7.725540
  C    -112.913000   12.623700   -6.485870
  H    -113.447000   12.265400   -7.302030
  H    -112.346000   11.759500   -6.210280
  C    -113.905000   12.960200   -5.330900
  H    -114.738000   13.489500   -5.857650
  H    -114.448000   12.079000   -4.935850
  H    -113.542000   13.533000   -4.496320
  S    -114.744000   14.773600  -12.528400
  C    -116.341000   14.971100  -13.174400
  C    -117.224000   15.357500  -12.215600
  C    -116.587000   15.511900  -10.948500
  C    -115.270000   15.186600  -10.878300
  H    -118.319000   15.456100  -12.380900
  C    -117.414000   16.002200   -9.680680
  H    -116.700000   16.107600   -8.897490
  H    -118.263000   15.310700   -9.410780
  C    -118.000000   17.445600   -9.904330
  H    -118.506000   17.645100   -8.997040
  H    -118.818000   17.444100  -10.668400
  C    -116.908000   18.494400  -10.231900
  H    -117.355000   19.498200  -10.469400
  H    -116.332000   18.288100  -11.122900
  H    -116.275000   18.621400   -9.480910
  H    -111.867000   16.539800   -7.507220
  H    -116.654000   14.718000  -14.195400

 Total Charge           Charge          ....    0
 Multiplicity           Mult            ....    1
 Number of Electrons    NEL             ....  134
 Basis Dimension        Dim             ....  322

ORBITAL ENERGIES
----------------

  NO   OCC          E(Eh)            E(eV)
   0   2.0000     -88.970477     -2421.0098
   1   2.0000     -88.961387     -2420.7624
   2   2.0000     -10.331767      -281.1417
   3   2.0000     -10.324938      -280.9558
   4   2.0000     -10.318198      -280.7724
   5   2.0000     -10.313181      -280.6359
   6   2.0000     -10.301702      -280.3236
   7   2.0000     -10.301127      -280.3079
   8   2.0000     -10.299336      -280.2592
   9   2.0000     -10.294033      -280.1149
  10   2.0000     -10.293785      -280.1081
  11   2.0000     -10.293219      -280.0927
  12   2.0000     -10.286611      -279.9129
  13   2.0000     -10.285556      -279.8842
  14   2.0000     -10.279322      -279.7146
  15   2.0000     -10.264257      -279.3046
  16   2.0000      -8.084799      -219.9986
  17   2.0000      -8.076251      -219.7660
  18   2.0000      -6.043187      -164.4435
  19   2.0000      -6.039311      -164.3380
  20   2.0000      -6.035761      -164.2414
  21   2.0000      -6.034862      -164.2169
  22   2.0000      -6.030711      -164.1040
  23   2.0000      -6.026915      -164.0007
  24   2.0000      -1.007751       -27.4223
  25   2.0000      -0.988610       -26.9015
  26   2.0000      -0.908269       -24.7152
  27   2.0000      -0.896691       -24.4002
  28   2.0000      -0.868958       -23.6455
  29   2.0000      -0.848236       -23.0817
  30   2.0000      -0.838771       -22.8241
  31   2.0000      -0.816678       -22.2229
  32   2.0000      -0.785238       -21.3674
  33   2.0000      -0.774723       -21.0813
  34   2.0000      -0.713566       -19.4171
  35   2.0000      -0.698367       -19.0035
  36   2.0000      -0.691602       -18.8194
  37   2.0000      -0.658199       -17.9105
  38   2.0000      -0.643514       -17.5109
  39   2.0000      -0.621728       -16.9181
  40   2.0000      -0.592415       -16.1204
  41   2.0000      -0.571030       -15.5385
  42   2.0000      -0.545213       -14.8360
  43   2.0000      -0.544545       -14.8178
  44   2.0000      -0.535923       -14.5832
  45   2.0000      -0.533152       -14.5078
  46   2.0000      -0.517332       -14.0773
  47   2.0000      -0.513912       -13.9843
  48   2.0000      -0.500349       -13.6152
  49   2.0000      -0.491978       -13.3874
  50   2.0000      -0.487681       -13.2705
  51   2.0000      -0.481803       -13.1105
  52   2.0000      -0.470859       -12.8127
  53   2.0000      -0.466092       -12.6830
  54   2.0000      -0.462814       -12.5938
  55   2.0000      -0.447392       -12.1742
  56   2.0000      -0.441408       -12.0113
  57   2.0000      -0.435173       -11.8417
  58   2.0000      -0.432528       -11.7697
  59   2.0000      -0.429843       -11.6966
  60   2.0000      -0.420763       -11.4495
  61   2.0000      -0.414467       -11.2782
  62   2.0000      -0.403580       -10.9820
  63   2.0000      -0.336863        -9.1665
  64   2.0000      -0.332088        -9.0366
  65   2.0000      -0.325931        -8.8690
  66   2.0000      -0.311635        -8.4800
  67   0.0000       0.042636         1.1602
  68   0.0000       0.056897         1.5482
  69   0.0000       0.115773         3.1504
  70   0.0000       0.118380         3.2213
  71   0.0000       0.133583         3.6350

MULLIKEN ATOMIC CHARGES
-----------------------
   0 S :    0.132957
   1 C :   -0.131512
   2 C :   -0.048095
   3 C :    0.044837
   4 C :   -0.198294
   5 H :   -0.000198
   6 C :    0.078995
   7 H :    0.009579
   8 H :    0.033968
   9 C :   -0.048664
  10 H :    0.006519
  11 H :    0.019291
  12 C :   -0.059755
  13 H :    0.034775
  14 H :    0.032607
  15 H :    0.041049
  16 S :    0.096555
  17 C :   -0.090209
  18 C :   -0.035080
  19 C :   -0.046267
  20 C :   -0.173873
  21 H :    0.035185
  22 C :    0.062374
  23 H :    0.020231
  24 H :    0.049249
  25 C :   -0.079394
  26 H :    0.020712
  27 H :    0.027987
  28 C :   -0.016658
  29 H :    0.029098
  30 H :    0.037243
  31 H :    0.002678
  32 H :    0.048118
  33 H :    0.063991
Sum of atomic charges:    0.0000000

LOEWDIN ATOMIC CHARGES
----------------------
   0 S :    0.421612
   1 C :   -0.198410
   2 C :   -0.068075
   3 C :   -0.050025
   4 C :   -0.196207
   5 H :    0.025224
   6 C :   -0.029947
   7 H :    0.025802
   8 H :    0.041966
   9 C :   -0.033938
  10 H :    0.016623
  11 H :    0.020620
  12 C :   -0.072474
  13 H :    0.032147
  14 H :    0.029709
  15 H :    0.022021
  16 S :    0.392178
  17 C :   -0.182638
  18 C :   -0.082839
  19 C :   -0.053217
  20 C :   -0.205581
  21 H :    0.039961
  22 C :   -0.022418
  23 H :    0.019882
  24 H :    0.037130
  25 C :   -0.037348
  26 H :    0.018255
  27 H :    0.021062
  28 C :   -0.058049
  29 H :    0.033579
  30 H :    0.027361
  31 H :   -0.000866
  32 H :    0.031131
  33 H :    0.035769

  Mayer bond orders larger than 0.100000
B(  0-S ,  1-C ) :   1.1503 B(  0-S ,  4-C ) :   1.1524 B(  1-C ,  2-C ) :   1.6186
B(  1-C , 32-H ) :   0.9575 B(  2-C ,  3-C ) :   1.2291 B(  2-C ,  6-C ) :   1.0261
B(  3-C ,  4-C ) :   1.5952 B(  3-C ,  5-H ) :   0.9955 B(  4-C , 20-C ) :   1.0100
B(  6-C ,  7-H ) :   0.9448 B(  6-C ,  8-H ) :   0.9310 B(  6-C ,  9-C ) :   1.0561
B(  9-C , 10-H ) :   0.9544 B(  9-C , 11-H ) :   0.9581 B(  9-C , 12-C ) :   1.0694
B( 12-C , 13-H ) :   0.9771 B( 12-C , 14-H ) :   0.9732 B( 12-C , 15-H ) :   0.9805
B( 16-S , 17-C ) :   1.1632 B( 16-S , 20-C ) :   1.1162 B( 17-C , 18-C ) :   1.6139
B( 17-C , 33-H ) :   0.9615 B( 18-C , 19-C ) :   1.2306 B( 18-C , 21-H ) :   0.9870
B( 19-C , 20-C ) :   1.6459 B( 19-C , 22-C ) :   1.0251 B( 22-C , 23-H ) :   0.9368
B( 22-C , 24-H ) :   0.9464 B( 22-C , 25-C ) :   1.0664 B( 25-C , 26-H ) :   0.9583
B( 25-C , 27-H ) :   0.9590 B( 25-C , 28-C ) :   1.0674 B( 28-C , 29-H ) :   0.9717
B( 28-C , 30-H ) :   0.9733 B( 28-C , 31-H ) :   0.9760

Dispersion correction           -0.015323954
FINAL SINGLE POINT ENERGY     -1339.872076840727

DIPOLE MOMENT
-------------
                                X             Y             Z
Electronic contribution:      7.07525       2.38705     -17.78885
Nuclear contribution   :     -7.20990      -2.63730      18.05660
                        -----------------------------------------
Total Dipole Moment    :     -0.13465      -0.25026       0.26774
                        -----------------------------------------
Magnitude (a.u.)       :      0.39044
Magnitude (Debye)      :      0.99243

Rotational constants in cm-1:     0.020571     0.008194     0.007538
Rotational constants in MHz :   616.714992   245.639749   225.969912

                             ****ORCA TERMINATED NORMALLY****
TOTAL RUN TIME: 0 days 0 hours 0 minutes 21 seconds 821 msec
