                         Program Version 4.2.1 -  RELEASE  -
|  1> ! wB97X-D3 SP def2-SVP
|  2> %pal
|  3> nprocs 24
|  4> end
|  5>
|  6> * xyz 0 1
|  7> S 	 -55.668 	 -0.152932 	 -22.1135
|  8> C 	 -54.523 	 0.616601 	 -23.2271
|  9> C 	 -54.35 	 1.96859 	 -22.9076
| 10> C 	 -55.2194 	 2.39015 	 -21.8555
| 11> C 	 -56.0048 	 1.3926 	 -21.377
| 12> H 	 -55.2217 	 3.40972 	 -21.4807
| 13> C 	 -53.4974 	 2.86898 	 -23.678
| 14> H 	 -54.1264 	 3.62659 	 -23.9798
| 15> H 	 -53.3208 	 2.35475 	 -24.6067
| 16> C 	 -52.2424 	 3.48257 	 -23.0358
| 17> H 	 -52.4659 	 4.03656 	 -22.0952
| 18> H 	 -51.685 	 2.60995 	 -22.7856
| 19> C 	 -51.5266 	 4.31487 	 -24.0694
| 20> H 	 -51.9009 	 5.31966 	 -24.0939
| 21> H 	 -50.4916 	 4.37364 	 -23.6714
| 22> H 	 -51.3953 	 3.85287 	 -25.0238
| 23> S 	 -58.5414 	 2.36085 	 -21.0691
| 24> C 	 -59.3627 	 2.10846 	 -19.5654
| 25> C 	 -58.5596 	 1.5711 	 -18.5486
| 26> C 	 -57.217 	 1.3176 	 -19.0234
| 27> C 	 -57.098 	 1.5282 	 -20.4446
| 28> H 	 -58.9899 	 1.17315 	 -17.6032
| 29> C 	 -56.2572 	 0.535147 	 -18.2017
| 30> H 	 -55.7878 	 -0.0123349 	 -18.952
| 31> H 	 -56.8831 	 -0.231376 	 -17.6305
| 32> C 	 -55.3926 	 1.32445 	 -17.2292
| 33> H 	 -55.9641 	 1.92347 	 -16.4342
| 34> H 	 -54.8643 	 2.07301 	 -17.8374
| 35> C 	 -54.3987 	 0.442729 	 -16.4747
| 36> H 	 -53.75 	 0.00835029 	 -17.2939
| 37> H 	 -54.9083 	 -0.3056 	 -15.8769
| 38> H 	 -53.9472 	 1.08512 	 -15.8608
| 39> H 	 -53.9546 	 0.0294691 	 -23.9694
| 40> H 	 -60.3683 	 2.29576 	 -19.3586
| 41> *
| 42>
| 43>                          ****END OF INPUT****

CARTESIAN COORDINATES (ANGSTROEM)
---------------------------------
  S    -55.668000   -0.152932  -22.113500
  C    -54.523000    0.616601  -23.227100
  C    -54.350000    1.968590  -22.907600
  C    -55.219400    2.390150  -21.855500
  C    -56.004800    1.392600  -21.377000
  H    -55.221700    3.409720  -21.480700
  C    -53.497400    2.868980  -23.678000
  H    -54.126400    3.626590  -23.979800
  H    -53.320800    2.354750  -24.606700
  C    -52.242400    3.482570  -23.035800
  H    -52.465900    4.036560  -22.095200
  H    -51.685000    2.609950  -22.785600
  C    -51.526600    4.314870  -24.069400
  H    -51.900900    5.319660  -24.093900
  H    -50.491600    4.373640  -23.671400
  H    -51.395300    3.852870  -25.023800
  S    -58.541400    2.360850  -21.069100
  C    -59.362700    2.108460  -19.565400
  C    -58.559600    1.571100  -18.548600
  C    -57.217000    1.317600  -19.023400
  C    -57.098000    1.528200  -20.444600
  H    -58.989900    1.173150  -17.603200
  C    -56.257200    0.535147  -18.201700
  H    -55.787800   -0.012335  -18.952000
  H    -56.883100   -0.231376  -17.630500
  C    -55.392600    1.324450  -17.229200
  H    -55.964100    1.923470  -16.434200
  H    -54.864300    2.073010  -17.837400
  C    -54.398700    0.442729  -16.474700
  H    -53.750000    0.008350  -17.293900
  H    -54.908300   -0.305600  -15.876900
  H    -53.947200    1.085120  -15.860800
  H    -53.954600    0.029469  -23.969400
  H    -60.368300    2.295760  -19.358600

 Total Charge           Charge          ....    0
 Multiplicity           Mult            ....    1
 Number of Electrons    NEL             ....  134
 Basis Dimension        Dim             ....  322

ORBITAL ENERGIES
----------------

  NO   OCC          E(Eh)            E(eV)
   0   2.0000     -88.966634     -2420.9052
   1   2.0000     -88.964468     -2420.8463
   2   2.0000     -10.326420      -280.9962
   3   2.0000     -10.324376      -280.9405
   4   2.0000     -10.317290      -280.7477
   5   2.0000     -10.312128      -280.6073
   6   2.0000     -10.305281      -280.4210
   7   2.0000     -10.297358      -280.2053
   8   2.0000     -10.295585      -280.1571
   9   2.0000     -10.291132      -280.0359
  10   2.0000     -10.288294      -279.9587
  11   2.0000     -10.286806      -279.9182
  12   2.0000     -10.284155      -279.8461
  13   2.0000     -10.276533      -279.6387
  14   2.0000     -10.275883      -279.6210
  15   2.0000     -10.269352      -279.4433
  16   2.0000      -8.080900      -219.8925
  17   2.0000      -8.078944      -219.8393
  18   2.0000      -6.039349      -164.3390
  19   2.0000      -6.037427      -164.2867
  20   2.0000      -6.035448      -164.2329
  21   2.0000      -6.033499      -164.1799
  22   2.0000      -6.031787      -164.1333
  23   2.0000      -6.029751      -164.0779
  24   2.0000      -1.003007       -27.2932
  25   2.0000      -0.977627       -26.6026
  26   2.0000      -0.920284       -25.0422
  27   2.0000      -0.910911       -24.7872
  28   2.0000      -0.869384       -23.6571
  29   2.0000      -0.854272       -23.2459
  30   2.0000      -0.851235       -23.1633
  31   2.0000      -0.813839       -22.1457
  32   2.0000      -0.784212       -21.3395
  33   2.0000      -0.764971       -20.8159
  34   2.0000      -0.710016       -19.3205
  35   2.0000      -0.699039       -19.0218
  36   2.0000      -0.689268       -18.7559
  37   2.0000      -0.657166       -17.8824
  38   2.0000      -0.640705       -17.4345
  39   2.0000      -0.620909       -16.8958
  40   2.0000      -0.590692       -16.0736
  41   2.0000      -0.576877       -15.6976
  42   2.0000      -0.563764       -15.3408
  43   2.0000      -0.558772       -15.2050
  44   2.0000      -0.536262       -14.5924
  45   2.0000      -0.526330       -14.3222
  46   2.0000      -0.517377       -14.0785
  47   2.0000      -0.511079       -13.9072
  48   2.0000      -0.509840       -13.8734
  49   2.0000      -0.504189       -13.7197
  50   2.0000      -0.490160       -13.3379
  51   2.0000      -0.473495       -12.8844
  52   2.0000      -0.467413       -12.7190
  53   2.0000      -0.463319       -12.6076
  54   2.0000      -0.456990       -12.4353
  55   2.0000      -0.453044       -12.3280
  56   2.0000      -0.447027       -12.1642
  57   2.0000      -0.439750       -11.9662
  58   2.0000      -0.436001       -11.8642
  59   2.0000      -0.423123       -11.5138
  60   2.0000      -0.421207       -11.4616
  61   2.0000      -0.414132       -11.2691
  62   2.0000      -0.405851       -11.0438
  63   2.0000      -0.334770        -9.1096
  64   2.0000      -0.326364        -8.8808
  65   2.0000      -0.320002        -8.7077
  66   2.0000      -0.300632        -8.1806
  67   0.0000       0.044096         1.1999
  68   0.0000       0.050016         1.3610
  69   0.0000       0.108914         2.9637
  70   0.0000       0.113541         3.0896
  71   0.0000       0.119456         3.2506

MULLIKEN ATOMIC CHARGES
-----------------------
   0 S :    0.109695
   1 C :   -0.144216
   2 C :   -0.094212
   3 C :    0.040734
   4 C :   -0.163251
   5 H :    0.015477
   6 C :    0.090333
   7 H :    0.001068
   8 H :    0.000259
   9 C :   -0.064457
  10 H :    0.038343
  11 H :    0.020140
  12 C :   -0.022729
  13 H :    0.038833
  14 H :    0.028184
  15 H :    0.029300
  16 S :    0.123917
  17 C :   -0.064051
  18 C :   -0.053814
  19 C :   -0.017006
  20 C :   -0.184728
  21 H :    0.039091
  22 C :    0.073846
  23 H :   -0.003632
  24 H :    0.026143
  25 C :   -0.121032
  26 H :    0.034334
  27 H :    0.029264
  28 C :    0.023316
  29 H :    0.044219
  30 H :    0.027972
  31 H :    0.006005
  32 H :    0.059324
  33 H :    0.033331
Sum of atomic charges:    0.0000000

LOEWDIN ATOMIC CHARGES
----------------------
   0 S :    0.396996
   1 C :   -0.197151
   2 C :   -0.059381
   3 C :   -0.058544
   4 C :   -0.204813
   5 H :    0.035094
   6 C :   -0.037526
   7 H :    0.021857
   8 H :    0.029824
   9 C :   -0.033798
  10 H :    0.030527
  11 H :    0.020227
  12 C :   -0.061306
  13 H :    0.025774
  14 H :    0.033166
  15 H :    0.023838
  16 S :    0.412720
  17 C :   -0.183102
  18 C :   -0.076651
  19 C :   -0.043746
  20 C :   -0.205378
  21 H :    0.038795
  22 C :   -0.038158
  23 H :    0.018634
  24 H :    0.036431
  25 C :   -0.041626
  26 H :    0.028814
  27 H :    0.024322
  28 C :   -0.051891
  29 H :    0.036906
  30 H :    0.024469
  31 H :    0.007168
  32 H :    0.031168
  33 H :    0.016342

  Mayer bond orders larger than 0.100000
B(  0-S ,  1-C ) :   1.1287 B(  0-S ,  4-C ) :   1.1508 B(  1-C ,  2-C ) :   1.6042
B(  1-C , 32-H ) :   0.9659 B(  2-C ,  3-C ) :   1.2244 B(  2-C ,  6-C ) :   1.0368
B(  3-C ,  4-C ) :   1.5929 B(  3-C ,  5-H ) :   1.0005 B(  4-C , 20-C ) :   1.0137
B(  6-C ,  7-H ) :   0.9225 B(  6-C ,  8-H ) :   0.9341 B(  6-C ,  9-C ) :   1.0504
B(  9-C , 10-H ) :   0.9531 B(  9-C , 11-H ) :   0.9562 B(  9-C , 12-C ) :   1.0911
B( 12-C , 13-H ) :   0.9749 B( 12-C , 14-H ) :   0.9723 B( 12-C , 15-H ) :   0.9717
B( 16-S , 17-C ) :   1.1665 B( 16-S , 20-C ) :   1.1389 B( 17-C , 18-C ) :   1.6136
B( 17-C , 20-C ) :   0.1047 B( 17-C , 33-H ) :   0.9697 B( 18-C , 19-C ) :   1.2451
B( 18-C , 21-H ) :   0.9772 B( 19-C , 20-C ) :   1.5672 B( 19-C , 22-C ) :   1.0416
B( 22-C , 23-H ) :   0.9312 B( 22-C , 24-H ) :   0.9406 B( 22-C , 25-C ) :   1.0503
B( 25-C , 26-H ) :   0.9566 B( 25-C , 27-H ) :   0.9542 B( 25-C , 28-C ) :   1.0819
B( 28-C , 29-H ) :   0.9741 B( 28-C , 30-H ) :   0.9732 B( 28-C , 31-H ) :   0.9727

Dispersion correction           -0.013623626
FINAL SINGLE POINT ENERGY     -1339.854830445298

DIPOLE MOMENT
-------------
                                X             Y             Z
Electronic contribution:    -22.04286      -6.82269      -7.16091
Nuclear contribution   :     22.43394       7.05132       7.28338
                        -----------------------------------------
Total Dipole Moment    :      0.39109       0.22863       0.12247
                        -----------------------------------------
Magnitude (a.u.)       :      0.46928
Magnitude (Debye)      :      1.19281

Rotational constants in cm-1:     0.017730     0.007789     0.006656
Rotational constants in MHz :   531.529225   233.515853   199.544045

                             ****ORCA TERMINATED NORMALLY****
TOTAL RUN TIME: 0 days 0 hours 0 minutes 20 seconds 972 msec
