                         Program Version 4.2.1 -  RELEASE  -
|  1> ! wB97X-D3 SP def2-SVP
|  2> %pal
|  3> nprocs 24
|  4> end
|  5>
|  6> * xyz 0 1
|  7> S 	 -33.8373 	 -6.00906 	 17.1374
|  8> C 	 -32.9252 	 -7.03633 	 18.2362
|  9> C 	 -33.0606 	 -8.35412 	 17.9716
| 10> C 	 -33.9077 	 -8.58543 	 16.8298
| 11> C 	 -34.3886 	 -7.42057 	 16.2994
| 12> H 	 -34.0229 	 -9.54695 	 16.3556
| 13> C 	 -32.239 	 -9.37987 	 18.7561
| 14> H 	 -32.9894 	 -9.85225 	 19.4706
| 15> H 	 -31.5268 	 -8.96906 	 19.4557
| 16> C 	 -31.4586 	 -10.4152 	 17.8737
| 17> H 	 -30.8161 	 -10.903 	 18.5371
| 18> H 	 -32.0731 	 -11.1736 	 17.3359
| 19> C 	 -30.64 	 -9.7214 	 16.8483
| 20> H 	 -31.2838 	 -9.53847 	 16.0301
| 21> H 	 -30.1725 	 -8.85001 	 17.2555
| 22> H 	 -29.703 	 -10.2222 	 16.6184
| 23> S 	 -36.8806 	 -8.22825 	 15.4288
| 24> C 	 -37.5448 	 -7.55539 	 13.9157
| 25> C 	 -36.6117 	 -6.80316 	 13.3147
| 26> C 	 -35.3877 	 -6.62896 	 14.0485
| 27> C 	 -35.3377 	 -7.37572 	 15.2131
| 28> H 	 -36.8416 	 -6.47582 	 12.3787
| 29> C 	 -34.2361 	 -5.78797 	 13.4833
| 30> H 	 -33.8828 	 -5.08145 	 14.2566
| 31> H 	 -34.6893 	 -5.14988 	 12.7333
| 32> C 	 -33.103 	 -6.46603 	 12.6448
| 33> H 	 -32.4791 	 -5.66037 	 12.2483
| 34> H 	 -33.5337 	 -6.93665 	 11.7434
| 35> C 	 -32.1938 	 -7.39055 	 13.3743
| 36> H 	 -32.653 	 -8.34639 	 13.6178
| 37> H 	 -31.8277 	 -6.88172 	 14.2921
| 38> H 	 -31.28 	 -7.65961 	 12.8495
| 39> H 	 -32.2355 	 -6.73265 	 19.0884
| 40> H 	 -38.4452 	 -7.86917 	 13.4021
| 41> *
| 42>
| 43>                          ****END OF INPUT****

CARTESIAN COORDINATES (ANGSTROEM)
---------------------------------
  S    -33.837300   -6.009060   17.137400
  C    -32.925200   -7.036330   18.236200
  C    -33.060600   -8.354120   17.971600
  C    -33.907700   -8.585430   16.829800
  C    -34.388600   -7.420570   16.299400
  H    -34.022900   -9.546950   16.355600
  C    -32.239000   -9.379870   18.756100
  H    -32.989400   -9.852250   19.470600
  H    -31.526800   -8.969060   19.455700
  C    -31.458600  -10.415200   17.873700
  H    -30.816100  -10.903000   18.537100
  H    -32.073100  -11.173600   17.335900
  C    -30.640000   -9.721400   16.848300
  H    -31.283800   -9.538470   16.030100
  H    -30.172500   -8.850010   17.255500
  H    -29.703000  -10.222200   16.618400
  S    -36.880600   -8.228250   15.428800
  C    -37.544800   -7.555390   13.915700
  C    -36.611700   -6.803160   13.314700
  C    -35.387700   -6.628960   14.048500
  C    -35.337700   -7.375720   15.213100
  H    -36.841600   -6.475820   12.378700
  C    -34.236100   -5.787970   13.483300
  H    -33.882800   -5.081450   14.256600
  H    -34.689300   -5.149880   12.733300
  C    -33.103000   -6.466030   12.644800
  H    -32.479100   -5.660370   12.248300
  H    -33.533700   -6.936650   11.743400
  C    -32.193800   -7.390550   13.374300
  H    -32.653000   -8.346390   13.617800
  H    -31.827700   -6.881720   14.292100
  H    -31.280000   -7.659610   12.849500
  H    -32.235500   -6.732650   19.088400
  H    -38.445200   -7.869170   13.402100

 Total Charge           Charge          ....    0
 Multiplicity           Mult            ....    1
 Number of Electrons    NEL             ....  134
 Basis Dimension        Dim             ....  322

ORBITAL ENERGIES
----------------

  NO   OCC          E(Eh)            E(eV)
   0   2.0000     -88.969122     -2420.9729
   1   2.0000     -88.961177     -2420.7567
   2   2.0000     -10.327131      -281.0155
   3   2.0000     -10.326279      -280.9923
   4   2.0000     -10.314310      -280.6667
   5   2.0000     -10.312680      -280.6223
   6   2.0000     -10.303495      -280.3724
   7   2.0000     -10.299187      -280.2551
   8   2.0000     -10.297757      -280.2162
   9   2.0000     -10.293905      -280.1114
  10   2.0000     -10.292288      -280.0674
  11   2.0000     -10.285575      -279.8847
  12   2.0000     -10.283928      -279.8399
  13   2.0000     -10.282769      -279.8084
  14   2.0000     -10.268196      -279.4118
  15   2.0000     -10.263958      -279.2965
  16   2.0000      -8.083675      -219.9680
  17   2.0000      -8.075123      -219.7353
  18   2.0000      -6.042248      -164.4179
  19   2.0000      -6.038288      -164.3102
  20   2.0000      -6.034296      -164.2015
  21   2.0000      -6.033841      -164.1892
  22   2.0000      -6.029697      -164.0764
  23   2.0000      -6.025723      -163.9683
  24   2.0000      -1.008386       -27.4396
  25   2.0000      -0.983395       -26.7595
  26   2.0000      -0.915094       -24.9010
  27   2.0000      -0.902133       -24.5483
  28   2.0000      -0.876386       -23.8477
  29   2.0000      -0.851252       -23.1637
  30   2.0000      -0.843046       -22.9404
  31   2.0000      -0.820125       -22.3167
  32   2.0000      -0.784423       -21.3452
  33   2.0000      -0.771902       -21.0045
  34   2.0000      -0.711771       -19.3683
  35   2.0000      -0.693928       -18.8827
  36   2.0000      -0.685590       -18.6559
  37   2.0000      -0.663981       -18.0678
  38   2.0000      -0.633564       -17.2401
  39   2.0000      -0.624417       -16.9912
  40   2.0000      -0.589988       -16.0544
  41   2.0000      -0.576911       -15.6985
  42   2.0000      -0.555693       -15.1212
  43   2.0000      -0.549444       -14.9511
  44   2.0000      -0.545920       -14.8553
  45   2.0000      -0.541896       -14.7457
  46   2.0000      -0.515475       -14.0268
  47   2.0000      -0.509021       -13.8512
  48   2.0000      -0.502058       -13.6617
  49   2.0000      -0.496569       -13.5123
  50   2.0000      -0.492973       -13.4145
  51   2.0000      -0.474682       -12.9168
  52   2.0000      -0.468317       -12.7436
  53   2.0000      -0.464641       -12.6435
  54   2.0000      -0.460844       -12.5402
  55   2.0000      -0.448557       -12.2058
  56   2.0000      -0.438215       -11.9244
  57   2.0000      -0.433956       -11.8085
  58   2.0000      -0.428072       -11.6484
  59   2.0000      -0.422222       -11.4892
  60   2.0000      -0.421307       -11.4643
  61   2.0000      -0.410687       -11.1754
  62   2.0000      -0.407748       -11.0954
  63   2.0000      -0.346797        -9.4368
  64   2.0000      -0.333278        -9.0690
  65   2.0000      -0.327417        -8.9095
  66   2.0000      -0.297658        -8.0997
  67   0.0000       0.031505         0.8573
  68   0.0000       0.074711         2.0330
  69   0.0000       0.110339         3.0025
  70   0.0000       0.117494         3.1972
  71   0.0000       0.128917         3.5080

MULLIKEN ATOMIC CHARGES
-----------------------
   0 S :    0.124463
   1 C :   -0.152333
   2 C :   -0.074115
   3 C :    0.006206
   4 C :   -0.125627
   5 H :    0.014274
   6 C :    0.045053
   7 H :    0.046954
   8 H :    0.014849
   9 C :   -0.066741
  10 H :    0.012485
  11 H :    0.037010
  12 C :   -0.009225
  13 H :    0.037451
  14 H :    0.006780
  15 H :    0.022368
  16 S :    0.090302
  17 C :   -0.085982
  18 C :    0.001143
  19 C :   -0.043447
  20 C :   -0.148375
  21 H :   -0.021409
  22 C :    0.062105
  23 H :    0.033290
  24 H :    0.009359
  25 C :   -0.049177
  26 H :    0.025851
  27 H :    0.022549
  28 C :   -0.045409
  29 H :    0.033270
  30 H :    0.031971
  31 H :    0.024223
  32 H :    0.062681
  33 H :    0.057205
Sum of atomic charges:    0.0000000

LOEWDIN ATOMIC CHARGES
----------------------
   0 S :    0.411955
   1 C :   -0.206711
   2 C :   -0.065807
   3 C :   -0.061933
   4 C :   -0.194510
   5 H :    0.030975
   6 C :   -0.031025
   7 H :    0.040132
   8 H :    0.025953
   9 C :   -0.038985
  10 H :    0.016628
  11 H :    0.026944
  12 C :   -0.062943
  13 H :    0.023450
  14 H :    0.022777
  15 H :    0.028673
  16 S :    0.378776
  17 C :   -0.170516
  18 C :   -0.061541
  19 C :   -0.059632
  20 C :   -0.185632
  21 H :    0.016211
  22 C :   -0.036025
  23 H :    0.028552
  24 H :    0.030609
  25 C :   -0.039811
  26 H :    0.027401
  27 H :    0.024392
  28 C :   -0.072619
  29 H :    0.022527
  30 H :    0.029875
  31 H :    0.024852
  32 H :    0.043081
  33 H :    0.033930

  Mayer bond orders larger than 0.100000
B(  0-S ,  1-C ) :   1.1161 B(  0-S ,  4-C ) :   1.1414 B(  1-C ,  2-C ) :   1.6634
B(  1-C , 32-H ) :   0.9521 B(  2-C ,  3-C ) :   1.2169 B(  2-C ,  6-C ) :   1.0148
B(  3-C ,  4-C ) :   1.5698 B(  3-C ,  5-H ) :   1.0003 B(  4-C , 20-C ) :   1.0599
B(  6-C ,  7-H ) :   0.9350 B(  6-C ,  8-H ) :   0.9480 B(  6-C ,  9-C ) :   1.0670
B(  9-C , 10-H ) :   0.9553 B(  9-C , 11-H ) :   0.9576 B(  9-C , 12-C ) :   1.0885
B( 12-C , 13-H ) :   0.9713 B( 12-C , 14-H ) :   0.9678 B( 12-C , 15-H ) :   0.9674
B( 16-S , 17-C ) :   1.1288 B( 16-S , 20-C ) :   1.1248 B( 17-C , 18-C ) :   1.6553
B( 17-C , 33-H ) :   0.9612 B( 18-C , 19-C ) :   1.2143 B( 18-C , 21-H ) :   1.0012
B( 19-C , 20-C ) :   1.5986 B( 19-C , 22-C ) :   1.0408 B( 22-C , 23-H ) :   0.9339
B( 22-C , 24-H ) :   0.9271 B( 22-C , 25-C ) :   1.0758 B( 25-C , 26-H ) :   0.9489
B( 25-C , 27-H ) :   0.9516 B( 25-C , 28-C ) :   1.0957 B( 28-C , 29-H ) :   0.9723
B( 28-C , 30-H ) :   0.9695 B( 28-C , 31-H ) :   0.9697

Dispersion correction           -0.016360177
FINAL SINGLE POINT ENERGY     -1339.875084792789

DIPOLE MOMENT
-------------
                                X             Y             Z
Electronic contribution:    -21.80559       7.77527       5.79641
Nuclear contribution   :     22.29395      -7.94414      -6.03893
                        -----------------------------------------
Total Dipole Moment    :      0.48836      -0.16887      -0.24252
                        -----------------------------------------
Magnitude (a.u.)       :      0.57081
Magnitude (Debye)      :      1.45089

Rotational constants in cm-1:     0.020105     0.009385     0.008273
Rotational constants in MHz :   602.741215   281.361501   248.028918

                             ****ORCA TERMINATED NORMALLY****
TOTAL RUN TIME: 0 days 0 hours 0 minutes 21 seconds 642 msec
