                         Program Version 4.2.1 -  RELEASE  -
|  1> ! wB97X-D3 SP def2-SVP
|  2> %pal
|  3> nprocs 24
|  4> end
|  5>
|  6> * xyz 0 1
|  7> S 	 -50.3136 	 14.9424 	 31.4823
|  8> C 	 -51.7957 	 13.9603 	 31.172
|  9> C 	 -51.7529 	 13.3819 	 29.8896
| 10> C 	 -50.5989 	 13.805 	 29.1233
| 11> C 	 -49.7629 	 14.7133 	 29.7656
| 12> H 	 -50.3517 	 13.3902 	 28.1694
| 13> C 	 -52.5863 	 12.3095 	 29.3738
| 14> H 	 -52.5564 	 12.3631 	 28.2393
| 15> H 	 -53.6734 	 12.5821 	 29.6006
| 16> C 	 -52.1466 	 10.9515 	 29.8765
| 17> H 	 -51.0875 	 10.7744 	 29.6202
| 18> H 	 -52.1533 	 11.04 	 30.9827
| 19> C 	 -52.9501 	 9.78109 	 29.2018
| 20> H 	 -52.6521 	 8.76838 	 29.5873
| 21> H 	 -53.9739 	 9.91896 	 29.3975
| 22> H 	 -52.8897 	 9.85129 	 28.105
| 23> S 	 -47.1505 	 15.433 	 30.2582
| 24> C 	 -46.1075 	 15.9946 	 28.9554
| 25> C 	 -46.8517 	 16.2469 	 27.7667
| 26> C 	 -48.2327 	 15.8 	 27.9099
| 27> C 	 -48.5491 	 15.3386 	 29.2154
| 28> H 	 -46.3574 	 16.6113 	 26.8906
| 29> C 	 -49.2708 	 16.0742 	 26.8328
| 30> H 	 -49.5965 	 15.045 	 26.5451
| 31> H 	 -48.8102 	 16.533 	 25.8987
| 32> C 	 -50.416 	 17.0372 	 27.2751
| 33> H 	 -50.7927 	 16.7907 	 28.2258
| 34> H 	 -51.1908 	 16.7539 	 26.5615
| 35> C 	 -49.9993 	 18.5646 	 27.2483
| 36> H 	 -50.827 	 19.1324 	 27.6374
| 37> H 	 -49.811 	 18.888 	 26.2619
| 38> H 	 -49.1461 	 18.7671 	 27.901
| 39> H 	 -52.6149 	 13.8327 	 31.8523
| 40> H 	 -45.0522 	 16.1682 	 29.0279
| 41> *
| 42>
| 43>                          ****END OF INPUT****

CARTESIAN COORDINATES (ANGSTROEM)
---------------------------------
  S    -50.313600   14.942400   31.482300
  C    -51.795700   13.960300   31.172000
  C    -51.752900   13.381900   29.889600
  C    -50.598900   13.805000   29.123300
  C    -49.762900   14.713300   29.765600
  H    -50.351700   13.390200   28.169400
  C    -52.586300   12.309500   29.373800
  H    -52.556400   12.363100   28.239300
  H    -53.673400   12.582100   29.600600
  C    -52.146600   10.951500   29.876500
  H    -51.087500   10.774400   29.620200
  H    -52.153300   11.040000   30.982700
  C    -52.950100    9.781090   29.201800
  H    -52.652100    8.768380   29.587300
  H    -53.973900    9.918960   29.397500
  H    -52.889700    9.851290   28.105000
  S    -47.150500   15.433000   30.258200
  C    -46.107500   15.994600   28.955400
  C    -46.851700   16.246900   27.766700
  C    -48.232700   15.800000   27.909900
  C    -48.549100   15.338600   29.215400
  H    -46.357400   16.611300   26.890600
  C    -49.270800   16.074200   26.832800
  H    -49.596500   15.045000   26.545100
  H    -48.810200   16.533000   25.898700
  C    -50.416000   17.037200   27.275100
  H    -50.792700   16.790700   28.225800
  H    -51.190800   16.753900   26.561500
  C    -49.999300   18.564600   27.248300
  H    -50.827000   19.132400   27.637400
  H    -49.811000   18.888000   26.261900
  H    -49.146100   18.767100   27.901000
  H    -52.614900   13.832700   31.852300
  H    -45.052200   16.168200   29.027900

 Total Charge           Charge          ....    0
 Multiplicity           Mult            ....    1
 Number of Electrons    NEL             ....  134
 Basis Dimension        Dim             ....  322

ORBITAL ENERGIES
----------------

  NO   OCC          E(Eh)            E(eV)
   0   2.0000     -88.969288     -2420.9774
   1   2.0000     -88.969163     -2420.9740
   2   2.0000     -10.340803      -281.3876
   3   2.0000     -10.332011      -281.1483
   4   2.0000     -10.323187      -280.9082
   5   2.0000     -10.321501      -280.8623
   6   2.0000     -10.310536      -280.5639
   7   2.0000     -10.303151      -280.3630
   8   2.0000     -10.301720      -280.3241
   9   2.0000     -10.298220      -280.2288
  10   2.0000     -10.297647      -280.2132
  11   2.0000     -10.295788      -280.1626
  12   2.0000     -10.293279      -280.0944
  13   2.0000     -10.283533      -279.8292
  14   2.0000     -10.282192      -279.7927
  15   2.0000     -10.273013      -279.5429
  16   2.0000      -8.083506      -219.9634
  17   2.0000      -8.081936      -219.9207
  18   2.0000      -6.042057      -164.4127
  19   2.0000      -6.040786      -164.3781
  20   2.0000      -6.037943      -164.3008
  21   2.0000      -6.036827      -164.2704
  22   2.0000      -6.034386      -164.2040
  23   2.0000      -6.032378      -164.1493
  24   2.0000      -0.996193       -27.1078
  25   2.0000      -0.973640       -26.4941
  26   2.0000      -0.914174       -24.8759
  27   2.0000      -0.899546       -24.4779
  28   2.0000      -0.862815       -23.4784
  29   2.0000      -0.845494       -23.0071
  30   2.0000      -0.840545       -22.8724
  31   2.0000      -0.811693       -22.0873
  32   2.0000      -0.778216       -21.1763
  33   2.0000      -0.767400       -20.8820
  34   2.0000      -0.710641       -19.3375
  35   2.0000      -0.705181       -19.1890
  36   2.0000      -0.688260       -18.7285
  37   2.0000      -0.664629       -18.0855
  38   2.0000      -0.638419       -17.3723
  39   2.0000      -0.618736       -16.8367
  40   2.0000      -0.587065       -15.9749
  41   2.0000      -0.568398       -15.4669
  42   2.0000      -0.556280       -15.1372
  43   2.0000      -0.544818       -14.8253
  44   2.0000      -0.536970       -14.6117
  45   2.0000      -0.526345       -14.3226
  46   2.0000      -0.517704       -14.0874
  47   2.0000      -0.507631       -13.8133
  48   2.0000      -0.506057       -13.7705
  49   2.0000      -0.498746       -13.5716
  50   2.0000      -0.483219       -13.1491
  51   2.0000      -0.477191       -12.9850
  52   2.0000      -0.471031       -12.8174
  53   2.0000      -0.464561       -12.6414
  54   2.0000      -0.451983       -12.2991
  55   2.0000      -0.450114       -12.2482
  56   2.0000      -0.446606       -12.1528
  57   2.0000      -0.440355       -11.9827
  58   2.0000      -0.434213       -11.8155
  59   2.0000      -0.426385       -11.6025
  60   2.0000      -0.417750       -11.3675
  61   2.0000      -0.411880       -11.2078
  62   2.0000      -0.408461       -11.1148
  63   2.0000      -0.351205        -9.5568
  64   2.0000      -0.331546        -9.0218
  65   2.0000      -0.326092        -8.8734
  66   2.0000      -0.282576        -7.6893
  67   0.0000       0.018178         0.4947
  68   0.0000       0.063955         1.7403
  69   0.0000       0.097087         2.6419
  70   0.0000       0.115862         3.1528
  71   0.0000       0.130061         3.5391

MULLIKEN ATOMIC CHARGES
-----------------------
   0 S :    0.087543
   1 C :   -0.114991
   2 C :   -0.079039
   3 C :    0.015454
   4 C :   -0.114312
   5 H :    0.009328
   6 C :   -0.002178
   7 H :    0.026405
   8 H :    0.038771
   9 C :   -0.065982
  10 H :    0.032908
  11 H :    0.032281
  12 C :   -0.024288
  13 H :    0.049443
  14 H :    0.016234
  15 H :    0.032257
  16 S :    0.109999
  17 C :   -0.098768
  18 C :   -0.027639
  19 C :   -0.049154
  20 C :   -0.148858
  21 H :    0.019674
  22 C :    0.009254
  23 H :    0.036026
  24 H :    0.026700
  25 C :   -0.044395
  26 H :    0.033599
  27 H :    0.025258
  28 C :   -0.032860
  29 H :    0.032420
  30 H :    0.021240
  31 H :    0.044707
  32 H :    0.045359
  33 H :    0.057604
Sum of atomic charges:    0.0000000

LOEWDIN ATOMIC CHARGES
----------------------
   0 S :    0.352817
   1 C :   -0.181968
   2 C :   -0.059852
   3 C :   -0.060512
   4 C :   -0.167018
   5 H :    0.027102
   6 C :   -0.049069
   7 H :    0.032185
   8 H :    0.037396
   9 C :   -0.039538
  10 H :    0.028509
  11 H :    0.028088
  12 C :   -0.064850
  13 H :    0.033772
  14 H :    0.015945
  15 H :    0.028779
  16 S :    0.411791
  17 C :   -0.182339
  18 C :   -0.067350
  19 C :   -0.055134
  20 C :   -0.207885
  21 H :    0.029662
  22 C :   -0.040786
  23 H :    0.031735
  24 H :    0.033929
  25 C :   -0.028977
  26 H :    0.017729
  27 H :    0.025792
  28 C :   -0.056291
  29 H :    0.026996
  30 H :    0.016131
  31 H :    0.030831
  32 H :    0.025830
  33 H :    0.026549

  Mayer bond orders larger than 0.100000
B(  0-S ,  1-C ) :   1.1115 B(  0-S ,  4-C ) :   1.1206 B(  1-C ,  2-C ) :   1.6110
B(  1-C , 32-H ) :   0.9713 B(  2-C ,  3-C ) :   1.2294 B(  2-C ,  6-C ) :   1.0484
B(  3-C ,  4-C ) :   1.5807 B(  3-C ,  5-H ) :   0.9922 B(  4-C , 20-C ) :   1.0609
B(  6-C ,  7-H ) :   0.9371 B(  6-C ,  8-H ) :   0.9319 B(  6-C ,  9-C ) :   1.0537
B(  9-C , 10-H ) :   0.9552 B(  9-C , 11-H ) :   0.9555 B(  9-C , 12-C ) :   1.0635
B( 12-C , 13-H ) :   0.9757 B( 12-C , 14-H ) :   0.9756 B( 12-C , 15-H ) :   0.9735
B( 16-S , 17-C ) :   1.1706 B( 16-S , 20-C ) :   1.1420 B( 17-C , 18-C ) :   1.5767
B( 17-C , 20-C ) :   0.1045 B( 17-C , 33-H ) :   0.9703 B( 18-C , 19-C ) :   1.2600
B( 18-C , 21-H ) :   0.9918 B( 19-C , 20-C ) :   1.5508 B( 19-C , 22-C ) :   1.0363
B( 22-C , 23-H ) :   0.9332 B( 22-C , 24-H ) :   0.9443 B( 22-C , 25-C ) :   1.0554
B( 25-C , 26-H ) :   0.9620 B( 25-C , 27-H ) :   0.9558 B( 25-C , 28-C ) :   1.0663
B( 28-C , 29-H ) :   0.9754 B( 28-C , 30-H ) :   0.9773 B( 28-C , 31-H ) :   0.9782

Dispersion correction           -0.014714210
FINAL SINGLE POINT ENERGY     -1339.872975572903

DIPOLE MOMENT
-------------
                                X             Y             Z
Electronic contribution:     16.25338       6.86636      15.67021
Nuclear contribution   :    -16.49637      -7.07539     -16.24158
                        -----------------------------------------
Total Dipole Moment    :     -0.24299      -0.20904      -0.57137
                        -----------------------------------------
Magnitude (a.u.)       :      0.65513
Magnitude (Debye)      :      1.66522

Rotational constants in cm-1:     0.020328     0.007797     0.007051
Rotational constants in MHz :   609.419732   233.759731   211.381698

                             ****ORCA TERMINATED NORMALLY****
TOTAL RUN TIME: 0 days 0 hours 0 minutes 21 seconds 628 msec
