                         Program Version 4.2.1 -  RELEASE  -
|  1> ! wB97X-D3 SP def2-SVP
|  2> %pal
|  3> nprocs 24
|  4> end
|  5>
|  6> * xyz 0 1
|  7> S 	 -112.384 	 50.9576 	 -73.5038
|  8> C 	 -112.574 	 50.9694 	 -75.225
|  9> C 	 -111.416 	 50.6023 	 -75.8726
| 10> C 	 -110.372 	 50.2314 	 -75.0076
| 11> C 	 -110.734 	 50.402 	 -73.7163
| 12> H 	 -109.386 	 49.886 	 -75.2057
| 13> C 	 -111.204 	 50.479 	 -77.3752
| 14> H 	 -111.204 	 49.4106 	 -77.6799
| 15> H 	 -110.146 	 50.7621 	 -77.5895
| 16> C 	 -112.22 	 51.3031 	 -78.3118
| 17> H 	 -112.086 	 51.0959 	 -79.3517
| 18> H 	 -113.242 	 50.9346 	 -77.9848
| 19> C 	 -112.037 	 52.8639 	 -78.0949
| 20> H 	 -111.026 	 53.1114 	 -78.39
| 21> H 	 -112.793 	 53.4128 	 -78.6149
| 22> H 	 -112.192 	 53.0462 	 -77.0435
| 23> S 	 -110.652 	 49.1703 	 -71.1637
| 24> C 	 -109.269 	 49.3628 	 -70.2097
| 25> C 	 -108.302 	 50.0693 	 -70.8921
| 26> C 	 -108.615 	 50.3817 	 -72.2252
| 27> C 	 -109.967 	 50.1689 	 -72.4774
| 28> H 	 -107.306 	 50.0602 	 -70.4532
| 29> C 	 -107.49 	 50.8821 	 -73.191
| 30> H 	 -107.802 	 51.691 	 -73.7924
| 31> H 	 -107.233 	 50.1584 	 -73.9475
| 32> C 	 -106.231 	 51.518 	 -72.4987
| 33> H 	 -105.599 	 50.7422 	 -72.0545
| 34> H 	 -106.484 	 52.2472 	 -71.7007
| 35> C 	 -105.388 	 52.3764 	 -73.531
| 36> H 	 -104.409 	 52.6638 	 -73.0877
| 37> H 	 -105.859 	 53.3506 	 -73.8085
| 38> H 	 -105.207 	 51.6517 	 -74.3392
| 39> H 	 -113.58 	 51.0872 	 -75.6951
| 40> H 	 -109.191 	 48.9759 	 -69.1963
| 41> *
| 42>
| 43>                          ****END OF INPUT****

CARTESIAN COORDINATES (ANGSTROEM)
---------------------------------
  S    -112.384000   50.957600  -73.503800
  C    -112.574000   50.969400  -75.225000
  C    -111.416000   50.602300  -75.872600
  C    -110.372000   50.231400  -75.007600
  C    -110.734000   50.402000  -73.716300
  H    -109.386000   49.886000  -75.205700
  C    -111.204000   50.479000  -77.375200
  H    -111.204000   49.410600  -77.679900
  H    -110.146000   50.762100  -77.589500
  C    -112.220000   51.303100  -78.311800
  H    -112.086000   51.095900  -79.351700
  H    -113.242000   50.934600  -77.984800
  C    -112.037000   52.863900  -78.094900
  H    -111.026000   53.111400  -78.390000
  H    -112.793000   53.412800  -78.614900
  H    -112.192000   53.046200  -77.043500
  S    -110.652000   49.170300  -71.163700
  C    -109.269000   49.362800  -70.209700
  C    -108.302000   50.069300  -70.892100
  C    -108.615000   50.381700  -72.225200
  C    -109.967000   50.168900  -72.477400
  H    -107.306000   50.060200  -70.453200
  C    -107.490000   50.882100  -73.191000
  H    -107.802000   51.691000  -73.792400
  H    -107.233000   50.158400  -73.947500
  C    -106.231000   51.518000  -72.498700
  H    -105.599000   50.742200  -72.054500
  H    -106.484000   52.247200  -71.700700
  C    -105.388000   52.376400  -73.531000
  H    -104.409000   52.663800  -73.087700
  H    -105.859000   53.350600  -73.808500
  H    -105.207000   51.651700  -74.339200
  H    -113.580000   51.087200  -75.695100
  H    -109.191000   48.975900  -69.196300

 Total Charge           Charge          ....    0
 Multiplicity           Mult            ....    1
 Number of Electrons    NEL             ....  134
 Basis Dimension        Dim             ....  322

ORBITAL ENERGIES
----------------

  NO   OCC          E(Eh)            E(eV)
   0   2.0000     -88.965951     -2420.8866
   1   2.0000     -88.963513     -2420.8203
   2   2.0000     -10.327093      -281.0145
   3   2.0000     -10.325772      -280.9785
   4   2.0000     -10.313570      -280.6465
   5   2.0000     -10.312654      -280.6216
   6   2.0000     -10.306717      -280.4600
   7   2.0000     -10.300633      -280.2945
   8   2.0000     -10.299217      -280.2559
   9   2.0000     -10.296769      -280.1893
  10   2.0000     -10.296046      -280.1697
  11   2.0000     -10.295924      -280.1663
  12   2.0000     -10.289760      -279.9986
  13   2.0000     -10.287867      -279.9471
  14   2.0000     -10.287545      -279.9383
  15   2.0000     -10.272983      -279.5421
  16   2.0000      -8.081148      -219.8992
  17   2.0000      -8.078812      -219.8356
  18   2.0000      -6.039502      -164.3432
  19   2.0000      -6.037209      -164.2808
  20   2.0000      -6.035577      -164.2364
  21   2.0000      -6.033345      -164.1757
  22   2.0000      -6.032053      -164.1405
  23   2.0000      -6.029559      -164.0727
  24   2.0000      -1.010477       -27.4965
  25   2.0000      -0.990421       -26.9507
  26   2.0000      -0.903693       -24.5907
  27   2.0000      -0.899481       -24.4761
  28   2.0000      -0.864004       -23.5107
  29   2.0000      -0.852767       -23.2050
  30   2.0000      -0.846164       -23.0253
  31   2.0000      -0.808839       -22.0096
  32   2.0000      -0.782833       -21.3020
  33   2.0000      -0.770387       -20.9633
  34   2.0000      -0.704977       -19.1834
  35   2.0000      -0.701162       -19.0796
  36   2.0000      -0.693698       -18.8765
  37   2.0000      -0.654151       -17.8003
  38   2.0000      -0.639106       -17.3910
  39   2.0000      -0.615793       -16.7566
  40   2.0000      -0.599778       -16.3208
  41   2.0000      -0.571224       -15.5438
  42   2.0000      -0.567455       -15.4412
  43   2.0000      -0.544408       -14.8141
  44   2.0000      -0.537300       -14.6207
  45   2.0000      -0.527361       -14.3502
  46   2.0000      -0.512977       -13.9588
  47   2.0000      -0.511221       -13.9110
  48   2.0000      -0.497405       -13.5351
  49   2.0000      -0.495751       -13.4901
  50   2.0000      -0.486509       -13.2386
  51   2.0000      -0.480342       -13.0708
  52   2.0000      -0.471981       -12.8432
  53   2.0000      -0.463781       -12.6201
  54   2.0000      -0.461230       -12.5507
  55   2.0000      -0.449862       -12.2414
  56   2.0000      -0.446722       -12.1559
  57   2.0000      -0.435347       -11.8464
  58   2.0000      -0.428905       -11.6711
  59   2.0000      -0.425715       -11.5843
  60   2.0000      -0.421535       -11.4705
  61   2.0000      -0.419340       -11.4108
  62   2.0000      -0.413903       -11.2629
  63   2.0000      -0.348461        -9.4821
  64   2.0000      -0.334335        -9.0977
  65   2.0000      -0.329558        -8.9677
  66   2.0000      -0.289842        -7.8870
  67   0.0000       0.029805         0.8110
  68   0.0000       0.074528         2.0280
  69   0.0000       0.113202         3.0804
  70   0.0000       0.118431         3.2227
  71   0.0000       0.132589         3.6079

MULLIKEN ATOMIC CHARGES
-----------------------
   0 S :    0.108114
   1 C :   -0.151189
   2 C :   -0.059201
   3 C :    0.026371
   4 C :   -0.150683
   5 H :   -0.007078
   6 C :    0.019788
   7 H :    0.047073
   8 H :    0.022993
   9 C :   -0.090932
  10 H :    0.031215
  11 H :    0.033065
  12 C :   -0.030221
  13 H :    0.032090
  14 H :    0.032847
  15 H :    0.033414
  16 S :    0.115226
  17 C :   -0.094561
  18 C :   -0.043709
  19 C :   -0.022544
  20 C :   -0.147991
  21 H :    0.022834
  22 C :    0.065962
  23 H :    0.017200
  24 H :    0.040607
  25 C :   -0.120998
  26 H :    0.039567
  27 H :    0.045077
  28 C :   -0.077539
  29 H :    0.037804
  30 H :    0.055048
  31 H :    0.037447
  32 H :    0.068189
  33 H :    0.064717
Sum of atomic charges:    0.0000000

LOEWDIN ATOMIC CHARGES
----------------------
   0 S :    0.408532
   1 C :   -0.215846
   2 C :   -0.063488
   3 C :   -0.061497
   4 C :   -0.176194
   5 H :    0.030457
   6 C :   -0.037707
   7 H :    0.036396
   8 H :    0.028691
   9 C :   -0.036949
  10 H :    0.018604
  11 H :    0.024122
  12 C :   -0.058958
  13 H :    0.024317
  14 H :    0.021732
  15 H :    0.023533
  16 S :    0.420055
  17 C :   -0.201138
  18 C :   -0.084043
  19 C :   -0.049558
  20 C :   -0.200204
  21 H :    0.032415
  22 C :   -0.031123
  23 H :    0.027584
  24 H :    0.030033
  25 C :   -0.042515
  26 H :    0.020254
  27 H :    0.029060
  28 C :   -0.071615
  29 H :    0.029202
  30 H :    0.031615
  31 H :    0.025458
  32 H :    0.035624
  33 H :    0.033149

  Mayer bond orders larger than 0.100000
B(  0-S ,  1-C ) :   1.1298 B(  0-S ,  4-C ) :   1.1601 B(  1-C ,  2-C ) :   1.6239
B(  1-C , 32-H ) :   0.9593 B(  2-C ,  3-C ) :   1.2203 B(  2-C ,  6-C ) :   1.0040
B(  3-C ,  4-C ) :   1.6023 B(  3-C ,  5-H ) :   1.0042 B(  4-C , 20-C ) :   1.0206
B(  6-C ,  7-H ) :   0.9414 B(  6-C ,  8-H ) :   0.9456 B(  6-C ,  9-C ) :   1.0643
B(  9-C , 10-H ) :   0.9615 B(  9-C , 11-H ) :   0.9544 B(  9-C , 12-C ) :   1.0647
B( 12-C , 13-H ) :   0.9770 B( 12-C , 14-H ) :   0.9769 B( 12-C , 15-H ) :   0.9777
B( 16-S , 17-C ) :   1.1807 B( 16-S , 20-C ) :   1.1510 B( 17-C , 18-C ) :   1.5696
B( 17-C , 20-C ) :   0.1059 B( 17-C , 33-H ) :   0.9633 B( 18-C , 19-C ) :   1.2881
B( 18-C , 21-H ) :   0.9830 B( 19-C , 20-C ) :   1.5812 B( 19-C , 22-C ) :   1.0186
B( 22-C , 23-H ) :   0.9377 B( 22-C , 24-H ) :   0.9296 B( 22-C , 25-C ) :   1.0649
B( 25-C , 26-H ) :   0.9518 B( 25-C , 27-H ) :   0.9593 B( 25-C , 28-C ) :   1.0756
B( 28-C , 29-H ) :   0.9741 B( 28-C , 30-H ) :   0.9748 B( 28-C , 31-H ) :   0.9769

Dispersion correction           -0.013697666
FINAL SINGLE POINT ENERGY     -1339.875965834462

DIPOLE MOMENT
-------------
                                X             Y             Z
Electronic contribution:    -15.94941     -11.54260      20.41875
Nuclear contribution   :     16.53279      11.48986     -20.76623
                        -----------------------------------------
Total Dipole Moment    :      0.58338      -0.05273      -0.34748
                        -----------------------------------------
Magnitude (a.u.)       :      0.68107
Magnitude (Debye)      :      1.73115

Rotational constants in cm-1:     0.018262     0.008239     0.006075
Rotational constants in MHz :   547.493097   247.011961   182.122591

                             ****ORCA TERMINATED NORMALLY****
TOTAL RUN TIME: 0 days 0 hours 0 minutes 21 seconds 208 msec
