                         Program Version 4.2.1 -  RELEASE  -
|  1> ! wB97X-D3 SP def2-SVP
|  2> %pal
|  3> nprocs 24
|  4> end
|  5>
|  6> * xyz 0 1
|  7> S 	 -38.8516 	 -49.9876 	 -74.4623
|  8> C 	 -39.8589 	 -48.6164 	 -74.3629
|  9> C 	 -39.1564 	 -47.4122 	 -74.1063
| 10> C 	 -37.7827 	 -47.6764 	 -73.9423
| 11> C 	 -37.4274 	 -49.0088 	 -74.0199
| 12> H 	 -37.1508 	 -46.8702 	 -73.5408
| 13> C 	 -39.8599 	 -46.096 	 -73.8638
| 14> H 	 -40.9323 	 -46.2335 	 -74.1971
| 15> H 	 -39.3761 	 -45.2922 	 -74.4382
| 16> C 	 -39.7427 	 -45.5362 	 -72.4632
| 17> H 	 -38.7138 	 -45.5113 	 -72.1765
| 18> H 	 -40.1445 	 -44.5083 	 -72.2638
| 19> C 	 -40.487 	 -46.4511 	 -71.4921
| 20> H 	 -40.5503 	 -45.8608 	 -70.5464
| 21> H 	 -41.5205 	 -46.586 	 -71.8023
| 22> H 	 -40.0992 	 -47.4479 	 -71.2448
| 23> S 	 -36.5668 	 -51.1049 	 -72.5455
| 24> C 	 -34.9233 	 -51.4888 	 -72.4498
| 25> C 	 -34.166 	 -50.4102 	 -72.8883
| 26> C 	 -34.9103 	 -49.4208 	 -73.5851
| 27> C 	 -36.247 	 -49.6665 	 -73.5087
| 28> H 	 -33.1227 	 -50.4164 	 -72.635
| 29> C 	 -34.1925 	 -48.3524 	 -74.4272
| 30> H 	 -33.8608 	 -47.6177 	 -73.732
| 31> H 	 -34.9988 	 -47.7972 	 -74.9903
| 32> C 	 -33.0721 	 -48.8231 	 -75.3019
| 33> H 	 -32.4905 	 -49.4496 	 -74.6481
| 34> H 	 -32.4633 	 -47.9575 	 -75.4438
| 35> C 	 -33.3993 	 -49.3698 	 -76.6289
| 36> H 	 -32.4707 	 -49.6727 	 -77.1597
| 37> H 	 -33.804 	 -48.6194 	 -77.1509
| 38> H 	 -34.1017 	 -50.2075 	 -76.5872
| 39> H 	 -40.8994 	 -48.6285 	 -74.451
| 40> H 	 -34.4104 	 -52.2177 	 -71.8202
| 41> *
| 42>
| 43>                          ****END OF INPUT****

CARTESIAN COORDINATES (ANGSTROEM)
---------------------------------
  S    -38.851600  -49.987600  -74.462300
  C    -39.858900  -48.616400  -74.362900
  C    -39.156400  -47.412200  -74.106300
  C    -37.782700  -47.676400  -73.942300
  C    -37.427400  -49.008800  -74.019900
  H    -37.150800  -46.870200  -73.540800
  C    -39.859900  -46.096000  -73.863800
  H    -40.932300  -46.233500  -74.197100
  H    -39.376100  -45.292200  -74.438200
  C    -39.742700  -45.536200  -72.463200
  H    -38.713800  -45.511300  -72.176500
  H    -40.144500  -44.508300  -72.263800
  C    -40.487000  -46.451100  -71.492100
  H    -40.550300  -45.860800  -70.546400
  H    -41.520500  -46.586000  -71.802300
  H    -40.099200  -47.447900  -71.244800
  S    -36.566800  -51.104900  -72.545500
  C    -34.923300  -51.488800  -72.449800
  C    -34.166000  -50.410200  -72.888300
  C    -34.910300  -49.420800  -73.585100
  C    -36.247000  -49.666500  -73.508700
  H    -33.122700  -50.416400  -72.635000
  C    -34.192500  -48.352400  -74.427200
  H    -33.860800  -47.617700  -73.732000
  H    -34.998800  -47.797200  -74.990300
  C    -33.072100  -48.823100  -75.301900
  H    -32.490500  -49.449600  -74.648100
  H    -32.463300  -47.957500  -75.443800
  C    -33.399300  -49.369800  -76.628900
  H    -32.470700  -49.672700  -77.159700
  H    -33.804000  -48.619400  -77.150900
  H    -34.101700  -50.207500  -76.587200
  H    -40.899400  -48.628500  -74.451000
  H    -34.410400  -52.217700  -71.820200

 Total Charge           Charge          ....    0
 Multiplicity           Mult            ....    1
 Number of Electrons    NEL             ....  134
 Basis Dimension        Dim             ....  322

ORBITAL ENERGIES
----------------

  NO   OCC          E(Eh)            E(eV)
   0   2.0000     -88.969594     -2420.9857
   1   2.0000     -88.963186     -2420.8114
   2   2.0000     -10.331220      -281.1268
   3   2.0000     -10.323094      -280.9057
   4   2.0000     -10.310432      -280.5611
   5   2.0000     -10.310242      -280.5559
   6   2.0000     -10.301094      -280.3070
   7   2.0000     -10.298311      -280.2313
   8   2.0000     -10.296468      -280.1811
   9   2.0000     -10.296241      -280.1750
  10   2.0000     -10.289023      -279.9785
  11   2.0000     -10.288302      -279.9589
  12   2.0000     -10.287552      -279.9385
  13   2.0000     -10.273936      -279.5680
  14   2.0000     -10.273040      -279.5436
  15   2.0000     -10.264240      -279.3042
  16   2.0000      -8.084382      -219.9872
  17   2.0000      -8.078853      -219.8368
  18   2.0000      -6.042760      -164.4319
  19   2.0000      -6.038822      -164.3247
  20   2.0000      -6.037287      -164.2829
  21   2.0000      -6.035316      -164.2293
  22   2.0000      -6.033252      -164.1731
  23   2.0000      -6.029558      -164.0726
  24   2.0000      -1.012499       -27.5515
  25   2.0000      -0.988664       -26.9029
  26   2.0000      -0.919245       -25.0139
  27   2.0000      -0.915912       -24.9232
  28   2.0000      -0.871234       -23.7075
  29   2.0000      -0.857135       -23.3238
  30   2.0000      -0.848380       -23.0856
  31   2.0000      -0.812846       -22.1187
  32   2.0000      -0.788783       -21.4639
  33   2.0000      -0.773208       -21.0401
  34   2.0000      -0.712173       -19.3792
  35   2.0000      -0.698638       -19.0109
  36   2.0000      -0.691725       -18.8228
  37   2.0000      -0.655816       -17.8457
  38   2.0000      -0.638433       -17.3726
  39   2.0000      -0.627839       -17.0844
  40   2.0000      -0.597879       -16.2691
  41   2.0000      -0.567101       -15.4316
  42   2.0000      -0.559014       -15.2115
  43   2.0000      -0.549098       -14.9417
  44   2.0000      -0.548082       -14.9141
  45   2.0000      -0.543572       -14.7913
  46   2.0000      -0.523932       -14.2569
  47   2.0000      -0.513269       -13.9668
  48   2.0000      -0.504665       -13.7326
  49   2.0000      -0.497873       -13.5478
  50   2.0000      -0.489289       -13.3142
  51   2.0000      -0.478293       -13.0150
  52   2.0000      -0.469287       -12.7699
  53   2.0000      -0.461836       -12.5672
  54   2.0000      -0.460900       -12.5417
  55   2.0000      -0.449548       -12.2328
  56   2.0000      -0.444321       -12.0906
  57   2.0000      -0.440490       -11.9863
  58   2.0000      -0.432312       -11.7638
  59   2.0000      -0.422806       -11.5051
  60   2.0000      -0.418484       -11.3875
  61   2.0000      -0.414115       -11.2687
  62   2.0000      -0.409170       -11.1341
  63   2.0000      -0.356587        -9.7032
  64   2.0000      -0.334675        -9.1070
  65   2.0000      -0.324009        -8.8167
  66   2.0000      -0.285001        -7.7553
  67   0.0000       0.024957         0.6791
  68   0.0000       0.074228         2.0198
  69   0.0000       0.110233         2.9996
  70   0.0000       0.116049         3.1579
  71   0.0000       0.139506         3.7961

MULLIKEN ATOMIC CHARGES
-----------------------
   0 S :    0.124216
   1 C :   -0.099804
   2 C :   -0.112393
   3 C :    0.034547
   4 C :   -0.153342
   5 H :    0.021667
   6 C :    0.066852
   7 H :    0.033299
   8 H :    0.031913
   9 C :   -0.073125
  10 H :    0.022321
  11 H :    0.041744
  12 C :   -0.075468
  13 H :    0.025938
  14 H :    0.017637
  15 H :    0.051520
  16 S :    0.112459
  17 C :   -0.082087
  18 C :   -0.083036
  19 C :   -0.031365
  20 C :   -0.156129
  21 H :    0.019585
  22 C :    0.067961
  23 H :    0.021068
  24 H :    0.017660
  25 C :   -0.045227
  26 H :    0.009481
  27 H :    0.009134
  28 C :    0.029571
  29 H :    0.033548
  30 H :   -0.002196
  31 H :    0.037572
  32 H :    0.024686
  33 H :    0.059791
Sum of atomic charges:   -0.0000000

LOEWDIN ATOMIC CHARGES
----------------------
   0 S :    0.420233
   1 C :   -0.200750
   2 C :   -0.064180
   3 C :   -0.061787
   4 C :   -0.186691
   5 H :    0.035057
   6 C :   -0.036287
   7 H :    0.035155
   8 H :    0.033737
   9 C :   -0.044619
  10 H :    0.019698
  11 H :    0.033663
  12 C :   -0.072798
  13 H :    0.027173
  14 H :    0.019316
  15 H :    0.027692
  16 S :    0.423600
  17 C :   -0.211409
  18 C :   -0.073734
  19 C :   -0.062884
  20 C :   -0.194213
  21 H :    0.026068
  22 C :   -0.028424
  23 H :    0.029705
  24 H :    0.031246
  25 C :   -0.041651
  26 H :    0.018638
  27 H :    0.024277
  28 C :   -0.048879
  29 H :    0.034444
  30 H :    0.009507
  31 H :    0.030103
  32 H :    0.013936
  33 H :    0.035058

  Mayer bond orders larger than 0.100000
B(  0-S ,  1-C ) :   1.1619 B(  0-S ,  4-C ) :   1.1488 B(  1-C ,  2-C ) :   1.5667
B(  1-C , 32-H ) :   0.9710 B(  2-C ,  3-C ) :   1.2923 B(  2-C ,  6-C ) :   1.0325
B(  3-C ,  4-C ) :   1.5390 B(  3-C ,  5-H ) :   0.9816 B(  4-C , 20-C ) :   1.0615
B(  6-C ,  7-H ) :   0.9469 B(  6-C ,  8-H ) :   0.9313 B(  6-C ,  9-C ) :   1.0702
B(  9-C , 10-H ) :   0.9512 B(  9-C , 11-H ) :   0.9570 B(  9-C , 12-C ) :   1.0708
B( 12-C , 13-H ) :   0.9759 B( 12-C , 14-H ) :   0.9757 B( 12-C , 15-H ) :   0.9763
B( 16-S , 17-C ) :   1.1598 B( 16-S , 20-C ) :   1.1399 B( 17-C , 18-C ) :   1.6154
B( 17-C , 33-H ) :   0.9613 B( 18-C , 19-C ) :   1.2352 B( 18-C , 21-H ) :   0.9840
B( 19-C , 20-C ) :   1.6056 B( 19-C , 22-C ) :   1.0311 B( 22-C , 23-H ) :   0.9231
B( 22-C , 24-H ) :   0.9327 B( 22-C , 25-C ) :   1.0827 B( 25-C , 26-H ) :   0.9471
B( 25-C , 27-H ) :   0.9416 B( 25-C , 28-C ) :   1.0888 B( 28-C , 29-H ) :   0.9676
B( 28-C , 30-H ) :   0.9649 B( 28-C , 31-H ) :   0.9751

Dispersion correction           -0.014284885
FINAL SINGLE POINT ENERGY     -1339.867371251900

DIPOLE MOMENT
-------------
                                X             Y             Z
Electronic contribution:     -4.85609     -18.34777       1.98919
Nuclear contribution   :      5.11415      18.93137      -1.79455
                        -----------------------------------------
Total Dipole Moment    :      0.25807       0.58359       0.19464
                        -----------------------------------------
Magnitude (a.u.)       :      0.66713
Magnitude (Debye)      :      1.69571

Rotational constants in cm-1:     0.021000     0.008094     0.007233
Rotational constants in MHz :   629.558344   242.649094   216.850965

                             ****ORCA TERMINATED NORMALLY****
TOTAL RUN TIME: 0 days 0 hours 0 minutes 21 seconds 598 msec
