                         Program Version 4.2.1 -  RELEASE  -
|  1> ! wB97X-D3 SP def2-SVP
|  2> %pal
|  3> nprocs 24
|  4> end
|  5>
|  6> * xyz 0 1
|  7> S 	 -52.0372 	 16.8432 	 -88.3553
|  8> C 	 -52.8908 	 17.8641 	 -89.4993
|  9> C 	 -53.196 	 19.1503 	 -89.0047
| 10> C 	 -52.6519 	 19.3109 	 -87.7063
| 11> C 	 -52.0335 	 18.1673 	 -87.1256
| 12> H 	 -52.7324 	 20.2666 	 -87.1989
| 13> C 	 -53.8083 	 20.3482 	 -89.6478
| 14> H 	 -54.7656 	 20.6733 	 -89.1755
| 15> H 	 -54.0163 	 20.1102 	 -90.7194
| 16> C 	 -52.7479 	 21.5346 	 -89.6561
| 17> H 	 -52.491 	 21.8953 	 -88.6752
| 18> H 	 -51.8134 	 21.0992 	 -90.0867
| 19> C 	 -53.2678 	 22.7219 	 -90.4551
| 20> H 	 -54.1168 	 23.2019 	 -89.9678
| 21> H 	 -52.5657 	 23.522 	 -90.703
| 22> H 	 -53.5733 	 22.3173 	 -91.4273
| 23> S 	 -51.8668 	 16.5022 	 -84.8344
| 24> C 	 -51.3937 	 17.2478 	 -83.3516
| 25> C 	 -50.7903 	 18.4728 	 -83.559
| 26> C 	 -50.9547 	 18.9922 	 -84.8944
| 27> C 	 -51.6171 	 18.0343 	 -85.7263
| 28> H 	 -50.3966 	 18.9476 	 -82.6995
| 29> C 	 -50.4772 	 20.3589 	 -85.199
| 30> H 	 -50.8147 	 20.475 	 -86.2515
| 31> H 	 -49.372 	 20.3014 	 -85.1839
| 32> C 	 -50.9369 	 21.5666 	 -84.2782
| 33> H 	 -50.3742 	 21.6893 	 -83.4005
| 34> H 	 -51.9563 	 21.4033 	 -83.8762
| 35> C 	 -51.124 	 22.8636 	 -85.0566
| 36> H 	 -51.7586 	 22.7919 	 -85.9648
| 37> H 	 -50.1952 	 23.2084 	 -85.4187
| 38> H 	 -51.3861 	 23.7473 	 -84.5142
| 39> H 	 -53.3868 	 17.6108 	 -90.3674
| 40> H 	 -51.3291 	 16.6939 	 -82.3976
| 41> *
| 42>
| 43>                          ****END OF INPUT****

CARTESIAN COORDINATES (ANGSTROEM)
---------------------------------
  S    -52.037200   16.843200  -88.355300
  C    -52.890800   17.864100  -89.499300
  C    -53.196000   19.150300  -89.004700
  C    -52.651900   19.310900  -87.706300
  C    -52.033500   18.167300  -87.125600
  H    -52.732400   20.266600  -87.198900
  C    -53.808300   20.348200  -89.647800
  H    -54.765600   20.673300  -89.175500
  H    -54.016300   20.110200  -90.719400
  C    -52.747900   21.534600  -89.656100
  H    -52.491000   21.895300  -88.675200
  H    -51.813400   21.099200  -90.086700
  C    -53.267800   22.721900  -90.455100
  H    -54.116800   23.201900  -89.967800
  H    -52.565700   23.522000  -90.703000
  H    -53.573300   22.317300  -91.427300
  S    -51.866800   16.502200  -84.834400
  C    -51.393700   17.247800  -83.351600
  C    -50.790300   18.472800  -83.559000
  C    -50.954700   18.992200  -84.894400
  C    -51.617100   18.034300  -85.726300
  H    -50.396600   18.947600  -82.699500
  C    -50.477200   20.358900  -85.199000
  H    -50.814700   20.475000  -86.251500
  H    -49.372000   20.301400  -85.183900
  C    -50.936900   21.566600  -84.278200
  H    -50.374200   21.689300  -83.400500
  H    -51.956300   21.403300  -83.876200
  C    -51.124000   22.863600  -85.056600
  H    -51.758600   22.791900  -85.964800
  H    -50.195200   23.208400  -85.418700
  H    -51.386100   23.747300  -84.514200
  H    -53.386800   17.610800  -90.367400
  H    -51.329100   16.693900  -82.397600

 Total Charge           Charge          ....    0
 Multiplicity           Mult            ....    1
 Number of Electrons    NEL             ....  134
 Basis Dimension        Dim             ....  322

ORBITAL ENERGIES
----------------

  NO   OCC          E(Eh)            E(eV)
   0   2.0000     -88.973105     -2421.0813
   1   2.0000     -88.966857     -2420.9113
   2   2.0000     -10.339742      -281.3587
   3   2.0000     -10.336208      -281.2625
   4   2.0000     -10.317627      -280.7569
   5   2.0000     -10.312121      -280.6071
   6   2.0000     -10.309303      -280.5304
   7   2.0000     -10.303622      -280.3758
   8   2.0000     -10.300205      -280.2828
   9   2.0000     -10.298519      -280.2370
  10   2.0000     -10.293877      -280.1106
  11   2.0000     -10.293860      -280.1102
  12   2.0000     -10.292312      -280.0680
  13   2.0000     -10.290295      -280.0132
  14   2.0000     -10.279861      -279.7292
  15   2.0000     -10.276338      -279.6334
  16   2.0000      -8.086151      -220.0354
  17   2.0000      -8.081362      -219.9050
  18   2.0000      -6.044891      -164.4898
  19   2.0000      -6.040849      -164.3799
  20   2.0000      -6.039912      -164.3544
  21   2.0000      -6.036837      -164.2707
  22   2.0000      -6.036020      -164.2485
  23   2.0000      -6.031989      -164.1388
  24   2.0000      -0.997203       -27.1353
  25   2.0000      -0.977801       -26.6073
  26   2.0000      -0.910724       -24.7821
  27   2.0000      -0.908120       -24.7112
  28   2.0000      -0.866389       -23.5756
  29   2.0000      -0.856817       -23.3152
  30   2.0000      -0.847575       -23.0637
  31   2.0000      -0.810010       -22.0415
  32   2.0000      -0.781176       -21.2569
  33   2.0000      -0.769401       -20.9365
  34   2.0000      -0.718273       -19.5452
  35   2.0000      -0.704311       -19.1653
  36   2.0000      -0.697110       -18.9693
  37   2.0000      -0.655233       -17.8298
  38   2.0000      -0.633046       -17.2261
  39   2.0000      -0.624076       -16.9820
  40   2.0000      -0.592222       -16.1152
  41   2.0000      -0.570359       -15.5203
  42   2.0000      -0.568567       -15.4715
  43   2.0000      -0.563056       -15.3215
  44   2.0000      -0.527795       -14.3620
  45   2.0000      -0.522362       -14.2142
  46   2.0000      -0.514736       -14.0067
  47   2.0000      -0.507528       -13.8105
  48   2.0000      -0.503251       -13.6942
  49   2.0000      -0.499220       -13.5845
  50   2.0000      -0.493018       -13.4157
  51   2.0000      -0.478108       -13.0100
  52   2.0000      -0.476653       -12.9704
  53   2.0000      -0.462317       -12.5803
  54   2.0000      -0.456287       -12.4162
  55   2.0000      -0.449516       -12.2320
  56   2.0000      -0.446784       -12.1576
  57   2.0000      -0.438147       -11.9226
  58   2.0000      -0.432839       -11.7781
  59   2.0000      -0.428028       -11.6472
  60   2.0000      -0.424929       -11.5629
  61   2.0000      -0.423514       -11.5244
  62   2.0000      -0.412682       -11.2296
  63   2.0000      -0.352138        -9.5822
  64   2.0000      -0.331278        -9.0145
  65   2.0000      -0.327419        -8.9095
  66   2.0000      -0.279364        -7.6019
  67   0.0000       0.018693         0.5087
  68   0.0000       0.069786         1.8990
  69   0.0000       0.106079         2.8866
  70   0.0000       0.114048         3.1034
  71   0.0000       0.124312         3.3827

MULLIKEN ATOMIC CHARGES
-----------------------
   0 S :    0.114716
   1 C :   -0.070397
   2 C :   -0.101046
   3 C :    0.012220
   4 C :   -0.146720
   5 H :    0.007595
   6 C :    0.041402
   7 H :    0.050583
   8 H :    0.023584
   9 C :   -0.110421
  10 H :    0.031183
  11 H :    0.046595
  12 C :   -0.035547
  13 H :    0.031297
  14 H :    0.038023
  15 H :    0.020785
  16 S :    0.106043
  17 C :   -0.104966
  18 C :   -0.021299
  19 C :   -0.060092
  20 C :   -0.138087
  21 H :    0.007578
  22 C :    0.069740
  23 H :    0.015700
  24 H :    0.052079
  25 C :   -0.041806
  26 H :    0.022081
  27 H :    0.034570
  28 C :   -0.048238
  29 H :    0.036265
  30 H :    0.005794
  31 H :    0.024225
  32 H :    0.016426
  33 H :    0.070137
Sum of atomic charges:    0.0000000

LOEWDIN ATOMIC CHARGES
----------------------
   0 S :    0.389822
   1 C :   -0.194225
   2 C :   -0.064285
   3 C :   -0.060738
   4 C :   -0.177926
   5 H :    0.025244
   6 C :   -0.031701
   7 H :    0.036986
   8 H :    0.031980
   9 C :   -0.037066
  10 H :    0.015366
  11 H :    0.032868
  12 C :   -0.069120
  13 H :    0.025589
  14 H :    0.027780
  15 H :    0.023982
  16 S :    0.397646
  17 C :   -0.192469
  18 C :   -0.069654
  19 C :   -0.048808
  20 C :   -0.192519
  21 H :    0.025235
  22 C :   -0.035999
  23 H :    0.034011
  24 H :    0.043639
  25 C :   -0.035510
  26 H :    0.018183
  27 H :    0.030379
  28 C :   -0.068800
  29 H :    0.027786
  30 H :    0.017052
  31 H :    0.025752
  32 H :    0.013593
  33 H :    0.035927

  Mayer bond orders larger than 0.100000
B(  0-S ,  1-C ) :   1.1356 B(  0-S ,  4-C ) :   1.1302 B(  1-C ,  2-C ) :   1.6022
B(  1-C , 32-H ) :   0.9617 B(  2-C ,  3-C ) :   1.2744 B(  2-C ,  6-C ) :   1.0384
B(  3-C ,  4-C ) :   1.5354 B(  3-C ,  5-H ) :   0.9798 B(  4-C , 20-C ) :   1.0948
B(  6-C ,  7-H ) :   0.9355 B(  6-C ,  8-H ) :   0.9426 B(  6-C ,  9-C ) :   1.0470
B(  9-C , 10-H ) :   0.9536 B(  9-C , 11-H ) :   0.9572 B(  9-C , 12-C ) :   1.0848
B( 12-C , 13-H ) :   0.9732 B( 12-C , 14-H ) :   0.9740 B( 12-C , 15-H ) :   0.9737
B( 16-S , 17-C ) :   1.1582 B( 16-S , 20-C ) :   1.1307 B( 17-C , 18-C ) :   1.6175
B( 17-C , 33-H ) :   0.9608 B( 18-C , 19-C ) :   1.2285 B( 18-C , 21-H ) :   0.9951
B( 19-C , 20-C ) :   1.5500 B( 19-C , 22-C ) :   1.0603 B( 22-C , 23-H ) :   0.9326
B( 22-C , 24-H ) :   0.9219 B( 22-C , 25-C ) :   1.0339 B( 25-C , 26-H ) :   0.9521
B( 25-C , 27-H ) :   0.9650 B( 25-C , 28-C ) :   1.0867 B( 28-C , 29-H ) :   0.9760
B( 28-C , 30-H ) :   0.9691 B( 28-C , 31-H ) :   0.9698

Dispersion correction           -0.014215102
FINAL SINGLE POINT ENERGY     -1339.862543813162

DIPOLE MOMENT
-------------
                                X             Y             Z
Electronic contribution:      1.22574     -33.79730       5.97740
Nuclear contribution   :     -1.20715      34.61722      -5.82708
                        -----------------------------------------
Total Dipole Moment    :      0.01859       0.81991       0.15032
                        -----------------------------------------
Magnitude (a.u.)       :      0.83379
Magnitude (Debye)      :      2.11931

Rotational constants in cm-1:     0.016179     0.009891     0.006399
Rotational constants in MHz :   485.023126   296.516550   191.823523

                             ****ORCA TERMINATED NORMALLY****
TOTAL RUN TIME: 0 days 0 hours 0 minutes 21 seconds 786 msec
