                         Program Version 4.2.1 -  RELEASE  -
|  1> ! wB97X-D3 SP def2-SVP
|  2> %pal
|  3> nprocs 24
|  4> end
|  5>
|  6> * xyz 0 1
|  7> S 	 -54.9421 	 12.3 	 19.9441
|  8> C 	 -54.1114 	 10.8861 	 19.4935
|  9> C 	 -53.2038 	 10.4643 	 20.4272
| 10> C 	 -53.0792 	 11.3325 	 21.5373
| 11> C 	 -53.8553 	 12.5099 	 21.3266
| 12> H 	 -52.5469 	 11.0607 	 22.4383
| 13> C 	 -52.5321 	 9.13476 	 20.4115
| 14> H 	 -52.84 	 8.54737 	 19.5719
| 15> H 	 -52.8748 	 8.55507 	 21.2689
| 16> C 	 -50.9462 	 9.03938 	 20.5334
| 17> H 	 -50.5673 	 9.41949 	 19.6365
| 18> H 	 -50.5399 	 9.62055 	 21.3929
| 19> C 	 -50.551 	 7.59861 	 20.6033
| 20> H 	 -49.4246 	 7.32833 	 20.7173
| 21> H 	 -50.9654 	 7.03086 	 21.4777
| 22> H 	 -51.0123 	 6.9771 	 19.8472
| 23> S 	 -55.7762 	 13.9696 	 22.7582
| 24> C 	 -55.188 	 15.2189 	 23.8706
| 25> C 	 -53.8098 	 15.2471 	 23.8305
| 26> C 	 -53.216 	 14.3014 	 22.9466
| 27> C 	 -54.0833 	 13.5305 	 22.3274
| 28> H 	 -53.4149 	 15.9857 	 24.5231
| 29> C 	 -51.7245 	 14.3368 	 22.9554
| 30> H 	 -51.3266 	 15.344 	 22.9799
| 31> H 	 -51.4142 	 14.0092 	 22.007
| 32> C 	 -51.0558 	 13.4294 	 24.0744
| 33> H 	 -51.399 	 12.3686 	 24.1063
| 34> H 	 -51.2771 	 13.8113 	 25.0894
| 35> C 	 -49.5284 	 13.4548 	 23.8921
| 36> H 	 -49.1548 	 14.4613 	 23.6926
| 37> H 	 -49.2811 	 13.0396 	 22.928
| 38> H 	 -48.9638 	 13.0717 	 24.7182
| 39> H 	 -54.2732 	 10.4961 	 18.5907
| 40> H 	 -55.5869 	 15.935 	 24.5674
| 41> *
| 42>
| 43>                          ****END OF INPUT****

CARTESIAN COORDINATES (ANGSTROEM)
---------------------------------
  S    -54.942100   12.300000   19.944100
  C    -54.111400   10.886100   19.493500
  C    -53.203800   10.464300   20.427200
  C    -53.079200   11.332500   21.537300
  C    -53.855300   12.509900   21.326600
  H    -52.546900   11.060700   22.438300
  C    -52.532100    9.134760   20.411500
  H    -52.840000    8.547370   19.571900
  H    -52.874800    8.555070   21.268900
  C    -50.946200    9.039380   20.533400
  H    -50.567300    9.419490   19.636500
  H    -50.539900    9.620550   21.392900
  C    -50.551000    7.598610   20.603300
  H    -49.424600    7.328330   20.717300
  H    -50.965400    7.030860   21.477700
  H    -51.012300    6.977100   19.847200
  S    -55.776200   13.969600   22.758200
  C    -55.188000   15.218900   23.870600
  C    -53.809800   15.247100   23.830500
  C    -53.216000   14.301400   22.946600
  C    -54.083300   13.530500   22.327400
  H    -53.414900   15.985700   24.523100
  C    -51.724500   14.336800   22.955400
  H    -51.326600   15.344000   22.979900
  H    -51.414200   14.009200   22.007000
  C    -51.055800   13.429400   24.074400
  H    -51.399000   12.368600   24.106300
  H    -51.277100   13.811300   25.089400
  C    -49.528400   13.454800   23.892100
  H    -49.154800   14.461300   23.692600
  H    -49.281100   13.039600   22.928000
  H    -48.963800   13.071700   24.718200
  H    -54.273200   10.496100   18.590700
  H    -55.586900   15.935000   24.567400

 Total Charge           Charge          ....    0
 Multiplicity           Mult            ....    1
 Number of Electrons    NEL             ....  134
 Basis Dimension        Dim             ....  322

ORBITAL ENERGIES
----------------

  NO   OCC          E(Eh)            E(eV)
   0   2.0000     -88.969844     -2420.9925
   1   2.0000     -88.964277     -2420.8411
   2   2.0000     -10.334787      -281.2239
   3   2.0000     -10.322491      -280.8893
   4   2.0000     -10.312941      -280.6294
   5   2.0000     -10.302290      -280.3396
   6   2.0000     -10.300008      -280.2775
   7   2.0000     -10.297461      -280.2081
   8   2.0000     -10.296018      -280.1689
   9   2.0000     -10.292016      -280.0600
  10   2.0000     -10.291295      -280.0404
  11   2.0000     -10.289188      -279.9830
  12   2.0000     -10.288347      -279.9602
  13   2.0000     -10.285642      -279.8865
  14   2.0000     -10.285485      -279.8823
  15   2.0000     -10.274649      -279.5874
  16   2.0000      -8.085096      -220.0067
  17   2.0000      -8.077728      -219.8061
  18   2.0000      -6.043417      -164.4497
  19   2.0000      -6.039620      -164.3464
  20   2.0000      -6.036604      -164.2643
  21   2.0000      -6.035950      -164.2465
  22   2.0000      -6.032548      -164.1540
  23   2.0000      -6.028021      -164.0308
  24   2.0000      -1.009393       -27.4670
  25   2.0000      -0.987137       -26.8614
  26   2.0000      -0.912483       -24.8299
  27   2.0000      -0.904755       -24.6196
  28   2.0000      -0.874139       -23.7865
  29   2.0000      -0.858230       -23.3536
  30   2.0000      -0.848824       -23.0977
  31   2.0000      -0.816604       -22.2209
  32   2.0000      -0.779443       -21.2097
  33   2.0000      -0.770951       -20.9786
  34   2.0000      -0.714515       -19.4429
  35   2.0000      -0.705953       -19.2099
  36   2.0000      -0.701766       -19.0960
  37   2.0000      -0.662815       -18.0361
  38   2.0000      -0.648809       -17.6550
  39   2.0000      -0.625765       -17.0279
  40   2.0000      -0.592154       -16.1133
  41   2.0000      -0.570024       -15.5111
  42   2.0000      -0.564763       -15.3680
  43   2.0000      -0.554876       -15.0989
  44   2.0000      -0.533907       -14.5283
  45   2.0000      -0.526549       -14.3281
  46   2.0000      -0.521514       -14.1911
  47   2.0000      -0.509741       -13.8708
  48   2.0000      -0.506218       -13.7749
  49   2.0000      -0.499427       -13.5901
  50   2.0000      -0.496515       -13.5108
  51   2.0000      -0.480106       -13.0643
  52   2.0000      -0.472118       -12.8470
  53   2.0000      -0.461248       -12.5512
  54   2.0000      -0.459655       -12.5079
  55   2.0000      -0.448350       -12.2002
  56   2.0000      -0.442520       -12.0416
  57   2.0000      -0.438458       -11.9311
  58   2.0000      -0.432680       -11.7738
  59   2.0000      -0.429648       -11.6913
  60   2.0000      -0.419016       -11.4020
  61   2.0000      -0.417345       -11.3565
  62   2.0000      -0.413511       -11.2522
  63   2.0000      -0.353308        -9.6140
  64   2.0000      -0.331501        -9.0206
  65   2.0000      -0.328500        -8.9389
  66   2.0000      -0.289826        -7.8866
  67   0.0000       0.027100         0.7374
  68   0.0000       0.069356         1.8873
  69   0.0000       0.102694         2.7944
  70   0.0000       0.122389         3.3304
  71   0.0000       0.129399         3.5211

MULLIKEN ATOMIC CHARGES
-----------------------
   0 S :    0.116107
   1 C :   -0.074692
   2 C :   -0.029054
   3 C :    0.017786
   4 C :   -0.157247
   5 H :    0.019390
   6 C :    0.020005
   7 H :    0.007188
   8 H :    0.031519
   9 C :   -0.021756
  10 H :    0.022877
  11 H :    0.040471
  12 C :   -0.093683
  13 H :    0.052816
  14 H :    0.017015
  15 H :    0.021822
  16 S :    0.093384
  17 C :   -0.071295
  18 C :   -0.071004
  19 C :   -0.010797
  20 C :   -0.138256
  21 H :    0.017701
  22 C :    0.099198
  23 H :    0.021575
  24 H :   -0.000432
  25 C :   -0.083908
  26 H :    0.036774
  27 H :    0.028192
  28 C :   -0.017220
  29 H :    0.010011
  30 H :    0.017414
  31 H :    0.040141
  32 H :   -0.004730
  33 H :    0.042689
Sum of atomic charges:    0.0000000

LOEWDIN ATOMIC CHARGES
----------------------
   0 S :    0.426769
   1 C :   -0.187022
   2 C :   -0.065009
   3 C :   -0.046734
   4 C :   -0.182178
   5 H :    0.032083
   6 C :   -0.029867
   7 H :    0.024845
   8 H :    0.033991
   9 C :   -0.035339
  10 H :    0.018037
  11 H :    0.028750
  12 C :   -0.085317
  13 H :    0.037958
  14 H :    0.025057
  15 H :    0.022647
  16 S :    0.363073
  17 C :   -0.182971
  18 C :   -0.071615
  19 C :   -0.064668
  20 C :   -0.178905
  21 H :    0.032004
  22 C :   -0.020984
  23 H :    0.032880
  24 H :    0.020115
  25 C :   -0.033741
  26 H :    0.025010
  27 H :    0.023490
  28 C :   -0.068840
  29 H :    0.023981
  30 H :    0.023558
  31 H :    0.023989
  32 H :   -0.000321
  33 H :    0.035274

  Mayer bond orders larger than 0.100000
B(  0-S ,  1-C ) :   1.1504 B(  0-S ,  4-C ) :   1.1664 B(  1-C ,  2-C ) :   1.5715
B(  1-C , 32-H ) :   0.9851 B(  2-C ,  3-C ) :   1.2715 B(  2-C ,  6-C ) :   1.0376
B(  3-C ,  4-C ) :   1.5149 B(  3-C ,  5-H ) :   0.9919 B(  4-C , 20-C ) :   1.0591
B(  6-C ,  7-H ) :   0.9432 B(  6-C ,  8-H ) :   0.9409 B(  6-C ,  9-C ) :   1.0471
B(  9-C , 10-H ) :   0.9540 B(  9-C , 11-H ) :   0.9561 B(  9-C , 12-C ) :   1.0788
B( 12-C , 13-H ) :   0.9722 B( 12-C , 14-H ) :   0.9698 B( 12-C , 15-H ) :   0.9697
B( 16-S , 17-C ) :   1.1143 B( 16-S , 20-C ) :   1.0837 B( 17-C , 18-C ) :   1.6939
B( 17-C , 33-H ) :   0.9612 B( 18-C , 19-C ) :   1.1741 B( 18-C , 21-H ) :   0.9897
B( 19-C , 20-C ) :   1.6886 B( 19-C , 22-C ) :   1.0504 B( 22-C , 23-H ) :   0.9348
B( 22-C , 24-H ) :   0.9204 B( 22-C , 25-C ) :   1.0494 B( 25-C , 26-H ) :   0.9571
B( 25-C , 27-H ) :   0.9564 B( 25-C , 28-C ) :   1.0800 B( 28-C , 29-H ) :   0.9680
B( 28-C , 30-H ) :   0.9718 B( 28-C , 31-H ) :   0.9747

Dispersion correction           -0.013941435
FINAL SINGLE POINT ENERGY     -1339.851102852248

DIPOLE MOMENT
-------------
                                X             Y             Z
Electronic contribution:    -29.19211      14.49853      -5.53807
Nuclear contribution   :     29.79474     -14.74115       5.74099
                        -----------------------------------------
Total Dipole Moment    :      0.60263      -0.24262       0.20292
                        -----------------------------------------
Magnitude (a.u.)       :      0.68059
Magnitude (Debye)      :      1.72993

Rotational constants in cm-1:     0.017221     0.009265     0.006423
Rotational constants in MHz :   516.280043   277.755659   192.567874

                             ****ORCA TERMINATED NORMALLY****
TOTAL RUN TIME: 0 days 0 hours 0 minutes 20 seconds 500 msec
