                         Program Version 4.2.1 -  RELEASE  -
|  1> ! wB97X-D3 SP def2-SVP
|  2> %pal
|  3> nprocs 24
|  4> end
|  5>
|  6> * xyz 0 1
|  7> S 	 47.4593 	 -37.1326 	 -119.594
|  8> C 	 47.2513 	 -36.2333 	 -121.05
|  9> C 	 47.3292 	 -34.8869 	 -120.77
| 10> C 	 47.6038 	 -34.579 	 -119.372
| 11> C 	 47.8011 	 -35.682 	 -118.606
| 12> H 	 47.6718 	 -33.5816 	 -118.924
| 13> C 	 47.0601 	 -33.7513 	 -121.758
| 14> H 	 46.0077 	 -33.4618 	 -121.659
| 15> H 	 47.1193 	 -34.2547 	 -122.679
| 16> C 	 48.0901 	 -32.5957 	 -121.669
| 17> H 	 48.1892 	 -32.1058 	 -120.721
| 18> H 	 49.0664 	 -33.0578 	 -121.99
| 19> C 	 47.8722 	 -31.4484 	 -122.67
| 20> H 	 46.8314 	 -31.2436 	 -122.591
| 21> H 	 48.4319 	 -30.492 	 -122.463
| 22> H 	 48.1539 	 -31.7249 	 -123.712
| 23> S 	 49.2515 	 -37.192 	 -116.84
| 24> C 	 50.0007 	 -36.3585 	 -115.485
| 25> C 	 49.3704 	 -35.1653 	 -115.251
| 26> C 	 48.4852 	 -34.7619 	 -116.238
| 27> C 	 48.3231 	 -35.7213 	 -117.267
| 28> H 	 49.6212 	 -34.704 	 -114.29
| 29> C 	 47.7925 	 -33.4329 	 -116.044
| 30> H 	 48.3958 	 -32.6704 	 -116.551
| 31> H 	 47.9482 	 -33.1447 	 -114.988
| 32> C 	 46.2714 	 -33.2746 	 -116.358
| 33> H 	 45.7678 	 -33.8934 	 -115.638
| 34> H 	 46.0097 	 -33.6201 	 -117.295
| 35> C 	 45.8062 	 -31.8455 	 -116.149
| 36> H 	 45.8244 	 -31.554 	 -115.178
| 37> H 	 44.8004 	 -31.9295 	 -116.531
| 38> H 	 46.4865 	 -31.1721 	 -116.708
| 39> H 	 46.9624 	 -36.6161 	 -122.019
| 40> H 	 50.7456 	 -36.6951 	 -114.773
| 41> *
| 42>
| 43>                          ****END OF INPUT****

CARTESIAN COORDINATES (ANGSTROEM)
---------------------------------
  S     47.459300  -37.132600  -119.594000
  C     47.251300  -36.233300  -121.050000
  C     47.329200  -34.886900  -120.770000
  C     47.603800  -34.579000  -119.372000
  C     47.801100  -35.682000  -118.606000
  H     47.671800  -33.581600  -118.924000
  C     47.060100  -33.751300  -121.758000
  H     46.007700  -33.461800  -121.659000
  H     47.119300  -34.254700  -122.679000
  C     48.090100  -32.595700  -121.669000
  H     48.189200  -32.105800  -120.721000
  H     49.066400  -33.057800  -121.990000
  C     47.872200  -31.448400  -122.670000
  H     46.831400  -31.243600  -122.591000
  H     48.431900  -30.492000  -122.463000
  H     48.153900  -31.724900  -123.712000
  S     49.251500  -37.192000  -116.840000
  C     50.000700  -36.358500  -115.485000
  C     49.370400  -35.165300  -115.251000
  C     48.485200  -34.761900  -116.238000
  C     48.323100  -35.721300  -117.267000
  H     49.621200  -34.704000  -114.290000
  C     47.792500  -33.432900  -116.044000
  H     48.395800  -32.670400  -116.551000
  H     47.948200  -33.144700  -114.988000
  C     46.271400  -33.274600  -116.358000
  H     45.767800  -33.893400  -115.638000
  H     46.009700  -33.620100  -117.295000
  C     45.806200  -31.845500  -116.149000
  H     45.824400  -31.554000  -115.178000
  H     44.800400  -31.929500  -116.531000
  H     46.486500  -31.172100  -116.708000
  H     46.962400  -36.616100  -122.019000
  H     50.745600  -36.695100  -114.773000

 Total Charge           Charge          ....    0
 Multiplicity           Mult            ....    1
 Number of Electrons    NEL             ....  134
 Basis Dimension        Dim             ....  322

ORBITAL ENERGIES
----------------

  NO   OCC          E(Eh)            E(eV)
   0   2.0000     -88.967005     -2420.9153
   1   2.0000     -88.963365     -2420.8162
   2   2.0000     -10.333332      -281.1843
   3   2.0000     -10.331411      -281.1320
   4   2.0000     -10.315729      -280.7053
   5   2.0000     -10.312734      -280.6238
   6   2.0000     -10.305738      -280.4334
   7   2.0000     -10.301563      -280.3198
   8   2.0000     -10.295054      -280.1427
   9   2.0000     -10.291974      -280.0588
  10   2.0000     -10.291219      -280.0383
  11   2.0000     -10.290309      -280.0135
  12   2.0000     -10.288737      -279.9708
  13   2.0000     -10.280107      -279.7359
  14   2.0000     -10.277734      -279.6714
  15   2.0000     -10.271285      -279.4959
  16   2.0000      -8.080905      -219.8926
  17   2.0000      -8.078004      -219.8137
  18   2.0000      -6.039482      -164.3427
  19   2.0000      -6.036818      -164.2702
  20   2.0000      -6.035590      -164.2368
  21   2.0000      -6.032596      -164.1553
  22   2.0000      -6.031564      -164.1272
  23   2.0000      -6.028375      -164.0404
  24   2.0000      -1.006219       -27.3806
  25   2.0000      -0.984058       -26.7776
  26   2.0000      -0.911590       -24.8056
  27   2.0000      -0.908429       -24.7196
  28   2.0000      -0.875598       -23.8262
  29   2.0000      -0.859366       -23.3845
  30   2.0000      -0.843855       -22.9625
  31   2.0000      -0.819108       -22.2891
  32   2.0000      -0.780370       -21.2349
  33   2.0000      -0.768731       -20.9182
  34   2.0000      -0.717596       -19.5268
  35   2.0000      -0.702801       -19.1242
  36   2.0000      -0.690560       -18.7911
  37   2.0000      -0.660281       -17.9672
  38   2.0000      -0.638912       -17.3857
  39   2.0000      -0.619928       -16.8691
  40   2.0000      -0.594106       -16.1664
  41   2.0000      -0.573404       -15.6031
  42   2.0000      -0.569579       -15.4990
  43   2.0000      -0.562620       -15.3097
  44   2.0000      -0.535486       -14.5713
  45   2.0000      -0.522731       -14.2242
  46   2.0000      -0.515313       -14.0224
  47   2.0000      -0.511679       -13.9235
  48   2.0000      -0.509157       -13.8549
  49   2.0000      -0.506422       -13.7804
  50   2.0000      -0.498859       -13.5747
  51   2.0000      -0.488357       -13.2889
  52   2.0000      -0.470088       -12.7917
  53   2.0000      -0.464701       -12.6452
  54   2.0000      -0.457525       -12.4499
  55   2.0000      -0.450614       -12.2618
  56   2.0000      -0.446363       -12.1461
  57   2.0000      -0.432327       -11.7642
  58   2.0000      -0.430196       -11.7062
  59   2.0000      -0.423729       -11.5303
  60   2.0000      -0.417484       -11.3603
  61   2.0000      -0.417090       -11.3496
  62   2.0000      -0.409905       -11.1541
  63   2.0000      -0.365444        -9.9442
  64   2.0000      -0.335028        -9.1166
  65   2.0000      -0.322515        -8.7761
  66   2.0000      -0.278857        -7.5881
  67   0.0000       0.016772         0.4564
  68   0.0000       0.077653         2.1130
  69   0.0000       0.103801         2.8246
  70   0.0000       0.124518         3.3883
  71   0.0000       0.131445         3.5768

MULLIKEN ATOMIC CHARGES
-----------------------
   0 S :    0.094197
   1 C :   -0.103736
   2 C :   -0.130300
   3 C :   -0.007422
   4 C :   -0.095294
   5 H :    0.017866
   6 C :    0.114696
   7 H :    0.041064
   8 H :   -0.003779
   9 C :   -0.105584
  10 H :    0.037771
  11 H :    0.041925
  12 C :   -0.060787
  13 H :    0.020449
  14 H :    0.042768
  15 H :    0.035808
  16 S :    0.098808
  17 C :   -0.086266
  18 C :   -0.063198
  19 C :   -0.010198
  20 C :   -0.133822
  21 H :    0.024462
  22 C :    0.016355
  23 H :    0.029238
  24 H :    0.016455
  25 C :   -0.041008
  26 H :    0.025422
  27 H :    0.013911
  28 C :   -0.003428
  29 H :    0.011674
  30 H :    0.037522
  31 H :    0.024489
  32 H :    0.046465
  33 H :    0.053477
Sum of atomic charges:   -0.0000000

LOEWDIN ATOMIC CHARGES
----------------------
   0 S :    0.386912
   1 C :   -0.207922
   2 C :   -0.060136
   3 C :   -0.069878
   4 C :   -0.174685
   5 H :    0.033179
   6 C :   -0.028882
   7 H :    0.032626
   8 H :    0.023009
   9 C :   -0.042833
  10 H :    0.020733
  11 H :    0.034296
  12 C :   -0.070888
  13 H :    0.017034
  14 H :    0.032396
  15 H :    0.025965
  16 S :    0.392210
  17 C :   -0.180785
  18 C :   -0.079143
  19 C :   -0.055840
  20 C :   -0.181242
  21 H :    0.036889
  22 C :   -0.038558
  23 H :    0.028970
  24 H :    0.033710
  25 C :   -0.028943
  26 H :    0.026146
  27 H :    0.009989
  28 C :   -0.048470
  29 H :    0.009084
  30 H :    0.033064
  31 H :    0.026355
  32 H :    0.032351
  33 H :    0.033288

  Mayer bond orders larger than 0.100000
B(  0-S ,  1-C ) :   1.1157 B(  0-S ,  4-C ) :   1.1210 B(  1-C ,  2-C ) :   1.6403
B(  1-C , 32-H ) :   0.9681 B(  2-C ,  3-C ) :   1.2136 B(  2-C ,  6-C ) :   1.0223
B(  3-C ,  4-C ) :   1.6006 B(  3-C ,  5-H ) :   0.9850 B(  4-C , 20-C ) :   1.0968
B(  6-C ,  7-H ) :   0.9339 B(  6-C ,  8-H ) :   0.9346 B(  6-C ,  9-C ) :   1.0567
B(  9-C , 10-H ) :   0.9596 B(  9-C , 11-H ) :   0.9597 B(  9-C , 12-C ) :   1.0777
B( 12-C , 13-H ) :   0.9749 B( 12-C , 14-H ) :   0.9763 B( 12-C , 15-H ) :   0.9780
B( 16-S , 17-C ) :   1.1574 B( 16-S , 20-C ) :   1.1240 B( 17-C , 18-C ) :   1.6110
B( 17-C , 20-C ) :   0.1057 B( 17-C , 33-H ) :   0.9618 B( 18-C , 19-C ) :   1.2749
B( 18-C , 21-H ) :   0.9842 B( 19-C , 20-C ) :   1.5367 B( 19-C , 22-C ) :   1.0349
B( 22-C , 23-H ) :   0.9210 B( 22-C , 24-H ) :   0.9388 B( 22-C , 25-C ) :   1.0588
B( 25-C , 26-H ) :   0.9508 B( 25-C , 27-H ) :   0.9593 B( 25-C , 28-C ) :   1.0804
B( 28-C , 29-H ) :   0.9776 B( 28-C , 30-H ) :   0.9737 B( 28-C , 31-H ) :   0.9750

Dispersion correction           -0.013869542
FINAL SINGLE POINT ENERGY     -1339.860185388226

DIPOLE MOMENT
-------------
                                X             Y             Z
Electronic contribution:      7.75842     -30.08015       6.58463
Nuclear contribution   :     -7.85181      30.82133      -6.45871
                        -----------------------------------------
Total Dipole Moment    :     -0.09339       0.74118       0.12592
                        -----------------------------------------
Magnitude (a.u.)       :      0.75758
Magnitude (Debye)      :      1.92561

Rotational constants in cm-1:     0.016267     0.009434     0.006930
Rotational constants in MHz :   487.674381   282.814648   207.763311

                             ****ORCA TERMINATED NORMALLY****
TOTAL RUN TIME: 0 days 0 hours 0 minutes 20 seconds 853 msec
