                         Program Version 4.2.1 -  RELEASE  -
|  1> ! wB97X-D3 SP def2-SVP
|  2> %pal
|  3> nprocs 24
|  4> end
|  5>
|  6> * xyz 0 1
|  7> S 	 -42.3915 	 18.8735 	 25.9064
|  8> C 	 -43.4221 	 19.0606 	 27.3792
|  9> C 	 -42.7375 	 18.5383 	 28.456
| 10> C 	 -41.5388 	 17.8317 	 28.0965
| 11> C 	 -41.2139 	 17.9867 	 26.779
| 12> H 	 -40.8304 	 17.3879 	 28.7505
| 13> C 	 -43.0565 	 18.7367 	 29.8993
| 14> H 	 -43.7016 	 17.9074 	 30.1962
| 15> H 	 -43.6781 	 19.6234 	 29.9659
| 16> C 	 -41.9103 	 18.9566 	 30.9488
| 17> H 	 -41.3519 	 17.9836 	 31.0384
| 18> H 	 -41.133 	 19.5748 	 30.5592
| 19> C 	 -42.4491 	 19.472 	 32.3151
| 20> H 	 -43.4288 	 18.9999 	 32.6169
| 21> H 	 -41.8091 	 19.2043 	 33.129
| 22> H 	 -42.5863 	 20.5821 	 32.2347
| 23> S 	 -40.3464 	 16.5496 	 24.6125
| 24> C 	 -38.6209 	 16.0759 	 24.5748
| 25> C 	 -37.892 	 16.5883 	 25.6118
| 26> C 	 -38.6946 	 17.3942 	 26.4744
| 27> C 	 -40.05 	 17.3856 	 26.0985
| 28> H 	 -36.8215 	 16.4952 	 25.6931
| 29> C 	 -38.1363 	 18.0634 	 27.685
| 30> H 	 -37.9739 	 17.3413 	 28.421
| 31> H 	 -38.8681 	 18.6758 	 28.2792
| 32> C 	 -36.9069 	 18.9769 	 27.5175
| 33> H 	 -37.0418 	 19.7221 	 26.7339
| 34> H 	 -36.1012 	 18.2631 	 27.2743
| 35> C 	 -36.5605 	 19.7315 	 28.8433
| 36> H 	 -36.209 	 18.9843 	 29.5354
| 37> H 	 -37.3991 	 20.2417 	 29.3593
| 38> H 	 -35.7706 	 20.4799 	 28.6432
| 39> H 	 -44.2584 	 19.736 	 27.4446
| 40> H 	 -38.1272 	 15.4311 	 23.8409
| 41> *
| 42>
| 43>                          ****END OF INPUT****

CARTESIAN COORDINATES (ANGSTROEM)
---------------------------------
  S    -42.391500   18.873500   25.906400
  C    -43.422100   19.060600   27.379200
  C    -42.737500   18.538300   28.456000
  C    -41.538800   17.831700   28.096500
  C    -41.213900   17.986700   26.779000
  H    -40.830400   17.387900   28.750500
  C    -43.056500   18.736700   29.899300
  H    -43.701600   17.907400   30.196200
  H    -43.678100   19.623400   29.965900
  C    -41.910300   18.956600   30.948800
  H    -41.351900   17.983600   31.038400
  H    -41.133000   19.574800   30.559200
  C    -42.449100   19.472000   32.315100
  H    -43.428800   18.999900   32.616900
  H    -41.809100   19.204300   33.129000
  H    -42.586300   20.582100   32.234700
  S    -40.346400   16.549600   24.612500
  C    -38.620900   16.075900   24.574800
  C    -37.892000   16.588300   25.611800
  C    -38.694600   17.394200   26.474400
  C    -40.050000   17.385600   26.098500
  H    -36.821500   16.495200   25.693100
  C    -38.136300   18.063400   27.685000
  H    -37.973900   17.341300   28.421000
  H    -38.868100   18.675800   28.279200
  C    -36.906900   18.976900   27.517500
  H    -37.041800   19.722100   26.733900
  H    -36.101200   18.263100   27.274300
  C    -36.560500   19.731500   28.843300
  H    -36.209000   18.984300   29.535400
  H    -37.399100   20.241700   29.359300
  H    -35.770600   20.479900   28.643200
  H    -44.258400   19.736000   27.444600
  H    -38.127200   15.431100   23.840900

 Total Charge           Charge          ....    0
 Multiplicity           Mult            ....    1
 Number of Electrons    NEL             ....  134
 Basis Dimension        Dim             ....  322

ORBITAL ENERGIES
----------------

  NO   OCC          E(Eh)            E(eV)
   0   2.0000     -88.969640     -2420.9870
   1   2.0000     -88.963993     -2420.8333
   2   2.0000     -10.326537      -280.9993
   3   2.0000     -10.325878      -280.9814
   4   2.0000     -10.319032      -280.7951
   5   2.0000     -10.314093      -280.6607
   6   2.0000     -10.303434      -280.3707
   7   2.0000     -10.301449      -280.3167
   8   2.0000     -10.295614      -280.1579
   9   2.0000     -10.293694      -280.1056
  10   2.0000     -10.291512      -280.0463
  11   2.0000     -10.291044      -280.0336
  12   2.0000     -10.289905      -280.0025
  13   2.0000     -10.286482      -279.9094
  14   2.0000     -10.285981      -279.8958
  15   2.0000     -10.283898      -279.8391
  16   2.0000      -8.083837      -219.9724
  17   2.0000      -8.078595      -219.8297
  18   2.0000      -6.042364      -164.4211
  19   2.0000      -6.038540      -164.3170
  20   2.0000      -6.037238      -164.2816
  21   2.0000      -6.034489      -164.2068
  22   2.0000      -6.033101      -164.1690
  23   2.0000      -6.029246      -164.0641
  24   2.0000      -1.006654       -27.3924
  25   2.0000      -0.982240       -26.7281
  26   2.0000      -0.910544       -24.7772
  27   2.0000      -0.907182       -24.6857
  28   2.0000      -0.868554       -23.6345
  29   2.0000      -0.850522       -23.1439
  30   2.0000      -0.844144       -22.9703
  31   2.0000      -0.816811       -22.2266
  32   2.0000      -0.780862       -21.2483
  33   2.0000      -0.769744       -20.9458
  34   2.0000      -0.712328       -19.3834
  35   2.0000      -0.700953       -19.0739
  36   2.0000      -0.694195       -18.8900
  37   2.0000      -0.657853       -17.9011
  38   2.0000      -0.641486       -17.4557
  39   2.0000      -0.621558       -16.9135
  40   2.0000      -0.600405       -16.3378
  41   2.0000      -0.566996       -15.4287
  42   2.0000      -0.566228       -15.4078
  43   2.0000      -0.559748       -15.2315
  44   2.0000      -0.527192       -14.3456
  45   2.0000      -0.523625       -14.2486
  46   2.0000      -0.515687       -14.0326
  47   2.0000      -0.509945       -13.8763
  48   2.0000      -0.501242       -13.6395
  49   2.0000      -0.497059       -13.5257
  50   2.0000      -0.493610       -13.4318
  51   2.0000      -0.476402       -12.9636
  52   2.0000      -0.471229       -12.8228
  53   2.0000      -0.467838       -12.7305
  54   2.0000      -0.458996       -12.4899
  55   2.0000      -0.452368       -12.3095
  56   2.0000      -0.450987       -12.2720
  57   2.0000      -0.439325       -11.9546
  58   2.0000      -0.434775       -11.8308
  59   2.0000      -0.428600       -11.6628
  60   2.0000      -0.422208       -11.4889
  61   2.0000      -0.415242       -11.2993
  62   2.0000      -0.409628       -11.1465
  63   2.0000      -0.349105        -9.4996
  64   2.0000      -0.330755        -9.0003
  65   2.0000      -0.327562        -8.9134
  66   2.0000      -0.291237        -7.9250
  67   0.0000       0.032476         0.8837
  68   0.0000       0.073251         1.9933
  69   0.0000       0.100022         2.7217
  70   0.0000       0.119477         3.2511
  71   0.0000       0.130571         3.5530

MULLIKEN ATOMIC CHARGES
-----------------------
   0 S :    0.093311
   1 C :   -0.122743
   2 C :   -0.083333
   3 C :    0.035883
   4 C :   -0.133969
   5 H :   -0.002647
   6 C :    0.059720
   7 H :    0.045440
   8 H :    0.012802
   9 C :   -0.095504
  10 H :    0.033649
  11 H :    0.029219
  12 C :   -0.058818
  13 H :    0.038041
  14 H :    0.033898
  15 H :    0.051240
  16 S :    0.118965
  17 C :   -0.092210
  18 C :   -0.027942
  19 C :   -0.005366
  20 C :   -0.157866
  21 H :    0.020783
  22 C :    0.031526
  23 H :    0.015738
  24 H :    0.014652
  25 C :   -0.079056
  26 H :    0.043111
  27 H :    0.032923
  28 C :   -0.065548
  29 H :    0.025973
  30 H :    0.039013
  31 H :    0.045736
  32 H :    0.046483
  33 H :    0.056895
Sum of atomic charges:    0.0000000

LOEWDIN ATOMIC CHARGES
----------------------
   0 S :    0.392475
   1 C :   -0.188718
   2 C :   -0.055017
   3 C :   -0.068330
   4 C :   -0.192206
   5 H :    0.024071
   6 C :   -0.036349
   7 H :    0.037555
   8 H :    0.026700
   9 C :   -0.043434
  10 H :    0.024390
  11 H :    0.019794
  12 C :   -0.067775
  13 H :    0.032329
  14 H :    0.024370
  15 H :    0.034053
  16 S :    0.404063
  17 C :   -0.175447
  18 C :   -0.065937
  19 C :   -0.054252
  20 C :   -0.202627
  21 H :    0.032615
  22 C :   -0.044603
  23 H :    0.023337
  24 H :    0.032038
  25 C :   -0.034293
  26 H :    0.025884
  27 H :    0.023954
  28 C :   -0.068301
  29 H :    0.022196
  30 H :    0.027397
  31 H :    0.031148
  32 H :    0.026394
  33 H :    0.032526

  Mayer bond orders larger than 0.100000
B(  0-S ,  1-C ) :   1.1035 B(  0-S ,  4-C ) :   1.1664 B(  1-C ,  2-C ) :   1.6359
B(  1-C , 32-H ) :   0.9704 B(  2-C ,  3-C ) :   1.2129 B(  2-C ,  6-C ) :   1.0198
B(  3-C ,  4-C ) :   1.5895 B(  3-C ,  5-H ) :   0.9928 B(  4-C , 20-C ) :   1.0132
B(  6-C ,  7-H ) :   0.9258 B(  6-C ,  8-H ) :   0.9478 B(  6-C ,  9-C ) :   1.0620
B(  9-C , 10-H ) :   0.9488 B(  9-C , 11-H ) :   0.9626 B(  9-C , 12-C ) :   1.0731
B( 12-C , 13-H ) :   0.9763 B( 12-C , 14-H ) :   0.9752 B( 12-C , 15-H ) :   0.9755
B( 16-S , 17-C ) :   1.1362 B( 16-S , 20-C ) :   1.1435 B( 17-C , 18-C ) :   1.6355
B( 17-C , 33-H ) :   0.9628 B( 18-C , 19-C ) :   1.2333 B( 18-C , 21-H ) :   0.9870
B( 19-C , 20-C ) :   1.5977 B( 19-C , 22-C ) :   1.0466 B( 22-C , 23-H ) :   0.9281
B( 22-C , 24-H ) :   0.9307 B( 22-C , 25-C ) :   1.0518 B( 25-C , 26-H ) :   0.9631
B( 25-C , 27-H ) :   0.9534 B( 25-C , 28-C ) :   1.0811 B( 28-C , 29-H ) :   0.9753
B( 28-C , 30-H ) :   0.9755 B( 28-C , 31-H ) :   0.9760

Dispersion correction           -0.013891556
FINAL SINGLE POINT ENERGY     -1339.880867196977

DIPOLE MOMENT
-------------
                                X             Y             Z
Electronic contribution:    -10.63905      -9.85593     -29.45049
Nuclear contribution   :     11.08573       9.99780      30.19553
                        -----------------------------------------
Total Dipole Moment    :      0.44668       0.14186       0.74503
                        -----------------------------------------
Magnitude (a.u.)       :      0.88018
Magnitude (Debye)      :      2.23725

Rotational constants in cm-1:     0.016144     0.009419     0.006567
Rotational constants in MHz :   483.976614   282.360541   196.874034

                             ****ORCA TERMINATED NORMALLY****
TOTAL RUN TIME: 0 days 0 hours 0 minutes 20 seconds 254 msec
