                         Program Version 4.2.1 -  RELEASE  -
|  1> ! wB97X-D3 SP def2-SVP
|  2> %pal
|  3> nprocs 24
|  4> end
|  5>
|  6> * xyz 0 1
|  7> S 	 -110.109 	 24.0704 	 -118.702
|  8> C 	 -110.299 	 22.3751 	 -118.288
|  9> C 	 -109.238 	 21.8855 	 -117.537
| 10> C 	 -108.167 	 22.8785 	 -117.414
| 11> C 	 -108.456 	 24.0595 	 -118.045
| 12> H 	 -107.245 	 22.7182 	 -116.862
| 13> C 	 -109.084 	 20.5415 	 -116.904
| 14> H 	 -108.051 	 20.1816 	 -116.947
| 15> H 	 -109.729 	 19.8964 	 -117.501
| 16> C 	 -109.604 	 20.4302 	 -115.479
| 17> H 	 -109.091 	 19.5621 	 -115.069
| 18> H 	 -109.225 	 21.2568 	 -114.863
| 19> C 	 -111.134 	 20.5187 	 -115.289
| 20> H 	 -111.396 	 20.6248 	 -114.22
| 21> H 	 -111.562 	 21.4138 	 -115.786
| 22> H 	 -111.602 	 19.694 	 -115.812
| 23> S 	 -108.481 	 26.8102 	 -118.558
| 24> C 	 -107.033 	 27.792 	 -118.197
| 25> C 	 -105.99 	 26.9384 	 -117.857
| 26> C 	 -106.274 	 25.5417 	 -117.794
| 27> C 	 -107.652 	 25.2784 	 -118.041
| 28> H 	 -105.033 	 27.4754 	 -117.721
| 29> C 	 -105.103 	 24.5891 	 -117.439
| 30> H 	 -104.33 	 24.6612 	 -118.233
| 31> H 	 -105.479 	 23.5454 	 -117.429
| 32> C 	 -104.508 	 24.8869 	 -116.039
| 33> H 	 -105.294 	 24.6965 	 -115.354
| 34> H 	 -104.126 	 25.9353 	 -116.103
| 35> C 	 -103.34 	 24.0229 	 -115.576
| 36> H 	 -103.574 	 22.9479 	 -115.412
| 37> H 	 -102.993 	 24.3948 	 -114.599
| 38> H 	 -102.479 	 24.0224 	 -116.196
| 39> H 	 -111.092 	 21.7137 	 -118.572
| 40> H 	 -106.928 	 28.9225 	 -118.239
| 41> *
| 42>
| 43>                          ****END OF INPUT****

CARTESIAN COORDINATES (ANGSTROEM)
---------------------------------
  S    -110.109000   24.070400  -118.702000
  C    -110.299000   22.375100  -118.288000
  C    -109.238000   21.885500  -117.537000
  C    -108.167000   22.878500  -117.414000
  C    -108.456000   24.059500  -118.045000
  H    -107.245000   22.718200  -116.862000
  C    -109.084000   20.541500  -116.904000
  H    -108.051000   20.181600  -116.947000
  H    -109.729000   19.896400  -117.501000
  C    -109.604000   20.430200  -115.479000
  H    -109.091000   19.562100  -115.069000
  H    -109.225000   21.256800  -114.863000
  C    -111.134000   20.518700  -115.289000
  H    -111.396000   20.624800  -114.220000
  H    -111.562000   21.413800  -115.786000
  H    -111.602000   19.694000  -115.812000
  S    -108.481000   26.810200  -118.558000
  C    -107.033000   27.792000  -118.197000
  C    -105.990000   26.938400  -117.857000
  C    -106.274000   25.541700  -117.794000
  C    -107.652000   25.278400  -118.041000
  H    -105.033000   27.475400  -117.721000
  C    -105.103000   24.589100  -117.439000
  H    -104.330000   24.661200  -118.233000
  H    -105.479000   23.545400  -117.429000
  C    -104.508000   24.886900  -116.039000
  H    -105.294000   24.696500  -115.354000
  H    -104.126000   25.935300  -116.103000
  C    -103.340000   24.022900  -115.576000
  H    -103.574000   22.947900  -115.412000
  H    -102.993000   24.394800  -114.599000
  H    -102.479000   24.022400  -116.196000
  H    -111.092000   21.713700  -118.572000
  H    -106.928000   28.922500  -118.239000

 Total Charge           Charge          ....    0
 Multiplicity           Mult            ....    1
 Number of Electrons    NEL             ....  134
 Basis Dimension        Dim             ....  322

ORBITAL ENERGIES
----------------

  NO   OCC          E(Eh)            E(eV)
   0   2.0000     -88.968984     -2420.9691
   1   2.0000     -88.966920     -2420.9130
   2   2.0000     -10.341137      -281.3966
   3   2.0000     -10.334607      -281.2189
   4   2.0000     -10.326704      -281.0039
   5   2.0000     -10.315203      -280.6909
   6   2.0000     -10.313896      -280.6554
   7   2.0000     -10.303268      -280.3662
   8   2.0000     -10.302275      -280.3391
   9   2.0000     -10.297422      -280.2071
  10   2.0000     -10.296092      -280.1709
  11   2.0000     -10.292341      -280.0688
  12   2.0000     -10.290806      -280.0271
  13   2.0000     -10.286734      -279.9163
  14   2.0000     -10.280975      -279.7596
  15   2.0000     -10.280043      -279.7342
  16   2.0000      -8.083044      -219.9508
  17   2.0000      -8.079965      -219.8670
  18   2.0000      -6.041837      -164.4068
  19   2.0000      -6.038732      -164.3223
  20   2.0000      -6.037859      -164.2985
  21   2.0000      -6.034792      -164.2151
  22   2.0000      -6.033328      -164.1752
  23   2.0000      -6.030484      -164.0978
  24   2.0000      -0.999437       -27.1961
  25   2.0000      -0.974746       -26.5242
  26   2.0000      -0.915163       -24.9028
  27   2.0000      -0.906869       -24.6772
  28   2.0000      -0.866541       -23.5798
  29   2.0000      -0.851623       -23.1739
  30   2.0000      -0.841762       -22.9055
  31   2.0000      -0.812262       -22.1028
  32   2.0000      -0.783274       -21.3140
  33   2.0000      -0.775315       -21.0974
  34   2.0000      -0.709453       -19.3052
  35   2.0000      -0.698161       -18.9979
  36   2.0000      -0.693649       -18.8751
  37   2.0000      -0.656187       -17.8558
  38   2.0000      -0.635528       -17.2936
  39   2.0000      -0.622467       -16.9382
  40   2.0000      -0.589621       -16.0444
  41   2.0000      -0.574281       -15.6270
  42   2.0000      -0.566802       -15.4235
  43   2.0000      -0.552388       -15.0312
  44   2.0000      -0.535325       -14.5669
  45   2.0000      -0.524946       -14.2845
  46   2.0000      -0.520233       -14.1562
  47   2.0000      -0.510354       -13.8874
  48   2.0000      -0.501406       -13.6439
  49   2.0000      -0.498207       -13.5569
  50   2.0000      -0.490643       -13.3511
  51   2.0000      -0.487771       -13.2729
  52   2.0000      -0.469632       -12.7793
  53   2.0000      -0.461425       -12.5560
  54   2.0000      -0.454291       -12.3619
  55   2.0000      -0.449378       -12.2282
  56   2.0000      -0.446409       -12.1474
  57   2.0000      -0.439596       -11.9620
  58   2.0000      -0.433346       -11.7919
  59   2.0000      -0.430451       -11.7132
  60   2.0000      -0.418277       -11.3819
  61   2.0000      -0.412954       -11.2371
  62   2.0000      -0.408719       -11.1218
  63   2.0000      -0.363515        -9.8917
  64   2.0000      -0.335556        -9.1309
  65   2.0000      -0.325269        -8.8510
  66   2.0000      -0.279945        -7.6177
  67   0.0000       0.014736         0.4010
  68   0.0000       0.077104         2.0981
  69   0.0000       0.090098         2.4517
  70   0.0000       0.115274         3.1368
  71   0.0000       0.129292         3.5182

MULLIKEN ATOMIC CHARGES
-----------------------
   0 S :    0.100395
   1 C :   -0.095926
   2 C :   -0.106427
   3 C :   -0.022062
   4 C :   -0.082571
   5 H :    0.012036
   6 C :    0.071047
   7 H :    0.031337
   8 H :    0.012892
   9 C :   -0.065375
  10 H :    0.029136
  11 H :    0.021351
  12 C :   -0.058488
  13 H :    0.047143
  14 H :    0.037797
  15 H :    0.025989
  16 S :    0.072907
  17 C :   -0.115993
  18 C :   -0.064043
  19 C :   -0.024079
  20 C :   -0.128232
  21 H :    0.034203
  22 C :    0.050391
  23 H :    0.041973
  24 H :    0.014175
  25 C :   -0.081841
  26 H :    0.033911
  27 H :    0.041857
  28 C :   -0.038523
  29 H :    0.028100
  30 H :    0.033106
  31 H :    0.020194
  32 H :    0.038182
  33 H :    0.085437
Sum of atomic charges:   -0.0000000

LOEWDIN ATOMIC CHARGES
----------------------
   0 S :    0.385413
   1 C :   -0.196321
   2 C :   -0.055398
   3 C :   -0.064732
   4 C :   -0.174772
   5 H :    0.028801
   6 C :   -0.034176
   7 H :    0.034220
   8 H :    0.029516
   9 C :   -0.043522
  10 H :    0.024266
  11 H :    0.023974
  12 C :   -0.068352
  13 H :    0.033189
  14 H :    0.030523
  15 H :    0.019828
  16 S :    0.357548
  17 C :   -0.188064
  18 C :   -0.079930
  19 C :   -0.057621
  20 C :   -0.167526
  21 H :    0.036454
  22 C :   -0.031270
  23 H :    0.035038
  24 H :    0.024736
  25 C :   -0.037921
  26 H :    0.024905
  27 H :    0.030381
  28 C :   -0.068547
  29 H :    0.026049
  30 H :    0.031109
  31 H :    0.017236
  32 H :    0.025795
  33 H :    0.049169

  Mayer bond orders larger than 0.100000
B(  0-S ,  1-C ) :   1.1129 B(  0-S ,  4-C ) :   1.1213 B(  1-C ,  2-C ) :   1.6443
B(  1-C , 32-H ) :   0.9628 B(  2-C ,  3-C ) :   1.2115 B(  2-C ,  6-C ) :   1.0360
B(  3-C ,  4-C ) :   1.5965 B(  3-C ,  5-H ) :   0.9864 B(  4-C , 20-C ) :   1.1008
B(  6-C ,  7-H ) :   0.9402 B(  6-C ,  8-H ) :   0.9352 B(  6-C ,  9-C ) :   1.0684
B(  9-C , 10-H ) :   0.9573 B(  9-C , 11-H ) :   0.9548 B(  9-C , 12-C ) :   1.0694
B( 12-C , 13-H ) :   0.9742 B( 12-C , 14-H ) :   0.9713 B( 12-C , 15-H ) :   0.9762
B( 16-S , 17-C ) :   1.1309 B( 16-S , 20-C ) :   1.1249 B( 17-C , 18-C ) :   1.6407
B( 17-C , 20-C ) :   0.1041 B( 17-C , 33-H ) :   0.9577 B( 18-C , 19-C ) :   1.2249
B( 18-C , 21-H ) :   0.9790 B( 19-C , 20-C ) :   1.5772 B( 19-C , 22-C ) :   1.0343
B( 22-C , 23-H ) :   0.9352 B( 22-C , 24-H ) :   0.9376 B( 22-C , 25-C ) :   1.0657
B( 25-C , 26-H ) :   0.9554 B( 25-C , 27-H ) :   0.9522 B( 25-C , 28-C ) :   1.0924
B( 28-C , 29-H ) :   0.9730 B( 28-C , 30-H ) :   0.9720 B( 28-C , 31-H ) :   0.9735

Dispersion correction           -0.013751191
FINAL SINGLE POINT ENERGY     -1339.879287180282

DIPOLE MOMENT
-------------
                                X             Y             Z
Electronic contribution:    -12.98900      18.46017     -17.87387
Nuclear contribution   :     13.57411     -18.81126      18.29733
                        -----------------------------------------
Total Dipole Moment    :      0.58511      -0.35109       0.42346
                        -----------------------------------------
Magnitude (a.u.)       :      0.80308
Magnitude (Debye)      :      2.04126

Rotational constants in cm-1:     0.017187     0.008808     0.006216
Rotational constants in MHz :   515.239706   264.054456   186.337023

                             ****ORCA TERMINATED NORMALLY****
TOTAL RUN TIME: 0 days 0 hours 0 minutes 20 seconds 29 msec
