                         Program Version 4.2.1 -  RELEASE  -
|  1> ! wB97X-D3 SP def2-SVP
|  2> %pal
|  3> nprocs 24
|  4> end
|  5>
|  6> * xyz 0 1
|  7> S 	 -114.516 	 54.1271 	 -38.1017
|  8> C 	 -113.614 	 53.779 	 -39.5724
|  9> C 	 -114.362 	 53.8468 	 -40.7231
| 10> C 	 -115.732 	 54.0026 	 -40.3725
| 11> C 	 -115.9 	 54.4724 	 -39.1082
| 12> H 	 -116.572 	 53.9072 	 -41.0558
| 13> C 	 -113.867 	 53.571 	 -42.1273
| 14> H 	 -114.691 	 53.0868 	 -42.6279
| 15> H 	 -113.059 	 52.8321 	 -42.0753
| 16> C 	 -113.568 	 54.8872 	 -42.8076
| 17> H 	 -113.268 	 54.6403 	 -43.8283
| 18> H 	 -114.435 	 55.4834 	 -43.0191
| 19> C 	 -112.472 	 55.7593 	 -42.1083
| 20> H 	 -112.02 	 56.5762 	 -42.6879
| 21> H 	 -112.835 	 56.3065 	 -41.1614
| 22> H 	 -111.647 	 55.0285 	 -41.928
| 23> S 	 -118.301 	 54.185 	 -37.7537
| 24> C 	 -119.532 	 55.2529 	 -38.1137
| 25> C 	 -119.046 	 56.4131 	 -38.6372
| 26> C 	 -117.654 	 56.345 	 -38.9404
| 27> C 	 -117.09 	 55.1026 	 -38.6303
| 28> H 	 -119.752 	 57.1721 	 -38.9097
| 29> C 	 -116.976 	 57.4532 	 -39.7249
| 30> H 	 -117.249 	 57.3171 	 -40.7862
| 31> H 	 -115.917 	 57.5026 	 -39.7672
| 32> C 	 -117.448 	 58.8403 	 -39.3295
| 33> H 	 -117.527 	 58.9319 	 -38.243
| 34> H 	 -118.53 	 58.895 	 -39.5478
| 35> C 	 -116.663 	 59.9746 	 -39.8843
| 36> H 	 -116.807 	 60.9127 	 -39.2819
| 37> H 	 -116.786 	 60.1794 	 -40.8907
| 38> H 	 -115.632 	 59.6473 	 -39.8173
| 39> H 	 -112.592 	 53.3298 	 -39.5304
| 40> H 	 -120.498 	 54.9877 	 -37.8534
| 41> *
| 42>
| 43>                          ****END OF INPUT****

CARTESIAN COORDINATES (ANGSTROEM)
---------------------------------
  S    -114.516000   54.127100  -38.101700
  C    -113.614000   53.779000  -39.572400
  C    -114.362000   53.846800  -40.723100
  C    -115.732000   54.002600  -40.372500
  C    -115.900000   54.472400  -39.108200
  H    -116.572000   53.907200  -41.055800
  C    -113.867000   53.571000  -42.127300
  H    -114.691000   53.086800  -42.627900
  H    -113.059000   52.832100  -42.075300
  C    -113.568000   54.887200  -42.807600
  H    -113.268000   54.640300  -43.828300
  H    -114.435000   55.483400  -43.019100
  C    -112.472000   55.759300  -42.108300
  H    -112.020000   56.576200  -42.687900
  H    -112.835000   56.306500  -41.161400
  H    -111.647000   55.028500  -41.928000
  S    -118.301000   54.185000  -37.753700
  C    -119.532000   55.252900  -38.113700
  C    -119.046000   56.413100  -38.637200
  C    -117.654000   56.345000  -38.940400
  C    -117.090000   55.102600  -38.630300
  H    -119.752000   57.172100  -38.909700
  C    -116.976000   57.453200  -39.724900
  H    -117.249000   57.317100  -40.786200
  H    -115.917000   57.502600  -39.767200
  C    -117.448000   58.840300  -39.329500
  H    -117.527000   58.931900  -38.243000
  H    -118.530000   58.895000  -39.547800
  C    -116.663000   59.974600  -39.884300
  H    -116.807000   60.912700  -39.281900
  H    -116.786000   60.179400  -40.890700
  H    -115.632000   59.647300  -39.817300
  H    -112.592000   53.329800  -39.530400
  H    -120.498000   54.987700  -37.853400

 Total Charge           Charge          ....    0
 Multiplicity           Mult            ....    1
 Number of Electrons    NEL             ....  134
 Basis Dimension        Dim             ....  322

ORBITAL ENERGIES
----------------

  NO   OCC          E(Eh)            E(eV)
   0   2.0000     -88.961922     -2420.7770
   1   2.0000     -88.956267     -2420.6231
   2   2.0000     -10.319585      -280.8102
   3   2.0000     -10.318186      -280.7721
   4   2.0000     -10.312177      -280.6086
   5   2.0000     -10.306402      -280.4515
   6   2.0000     -10.305707      -280.4325
   7   2.0000     -10.296204      -280.1739
   8   2.0000     -10.294500      -280.1276
   9   2.0000     -10.290460      -280.0177
  10   2.0000     -10.288383      -279.9611
  11   2.0000     -10.288319      -279.9594
  12   2.0000     -10.287254      -279.9304
  13   2.0000     -10.286102      -279.8991
  14   2.0000     -10.278872      -279.7023
  15   2.0000     -10.271985      -279.5149
  16   2.0000      -8.076919      -219.7841
  17   2.0000      -8.073368      -219.6875
  18   2.0000      -6.035329      -164.2297
  19   2.0000      -6.031667      -164.1300
  20   2.0000      -6.031605      -164.1283
  21   2.0000      -6.027507      -164.0168
  22   2.0000      -6.027406      -164.0141
  23   2.0000      -6.024403      -163.9323
  24   2.0000      -1.012288       -27.5457
  25   2.0000      -0.990654       -26.9571
  26   2.0000      -0.916655       -24.9434
  27   2.0000      -0.915531       -24.9129
  28   2.0000      -0.870133       -23.6775
  29   2.0000      -0.852693       -23.2030
  30   2.0000      -0.843966       -22.9655
  31   2.0000      -0.810435       -22.0531
  32   2.0000      -0.785664       -21.3790
  33   2.0000      -0.775357       -21.0985
  34   2.0000      -0.707697       -19.2574
  35   2.0000      -0.703898       -19.1540
  36   2.0000      -0.693889       -18.8817
  37   2.0000      -0.653026       -17.7697
  38   2.0000      -0.639344       -17.3974
  39   2.0000      -0.622876       -16.9493
  40   2.0000      -0.609818       -16.5940
  41   2.0000      -0.568941       -15.4817
  42   2.0000      -0.562434       -15.3046
  43   2.0000      -0.554442       -15.0871
  44   2.0000      -0.543316       -14.7844
  45   2.0000      -0.529423       -14.4063
  46   2.0000      -0.517140       -14.0721
  47   2.0000      -0.510886       -13.9019
  48   2.0000      -0.507831       -13.8188
  49   2.0000      -0.497858       -13.5474
  50   2.0000      -0.484810       -13.1924
  51   2.0000      -0.473862       -12.8945
  52   2.0000      -0.468235       -12.7413
  53   2.0000      -0.467396       -12.7185
  54   2.0000      -0.460560       -12.5325
  55   2.0000      -0.457824       -12.4580
  56   2.0000      -0.448797       -12.2124
  57   2.0000      -0.443003       -12.0547
  58   2.0000      -0.433130       -11.7861
  59   2.0000      -0.422988       -11.5101
  60   2.0000      -0.417218       -11.3531
  61   2.0000      -0.411709       -11.2032
  62   2.0000      -0.403915       -10.9911
  63   2.0000      -0.332117        -9.0374
  64   2.0000      -0.327308        -8.9065
  65   2.0000      -0.318517        -8.6673
  66   2.0000      -0.302113        -8.2209
  67   0.0000       0.041999         1.1428
  68   0.0000       0.056439         1.5358
  69   0.0000       0.111311         3.0289
  70   0.0000       0.123963         3.3732
  71   0.0000       0.131919         3.5897

MULLIKEN ATOMIC CHARGES
-----------------------
   0 S :    0.113048
   1 C :   -0.132462
   2 C :   -0.123666
   3 C :    0.050740
   4 C :   -0.178981
   5 H :    0.017441
   6 C :    0.094807
   7 H :    0.018792
   8 H :    0.032009
   9 C :   -0.048840
  10 H :    0.022472
  11 H :    0.023092
  12 C :   -0.092782
  13 H :    0.037323
  14 H :    0.063948
  15 H :    0.031271
  16 S :    0.106738
  17 C :   -0.065977
  18 C :   -0.044562
  19 C :   -0.002728
  20 C :   -0.175074
  21 H :    0.020068
  22 C :    0.098707
  23 H :    0.032180
  24 H :    0.011082
  25 C :   -0.128518
  26 H :    0.025428
  27 H :    0.017597
  28 C :    0.012722
  29 H :    0.043880
  30 H :    0.014272
  31 H :    0.013972
  32 H :    0.060007
  33 H :    0.031992
Sum of atomic charges:    0.0000000

LOEWDIN ATOMIC CHARGES
----------------------
   0 S :    0.394188
   1 C :   -0.197562
   2 C :   -0.064315
   3 C :   -0.048352
   4 C :   -0.202069
   5 H :    0.032372
   6 C :   -0.025589
   7 H :    0.033024
   8 H :    0.031740
   9 C :   -0.042050
  10 H :    0.024443
  11 H :    0.021812
  12 C :   -0.078016
  13 H :    0.025636
  14 H :    0.037867
  15 H :    0.027271
  16 S :    0.432644
  17 C :   -0.184983
  18 C :   -0.081926
  19 C :   -0.040044
  20 C :   -0.213132
  21 H :    0.029867
  22 C :   -0.029965
  23 H :    0.037454
  24 H :    0.021791
  25 C :   -0.051698
  26 H :    0.025180
  27 H :    0.019475
  28 C :   -0.059294
  29 H :    0.037719
  30 H :    0.014301
  31 H :    0.025979
  32 H :    0.032073
  33 H :    0.014159

  Mayer bond orders larger than 0.100000
B(  0-S ,  1-C ) :   1.1328 B(  0-S ,  4-C ) :   1.1394 B(  1-C ,  2-C ) :   1.6272
B(  1-C , 32-H ) :   0.9594 B(  2-C ,  3-C ) :   1.2355 B(  2-C ,  6-C ) :   1.0162
B(  3-C ,  4-C ) :   1.6015 B(  3-C ,  5-H ) :   0.9893 B(  4-C , 20-C ) :   1.0342
B(  6-C ,  7-H ) :   0.9336 B(  6-C ,  8-H ) :   0.9456 B(  6-C ,  9-C ) :   1.0739
B(  9-C , 10-H ) :   0.9529 B(  9-C , 11-H ) :   0.9548 B(  9-C , 12-C ) :   1.0633
B( 12-C , 13-H ) :   0.9756 B( 12-C , 14-H ) :   0.9715 B( 12-C , 15-H ) :   0.9766
B( 16-S , 17-C ) :   1.2057 B( 16-S , 20-C ) :   1.1446 B( 17-C , 18-C ) :   1.5627
B( 17-C , 33-H ) :   0.9791 B( 18-C , 19-C ) :   1.2423 B( 18-C , 21-H ) :   1.0009
B( 19-C , 20-C ) :   1.5829 B( 19-C , 22-C ) :   1.0470 B( 22-C , 23-H ) :   0.9247
B( 22-C , 24-H ) :   0.9407 B( 22-C , 25-C ) :   1.0584 B( 25-C , 26-H ) :   0.9613
B( 25-C , 27-H ) :   0.9410 B( 25-C , 28-C ) :   1.0864 B( 28-C , 29-H ) :   0.9715
B( 28-C , 30-H ) :   0.9716 B( 28-C , 31-H ) :   0.9684

Dispersion correction           -0.014644030
FINAL SINGLE POINT ENERGY     -1339.859172378434

DIPOLE MOMENT
-------------
                                X             Y             Z
Electronic contribution:     -8.94162     -18.92014      19.56000
Nuclear contribution   :      8.84536      19.12823     -20.31102
                        -----------------------------------------
Total Dipole Moment    :     -0.09625       0.20809      -0.75101
                        -----------------------------------------
Magnitude (a.u.)       :      0.78523
Magnitude (Debye)      :      1.99591

Rotational constants in cm-1:     0.016792     0.009733     0.007207
Rotational constants in MHz :   503.398033   291.800793   216.073229

                             ****ORCA TERMINATED NORMALLY****
TOTAL RUN TIME: 0 days 0 hours 0 minutes 22 seconds 107 msec
