                         Program Version 4.2.1 -  RELEASE  -
|  1> ! wB97X-D3 SP def2-SVP
|  2> %pal
|  3> nprocs 24
|  4> end
|  5>
|  6> * xyz 0 1
|  7> S 	 -121.299 	 52.2975 	 -32.9661
|  8> C 	 -121.273 	 50.7021 	 -33.6204
|  9> C 	 -122.192 	 49.8019 	 -33.1293
| 10> C 	 -122.825 	 50.4135 	 -31.9869
| 11> C 	 -122.485 	 51.7152 	 -31.7586
| 12> H 	 -123.594 	 49.898 	 -31.3312
| 13> C 	 -122.519 	 48.3631 	 -33.5868
| 14> H 	 -121.724 	 47.7084 	 -33.2197
| 15> H 	 -122.186 	 48.3667 	 -34.6509
| 16> C 	 -123.86 	 47.7168 	 -33.4049
| 17> H 	 -124.029 	 47.4483 	 -32.3629
| 18> H 	 -124.705 	 48.3716 	 -33.8115
| 19> C 	 -124.003 	 46.3361 	 -34.1406
| 20> H 	 -124.856 	 45.7758 	 -33.9109
| 21> H 	 -123.985 	 46.5984 	 -35.1895
| 22> H 	 -123.185 	 45.7438 	 -34.0445
| 23> S 	 -121.782 	 52.8303 	 -29.2677
| 24> C 	 -122.945 	 53.9238 	 -28.4852
| 25> C 	 -124.152 	 54.0882 	 -29.2157
| 26> C 	 -124.033 	 53.3553 	 -30.4728
| 27> C 	 -122.827 	 52.5902 	 -30.6346
| 28> H 	 -124.862 	 54.8003 	 -28.8678
| 29> C 	 -125.035 	 53.3724 	 -31.646
| 30> H 	 -124.357 	 53.4442 	 -32.4911
| 31> H 	 -125.434 	 54.3649 	 -31.6764
| 32> C 	 -126.195 	 52.3348 	 -31.7842
| 33> H 	 -126.911 	 52.2246 	 -30.949
| 34> H 	 -125.632 	 51.3906 	 -31.8088
| 35> C 	 -127.064 	 52.3914 	 -33.0564
| 36> H 	 -127.631 	 51.4959 	 -33.2156
| 37> H 	 -126.432 	 52.3914 	 -33.9069
| 38> H 	 -127.723 	 53.3046 	 -33.1439
| 39> H 	 -120.587 	 50.4109 	 -34.3993
| 40> H 	 -122.64 	 54.4181 	 -27.5198
| 41> *
| 42>
| 43>                          ****END OF INPUT****

CARTESIAN COORDINATES (ANGSTROEM)
---------------------------------
  S    -121.299000   52.297500  -32.966100
  C    -121.273000   50.702100  -33.620400
  C    -122.192000   49.801900  -33.129300
  C    -122.825000   50.413500  -31.986900
  C    -122.485000   51.715200  -31.758600
  H    -123.594000   49.898000  -31.331200
  C    -122.519000   48.363100  -33.586800
  H    -121.724000   47.708400  -33.219700
  H    -122.186000   48.366700  -34.650900
  C    -123.860000   47.716800  -33.404900
  H    -124.029000   47.448300  -32.362900
  H    -124.705000   48.371600  -33.811500
  C    -124.003000   46.336100  -34.140600
  H    -124.856000   45.775800  -33.910900
  H    -123.985000   46.598400  -35.189500
  H    -123.185000   45.743800  -34.044500
  S    -121.782000   52.830300  -29.267700
  C    -122.945000   53.923800  -28.485200
  C    -124.152000   54.088200  -29.215700
  C    -124.033000   53.355300  -30.472800
  C    -122.827000   52.590200  -30.634600
  H    -124.862000   54.800300  -28.867800
  C    -125.035000   53.372400  -31.646000
  H    -124.357000   53.444200  -32.491100
  H    -125.434000   54.364900  -31.676400
  C    -126.195000   52.334800  -31.784200
  H    -126.911000   52.224600  -30.949000
  H    -125.632000   51.390600  -31.808800
  C    -127.064000   52.391400  -33.056400
  H    -127.631000   51.495900  -33.215600
  H    -126.432000   52.391400  -33.906900
  H    -127.723000   53.304600  -33.143900
  H    -120.587000   50.410900  -34.399300
  H    -122.640000   54.418100  -27.519800

 Total Charge           Charge          ....    0
 Multiplicity           Mult            ....    1
 Number of Electrons    NEL             ....  134
 Basis Dimension        Dim             ....  322

ORBITAL ENERGIES
----------------

  NO   OCC          E(Eh)            E(eV)
   0   2.0000     -88.967569     -2420.9306
   1   2.0000     -88.966650     -2420.9056
   2   2.0000     -10.328109      -281.0421
   3   2.0000     -10.328029      -281.0400
   4   2.0000     -10.325174      -280.9623
   5   2.0000     -10.313191      -280.6362
   6   2.0000     -10.311823      -280.5990
   7   2.0000     -10.305924      -280.4384
   8   2.0000     -10.303320      -280.3676
   9   2.0000     -10.301049      -280.3058
  10   2.0000     -10.299720      -280.2696
  11   2.0000     -10.299003      -280.2501
  12   2.0000     -10.288003      -279.9508
  13   2.0000     -10.286474      -279.9092
  14   2.0000     -10.274397      -279.5806
  15   2.0000     -10.271165      -279.4926
  16   2.0000      -8.082193      -219.9276
  17   2.0000      -8.080854      -219.8912
  18   2.0000      -6.040561      -164.3720
  19   2.0000      -6.039229      -164.3358
  20   2.0000      -6.036970      -164.2743
  21   2.0000      -6.035293      -164.2287
  22   2.0000      -6.032850      -164.1622
  23   2.0000      -6.031943      -164.1375
  24   2.0000      -1.000721       -27.2310
  25   2.0000      -0.975710       -26.5504
  26   2.0000      -0.912216       -24.8226
  27   2.0000      -0.895177       -24.3590
  28   2.0000      -0.866590       -23.5811
  29   2.0000      -0.850218       -23.1356
  30   2.0000      -0.845420       -23.0050
  31   2.0000      -0.815191       -22.1825
  32   2.0000      -0.787441       -21.4274
  33   2.0000      -0.766107       -20.8468
  34   2.0000      -0.710598       -19.3363
  35   2.0000      -0.698736       -19.0136
  36   2.0000      -0.685845       -18.6628
  37   2.0000      -0.655797       -17.8451
  38   2.0000      -0.642431       -17.4814
  39   2.0000      -0.617934       -16.8148
  40   2.0000      -0.583976       -15.8908
  41   2.0000      -0.571899       -15.5622
  42   2.0000      -0.566090       -15.4041
  43   2.0000      -0.553491       -15.0612
  44   2.0000      -0.531460       -14.4618
  45   2.0000      -0.521352       -14.1867
  46   2.0000      -0.515873       -14.0376
  47   2.0000      -0.507439       -13.8081
  48   2.0000      -0.500890       -13.6299
  49   2.0000      -0.495914       -13.4945
  50   2.0000      -0.486260       -13.2318
  51   2.0000      -0.476744       -12.9729
  52   2.0000      -0.467940       -12.7333
  53   2.0000      -0.460276       -12.5247
  54   2.0000      -0.457902       -12.4601
  55   2.0000      -0.455267       -12.3884
  56   2.0000      -0.445685       -12.1277
  57   2.0000      -0.442046       -12.0287
  58   2.0000      -0.431352       -11.7377
  59   2.0000      -0.429624       -11.6907
  60   2.0000      -0.418333       -11.3834
  61   2.0000      -0.413768       -11.2592
  62   2.0000      -0.404204       -10.9989
  63   2.0000      -0.340793        -9.2734
  64   2.0000      -0.329702        -8.9717
  65   2.0000      -0.314334        -8.5535
  66   2.0000      -0.305736        -8.3195
  67   0.0000       0.038912         1.0589
  68   0.0000       0.055516         1.5107
  69   0.0000       0.107931         2.9369
  70   0.0000       0.120574         3.2810
  71   0.0000       0.127987         3.4827

MULLIKEN ATOMIC CHARGES
-----------------------
   0 S :    0.123218
   1 C :   -0.122190
   2 C :   -0.083626
   3 C :    0.029431
   4 C :   -0.198912
   5 H :    0.046045
   6 C :    0.056752
   7 H :    0.035802
   8 H :    0.014014
   9 C :   -0.089981
  10 H :    0.038807
  11 H :    0.050993
  12 C :    0.000707
  13 H :    0.031622
  14 H :    0.019856
  15 H :    0.001966
  16 S :    0.119946
  17 C :   -0.145349
  18 C :    0.001532
  19 C :   -0.066491
  20 C :   -0.158230
  21 H :    0.022572
  22 C :    0.094550
  23 H :    0.019245
  24 H :    0.000265
  25 C :   -0.046953
  26 H :    0.034092
  27 H :    0.013301
  28 C :   -0.045643
  29 H :    0.028202
  30 H :    0.013569
  31 H :    0.041215
  32 H :    0.036267
  33 H :    0.083407
Sum of atomic charges:   -0.0000000

LOEWDIN ATOMIC CHARGES
----------------------
   0 S :    0.399176
   1 C :   -0.195291
   2 C :   -0.066008
   3 C :   -0.055294
   4 C :   -0.190951
   5 H :    0.043397
   6 C :   -0.044257
   7 H :    0.037441
   8 H :    0.034355
   9 C :   -0.041898
  10 H :    0.024058
  11 H :    0.035489
  12 C :   -0.048676
  13 H :    0.022521
  14 H :    0.026683
  15 H :    0.010393
  16 S :    0.408885
  17 C :   -0.183916
  18 C :   -0.068508
  19 C :   -0.044718
  20 C :   -0.226505
  21 H :    0.032589
  22 C :   -0.038134
  23 H :    0.032481
  24 H :    0.021998
  25 C :   -0.042206
  26 H :    0.026558
  27 H :    0.023818
  28 C :   -0.067249
  29 H :    0.025865
  30 H :    0.018927
  31 H :    0.029770
  32 H :    0.022042
  33 H :    0.037162

  Mayer bond orders larger than 0.100000
B(  0-S ,  1-C ) :   1.1517 B(  0-S ,  4-C ) :   1.1207 B(  1-C ,  2-C ) :   1.6462
B(  1-C , 32-H ) :   0.9606 B(  2-C ,  3-C ) :   1.2194 B(  2-C ,  6-C ) :   1.0033
B(  3-C ,  4-C ) :   1.6407 B(  3-C ,  5-H ) :   0.9717 B(  4-C , 20-C ) :   1.0255
B(  6-C ,  7-H ) :   0.9262 B(  6-C ,  8-H ) :   0.9374 B(  6-C ,  9-C ) :   1.0703
B(  9-C , 10-H ) :   0.9461 B(  9-C , 11-H ) :   0.9612 B(  9-C , 12-C ) :   1.0783
B( 12-C , 13-H ) :   0.9757 B( 12-C , 14-H ) :   0.9749 B( 12-C , 15-H ) :   0.9739
B( 16-S , 17-C ) :   1.1788 B( 16-S , 20-C ) :   1.1501 B( 17-C , 18-C ) :   1.5716
B( 17-C , 20-C ) :   0.1018 B( 17-C , 33-H ) :   0.9591 B( 18-C , 19-C ) :   1.2532
B( 18-C , 21-H ) :   0.9979 B( 19-C , 20-C ) :   1.5645 B( 19-C , 22-C ) :   1.0374
B( 22-C , 23-H ) :   0.9242 B( 22-C , 24-H ) :   0.9320 B( 22-C , 25-C ) :   1.0452
B( 25-C , 26-H ) :   0.9600 B( 25-C , 27-H ) :   0.9487 B( 25-C , 28-C ) :   1.0865
B( 28-C , 29-H ) :   0.9725 B( 28-C , 30-H ) :   0.9730 B( 28-C , 31-H ) :   0.9762

Dispersion correction           -0.014305590
FINAL SINGLE POINT ENERGY     -1339.858107095406

DIPOLE MOMENT
-------------
                                X             Y             Z
Electronic contribution:     21.50471      17.47473      13.65178
Nuclear contribution   :    -21.82263     -17.90396     -13.86569
                        -----------------------------------------
Total Dipole Moment    :     -0.31792      -0.42922      -0.21390
                        -----------------------------------------
Magnitude (a.u.)       :      0.57538
Magnitude (Debye)      :      1.46250

Rotational constants in cm-1:     0.017417     0.008521     0.006892
Rotational constants in MHz :   522.142166   255.466289   206.629251

                             ****ORCA TERMINATED NORMALLY****
TOTAL RUN TIME: 0 days 0 hours 0 minutes 21 seconds 312 msec
