                         Program Version 4.2.1 -  RELEASE  -
|  1> ! wB97X-D3 SP def2-SVP
|  2> %pal
|  3> nprocs 24
|  4> end
|  5>
|  6> * xyz 0 1
|  7> S 	 -63.9751 	 22.7638 	 -116.171
|  8> C 	 -62.4633 	 22.2865 	 -116.914
|  9> C 	 -61.9132 	 21.2163 	 -116.224
| 10> C 	 -62.7795 	 20.682 	 -115.235
| 11> C 	 -63.9156 	 21.4145 	 -115.07
| 12> H 	 -62.5035 	 19.8161 	 -114.567
| 13> C 	 -60.611 	 20.5329 	 -116.603
| 14> H 	 -60.2378 	 20.8201 	 -117.584
| 15> H 	 -61.1514 	 19.6153 	 -116.77
| 16> C 	 -59.5237 	 20.5646 	 -115.517
| 17> H 	 -59.6635 	 19.9015 	 -114.691
| 18> H 	 -58.6305 	 20.1376 	 -115.826
| 19> C 	 -59.1805 	 21.9492 	 -115.047
| 20> H 	 -59.0648 	 22.5708 	 -115.875
| 21> H 	 -60.0325 	 22.3946 	 -114.531
| 22> H 	 -58.2022 	 22.0206 	 -114.588
| 23> S 	 -66.4203 	 20.2267 	 -114.711
| 24> C 	 -67.0797 	 20.3597 	 -113.159
| 25> C 	 -66.2752 	 20.8999 	 -112.238
| 26> C 	 -64.9941 	 21.2139 	 -112.75
| 27> C 	 -64.9709 	 21.119 	 -114.112
| 28> H 	 -66.5282 	 20.9762 	 -111.18
| 29> C 	 -63.9515 	 21.8496 	 -111.831
| 30> H 	 -63.315 	 22.5164 	 -112.434
| 31> H 	 -63.3953 	 21.1658 	 -111.349
| 32> C 	 -64.4875 	 22.7392 	 -110.701
| 33> H 	 -65.0084 	 22.1268 	 -109.936
| 34> H 	 -65.317 	 23.4313 	 -111.015
| 35> C 	 -63.44 	 23.6075 	 -110.064
| 36> H 	 -62.5906 	 23.0383 	 -109.637
| 37> H 	 -63.9351 	 23.979 	 -109.163
| 38> H 	 -62.8476 	 24.3721 	 -110.573
| 39> H 	 -62.0107 	 22.783 	 -117.723
| 40> H 	 -68.0724 	 20.1889 	 -112.952
| 41> *
| 42>
| 43>                          ****END OF INPUT****

CARTESIAN COORDINATES (ANGSTROEM)
---------------------------------
  S    -63.975100   22.763800  -116.171000
  C    -62.463300   22.286500  -116.914000
  C    -61.913200   21.216300  -116.224000
  C    -62.779500   20.682000  -115.235000
  C    -63.915600   21.414500  -115.070000
  H    -62.503500   19.816100  -114.567000
  C    -60.611000   20.532900  -116.603000
  H    -60.237800   20.820100  -117.584000
  H    -61.151400   19.615300  -116.770000
  C    -59.523700   20.564600  -115.517000
  H    -59.663500   19.901500  -114.691000
  H    -58.630500   20.137600  -115.826000
  C    -59.180500   21.949200  -115.047000
  H    -59.064800   22.570800  -115.875000
  H    -60.032500   22.394600  -114.531000
  H    -58.202200   22.020600  -114.588000
  S    -66.420300   20.226700  -114.711000
  C    -67.079700   20.359700  -113.159000
  C    -66.275200   20.899900  -112.238000
  C    -64.994100   21.213900  -112.750000
  C    -64.970900   21.119000  -114.112000
  H    -66.528200   20.976200  -111.180000
  C    -63.951500   21.849600  -111.831000
  H    -63.315000   22.516400  -112.434000
  H    -63.395300   21.165800  -111.349000
  C    -64.487500   22.739200  -110.701000
  H    -65.008400   22.126800  -109.936000
  H    -65.317000   23.431300  -111.015000
  C    -63.440000   23.607500  -110.064000
  H    -62.590600   23.038300  -109.637000
  H    -63.935100   23.979000  -109.163000
  H    -62.847600   24.372100  -110.573000
  H    -62.010700   22.783000  -117.723000
  H    -68.072400   20.188900  -112.952000

 Total Charge           Charge          ....    0
 Multiplicity           Mult            ....    1
 Number of Electrons    NEL             ....  134
 Basis Dimension        Dim             ....  322

ORBITAL ENERGIES
----------------

  NO   OCC          E(Eh)            E(eV)
   0   2.0000     -88.962979     -2420.8057
   1   2.0000     -88.960813     -2420.7468
   2   2.0000     -10.323206      -280.9087
   3   2.0000     -10.321934      -280.8741
   4   2.0000     -10.308229      -280.5012
   5   2.0000     -10.300743      -280.2975
   6   2.0000     -10.298728      -280.2426
   7   2.0000     -10.298621      -280.2397
   8   2.0000     -10.293185      -280.0918
   9   2.0000     -10.291239      -280.0388
  10   2.0000     -10.290577      -280.0208
  11   2.0000     -10.283876      -279.8385
  12   2.0000     -10.282559      -279.8027
  13   2.0000     -10.278655      -279.6964
  14   2.0000     -10.277105      -279.6542
  15   2.0000     -10.266280      -279.3597
  16   2.0000      -8.077878      -219.8102
  17   2.0000      -8.076391      -219.7698
  18   2.0000      -6.036335      -164.2570
  19   2.0000      -6.034777      -164.2146
  20   2.0000      -6.032318      -164.1477
  21   2.0000      -6.031028      -164.1126
  22   2.0000      -6.028735      -164.0502
  23   2.0000      -6.026984      -164.0026
  24   2.0000      -1.009106       -27.4592
  25   2.0000      -0.989217       -26.9180
  26   2.0000      -0.915934       -24.9238
  27   2.0000      -0.913411       -24.8552
  28   2.0000      -0.871189       -23.7063
  29   2.0000      -0.854536       -23.2531
  30   2.0000      -0.849959       -23.1286
  31   2.0000      -0.814386       -22.1606
  32   2.0000      -0.788093       -21.4451
  33   2.0000      -0.775322       -21.0976
  34   2.0000      -0.714364       -19.4388
  35   2.0000      -0.702231       -19.1087
  36   2.0000      -0.700351       -19.0575
  37   2.0000      -0.655039       -17.8245
  38   2.0000      -0.638377       -17.3711
  39   2.0000      -0.620147       -16.8751
  40   2.0000      -0.607455       -16.5297
  41   2.0000      -0.570103       -15.5133
  42   2.0000      -0.567886       -15.4530
  43   2.0000      -0.561445       -15.2777
  44   2.0000      -0.539758       -14.6876
  45   2.0000      -0.527328       -14.3493
  46   2.0000      -0.512969       -13.9586
  47   2.0000      -0.511141       -13.9089
  48   2.0000      -0.499235       -13.5849
  49   2.0000      -0.497078       -13.5262
  50   2.0000      -0.490057       -13.3351
  51   2.0000      -0.484440       -13.1823
  52   2.0000      -0.472662       -12.8618
  53   2.0000      -0.469468       -12.7749
  54   2.0000      -0.464950       -12.6519
  55   2.0000      -0.450968       -12.2715
  56   2.0000      -0.450062       -12.2468
  57   2.0000      -0.440789       -11.9945
  58   2.0000      -0.425739       -11.5849
  59   2.0000      -0.424016       -11.5381
  60   2.0000      -0.416229       -11.3262
  61   2.0000      -0.409830       -11.1520
  62   2.0000      -0.408615       -11.1190
  63   2.0000      -0.336281        -9.1507
  64   2.0000      -0.328883        -8.9494
  65   2.0000      -0.320133        -8.7113
  66   2.0000      -0.309204        -8.4139
  67   0.0000       0.042760         1.1636
  68   0.0000       0.064961         1.7677
  69   0.0000       0.115494         3.1427
  70   0.0000       0.127643         3.4734
  71   0.0000       0.133376         3.6294

MULLIKEN ATOMIC CHARGES
-----------------------
   0 S :    0.115124
   1 C :   -0.108005
   2 C :   -0.116146
   3 C :    0.026989
   4 C :   -0.178781
   5 H :    0.038222
   6 C :    0.068062
   7 H :    0.017941
   8 H :    0.037403
   9 C :   -0.017771
  10 H :    0.010616
  11 H :   -0.002254
  12 C :   -0.018866
  13 H :   -0.003056
  14 H :    0.044434
  15 H :    0.031073
  16 S :    0.110060
  17 C :   -0.022896
  18 C :   -0.050905
  19 C :   -0.002892
  20 C :   -0.205135
  21 H :    0.014553
  22 C :    0.151378
  23 H :    0.033742
  24 H :    0.001879
  25 C :   -0.136896
  26 H :    0.030486
  27 H :    0.039594
  28 C :   -0.045061
  29 H :    0.013099
  30 H :    0.030038
  31 H :    0.044179
  32 H :    0.029099
  33 H :    0.020690
Sum of atomic charges:   -0.0000000

LOEWDIN ATOMIC CHARGES
----------------------
   0 S :    0.407286
   1 C :   -0.196214
   2 C :   -0.063137
   3 C :   -0.067746
   4 C :   -0.202938
   5 H :    0.044751
   6 C :   -0.029632
   7 H :    0.028521
   8 H :    0.040247
   9 C :   -0.041851
  10 H :    0.021412
  11 H :    0.017880
  12 C :   -0.059961
  13 H :    0.016287
  14 H :    0.029921
  15 H :    0.029158
  16 S :    0.402193
  17 C :   -0.180874
  18 C :   -0.077244
  19 C :   -0.044849
  20 C :   -0.187107
  21 H :    0.032779
  22 C :   -0.018784
  23 H :    0.036108
  24 H :    0.016792
  25 C :   -0.047895
  26 H :    0.023635
  27 H :    0.029821
  28 C :   -0.075639
  29 H :    0.024384
  30 H :    0.032065
  31 H :    0.029223
  32 H :    0.018230
  33 H :    0.013180

  Mayer bond orders larger than 0.100000
B(  0-S ,  1-C ) :   1.1330 B(  0-S ,  4-C ) :   1.1606 B(  1-C ,  2-C ) :   1.5988
B(  1-C , 32-H ) :   0.9782 B(  2-C ,  3-C ) :   1.2397 B(  2-C ,  6-C ) :   0.9851
B(  3-C ,  4-C ) :   1.5946 B(  3-C ,  5-H ) :   0.9848 B(  4-C , 20-C ) :   1.0116
B(  6-C ,  7-H ) :   0.9491 B(  6-C ,  8-H ) :   0.9462 B(  6-C ,  9-C ) :   1.0645
B(  9-C , 10-H ) :   0.9509 B(  9-C , 11-H ) :   0.9485 B(  9-C , 12-C ) :   1.0851
B( 12-C , 13-H ) :   0.9683 B( 12-C , 14-H ) :   0.9694 B( 12-C , 15-H ) :   0.9704
B( 16-S , 17-C ) :   1.1563 B( 16-S , 20-C ) :   1.1282 B( 17-C , 18-C ) :   1.6363
B( 17-C , 33-H ) :   0.9631 B( 18-C , 19-C ) :   1.2247 B( 18-C , 21-H ) :   0.9876
B( 19-C , 20-C ) :   1.6471 B( 19-C , 22-C ) :   1.0344 B( 22-C , 23-H ) :   0.9451
B( 22-C , 24-H ) :   0.9114 B( 22-C , 25-C ) :   1.0719 B( 25-C , 26-H ) :   0.9415
B( 25-C , 27-H ) :   0.9571 B( 25-C , 28-C ) :   1.0874 B( 28-C , 29-H ) :   0.9680
B( 28-C , 30-H ) :   0.9697 B( 28-C , 31-H ) :   0.9756

Dispersion correction           -0.014350861
FINAL SINGLE POINT ENERGY     -1339.851975793797

DIPOLE MOMENT
-------------
                                X             Y             Z
Electronic contribution:    -21.97820      -4.80018     -15.54857
Nuclear contribution   :     22.49620       4.70241      15.96335
                        -----------------------------------------
Total Dipole Moment    :      0.51800      -0.09778       0.41478
                        -----------------------------------------
Magnitude (a.u.)       :      0.67077
Magnitude (Debye)      :      1.70495

Rotational constants in cm-1:     0.017114     0.009083     0.006987
Rotational constants in MHz :   513.061038   272.287503   209.457513

                             ****ORCA TERMINATED NORMALLY****
TOTAL RUN TIME: 0 days 0 hours 0 minutes 21 seconds 552 msec
