                         Program Version 4.2.1 -  RELEASE  -
|  1> ! wB97X-D3 SP def2-SVP
|  2> %pal
|  3> nprocs 24
|  4> end
|  5>
|  6> * xyz 0 1
|  7> S 	 -67.4475 	 19.8848 	 -113.825
|  8> C 	 -67.9884 	 20.7691 	 -112.392
|  9> C 	 -68.232 	 22.0895 	 -112.709
| 10> C 	 -68.1145 	 22.3567 	 -114.103
| 11> C 	 -67.5489 	 21.336 	 -114.829
| 12> H 	 -68.1647 	 23.3334 	 -114.647
| 13> C 	 -68.6564 	 23.2179 	 -111.79
| 14> H 	 -67.7377 	 23.7018 	 -111.459
| 15> H 	 -69.0598 	 22.9447 	 -110.805
| 16> C 	 -69.8204 	 24.2283 	 -112.234
| 17> H 	 -69.9963 	 24.9958 	 -111.534
| 18> H 	 -69.4811 	 24.7451 	 -113.142
| 19> C 	 -71.1159 	 23.4811 	 -112.588
| 20> H 	 -71.4782 	 22.8274 	 -111.747
| 21> H 	 -71.8046 	 24.2563 	 -112.784
| 22> H 	 -71.0153 	 22.7331 	 -113.393
| 23> S 	 -66.9993 	 20.0173 	 -117.247
| 24> C 	 -65.615 	 20.6104 	 -118.199
| 25> C 	 -65.3671 	 21.9329 	 -117.871
| 26> C 	 -66.0146 	 22.3461 	 -116.701
| 27> C 	 -66.8625 	 21.3939 	 -116.131
| 28> H 	 -64.42 	 22.3432 	 -118.258
| 29> C 	 -65.4597 	 23.5413 	 -115.944
| 30> H 	 -66.1871 	 23.9718 	 -115.297
| 31> H 	 -65.4154 	 24.3068 	 -116.73
| 32> C 	 -64.0967 	 23.4221 	 -115.268
| 33> H 	 -63.4765 	 22.8093 	 -115.819
| 34> H 	 -64.317 	 22.8243 	 -114.357
| 35> C 	 -63.4453 	 24.742 	 -114.945
| 36> H 	 -63.8174 	 25.2056 	 -114.02
| 37> H 	 -63.5991 	 25.4533 	 -115.718
| 38> H 	 -62.4412 	 24.5775 	 -114.735
| 39> H 	 -68.3374 	 20.3742 	 -111.456
| 40> H 	 -65.0027 	 19.9809 	 -118.85
| 41> *
| 42>
| 43>                          ****END OF INPUT****

CARTESIAN COORDINATES (ANGSTROEM)
---------------------------------
  S    -67.447500   19.884800  -113.825000
  C    -67.988400   20.769100  -112.392000
  C    -68.232000   22.089500  -112.709000
  C    -68.114500   22.356700  -114.103000
  C    -67.548900   21.336000  -114.829000
  H    -68.164700   23.333400  -114.647000
  C    -68.656400   23.217900  -111.790000
  H    -67.737700   23.701800  -111.459000
  H    -69.059800   22.944700  -110.805000
  C    -69.820400   24.228300  -112.234000
  H    -69.996300   24.995800  -111.534000
  H    -69.481100   24.745100  -113.142000
  C    -71.115900   23.481100  -112.588000
  H    -71.478200   22.827400  -111.747000
  H    -71.804600   24.256300  -112.784000
  H    -71.015300   22.733100  -113.393000
  S    -66.999300   20.017300  -117.247000
  C    -65.615000   20.610400  -118.199000
  C    -65.367100   21.932900  -117.871000
  C    -66.014600   22.346100  -116.701000
  C    -66.862500   21.393900  -116.131000
  H    -64.420000   22.343200  -118.258000
  C    -65.459700   23.541300  -115.944000
  H    -66.187100   23.971800  -115.297000
  H    -65.415400   24.306800  -116.730000
  C    -64.096700   23.422100  -115.268000
  H    -63.476500   22.809300  -115.819000
  H    -64.317000   22.824300  -114.357000
  C    -63.445300   24.742000  -114.945000
  H    -63.817400   25.205600  -114.020000
  H    -63.599100   25.453300  -115.718000
  H    -62.441200   24.577500  -114.735000
  H    -68.337400   20.374200  -111.456000
  H    -65.002700   19.980900  -118.850000

 Total Charge           Charge          ....    0
 Multiplicity           Mult            ....    1
 Number of Electrons    NEL             ....  134
 Basis Dimension        Dim             ....  322

ORBITAL ENERGIES
----------------

  NO   OCC          E(Eh)            E(eV)
   0   2.0000     -88.966215     -2420.8938
   1   2.0000     -88.964328     -2420.8424
   2   2.0000     -10.333210      -281.1809
   3   2.0000     -10.332337      -281.1572
   4   2.0000     -10.325205      -280.9631
   5   2.0000     -10.316286      -280.7204
   6   2.0000     -10.306254      -280.4474
   7   2.0000     -10.305582      -280.4292
   8   2.0000     -10.296646      -280.1860
   9   2.0000     -10.296487      -280.1816
  10   2.0000     -10.296138      -280.1721
  11   2.0000     -10.291249      -280.0391
  12   2.0000     -10.285920      -279.8941
  13   2.0000     -10.279217      -279.7117
  14   2.0000     -10.277638      -279.6687
  15   2.0000     -10.270530      -279.4753
  16   2.0000      -8.080320      -219.8767
  17   2.0000      -8.078429      -219.8252
  18   2.0000      -6.038971      -164.3288
  19   2.0000      -6.036946      -164.2736
  20   2.0000      -6.034901      -164.2180
  21   2.0000      -6.033012      -164.1666
  22   2.0000      -6.030940      -164.1102
  23   2.0000      -6.029227      -164.0636
  24   2.0000      -1.004909       -27.3450
  25   2.0000      -0.984132       -26.7796
  26   2.0000      -0.912386       -24.8273
  27   2.0000      -0.904527       -24.6134
  28   2.0000      -0.869237       -23.6532
  29   2.0000      -0.855038       -23.2668
  30   2.0000      -0.843603       -22.9556
  31   2.0000      -0.816835       -22.2272
  32   2.0000      -0.783188       -21.3116
  33   2.0000      -0.773808       -21.0564
  34   2.0000      -0.712417       -19.3858
  35   2.0000      -0.702214       -19.1082
  36   2.0000      -0.698036       -18.9945
  37   2.0000      -0.660129       -17.9630
  38   2.0000      -0.641449       -17.4547
  39   2.0000      -0.620316       -16.8796
  40   2.0000      -0.599949       -16.3254
  41   2.0000      -0.566438       -15.4136
  42   2.0000      -0.559561       -15.2264
  43   2.0000      -0.555230       -15.1086
  44   2.0000      -0.534784       -14.5522
  45   2.0000      -0.533862       -14.5271
  46   2.0000      -0.517567       -14.0837
  47   2.0000      -0.511806       -13.9270
  48   2.0000      -0.509287       -13.8584
  49   2.0000      -0.497687       -13.5427
  50   2.0000      -0.492757       -13.4086
  51   2.0000      -0.484972       -13.1968
  52   2.0000      -0.470575       -12.8050
  53   2.0000      -0.464497       -12.6396
  54   2.0000      -0.459013       -12.4904
  55   2.0000      -0.447795       -12.1851
  56   2.0000      -0.445006       -12.1092
  57   2.0000      -0.438836       -11.9413
  58   2.0000      -0.432105       -11.7582
  59   2.0000      -0.424415       -11.5489
  60   2.0000      -0.419991       -11.4285
  61   2.0000      -0.407170       -11.0797
  62   2.0000      -0.406727       -11.0676
  63   2.0000      -0.346632        -9.4323
  64   2.0000      -0.334525        -9.1029
  65   2.0000      -0.331393        -9.0177
  66   2.0000      -0.291034        -7.9194
  67   0.0000       0.014935         0.4064
  68   0.0000       0.074093         2.0162
  69   0.0000       0.104055         2.8315
  70   0.0000       0.119103         3.2410
  71   0.0000       0.130334         3.5466

MULLIKEN ATOMIC CHARGES
-----------------------
   0 S :    0.104728
   1 C :   -0.092527
   2 C :   -0.097441
   3 C :    0.009810
   4 C :   -0.133981
   5 H :    0.039693
   6 C :    0.031710
   7 H :    0.040460
   8 H :    0.012100
   9 C :   -0.067685
  10 H :    0.026259
  11 H :    0.025375
  12 C :   -0.055012
  13 H :    0.027597
  14 H :    0.034901
  15 H :    0.048311
  16 S :    0.086580
  17 C :   -0.119754
  18 C :   -0.027174
  19 C :   -0.033725
  20 C :   -0.150139
  21 H :    0.039324
  22 C :    0.047598
  23 H :   -0.003565
  24 H :    0.010593
  25 C :   -0.022038
  26 H :   -0.000666
  27 H :    0.034486
  28 C :   -0.000121
  29 H :    0.026415
  30 H :    0.022113
  31 H :    0.019551
  32 H :    0.044266
  33 H :    0.071959
Sum of atomic charges:    0.0000000

LOEWDIN ATOMIC CHARGES
----------------------
   0 S :    0.392478
   1 C :   -0.191266
   2 C :   -0.064240
   3 C :   -0.070718
   4 C :   -0.184075
   5 H :    0.040089
   6 C :   -0.040620
   7 H :    0.034514
   8 H :    0.027233
   9 C :   -0.033334
  10 H :    0.020238
  11 H :    0.019687
  12 C :   -0.065329
  13 H :    0.027795
  14 H :    0.022147
  15 H :    0.031238
  16 S :    0.371879
  17 C :   -0.162972
  18 C :   -0.076933
  19 C :   -0.056973
  20 C :   -0.189003
  21 H :    0.039055
  22 C :   -0.031550
  23 H :    0.018439
  24 H :    0.027810
  25 C :   -0.032680
  26 H :    0.010954
  27 H :    0.034862
  28 C :   -0.054487
  29 H :    0.029906
  30 H :    0.020697
  31 H :    0.021458
  32 H :    0.029994
  33 H :    0.033707

  Mayer bond orders larger than 0.100000
B(  0-S ,  1-C ) :   1.1223 B(  0-S ,  4-C ) :   1.1444 B(  1-C ,  2-C ) :   1.6239
B(  1-C , 32-H ) :   0.9664 B(  2-C ,  3-C ) :   1.2286 B(  2-C ,  6-C ) :   1.0138
B(  3-C ,  4-C ) :   1.5852 B(  3-C ,  5-H ) :   0.9804 B(  4-C , 20-C ) :   1.0487
B(  6-C ,  7-H ) :   0.9380 B(  6-C ,  8-H ) :   0.9483 B(  6-C ,  9-C ) :   1.0608
B(  9-C , 10-H ) :   0.9593 B(  9-C , 11-H ) :   0.9522 B(  9-C , 12-C ) :   1.0738
B( 12-C , 13-H ) :   0.9752 B( 12-C , 14-H ) :   0.9748 B( 12-C , 15-H ) :   0.9730
B( 16-S , 17-C ) :   1.1515 B( 16-S , 20-C ) :   1.1265 B( 17-C , 18-C ) :   1.6145
B( 17-C , 20-C ) :   0.1004 B( 17-C , 33-H ) :   0.9665 B( 18-C , 19-C ) :   1.2434
B( 18-C , 21-H ) :   0.9780 B( 19-C , 20-C ) :   1.5892 B( 19-C , 22-C ) :   1.0549
B( 22-C , 23-H ) :   0.9328 B( 22-C , 24-H ) :   0.9270 B( 22-C , 25-C ) :   1.0597
B( 25-C , 26-H ) :   0.9565 B( 25-C , 27-H ) :   0.9473 B( 25-C , 28-C ) :   1.0825
B( 28-C , 29-H ) :   0.9727 B( 28-C , 30-H ) :   0.9763 B( 28-C , 31-H ) :   0.9706

Dispersion correction           -0.014641510
FINAL SINGLE POINT ENERGY     -1339.854317081622

DIPOLE MOMENT
-------------
                                X             Y             Z
Electronic contribution:     -1.09343     -24.36928     -11.84244
Nuclear contribution   :      1.46425      25.01586      12.14628
                        -----------------------------------------
Total Dipole Moment    :      0.37082       0.64658       0.30384
                        -----------------------------------------
Magnitude (a.u.)       :      0.80492
Magnitude (Debye)      :      2.04594

Rotational constants in cm-1:     0.017424     0.009154     0.007217
Rotational constants in MHz :   522.370333   274.424771   216.345785

                             ****ORCA TERMINATED NORMALLY****
TOTAL RUN TIME: 0 days 0 hours 0 minutes 22 seconds 51 msec
