                         Program Version 4.2.1 -  RELEASE  -
|  1> ! wB97X-D3 SP def2-SVP
|  2> %pal
|  3> nprocs 24
|  4> end
|  5>
|  6> * xyz 0 1
|  7> S 	 -129.021 	 68.3786 	 -54.162
|  8> C 	 -128.568 	 69.2703 	 -55.6163
|  9> C 	 -127.788 	 70.392 	 -55.3087
| 10> C 	 -127.492 	 70.47 	 -53.9298
| 11> C 	 -127.979 	 69.4723 	 -53.1474
| 12> H 	 -126.859 	 71.1393 	 -53.3599
| 13> C 	 -127.378 	 71.3521 	 -56.369
| 14> H 	 -128.019 	 71.2053 	 -57.2417
| 15> H 	 -126.343 	 71.2414 	 -56.7688
| 16> C 	 -127.406 	 72.8268 	 -55.9729
| 17> H 	 -126.674 	 72.9338 	 -55.1512
| 18> H 	 -127.154 	 73.457 	 -56.8123
| 19> C 	 -128.787 	 73.3106 	 -55.484
| 20> H 	 -129.042 	 72.7126 	 -54.5536
| 21> H 	 -128.839 	 74.4374 	 -55.2511
| 22> H 	 -129.527 	 73.0342 	 -56.2203
| 23> S 	 -128.961 	 69.3283 	 -50.574
| 24> C 	 -127.794 	 69.0991 	 -49.229
| 25> C 	 -126.541 	 69.0055 	 -49.7383
| 26> C 	 -126.393 	 69.0705 	 -51.1468
| 27> C 	 -127.643 	 69.2991 	 -51.7509
| 28> H 	 -125.674 	 68.7776 	 -49.1128
| 29> C 	 -125.167 	 68.7123 	 -51.914
| 30> H 	 -125.351 	 68.8788 	 -52.9807
| 31> H 	 -124.891 	 67.6427 	 -51.8569
| 32> C 	 -123.881 	 69.4994 	 -51.6085
| 33> H 	 -124.26 	 70.5183 	 -51.3257
| 34> H 	 -123.274 	 69.4991 	 -52.5015
| 35> C 	 -123.088 	 69.0646 	 -50.3909
| 36> H 	 -122.576 	 68.1037 	 -50.3706
| 37> H 	 -123.718 	 68.9741 	 -49.5033
| 38> H 	 -122.43 	 69.8325 	 -50.0808
| 39> H 	 -128.791 	 68.9742 	 -56.6044
| 40> H 	 -128.02 	 69.0809 	 -48.1854
| 41> *
| 42>
| 43>                          ****END OF INPUT****

CARTESIAN COORDINATES (ANGSTROEM)
---------------------------------
  S    -129.021000   68.378600  -54.162000
  C    -128.568000   69.270300  -55.616300
  C    -127.788000   70.392000  -55.308700
  C    -127.492000   70.470000  -53.929800
  C    -127.979000   69.472300  -53.147400
  H    -126.859000   71.139300  -53.359900
  C    -127.378000   71.352100  -56.369000
  H    -128.019000   71.205300  -57.241700
  H    -126.343000   71.241400  -56.768800
  C    -127.406000   72.826800  -55.972900
  H    -126.674000   72.933800  -55.151200
  H    -127.154000   73.457000  -56.812300
  C    -128.787000   73.310600  -55.484000
  H    -129.042000   72.712600  -54.553600
  H    -128.839000   74.437400  -55.251100
  H    -129.527000   73.034200  -56.220300
  S    -128.961000   69.328300  -50.574000
  C    -127.794000   69.099100  -49.229000
  C    -126.541000   69.005500  -49.738300
  C    -126.393000   69.070500  -51.146800
  C    -127.643000   69.299100  -51.750900
  H    -125.674000   68.777600  -49.112800
  C    -125.167000   68.712300  -51.914000
  H    -125.351000   68.878800  -52.980700
  H    -124.891000   67.642700  -51.856900
  C    -123.881000   69.499400  -51.608500
  H    -124.260000   70.518300  -51.325700
  H    -123.274000   69.499100  -52.501500
  C    -123.088000   69.064600  -50.390900
  H    -122.576000   68.103700  -50.370600
  H    -123.718000   68.974100  -49.503300
  H    -122.430000   69.832500  -50.080800
  H    -128.791000   68.974200  -56.604400
  H    -128.020000   69.080900  -48.185400

 Total Charge           Charge          ....    0
 Multiplicity           Mult            ....    1
 Number of Electrons    NEL             ....  134
 Basis Dimension        Dim             ....  322

ORBITAL ENERGIES
----------------

  NO   OCC          E(Eh)            E(eV)
   0   2.0000     -88.967311     -2420.9236
   1   2.0000     -88.966875     -2420.9118
   2   2.0000     -10.331012      -281.1211
   3   2.0000     -10.330151      -281.0977
   4   2.0000     -10.320198      -280.8269
   5   2.0000     -10.317595      -280.7560
   6   2.0000     -10.305367      -280.4233
   7   2.0000     -10.304002      -280.3861
   8   2.0000     -10.293956      -280.1128
   9   2.0000     -10.293321      -280.0955
  10   2.0000     -10.292645      -280.0771
  11   2.0000     -10.289990      -280.0049
  12   2.0000     -10.289462      -279.9905
  13   2.0000     -10.285826      -279.8915
  14   2.0000     -10.280463      -279.7456
  15   2.0000     -10.274218      -279.5757
  16   2.0000      -8.080772      -219.8890
  17   2.0000      -8.080723      -219.8877
  18   2.0000      -6.039402      -164.3405
  19   2.0000      -6.039329      -164.3385
  20   2.0000      -6.035451      -164.2330
  21   2.0000      -6.035375      -164.2309
  22   2.0000      -6.031467      -164.1246
  23   2.0000      -6.031405      -164.1229
  24   2.0000      -1.003789       -27.3145
  25   2.0000      -0.981752       -26.7148
  26   2.0000      -0.913122       -24.8473
  27   2.0000      -0.911389       -24.8002
  28   2.0000      -0.874044       -23.7839
  29   2.0000      -0.850368       -23.1397
  30   2.0000      -0.841430       -22.8965
  31   2.0000      -0.820831       -22.3360
  32   2.0000      -0.786263       -21.3953
  33   2.0000      -0.770532       -20.9672
  34   2.0000      -0.713158       -19.4060
  35   2.0000      -0.695617       -18.9287
  36   2.0000      -0.689319       -18.7573
  37   2.0000      -0.660108       -17.9625
  38   2.0000      -0.646669       -17.5968
  39   2.0000      -0.621339       -16.9075
  40   2.0000      -0.605926       -16.4881
  41   2.0000      -0.565546       -15.3893
  42   2.0000      -0.549878       -14.9629
  43   2.0000      -0.548255       -14.9188
  44   2.0000      -0.542828       -14.7711
  45   2.0000      -0.539599       -14.6832
  46   2.0000      -0.525599       -14.3023
  47   2.0000      -0.513959       -13.9855
  48   2.0000      -0.506585       -13.7849
  49   2.0000      -0.502172       -13.6648
  50   2.0000      -0.489318       -13.3150
  51   2.0000      -0.483704       -13.1623
  52   2.0000      -0.474118       -12.9014
  53   2.0000      -0.464702       -12.6452
  54   2.0000      -0.463089       -12.6013
  55   2.0000      -0.439104       -11.9486
  56   2.0000      -0.432644       -11.7728
  57   2.0000      -0.428955       -11.6725
  58   2.0000      -0.427242       -11.6259
  59   2.0000      -0.421839       -11.4788
  60   2.0000      -0.421504       -11.4697
  61   2.0000      -0.420395       -11.4395
  62   2.0000      -0.416963       -11.3461
  63   2.0000      -0.346742        -9.4353
  64   2.0000      -0.334166        -9.0931
  65   2.0000      -0.328616        -8.9421
  66   2.0000      -0.295599        -8.0437
  67   0.0000       0.028902         0.7865
  68   0.0000       0.055793         1.5182
  69   0.0000       0.110706         3.0125
  70   0.0000       0.118963         3.2372
  71   0.0000       0.126762         3.4494

MULLIKEN ATOMIC CHARGES
-----------------------
   0 S :    0.105552
   1 C :   -0.101226
   2 C :   -0.071361
   3 C :    0.040275
   4 C :   -0.166077
   5 H :    0.014244
   6 C :    0.075298
   7 H :    0.012553
   8 H :    0.044790
   9 C :   -0.100340
  10 H :    0.035539
  11 H :    0.032314
  12 C :   -0.088733
  13 H :    0.048909
  14 H :    0.053067
  15 H :    0.026901
  16 S :    0.100224
  17 C :   -0.075987
  18 C :   -0.029515
  19 C :   -0.003059
  20 C :   -0.196767
  21 H :    0.019538
  22 C :    0.048382
  23 H :    0.029441
  24 H :    0.042828
  25 C :   -0.076865
  26 H :    0.032500
  27 H :    0.037050
  28 C :   -0.029431
  29 H :    0.031774
  30 H :   -0.002661
  31 H :    0.025484
  32 H :    0.034832
  33 H :    0.050526
Sum of atomic charges:    0.0000000

LOEWDIN ATOMIC CHARGES
----------------------
   0 S :    0.369206
   1 C :   -0.173866
   2 C :   -0.066783
   3 C :   -0.059414
   4 C :   -0.177705
   5 H :    0.034982
   6 C :   -0.036470
   7 H :    0.027227
   8 H :    0.038533
   9 C :   -0.044851
  10 H :    0.023097
  11 H :    0.023861
  12 C :   -0.077910
  13 H :    0.032603
  14 H :    0.034768
  15 H :    0.020020
  16 S :    0.383048
  17 C :   -0.165386
  18 C :   -0.072085
  19 C :   -0.055928
  20 C :   -0.187542
  21 H :    0.030789
  22 C :   -0.037901
  23 H :    0.035413
  24 H :    0.036381
  25 C :   -0.039069
  26 H :    0.031250
  27 H :    0.025454
  28 C :   -0.072507
  29 H :    0.024505
  30 H :    0.021684
  31 H :    0.024409
  32 H :    0.020880
  33 H :    0.029305

  Mayer bond orders larger than 0.100000
B(  0-S ,  1-C ) :   1.1400 B(  0-S ,  4-C ) :   1.1115 B(  1-C ,  2-C ) :   1.6119
B(  1-C , 32-H ) :   0.9729 B(  2-C ,  3-C ) :   1.1965 B(  2-C ,  6-C ) :   1.0305
B(  3-C ,  4-C ) :   1.6113 B(  3-C ,  5-H ) :   0.9954 B(  4-C , 20-C ) :   1.0489
B(  6-C ,  7-H ) :   0.9385 B(  6-C ,  8-H ) :   0.9324 B(  6-C ,  9-C ) :   1.0782
B(  9-C , 10-H ) :   0.9515 B(  9-C , 11-H ) :   0.9556 B(  9-C , 12-C ) :   1.0748
B( 12-C , 13-H ) :   0.9707 B( 12-C , 14-H ) :   0.9745 B( 12-C , 15-H ) :   0.9745
B( 16-S , 17-C ) :   1.1283 B( 16-S , 20-C ) :   1.1459 B( 17-C , 18-C ) :   1.6304
B( 17-C , 33-H ) :   0.9712 B( 18-C , 19-C ) :   1.2349 B( 18-C , 21-H ) :   0.9764
B( 19-C , 20-C ) :   1.5769 B( 19-C , 22-C ) :   1.0618 B( 22-C , 23-H ) :   0.9250
B( 22-C , 24-H ) :   0.9364 B( 22-C , 25-C ) :   1.0562 B( 25-C , 26-H ) :   0.9570
B( 25-C , 27-H ) :   0.9583 B( 25-C , 28-C ) :   1.0790 B( 28-C , 29-H ) :   0.9711
B( 28-C , 30-H ) :   0.9700 B( 28-C , 31-H ) :   0.9682

Dispersion correction           -0.014722788
FINAL SINGLE POINT ENERGY     -1339.880179667607

DIPOLE MOMENT
-------------
                                X             Y             Z
Electronic contribution:    -19.01730     -13.24942       6.32830
Nuclear contribution   :     19.67553      13.41516      -6.45577
                        -----------------------------------------
Total Dipole Moment    :      0.65823       0.16574      -0.12748
                        -----------------------------------------
Magnitude (a.u.)       :      0.69065
Magnitude (Debye)      :      1.75549

Rotational constants in cm-1:     0.018117     0.008615     0.007229
Rotational constants in MHz :   543.148869   258.266599   216.707101

                             ****ORCA TERMINATED NORMALLY****
TOTAL RUN TIME: 0 days 0 hours 0 minutes 22 seconds 71 msec
