                         Program Version 4.2.1 -  RELEASE  -
|  1> ! wB97X-D3 SP def2-SVP
|  2> %pal
|  3> nprocs 24
|  4> end
|  5>
|  6> * xyz 0 1
|  7> S 	 13.6843 	 -12.517 	 -126.272
|  8> C 	 12.4647 	 -13.3959 	 -127.094
|  9> C 	 12.8845 	 -14.68 	 -127.471
| 10> C 	 14.229 	 -14.9192 	 -127.054
| 11> C 	 14.7703 	 -13.9136 	 -126.307
| 12> H 	 14.6934 	 -15.8886 	 -127.179
| 13> C 	 12.0346 	 -15.6537 	 -128.266
| 14> H 	 12.5968 	 -15.8143 	 -129.126
| 15> H 	 11.1818 	 -15.1529 	 -128.682
| 16> C 	 11.4548 	 -16.903 	 -127.588
| 17> H 	 10.6576 	 -17.277 	 -128.204
| 18> H 	 12.1885 	 -17.6125 	 -127.4
| 19> C 	 10.7429 	 -16.4929 	 -126.293
| 20> H 	 9.71277 	 -16.1419 	 -126.35
| 21> H 	 10.574 	 -17.2737 	 -125.626
| 22> H 	 11.2599 	 -15.7038 	 -125.715
| 23> S 	 17.544 	 -14.1112 	 -126.58
| 24> C 	 18.4467 	 -13.8554 	 -125.147
| 25> C 	 17.6549 	 -13.8842 	 -123.961
| 26> C 	 16.286 	 -14.0005 	 -124.283
| 27> C 	 16.0433 	 -14.0085 	 -125.641
| 28> H 	 18.1129 	 -13.7383 	 -122.984
| 29> C 	 15.2123 	 -14.1359 	 -123.143
| 30> H 	 14.2988 	 -13.6381 	 -123.557
| 31> H 	 15.6241 	 -13.7241 	 -122.246
| 32> C 	 14.7428 	 -15.582 	 -122.742
| 33> H 	 13.8059 	 -15.5273 	 -122.057
| 34> H 	 15.4072 	 -16.1285 	 -122.08
| 35> C 	 14.3494 	 -16.4316 	 -123.936
| 36> H 	 15.214 	 -16.7004 	 -124.566
| 37> H 	 13.7625 	 -15.8326 	 -124.684
| 38> H 	 13.8818 	 -17.3085 	 -123.607
| 39> H 	 11.489 	 -12.9458 	 -127.324
| 40> H 	 19.5345 	 -13.6602 	 -125.129
| 41> *
| 42>
| 43>                          ****END OF INPUT****

CARTESIAN COORDINATES (ANGSTROEM)
---------------------------------
  S     13.684300  -12.517000  -126.272000
  C     12.464700  -13.395900  -127.094000
  C     12.884500  -14.680000  -127.471000
  C     14.229000  -14.919200  -127.054000
  C     14.770300  -13.913600  -126.307000
  H     14.693400  -15.888600  -127.179000
  C     12.034600  -15.653700  -128.266000
  H     12.596800  -15.814300  -129.126000
  H     11.181800  -15.152900  -128.682000
  C     11.454800  -16.903000  -127.588000
  H     10.657600  -17.277000  -128.204000
  H     12.188500  -17.612500  -127.400000
  C     10.742900  -16.492900  -126.293000
  H      9.712770  -16.141900  -126.350000
  H     10.574000  -17.273700  -125.626000
  H     11.259900  -15.703800  -125.715000
  S     17.544000  -14.111200  -126.580000
  C     18.446700  -13.855400  -125.147000
  C     17.654900  -13.884200  -123.961000
  C     16.286000  -14.000500  -124.283000
  C     16.043300  -14.008500  -125.641000
  H     18.112900  -13.738300  -122.984000
  C     15.212300  -14.135900  -123.143000
  H     14.298800  -13.638100  -123.557000
  H     15.624100  -13.724100  -122.246000
  C     14.742800  -15.582000  -122.742000
  H     13.805900  -15.527300  -122.057000
  H     15.407200  -16.128500  -122.080000
  C     14.349400  -16.431600  -123.936000
  H     15.214000  -16.700400  -124.566000
  H     13.762500  -15.832600  -124.684000
  H     13.881800  -17.308500  -123.607000
  H     11.489000  -12.945800  -127.324000
  H     19.534500  -13.660200  -125.129000

 Total Charge           Charge          ....    0
 Multiplicity           Mult            ....    1
 Number of Electrons    NEL             ....  134
 Basis Dimension        Dim             ....  322

ORBITAL ENERGIES
----------------

  NO   OCC          E(Eh)            E(eV)
   0   2.0000     -88.970457     -2421.0092
   1   2.0000     -88.968993     -2420.9694
   2   2.0000     -10.325373      -280.9677
   3   2.0000     -10.321940      -280.8743
   4   2.0000     -10.321077      -280.8508
   5   2.0000     -10.315017      -280.6859
   6   2.0000     -10.303489      -280.3722
   7   2.0000     -10.301396      -280.3152
   8   2.0000     -10.296033      -280.1693
   9   2.0000     -10.296028      -280.1692
  10   2.0000     -10.291436      -280.0442
  11   2.0000     -10.289397      -279.9887
  12   2.0000     -10.283195      -279.8199
  13   2.0000     -10.282767      -279.8083
  14   2.0000     -10.266701      -279.3711
  15   2.0000     -10.265875      -279.3487
  16   2.0000      -8.085250      -220.0108
  17   2.0000      -8.083594      -219.9658
  18   2.0000      -6.043570      -164.4539
  19   2.0000      -6.042025      -164.4119
  20   2.0000      -6.039820      -164.3519
  21   2.0000      -6.038030      -164.3032
  22   2.0000      -6.036144      -164.2518
  23   2.0000      -6.034531      -164.2079
  24   2.0000      -1.007612       -27.4185
  25   2.0000      -0.985131       -26.8068
  26   2.0000      -0.913426       -24.8556
  27   2.0000      -0.898868       -24.4594
  28   2.0000      -0.868427       -23.6311
  29   2.0000      -0.851813       -23.1790
  30   2.0000      -0.847320       -23.0568
  31   2.0000      -0.809057       -22.0155
  32   2.0000      -0.782998       -21.3065
  33   2.0000      -0.772076       -21.0093
  34   2.0000      -0.710450       -19.3323
  35   2.0000      -0.697033       -18.9672
  36   2.0000      -0.685453       -18.6521
  37   2.0000      -0.663115       -18.0443
  38   2.0000      -0.641047       -17.4438
  39   2.0000      -0.620204       -16.8766
  40   2.0000      -0.585164       -15.9231
  41   2.0000      -0.566228       -15.4078
  42   2.0000      -0.561177       -15.2704
  43   2.0000      -0.555494       -15.1158
  44   2.0000      -0.544762       -14.8237
  45   2.0000      -0.538151       -14.6438
  46   2.0000      -0.508547       -13.8383
  47   2.0000      -0.504175       -13.7193
  48   2.0000      -0.501807       -13.6549
  49   2.0000      -0.494737       -13.4625
  50   2.0000      -0.488847       -13.3022
  51   2.0000      -0.475684       -12.9440
  52   2.0000      -0.468150       -12.7390
  53   2.0000      -0.462007       -12.5718
  54   2.0000      -0.453972       -12.3532
  55   2.0000      -0.446880       -12.1602
  56   2.0000      -0.444872       -12.1056
  57   2.0000      -0.442587       -12.0434
  58   2.0000      -0.431913       -11.7530
  59   2.0000      -0.426777       -11.6132
  60   2.0000      -0.422007       -11.4834
  61   2.0000      -0.417314       -11.3557
  62   2.0000      -0.397434       -10.8147
  63   2.0000      -0.342635        -9.3236
  64   2.0000      -0.334303        -9.0968
  65   2.0000      -0.326166        -8.8754
  66   2.0000      -0.292972        -7.9722
  67   0.0000       0.034769         0.9461
  68   0.0000       0.056196         1.5292
  69   0.0000       0.107612         2.9283
  70   0.0000       0.117346         3.1931
  71   0.0000       0.133802         3.6409

MULLIKEN ATOMIC CHARGES
-----------------------
   0 S :    0.132242
   1 C :   -0.135369
   2 C :   -0.127879
   3 C :    0.033331
   4 C :   -0.165980
   5 H :    0.015321
   6 C :    0.109655
   7 H :    0.014825
   8 H :   -0.002374
   9 C :    0.001348
  10 H :    0.031597
  11 H :    0.021746
  12 C :   -0.074272
  13 H :    0.015630
  14 H :    0.009295
  15 H :    0.045952
  16 S :    0.138593
  17 C :   -0.118359
  18 C :   -0.043527
  19 C :   -0.030011
  20 C :   -0.194866
  21 H :    0.024442
  22 C :    0.107538
  23 H :    0.037731
  24 H :    0.017192
  25 C :   -0.096639
  26 H :    0.035134
  27 H :    0.021419
  28 C :   -0.048152
  29 H :    0.032362
  30 H :    0.042112
  31 H :    0.022830
  32 H :    0.057748
  33 H :    0.069386
Sum of atomic charges:   -0.0000000

LOEWDIN ATOMIC CHARGES
----------------------
   0 S :    0.421340
   1 C :   -0.209868
   2 C :   -0.064012
   3 C :   -0.058313
   4 C :   -0.195695
   5 H :    0.031420
   6 C :   -0.029117
   7 H :    0.024914
   8 H :    0.028991
   9 C :   -0.023966
  10 H :    0.030629
  11 H :    0.014460
  12 C :   -0.072375
  13 H :    0.025312
  14 H :    0.016701
  15 H :    0.027962
  16 S :    0.423345
  17 C :   -0.199505
  18 C :   -0.073875
  19 C :   -0.052347
  20 C :   -0.205228
  21 H :    0.033743
  22 C :   -0.023995
  23 H :    0.032280
  24 H :    0.025517
  25 C :   -0.044311
  26 H :    0.032735
  27 H :    0.016635
  28 C :   -0.071001
  29 H :    0.025112
  30 H :    0.031163
  31 H :    0.016486
  32 H :    0.031333
  33 H :    0.033529

  Mayer bond orders larger than 0.100000
B(  0-S ,  1-C ) :   1.1573 B(  0-S ,  4-C ) :   1.1414 B(  1-C ,  2-C ) :   1.5809
B(  1-C , 32-H ) :   0.9639 B(  2-C ,  3-C ) :   1.2587 B(  2-C ,  6-C ) :   1.0245
B(  3-C ,  4-C ) :   1.5550 B(  3-C ,  5-H ) :   0.9955 B(  4-C , 20-C ) :   1.0582
B(  6-C ,  7-H ) :   0.9347 B(  6-C ,  8-H ) :   0.9337 B(  6-C ,  9-C ) :   1.0714
B(  9-C , 10-H ) :   0.9558 B(  9-C , 11-H ) :   0.9608 B(  9-C , 12-C ) :   1.0692
B( 12-C , 13-H ) :   0.9715 B( 12-C , 14-H ) :   0.9713 B( 12-C , 15-H ) :   0.9732
B( 16-S , 17-C ) :   1.1846 B( 16-S , 20-C ) :   1.1359 B( 17-C , 18-C ) :   1.5737
B( 17-C , 20-C ) :   0.1062 B( 17-C , 33-H ) :   0.9631 B( 18-C , 19-C ) :   1.2599
B( 18-C , 21-H ) :   0.9917 B( 19-C , 20-C ) :   1.5767 B( 19-C , 22-C ) :   1.0338
B( 22-C , 23-H ) :   0.9245 B( 22-C , 24-H ) :   0.9372 B( 22-C , 25-C ) :   1.0714
B( 25-C , 26-H ) :   0.9553 B( 25-C , 27-H ) :   0.9557 B( 25-C , 28-C ) :   1.0845
B( 28-C , 29-H ) :   0.9666 B( 28-C , 30-H ) :   0.9685 B( 28-C , 31-H ) :   0.9691

Dispersion correction           -0.017148075
FINAL SINGLE POINT ENERGY     -1339.871117601975

DIPOLE MOMENT
-------------
                                X             Y             Z
Electronic contribution:     18.07869      17.51837      -7.63734
Nuclear contribution   :    -18.30773     -17.85671       7.76072
                        -----------------------------------------
Total Dipole Moment    :     -0.22904      -0.33833       0.12338
                        -----------------------------------------
Magnitude (a.u.)       :      0.42679
Magnitude (Debye)      :      1.08482

Rotational constants in cm-1:     0.021250     0.009436     0.008270
Rotational constants in MHz :   637.058260   282.881648   247.932752

                             ****ORCA TERMINATED NORMALLY****
TOTAL RUN TIME: 0 days 0 hours 0 minutes 23 seconds 750 msec
