                         Program Version 4.2.1 -  RELEASE  -
|  1> ! wB97X-D3 SP def2-SVP
|  2> %pal
|  3> nprocs 24
|  4> end
|  5>
|  6> * xyz 0 1
|  7> S 	 -48.9854 	 19.4038 	 30.4145
|  8> C 	 -48.276 	 19.9102 	 28.8842
|  9> C 	 -46.9232 	 19.7563 	 28.92
| 10> C 	 -46.4814 	 19.1881 	 30.1667
| 11> C 	 -47.4468 	 18.742 	 30.9857
| 12> H 	 -45.4285 	 19.0278 	 30.4237
| 13> C 	 -46.0063 	 20.2204 	 27.8236
| 14> H 	 -44.9871 	 20.4476 	 28.1832
| 15> H 	 -46.3539 	 21.2019 	 27.3098
| 16> C 	 -45.8308 	 19.0951 	 26.7535
| 17> H 	 -46.7577 	 18.9655 	 26.2609
| 18> H 	 -45.2035 	 19.4258 	 25.9189
| 19> C 	 -45.2837 	 17.7755 	 27.3055
| 20> H 	 -45.5396 	 16.9668 	 26.5541
| 21> H 	 -44.1925 	 17.9654 	 27.3787
| 22> H 	 -45.7907 	 17.5887 	 28.215
| 23> S 	 -48.2165 	 18.6469 	 33.6489
| 24> C 	 -47.5358 	 17.4442 	 34.6445
| 25> C 	 -46.5781 	 16.6894 	 33.9836
| 26> C 	 -46.2672 	 17.1486 	 32.6929
| 27> C 	 -47.2062 	 18.1362 	 32.3241
| 28> H 	 -46.1513 	 15.8358 	 34.525
| 29> C 	 -45.2079 	 16.4187 	 31.8644
| 30> H 	 -45.3434 	 16.8217 	 30.8829
| 31> H 	 -45.488 	 15.3817 	 31.8257
| 32> C 	 -43.7901 	 16.5422 	 32.4508
| 33> H 	 -43.6771 	 15.7927 	 33.2543
| 34> H 	 -43.7355 	 17.5346 	 32.9494
| 35> C 	 -42.5993 	 16.3489 	 31.5231
| 36> H 	 -42.6528 	 15.3135 	 31.19
| 37> H 	 -41.6833 	 16.3865 	 32.1158
| 38> H 	 -42.4541 	 16.975 	 30.6583
| 39> H 	 -48.8434 	 20.354 	 28.0628
| 40> H 	 -47.809 	 17.2397 	 35.6576
| 41> *
| 42>
| 43>                          ****END OF INPUT****

CARTESIAN COORDINATES (ANGSTROEM)
---------------------------------
  S    -48.985400   19.403800   30.414500
  C    -48.276000   19.910200   28.884200
  C    -46.923200   19.756300   28.920000
  C    -46.481400   19.188100   30.166700
  C    -47.446800   18.742000   30.985700
  H    -45.428500   19.027800   30.423700
  C    -46.006300   20.220400   27.823600
  H    -44.987100   20.447600   28.183200
  H    -46.353900   21.201900   27.309800
  C    -45.830800   19.095100   26.753500
  H    -46.757700   18.965500   26.260900
  H    -45.203500   19.425800   25.918900
  C    -45.283700   17.775500   27.305500
  H    -45.539600   16.966800   26.554100
  H    -44.192500   17.965400   27.378700
  H    -45.790700   17.588700   28.215000
  S    -48.216500   18.646900   33.648900
  C    -47.535800   17.444200   34.644500
  C    -46.578100   16.689400   33.983600
  C    -46.267200   17.148600   32.692900
  C    -47.206200   18.136200   32.324100
  H    -46.151300   15.835800   34.525000
  C    -45.207900   16.418700   31.864400
  H    -45.343400   16.821700   30.882900
  H    -45.488000   15.381700   31.825700
  C    -43.790100   16.542200   32.450800
  H    -43.677100   15.792700   33.254300
  H    -43.735500   17.534600   32.949400
  C    -42.599300   16.348900   31.523100
  H    -42.652800   15.313500   31.190000
  H    -41.683300   16.386500   32.115800
  H    -42.454100   16.975000   30.658300
  H    -48.843400   20.354000   28.062800
  H    -47.809000   17.239700   35.657600

 Total Charge           Charge          ....    0
 Multiplicity           Mult            ....    1
 Number of Electrons    NEL             ....  134
 Basis Dimension        Dim             ....  322

ORBITAL ENERGIES
----------------

  NO   OCC          E(Eh)            E(eV)
   0   2.0000     -88.970232     -2421.0031
   1   2.0000     -88.963663     -2420.8243
   2   2.0000     -10.331920      -281.1458
   3   2.0000     -10.329518      -281.0805
   4   2.0000     -10.315245      -280.6921
   5   2.0000     -10.310745      -280.5696
   6   2.0000     -10.305136      -280.4170
   7   2.0000     -10.300782      -280.2985
   8   2.0000     -10.300061      -280.2789
   9   2.0000     -10.292240      -280.0661
  10   2.0000     -10.291094      -280.0349
  11   2.0000     -10.290723      -280.0248
  12   2.0000     -10.290556      -280.0203
  13   2.0000     -10.280117      -279.7362
  14   2.0000     -10.278285      -279.6863
  15   2.0000     -10.278259      -279.6857
  16   2.0000      -8.085658      -220.0219
  17   2.0000      -8.078134      -219.8172
  18   2.0000      -6.044014      -164.4660
  19   2.0000      -6.040049      -164.3581
  20   2.0000      -6.036823      -164.2703
  21   2.0000      -6.036578      -164.2636
  22   2.0000      -6.032839      -164.1619
  23   2.0000      -6.028548      -164.0451
  24   2.0000      -1.010288       -27.4913
  25   2.0000      -0.989888       -26.9362
  26   2.0000      -0.911985       -24.8164
  27   2.0000      -0.909975       -24.7617
  28   2.0000      -0.868264       -23.6267
  29   2.0000      -0.857793       -23.3417
  30   2.0000      -0.840938       -22.8831
  31   2.0000      -0.816034       -22.2054
  32   2.0000      -0.787343       -21.4247
  33   2.0000      -0.771323       -20.9888
  34   2.0000      -0.702896       -19.1268
  35   2.0000      -0.700146       -19.0520
  36   2.0000      -0.693436       -18.8694
  37   2.0000      -0.658542       -17.9198
  38   2.0000      -0.637804       -17.3555
  39   2.0000      -0.617395       -16.8002
  40   2.0000      -0.595535       -16.2053
  41   2.0000      -0.576284       -15.6815
  42   2.0000      -0.568896       -15.4805
  43   2.0000      -0.547302       -14.8928
  44   2.0000      -0.541881       -14.7453
  45   2.0000      -0.527638       -14.3578
  46   2.0000      -0.517810       -14.0903
  47   2.0000      -0.509840       -13.8734
  48   2.0000      -0.504377       -13.7248
  49   2.0000      -0.499316       -13.5871
  50   2.0000      -0.493460       -13.4277
  51   2.0000      -0.486609       -13.2413
  52   2.0000      -0.468785       -12.7563
  53   2.0000      -0.465402       -12.6642
  54   2.0000      -0.463710       -12.6182
  55   2.0000      -0.448706       -12.2099
  56   2.0000      -0.438475       -11.9315
  57   2.0000      -0.431942       -11.7537
  58   2.0000      -0.430455       -11.7133
  59   2.0000      -0.429759       -11.6943
  60   2.0000      -0.421177       -11.4608
  61   2.0000      -0.418242       -11.3809
  62   2.0000      -0.412799       -11.2328
  63   2.0000      -0.355429        -9.6717
  64   2.0000      -0.336257        -9.1500
  65   2.0000      -0.327072        -8.9001
  66   2.0000      -0.287751        -7.8301
  67   0.0000       0.027004         0.7348
  68   0.0000       0.076479         2.0811
  69   0.0000       0.108313         2.9473
  70   0.0000       0.119095         3.2407
  71   0.0000       0.129816         3.5325

MULLIKEN ATOMIC CHARGES
-----------------------
   0 S :    0.087983
   1 C :   -0.126784
   2 C :   -0.067884
   3 C :   -0.010983
   4 C :   -0.108431
   5 H :    0.022278
   6 C :    0.026932
   7 H :    0.024065
   8 H :    0.046723
   9 C :   -0.073875
  10 H :    0.008456
  11 H :    0.021749
  12 C :   -0.059112
  13 H :    0.046554
  14 H :    0.040472
  15 H :    0.048602
  16 S :    0.131200
  17 C :   -0.087414
  18 C :   -0.051229
  19 C :   -0.064963
  20 C :   -0.167897
  21 H :    0.023328
  22 C :    0.132668
  23 H :    0.001677
  24 H :    0.031189
  25 C :   -0.111894
  26 H :    0.032320
  27 H :    0.040499
  28 C :   -0.026310
  29 H :    0.021842
  30 H :    0.030916
  31 H :    0.036318
  32 H :    0.055566
  33 H :    0.045437
Sum of atomic charges:   -0.0000000

LOEWDIN ATOMIC CHARGES
----------------------
   0 S :    0.379503
   1 C :   -0.185109
   2 C :   -0.070584
   3 C :   -0.070713
   4 C :   -0.183650
   5 H :    0.032211
   6 C :   -0.036905
   7 H :    0.028115
   8 H :    0.041028
   9 C :   -0.043354
  10 H :    0.011481
  11 H :    0.020458
  12 C :   -0.064555
  13 H :    0.037430
  14 H :    0.030162
  15 H :    0.018423
  16 S :    0.434403
  17 C :   -0.201707
  18 C :   -0.072328
  19 C :   -0.053136
  20 C :   -0.197495
  21 H :    0.033984
  22 C :   -0.026159
  23 H :    0.023097
  24 H :    0.032488
  25 C :   -0.043613
  26 H :    0.028304
  27 H :    0.027048
  28 C :   -0.065711
  29 H :    0.025913
  30 H :    0.030109
  31 H :    0.022019
  32 H :    0.033984
  33 H :    0.024860

  Mayer bond orders larger than 0.100000
B(  0-S ,  1-C ) :   1.1247 B(  0-S ,  4-C ) :   1.1305 B(  1-C ,  2-C ) :   1.6291
B(  1-C , 32-H ) :   0.9679 B(  2-C ,  3-C ) :   1.2203 B(  2-C ,  6-C ) :   1.0222
B(  3-C ,  4-C ) :   1.5893 B(  3-C ,  5-H ) :   0.9911 B(  4-C , 20-C ) :   1.0431
B(  6-C ,  7-H ) :   0.9464 B(  6-C ,  8-H ) :   0.9472 B(  6-C ,  9-C ) :   1.0593
B(  9-C , 10-H ) :   0.9575 B(  9-C , 11-H ) :   0.9581 B(  9-C , 12-C ) :   1.0680
B( 12-C , 13-H ) :   0.9699 B( 12-C , 14-H ) :   0.9777 B( 12-C , 15-H ) :   0.9764
B( 16-S , 17-C ) :   1.1625 B( 16-S , 20-C ) :   1.1644 B( 17-C , 18-C ) :   1.6010
B( 17-C , 33-H ) :   0.9693 B( 18-C , 19-C ) :   1.2602 B( 18-C , 21-H ) :   0.9887
B( 19-C , 20-C ) :   1.5570 B( 19-C , 22-C ) :   1.0409 B( 22-C , 23-H ) :   0.9323
B( 22-C , 24-H ) :   0.9311 B( 22-C , 25-C ) :   1.0412 B( 25-C , 26-H ) :   0.9497
B( 25-C , 27-H ) :   0.9638 B( 25-C , 28-C ) :   1.0945 B( 28-C , 29-H ) :   0.9698
B( 28-C , 30-H ) :   0.9719 B( 28-C , 31-H ) :   0.9773

Dispersion correction           -0.014700582
FINAL SINGLE POINT ENERGY     -1339.881364650268

DIPOLE MOMENT
-------------
                                X             Y             Z
Electronic contribution:    -25.77175       9.54303      15.82204
Nuclear contribution   :     26.36246      -9.77718     -16.01583
                        -----------------------------------------
Total Dipole Moment    :      0.59070      -0.23416      -0.19379
                        -----------------------------------------
Magnitude (a.u.)       :      0.66432
Magnitude (Debye)      :      1.68856

Rotational constants in cm-1:     0.016360     0.010622     0.006782
Rotational constants in MHz :   490.466072   318.452155   203.314967

                             ****ORCA TERMINATED NORMALLY****
TOTAL RUN TIME: 0 days 0 hours 0 minutes 22 seconds 358 msec
