                         Program Version 4.2.1 -  RELEASE  -
|  1> ! wB97X-D3 SP def2-SVP
|  2> %pal
|  3> nprocs 24
|  4> end
|  5>
|  6> * xyz 0 1
|  7> S 	 -35.4156 	 4.43951 	 16.2355
|  8> C 	 -34.9792 	 5.11549 	 14.7016
|  9> C 	 -35.3189 	 6.44965 	 14.612
| 10> C 	 -35.975 	 6.90917 	 15.8125
| 11> C 	 -36.2026 	 5.93082 	 16.7563
| 12> H 	 -36.3388 	 7.93191 	 15.824
| 13> C 	 -35.1566 	 7.20526 	 13.3044
| 14> H 	 -36.2246 	 7.32053 	 13.0267
| 15> H 	 -34.7112 	 6.5724 	 12.4952
| 16> C 	 -34.4661 	 8.57576 	 13.3998
| 17> H 	 -34.8568 	 9.1695 	 12.5776
| 18> H 	 -34.7491 	 9.17752 	 14.2836
| 19> C 	 -32.9227 	 8.58424 	 13.2753
| 20> H 	 -32.4184 	 8.32598 	 14.1974
| 21> H 	 -32.5666 	 7.93218 	 12.4871
| 22> H 	 -32.6146 	 9.60162 	 12.9911
| 23> S 	 -35.938 	 6.01891 	 19.485
| 24> C 	 -37.2828 	 6.42378 	 20.443
| 25> C 	 -38.4094 	 6.63462 	 19.7206
| 26> C 	 -38.2038 	 6.4681 	 18.2861
| 27> C 	 -36.8543 	 6.13837 	 17.9955
| 28> H 	 -39.3199 	 6.96845 	 20.1349
| 29> C 	 -39.3381 	 6.75243 	 17.3207
| 30> H 	 -38.9677 	 6.69071 	 16.3128
| 31> H 	 -39.7177 	 7.77217 	 17.4428
| 32> C 	 -40.5551 	 5.81814 	 17.3973
| 33> H 	 -41.2085 	 6.04172 	 18.2218
| 34> H 	 -40.1164 	 4.76541 	 17.5914
| 35> C 	 -41.404 	 5.8217 	 16.0849
| 36> H 	 -40.9118 	 5.42735 	 15.2134
| 37> H 	 -41.8169 	 6.79877 	 15.8629
| 38> H 	 -42.3042 	 5.2379 	 16.1946
| 39> H 	 -34.4921 	 4.53859 	 13.9047
| 40> H 	 -37.2534 	 6.6158 	 21.4725
| 41> *
| 42>
| 43>                          ****END OF INPUT****

CARTESIAN COORDINATES (ANGSTROEM)
---------------------------------
  S    -35.415600    4.439510   16.235500
  C    -34.979200    5.115490   14.701600
  C    -35.318900    6.449650   14.612000
  C    -35.975000    6.909170   15.812500
  C    -36.202600    5.930820   16.756300
  H    -36.338800    7.931910   15.824000
  C    -35.156600    7.205260   13.304400
  H    -36.224600    7.320530   13.026700
  H    -34.711200    6.572400   12.495200
  C    -34.466100    8.575760   13.399800
  H    -34.856800    9.169500   12.577600
  H    -34.749100    9.177520   14.283600
  C    -32.922700    8.584240   13.275300
  H    -32.418400    8.325980   14.197400
  H    -32.566600    7.932180   12.487100
  H    -32.614600    9.601620   12.991100
  S    -35.938000    6.018910   19.485000
  C    -37.282800    6.423780   20.443000
  C    -38.409400    6.634620   19.720600
  C    -38.203800    6.468100   18.286100
  C    -36.854300    6.138370   17.995500
  H    -39.319900    6.968450   20.134900
  C    -39.338100    6.752430   17.320700
  H    -38.967700    6.690710   16.312800
  H    -39.717700    7.772170   17.442800
  C    -40.555100    5.818140   17.397300
  H    -41.208500    6.041720   18.221800
  H    -40.116400    4.765410   17.591400
  C    -41.404000    5.821700   16.084900
  H    -40.911800    5.427350   15.213400
  H    -41.816900    6.798770   15.862900
  H    -42.304200    5.237900   16.194600
  H    -34.492100    4.538590   13.904700
  H    -37.253400    6.615800   21.472500

 Total Charge           Charge          ....    0
 Multiplicity           Mult            ....    1
 Number of Electrons    NEL             ....  134
 Basis Dimension        Dim             ....  322

ORBITAL ENERGIES
----------------

  NO   OCC          E(Eh)            E(eV)
   0   2.0000     -88.963552     -2420.8213
   1   2.0000     -88.962864     -2420.8026
   2   2.0000     -10.326966      -281.0110
   3   2.0000     -10.325199      -280.9630
   4   2.0000     -10.310853      -280.5726
   5   2.0000     -10.307981      -280.4944
   6   2.0000     -10.307484      -280.4809
   7   2.0000     -10.299427      -280.2617
   8   2.0000     -10.298044      -280.2240
   9   2.0000     -10.295119      -280.1444
  10   2.0000     -10.291607      -280.0489
  11   2.0000     -10.290080      -280.0073
  12   2.0000     -10.288057      -279.9523
  13   2.0000     -10.287571      -279.9390
  14   2.0000     -10.277336      -279.6605
  15   2.0000     -10.275616      -279.6137
  16   2.0000      -8.079328      -219.8497
  17   2.0000      -8.077785      -219.8077
  18   2.0000      -6.037803      -164.2970
  19   2.0000      -6.036267      -164.2552
  20   2.0000      -6.033654      -164.1841
  21   2.0000      -6.032259      -164.1461
  22   2.0000      -6.030093      -164.0872
  23   2.0000      -6.028572      -164.0458
  24   2.0000      -1.006968       -27.4010
  25   2.0000      -0.984499       -26.7896
  26   2.0000      -0.908260       -24.7150
  27   2.0000      -0.905338       -24.6355
  28   2.0000      -0.874136       -23.7865
  29   2.0000      -0.847579       -23.0638
  30   2.0000      -0.843805       -22.9611
  31   2.0000      -0.815267       -22.1845
  32   2.0000      -0.783855       -21.3298
  33   2.0000      -0.770958       -20.9788
  34   2.0000      -0.712895       -19.3989
  35   2.0000      -0.696974       -18.9656
  36   2.0000      -0.691481       -18.8161
  37   2.0000      -0.657333       -17.8869
  38   2.0000      -0.636513       -17.3204
  39   2.0000      -0.624778       -17.0011
  40   2.0000      -0.600685       -16.3455
  41   2.0000      -0.567436       -15.4407
  42   2.0000      -0.563938       -15.3455
  43   2.0000      -0.550238       -14.9727
  44   2.0000      -0.537368       -14.6225
  45   2.0000      -0.519117       -14.1259
  46   2.0000      -0.513834       -13.9821
  47   2.0000      -0.513105       -13.9623
  48   2.0000      -0.504283       -13.7222
  49   2.0000      -0.499431       -13.5902
  50   2.0000      -0.488328       -13.2881
  51   2.0000      -0.479594       -13.0504
  52   2.0000      -0.470695       -12.8083
  53   2.0000      -0.467038       -12.7088
  54   2.0000      -0.461789       -12.5659
  55   2.0000      -0.450865       -12.2687
  56   2.0000      -0.444025       -12.0825
  57   2.0000      -0.437585       -11.9073
  58   2.0000      -0.432607       -11.7718
  59   2.0000      -0.426104       -11.5949
  60   2.0000      -0.423540       -11.5251
  61   2.0000      -0.416575       -11.3356
  62   2.0000      -0.406626       -11.0648
  63   2.0000      -0.342384        -9.3167
  64   2.0000      -0.327162        -8.9025
  65   2.0000      -0.324728        -8.8363
  66   2.0000      -0.297502        -8.0954
  67   0.0000       0.040262         1.0956
  68   0.0000       0.064268         1.7488
  69   0.0000       0.119938         3.2637
  70   0.0000       0.124388         3.3848
  71   0.0000       0.131925         3.5899

MULLIKEN ATOMIC CHARGES
-----------------------
   0 S :    0.114841
   1 C :   -0.145132
   2 C :   -0.087583
   3 C :    0.051105
   4 C :   -0.165483
   5 H :    0.012006
   6 C :    0.045235
   7 H :    0.044274
   8 H :    0.028407
   9 C :   -0.088547
  10 H :    0.022810
  11 H :    0.033763
  12 C :   -0.036105
  13 H :    0.041865
  14 H :    0.023105
  15 H :    0.030627
  16 S :    0.120616
  17 C :   -0.056862
  18 C :   -0.017555
  19 C :   -0.033635
  20 C :   -0.175619
  21 H :   -0.000041
  22 C :    0.093028
  23 H :    0.011802
  24 H :    0.030297
  25 C :   -0.109953
  26 H :    0.028532
  27 H :    0.047350
  28 C :   -0.040586
  29 H :    0.037481
  30 H :    0.021427
  31 H :    0.024288
  32 H :    0.055394
  33 H :    0.038846
Sum of atomic charges:   -0.0000000

LOEWDIN ATOMIC CHARGES
----------------------
   0 S :    0.402392
   1 C :   -0.206641
   2 C :   -0.070149
   3 C :   -0.054611
   4 C :   -0.199741
   5 H :    0.030554
   6 C :   -0.034616
   7 H :    0.039852
   8 H :    0.034510
   9 C :   -0.047456
  10 H :    0.023994
  11 H :    0.027796
  12 C :   -0.062370
  13 H :    0.025637
  14 H :    0.021534
  15 H :    0.028822
  16 S :    0.427314
  17 C :   -0.188895
  18 C :   -0.067127
  19 C :   -0.041756
  20 C :   -0.207718
  21 H :    0.023195
  22 C :   -0.036648
  23 H :    0.026771
  24 H :    0.032377
  25 C :   -0.040576
  26 H :    0.017894
  27 H :    0.034759
  28 C :   -0.066091
  29 H :    0.024574
  30 H :    0.022897
  31 H :    0.025851
  32 H :    0.031781
  33 H :    0.021892

  Mayer bond orders larger than 0.100000
B(  0-S ,  1-C ) :   1.1398 B(  0-S ,  4-C ) :   1.1396 B(  1-C ,  2-C ) :   1.6075
B(  1-C , 32-H ) :   0.9660 B(  2-C ,  3-C ) :   1.2534 B(  2-C ,  6-C ) :   1.0148
B(  3-C ,  4-C ) :   1.5635 B(  3-C ,  5-H ) :   0.9909 B(  4-C , 20-C ) :   1.0660
B(  6-C ,  7-H ) :   0.9382 B(  6-C ,  8-H ) :   0.9475 B(  6-C ,  9-C ) :   1.0628
B(  9-C , 10-H ) :   0.9556 B(  9-C , 11-H ) :   0.9583 B(  9-C , 12-C ) :   1.0746
B( 12-C , 13-H ) :   0.9788 B( 12-C , 14-H ) :   0.9756 B( 12-C , 15-H ) :   0.9747
B( 16-S , 17-C ) :   1.1632 B( 16-S , 20-C ) :   1.1430 B( 17-C , 18-C ) :   1.6105
B( 17-C , 33-H ) :   0.9700 B( 18-C , 19-C ) :   1.2332 B( 18-C , 21-H ) :   0.9972
B( 19-C , 20-C ) :   1.5820 B( 19-C , 22-C ) :   1.0604 B( 22-C , 23-H ) :   0.9324
B( 22-C , 24-H ) :   0.9306 B( 22-C , 25-C ) :   1.0506 B( 25-C , 26-H ) :   0.9542
B( 25-C , 27-H ) :   0.9599 B( 25-C , 28-C ) :   1.0880 B( 28-C , 29-H ) :   0.9761
B( 28-C , 30-H ) :   0.9727 B( 28-C , 31-H ) :   0.9739

Dispersion correction           -0.013646696
FINAL SINGLE POINT ENERGY     -1339.893450273245

DIPOLE MOMENT
-------------
                                X             Y             Z
Electronic contribution:     10.12300     -12.15881      18.59393
Nuclear contribution   :    -10.52449      12.68175     -19.00796
                        -----------------------------------------
Total Dipole Moment    :     -0.40148       0.52294      -0.41403
                        -----------------------------------------
Magnitude (a.u.)       :      0.77851
Magnitude (Debye)      :      1.97880

Rotational constants in cm-1:     0.017733     0.007975     0.006734
Rotational constants in MHz :   531.630489   239.097180   201.886715

                             ****ORCA TERMINATED NORMALLY****
TOTAL RUN TIME: 0 days 0 hours 0 minutes 21 seconds 53 msec
