                         Program Version 4.2.1 -  RELEASE  -
|  1> ! wB97X-D3 SP def2-SVP
|  2> %pal
|  3> nprocs 24
|  4> end
|  5>
|  6> * xyz 0 1
|  7> S 	 -99.2324 	 38.5229 	 -80.8202
|  8> C 	 -99.197 	 36.7556 	 -80.8497
|  9> C 	 -99.3054 	 36.314 	 -82.1642
| 10> C 	 -99.4528 	 37.3914 	 -83.078
| 11> C 	 -99.543 	 38.6444 	 -82.5101
| 12> H 	 -99.5623 	 37.1946 	 -84.1877
| 13> C 	 -99.3755 	 34.8731 	 -82.649
| 14> H 	 -99.0093 	 34.9012 	 -83.6799
| 15> H 	 -100.442 	 34.5175 	 -82.7855
| 16> C 	 -98.4999 	 33.8194 	 -81.9814
| 17> H 	 -97.4686 	 33.9959 	 -82.1707
| 18> H 	 -98.7529 	 33.7268 	 -80.946
| 19> C 	 -98.7191 	 32.4723 	 -82.5458
| 20> H 	 -99.6736 	 32.0368 	 -82.3819
| 21> H 	 -98.4885 	 32.5713 	 -83.6252
| 22> H 	 -98.0001 	 31.7974 	 -82.2447
| 23> S 	 -101.697 	 40.2954 	 -82.826
| 24> C 	 -101.751 	 41.5338 	 -84.0678
| 25> C 	 -100.581 	 41.5287 	 -84.8357
| 26> C 	 -99.6735 	 40.4865 	 -84.4186
| 27> C 	 -100.01 	 39.827 	 -83.2447
| 28> H 	 -100.514 	 42.1399 	 -85.6769
| 29> C 	 -98.5131 	 40.1177 	 -85.2974
| 30> H 	 -97.6853 	 39.7184 	 -84.6917
| 31> H 	 -98.0949 	 41.0819 	 -85.7302
| 32> C 	 -98.9362 	 39.1908 	 -86.4399
| 33> H 	 -99.8433 	 39.6671 	 -86.8059
| 34> H 	 -99.1567 	 38.1989 	 -85.9951
| 35> C 	 -97.9709 	 39.0591 	 -87.5606
| 36> H 	 -97.5837 	 40.0528 	 -87.855
| 37> H 	 -98.4485 	 38.5175 	 -88.3638
| 38> H 	 -97.1139 	 38.4643 	 -87.1948
| 39> H 	 -99.1103 	 36.0868 	 -80.0259
| 40> H 	 -102.547 	 42.22 	 -84.3196
| 41> *
| 42>
| 43>                          ****END OF INPUT****

CARTESIAN COORDINATES (ANGSTROEM)
---------------------------------
  S    -99.232400   38.522900  -80.820200
  C    -99.197000   36.755600  -80.849700
  C    -99.305400   36.314000  -82.164200
  C    -99.452800   37.391400  -83.078000
  C    -99.543000   38.644400  -82.510100
  H    -99.562300   37.194600  -84.187700
  C    -99.375500   34.873100  -82.649000
  H    -99.009300   34.901200  -83.679900
  H    -100.442000   34.517500  -82.785500
  C    -98.499900   33.819400  -81.981400
  H    -97.468600   33.995900  -82.170700
  H    -98.752900   33.726800  -80.946000
  C    -98.719100   32.472300  -82.545800
  H    -99.673600   32.036800  -82.381900
  H    -98.488500   32.571300  -83.625200
  H    -98.000100   31.797400  -82.244700
  S    -101.697000   40.295400  -82.826000
  C    -101.751000   41.533800  -84.067800
  C    -100.581000   41.528700  -84.835700
  C    -99.673500   40.486500  -84.418600
  C    -100.010000   39.827000  -83.244700
  H    -100.514000   42.139900  -85.676900
  C    -98.513100   40.117700  -85.297400
  H    -97.685300   39.718400  -84.691700
  H    -98.094900   41.081900  -85.730200
  C    -98.936200   39.190800  -86.439900
  H    -99.843300   39.667100  -86.805900
  H    -99.156700   38.198900  -85.995100
  C    -97.970900   39.059100  -87.560600
  H    -97.583700   40.052800  -87.855000
  H    -98.448500   38.517500  -88.363800
  H    -97.113900   38.464300  -87.194800
  H    -99.110300   36.086800  -80.025900
  H    -102.547000   42.220000  -84.319600

 Total Charge           Charge          ....    0
 Multiplicity           Mult            ....    1
 Number of Electrons    NEL             ....  134
 Basis Dimension        Dim             ....  322

ORBITAL ENERGIES
----------------

  NO   OCC          E(Eh)            E(eV)
   0   2.0000     -88.969659     -2420.9875
   1   2.0000     -88.962516     -2420.7931
   2   2.0000     -10.330835      -281.1163
   3   2.0000     -10.330483      -281.1067
   4   2.0000     -10.320778      -280.8426
   5   2.0000     -10.316112      -280.7157
   6   2.0000     -10.305934      -280.4387
   7   2.0000     -10.301304      -280.3127
   8   2.0000     -10.296737      -280.1884
   9   2.0000     -10.296228      -280.1746
  10   2.0000     -10.292228      -280.0658
  11   2.0000     -10.291652      -280.0501
  12   2.0000     -10.284478      -279.8549
  13   2.0000     -10.279429      -279.7175
  14   2.0000     -10.278464      -279.6912
  15   2.0000     -10.267630      -279.3964
  16   2.0000      -8.084189      -219.9820
  17   2.0000      -8.076466      -219.7718
  18   2.0000      -6.042744      -164.4314
  19   2.0000      -6.038658      -164.3202
  20   2.0000      -6.035124      -164.2241
  21   2.0000      -6.034957      -164.2195
  22   2.0000      -6.031016      -164.1123
  23   2.0000      -6.027160      -164.0074
  24   2.0000      -1.005522       -27.3616
  25   2.0000      -0.981034       -26.6953
  26   2.0000      -0.921653       -25.0795
  27   2.0000      -0.913641       -24.8614
  28   2.0000      -0.872781       -23.7496
  29   2.0000      -0.854472       -23.2514
  30   2.0000      -0.849986       -23.1293
  31   2.0000      -0.813107       -22.1258
  32   2.0000      -0.782882       -21.3033
  33   2.0000      -0.770823       -20.9752
  34   2.0000      -0.710279       -19.3277
  35   2.0000      -0.697828       -18.9889
  36   2.0000      -0.688640       -18.7388
  37   2.0000      -0.665036       -18.0965
  38   2.0000      -0.638683       -17.3794
  39   2.0000      -0.616145       -16.7662
  40   2.0000      -0.592056       -16.1107
  41   2.0000      -0.586540       -15.9606
  42   2.0000      -0.575338       -15.6557
  43   2.0000      -0.569473       -15.4962
  44   2.0000      -0.529686       -14.4135
  45   2.0000      -0.525209       -14.2917
  46   2.0000      -0.524333       -14.2678
  47   2.0000      -0.518008       -14.0957
  48   2.0000      -0.505942       -13.7674
  49   2.0000      -0.502800       -13.6819
  50   2.0000      -0.500435       -13.6175
  51   2.0000      -0.475526       -12.9397
  52   2.0000      -0.468439       -12.7469
  53   2.0000      -0.462388       -12.5822
  54   2.0000      -0.455666       -12.3993
  55   2.0000      -0.448558       -12.2059
  56   2.0000      -0.446137       -12.1400
  57   2.0000      -0.436961       -11.8903
  58   2.0000      -0.430887       -11.7250
  59   2.0000      -0.426570       -11.6076
  60   2.0000      -0.418705       -11.3935
  61   2.0000      -0.415623       -11.3097
  62   2.0000      -0.413963       -11.2645
  63   2.0000      -0.340252        -9.2587
  64   2.0000      -0.330078        -8.9819
  65   2.0000      -0.324217        -8.8224
  66   2.0000      -0.300846        -8.1864
  67   0.0000       0.032633         0.8880
  68   0.0000       0.061109         1.6629
  69   0.0000       0.113051         3.0763
  70   0.0000       0.117961         3.2099
  71   0.0000       0.128787         3.5045

MULLIKEN ATOMIC CHARGES
-----------------------
   0 S :    0.125723
   1 C :   -0.113637
   2 C :   -0.071248
   3 C :    0.019292
   4 C :   -0.153184
   5 H :    0.027489
   6 C :    0.023166
   7 H :    0.011612
   8 H :    0.052601
   9 C :   -0.048802
  10 H :    0.028696
  11 H :    0.022970
  12 C :   -0.017794
  13 H :    0.027842
  14 H :    0.012508
  15 H :    0.011787
  16 S :    0.092488
  17 C :   -0.080992
  18 C :   -0.016745
  19 C :   -0.046024
  20 C :   -0.137201
  21 H :   -0.000934
  22 C :    0.026227
  23 H :    0.030843
  24 H :    0.021035
  25 C :   -0.074760
  26 H :    0.020507
  27 H :    0.026941
  28 C :   -0.011608
  29 H :    0.029035
  30 H :    0.039162
  31 H :    0.028547
  32 H :    0.037376
  33 H :    0.057083
Sum of atomic charges:    0.0000000

LOEWDIN ATOMIC CHARGES
----------------------
   0 S :    0.421095
   1 C :   -0.188053
   2 C :   -0.067252
   3 C :   -0.065150
   4 C :   -0.217847
   5 H :    0.036849
   6 C :   -0.037444
   7 H :    0.028919
   8 H :    0.041075
   9 C :   -0.037999
  10 H :    0.027147
  11 H :    0.018342
  12 C :   -0.055009
  13 H :    0.019501
  14 H :    0.026880
  15 H :    0.017334
  16 S :    0.387772
  17 C :   -0.176492
  18 C :   -0.069144
  19 C :   -0.051092
  20 C :   -0.183313
  21 H :    0.021229
  22 C :   -0.037844
  23 H :    0.028798
  24 H :    0.031407
  25 C :   -0.042749
  26 H :    0.022941
  27 H :    0.023912
  28 C :   -0.062426
  29 H :    0.026287
  30 H :    0.027894
  31 H :    0.027965
  32 H :    0.024554
  33 H :    0.031913

  Mayer bond orders larger than 0.100000
B(  0-S ,  1-C ) :   1.1384 B(  0-S ,  4-C ) :   1.1620 B(  1-C ,  2-C ) :   1.5896
B(  1-C , 32-H ) :   0.9749 B(  2-C ,  3-C ) :   1.2868 B(  2-C ,  6-C ) :   1.0094
B(  3-C ,  4-C ) :   1.5457 B(  3-C ,  5-H ) :   0.9766 B(  4-C , 20-C ) :   1.0162
B(  6-C ,  7-H ) :   0.9378 B(  6-C ,  8-H ) :   0.9395 B(  6-C ,  9-C ) :   1.0756
B(  9-C , 10-H ) :   0.9560 B(  9-C , 11-H ) :   0.9484 B(  9-C , 12-C ) :   1.1037
B( 12-C , 13-H ) :   0.9736 B( 12-C , 14-H ) :   0.9680 B( 12-C , 15-H ) :   0.9675
B( 16-S , 17-C ) :   1.1625 B( 16-S , 20-C ) :   1.1176 B( 17-C , 18-C ) :   1.6120
B( 17-C , 33-H ) :   0.9648 B( 18-C , 19-C ) :   1.2253 B( 18-C , 21-H ) :   0.9971
B( 19-C , 20-C ) :   1.6237 B( 19-C , 22-C ) :   1.0613 B( 22-C , 23-H ) :   0.9329
B( 22-C , 24-H ) :   0.9344 B( 22-C , 25-C ) :   1.0587 B( 25-C , 26-H ) :   0.9532
B( 25-C , 27-H ) :   0.9431 B( 25-C , 28-C ) :   1.0973 B( 28-C , 29-H ) :   0.9712
B( 28-C , 30-H ) :   0.9708 B( 28-C , 31-H ) :   0.9704

Dispersion correction           -0.013817791
FINAL SINGLE POINT ENERGY     -1339.871420780787

DIPOLE MOMENT
-------------
                                X             Y             Z
Electronic contribution:    -11.18003      20.55678      18.22191
Nuclear contribution   :     11.29860     -21.05890     -18.83864
                        -----------------------------------------
Total Dipole Moment    :      0.11857      -0.50212      -0.61672
                        -----------------------------------------
Magnitude (a.u.)       :      0.80407
Magnitude (Debye)      :      2.04379

Rotational constants in cm-1:     0.018419     0.008082     0.006258
Rotational constants in MHz :   552.175254   242.282686   187.612922

                             ****ORCA TERMINATED NORMALLY****
TOTAL RUN TIME: 0 days 0 hours 0 minutes 21 seconds 261 msec
