                         Program Version 4.2.1 -  RELEASE  -
|  1> ! wB97X-D3 SP def2-SVP
|  2> %pal
|  3> nprocs 24
|  4> end
|  5>
|  6> * xyz 0 1
|  7> S 	 -106.867 	 2.03897 	 -114.617
|  8> C 	 -108.341 	 2.93551 	 -114.931
|  9> C 	 -109.493 	 2.14323 	 -114.875
| 10> C 	 -109.04 	 0.74387 	 -114.968
| 11> C 	 -107.702 	 0.530476 	 -114.681
| 12> H 	 -109.749 	 -0.0667823 	 -115.016
| 13> C 	 -110.903 	 2.63891 	 -115.105
| 14> H 	 -111.227 	 2.22693 	 -116.095
| 15> H 	 -110.931 	 3.71459 	 -115.327
| 16> C 	 -111.858 	 2.43721 	 -113.957
| 17> H 	 -111.733 	 1.43471 	 -113.585
| 18> H 	 -111.723 	 3.15571 	 -113.153
| 19> C 	 -113.296 	 2.5839 	 -114.463
| 20> H 	 -113.402 	 3.64406 	 -114.842
| 21> H 	 -113.543 	 1.81808 	 -115.163
| 22> H 	 -113.997 	 2.37846 	 -113.647
| 23> S 	 -105.468 	 -0.816165 	 -115.695
| 24> C 	 -105.371 	 -2.51289 	 -115.532
| 25> C 	 -106.435 	 -3.02882 	 -114.784
| 26> C 	 -107.383 	 -2.00919 	 -114.398
| 27> C 	 -106.959 	 -0.739213 	 -114.704
| 28> H 	 -106.589 	 -4.10609 	 -114.779
| 29> C 	 -108.741 	 -2.30118 	 -113.592
| 30> H 	 -109.376 	 -2.65093 	 -114.315
| 31> H 	 -109.135 	 -1.3755 	 -113.206
| 32> C 	 -108.529 	 -3.46024 	 -112.564
| 33> H 	 -108.597 	 -4.42203 	 -113.148
| 34> H 	 -109.329 	 -3.51982 	 -111.864
| 35> C 	 -107.199 	 -3.44259 	 -111.782
| 36> H 	 -107.234 	 -2.73717 	 -110.938
| 37> H 	 -106.293 	 -3.14134 	 -112.299
| 38> H 	 -106.991 	 -4.49228 	 -111.322
| 39> H 	 -108.378 	 4.04421 	 -115.016
| 40> H 	 -104.462 	 -3.00309 	 -115.865
| 41> *
| 42>
| 43>                          ****END OF INPUT****

CARTESIAN COORDINATES (ANGSTROEM)
---------------------------------
  S    -106.867000    2.038970  -114.617000
  C    -108.341000    2.935510  -114.931000
  C    -109.493000    2.143230  -114.875000
  C    -109.040000    0.743870  -114.968000
  C    -107.702000    0.530476  -114.681000
  H    -109.749000   -0.066782  -115.016000
  C    -110.903000    2.638910  -115.105000
  H    -111.227000    2.226930  -116.095000
  H    -110.931000    3.714590  -115.327000
  C    -111.858000    2.437210  -113.957000
  H    -111.733000    1.434710  -113.585000
  H    -111.723000    3.155710  -113.153000
  C    -113.296000    2.583900  -114.463000
  H    -113.402000    3.644060  -114.842000
  H    -113.543000    1.818080  -115.163000
  H    -113.997000    2.378460  -113.647000
  S    -105.468000   -0.816165  -115.695000
  C    -105.371000   -2.512890  -115.532000
  C    -106.435000   -3.028820  -114.784000
  C    -107.383000   -2.009190  -114.398000
  C    -106.959000   -0.739213  -114.704000
  H    -106.589000   -4.106090  -114.779000
  C    -108.741000   -2.301180  -113.592000
  H    -109.376000   -2.650930  -114.315000
  H    -109.135000   -1.375500  -113.206000
  C    -108.529000   -3.460240  -112.564000
  H    -108.597000   -4.422030  -113.148000
  H    -109.329000   -3.519820  -111.864000
  C    -107.199000   -3.442590  -111.782000
  H    -107.234000   -2.737170  -110.938000
  H    -106.293000   -3.141340  -112.299000
  H    -106.991000   -4.492280  -111.322000
  H    -108.378000    4.044210  -115.016000
  H    -104.462000   -3.003090  -115.865000

 Total Charge           Charge          ....    0
 Multiplicity           Mult            ....    1
 Number of Electrons    NEL             ....  134
 Basis Dimension        Dim             ....  322

ORBITAL ENERGIES
----------------

  NO   OCC          E(Eh)            E(eV)
   0   2.0000     -88.964983     -2420.8603
   1   2.0000     -88.962080     -2420.7813
   2   2.0000     -10.329239      -281.0729
   3   2.0000     -10.326824      -281.0072
   4   2.0000     -10.319494      -280.8077
   5   2.0000     -10.318036      -280.7680
   6   2.0000     -10.309178      -280.5270
   7   2.0000     -10.306605      -280.4570
   8   2.0000     -10.299398      -280.2609
   9   2.0000     -10.297150      -280.1997
  10   2.0000     -10.296435      -280.1802
  11   2.0000     -10.293984      -280.1135
  12   2.0000     -10.292304      -280.0678
  13   2.0000     -10.284571      -279.8574
  14   2.0000     -10.281181      -279.7652
  15   2.0000     -10.279304      -279.7141
  16   2.0000      -8.080201      -219.8735
  17   2.0000      -8.077350      -219.7959
  18   2.0000      -6.038745      -164.3226
  19   2.0000      -6.035782      -164.2420
  20   2.0000      -6.034681      -164.2120
  21   2.0000      -6.031753      -164.1324
  22   2.0000      -6.030864      -164.1081
  23   2.0000      -6.028174      -164.0350
  24   2.0000      -1.004788       -27.3417
  25   2.0000      -0.982023       -26.7222
  26   2.0000      -0.918136       -24.9838
  27   2.0000      -0.902298       -24.5528
  28   2.0000      -0.868661       -23.6375
  29   2.0000      -0.848879       -23.0992
  30   2.0000      -0.835794       -22.7431
  31   2.0000      -0.809875       -22.0378
  32   2.0000      -0.787532       -21.4298
  33   2.0000      -0.773056       -21.0359
  34   2.0000      -0.704600       -19.1731
  35   2.0000      -0.696551       -18.9541
  36   2.0000      -0.689954       -18.7746
  37   2.0000      -0.658109       -17.9080
  38   2.0000      -0.638446       -17.3730
  39   2.0000      -0.621891       -16.9225
  40   2.0000      -0.594837       -16.1863
  41   2.0000      -0.570591       -15.5266
  42   2.0000      -0.564264       -15.3544
  43   2.0000      -0.554012       -15.0754
  44   2.0000      -0.537621       -14.6294
  45   2.0000      -0.522565       -14.2197
  46   2.0000      -0.520185       -14.1549
  47   2.0000      -0.507657       -13.8141
  48   2.0000      -0.502105       -13.6630
  49   2.0000      -0.496199       -13.5023
  50   2.0000      -0.489693       -13.3252
  51   2.0000      -0.476100       -12.9553
  52   2.0000      -0.474443       -12.9102
  53   2.0000      -0.461196       -12.5498
  54   2.0000      -0.459375       -12.5002
  55   2.0000      -0.446987       -12.1631
  56   2.0000      -0.443278       -12.0622
  57   2.0000      -0.439085       -11.9481
  58   2.0000      -0.431909       -11.7528
  59   2.0000      -0.425634       -11.5821
  60   2.0000      -0.416787       -11.3414
  61   2.0000      -0.415808       -11.3147
  62   2.0000      -0.411465       -11.1965
  63   2.0000      -0.349671        -9.5150
  64   2.0000      -0.330356        -8.9894
  65   2.0000      -0.327966        -8.9244
  66   2.0000      -0.290820        -7.9136
  67   0.0000       0.029216         0.7950
  68   0.0000       0.077135         2.0990
  69   0.0000       0.108318         2.9475
  70   0.0000       0.112078         3.0498
  71   0.0000       0.127960         3.4820

MULLIKEN ATOMIC CHARGES
-----------------------
   0 S :    0.105818
   1 C :   -0.132679
   2 C :   -0.081907
   3 C :    0.019945
   4 C :   -0.139523
   5 H :    0.007492
   6 C :    0.018706
   7 H :    0.043463
   8 H :    0.013016
   9 C :   -0.055314
  10 H :    0.021809
  11 H :    0.037708
  12 C :   -0.058002
  13 H :    0.042402
  14 H :    0.027606
  15 H :    0.031674
  16 S :    0.093107
  17 C :   -0.103779
  18 C :   -0.034099
  19 C :   -0.116291
  20 C :   -0.114008
  21 H :    0.033190
  22 C :    0.138710
  23 H :    0.018427
  24 H :    0.035117
  25 C :   -0.077410
  26 H :    0.030537
  27 H :    0.026715
  28 C :   -0.087417
  29 H :    0.030995
  30 H :    0.052154
  31 H :    0.040292
  32 H :    0.061952
  33 H :    0.069596
Sum of atomic charges:    0.0000000

LOEWDIN ATOMIC CHARGES
----------------------
   0 S :    0.408560
   1 C :   -0.197525
   2 C :   -0.061144
   3 C :   -0.061115
   4 C :   -0.201554
   5 H :    0.023251
   6 C :   -0.039999
   7 H :    0.039692
   8 H :    0.030516
   9 C :   -0.038571
  10 H :    0.018903
  11 H :    0.027828
  12 C :   -0.064025
  13 H :    0.031866
  14 H :    0.019795
  15 H :    0.026187
  16 S :    0.401200
  17 C :   -0.190924
  18 C :   -0.080181
  19 C :   -0.046061
  20 C :   -0.195069
  21 H :    0.034198
  22 C :   -0.013348
  23 H :    0.021181
  24 H :    0.026689
  25 C :   -0.041963
  26 H :    0.027485
  27 H :    0.022608
  28 C :   -0.078062
  29 H :    0.024984
  30 H :    0.026336
  31 H :    0.035445
  32 H :    0.032727
  33 H :    0.030088

  Mayer bond orders larger than 0.100000
B(  0-S ,  1-C ) :   1.1466 B(  0-S ,  4-C ) :   1.1431 B(  1-C ,  2-C ) :   1.6150
B(  1-C , 32-H ) :   0.9595 B(  2-C ,  3-C ) :   1.2207 B(  2-C ,  6-C ) :   1.0337
B(  3-C ,  4-C ) :   1.5879 B(  3-C ,  5-H ) :   0.9806 B(  4-C , 20-C ) :   1.0342
B(  6-C ,  7-H ) :   0.9504 B(  6-C ,  8-H ) :   0.9392 B(  6-C ,  9-C ) :   1.0502
B(  9-C , 10-H ) :   0.9603 B(  9-C , 11-H ) :   0.9529 B(  9-C , 12-C ) :   1.0870
B( 12-C , 13-H ) :   0.9725 B( 12-C , 14-H ) :   0.9771 B( 12-C , 15-H ) :   0.9731
B( 16-S , 17-C ) :   1.1841 B( 16-S , 20-C ) :   1.1245 B( 17-C , 18-C ) :   1.5837
B( 17-C , 33-H ) :   0.9654 B( 18-C , 19-C ) :   1.2375 B( 18-C , 21-H ) :   0.9883
B( 19-C , 20-C ) :   1.6373 B( 19-C , 22-C ) :   1.0076 B( 22-C , 23-H ) :   0.9284
B( 22-C , 24-H ) :   0.9422 B( 22-C , 25-C ) :   1.0634 B( 25-C , 26-H ) :   0.9550
B( 25-C , 27-H ) :   0.9574 B( 25-C , 28-C ) :   1.0750 B( 28-C , 29-H ) :   0.9750
B( 28-C , 30-H ) :   0.9692 B( 28-C , 31-H ) :   0.9748

Dispersion correction           -0.013933714
FINAL SINGLE POINT ENERGY     -1339.871495798662

DIPOLE MOMENT
-------------
                                X             Y             Z
Electronic contribution:     24.82832       5.79421     -10.61636
Nuclear contribution   :    -25.50797      -6.03876      10.65478
                        -----------------------------------------
Total Dipole Moment    :     -0.67965      -0.24454       0.03843
                        -----------------------------------------
Magnitude (a.u.)       :      0.72332
Magnitude (Debye)      :      1.83854

Rotational constants in cm-1:     0.019464     0.008116     0.006277
Rotational constants in MHz :   583.515227   243.319965   188.183870

                             ****ORCA TERMINATED NORMALLY****
TOTAL RUN TIME: 0 days 0 hours 0 minutes 21 seconds 295 msec
