                         Program Version 4.2.1 -  RELEASE  -
|  1> ! wB97X-D3 SP def2-SVP
|  2> %pal
|  3> nprocs 24
|  4> end
|  5>
|  6> * xyz 0 1
|  7> S 	 -129.131 	 2.76898 	 8.47411
|  8> C 	 -128.009 	 2.54456 	 7.0998
|  9> C 	 -126.658 	 2.53342 	 7.48308
| 10> C 	 -126.571 	 2.53263 	 8.9142
| 11> C 	 -127.799 	 2.65173 	 9.55613
| 12> H 	 -125.665 	 2.50783 	 9.48537
| 13> C 	 -125.457 	 2.57873 	 6.53969
| 14> H 	 -124.778 	 3.28684 	 6.90856
| 15> H 	 -125.78 	 3.04719 	 5.61084
| 16> C 	 -124.883 	 1.15773 	 6.30712
| 17> H 	 -124.558 	 0.841205 	 7.268
| 18> H 	 -125.61 	 0.49349 	 5.81219
| 19> C 	 -123.664 	 1.2486 	 5.41468
| 20> H 	 -123.38 	 0.247887 	 5.01453
| 21> H 	 -124.034 	 1.81272 	 4.57889
| 22> H 	 -122.815 	 1.6924 	 5.77874
| 23> S 	 -128.442 	 4.35641 	 11.4119
| 24> C 	 -128.396 	 4.01713 	 13.1291
| 25> C 	 -127.855 	 2.7842 	 13.3721
| 26> C 	 -127.631 	 2.11441 	 12.1371
| 27> C 	 -127.982 	 2.7934 	 11.0092
| 28> H 	 -127.716 	 2.37075 	 14.3228
| 29> C 	 -126.964 	 0.756751 	 12.009
| 30> H 	 -126.321 	 0.590712 	 12.9031
| 31> H 	 -126.176 	 0.863323 	 11.3334
| 32> C 	 -127.938 	 -0.376954 	 11.7071
| 33> H 	 -127.51 	 -1.38699 	 11.8222
| 34> H 	 -128.311 	 -0.293767 	 10.7264
| 35> C 	 -129.186 	 -0.217711 	 12.602
| 36> H 	 -129.105 	 -0.0283798 	 13.6192
| 37> H 	 -129.743 	 -1.09311 	 12.3436
| 38> H 	 -129.704 	 0.599416 	 12.1429
| 39> H 	 -128.413 	 2.35859 	 6.09534
| 40> H 	 -128.728 	 4.66941 	 13.933
| 41> *
| 42>
| 43>                          ****END OF INPUT****

CARTESIAN COORDINATES (ANGSTROEM)
---------------------------------
  S    -129.131000    2.768980    8.474110
  C    -128.009000    2.544560    7.099800
  C    -126.658000    2.533420    7.483080
  C    -126.571000    2.532630    8.914200
  C    -127.799000    2.651730    9.556130
  H    -125.665000    2.507830    9.485370
  C    -125.457000    2.578730    6.539690
  H    -124.778000    3.286840    6.908560
  H    -125.780000    3.047190    5.610840
  C    -124.883000    1.157730    6.307120
  H    -124.558000    0.841205    7.268000
  H    -125.610000    0.493490    5.812190
  C    -123.664000    1.248600    5.414680
  H    -123.380000    0.247887    5.014530
  H    -124.034000    1.812720    4.578890
  H    -122.815000    1.692400    5.778740
  S    -128.442000    4.356410   11.411900
  C    -128.396000    4.017130   13.129100
  C    -127.855000    2.784200   13.372100
  C    -127.631000    2.114410   12.137100
  C    -127.982000    2.793400   11.009200
  H    -127.716000    2.370750   14.322800
  C    -126.964000    0.756751   12.009000
  H    -126.321000    0.590712   12.903100
  H    -126.176000    0.863323   11.333400
  C    -127.938000   -0.376954   11.707100
  H    -127.510000   -1.386990   11.822200
  H    -128.311000   -0.293767   10.726400
  C    -129.186000   -0.217711   12.602000
  H    -129.105000   -0.028380   13.619200
  H    -129.743000   -1.093110   12.343600
  H    -129.704000    0.599416   12.142900
  H    -128.413000    2.358590    6.095340
  H    -128.728000    4.669410   13.933000

 Total Charge           Charge          ....    0
 Multiplicity           Mult            ....    1
 Number of Electrons    NEL             ....  134
 Basis Dimension        Dim             ....  322

ORBITAL ENERGIES
----------------

  NO   OCC          E(Eh)            E(eV)
   0   2.0000     -88.970269     -2421.0041
   1   2.0000     -88.959347     -2420.7069
   2   2.0000     -10.329448      -281.0786
   3   2.0000     -10.320109      -280.8245
   4   2.0000     -10.314421      -280.6697
   5   2.0000     -10.313073      -280.6330
   6   2.0000     -10.307189      -280.4729
   7   2.0000     -10.294720      -280.1336
   8   2.0000     -10.294244      -280.1206
   9   2.0000     -10.292442      -280.0716
  10   2.0000     -10.288001      -279.9507
  11   2.0000     -10.287757      -279.9441
  12   2.0000     -10.278615      -279.6953
  13   2.0000     -10.276968      -279.6505
  14   2.0000     -10.270418      -279.4723
  15   2.0000     -10.257394      -279.1179
  16   2.0000      -8.084822      -219.9992
  17   2.0000      -8.075743      -219.7521
  18   2.0000      -6.043214      -164.4442
  19   2.0000      -6.039393      -164.3402
  20   2.0000      -6.035685      -164.2393
  21   2.0000      -6.034179      -164.1984
  22   2.0000      -6.029886      -164.0816
  23   2.0000      -6.026581      -163.9916
  24   2.0000      -1.015430       -27.6312
  25   2.0000      -0.985481       -26.8163
  26   2.0000      -0.917746       -24.9731
  27   2.0000      -0.908508       -24.7218
  28   2.0000      -0.873743       -23.7758
  29   2.0000      -0.852052       -23.1855
  30   2.0000      -0.842859       -22.9354
  31   2.0000      -0.815057       -22.1788
  32   2.0000      -0.784156       -21.3380
  33   2.0000      -0.771503       -20.9937
  34   2.0000      -0.707316       -19.2470
  35   2.0000      -0.701210       -19.0809
  36   2.0000      -0.687154       -18.6984
  37   2.0000      -0.670509       -18.2455
  38   2.0000      -0.644927       -17.5494
  39   2.0000      -0.621253       -16.9052
  40   2.0000      -0.591824       -16.1043
  41   2.0000      -0.578687       -15.7469
  42   2.0000      -0.568002       -15.4561
  43   2.0000      -0.553462       -15.0605
  44   2.0000      -0.547450       -14.8969
  45   2.0000      -0.528595       -14.3838
  46   2.0000      -0.524771       -14.2797
  47   2.0000      -0.512273       -13.9397
  48   2.0000      -0.503348       -13.6968
  49   2.0000      -0.499537       -13.5931
  50   2.0000      -0.485333       -13.2066
  51   2.0000      -0.478913       -13.0319
  52   2.0000      -0.468823       -12.7573
  53   2.0000      -0.465196       -12.6586
  54   2.0000      -0.461845       -12.5674
  55   2.0000      -0.452894       -12.3239
  56   2.0000      -0.438845       -11.9416
  57   2.0000      -0.435655       -11.8548
  58   2.0000      -0.431946       -11.7538
  59   2.0000      -0.427219       -11.6252
  60   2.0000      -0.424496       -11.5511
  61   2.0000      -0.411958       -11.2099
  62   2.0000      -0.407316       -11.0836
  63   2.0000      -0.344104        -9.3635
  64   2.0000      -0.333837        -9.0842
  65   2.0000      -0.322551        -8.7770
  66   2.0000      -0.297851        -8.1049
  67   0.0000       0.038722         1.0537
  68   0.0000       0.065415         1.7800
  69   0.0000       0.108824         2.9613
  70   0.0000       0.120482         3.2785
  71   0.0000       0.131281         3.5723

MULLIKEN ATOMIC CHARGES
-----------------------
   0 S :    0.122857
   1 C :   -0.143524
   2 C :   -0.084558
   3 C :    0.054509
   4 C :   -0.168216
   5 H :    0.008765
   6 C :    0.074802
   7 H :    0.019269
   8 H :    0.015067
   9 C :   -0.057781
  10 H :    0.020780
  11 H :    0.041971
  12 C :   -0.003658
  13 H :    0.031254
  14 H :    0.011600
  15 H :    0.016773
  16 S :    0.107470
  17 C :   -0.088356
  18 C :   -0.004486
  19 C :   -0.122046
  20 C :   -0.136060
  21 H :   -0.001783
  22 C :    0.116531
  23 H :    0.007989
  24 H :   -0.008088
  25 C :   -0.053255
  26 H :    0.031246
  27 H :    0.024232
  28 C :   -0.019460
  29 H :    0.020881
  30 H :    0.021901
  31 H :    0.031373
  32 H :    0.057270
  33 H :    0.054730
Sum of atomic charges:    0.0000000

LOEWDIN ATOMIC CHARGES
----------------------
   0 S :    0.409186
   1 C :   -0.191742
   2 C :   -0.053307
   3 C :   -0.058914
   4 C :   -0.210707
   5 H :    0.027837
   6 C :   -0.025550
   7 H :    0.026325
   8 H :    0.028640
   9 C :   -0.028133
  10 H :    0.018391
  11 H :    0.032675
  12 C :   -0.058568
  13 H :    0.029884
  14 H :    0.022080
  15 H :    0.011283
  16 S :    0.438732
  17 C :   -0.184342
  18 C :   -0.063525
  19 C :   -0.062387
  20 C :   -0.224337
  21 H :    0.024530
  22 C :   -0.034912
  23 H :    0.030744
  24 H :    0.016163
  25 C :   -0.028456
  26 H :    0.022800
  27 H :    0.021214
  28 C :   -0.056342
  29 H :    0.011575
  30 H :    0.024324
  31 H :    0.026784
  32 H :    0.027801
  33 H :    0.030252

  Mayer bond orders larger than 0.100000
B(  0-S ,  1-C ) :   1.1372 B(  0-S ,  4-C ) :   1.1677 B(  1-C ,  2-C ) :   1.6045
B(  1-C ,  4-C ) :   0.1038 B(  1-C , 32-H ) :   0.9677 B(  2-C ,  3-C ) :   1.2414
B(  2-C ,  6-C ) :   1.0182 B(  3-C ,  4-C ) :   1.5761 B(  3-C ,  5-H ) :   0.9933
B(  4-C , 20-C ) :   0.9785 B(  6-C ,  7-H ) :   0.9419 B(  6-C ,  8-H ) :   0.9369
B(  6-C ,  9-C ) :   1.0604 B(  9-C , 10-H ) :   0.9585 B(  9-C , 11-H ) :   0.9568
B(  9-C , 12-C ) :   1.0862 B( 12-C , 13-H ) :   0.9733 B( 12-C , 14-H ) :   0.9705
B( 12-C , 15-H ) :   0.9764 B( 16-S , 17-C ) :   1.1669 B( 16-S , 20-C ) :   1.1692
B( 17-C , 18-C ) :   1.5867 B( 17-C , 33-H ) :   0.9678 B( 18-C , 19-C ) :   1.2513
B( 18-C , 21-H ) :   1.0058 B( 19-C , 20-C ) :   1.6171 B( 19-C , 22-C ) :   1.0300
B( 22-C , 23-H ) :   0.9322 B( 22-C , 24-H ) :   0.9341 B( 22-C , 25-C ) :   1.0638
B( 25-C , 26-H ) :   0.9632 B( 25-C , 27-H ) :   0.9554 B( 25-C , 28-C ) :   1.0759
B( 28-C , 29-H ) :   0.9823 B( 28-C , 30-H ) :   0.9720 B( 28-C , 31-H ) :   0.9646

Dispersion correction           -0.014905699
FINAL SINGLE POINT ENERGY     -1339.860325087554

DIPOLE MOMENT
-------------
                                X             Y             Z
Electronic contribution:    -14.73029      17.54447       6.36774
Nuclear contribution   :     15.26474     -17.79460      -6.52206
                        -----------------------------------------
Total Dipole Moment    :      0.53445      -0.25013      -0.15432
                        -----------------------------------------
Magnitude (a.u.)       :      0.60993
Magnitude (Debye)      :      1.55032

Rotational constants in cm-1:     0.021820     0.007876     0.007052
Rotational constants in MHz :   654.136211   236.108678   211.411956

                             ****ORCA TERMINATED NORMALLY****
TOTAL RUN TIME: 0 days 0 hours 0 minutes 22 seconds 311 msec
