                         Program Version 4.2.1 -  RELEASE  -
|  1> ! wB97X-D3 SP def2-SVP
|  2> %pal
|  3> nprocs 24
|  4> end
|  5>
|  6> * xyz 0 1
|  7> S 	 -106.938 	 2.61046 	 -113.014
|  8> C 	 -108.401 	 2.76489 	 -112.141
|  9> C 	 -109.316 	 1.75227 	 -112.252
| 10> C 	 -108.679 	 0.677379 	 -112.901
| 11> C 	 -107.395 	 0.963628 	 -113.418
| 12> H 	 -109.018 	 -0.328456 	 -113.144
| 13> C 	 -110.694 	 1.68899 	 -111.641
| 14> H 	 -110.828 	 2.68904 	 -111.152
| 15> H 	 -110.464 	 0.95423 	 -110.864
| 16> C 	 -111.87 	 1.24854 	 -112.43
| 17> H 	 -112.656 	 1.48939 	 -111.751
| 18> H 	 -112.085 	 1.90709 	 -113.28
| 19> C 	 -111.776 	 -0.253736 	 -112.783
| 20> H 	 -111.186 	 -0.393077 	 -113.699
| 21> H 	 -111.221 	 -0.81022 	 -112.005
| 22> H 	 -112.819 	 -0.699626 	 -112.837
| 23> S 	 -106.064 	 0.708362 	 -115.808
| 24> C 	 -104.991 	 -0.60026 	 -115.996
| 25> C 	 -105.044 	 -1.51545 	 -114.914
| 26> C 	 -105.913 	 -1.12957 	 -113.884
| 27> C 	 -106.468 	 0.113576 	 -114.191
| 28> H 	 -104.361 	 -2.41721 	 -114.882
| 29> C 	 -106.073 	 -1.78916 	 -112.517
| 30> H 	 -106.234 	 -0.979486 	 -111.779
| 31> H 	 -105.161 	 -2.2674 	 -112.154
| 32> C 	 -107.064 	 -2.9063 	 -112.457
| 33> H 	 -108.121 	 -2.52345 	 -112.54
| 34> H 	 -107.005 	 -3.33172 	 -111.426
| 35> C 	 -106.782 	 -4.06946 	 -113.43
| 36> H 	 -105.695 	 -4.35981 	 -113.37
| 37> H 	 -107.032 	 -3.7506 	 -114.483
| 38> H 	 -107.416 	 -4.92144 	 -113.223
| 39> H 	 -108.647 	 3.72031 	 -111.709
| 40> H 	 -104.378 	 -0.741288 	 -116.835
| 41> *
| 42>
| 43>                          ****END OF INPUT****

CARTESIAN COORDINATES (ANGSTROEM)
---------------------------------
  S    -106.938000    2.610460  -113.014000
  C    -108.401000    2.764890  -112.141000
  C    -109.316000    1.752270  -112.252000
  C    -108.679000    0.677379  -112.901000
  C    -107.395000    0.963628  -113.418000
  H    -109.018000   -0.328456  -113.144000
  C    -110.694000    1.688990  -111.641000
  H    -110.828000    2.689040  -111.152000
  H    -110.464000    0.954230  -110.864000
  C    -111.870000    1.248540  -112.430000
  H    -112.656000    1.489390  -111.751000
  H    -112.085000    1.907090  -113.280000
  C    -111.776000   -0.253736  -112.783000
  H    -111.186000   -0.393077  -113.699000
  H    -111.221000   -0.810220  -112.005000
  H    -112.819000   -0.699626  -112.837000
  S    -106.064000    0.708362  -115.808000
  C    -104.991000   -0.600260  -115.996000
  C    -105.044000   -1.515450  -114.914000
  C    -105.913000   -1.129570  -113.884000
  C    -106.468000    0.113576  -114.191000
  H    -104.361000   -2.417210  -114.882000
  C    -106.073000   -1.789160  -112.517000
  H    -106.234000   -0.979486  -111.779000
  H    -105.161000   -2.267400  -112.154000
  C    -107.064000   -2.906300  -112.457000
  H    -108.121000   -2.523450  -112.540000
  H    -107.005000   -3.331720  -111.426000
  C    -106.782000   -4.069460  -113.430000
  H    -105.695000   -4.359810  -113.370000
  H    -107.032000   -3.750600  -114.483000
  H    -107.416000   -4.921440  -113.223000
  H    -108.647000    3.720310  -111.709000
  H    -104.378000   -0.741288  -116.835000

 Total Charge           Charge          ....    0
 Multiplicity           Mult            ....    1
 Number of Electrons    NEL             ....  134
 Basis Dimension        Dim             ....  322

ORBITAL ENERGIES
----------------

  NO   OCC          E(Eh)            E(eV)
   0   2.0000     -88.968194     -2420.9476
   1   2.0000     -88.964168     -2420.8381
   2   2.0000     -10.325789      -280.9790
   3   2.0000     -10.324918      -280.9553
   4   2.0000     -10.311694      -280.5955
   5   2.0000     -10.304827      -280.4086
   6   2.0000     -10.301570      -280.3200
   7   2.0000     -10.297439      -280.2076
   8   2.0000     -10.296385      -280.1789
   9   2.0000     -10.293076      -280.0889
  10   2.0000     -10.292765      -280.0804
  11   2.0000     -10.290881      -280.0291
  12   2.0000     -10.289847      -280.0010
  13   2.0000     -10.288994      -279.9778
  14   2.0000     -10.286247      -279.9030
  15   2.0000     -10.284533      -279.8564
  16   2.0000      -8.083313      -219.9581
  17   2.0000      -8.079617      -219.8575
  18   2.0000      -6.041476      -164.3969
  19   2.0000      -6.037809      -164.2971
  20   2.0000      -6.037799      -164.2969
  21   2.0000      -6.034394      -164.2042
  22   2.0000      -6.034120      -164.1967
  23   2.0000      -6.030582      -164.1005
  24   2.0000      -1.006336       -27.3838
  25   2.0000      -0.986783       -26.8517
  26   2.0000      -0.920559       -25.0497
  27   2.0000      -0.912898       -24.8412
  28   2.0000      -0.864020       -23.5112
  29   2.0000      -0.851511       -23.1708
  30   2.0000      -0.845250       -23.0004
  31   2.0000      -0.808303       -21.9950
  32   2.0000      -0.786565       -21.4035
  33   2.0000      -0.771936       -21.0054
  34   2.0000      -0.710392       -19.3308
  35   2.0000      -0.697296       -18.9744
  36   2.0000      -0.685738       -18.6599
  37   2.0000      -0.659206       -17.9379
  38   2.0000      -0.642644       -17.4872
  39   2.0000      -0.611573       -16.6417
  40   2.0000      -0.595091       -16.1933
  41   2.0000      -0.572466       -15.5776
  42   2.0000      -0.556806       -15.1515
  43   2.0000      -0.545394       -14.8409
  44   2.0000      -0.543753       -14.7963
  45   2.0000      -0.536061       -14.5870
  46   2.0000      -0.517286       -14.0761
  47   2.0000      -0.503878       -13.7112
  48   2.0000      -0.497571       -13.5396
  49   2.0000      -0.489907       -13.3310
  50   2.0000      -0.485272       -13.2049
  51   2.0000      -0.480670       -13.0797
  52   2.0000      -0.475691       -12.9442
  53   2.0000      -0.466420       -12.6919
  54   2.0000      -0.458712       -12.4822
  55   2.0000      -0.448409       -12.2018
  56   2.0000      -0.446727       -12.1561
  57   2.0000      -0.440914       -11.9979
  58   2.0000      -0.436350       -11.8737
  59   2.0000      -0.425808       -11.5868
  60   2.0000      -0.418463       -11.3870
  61   2.0000      -0.415206       -11.2983
  62   2.0000      -0.411859       -11.2072
  63   2.0000      -0.338182        -9.2024
  64   2.0000      -0.334720        -9.1082
  65   2.0000      -0.328397        -8.9361
  66   2.0000      -0.288808        -7.8589
  67   0.0000       0.034613         0.9419
  68   0.0000       0.066237         1.8024
  69   0.0000       0.118874         3.2347
  70   0.0000       0.120354         3.2750
  71   0.0000       0.126421         3.4401

MULLIKEN ATOMIC CHARGES
-----------------------
   0 S :    0.124203
   1 C :   -0.130971
   2 C :   -0.058202
   3 C :    0.026179
   4 C :   -0.193910
   5 H :   -0.004886
   6 C :    0.021539
   7 H :    0.021052
   8 H :    0.044206
   9 C :   -0.013526
  10 H :    0.023088
  11 H :    0.034937
  12 C :   -0.084089
  13 H :    0.057574
  14 H :    0.031275
  15 H :    0.051306
  16 S :    0.129938
  17 C :   -0.075905
  18 C :   -0.074327
  19 C :    0.014642
  20 C :   -0.200825
  21 H :    0.035299
  22 C :    0.067998
  23 H :    0.043597
  24 H :    0.016686
  25 C :   -0.090852
  26 H :    0.030032
  27 H :    0.030440
  28 C :   -0.073379
  29 H :    0.035758
  30 H :    0.051300
  31 H :    0.038587
  32 H :    0.034536
  33 H :    0.036701
Sum of atomic charges:   -0.0000000

LOEWDIN ATOMIC CHARGES
----------------------
   0 S :    0.419856
   1 C :   -0.207597
   2 C :   -0.067388
   3 C :   -0.064604
   4 C :   -0.201787
   5 H :    0.027058
   6 C :   -0.034500
   7 H :    0.033569
   8 H :    0.038663
   9 C :   -0.042194
  10 H :    0.026566
  11 H :    0.030146
  12 C :   -0.069659
  13 H :    0.029927
  14 H :    0.024225
  15 H :    0.036499
  16 S :    0.427276
  17 C :   -0.199126
  18 C :   -0.076020
  19 C :   -0.057124
  20 C :   -0.198120
  21 H :    0.038842
  22 C :   -0.034008
  23 H :    0.039326
  24 H :    0.030334
  25 C :   -0.047986
  26 H :    0.021418
  27 H :    0.026991
  28 C :   -0.070938
  29 H :    0.028102
  30 H :    0.032425
  31 H :    0.025328
  32 H :    0.017949
  33 H :    0.016548

  Mayer bond orders larger than 0.100000
B(  0-S ,  1-C ) :   1.1607 B(  0-S ,  4-C ) :   1.1621 B(  1-C ,  2-C ) :   1.6119
B(  1-C ,  4-C ) :   0.1004 B(  1-C , 32-H ) :   0.9590 B(  2-C ,  3-C ) :   1.2337
B(  2-C ,  6-C ) :   1.0035 B(  3-C ,  4-C ) :   1.5713 B(  3-C ,  5-H ) :   0.9876
B(  4-C , 20-C ) :   1.0165 B(  6-C ,  7-H ) :   0.9349 B(  6-C ,  8-H ) :   0.9394
B(  6-C ,  9-C ) :   1.0800 B(  9-C , 10-H ) :   0.9505 B(  9-C , 11-H ) :   0.9519
B(  9-C , 12-C ) :   1.0637 B( 12-C , 13-H ) :   0.9691 B( 12-C , 14-H ) :   0.9746
B( 12-C , 15-H ) :   0.9696 B( 16-S , 17-C ) :   1.1707 B( 16-S , 20-C ) :   1.1701
B( 17-C , 18-C ) :   1.5742 B( 17-C , 20-C ) :   0.1112 B( 17-C , 33-H ) :   0.9754
B( 18-C , 19-C ) :   1.2677 B( 18-C , 21-H ) :   0.9793 B( 19-C , 20-C ) :   1.5700
B( 19-C , 22-C ) :   1.0269 B( 22-C , 23-H ) :   0.9325 B( 22-C , 24-H ) :   0.9388
B( 22-C , 25-C ) :   1.0796 B( 25-C , 26-H ) :   0.9487 B( 25-C , 27-H ) :   0.9530
B( 25-C , 28-C ) :   1.0751 B( 28-C , 29-H ) :   0.9722 B( 28-C , 30-H ) :   0.9700
B( 28-C , 31-H ) :   0.9736

Dispersion correction           -0.015057076
FINAL SINGLE POINT ENERGY     -1339.882023226328

DIPOLE MOMENT
-------------
                                X             Y             Z
Electronic contribution:     16.40362      19.02280     -10.74626
Nuclear contribution   :    -16.77344     -19.37276      11.04273
                        -----------------------------------------
Total Dipole Moment    :     -0.36982      -0.34996       0.29647
                        -----------------------------------------
Magnitude (a.u.)       :      0.58919
Magnitude (Debye)      :      1.49759

Rotational constants in cm-1:     0.017760     0.009668     0.007413
Rotational constants in MHz :   532.437715   289.837329   222.238155

                             ****ORCA TERMINATED NORMALLY****
TOTAL RUN TIME: 0 days 0 hours 0 minutes 22 seconds 379 msec
