                         Program Version 4.2.1 -  RELEASE  -
|  1> ! wB97X-D3 SP def2-SVP
|  2> %pal
|  3> nprocs 24
|  4> end
|  5>
|  6> * xyz 0 1
|  7> S 	 19.5385 	 -15.6131 	 -126.914
|  8> C 	 18.5739 	 -14.953 	 -125.604
|  9> C 	 19.2912 	 -14.7278 	 -124.418
| 10> C 	 20.6909 	 -15.0818 	 -124.669
| 11> C 	 21.0261 	 -15.3925 	 -125.98
| 12> H 	 21.4649 	 -15.1454 	 -123.948
| 13> C 	 18.8649 	 -14.2932 	 -123.065
| 14> H 	 18.4388 	 -13.297 	 -123.094
| 15> H 	 19.7794 	 -14.2225 	 -122.503
| 16> C 	 17.8803 	 -15.2933 	 -122.34
| 17> H 	 16.9565 	 -15.493 	 -122.881
| 18> H 	 18.2801 	 -16.2348 	 -122.138
| 19> C 	 17.3865 	 -14.7679 	 -120.989
| 20> H 	 18.1787 	 -14.6455 	 -120.263
| 21> H 	 16.9084 	 -13.7915 	 -120.994
| 22> H 	 16.7713 	 -15.5424 	 -120.578
| 23> S 	 22.3437 	 -17.2171 	 -127.606
| 24> C 	 24.041 	 -17.0123 	 -127.833
| 25> C 	 24.5681 	 -15.9681 	 -127.056
| 26> C 	 23.5655 	 -15.1923 	 -126.385
| 27> C 	 22.3034 	 -15.7604 	 -126.542
| 28> H 	 25.6339 	 -15.6851 	 -127.175
| 29> C 	 24.0217 	 -13.9923 	 -125.485
| 30> H 	 24.4764 	 -14.4566 	 -124.615
| 31> H 	 23.1281 	 -13.4566 	 -125.198
| 32> C 	 24.9798 	 -13.0001 	 -126.121
| 33> H 	 25.628 	 -13.4465 	 -126.901
| 34> H 	 25.6598 	 -12.6641 	 -125.41
| 35> C 	 24.2546 	 -11.7026 	 -126.589
| 36> H 	 24.9053 	 -11.1027 	 -127.272
| 37> H 	 23.8943 	 -11.2734 	 -125.624
| 38> H 	 23.3607 	 -12.0146 	 -127.199
| 39> H 	 17.5698 	 -14.8284 	 -125.784
| 40> H 	 24.7038 	 -17.5972 	 -128.395
| 41> *
| 42>
| 43>                          ****END OF INPUT****

CARTESIAN COORDINATES (ANGSTROEM)
---------------------------------
  S     19.538500  -15.613100  -126.914000
  C     18.573900  -14.953000  -125.604000
  C     19.291200  -14.727800  -124.418000
  C     20.690900  -15.081800  -124.669000
  C     21.026100  -15.392500  -125.980000
  H     21.464900  -15.145400  -123.948000
  C     18.864900  -14.293200  -123.065000
  H     18.438800  -13.297000  -123.094000
  H     19.779400  -14.222500  -122.503000
  C     17.880300  -15.293300  -122.340000
  H     16.956500  -15.493000  -122.881000
  H     18.280100  -16.234800  -122.138000
  C     17.386500  -14.767900  -120.989000
  H     18.178700  -14.645500  -120.263000
  H     16.908400  -13.791500  -120.994000
  H     16.771300  -15.542400  -120.578000
  S     22.343700  -17.217100  -127.606000
  C     24.041000  -17.012300  -127.833000
  C     24.568100  -15.968100  -127.056000
  C     23.565500  -15.192300  -126.385000
  C     22.303400  -15.760400  -126.542000
  H     25.633900  -15.685100  -127.175000
  C     24.021700  -13.992300  -125.485000
  H     24.476400  -14.456600  -124.615000
  H     23.128100  -13.456600  -125.198000
  C     24.979800  -13.000100  -126.121000
  H     25.628000  -13.446500  -126.901000
  H     25.659800  -12.664100  -125.410000
  C     24.254600  -11.702600  -126.589000
  H     24.905300  -11.102700  -127.272000
  H     23.894300  -11.273400  -125.624000
  H     23.360700  -12.014600  -127.199000
  H     17.569800  -14.828400  -125.784000
  H     24.703800  -17.597200  -128.395000

 Total Charge           Charge          ....    0
 Multiplicity           Mult            ....    1
 Number of Electrons    NEL             ....  134
 Basis Dimension        Dim             ....  322

ORBITAL ENERGIES
----------------

  NO   OCC          E(Eh)            E(eV)
   0   2.0000     -88.968484     -2420.9555
   1   2.0000     -88.962728     -2420.7989
   2   2.0000     -10.330052      -281.0950
   3   2.0000     -10.327852      -281.0351
   4   2.0000     -10.314862      -280.6817
   5   2.0000     -10.312204      -280.6093
   6   2.0000     -10.308102      -280.4977
   7   2.0000     -10.306888      -280.4647
   8   2.0000     -10.295412      -280.1524
   9   2.0000     -10.295000      -280.1412
  10   2.0000     -10.294849      -280.1371
  11   2.0000     -10.293720      -280.1064
  12   2.0000     -10.286766      -279.9171
  13   2.0000     -10.285546      -279.8839
  14   2.0000     -10.281543      -279.7750
  15   2.0000     -10.273492      -279.5559
  16   2.0000      -8.082669      -219.9406
  17   2.0000      -8.077386      -219.7968
  18   2.0000      -6.041223      -164.3900
  19   2.0000      -6.037310      -164.2835
  20   2.0000      -6.035950      -164.2465
  21   2.0000      -6.033356      -164.1760
  22   2.0000      -6.031989      -164.1388
  23   2.0000      -6.028029      -164.0310
  24   2.0000      -1.000069       -27.2133
  25   2.0000      -0.976725       -26.5780
  26   2.0000      -0.911033       -24.7905
  27   2.0000      -0.908802       -24.7298
  28   2.0000      -0.868162       -23.6239
  29   2.0000      -0.853367       -23.2213
  30   2.0000      -0.844288       -22.9742
  31   2.0000      -0.809755       -22.0345
  32   2.0000      -0.781157       -21.2564
  33   2.0000      -0.771270       -20.9873
  34   2.0000      -0.709952       -19.3188
  35   2.0000      -0.703333       -19.1387
  36   2.0000      -0.696851       -18.9623
  37   2.0000      -0.658203       -17.9106
  38   2.0000      -0.646358       -17.5883
  39   2.0000      -0.617145       -16.7934
  40   2.0000      -0.597111       -16.2482
  41   2.0000      -0.565280       -15.3820
  42   2.0000      -0.559043       -15.2123
  43   2.0000      -0.556947       -15.1553
  44   2.0000      -0.537956       -14.6385
  45   2.0000      -0.531400       -14.4601
  46   2.0000      -0.519827       -14.1452
  47   2.0000      -0.510231       -13.8841
  48   2.0000      -0.506019       -13.7695
  49   2.0000      -0.499460       -13.5910
  50   2.0000      -0.489114       -13.3095
  51   2.0000      -0.473427       -12.8826
  52   2.0000      -0.465439       -12.6652
  53   2.0000      -0.460712       -12.5366
  54   2.0000      -0.456556       -12.4235
  55   2.0000      -0.448594       -12.2069
  56   2.0000      -0.444117       -12.0851
  57   2.0000      -0.440386       -11.9835
  58   2.0000      -0.435608       -11.8535
  59   2.0000      -0.427430       -11.6310
  60   2.0000      -0.423509       -11.5243
  61   2.0000      -0.421928       -11.4812
  62   2.0000      -0.411814       -11.2060
  63   2.0000      -0.349897        -9.5212
  64   2.0000      -0.332823        -9.0566
  65   2.0000      -0.325477        -8.8567
  66   2.0000      -0.283918        -7.7258
  67   0.0000       0.024743         0.6733
  68   0.0000       0.069125         1.8810
  69   0.0000       0.101156         2.7526
  70   0.0000       0.118395         3.2217
  71   0.0000       0.132297         3.6000

MULLIKEN ATOMIC CHARGES
-----------------------
   0 S :    0.088799
   1 C :   -0.101241
   2 C :   -0.068523
   3 C :    0.018324
   4 C :   -0.152600
   5 H :    0.000763
   6 C :    0.103655
   7 H :    0.035634
   8 H :    0.014822
   9 C :   -0.060301
  10 H :    0.029632
  11 H :    0.017706
  12 C :   -0.046923
  13 H :    0.015143
  14 H :    0.030934
  15 H :    0.029231
  16 S :    0.111412
  17 C :   -0.060395
  18 C :   -0.068878
  19 C :   -0.046281
  20 C :   -0.153087
  21 H :    0.036349
  22 C :    0.074522
  23 H :    0.044456
  24 H :    0.019309
  25 C :   -0.058603
  26 H :    0.029617
  27 H :    0.010224
  28 C :   -0.090922
  29 H :    0.049694
  30 H :    0.045936
  31 H :    0.047782
  32 H :    0.019029
  33 H :    0.034779
Sum of atomic charges:   -0.0000000

LOEWDIN ATOMIC CHARGES
----------------------
   0 S :    0.388142
   1 C :   -0.175012
   2 C :   -0.056430
   3 C :   -0.058578
   4 C :   -0.188751
   5 H :    0.022185
   6 C :   -0.028663
   7 H :    0.035794
   8 H :    0.031031
   9 C :   -0.028609
  10 H :    0.025485
  11 H :    0.018812
  12 C :   -0.065622
  13 H :    0.019267
  14 H :    0.022974
  15 H :    0.025867
  16 S :    0.394886
  17 C :   -0.184076
  18 C :   -0.077902
  19 C :   -0.050160
  20 C :   -0.187729
  21 H :    0.034396
  22 C :   -0.022970
  23 H :    0.036118
  24 H :    0.027255
  25 C :   -0.045488
  26 H :    0.023466
  27 H :    0.015080
  28 C :   -0.068943
  29 H :    0.031261
  30 H :    0.030504
  31 H :    0.030465
  32 H :    0.006237
  33 H :    0.019708

  Mayer bond orders larger than 0.100000
B(  0-S ,  1-C ) :   1.1469 B(  0-S ,  4-C ) :   1.1326 B(  1-C ,  2-C ) :   1.5854
B(  1-C , 32-H ) :   0.9861 B(  2-C ,  3-C ) :   1.2290 B(  2-C ,  6-C ) :   1.0339
B(  3-C ,  4-C ) :   1.5839 B(  3-C ,  5-H ) :   0.9908 B(  4-C , 20-C ) :   1.0724
B(  6-C ,  7-H ) :   0.9333 B(  6-C ,  8-H ) :   0.9360 B(  6-C ,  9-C ) :   1.0576
B(  9-C , 10-H ) :   0.9610 B(  9-C , 11-H ) :   0.9563 B(  9-C , 12-C ) :   1.0868
B( 12-C , 13-H ) :   0.9734 B( 12-C , 14-H ) :   0.9758 B( 12-C , 15-H ) :   0.9741
B( 16-S , 17-C ) :   1.1526 B( 16-S , 20-C ) :   1.1196 B( 17-C , 18-C ) :   1.6272
B( 17-C , 33-H ) :   0.9700 B( 18-C , 19-C ) :   1.2331 B( 18-C , 21-H ) :   0.9740
B( 19-C , 20-C ) :   1.6102 B( 19-C , 22-C ) :   1.0318 B( 22-C , 23-H ) :   0.9392
B( 22-C , 24-H ) :   0.9364 B( 22-C , 25-C ) :   1.0565 B( 25-C , 26-H ) :   0.9589
B( 25-C , 27-H ) :   0.9525 B( 25-C , 28-C ) :   1.0725 B( 28-C , 29-H ) :   0.9735
B( 28-C , 30-H ) :   0.9751 B( 28-C , 31-H ) :   0.9800

Dispersion correction           -0.013288058
FINAL SINGLE POINT ENERGY     -1339.869213205006

DIPOLE MOMENT
-------------
                                X             Y             Z
Electronic contribution:     -0.72994     -16.75331     -20.48539
Nuclear contribution   :      0.98090      17.01522      21.08122
                        -----------------------------------------
Total Dipole Moment    :      0.25096       0.26192       0.59583
                        -----------------------------------------
Magnitude (a.u.)       :      0.69756
Magnitude (Debye)      :      1.77306

Rotational constants in cm-1:     0.019270     0.007442     0.006120
Rotational constants in MHz :   577.711685   223.094539   183.468378

                             ****ORCA TERMINATED NORMALLY****
TOTAL RUN TIME: 0 days 0 hours 0 minutes 20 seconds 892 msec
