                         Program Version 4.2.1 -  RELEASE  -
|  1> ! wB97X-D3 SP def2-SVP
|  2> %pal
|  3> nprocs 24
|  4> end
|  5>
|  6> * xyz 0 1
|  7> S 	 -84.8503 	 -8.39136 	 -54.3292
|  8> C 	 -85.621 	 -9.83706 	 -54.886
|  9> C 	 -84.9051 	 -10.5359 	 -55.8538
| 10> C 	 -84.0259 	 -9.63118 	 -56.5064
| 11> C 	 -83.8935 	 -8.38334 	 -55.831
| 12> H 	 -83.5795 	 -9.90347 	 -57.3998
| 13> C 	 -85.3137 	 -11.7777 	 -56.5624
| 14> H 	 -85.7733 	 -12.4102 	 -55.8057
| 15> H 	 -84.4402 	 -12.2727 	 -56.883
| 16> C 	 -86.1016 	 -11.5308 	 -57.8386
| 17> H 	 -86.8319 	 -10.7345 	 -57.7182
| 18> H 	 -85.3812 	 -11.0947 	 -58.5101
| 19> C 	 -86.6329 	 -12.865 	 -58.4463
| 20> H 	 -85.9312 	 -13.7375 	 -58.6821
| 21> H 	 -87.26 	 -13.367 	 -57.7208
| 22> H 	 -87.1365 	 -12.7481 	 -59.4053
| 23> S 	 -81.7149 	 -6.91216 	 -55.2479
| 24> C 	 -81.0049 	 -5.76329 	 -56.3087
| 25> C 	 -81.7466 	 -5.76688 	 -57.5182
| 26> C 	 -82.8706 	 -6.67892 	 -57.4964
| 27> C 	 -83.0577 	 -7.28494 	 -56.2933
| 28> H 	 -81.6707 	 -5.04385 	 -58.3166
| 29> C 	 -83.7961 	 -6.75085 	 -58.7051
| 30> H 	 -83.9985 	 -5.75356 	 -59.0695
| 31> H 	 -84.7156 	 -7.33044 	 -58.4704
| 32> C 	 -83.1057 	 -7.37885 	 -59.8964
| 33> H 	 -82.6657 	 -8.29487 	 -59.4557
| 34> H 	 -82.3113 	 -6.65378 	 -60.2241
| 35> C 	 -84.02 	 -7.64694 	 -61.0384
| 36> H 	 -84.8862 	 -8.16507 	 -60.788
| 37> H 	 -83.4924 	 -8.03312 	 -61.9332
| 38> H 	 -84.463 	 -6.71883 	 -61.2652
| 39> H 	 -86.4382 	 -10.2284 	 -54.3586
| 40> H 	 -80.2291 	 -5.07736 	 -56.0057
| 41> *
| 42>
| 43>                          ****END OF INPUT****

CARTESIAN COORDINATES (ANGSTROEM)
---------------------------------
  S    -84.850300   -8.391360  -54.329200
  C    -85.621000   -9.837060  -54.886000
  C    -84.905100  -10.535900  -55.853800
  C    -84.025900   -9.631180  -56.506400
  C    -83.893500   -8.383340  -55.831000
  H    -83.579500   -9.903470  -57.399800
  C    -85.313700  -11.777700  -56.562400
  H    -85.773300  -12.410200  -55.805700
  H    -84.440200  -12.272700  -56.883000
  C    -86.101600  -11.530800  -57.838600
  H    -86.831900  -10.734500  -57.718200
  H    -85.381200  -11.094700  -58.510100
  C    -86.632900  -12.865000  -58.446300
  H    -85.931200  -13.737500  -58.682100
  H    -87.260000  -13.367000  -57.720800
  H    -87.136500  -12.748100  -59.405300
  S    -81.714900   -6.912160  -55.247900
  C    -81.004900   -5.763290  -56.308700
  C    -81.746600   -5.766880  -57.518200
  C    -82.870600   -6.678920  -57.496400
  C    -83.057700   -7.284940  -56.293300
  H    -81.670700   -5.043850  -58.316600
  C    -83.796100   -6.750850  -58.705100
  H    -83.998500   -5.753560  -59.069500
  H    -84.715600   -7.330440  -58.470400
  C    -83.105700   -7.378850  -59.896400
  H    -82.665700   -8.294870  -59.455700
  H    -82.311300   -6.653780  -60.224100
  C    -84.020000   -7.646940  -61.038400
  H    -84.886200   -8.165070  -60.788000
  H    -83.492400   -8.033120  -61.933200
  H    -84.463000   -6.718830  -61.265200
  H    -86.438200  -10.228400  -54.358600
  H    -80.229100   -5.077360  -56.005700

 Total Charge           Charge          ....    0
 Multiplicity           Mult            ....    1
 Number of Electrons    NEL             ....  134
 Basis Dimension        Dim             ....  322

ORBITAL ENERGIES
----------------

  NO   OCC          E(Eh)            E(eV)
   0   2.0000     -88.971272     -2421.0314
   1   2.0000     -88.958545     -2420.6851
   2   2.0000     -10.334208      -281.2081
   3   2.0000     -10.321395      -280.8594
   4   2.0000     -10.319686      -280.8129
   5   2.0000     -10.313157      -280.6353
   6   2.0000     -10.299748      -280.2704
   7   2.0000     -10.298157      -280.2271
   8   2.0000     -10.297210      -280.2013
   9   2.0000     -10.294683      -280.1326
  10   2.0000     -10.292674      -280.0779
  11   2.0000     -10.288272      -279.9581
  12   2.0000     -10.287918      -279.9485
  13   2.0000     -10.287267      -279.9308
  14   2.0000     -10.283465      -279.8273
  15   2.0000     -10.268684      -279.4251
  16   2.0000      -8.085807      -220.0260
  17   2.0000      -8.074421      -219.7162
  18   2.0000      -6.044228      -164.4718
  19   2.0000      -6.040490      -164.3701
  20   2.0000      -6.036523      -164.2621
  21   2.0000      -6.032932      -164.1644
  22   2.0000      -6.028566      -164.0456
  23   2.0000      -6.025304      -163.9569
  24   2.0000      -1.007023       -27.4025
  25   2.0000      -0.986393       -26.8411
  26   2.0000      -0.920151       -25.0386
  27   2.0000      -0.918173       -24.9847
  28   2.0000      -0.867614       -23.6090
  29   2.0000      -0.854908       -23.2632
  30   2.0000      -0.849839       -23.1253
  31   2.0000      -0.808307       -21.9952
  32   2.0000      -0.783042       -21.3077
  33   2.0000      -0.775472       -21.1017
  34   2.0000      -0.714211       -19.4347
  35   2.0000      -0.700494       -19.0614
  36   2.0000      -0.691804       -18.8249
  37   2.0000      -0.667762       -18.1707
  38   2.0000      -0.646444       -17.5906
  39   2.0000      -0.623401       -16.9636
  40   2.0000      -0.597726       -16.2650
  41   2.0000      -0.577877       -15.7248
  42   2.0000      -0.573878       -15.6160
  43   2.0000      -0.556219       -15.1355
  44   2.0000      -0.531122       -14.4526
  45   2.0000      -0.528123       -14.3710
  46   2.0000      -0.521891       -14.2014
  47   2.0000      -0.513223       -13.9655
  48   2.0000      -0.506607       -13.7855
  49   2.0000      -0.498317       -13.5599
  50   2.0000      -0.490899       -13.3580
  51   2.0000      -0.485856       -13.2208
  52   2.0000      -0.472899       -12.8682
  53   2.0000      -0.467855       -12.7310
  54   2.0000      -0.459874       -12.5138
  55   2.0000      -0.448576       -12.2064
  56   2.0000      -0.447078       -12.1656
  57   2.0000      -0.442313       -12.0359
  58   2.0000      -0.435074       -11.8390
  59   2.0000      -0.427896       -11.6437
  60   2.0000      -0.417163       -11.3516
  61   2.0000      -0.415410       -11.3039
  62   2.0000      -0.411971       -11.2103
  63   2.0000      -0.341171        -9.2837
  64   2.0000      -0.333458        -9.0738
  65   2.0000      -0.324893        -8.8408
  66   2.0000      -0.291304        -7.9268
  67   0.0000       0.028597         0.7782
  68   0.0000       0.061070         1.6618
  69   0.0000       0.108131         2.9424
  70   0.0000       0.114943         3.1278
  71   0.0000       0.125707         3.4207

MULLIKEN ATOMIC CHARGES
-----------------------
   0 S :    0.128803
   1 C :   -0.104251
   2 C :   -0.064707
   3 C :    0.036607
   4 C :   -0.152557
   5 H :   -0.015180
   6 C :    0.060016
   7 H :    0.022974
   8 H :    0.015644
   9 C :   -0.038950
  10 H :    0.034828
  11 H :    0.016177
  12 C :   -0.067099
  13 H :    0.033415
  14 H :    0.027911
  15 H :    0.040734
  16 S :    0.089396
  17 C :   -0.087709
  18 C :   -0.031426
  19 C :   -0.056499
  20 C :   -0.130927
  21 H :    0.019860
  22 C :    0.056764
  23 H :    0.016359
  24 H :    0.031862
  25 C :   -0.132077
  26 H :    0.029134
  27 H :    0.034648
  28 C :    0.044976
  29 H :    0.003589
  30 H :    0.047575
  31 H :   -0.006997
  32 H :    0.030489
  33 H :    0.066617
Sum of atomic charges:    0.0000000

LOEWDIN ATOMIC CHARGES
----------------------
   0 S :    0.408498
   1 C :   -0.181561
   2 C :   -0.063062
   3 C :   -0.036411
   4 C :   -0.193976
   5 H :    0.016314
   6 C :   -0.031795
   7 H :    0.027882
   8 H :    0.028327
   9 C :   -0.031531
  10 H :    0.026726
  11 H :    0.021642
  12 C :   -0.076717
  13 H :    0.035487
  14 H :    0.023084
  15 H :    0.027001
  16 S :    0.418966
  17 C :   -0.193163
  18 C :   -0.070998
  19 C :   -0.060814
  20 C :   -0.203842
  21 H :    0.026421
  22 C :   -0.029533
  23 H :    0.025912
  24 H :    0.031140
  25 C :   -0.045401
  26 H :    0.019645
  27 H :    0.027546
  28 C :   -0.061673
  29 H :    0.016830
  30 H :    0.034755
  31 H :    0.020906
  32 H :    0.012788
  33 H :    0.030608

  Mayer bond orders larger than 0.100000
B(  0-S ,  1-C ) :   1.1632 B(  0-S ,  4-C ) :   1.1406 B(  1-C ,  2-C ) :   1.5803
B(  1-C ,  4-C ) :   0.1057 B(  1-C , 32-H ) :   0.9739 B(  2-C ,  3-C ) :   1.2303
B(  2-C ,  6-C ) :   1.0637 B(  3-C ,  4-C ) :   1.5449 B(  3-C ,  5-H ) :   1.0107
B(  4-C , 20-C ) :   1.0265 B(  6-C ,  7-H ) :   0.9432 B(  6-C ,  8-H ) :   0.9286
B(  6-C ,  9-C ) :   1.0528 B(  9-C , 10-H ) :   0.9609 B(  9-C , 11-H ) :   0.9485
B(  9-C , 12-C ) :   1.0663 B( 12-C , 13-H ) :   0.9743 B( 12-C , 14-H ) :   0.9779
B( 12-C , 15-H ) :   0.9758 B( 16-S , 17-C ) :   1.1770 B( 16-S , 20-C ) :   1.1400
B( 17-C , 18-C ) :   1.5629 B( 17-C , 20-C ) :   0.1005 B( 17-C , 33-H ) :   0.9732
B( 18-C , 19-C ) :   1.2446 B( 18-C , 21-H ) :   0.9854 B( 19-C , 20-C ) :   1.6240
B( 19-C , 22-C ) :   1.0552 B( 22-C , 23-H ) :   0.9313 B( 22-C , 24-H ) :   0.9430
B( 22-C , 25-C ) :   1.0518 B( 25-C , 26-H ) :   0.9567 B( 25-C , 27-H ) :   0.9517
B( 25-C , 28-C ) :   1.0963 B( 28-C , 29-H ) :   0.9654 B( 28-C , 30-H ) :   0.9708
B( 28-C , 31-H ) :   0.9544

Dispersion correction           -0.014283887
FINAL SINGLE POINT ENERGY     -1339.855858133143

DIPOLE MOMENT
-------------
                                X             Y             Z
Electronic contribution:     10.76923      13.83800      27.50890
Nuclear contribution   :    -11.06792     -14.09863     -28.11720
                        -----------------------------------------
Total Dipole Moment    :     -0.29869      -0.26063      -0.60830
                        -----------------------------------------
Magnitude (a.u.)       :      0.72606
Magnitude (Debye)      :      1.84550

Rotational constants in cm-1:     0.016899     0.009640     0.006638
Rotational constants in MHz :   506.608082   288.985138   199.016264

                             ****ORCA TERMINATED NORMALLY****
TOTAL RUN TIME: 0 days 0 hours 0 minutes 22 seconds 106 msec
