                         Program Version 4.2.1 -  RELEASE  -
|  1> ! wB97X-D3 SP def2-SVP
|  2> %pal
|  3> nprocs 24
|  4> end
|  5>
|  6> * xyz 0 1
|  7> S 	 -28.1436 	 14.3934 	 4.77902
|  8> C 	 -29.6993 	 13.6824 	 4.40801
|  9> C 	 -30.6517 	 14.0646 	 5.36634
| 10> C 	 -30.0548 	 14.4808 	 6.5952
| 11> C 	 -28.6686 	 14.7418 	 6.45094
| 12> H 	 -30.5372 	 14.784 	 7.50162
| 13> C 	 -32.183 	 13.8216 	 5.3253
| 14> H 	 -32.6154 	 13.8399 	 6.37447
| 15> H 	 -32.3809 	 12.8051 	 4.93966
| 16> C 	 -32.9014 	 14.8572 	 4.39805
| 17> H 	 -32.9495 	 15.8335 	 4.87644
| 18> H 	 -32.4536 	 14.9917 	 3.42133
| 19> C 	 -34.3517 	 14.4962 	 4.03732
| 20> H 	 -34.5025 	 13.45 	 3.75659
| 21> H 	 -35.1203 	 14.7784 	 4.76888
| 22> H 	 -34.6892 	 15.0781 	 3.04617
| 23> S 	 -27.2621 	 17.1244 	 6.85228
| 24> C 	 -26.7 	 17.6029 	 8.45007
| 25> C 	 -26.8719 	 16.5014 	 9.2951
| 26> C 	 -27.4966 	 15.3383 	 8.70123
| 27> C 	 -27.8736 	 15.5678 	 7.38187
| 28> H 	 -26.4058 	 16.5119 	 10.2703
| 29> C 	 -27.7436 	 14.1202 	 9.51283
| 30> H 	 -28.8329 	 13.906 	 9.60097
| 31> H 	 -27.3855 	 14.4906 	 10.4658
| 32> C 	 -27.1162 	 12.7959 	 8.98346
| 33> H 	 -25.9986 	 12.8985 	 8.95298
| 34> H 	 -27.4361 	 12.5883 	 7.935
| 35> C 	 -27.4544 	 11.7249 	 10.0006
| 36> H 	 -26.7409 	 10.9187 	 9.7989
| 37> H 	 -28.4755 	 11.4351 	 9.83784
| 38> H 	 -27.1924 	 12.171 	 10.9915
| 39> H 	 -29.9302 	 13.4331 	 3.41201
| 40> H 	 -26.0914 	 18.4665 	 8.57403
| 41> *
| 42>
| 43>                          ****END OF INPUT****

CARTESIAN COORDINATES (ANGSTROEM)
---------------------------------
  S    -28.143600   14.393400    4.779020
  C    -29.699300   13.682400    4.408010
  C    -30.651700   14.064600    5.366340
  C    -30.054800   14.480800    6.595200
  C    -28.668600   14.741800    6.450940
  H    -30.537200   14.784000    7.501620
  C    -32.183000   13.821600    5.325300
  H    -32.615400   13.839900    6.374470
  H    -32.380900   12.805100    4.939660
  C    -32.901400   14.857200    4.398050
  H    -32.949500   15.833500    4.876440
  H    -32.453600   14.991700    3.421330
  C    -34.351700   14.496200    4.037320
  H    -34.502500   13.450000    3.756590
  H    -35.120300   14.778400    4.768880
  H    -34.689200   15.078100    3.046170
  S    -27.262100   17.124400    6.852280
  C    -26.700000   17.602900    8.450070
  C    -26.871900   16.501400    9.295100
  C    -27.496600   15.338300    8.701230
  C    -27.873600   15.567800    7.381870
  H    -26.405800   16.511900   10.270300
  C    -27.743600   14.120200    9.512830
  H    -28.832900   13.906000    9.600970
  H    -27.385500   14.490600   10.465800
  C    -27.116200   12.795900    8.983460
  H    -25.998600   12.898500    8.952980
  H    -27.436100   12.588300    7.935000
  C    -27.454400   11.724900   10.000600
  H    -26.740900   10.918700    9.798900
  H    -28.475500   11.435100    9.837840
  H    -27.192400   12.171000   10.991500
  H    -29.930200   13.433100    3.412010
  H    -26.091400   18.466500    8.574030

 Total Charge           Charge          ....    0
 Multiplicity           Mult            ....    1
 Number of Electrons    NEL             ....  134
 Basis Dimension        Dim             ....  322

ORBITAL ENERGIES
----------------

  NO   OCC          E(Eh)            E(eV)
   0   2.0000     -88.971181     -2421.0289
   1   2.0000     -88.961433     -2420.7637
   2   2.0000     -10.337975      -281.3106
   3   2.0000     -10.327445      -281.0241
   4   2.0000     -10.318978      -280.7937
   5   2.0000     -10.316477      -280.7256
   6   2.0000     -10.310895      -280.5737
   7   2.0000     -10.305873      -280.4371
   8   2.0000     -10.300011      -280.2775
   9   2.0000     -10.299646      -280.2676
  10   2.0000     -10.296917      -280.1934
  11   2.0000     -10.290052      -280.0065
  12   2.0000     -10.288942      -279.9763
  13   2.0000     -10.288508      -279.9645
  14   2.0000     -10.286290      -279.9042
  15   2.0000     -10.275860      -279.6204
  16   2.0000      -8.085072      -220.0060
  17   2.0000      -8.076094      -219.7617
  18   2.0000      -6.043471      -164.4512
  19   2.0000      -6.039769      -164.3505
  20   2.0000      -6.035918      -164.2457
  21   2.0000      -6.034637      -164.2108
  22   2.0000      -6.030454      -164.0970
  23   2.0000      -6.026974      -164.0023
  24   2.0000      -1.000797       -27.2331
  25   2.0000      -0.979845       -26.6630
  26   2.0000      -0.909349       -24.7447
  27   2.0000      -0.903262       -24.5790
  28   2.0000      -0.865362       -23.5477
  29   2.0000      -0.852791       -23.2056
  30   2.0000      -0.848275       -23.0827
  31   2.0000      -0.810199       -22.0466
  32   2.0000      -0.774608       -21.0782
  33   2.0000      -0.765511       -20.8306
  34   2.0000      -0.704003       -19.1569
  35   2.0000      -0.697298       -18.9744
  36   2.0000      -0.685362       -18.6497
  37   2.0000      -0.664191       -18.0735
  38   2.0000      -0.647364       -17.6157
  39   2.0000      -0.614120       -16.7111
  40   2.0000      -0.595581       -16.2066
  41   2.0000      -0.567454       -15.4412
  42   2.0000      -0.566663       -15.4197
  43   2.0000      -0.556043       -15.1307
  44   2.0000      -0.523182       -14.2365
  45   2.0000      -0.519705       -14.1419
  46   2.0000      -0.516176       -14.0459
  47   2.0000      -0.510861       -13.9012
  48   2.0000      -0.507402       -13.8071
  49   2.0000      -0.497354       -13.5337
  50   2.0000      -0.491141       -13.3646
  51   2.0000      -0.479918       -13.0592
  52   2.0000      -0.474654       -12.9160
  53   2.0000      -0.459553       -12.5051
  54   2.0000      -0.458177       -12.4676
  55   2.0000      -0.443534       -12.0692
  56   2.0000      -0.442143       -12.0313
  57   2.0000      -0.432286       -11.7631
  58   2.0000      -0.429390       -11.6843
  59   2.0000      -0.421497       -11.4695
  60   2.0000      -0.420951       -11.4547
  61   2.0000      -0.417652       -11.3649
  62   2.0000      -0.408983       -11.1290
  63   2.0000      -0.344360        -9.3705
  64   2.0000      -0.330607        -8.9963
  65   2.0000      -0.324052        -8.8179
  66   2.0000      -0.293499        -7.9865
  67   0.0000       0.023558         0.6411
  68   0.0000       0.056313         1.5324
  69   0.0000       0.107719         2.9312
  70   0.0000       0.119879         3.2621
  71   0.0000       0.128002         3.4831

MULLIKEN ATOMIC CHARGES
-----------------------
   0 S :    0.106733
   1 C :   -0.081165
   2 C :   -0.086399
   3 C :    0.046887
   4 C :   -0.167399
   5 H :    0.017106
   6 C :    0.027804
   7 H :    0.041629
   8 H :    0.036743
   9 C :   -0.060133
  10 H :    0.036171
  11 H :    0.034982
  12 C :   -0.108036
  13 H :    0.031512
  14 H :    0.040729
  15 H :    0.039252
  16 S :    0.091749
  17 C :   -0.094988
  18 C :   -0.037323
  19 C :   -0.042108
  20 C :   -0.153754
  21 H :    0.023789
  22 C :    0.057898
  23 H :    0.033229
  24 H :    0.007135
  25 C :   -0.120939
  26 H :    0.030581
  27 H :    0.054512
  28 C :   -0.016062
  29 H :    0.033546
  30 H :    0.040182
  31 H :    0.033925
  32 H :    0.042306
  33 H :    0.059906
Sum of atomic charges:   -0.0000000

LOEWDIN ATOMIC CHARGES
----------------------
   0 S :    0.401218
   1 C :   -0.193825
   2 C :   -0.053961
   3 C :   -0.053348
   4 C :   -0.184860
   5 H :    0.030614
   6 C :   -0.032449
   7 H :    0.037522
   8 H :    0.032201
   9 C :   -0.045070
  10 H :    0.028553
  11 H :    0.026212
  12 C :   -0.080330
  13 H :    0.020152
  14 H :    0.022313
  15 H :    0.037740
  16 S :    0.398577
  17 C :   -0.182174
  18 C :   -0.073213
  19 C :   -0.064204
  20 C :   -0.200597
  21 H :    0.029043
  22 C :   -0.039066
  23 H :    0.035219
  24 H :    0.027671
  25 C :   -0.041636
  26 H :    0.024691
  27 H :    0.029506
  28 C :   -0.062641
  29 H :    0.027628
  30 H :    0.023843
  31 H :    0.031587
  32 H :    0.017062
  33 H :    0.026023

  Mayer bond orders larger than 0.100000
B(  0-S ,  1-C ) :   1.1456 B(  0-S ,  4-C ) :   1.1552 B(  1-C ,  2-C ) :   1.5893
B(  1-C ,  4-C ) :   0.1084 B(  1-C , 32-H ) :   0.9699 B(  2-C ,  3-C ) :   1.2649
B(  2-C ,  6-C ) :   1.0169 B(  3-C ,  4-C ) :   1.5469 B(  3-C ,  5-H ) :   0.9879
B(  4-C , 20-C ) :   1.0467 B(  6-C ,  7-H ) :   0.9519 B(  6-C ,  8-H ) :   0.9502
B(  6-C ,  9-C ) :   1.0461 B(  9-C , 10-H ) :   0.9552 B(  9-C , 11-H ) :   0.9659
B(  9-C , 12-C ) :   1.0717 B( 12-C , 13-H ) :   0.9754 B( 12-C , 14-H ) :   0.9779
B( 12-C , 15-H ) :   0.9772 B( 16-S , 17-C ) :   1.1604 B( 16-S , 20-C ) :   1.1450
B( 17-C , 18-C ) :   1.5788 B( 17-C , 33-H ) :   0.9734 B( 18-C , 19-C ) :   1.2722
B( 18-C , 21-H ) :   0.9806 B( 19-C , 20-C ) :   1.5642 B( 19-C , 22-C ) :   1.0482
B( 22-C , 23-H ) :   0.9298 B( 22-C , 24-H ) :   0.9283 B( 22-C , 25-C ) :   1.0550
B( 25-C , 26-H ) :   0.9567 B( 25-C , 27-H ) :   0.9542 B( 25-C , 28-C ) :   1.0766
B( 28-C , 29-H ) :   0.9751 B( 28-C , 30-H ) :   0.9758 B( 28-C , 31-H ) :   0.9707

Dispersion correction           -0.013774915
FINAL SINGLE POINT ENERGY     -1339.864598423953

DIPOLE MOMENT
-------------
                                X             Y             Z
Electronic contribution:     17.70906      13.51236      -6.42271
Nuclear contribution   :    -18.06387     -13.64302       6.63796
                        -----------------------------------------
Total Dipole Moment    :     -0.35481      -0.13066       0.21525
                        -----------------------------------------
Magnitude (a.u.)       :      0.43508
Magnitude (Debye)      :      1.10588

Rotational constants in cm-1:     0.018746     0.007656     0.006586
Rotational constants in MHz :   561.997448   229.532365   197.456383

                             ****ORCA TERMINATED NORMALLY****
TOTAL RUN TIME: 0 days 0 hours 0 minutes 21 seconds 171 msec
