                         Program Version 4.2.1 -  RELEASE  -
|  1> ! wB97X-D3 SP def2-SVP
|  2> %pal
|  3> nprocs 24
|  4> end
|  5>
|  6> * xyz 0 1
|  7> S 	 -97.8818 	 -25.7368 	 -60.0384
|  8> C 	 -99.605 	 -25.9645 	 -60.5199
|  9> C 	 -100.159 	 -24.7332 	 -60.8912
| 10> C 	 -99.2954 	 -23.6605 	 -60.7389
| 11> C 	 -97.9834 	 -24.0471 	 -60.4615
| 12> H 	 -99.6081 	 -22.6693 	 -61.0285
| 13> C 	 -101.597 	 -24.5727 	 -61.4044
| 14> H 	 -101.992 	 -23.6403 	 -60.8252
| 15> H 	 -102.291 	 -25.3199 	 -61.0398
| 16> C 	 -101.793 	 -24.6027 	 -62.9393
| 17> H 	 -101.125 	 -23.8667 	 -63.383
| 18> H 	 -101.513 	 -25.578 	 -63.2819
| 19> C 	 -103.253 	 -24.2307 	 -63.3676
| 20> H 	 -103.586 	 -23.2688 	 -63.0754
| 21> H 	 -103.209 	 -24.2162 	 -64.4158
| 22> H 	 -103.835 	 -24.9968 	 -62.8362
| 23> S 	 -95.806 	 -23.5184 	 -58.8647
| 24> C 	 -94.7963 	 -22.16 	 -59.2456
| 25> C 	 -94.9825 	 -21.7767 	 -60.5391
| 26> C 	 -96.1684 	 -22.3247 	 -61.1169
| 27> C 	 -96.8076 	 -23.2503 	 -60.2887
| 28> H 	 -94.5119 	 -20.8515 	 -60.8227
| 29> C 	 -96.7078 	 -21.8558 	 -62.4239
| 30> H 	 -97.7885 	 -22.0688 	 -62.5928
| 31> H 	 -96.1889 	 -22.4079 	 -63.1947
| 32> C 	 -96.4813 	 -20.3506 	 -62.537
| 33> H 	 -95.4556 	 -20.0714 	 -62.6003
| 34> H 	 -97.0642 	 -19.8319 	 -61.7112
| 35> C 	 -97.2261 	 -19.7307 	 -63.6909
| 36> H 	 -97.3624 	 -18.6385 	 -63.5918
| 37> H 	 -98.2778 	 -20.1124 	 -63.8527
| 38> H 	 -96.7848 	 -19.9086 	 -64.7358
| 39> H 	 -100.063 	 -26.849 	 -60.9095
| 40> H 	 -94.0196 	 -21.7485 	 -58.5921
| 41> *
| 42>
| 43>                          ****END OF INPUT****

CARTESIAN COORDINATES (ANGSTROEM)
---------------------------------
  S    -97.881800  -25.736800  -60.038400
  C    -99.605000  -25.964500  -60.519900
  C    -100.159000  -24.733200  -60.891200
  C    -99.295400  -23.660500  -60.738900
  C    -97.983400  -24.047100  -60.461500
  H    -99.608100  -22.669300  -61.028500
  C    -101.597000  -24.572700  -61.404400
  H    -101.992000  -23.640300  -60.825200
  H    -102.291000  -25.319900  -61.039800
  C    -101.793000  -24.602700  -62.939300
  H    -101.125000  -23.866700  -63.383000
  H    -101.513000  -25.578000  -63.281900
  C    -103.253000  -24.230700  -63.367600
  H    -103.586000  -23.268800  -63.075400
  H    -103.209000  -24.216200  -64.415800
  H    -103.835000  -24.996800  -62.836200
  S    -95.806000  -23.518400  -58.864700
  C    -94.796300  -22.160000  -59.245600
  C    -94.982500  -21.776700  -60.539100
  C    -96.168400  -22.324700  -61.116900
  C    -96.807600  -23.250300  -60.288700
  H    -94.511900  -20.851500  -60.822700
  C    -96.707800  -21.855800  -62.423900
  H    -97.788500  -22.068800  -62.592800
  H    -96.188900  -22.407900  -63.194700
  C    -96.481300  -20.350600  -62.537000
  H    -95.455600  -20.071400  -62.600300
  H    -97.064200  -19.831900  -61.711200
  C    -97.226100  -19.730700  -63.690900
  H    -97.362400  -18.638500  -63.591800
  H    -98.277800  -20.112400  -63.852700
  H    -96.784800  -19.908600  -64.735800
  H    -100.063000  -26.849000  -60.909500
  H    -94.019600  -21.748500  -58.592100

 Total Charge           Charge          ....    0
 Multiplicity           Mult            ....    1
 Number of Electrons    NEL             ....  134
 Basis Dimension        Dim             ....  322

ORBITAL ENERGIES
----------------

  NO   OCC          E(Eh)            E(eV)
   0   2.0000     -88.969014     -2420.9699
   1   2.0000     -88.962342     -2420.7884
   2   2.0000     -10.333006      -281.1754
   3   2.0000     -10.323799      -280.9249
   4   2.0000     -10.317816      -280.7620
   5   2.0000     -10.311613      -280.5933
   6   2.0000     -10.303611      -280.3755
   7   2.0000     -10.299826      -280.2725
   8   2.0000     -10.299428      -280.2617
   9   2.0000     -10.291818      -280.0546
  10   2.0000     -10.291317      -280.0410
  11   2.0000     -10.289854      -280.0011
  12   2.0000     -10.289841      -280.0008
  13   2.0000     -10.289534      -279.9925
  14   2.0000     -10.286186      -279.9014
  15   2.0000     -10.277743      -279.6716
  16   2.0000      -8.082879      -219.9463
  17   2.0000      -8.077529      -219.8007
  18   2.0000      -6.041431      -164.3957
  19   2.0000      -6.037543      -164.2899
  20   2.0000      -6.036002      -164.2480
  21   2.0000      -6.033597      -164.1825
  22   2.0000      -6.032050      -164.1404
  23   2.0000      -6.028205      -164.0358
  24   2.0000      -1.009621       -27.4732
  25   2.0000      -0.984225       -26.7821
  26   2.0000      -0.917697       -24.9718
  27   2.0000      -0.909599       -24.7514
  28   2.0000      -0.873321       -23.7643
  29   2.0000      -0.853749       -23.2317
  30   2.0000      -0.845416       -23.0050
  31   2.0000      -0.815293       -22.1852
  32   2.0000      -0.783160       -21.3109
  33   2.0000      -0.769117       -20.9287
  34   2.0000      -0.707736       -19.2585
  35   2.0000      -0.703121       -19.1329
  36   2.0000      -0.699671       -19.0390
  37   2.0000      -0.652617       -17.7586
  38   2.0000      -0.636938       -17.3320
  39   2.0000      -0.624989       -17.0068
  40   2.0000      -0.602234       -16.3876
  41   2.0000      -0.575388       -15.6571
  42   2.0000      -0.569112       -15.4863
  43   2.0000      -0.560230       -15.2446
  44   2.0000      -0.534466       -14.5436
  45   2.0000      -0.530270       -14.4294
  46   2.0000      -0.519070       -14.1246
  47   2.0000      -0.510239       -13.8843
  48   2.0000      -0.503397       -13.6981
  49   2.0000      -0.496716       -13.5163
  50   2.0000      -0.490027       -13.3343
  51   2.0000      -0.485794       -13.2191
  52   2.0000      -0.470848       -12.8124
  53   2.0000      -0.465874       -12.6771
  54   2.0000      -0.459818       -12.5123
  55   2.0000      -0.454795       -12.3756
  56   2.0000      -0.445523       -12.1233
  57   2.0000      -0.439899       -11.9703
  58   2.0000      -0.429778       -11.6949
  59   2.0000      -0.422333       -11.4923
  60   2.0000      -0.418491       -11.3877
  61   2.0000      -0.410844       -11.1796
  62   2.0000      -0.408509       -11.1161
  63   2.0000      -0.349828        -9.5193
  64   2.0000      -0.336756        -9.1636
  65   2.0000      -0.328803        -8.9472
  66   2.0000      -0.283409        -7.7119
  67   0.0000       0.024708         0.6723
  68   0.0000       0.059378         1.6158
  69   0.0000       0.099686         2.7126
  70   0.0000       0.119654         3.2559
  71   0.0000       0.129189         3.5154

MULLIKEN ATOMIC CHARGES
-----------------------
   0 S :    0.101222
   1 C :   -0.094394
   2 C :   -0.105927
   3 C :    0.055200
   4 C :   -0.158739
   5 H :    0.007001
   6 C :   -0.003410
   7 H :    0.040895
   8 H :    0.014784
   9 C :   -0.064923
  10 H :    0.021575
  11 H :    0.026634
  12 C :   -0.008117
  13 H :    0.022532
  14 H :    0.032000
  15 H :    0.035397
  16 S :    0.095215
  17 C :   -0.106266
  18 C :   -0.009994
  19 C :   -0.060204
  20 C :   -0.136665
  21 H :    0.026125
  22 C :    0.111602
  23 H :    0.018629
  24 H :    0.035078
  25 C :   -0.106696
  26 H :    0.044400
  27 H :    0.048631
  28 C :   -0.091991
  29 H :    0.039230
  30 H :    0.026363
  31 H :    0.030267
  32 H :    0.047269
  33 H :    0.067277
Sum of atomic charges:   -0.0000000

LOEWDIN ATOMIC CHARGES
----------------------
   0 S :    0.394535
   1 C :   -0.197217
   2 C :   -0.057998
   3 C :   -0.067866
   4 C :   -0.178514
   5 H :    0.028862
   6 C :   -0.042651
   7 H :    0.040634
   8 H :    0.023985
   9 C :   -0.032189
  10 H :    0.018154
  11 H :    0.021715
  12 C :   -0.052577
  13 H :    0.019659
  14 H :    0.022981
  15 H :    0.029237
  16 S :    0.397095
  17 C :   -0.176769
  18 C :   -0.079647
  19 C :   -0.050621
  20 C :   -0.203346
  21 H :    0.031329
  22 C :   -0.030196
  23 H :    0.033283
  24 H :    0.035214
  25 C :   -0.046178
  26 H :    0.022399
  27 H :    0.041217
  28 C :   -0.082201
  29 H :    0.026014
  30 H :    0.025764
  31 H :    0.024812
  32 H :    0.025448
  33 H :    0.035634

  Mayer bond orders larger than 0.100000
B(  0-S ,  1-C ) :   1.1167 B(  0-S ,  4-C ) :   1.1685 B(  1-C ,  2-C ) :   1.6094
B(  1-C ,  4-C ) :   0.1153 B(  1-C , 32-H ) :   0.9606 B(  2-C ,  3-C ) :   1.2805
B(  2-C ,  6-C ) :   1.0168 B(  3-C ,  4-C ) :   1.5320 B(  3-C ,  5-H ) :   0.9875
B(  4-C , 20-C ) :   1.0661 B(  6-C ,  7-H ) :   0.9479 B(  6-C ,  8-H ) :   0.9436
B(  6-C ,  9-C ) :   1.0514 B(  9-C , 10-H ) :   0.9598 B(  9-C , 11-H ) :   0.9549
B(  9-C , 12-C ) :   1.0728 B( 12-C , 13-H ) :   0.9779 B( 12-C , 14-H ) :   0.9753
B( 12-C , 15-H ) :   0.9768 B( 16-S , 17-C ) :   1.1612 B( 16-S , 20-C ) :   1.1205
B( 17-C , 18-C ) :   1.6311 B( 17-C , 33-H ) :   0.9633 B( 18-C , 19-C ) :   1.2325
B( 18-C , 21-H ) :   0.9744 B( 19-C , 20-C ) :   1.5970 B( 19-C , 22-C ) :   1.0478
B( 22-C , 23-H ) :   0.9408 B( 22-C , 24-H ) :   0.9138 B( 22-C , 25-C ) :   1.0662
B( 25-C , 26-H ) :   0.9457 B( 25-C , 27-H ) :   0.9596 B( 25-C , 28-C ) :   1.0836
B( 28-C , 29-H ) :   0.9773 B( 28-C , 30-H ) :   0.9710 B( 28-C , 31-H ) :   0.9697

Dispersion correction           -0.013510546
FINAL SINGLE POINT ENERGY     -1339.854843855433

DIPOLE MOMENT
-------------
                                X             Y             Z
Electronic contribution:     18.86575     -14.49943      22.50912
Nuclear contribution   :    -19.12610      15.04980     -23.10231
                        -----------------------------------------
Total Dipole Moment    :     -0.26035       0.55038      -0.59319
                        -----------------------------------------
Magnitude (a.u.)       :      0.85004
Magnitude (Debye)      :      2.16064

Rotational constants in cm-1:     0.017247     0.008847     0.006116
Rotational constants in MHz :   517.044197   265.229132   183.364677

                             ****ORCA TERMINATED NORMALLY****
TOTAL RUN TIME: 0 days 0 hours 0 minutes 21 seconds 242 msec
