                         Program Version 4.2.1 -  RELEASE  -
|  1> ! wB97X-D3 SP def2-SVP
|  2> %pal
|  3> nprocs 24
|  4> end
|  5>
|  6> * xyz 0 1
|  7> S 	 -120.754 	 36.7784 	 -122.724
|  8> C 	 -119.662 	 35.6395 	 -123.489
|  9> C 	 -119.466 	 34.5378 	 -122.699
| 10> C 	 -119.657 	 34.916 	 -121.286
| 11> C 	 -120.37 	 36.1084 	 -121.136
| 12> H 	 -119.364 	 34.3822 	 -120.439
| 13> C 	 -118.76 	 33.246 	 -123.103
| 14> H 	 -119.398 	 32.7947 	 -123.852
| 15> H 	 -118.932 	 32.4072 	 -122.405
| 16> C 	 -117.305 	 33.3682 	 -123.527
| 17> H 	 -116.883 	 32.4206 	 -123.912
| 18> H 	 -117.185 	 33.9789 	 -124.5
| 19> C 	 -116.453 	 33.8566 	 -122.419
| 20> H 	 -115.432 	 34.0923 	 -122.792
| 21> H 	 -116.854 	 34.8014 	 -121.963
| 22> H 	 -116.489 	 33.0736 	 -121.628
| 23> S 	 -122.458 	 37.2743 	 -119.748
| 24> C 	 -122.16 	 38.0463 	 -118.225
| 25> C 	 -120.886 	 37.724 	 -117.809
| 26> C 	 -120.014 	 37.1206 	 -118.816
| 27> C 	 -120.747 	 36.7843 	 -119.938
| 28> H 	 -120.566 	 38.2036 	 -116.866
| 29> C 	 -118.49 	 36.915 	 -118.602
| 30> H 	 -118.16 	 37.7088 	 -117.95
| 31> H 	 -118.036 	 37.1746 	 -119.609
| 32> C 	 -117.876 	 35.596 	 -118.16
| 33> H 	 -116.939 	 35.8277 	 -117.661
| 34> H 	 -117.535 	 34.9778 	 -119.014
| 35> C 	 -118.759 	 34.7411 	 -117.271
| 36> H 	 -119.692 	 34.4621 	 -117.711
| 37> H 	 -118.912 	 35.2035 	 -116.348
| 38> H 	 -118.191 	 33.8152 	 -117.069
| 39> H 	 -119.389 	 35.7603 	 -124.568
| 40> H 	 -122.884 	 38.4155 	 -117.519
| 41> *
| 42>
| 43>                          ****END OF INPUT****

CARTESIAN COORDINATES (ANGSTROEM)
---------------------------------
  S    -120.754000   36.778400  -122.724000
  C    -119.662000   35.639500  -123.489000
  C    -119.466000   34.537800  -122.699000
  C    -119.657000   34.916000  -121.286000
  C    -120.370000   36.108400  -121.136000
  H    -119.364000   34.382200  -120.439000
  C    -118.760000   33.246000  -123.103000
  H    -119.398000   32.794700  -123.852000
  H    -118.932000   32.407200  -122.405000
  C    -117.305000   33.368200  -123.527000
  H    -116.883000   32.420600  -123.912000
  H    -117.185000   33.978900  -124.500000
  C    -116.453000   33.856600  -122.419000
  H    -115.432000   34.092300  -122.792000
  H    -116.854000   34.801400  -121.963000
  H    -116.489000   33.073600  -121.628000
  S    -122.458000   37.274300  -119.748000
  C    -122.160000   38.046300  -118.225000
  C    -120.886000   37.724000  -117.809000
  C    -120.014000   37.120600  -118.816000
  C    -120.747000   36.784300  -119.938000
  H    -120.566000   38.203600  -116.866000
  C    -118.490000   36.915000  -118.602000
  H    -118.160000   37.708800  -117.950000
  H    -118.036000   37.174600  -119.609000
  C    -117.876000   35.596000  -118.160000
  H    -116.939000   35.827700  -117.661000
  H    -117.535000   34.977800  -119.014000
  C    -118.759000   34.741100  -117.271000
  H    -119.692000   34.462100  -117.711000
  H    -118.912000   35.203500  -116.348000
  H    -118.191000   33.815200  -117.069000
  H    -119.389000   35.760300  -124.568000
  H    -122.884000   38.415500  -117.519000

 Total Charge           Charge          ....    0
 Multiplicity           Mult            ....    1
 Number of Electrons    NEL             ....  134
 Basis Dimension        Dim             ....  322

ORBITAL ENERGIES
----------------

  NO   OCC          E(Eh)            E(eV)
   0   2.0000     -88.963466     -2420.8190
   1   2.0000     -88.962434     -2420.7909
   2   2.0000     -10.329003      -281.0665
   3   2.0000     -10.327424      -281.0235
   4   2.0000     -10.321124      -280.8521
   5   2.0000     -10.314139      -280.6620
   6   2.0000     -10.310062      -280.5511
   7   2.0000     -10.308334      -280.5040
   8   2.0000     -10.299341      -280.2593
   9   2.0000     -10.295545      -280.1560
  10   2.0000     -10.295295      -280.1492
  11   2.0000     -10.294817      -280.1362
  12   2.0000     -10.294034      -280.1149
  13   2.0000     -10.285667      -279.8872
  14   2.0000     -10.282262      -279.7946
  15   2.0000     -10.268721      -279.4261
  16   2.0000      -8.078338      -219.8228
  17   2.0000      -8.077045      -219.7876
  18   2.0000      -6.036941      -164.2735
  19   2.0000      -6.035654      -164.2385
  20   2.0000      -6.033029      -164.1671
  21   2.0000      -6.031600      -164.1282
  22   2.0000      -6.028771      -164.0512
  23   2.0000      -6.027671      -164.0213
  24   2.0000      -1.004172       -27.3249
  25   2.0000      -0.980773       -26.6882
  26   2.0000      -0.916851       -24.9488
  27   2.0000      -0.907610       -24.6973
  28   2.0000      -0.872992       -23.7553
  29   2.0000      -0.848478       -23.0882
  30   2.0000      -0.841302       -22.8930
  31   2.0000      -0.813543       -22.1376
  32   2.0000      -0.786899       -21.4126
  33   2.0000      -0.777257       -21.1502
  34   2.0000      -0.708733       -19.2856
  35   2.0000      -0.698271       -19.0009
  36   2.0000      -0.689238       -18.7551
  37   2.0000      -0.660012       -17.9598
  38   2.0000      -0.640757       -17.4359
  39   2.0000      -0.611249       -16.6329
  40   2.0000      -0.581678       -15.8283
  41   2.0000      -0.571648       -15.5553
  42   2.0000      -0.562152       -15.2969
  43   2.0000      -0.560879       -15.2623
  44   2.0000      -0.546086       -14.8597
  45   2.0000      -0.537065       -14.6143
  46   2.0000      -0.514602       -14.0030
  47   2.0000      -0.512198       -13.9376
  48   2.0000      -0.503144       -13.6912
  49   2.0000      -0.501464       -13.6455
  50   2.0000      -0.488759       -13.2998
  51   2.0000      -0.479986       -13.0611
  52   2.0000      -0.476205       -12.9582
  53   2.0000      -0.465139       -12.6571
  54   2.0000      -0.454932       -12.3793
  55   2.0000      -0.443817       -12.0769
  56   2.0000      -0.440125       -11.9764
  57   2.0000      -0.433970       -11.8089
  58   2.0000      -0.430953       -11.7268
  59   2.0000      -0.422686       -11.5019
  60   2.0000      -0.417585       -11.3631
  61   2.0000      -0.408742       -11.1224
  62   2.0000      -0.407409       -11.0862
  63   2.0000      -0.350208        -9.5296
  64   2.0000      -0.329002        -8.9526
  65   2.0000      -0.327126        -8.9015
  66   2.0000      -0.289916        -7.8890
  67   0.0000       0.026926         0.7327
  68   0.0000       0.059718         1.6250
  69   0.0000       0.103162         2.8072
  70   0.0000       0.118350         3.2205
  71   0.0000       0.126410         3.4398

MULLIKEN ATOMIC CHARGES
-----------------------
   0 S :    0.110623
   1 C :   -0.150716
   2 C :   -0.066682
   3 C :    0.042063
   4 C :   -0.144851
   5 H :   -0.015803
   6 C :    0.055521
   7 H :    0.022390
   8 H :    0.021363
   9 C :   -0.069656
  10 H :    0.025929
  11 H :    0.029971
  12 C :   -0.063569
  13 H :    0.042059
  14 H :    0.049705
  15 H :    0.032344
  16 S :    0.093674
  17 C :   -0.084823
  18 C :   -0.057447
  19 C :   -0.073027
  20 C :   -0.143312
  21 H :    0.028560
  22 C :    0.079850
  23 H :    0.019316
  24 H :    0.042622
  25 C :   -0.082805
  26 H :    0.023773
  27 H :    0.024237
  28 C :   -0.009025
  29 H :    0.037760
  30 H :    0.016511
  31 H :    0.025854
  32 H :    0.074286
  33 H :    0.063304
Sum of atomic charges:   -0.0000000

LOEWDIN ATOMIC CHARGES
----------------------
   0 S :    0.391262
   1 C :   -0.184999
   2 C :   -0.058948
   3 C :   -0.043539
   4 C :   -0.191191
   5 H :    0.019461
   6 C :   -0.046075
   7 H :    0.034741
   8 H :    0.035159
   9 C :   -0.051981
  10 H :    0.026193
  11 H :    0.027794
  12 C :   -0.071716
  13 H :    0.030858
  14 H :    0.029803
  15 H :    0.027559
  16 S :    0.387338
  17 C :   -0.194865
  18 C :   -0.077484
  19 C :   -0.058440
  20 C :   -0.185435
  21 H :    0.032076
  22 C :   -0.036414
  23 H :    0.028949
  24 H :    0.044562
  25 C :   -0.046776
  26 H :    0.027575
  27 H :    0.022177
  28 C :   -0.057817
  29 H :    0.022442
  30 H :    0.016677
  31 H :    0.030373
  32 H :    0.036945
  33 H :    0.033737

  Mayer bond orders larger than 0.100000
B(  0-S ,  1-C ) :   1.1418 B(  0-S ,  4-C ) :   1.1208 B(  1-C ,  2-C ) :   1.6228
B(  1-C , 32-H ) :   0.9663 B(  2-C ,  3-C ) :   1.1726 B(  2-C ,  6-C ) :   1.0309
B(  3-C ,  4-C ) :   1.5975 B(  3-C ,  5-H ) :   1.0049 B(  4-C , 20-C ) :   1.0721
B(  6-C ,  7-H ) :   0.9254 B(  6-C ,  8-H ) :   0.9420 B(  6-C ,  9-C ) :   1.0747
B(  9-C , 10-H ) :   0.9489 B(  9-C , 11-H ) :   0.9517 B(  9-C , 12-C ) :   1.0768
B( 12-C , 13-H ) :   0.9689 B( 12-C , 14-H ) :   0.9719 B( 12-C , 15-H ) :   0.9714
B( 16-S , 17-C ) :   1.1353 B( 16-S , 20-C ) :   1.1277 B( 17-C , 18-C ) :   1.6542
B( 17-C , 33-H ) :   0.9629 B( 18-C , 19-C ) :   1.2140 B( 18-C , 21-H ) :   0.9741
B( 19-C , 20-C ) :   1.6108 B( 19-C , 22-C ) :   1.0424 B( 22-C , 23-H ) :   0.9347
B( 22-C , 24-H ) :   0.9332 B( 22-C , 25-C ) :   1.0633 B( 25-C , 26-H ) :   0.9488
B( 25-C , 27-H ) :   0.9524 B( 25-C , 28-C ) :   1.1024 B( 28-C , 29-H ) :   0.9660
B( 28-C , 30-H ) :   0.9742 B( 28-C , 31-H ) :   0.9706

Dispersion correction           -0.015896604
FINAL SINGLE POINT ENERGY     -1339.863699376224

DIPOLE MOMENT
-------------
                                X             Y             Z
Electronic contribution:    -24.18646      15.79363      -5.43897
Nuclear contribution   :     24.81089     -16.22615       5.57459
                        -----------------------------------------
Total Dipole Moment    :      0.62443      -0.43252       0.13562
                        -----------------------------------------
Magnitude (a.u.)       :      0.77160
Magnitude (Debye)      :      1.96126

Rotational constants in cm-1:     0.019826     0.009841     0.007184
Rotational constants in MHz :   594.382916   295.019369   215.375883

                             ****ORCA TERMINATED NORMALLY****
TOTAL RUN TIME: 0 days 0 hours 0 minutes 23 seconds 14 msec
