                         Program Version 4.2.1 -  RELEASE  -
|  1> ! wB97X-D3 SP def2-SVP
|  2> %pal
|  3> nprocs 24
|  4> end
|  5>
|  6> * xyz 0 1
|  7> S 	 -106.413 	 41.5656 	 -12.7205
|  8> C 	 -105.823 	 43.1116 	 -12.0918
|  9> C 	 -106.861 	 43.8583 	 -11.6229
| 10> C 	 -108.092 	 43.3218 	 -12.0401
| 11> C 	 -108.086 	 42.0498 	 -12.5865
| 12> H 	 -109.081 	 43.7351 	 -11.8589
| 13> C 	 -106.64 	 45.1047 	 -10.8391
| 14> H 	 -105.886 	 45.0474 	 -10.0417
| 15> H 	 -107.464 	 45.2959 	 -10.181
| 16> C 	 -106.343 	 46.3398 	 -11.733
| 17> H 	 -106.056 	 47.0858 	 -10.9422
| 18> H 	 -105.521 	 46.1556 	 -12.4102
| 19> C 	 -107.66 	 46.8255 	 -12.4823
| 20> H 	 -107.425 	 47.7231 	 -13.1382
| 21> H 	 -108.069 	 46.0482 	 -13.1167
| 22> H 	 -108.338 	 47.0894 	 -11.7485
| 23> S 	 -109.103 	 40.3934 	 -14.5655
| 24> C 	 -110.725 	 39.7742 	 -14.4113
| 25> C 	 -111.333 	 40.217 	 -13.2784
| 26> C 	 -110.498 	 41.1139 	 -12.4835
| 27> C 	 -109.224 	 41.2792 	 -12.9663
| 28> H 	 -112.395 	 39.8985 	 -13.0839
| 29> C 	 -111.122 	 41.7 	 -11.1962
| 30> H 	 -110.279 	 42.1615 	 -10.5788
| 31> H 	 -111.649 	 40.9818 	 -10.588
| 32> C 	 -112.049 	 42.9132 	 -11.4141
| 33> H 	 -112.863 	 42.4814 	 -12.0835
| 34> H 	 -111.553 	 43.7411 	 -11.9954
| 35> C 	 -112.589 	 43.4277 	 -9.97733
| 36> H 	 -113.094 	 42.5921 	 -9.5165
| 37> H 	 -113.333 	 44.1905 	 -10.041
| 38> H 	 -111.813 	 43.8986 	 -9.34376
| 39> H 	 -104.772 	 43.3191 	 -11.9443
| 40> H 	 -111.176 	 39.0614 	 -15.1144
| 41> *
| 42>
| 43>                          ****END OF INPUT****

CARTESIAN COORDINATES (ANGSTROEM)
---------------------------------
  S    -106.413000   41.565600  -12.720500
  C    -105.823000   43.111600  -12.091800
  C    -106.861000   43.858300  -11.622900
  C    -108.092000   43.321800  -12.040100
  C    -108.086000   42.049800  -12.586500
  H    -109.081000   43.735100  -11.858900
  C    -106.640000   45.104700  -10.839100
  H    -105.886000   45.047400  -10.041700
  H    -107.464000   45.295900  -10.181000
  C    -106.343000   46.339800  -11.733000
  H    -106.056000   47.085800  -10.942200
  H    -105.521000   46.155600  -12.410200
  C    -107.660000   46.825500  -12.482300
  H    -107.425000   47.723100  -13.138200
  H    -108.069000   46.048200  -13.116700
  H    -108.338000   47.089400  -11.748500
  S    -109.103000   40.393400  -14.565500
  C    -110.725000   39.774200  -14.411300
  C    -111.333000   40.217000  -13.278400
  C    -110.498000   41.113900  -12.483500
  C    -109.224000   41.279200  -12.966300
  H    -112.395000   39.898500  -13.083900
  C    -111.122000   41.700000  -11.196200
  H    -110.279000   42.161500  -10.578800
  H    -111.649000   40.981800  -10.588000
  C    -112.049000   42.913200  -11.414100
  H    -112.863000   42.481400  -12.083500
  H    -111.553000   43.741100  -11.995400
  C    -112.589000   43.427700   -9.977330
  H    -113.094000   42.592100   -9.516500
  H    -113.333000   44.190500  -10.041000
  H    -111.813000   43.898600   -9.343760
  H    -104.772000   43.319100  -11.944300
  H    -111.176000   39.061400  -15.114400

 Total Charge           Charge          ....    0
 Multiplicity           Mult            ....    1
 Number of Electrons    NEL             ....  134
 Basis Dimension        Dim             ....  322

ORBITAL ENERGIES
----------------

  NO   OCC          E(Eh)            E(eV)
   0   2.0000     -88.965334     -2420.8698
   1   2.0000     -88.961481     -2420.7650
   2   2.0000     -10.334279      -281.2100
   3   2.0000     -10.328932      -281.0645
   4   2.0000     -10.319855      -280.8175
   5   2.0000     -10.314071      -280.6601
   6   2.0000     -10.312931      -280.6291
   7   2.0000     -10.303485      -280.3721
   8   2.0000     -10.299468      -280.2628
   9   2.0000     -10.298494      -280.2363
  10   2.0000     -10.298246      -280.2295
  11   2.0000     -10.294157      -280.1183
  12   2.0000     -10.292700      -280.0786
  13   2.0000     -10.291089      -280.0348
  14   2.0000     -10.286394      -279.9070
  15   2.0000     -10.278435      -279.6904
  16   2.0000      -8.079802      -219.8626
  17   2.0000      -8.075718      -219.7515
  18   2.0000      -6.038353      -164.3119
  19   2.0000      -6.034395      -164.2042
  20   2.0000      -6.034322      -164.2023
  21   2.0000      -6.030534      -164.0992
  22   2.0000      -6.030397      -164.0954
  23   2.0000      -6.026204      -163.9814
  24   2.0000      -1.007506       -27.4156
  25   2.0000      -0.983378       -26.7591
  26   2.0000      -0.912688       -24.8355
  27   2.0000      -0.901777       -24.5386
  28   2.0000      -0.872190       -23.7335
  29   2.0000      -0.845039       -22.9947
  30   2.0000      -0.837311       -22.7844
  31   2.0000      -0.814956       -22.1761
  32   2.0000      -0.784302       -21.3419
  33   2.0000      -0.775673       -21.1071
  34   2.0000      -0.710024       -19.3207
  35   2.0000      -0.703415       -19.1409
  36   2.0000      -0.691080       -18.8052
  37   2.0000      -0.662339       -18.0232
  38   2.0000      -0.643002       -17.4970
  39   2.0000      -0.617091       -16.7919
  40   2.0000      -0.596689       -16.2367
  41   2.0000      -0.579118       -15.7586
  42   2.0000      -0.565090       -15.3769
  43   2.0000      -0.542088       -14.7510
  44   2.0000      -0.535180       -14.5630
  45   2.0000      -0.517669       -14.0865
  46   2.0000      -0.516580       -14.0569
  47   2.0000      -0.510955       -13.9038
  48   2.0000      -0.507243       -13.8028
  49   2.0000      -0.502876       -13.6839
  50   2.0000      -0.492852       -13.4112
  51   2.0000      -0.478512       -13.0210
  52   2.0000      -0.472832       -12.8664
  53   2.0000      -0.463695       -12.6178
  54   2.0000      -0.462796       -12.5933
  55   2.0000      -0.446659       -12.1542
  56   2.0000      -0.445739       -12.1292
  57   2.0000      -0.439947       -11.9716
  58   2.0000      -0.430552       -11.7159
  59   2.0000      -0.423103       -11.5132
  60   2.0000      -0.419155       -11.4058
  61   2.0000      -0.413299       -11.2464
  62   2.0000      -0.409694       -11.1483
  63   2.0000      -0.353603        -9.6220
  64   2.0000      -0.331874        -9.0307
  65   2.0000      -0.328994        -8.9524
  66   2.0000      -0.292254        -7.9526
  67   0.0000       0.022756         0.6192
  68   0.0000       0.075222         2.0469
  69   0.0000       0.104572         2.8455
  70   0.0000       0.116722         3.1762
  71   0.0000       0.125352         3.4110

MULLIKEN ATOMIC CHARGES
-----------------------
   0 S :    0.109384
   1 C :   -0.123704
   2 C :   -0.059108
   3 C :    0.024032
   4 C :   -0.139054
   5 H :   -0.011137
   6 C :    0.051090
   7 H :    0.025942
   8 H :    0.007221
   9 C :   -0.080029
  10 H :    0.035664
  11 H :    0.036397
  12 C :   -0.048135
  13 H :    0.046525
  14 H :    0.045725
  15 H :    0.015770
  16 S :    0.077675
  17 C :   -0.087113
  18 C :   -0.051436
  19 C :   -0.015011
  20 C :   -0.130644
  21 H :    0.041283
  22 C :    0.019112
  23 H :    0.030792
  24 H :    0.030896
  25 C :   -0.122279
  26 H :    0.035848
  27 H :    0.051585
  28 C :   -0.040612
  29 H :    0.032317
  30 H :    0.027380
  31 H :    0.043463
  32 H :    0.052083
  33 H :    0.068078
Sum of atomic charges:    0.0000000

LOEWDIN ATOMIC CHARGES
----------------------
   0 S :    0.400277
   1 C :   -0.178569
   2 C :   -0.068365
   3 C :   -0.064270
   4 C :   -0.199227
   5 H :    0.026382
   6 C :   -0.038563
   7 H :    0.033496
   8 H :    0.026502
   9 C :   -0.030213
  10 H :    0.028257
  11 H :    0.020097
  12 C :   -0.061532
  13 H :    0.034567
  14 H :    0.026044
  15 H :    0.012511
  16 S :    0.365104
  17 C :   -0.179733
  18 C :   -0.084514
  19 C :   -0.049177
  20 C :   -0.168020
  21 H :    0.041866
  22 C :   -0.038138
  23 H :    0.032544
  24 H :    0.027279
  25 C :   -0.044192
  26 H :    0.026579
  27 H :    0.025608
  28 C :   -0.066045
  29 H :    0.025206
  30 H :    0.021806
  31 H :    0.030933
  32 H :    0.028813
  33 H :    0.036687

  Mayer bond orders larger than 0.100000
B(  0-S ,  1-C ) :   1.1414 B(  0-S ,  4-C ) :   1.1436 B(  1-C ,  2-C ) :   1.5896
B(  1-C ,  4-C ) :   0.1001 B(  1-C , 32-H ) :   0.9698 B(  2-C ,  3-C ) :   1.2497
B(  2-C ,  6-C ) :   1.0290 B(  3-C ,  4-C ) :   1.5583 B(  3-C ,  5-H ) :   0.9905
B(  4-C , 20-C ) :   1.0834 B(  6-C ,  7-H ) :   0.9414 B(  6-C ,  8-H ) :   0.9346
B(  6-C ,  9-C ) :   1.0649 B(  9-C , 10-H ) :   0.9581 B(  9-C , 11-H ) :   0.9625
B(  9-C , 12-C ) :   1.0655 B( 12-C , 13-H ) :   0.9760 B( 12-C , 14-H ) :   0.9771
B( 12-C , 15-H ) :   0.9765 B( 16-S , 17-C ) :   1.1428 B( 16-S , 20-C ) :   1.0942
B( 17-C , 18-C ) :   1.6547 B( 17-C , 33-H ) :   0.9611 B( 18-C , 19-C ) :   1.1875
B( 18-C , 21-H ) :   0.9810 B( 19-C , 20-C ) :   1.6481 B( 19-C , 22-C ) :   1.0354
B( 22-C , 23-H ) :   0.9386 B( 22-C , 24-H ) :   0.9449 B( 22-C , 25-C ) :   1.0482
B( 25-C , 26-H ) :   0.9567 B( 25-C , 27-H ) :   0.9550 B( 25-C , 28-C ) :   1.0609
B( 28-C , 29-H ) :   0.9756 B( 28-C , 30-H ) :   0.9771 B( 28-C , 31-H ) :   0.9767

Dispersion correction           -0.014330683
FINAL SINGLE POINT ENERGY     -1339.874882736164

DIPOLE MOMENT
-------------
                                X             Y             Z
Electronic contribution:     11.77907     -23.53504     -14.76672
Nuclear contribution   :    -12.21147      23.96905      15.28257
                        -----------------------------------------
Total Dipole Moment    :     -0.43240       0.43401       0.51585
                        -----------------------------------------
Magnitude (a.u.)       :      0.80090
Magnitude (Debye)      :      2.03572

Rotational constants in cm-1:     0.016431     0.009611     0.006842
Rotational constants in MHz :   492.593680   288.119125   205.130272

                             ****ORCA TERMINATED NORMALLY****
TOTAL RUN TIME: 0 days 0 hours 0 minutes 21 seconds 742 msec
