                         Program Version 4.2.1 -  RELEASE  -
|  1> ! wB97X-D3 SP def2-SVP
|  2> %pal
|  3> nprocs 24
|  4> end
|  5>
|  6> * xyz 0 1
|  7> S 	 -99.2832 	 2.31017 	 -106.917
|  8> C 	 -98.8594 	 0.633907 	 -107.304
|  9> C 	 -99.68 	 -0.276856 	 -106.695
| 10> C 	 -100.802 	 0.341902 	 -106.088
| 11> C 	 -100.851 	 1.72173 	 -106.294
| 12> H 	 -101.597 	 -0.191823 	 -105.654
| 13> C 	 -99.4786 	 -1.72445 	 -106.674
| 14> H 	 -98.8692 	 -2.21018 	 -105.871
| 15> H 	 -99.0856 	 -1.84336 	 -107.648
| 16> C 	 -100.735 	 -2.65271 	 -106.619
| 17> H 	 -101.041 	 -2.84697 	 -105.582
| 18> H 	 -101.508 	 -2.17065 	 -107.186
| 19> C 	 -100.571 	 -4.09892 	 -107.317
| 20> H 	 -100.398 	 -4.09709 	 -108.437
| 21> H 	 -99.7835 	 -4.70031 	 -106.849
| 22> H 	 -101.444 	 -4.66547 	 -107.085
| 23> S 	 -101.335 	 3.87562 	 -104.505
| 24> C 	 -103.028 	 4.0765 	 -104.025
| 25> C 	 -103.907 	 3.50165 	 -104.85
| 26> C 	 -103.243 	 2.62268 	 -105.787
| 27> C 	 -101.805 	 2.65194 	 -105.72
| 28> H 	 -104.987 	 3.6084 	 -104.728
| 29> C 	 -103.979 	 1.87393 	 -106.891
| 30> H 	 -103.284 	 1.38894 	 -107.548
| 31> H 	 -104.622 	 2.57919 	 -107.419
| 32> C 	 -104.939 	 0.836917 	 -106.421
| 33> H 	 -105.736 	 1.43554 	 -105.873
| 34> H 	 -104.465 	 0.274075 	 -105.676
| 35> C 	 -105.444 	 -0.216051 	 -107.468
| 36> H 	 -106.091 	 0.223211 	 -108.158
| 37> H 	 -106.023 	 -1.05102 	 -106.931
| 38> H 	 -104.68 	 -0.807604 	 -107.934
| 39> H 	 -98.0187 	 0.384644 	 -107.803
| 40> H 	 -103.409 	 4.83172 	 -103.32
| 41> *
| 42>
| 43>                          ****END OF INPUT****

CARTESIAN COORDINATES (ANGSTROEM)
---------------------------------
  S    -99.283200    2.310170  -106.917000
  C    -98.859400    0.633907  -107.304000
  C    -99.680000   -0.276856  -106.695000
  C    -100.802000    0.341902  -106.088000
  C    -100.851000    1.721730  -106.294000
  H    -101.597000   -0.191823  -105.654000
  C    -99.478600   -1.724450  -106.674000
  H    -98.869200   -2.210180  -105.871000
  H    -99.085600   -1.843360  -107.648000
  C    -100.735000   -2.652710  -106.619000
  H    -101.041000   -2.846970  -105.582000
  H    -101.508000   -2.170650  -107.186000
  C    -100.571000   -4.098920  -107.317000
  H    -100.398000   -4.097090  -108.437000
  H    -99.783500   -4.700310  -106.849000
  H    -101.444000   -4.665470  -107.085000
  S    -101.335000    3.875620  -104.505000
  C    -103.028000    4.076500  -104.025000
  C    -103.907000    3.501650  -104.850000
  C    -103.243000    2.622680  -105.787000
  C    -101.805000    2.651940  -105.720000
  H    -104.987000    3.608400  -104.728000
  C    -103.979000    1.873930  -106.891000
  H    -103.284000    1.388940  -107.548000
  H    -104.622000    2.579190  -107.419000
  C    -104.939000    0.836917  -106.421000
  H    -105.736000    1.435540  -105.873000
  H    -104.465000    0.274075  -105.676000
  C    -105.444000   -0.216051  -107.468000
  H    -106.091000    0.223211  -108.158000
  H    -106.023000   -1.051020  -106.931000
  H    -104.680000   -0.807604  -107.934000
  H    -98.018700    0.384644  -107.803000
  H    -103.409000    4.831720  -103.320000

 Total Charge           Charge          ....    0
 Multiplicity           Mult            ....    1
 Number of Electrons    NEL             ....  134
 Basis Dimension        Dim             ....  322

ORBITAL ENERGIES
----------------

  NO   OCC          E(Eh)            E(eV)
   0   2.0000     -88.967322     -2420.9239
   1   2.0000     -88.965474     -2420.8736
   2   2.0000     -10.334756      -281.2230
   3   2.0000     -10.332063      -281.1497
   4   2.0000     -10.317206      -280.7454
   5   2.0000     -10.309221      -280.5282
   6   2.0000     -10.309044      -280.5234
   7   2.0000     -10.298403      -280.2338
   8   2.0000     -10.295559      -280.1564
   9   2.0000     -10.294419      -280.1254
  10   2.0000     -10.293425      -280.0983
  11   2.0000     -10.290405      -280.0162
  12   2.0000     -10.288516      -279.9648
  13   2.0000     -10.282325      -279.7963
  14   2.0000     -10.281952      -279.7861
  15   2.0000     -10.281296      -279.7683
  16   2.0000      -8.081397      -219.9060
  17   2.0000      -8.079415      -219.8521
  18   2.0000      -6.039902      -164.3541
  19   2.0000      -6.038076      -164.3044
  20   2.0000      -6.036270      -164.2553
  21   2.0000      -6.034224      -164.1996
  22   2.0000      -6.031933      -164.1372
  23   2.0000      -6.029851      -164.0806
  24   2.0000      -1.002024       -27.2665
  25   2.0000      -0.981468       -26.7071
  26   2.0000      -0.912405       -24.8278
  27   2.0000      -0.910299       -24.7705
  28   2.0000      -0.870813       -23.6960
  29   2.0000      -0.847003       -23.0481
  30   2.0000      -0.841860       -22.9082
  31   2.0000      -0.820059       -22.3149
  32   2.0000      -0.785155       -21.3652
  33   2.0000      -0.772336       -21.0163
  34   2.0000      -0.717126       -19.5140
  35   2.0000      -0.697256       -18.9733
  36   2.0000      -0.692752       -18.8507
  37   2.0000      -0.652637       -17.7592
  38   2.0000      -0.644564       -17.5395
  39   2.0000      -0.626069       -17.0362
  40   2.0000      -0.595487       -16.2040
  41   2.0000      -0.584377       -15.9017
  42   2.0000      -0.573772       -15.6131
  43   2.0000      -0.560724       -15.2581
  44   2.0000      -0.525399       -14.2968
  45   2.0000      -0.517534       -14.0828
  46   2.0000      -0.513159       -13.9638
  47   2.0000      -0.508458       -13.8358
  48   2.0000      -0.501820       -13.6552
  49   2.0000      -0.497772       -13.5451
  50   2.0000      -0.496686       -13.5155
  51   2.0000      -0.482682       -13.1344
  52   2.0000      -0.475166       -12.9299
  53   2.0000      -0.467035       -12.7087
  54   2.0000      -0.462355       -12.5813
  55   2.0000      -0.451549       -12.2873
  56   2.0000      -0.444436       -12.0937
  57   2.0000      -0.435889       -11.8611
  58   2.0000      -0.431550       -11.7431
  59   2.0000      -0.427866       -11.6428
  60   2.0000      -0.420825       -11.4512
  61   2.0000      -0.413635       -11.2556
  62   2.0000      -0.409414       -11.1407
  63   2.0000      -0.350204        -9.5295
  64   2.0000      -0.332834        -9.0569
  65   2.0000      -0.326147        -8.8749
  66   2.0000      -0.287686        -7.8283
  67   0.0000       0.022842         0.6216
  68   0.0000       0.059856         1.6288
  69   0.0000       0.099211         2.6997
  70   0.0000       0.116193         3.1618
  71   0.0000       0.125717         3.4209

MULLIKEN ATOMIC CHARGES
-----------------------
   0 S :    0.093513
   1 C :   -0.065293
   2 C :   -0.087019
   3 C :    0.056866
   4 C :   -0.155040
   5 H :    0.000490
   6 C :    0.094540
   7 H :    0.059433
   8 H :    0.013098
   9 C :   -0.131808
  10 H :    0.042727
  11 H :    0.030516
  12 C :   -0.069738
  13 H :    0.050968
  14 H :    0.028772
  15 H :    0.029668
  16 S :    0.095529
  17 C :   -0.087290
  18 C :   -0.023953
  19 C :   -0.074267
  20 C :   -0.128240
  21 H :    0.031465
  22 C :    0.103561
  23 H :    0.015786
  24 H :    0.027866
  25 C :   -0.103902
  26 H :    0.025643
  27 H :    0.008033
  28 C :   -0.035007
  29 H :    0.028015
  30 H :    0.035339
  31 H :    0.031196
  32 H :   -0.003493
  33 H :    0.062028
Sum of atomic charges:   -0.0000000

LOEWDIN ATOMIC CHARGES
----------------------
   0 S :    0.380292
   1 C :   -0.161202
   2 C :   -0.063596
   3 C :   -0.043827
   4 C :   -0.176252
   5 H :    0.024537
   6 C :   -0.040199
   7 H :    0.043670
   8 H :    0.031703
   9 C :   -0.037776
  10 H :    0.024709
  11 H :    0.017857
  12 C :   -0.070278
  13 H :    0.032448
  14 H :    0.023041
  15 H :    0.023063
  16 S :    0.375180
  17 C :   -0.175487
  18 C :   -0.075629
  19 C :   -0.043945
  20 C :   -0.195956
  21 H :    0.037401
  22 C :   -0.033731
  23 H :    0.024221
  24 H :    0.032693
  25 C :   -0.044559
  26 H :    0.026084
  27 H :    0.010640
  28 C :   -0.061001
  29 H :    0.014919
  30 H :    0.037588
  31 H :    0.023966
  32 H :    0.003082
  33 H :    0.036344

  Mayer bond orders larger than 0.100000
B(  0-S ,  1-C ) :   1.1298 B(  0-S ,  4-C ) :   1.1353 B(  1-C ,  2-C ) :   1.6212
B(  1-C , 32-H ) :   0.9824 B(  2-C ,  3-C ) :   1.2372 B(  2-C ,  6-C ) :   1.0181
B(  3-C ,  4-C ) :   1.5527 B(  3-C ,  5-H ) :   0.9977 B(  4-C , 20-C ) :   1.0634
B(  6-C ,  7-H ) :   0.9321 B(  6-C ,  8-H ) :   0.9347 B(  6-C ,  9-C ) :   1.0727
B(  9-C , 10-H ) :   0.9534 B(  9-C , 11-H ) :   0.9595 B(  9-C , 12-C ) :   1.0791
B( 12-C , 13-H ) :   0.9764 B( 12-C , 14-H ) :   0.9767 B( 12-C , 15-H ) :   0.9747
B( 16-S , 17-C ) :   1.1416 B( 16-S , 20-C ) :   1.1082 B( 17-C , 18-C ) :   1.6557
B( 17-C , 33-H ) :   0.9538 B( 18-C , 19-C ) :   1.2169 B( 18-C , 21-H ) :   0.9837
B( 19-C , 20-C ) :   1.5942 B( 19-C , 22-C ) :   1.0605 B( 22-C , 23-H ) :   0.9334
B( 22-C , 24-H ) :   0.9375 B( 22-C , 25-C ) :   1.0499 B( 25-C , 26-H ) :   0.9562
B( 25-C , 27-H ) :   0.9585 B( 25-C , 28-C ) :   1.0806 B( 28-C , 29-H ) :   0.9783
B( 28-C , 30-H ) :   0.9750 B( 28-C , 31-H ) :   0.9727

Dispersion correction           -0.014012452
FINAL SINGLE POINT ENERGY     -1339.843872441500

DIPOLE MOMENT
-------------
                                X             Y             Z
Electronic contribution:     15.38787      28.92828       8.05049
Nuclear contribution   :    -15.80202     -29.58888      -8.09562
                        -----------------------------------------
Total Dipole Moment    :     -0.41415      -0.66060      -0.04513
                        -----------------------------------------
Magnitude (a.u.)       :      0.78100
Magnitude (Debye)      :      1.98513

Rotational constants in cm-1:     0.016163     0.009516     0.006632
Rotational constants in MHz :   484.554650   285.273042   198.830482

                             ****ORCA TERMINATED NORMALLY****
TOTAL RUN TIME: 0 days 0 hours 0 minutes 21 seconds 904 msec
