                         Program Version 4.2.1 -  RELEASE  -
|  1> ! wB97X-D3 SP def2-SVP
|  2> %pal
|  3> nprocs 24
|  4> end
|  5>
|  6> * xyz 0 1
|  7> S 	 -91.2624 	 -7.14347 	 -120.528
|  8> C 	 -92.9335 	 -7.47695 	 -120.61
|  9> C 	 -93.5959 	 -7.00701 	 -119.501
| 10> C 	 -92.7319 	 -6.3055 	 -118.598
| 11> C 	 -91.4107 	 -6.30154 	 -118.991
| 12> H 	 -93.1382 	 -5.77369 	 -117.718
| 13> C 	 -95.0914 	 -7.22849 	 -119.204
| 14> H 	 -95.4788 	 -7.85512 	 -120.043
| 15> H 	 -95.5904 	 -6.25295 	 -119.204
| 16> C 	 -95.5635 	 -7.72917 	 -117.89
| 17> H 	 -95.2259 	 -7.02786 	 -117.128
| 18> H 	 -96.6727 	 -7.66336 	 -117.998
| 19> C 	 -95.0558 	 -9.14056 	 -117.473
| 20> H 	 -95.4523 	 -9.98731 	 -118.034
| 21> H 	 -93.9248 	 -9.04377 	 -117.503
| 22> H 	 -95.2485 	 -9.30478 	 -116.381
| 23> S 	 -89.2433 	 -4.62223 	 -119.593
| 24> C 	 -88.344 	 -3.83275 	 -118.275
| 25> C 	 -88.9424 	 -4.1694 	 -117.09
| 26> C 	 -89.9641 	 -5.19322 	 -117.144
| 27> C 	 -90.2743 	 -5.54753 	 -118.459
| 28> H 	 -88.561 	 -3.70853 	 -116.205
| 29> C 	 -90.5529 	 -5.84103 	 -115.878
| 30> H 	 -91.6427 	 -6.0048 	 -115.905
| 31> H 	 -90.4818 	 -5.0857 	 -115.068
| 32> C 	 -89.8193 	 -7.13612 	 -115.401
| 33> H 	 -89.8494 	 -7.83081 	 -116.321
| 34> H 	 -90.3354 	 -7.59471 	 -114.593
| 35> C 	 -88.434 	 -6.78269 	 -114.786
| 36> H 	 -87.7541 	 -6.28286 	 -115.469
| 37> H 	 -87.8998 	 -7.72172 	 -114.497
| 38> H 	 -88.4903 	 -6.24007 	 -113.796
| 39> H 	 -93.3915 	 -7.95763 	 -121.506
| 40> H 	 -87.5516 	 -3.10761 	 -118.497
| 41> *
| 42>
| 43>                          ****END OF INPUT****

CARTESIAN COORDINATES (ANGSTROEM)
---------------------------------
  S    -91.262400   -7.143470  -120.528000
  C    -92.933500   -7.476950  -120.610000
  C    -93.595900   -7.007010  -119.501000
  C    -92.731900   -6.305500  -118.598000
  C    -91.410700   -6.301540  -118.991000
  H    -93.138200   -5.773690  -117.718000
  C    -95.091400   -7.228490  -119.204000
  H    -95.478800   -7.855120  -120.043000
  H    -95.590400   -6.252950  -119.204000
  C    -95.563500   -7.729170  -117.890000
  H    -95.225900   -7.027860  -117.128000
  H    -96.672700   -7.663360  -117.998000
  C    -95.055800   -9.140560  -117.473000
  H    -95.452300   -9.987310  -118.034000
  H    -93.924800   -9.043770  -117.503000
  H    -95.248500   -9.304780  -116.381000
  S    -89.243300   -4.622230  -119.593000
  C    -88.344000   -3.832750  -118.275000
  C    -88.942400   -4.169400  -117.090000
  C    -89.964100   -5.193220  -117.144000
  C    -90.274300   -5.547530  -118.459000
  H    -88.561000   -3.708530  -116.205000
  C    -90.552900   -5.841030  -115.878000
  H    -91.642700   -6.004800  -115.905000
  H    -90.481800   -5.085700  -115.068000
  C    -89.819300   -7.136120  -115.401000
  H    -89.849400   -7.830810  -116.321000
  H    -90.335400   -7.594710  -114.593000
  C    -88.434000   -6.782690  -114.786000
  H    -87.754100   -6.282860  -115.469000
  H    -87.899800   -7.721720  -114.497000
  H    -88.490300   -6.240070  -113.796000
  H    -93.391500   -7.957630  -121.506000
  H    -87.551600   -3.107610  -118.497000

 Total Charge           Charge          ....    0
 Multiplicity           Mult            ....    1
 Number of Electrons    NEL             ....  134
 Basis Dimension        Dim             ....  322

ORBITAL ENERGIES
----------------

  NO   OCC          E(Eh)            E(eV)
   0   2.0000     -88.965126     -2420.8642
   1   2.0000     -88.962389     -2420.7897
   2   2.0000     -10.333660      -281.1932
   3   2.0000     -10.333424      -281.1868
   4   2.0000     -10.323147      -280.9071
   5   2.0000     -10.315316      -280.6940
   6   2.0000     -10.309825      -280.5446
   7   2.0000     -10.301233      -280.3108
   8   2.0000     -10.299160      -280.2544
   9   2.0000     -10.297952      -280.2215
  10   2.0000     -10.296703      -280.1875
  11   2.0000     -10.294112      -280.1170
  12   2.0000     -10.292488      -280.0728
  13   2.0000     -10.290569      -280.0206
  14   2.0000     -10.283833      -279.8373
  15   2.0000     -10.283283      -279.8224
  16   2.0000      -8.080751      -219.8884
  17   2.0000      -8.076384      -219.7696
  18   2.0000      -6.039163      -164.3340
  19   2.0000      -6.035111      -164.2237
  20   2.0000      -6.034976      -164.2200
  21   2.0000      -6.031572      -164.1274
  22   2.0000      -6.030976      -164.1112
  23   2.0000      -6.027081      -164.0052
  24   2.0000      -1.007039       -27.4029
  25   2.0000      -0.981825       -26.7168
  26   2.0000      -0.914814       -24.8933
  27   2.0000      -0.900225       -24.4964
  28   2.0000      -0.870789       -23.6954
  29   2.0000      -0.847223       -23.0541
  30   2.0000      -0.837304       -22.7842
  31   2.0000      -0.814203       -22.1556
  32   2.0000      -0.782661       -21.2973
  33   2.0000      -0.772569       -21.0227
  34   2.0000      -0.709450       -19.3051
  35   2.0000      -0.691823       -18.8255
  36   2.0000      -0.685962       -18.6660
  37   2.0000      -0.659313       -17.9408
  38   2.0000      -0.636436       -17.3183
  39   2.0000      -0.625693       -17.0260
  40   2.0000      -0.592884       -16.1332
  41   2.0000      -0.567319       -15.4375
  42   2.0000      -0.554686       -15.0938
  43   2.0000      -0.550701       -14.9853
  44   2.0000      -0.543949       -14.8016
  45   2.0000      -0.535637       -14.5754
  46   2.0000      -0.513768       -13.9803
  47   2.0000      -0.506546       -13.7838
  48   2.0000      -0.504892       -13.7388
  49   2.0000      -0.491168       -13.3654
  50   2.0000      -0.485614       -13.2142
  51   2.0000      -0.483026       -13.1438
  52   2.0000      -0.475090       -12.9278
  53   2.0000      -0.463759       -12.6195
  54   2.0000      -0.461637       -12.5618
  55   2.0000      -0.443172       -12.0593
  56   2.0000      -0.438664       -11.9367
  57   2.0000      -0.429694       -11.6926
  58   2.0000      -0.427306       -11.6276
  59   2.0000      -0.422905       -11.5078
  60   2.0000      -0.418822       -11.3967
  61   2.0000      -0.415296       -11.3008
  62   2.0000      -0.410031       -11.1575
  63   2.0000      -0.357069        -9.7163
  64   2.0000      -0.330330        -8.9887
  65   2.0000      -0.328145        -8.9293
  66   2.0000      -0.290923        -7.9164
  67   0.0000       0.022025         0.5993
  68   0.0000       0.078499         2.1361
  69   0.0000       0.107484         2.9248
  70   0.0000       0.117938         3.2092
  71   0.0000       0.126662         3.4467

MULLIKEN ATOMIC CHARGES
-----------------------
   0 S :    0.105659
   1 C :   -0.143583
   2 C :   -0.096016
   3 C :    0.005817
   4 C :   -0.143046
   5 H :    0.029635
   6 C :    0.070811
   7 H :    0.020538
   8 H :    0.034101
   9 C :   -0.093734
  10 H :    0.023426
  11 H :    0.040425
  12 C :   -0.072821
  13 H :    0.044351
  14 H :    0.047258
  15 H :    0.035052
  16 S :    0.079694
  17 C :   -0.108719
  18 C :   -0.014249
  19 C :   -0.046871
  20 C :   -0.113501
  21 H :    0.014055
  22 C :    0.044549
  23 H :    0.023873
  24 H :    0.014095
  25 C :   -0.050950
  26 H :    0.057061
  27 H :    0.026350
  28 C :   -0.095595
  29 H :    0.045399
  30 H :    0.034057
  31 H :    0.039438
  32 H :    0.068785
  33 H :    0.074658
Sum of atomic charges:   -0.0000000

LOEWDIN ATOMIC CHARGES
----------------------
   0 S :    0.419502
   1 C :   -0.213412
   2 C :   -0.072036
   3 C :   -0.065036
   4 C :   -0.190197
   5 H :    0.035323
   6 C :   -0.038436
   7 H :    0.030640
   8 H :    0.037470
   9 C :   -0.048237
  10 H :    0.022290
  11 H :    0.032160
  12 C :   -0.076564
  13 H :    0.024689
  14 H :    0.035771
  15 H :    0.029014
  16 S :    0.370578
  17 C :   -0.175265
  18 C :   -0.068072
  19 C :   -0.057744
  20 C :   -0.182859
  21 H :    0.027335
  22 C :   -0.038392
  23 H :    0.027791
  24 H :    0.028506
  25 C :   -0.036854
  26 H :    0.038517
  27 H :    0.020406
  28 C :   -0.077411
  29 H :    0.022783
  30 H :    0.029606
  31 H :    0.031676
  32 H :    0.039265
  33 H :    0.037192

  Mayer bond orders larger than 0.100000
B(  0-S ,  1-C ) :   1.1499 B(  0-S ,  4-C ) :   1.1565 B(  1-C ,  2-C ) :   1.6056
B(  1-C , 32-H ) :   0.9605 B(  2-C ,  3-C ) :   1.2539 B(  2-C ,  6-C ) :   1.0188
B(  3-C ,  4-C ) :   1.5606 B(  3-C ,  5-H ) :   0.9852 B(  4-C , 20-C ) :   1.0503
B(  6-C ,  7-H ) :   0.9432 B(  6-C ,  8-H ) :   0.9324 B(  6-C ,  9-C ) :   1.0828
B(  9-C , 10-H ) :   0.9491 B(  9-C , 11-H ) :   0.9523 B(  9-C , 12-C ) :   1.0733
B( 12-C , 13-H ) :   0.9769 B( 12-C , 14-H ) :   0.9716 B( 12-C , 15-H ) :   0.9754
B( 16-S , 17-C ) :   1.1353 B( 16-S , 20-C ) :   1.1355 B( 17-C , 18-C ) :   1.6117
B( 17-C , 33-H ) :   0.9693 B( 18-C , 19-C ) :   1.2352 B( 18-C , 21-H ) :   0.9905
B( 19-C , 20-C ) :   1.5954 B( 19-C , 22-C ) :   1.0391 B( 22-C , 23-H ) :   0.9388
B( 22-C , 24-H ) :   0.9352 B( 22-C , 25-C ) :   1.0632 B( 25-C , 26-H ) :   0.9583
B( 25-C , 27-H ) :   0.9543 B( 25-C , 28-C ) :   1.0702 B( 28-C , 29-H ) :   0.9769
B( 28-C , 30-H ) :   0.9730 B( 28-C , 31-H ) :   0.9726

Dispersion correction           -0.014536012
FINAL SINGLE POINT ENERGY     -1339.887062495734

DIPOLE MOMENT
-------------
                                X             Y             Z
Electronic contribution:     12.10817      10.30223     -22.05419
Nuclear contribution   :    -12.49690     -10.22986      22.60336
                        -----------------------------------------
Total Dipole Moment    :     -0.38874       0.07236       0.54917
                        -----------------------------------------
Magnitude (a.u.)       :      0.67671
Magnitude (Debye)      :      1.72007

Rotational constants in cm-1:     0.019037     0.008984     0.006857
Rotational constants in MHz :   570.716656   269.329383   205.563478

                             ****ORCA TERMINATED NORMALLY****
TOTAL RUN TIME: 0 days 0 hours 0 minutes 21 seconds 693 msec
