                         Program Version 4.2.1 -  RELEASE  -
|  1> ! wB97X-D3 SP def2-SVP
|  2> %pal
|  3> nprocs 24
|  4> end
|  5>
|  6> * xyz 0 1
|  7> S 	 -66.3981 	 17.2424 	 -104.451
|  8> C 	 -67.9035 	 16.6401 	 -105.151
|  9> C 	 -67.7678 	 16.3251 	 -106.483
| 10> C 	 -66.3363 	 16.4666 	 -106.919
| 11> C 	 -65.4789 	 17.115 	 -106.009
| 12> H 	 -66.0535 	 16.1943 	 -107.974
| 13> C 	 -68.7781 	 15.8322 	 -107.5
| 14> H 	 -68.3824 	 16.3114 	 -108.438
| 15> H 	 -69.6967 	 16.2989 	 -107.197
| 16> C 	 -68.8891 	 14.2838 	 -107.514
| 17> H 	 -67.8695 	 13.8646 	 -107.552
| 18> H 	 -69.2461 	 14.1377 	 -106.482
| 19> C 	 -69.7295 	 13.5539 	 -108.609
| 20> H 	 -70.8088 	 13.7841 	 -108.477
| 21> H 	 -69.3852 	 13.8236 	 -109.624
| 22> H 	 -69.5931 	 12.4442 	 -108.503
| 23> S 	 -63.1511 	 16.4549 	 -104.798
| 24> C 	 -61.6312 	 17.0063 	 -105.432
| 25> C 	 -61.8258 	 17.5782 	 -106.645
| 26> C 	 -63.1769 	 17.5389 	 -107.095
| 27> C 	 -64.0299 	 17.2304 	 -106.069
| 28> H 	 -60.9707 	 18.1649 	 -107.134
| 29> C 	 -63.506 	 17.9577 	 -108.559
| 30> H 	 -62.9899 	 18.98 	 -108.634
| 31> H 	 -64.5348 	 18.1844 	 -108.666
| 32> C 	 -63.0248 	 17.1241 	 -109.76
| 33> H 	 -61.9138 	 16.8235 	 -109.639
| 34> H 	 -63.056 	 17.7523 	 -110.603
| 35> C 	 -63.9677 	 15.9354 	 -110.251
| 36> H 	 -65.0316 	 16.3241 	 -110.145
| 37> H 	 -63.7323 	 15.0112 	 -109.644
| 38> H 	 -63.7873 	 15.6303 	 -111.23
| 39> H 	 -68.7927 	 16.7087 	 -104.627
| 40> H 	 -60.7137 	 17.1438 	 -104.853
| 41> *
| 42>
| 43>                          ****END OF INPUT****

CARTESIAN COORDINATES (ANGSTROEM)
---------------------------------
  S    -66.398100   17.242400  -104.451000
  C    -67.903500   16.640100  -105.151000
  C    -67.767800   16.325100  -106.483000
  C    -66.336300   16.466600  -106.919000
  C    -65.478900   17.115000  -106.009000
  H    -66.053500   16.194300  -107.974000
  C    -68.778100   15.832200  -107.500000
  H    -68.382400   16.311400  -108.438000
  H    -69.696700   16.298900  -107.197000
  C    -68.889100   14.283800  -107.514000
  H    -67.869500   13.864600  -107.552000
  H    -69.246100   14.137700  -106.482000
  C    -69.729500   13.553900  -108.609000
  H    -70.808800   13.784100  -108.477000
  H    -69.385200   13.823600  -109.624000
  H    -69.593100   12.444200  -108.503000
  S    -63.151100   16.454900  -104.798000
  C    -61.631200   17.006300  -105.432000
  C    -61.825800   17.578200  -106.645000
  C    -63.176900   17.538900  -107.095000
  C    -64.029900   17.230400  -106.069000
  H    -60.970700   18.164900  -107.134000
  C    -63.506000   17.957700  -108.559000
  H    -62.989900   18.980000  -108.634000
  H    -64.534800   18.184400  -108.666000
  C    -63.024800   17.124100  -109.760000
  H    -61.913800   16.823500  -109.639000
  H    -63.056000   17.752300  -110.603000
  C    -63.967700   15.935400  -110.251000
  H    -65.031600   16.324100  -110.145000
  H    -63.732300   15.011200  -109.644000
  H    -63.787300   15.630300  -111.230000
  H    -68.792700   16.708700  -104.627000
  H    -60.713700   17.143800  -104.853000

 Total Charge           Charge          ....    0
 Multiplicity           Mult            ....    1
 Number of Electrons    NEL             ....  134
 Basis Dimension        Dim             ....  322

ORBITAL ENERGIES
----------------

  NO   OCC          E(Eh)            E(eV)
   0   2.0000     -88.964112     -2420.8366
   1   2.0000     -88.959935     -2420.7229
   2   2.0000     -10.338636      -281.3286
   3   2.0000     -10.325617      -280.9743
   4   2.0000     -10.316116      -280.7158
   5   2.0000     -10.310750      -280.5698
   6   2.0000     -10.308333      -280.5040
   7   2.0000     -10.307918      -280.4927
   8   2.0000     -10.304012      -280.3864
   9   2.0000     -10.299558      -280.2652
  10   2.0000     -10.298525      -280.2371
  11   2.0000     -10.296488      -280.1817
  12   2.0000     -10.294700      -280.1330
  13   2.0000     -10.294636      -280.1313
  14   2.0000     -10.291708      -280.0516
  15   2.0000     -10.288629      -279.9678
  16   2.0000      -8.077778      -219.8075
  17   2.0000      -8.075627      -219.7490
  18   2.0000      -6.036616      -164.2647
  19   2.0000      -6.034303      -164.2017
  20   2.0000      -6.032414      -164.1503
  21   2.0000      -6.030054      -164.0861
  22   2.0000      -6.028244      -164.0369
  23   2.0000      -6.026056      -163.9773
  24   2.0000      -1.009058       -27.4579
  25   2.0000      -0.977526       -26.5998
  26   2.0000      -0.907748       -24.7011
  27   2.0000      -0.900871       -24.5139
  28   2.0000      -0.870569       -23.6894
  29   2.0000      -0.846776       -23.0419
  30   2.0000      -0.838830       -22.8257
  31   2.0000      -0.812796       -22.1173
  32   2.0000      -0.781780       -21.2733
  33   2.0000      -0.775163       -21.0933
  34   2.0000      -0.707773       -19.2595
  35   2.0000      -0.699980       -19.0474
  36   2.0000      -0.693572       -18.8730
  37   2.0000      -0.655814       -17.8456
  38   2.0000      -0.638833       -17.3835
  39   2.0000      -0.617983       -16.8162
  40   2.0000      -0.594045       -16.1648
  41   2.0000      -0.560650       -15.2561
  42   2.0000      -0.558200       -15.1894
  43   2.0000      -0.549401       -14.9500
  44   2.0000      -0.537687       -14.6312
  45   2.0000      -0.520841       -14.1728
  46   2.0000      -0.515100       -14.0166
  47   2.0000      -0.510533       -13.8923
  48   2.0000      -0.508393       -13.8341
  49   2.0000      -0.505593       -13.7579
  50   2.0000      -0.492156       -13.3923
  51   2.0000      -0.477883       -13.0039
  52   2.0000      -0.468716       -12.7544
  53   2.0000      -0.461808       -12.5664
  54   2.0000      -0.454945       -12.3797
  55   2.0000      -0.450369       -12.2552
  56   2.0000      -0.447707       -12.1827
  57   2.0000      -0.433923       -11.8077
  58   2.0000      -0.427919       -11.6443
  59   2.0000      -0.426733       -11.6120
  60   2.0000      -0.422873       -11.5069
  61   2.0000      -0.413048       -11.2396
  62   2.0000      -0.406094       -11.0504
  63   2.0000      -0.353602        -9.6220
  64   2.0000      -0.324974        -8.8430
  65   2.0000      -0.322359        -8.7718
  66   2.0000      -0.295258        -8.0344
  67   0.0000       0.022876         0.6225
  68   0.0000       0.074330         2.0226
  69   0.0000       0.105421         2.8687
  70   0.0000       0.110483         3.0064
  71   0.0000       0.124522         3.3884

MULLIKEN ATOMIC CHARGES
-----------------------
   0 S :    0.079003
   1 C :   -0.091631
   2 C :   -0.123951
   3 C :    0.010821
   4 C :   -0.135390
   5 H :    0.021522
   6 C :    0.073247
   7 H :    0.032393
   8 H :    0.022023
   9 C :   -0.087213
  10 H :    0.034510
  11 H :    0.026701
  12 C :   -0.048470
  13 H :    0.042081
  14 H :    0.038983
  15 H :    0.048829
  16 S :    0.096753
  17 C :   -0.091412
  18 C :   -0.067936
  19 C :   -0.039216
  20 C :   -0.124588
  21 H :    0.049331
  22 C :    0.043777
  23 H :    0.040873
  24 H :    0.006124
  25 C :   -0.070543
  26 H :    0.043390
  27 H :    0.021657
  28 C :   -0.066250
  29 H :    0.043861
  30 H :    0.050751
  31 H :    0.025465
  32 H :    0.029037
  33 H :    0.065468
Sum of atomic charges:   -0.0000000

LOEWDIN ATOMIC CHARGES
----------------------
   0 S :    0.367572
   1 C :   -0.176177
   2 C :   -0.059363
   3 C :   -0.056850
   4 C :   -0.181144
   5 H :    0.032646
   6 C :   -0.034120
   7 H :    0.033175
   8 H :    0.026500
   9 C :   -0.045099
  10 H :    0.027259
  11 H :    0.027730
  12 C :   -0.071487
  13 H :    0.028186
  14 H :    0.027548
  15 H :    0.035566
  16 S :    0.411317
  17 C :   -0.197571
  18 C :   -0.080339
  19 C :   -0.062374
  20 C :   -0.200423
  21 H :    0.045258
  22 C :   -0.033350
  23 H :    0.044820
  24 H :    0.019093
  25 C :   -0.042076
  26 H :    0.033362
  27 H :    0.018926
  28 C :   -0.068467
  29 H :    0.030029
  30 H :    0.034294
  31 H :    0.015406
  32 H :    0.014612
  33 H :    0.035541

  Mayer bond orders larger than 0.100000
B(  0-S ,  1-C ) :   1.1266 B(  0-S ,  4-C ) :   1.1195 B(  1-C ,  2-C ) :   1.6352
B(  1-C , 32-H ) :   0.9759 B(  2-C ,  3-C ) :   1.2156 B(  2-C ,  6-C ) :   1.0168
B(  3-C ,  4-C ) :   1.5927 B(  3-C ,  5-H ) :   0.9694 B(  4-C , 20-C ) :   1.0449
B(  6-C ,  7-H ) :   0.9390 B(  6-C ,  8-H ) :   0.9408 B(  6-C ,  9-C ) :   1.0470
B(  9-C , 10-H ) :   0.9613 B(  9-C , 11-H ) :   0.9548 B(  9-C , 12-C ) :   1.0722
B( 12-C , 13-H ) :   0.9759 B( 12-C , 14-H ) :   0.9745 B( 12-C , 15-H ) :   0.9746
B( 16-S , 17-C ) :   1.1354 B( 16-S , 20-C ) :   1.1432 B( 17-C , 18-C ) :   1.6496
B( 17-C , 33-H ) :   0.9609 B( 18-C , 19-C ) :   1.2137 B( 18-C , 21-H ) :   0.9729
B( 19-C , 20-C ) :   1.6222 B( 19-C , 22-C ) :   1.0309 B( 22-C , 23-H ) :   0.9383
B( 22-C , 24-H ) :   0.9377 B( 22-C , 25-C ) :   1.0753 B( 25-C , 26-H ) :   0.9542
B( 25-C , 27-H ) :   0.9534 B( 25-C , 28-C ) :   1.0652 B( 28-C , 29-H ) :   0.9672
B( 28-C , 30-H ) :   0.9789 B( 28-C , 31-H ) :   0.9751

Dispersion correction           -0.014016295
FINAL SINGLE POINT ENERGY     -1339.852400826506

DIPOLE MOMENT
-------------
                                X             Y             Z
Electronic contribution:     10.36240       9.34617      26.77120
Nuclear contribution   :    -10.51717      -9.38752     -27.53572
                        -----------------------------------------
Total Dipole Moment    :     -0.15476      -0.04135      -0.76452
                        -----------------------------------------
Magnitude (a.u.)       :      0.78112
Magnitude (Debye)      :      1.98545

Rotational constants in cm-1:     0.017509     0.008884     0.006537
Rotational constants in MHz :   524.905219   266.327487   195.983031

                             ****ORCA TERMINATED NORMALLY****
TOTAL RUN TIME: 0 days 0 hours 0 minutes 21 seconds 382 msec
