                         Program Version 4.2.1 -  RELEASE  -
|  1> ! wB97X-D3 SP def2-SVP
|  2> %pal
|  3> nprocs 24
|  4> end
|  5>
|  6> * xyz 0 1
|  7> S 	 -104.219 	 17.7427 	 -113.223
|  8> C 	 -104.124 	 16.9653 	 -111.625
|  9> C 	 -104.69 	 17.7987 	 -110.641
| 10> C 	 -105.114 	 19.0411 	 -111.125
| 11> C 	 -105.009 	 19.1791 	 -112.509
| 12> H 	 -105.609 	 19.8787 	 -110.532
| 13> C 	 -104.871 	 17.3036 	 -109.273
| 14> H 	 -105.085 	 16.2366 	 -109.222
| 15> H 	 -105.694 	 17.6948 	 -108.732
| 16> C 	 -103.604 	 17.4015 	 -108.573
| 17> H 	 -103.749 	 16.8016 	 -107.641
| 18> H 	 -102.776 	 17.0375 	 -109.163
| 19> C 	 -103.273 	 18.8932 	 -108.056
| 20> H 	 -102.774 	 19.3223 	 -108.924
| 21> H 	 -104.188 	 19.464 	 -107.914
| 22> H 	 -102.681 	 18.9187 	 -107.187
| 23> S 	 -106.831 	 19.931 	 -114.464
| 24> C 	 -107.107 	 21.6475 	 -114.757
| 25> C 	 -106.235 	 22.4445 	 -114.02
| 26> C 	 -105.334 	 21.7266 	 -113.173
| 27> C 	 -105.495 	 20.331 	 -113.253
| 28> H 	 -106.362 	 23.5289 	 -114.111
| 29> C 	 -104.389 	 22.4915 	 -112.214
| 30> H 	 -104.614 	 22.0713 	 -111.221
| 31> H 	 -104.634 	 23.4826 	 -112.053
| 32> C 	 -102.996 	 22.2842 	 -112.715
| 33> H 	 -102.887 	 22.6881 	 -113.758
| 34> H 	 -102.821 	 21.2511 	 -112.843
| 35> C 	 -101.833 	 22.8145 	 -111.865
| 36> H 	 -100.869 	 22.3605 	 -112.207
| 37> H 	 -102.001 	 22.5371 	 -110.792
| 38> H 	 -101.744 	 23.9428 	 -111.989
| 39> H 	 -103.58 	 16.087 	 -111.363
| 40> H 	 -107.873 	 21.9443 	 -115.434
| 41> *
| 42>
| 43>                          ****END OF INPUT****

CARTESIAN COORDINATES (ANGSTROEM)
---------------------------------
  S    -104.219000   17.742700  -113.223000
  C    -104.124000   16.965300  -111.625000
  C    -104.690000   17.798700  -110.641000
  C    -105.114000   19.041100  -111.125000
  C    -105.009000   19.179100  -112.509000
  H    -105.609000   19.878700  -110.532000
  C    -104.871000   17.303600  -109.273000
  H    -105.085000   16.236600  -109.222000
  H    -105.694000   17.694800  -108.732000
  C    -103.604000   17.401500  -108.573000
  H    -103.749000   16.801600  -107.641000
  H    -102.776000   17.037500  -109.163000
  C    -103.273000   18.893200  -108.056000
  H    -102.774000   19.322300  -108.924000
  H    -104.188000   19.464000  -107.914000
  H    -102.681000   18.918700  -107.187000
  S    -106.831000   19.931000  -114.464000
  C    -107.107000   21.647500  -114.757000
  C    -106.235000   22.444500  -114.020000
  C    -105.334000   21.726600  -113.173000
  C    -105.495000   20.331000  -113.253000
  H    -106.362000   23.528900  -114.111000
  C    -104.389000   22.491500  -112.214000
  H    -104.614000   22.071300  -111.221000
  H    -104.634000   23.482600  -112.053000
  C    -102.996000   22.284200  -112.715000
  H    -102.887000   22.688100  -113.758000
  H    -102.821000   21.251100  -112.843000
  C    -101.833000   22.814500  -111.865000
  H    -100.869000   22.360500  -112.207000
  H    -102.001000   22.537100  -110.792000
  H    -101.744000   23.942800  -111.989000
  H    -103.580000   16.087000  -111.363000
  H    -107.873000   21.944300  -115.434000

 Total Charge           Charge          ....    0
 Multiplicity           Mult            ....    1
 Number of Electrons    NEL             ....  134
 Basis Dimension        Dim             ....  322

ORBITAL ENERGIES
----------------

  NO   OCC          E(Eh)            E(eV)
   0   2.0000     -88.972480     -2421.0643
   1   2.0000     -88.962382     -2420.7895
   2   2.0000     -10.335831      -281.2523
   3   2.0000     -10.335333      -281.2387
   4   2.0000     -10.319886      -280.8184
   5   2.0000     -10.317148      -280.7439
   6   2.0000     -10.313312      -280.6395
   7   2.0000     -10.300763      -280.2980
   8   2.0000     -10.299591      -280.2661
   9   2.0000     -10.297689      -280.2144
  10   2.0000     -10.289494      -279.9914
  11   2.0000     -10.285248      -279.8758
  12   2.0000     -10.285018      -279.8696
  13   2.0000     -10.279353      -279.7154
  14   2.0000     -10.279088      -279.7082
  15   2.0000     -10.274030      -279.5706
  16   2.0000      -8.085572      -220.0196
  17   2.0000      -8.075932      -219.7573
  18   2.0000      -6.044108      -164.4685
  19   2.0000      -6.040265      -164.3640
  20   2.0000      -6.036425      -164.2595
  21   2.0000      -6.034407      -164.2046
  22   2.0000      -6.030673      -164.1029
  23   2.0000      -6.026716      -163.9953
  24   2.0000      -0.998223       -27.1630
  25   2.0000      -0.976314       -26.5668
  26   2.0000      -0.925357       -25.1802
  27   2.0000      -0.910288       -24.7702
  28   2.0000      -0.863449       -23.4956
  29   2.0000      -0.845846       -23.0166
  30   2.0000      -0.841230       -22.8910
  31   2.0000      -0.810444       -22.0533
  32   2.0000      -0.785880       -21.3849
  33   2.0000      -0.772903       -21.0318
  34   2.0000      -0.708041       -19.2668
  35   2.0000      -0.699018       -19.0213
  36   2.0000      -0.691596       -18.8193
  37   2.0000      -0.661513       -18.0007
  38   2.0000      -0.642074       -17.4717
  39   2.0000      -0.616446       -16.7744
  40   2.0000      -0.598167       -16.2770
  41   2.0000      -0.580371       -15.7927
  42   2.0000      -0.564188       -15.3523
  43   2.0000      -0.549172       -14.9437
  44   2.0000      -0.535640       -14.5755
  45   2.0000      -0.526702       -14.3323
  46   2.0000      -0.515830       -14.0365
  47   2.0000      -0.513693       -13.9783
  48   2.0000      -0.505928       -13.7670
  49   2.0000      -0.500660       -13.6237
  50   2.0000      -0.490346       -13.3430
  51   2.0000      -0.484857       -13.1936
  52   2.0000      -0.475718       -12.9449
  53   2.0000      -0.465241       -12.6598
  54   2.0000      -0.456884       -12.4324
  55   2.0000      -0.447031       -12.1643
  56   2.0000      -0.440508       -11.9868
  57   2.0000      -0.438133       -11.9222
  58   2.0000      -0.433806       -11.8045
  59   2.0000      -0.421871       -11.4797
  60   2.0000      -0.416206       -11.3255
  61   2.0000      -0.410019       -11.1572
  62   2.0000      -0.398658       -10.8480
  63   2.0000      -0.342811        -9.3284
  64   2.0000      -0.331890        -9.0312
  65   2.0000      -0.330400        -8.9906
  66   2.0000      -0.288757        -7.8575
  67   0.0000       0.024302         0.6613
  68   0.0000       0.054110         1.4724
  69   0.0000       0.108020         2.9394
  70   0.0000       0.119067         3.2400
  71   0.0000       0.120783         3.2867

MULLIKEN ATOMIC CHARGES
-----------------------
   0 S :    0.120470
   1 C :   -0.110147
   2 C :   -0.089641
   3 C :    0.017605
   4 C :   -0.158849
   5 H :    0.044936
   6 C :    0.102753
   7 H :    0.021917
   8 H :    0.015009
   9 C :   -0.110570
  10 H :    0.026775
  11 H :    0.031526
  12 C :   -0.046327
  13 H :    0.037580
  14 H :    0.021807
  15 H :    0.036742
  16 S :    0.079006
  17 C :   -0.088899
  18 C :   -0.042697
  19 C :   -0.042867
  20 C :   -0.178861
  21 H :    0.028346
  22 C :    0.154216
  23 H :    0.013067
  24 H :   -0.006464
  25 C :   -0.091425
  26 H :    0.032145
  27 H :    0.026227
  28 C :   -0.064408
  29 H :    0.042368
  30 H :    0.038891
  31 H :    0.040458
  32 H :    0.044566
  33 H :    0.054747
Sum of atomic charges:    0.0000000

LOEWDIN ATOMIC CHARGES
----------------------
   0 S :    0.391198
   1 C :   -0.188014
   2 C :   -0.058734
   3 C :   -0.066405
   4 C :   -0.193085
   5 H :    0.045626
   6 C :   -0.039308
   7 H :    0.036995
   8 H :    0.027148
   9 C :   -0.032456
  10 H :    0.022478
  11 H :    0.021176
  12 C :   -0.062620
  13 H :    0.027251
  14 H :    0.020667
  15 H :    0.018393
  16 S :    0.361713
  17 C :   -0.168270
  18 C :   -0.079032
  19 C :   -0.041081
  20 C :   -0.173837
  21 H :    0.035845
  22 C :   -0.020255
  23 H :    0.031629
  24 H :    0.017488
  25 C :   -0.047324
  26 H :    0.032107
  27 H :    0.020698
  28 C :   -0.074314
  29 H :    0.031361
  30 H :    0.027379
  31 H :    0.028245
  32 H :    0.024296
  33 H :    0.023043

  Mayer bond orders larger than 0.100000
B(  0-S ,  1-C ) :   1.1362 B(  0-S ,  4-C ) :   1.1473 B(  1-C ,  2-C ) :   1.5797
B(  1-C ,  4-C ) :   0.1124 B(  1-C , 32-H ) :   0.9662 B(  2-C ,  3-C ) :   1.2746
B(  2-C ,  6-C ) :   1.0282 B(  3-C ,  4-C ) :   1.5518 B(  3-C ,  5-H ) :   0.9777
B(  4-C , 20-C ) :   1.0518 B(  6-C ,  7-H ) :   0.9345 B(  6-C ,  8-H ) :   0.9382
B(  6-C ,  9-C ) :   1.0782 B(  9-C , 10-H ) :   0.9568 B(  9-C , 11-H ) :   0.9620
B(  9-C , 12-C ) :   1.0581 B( 12-C , 13-H ) :   0.9774 B( 12-C , 14-H ) :   0.9781
B( 12-C , 15-H ) :   0.9815 B( 16-S , 17-C ) :   1.1583 B( 16-S , 20-C ) :   1.1216
B( 17-C , 18-C ) :   1.6047 B( 17-C , 20-C ) :   0.1094 B( 17-C , 33-H ) :   0.9722
B( 18-C , 19-C ) :   1.2319 B( 18-C , 21-H ) :   0.9902 B( 19-C , 20-C ) :   1.6014
B( 19-C , 22-C ) :   1.0252 B( 22-C , 23-H ) :   0.9282 B( 22-C , 24-H ) :   0.9326
B( 22-C , 25-C ) :   1.0598 B( 25-C , 26-H ) :   0.9492 B( 25-C , 27-H ) :   0.9595
B( 25-C , 28-C ) :   1.0832 B( 28-C , 29-H ) :   0.9745 B( 28-C , 30-H ) :   0.9729
B( 28-C , 31-H ) :   0.9751

Dispersion correction           -0.014828368
FINAL SINGLE POINT ENERGY     -1339.858276370222

DIPOLE MOMENT
-------------
                                X             Y             Z
Electronic contribution:    -14.94010      -9.10144     -22.28326
Nuclear contribution   :     14.96930       9.38734      22.86391
                        -----------------------------------------
Total Dipole Moment    :      0.02920       0.28590       0.58065
                        -----------------------------------------
Magnitude (a.u.)       :      0.64788
Magnitude (Debye)      :      1.64679

Rotational constants in cm-1:     0.017643     0.009498     0.007315
Rotational constants in MHz :   528.935731   284.738519   219.286262

                             ****ORCA TERMINATED NORMALLY****
TOTAL RUN TIME: 0 days 0 hours 0 minutes 22 seconds 235 msec
