                         Program Version 4.2.1 -  RELEASE  -
|  1> ! wB97X-D3 SP def2-SVP
|  2> %pal
|  3> nprocs 24
|  4> end
|  5>
|  6> * xyz 0 1
|  7> S 	 -104.085 	 1.26101 	 -106.923
|  8> C 	 -105.063 	 1.02763 	 -105.517
|  9> C 	 -104.377 	 0.382622 	 -104.49
| 10> C 	 -103.105 	 -0.0783224 	 -104.951
| 11> C 	 -102.807 	 0.247702 	 -106.241
| 12> H 	 -102.374 	 -0.629441 	 -104.341
| 13> C 	 -104.91 	 0.128884 	 -103.052
| 14> H 	 -105.928 	 -0.224902 	 -103.051
| 15> H 	 -104.994 	 1.18236 	 -102.852
| 16> C 	 -103.836 	 -0.534183 	 -102.071
| 17> H 	 -103.61 	 -1.58219 	 -102.422
| 18> H 	 -102.871 	 -0.111029 	 -102.185
| 19> C 	 -104.245 	 -0.568905 	 -100.606
| 20> H 	 -103.749 	 0.282262 	 -100.16
| 21> H 	 -105.363 	 -0.508463 	 -100.405
| 22> H 	 -103.942 	 -1.53437 	 -100.106
| 23> S 	 -101.545 	 -0.628233 	 -108.536
| 24> C 	 -99.7528 	 -0.449731 	 -108.647
| 25> C 	 -99.307 	 0.09958 	 -107.457
| 26> C 	 -100.29 	 0.386421 	 -106.508
| 27> C 	 -101.556 	 0.0999521 	 -106.925
| 28> H 	 -98.2883 	 0.212234 	 -107.27
| 29> C 	 -99.9846 	 1.0629 	 -105.208
| 30> H 	 -100.91 	 1.12645 	 -104.618
| 31> H 	 -99.6295 	 2.07876 	 -105.259
| 32> C 	 -98.8467 	 0.314487 	 -104.443
| 33> H 	 -97.9236 	 0.451067 	 -105.036
| 34> H 	 -99.1176 	 -0.783583 	 -104.514
| 35> C 	 -98.794 	 0.739837 	 -103.004
| 36> H 	 -99.7141 	 0.518722 	 -102.499
| 37> H 	 -98.5925 	 1.84334 	 -102.959
| 38> H 	 -97.9604 	 0.351882 	 -102.472
| 39> H 	 -106.081 	 1.42353 	 -105.367
| 40> H 	 -99.08 	 -0.689128 	 -109.399
| 41> *
| 42>
| 43>                          ****END OF INPUT****

CARTESIAN COORDINATES (ANGSTROEM)
---------------------------------
  S    -104.085000    1.261010  -106.923000
  C    -105.063000    1.027630  -105.517000
  C    -104.377000    0.382622  -104.490000
  C    -103.105000   -0.078322  -104.951000
  C    -102.807000    0.247702  -106.241000
  H    -102.374000   -0.629441  -104.341000
  C    -104.910000    0.128884  -103.052000
  H    -105.928000   -0.224902  -103.051000
  H    -104.994000    1.182360  -102.852000
  C    -103.836000   -0.534183  -102.071000
  H    -103.610000   -1.582190  -102.422000
  H    -102.871000   -0.111029  -102.185000
  C    -104.245000   -0.568905  -100.606000
  H    -103.749000    0.282262  -100.160000
  H    -105.363000   -0.508463  -100.405000
  H    -103.942000   -1.534370  -100.106000
  S    -101.545000   -0.628233  -108.536000
  C    -99.752800   -0.449731  -108.647000
  C    -99.307000    0.099580  -107.457000
  C    -100.290000    0.386421  -106.508000
  C    -101.556000    0.099952  -106.925000
  H    -98.288300    0.212234  -107.270000
  C    -99.984600    1.062900  -105.208000
  H    -100.910000    1.126450  -104.618000
  H    -99.629500    2.078760  -105.259000
  C    -98.846700    0.314487  -104.443000
  H    -97.923600    0.451067  -105.036000
  H    -99.117600   -0.783583  -104.514000
  C    -98.794000    0.739837  -103.004000
  H    -99.714100    0.518722  -102.499000
  H    -98.592500    1.843340  -102.959000
  H    -97.960400    0.351882  -102.472000
  H    -106.081000    1.423530  -105.367000
  H    -99.080000   -0.689128  -109.399000

 Total Charge           Charge          ....    0
 Multiplicity           Mult            ....    1
 Number of Electrons    NEL             ....  134
 Basis Dimension        Dim             ....  322

ORBITAL ENERGIES
----------------

  NO   OCC          E(Eh)            E(eV)
   0   2.0000     -88.965876     -2420.8845
   1   2.0000     -88.965151     -2420.8648
   2   2.0000     -10.324128      -280.9338
   3   2.0000     -10.322174      -280.8806
   4   2.0000     -10.317728      -280.7596
   5   2.0000     -10.312836      -280.6265
   6   2.0000     -10.304672      -280.4044
   7   2.0000     -10.300058      -280.2788
   8   2.0000     -10.297616      -280.2124
   9   2.0000     -10.294200      -280.1194
  10   2.0000     -10.293572      -280.1023
  11   2.0000     -10.291208      -280.0380
  12   2.0000     -10.288897      -279.9751
  13   2.0000     -10.286073      -279.8983
  14   2.0000     -10.285508      -279.8829
  15   2.0000     -10.278192      -279.6838
  16   2.0000      -8.080543      -219.8827
  17   2.0000      -8.078681      -219.8321
  18   2.0000      -6.039016      -164.3300
  19   2.0000      -6.037364      -164.2850
  20   2.0000      -6.035104      -164.2235
  21   2.0000      -6.033342      -164.1756
  22   2.0000      -6.031302      -164.1201
  23   2.0000      -6.029322      -164.0662
  24   2.0000      -1.007608       -27.4184
  25   2.0000      -0.983100       -26.7515
  26   2.0000      -0.910497       -24.7759
  27   2.0000      -0.905973       -24.6528
  28   2.0000      -0.873647       -23.7731
  29   2.0000      -0.853174       -23.2160
  30   2.0000      -0.846731       -23.0407
  31   2.0000      -0.818898       -22.2833
  32   2.0000      -0.781289       -21.2599
  33   2.0000      -0.769646       -20.9431
  34   2.0000      -0.716841       -19.5062
  35   2.0000      -0.701923       -19.1003
  36   2.0000      -0.693289       -18.8654
  37   2.0000      -0.660613       -17.9762
  38   2.0000      -0.641408       -17.4536
  39   2.0000      -0.618813       -16.8387
  40   2.0000      -0.600239       -16.3333
  41   2.0000      -0.570694       -15.5294
  42   2.0000      -0.569284       -15.4910
  43   2.0000      -0.559441       -15.2232
  44   2.0000      -0.531598       -14.4655
  45   2.0000      -0.525153       -14.2902
  46   2.0000      -0.517714       -14.0877
  47   2.0000      -0.510507       -13.8916
  48   2.0000      -0.504415       -13.7258
  49   2.0000      -0.498180       -13.5562
  50   2.0000      -0.492053       -13.3895
  51   2.0000      -0.483340       -13.1523
  52   2.0000      -0.475565       -12.9408
  53   2.0000      -0.472753       -12.8643
  54   2.0000      -0.464277       -12.6336
  55   2.0000      -0.451274       -12.2798
  56   2.0000      -0.444886       -12.1060
  57   2.0000      -0.436436       -11.8760
  58   2.0000      -0.431379       -11.7384
  59   2.0000      -0.421791       -11.4775
  60   2.0000      -0.418858       -11.3977
  61   2.0000      -0.414592       -11.2816
  62   2.0000      -0.412363       -11.2210
  63   2.0000      -0.344292        -9.3687
  64   2.0000      -0.331154        -9.0112
  65   2.0000      -0.329564        -8.9679
  66   2.0000      -0.291530        -7.9329
  67   0.0000       0.029286         0.7969
  68   0.0000       0.069348         1.8871
  69   0.0000       0.111309         3.0289
  70   0.0000       0.116747         3.1768
  71   0.0000       0.124646         3.3918

MULLIKEN ATOMIC CHARGES
-----------------------
   0 S :    0.121669
   1 C :   -0.136931
   2 C :   -0.117328
   3 C :   -0.002783
   4 C :   -0.136090
   5 H :    0.018579
   6 C :    0.081069
   7 H :    0.042049
   8 H :    0.034461
   9 C :   -0.097871
  10 H :    0.039535
  11 H :    0.022415
  12 C :   -0.056617
  13 H :    0.040383
  14 H :    0.045260
  15 H :    0.045241
  16 S :    0.100661
  17 C :   -0.055495
  18 C :   -0.022084
  19 C :    0.005900
  20 C :   -0.170366
  21 H :   -0.007470
  22 C :    0.068038
  23 H :    0.016221
  24 H :    0.028608
  25 C :   -0.148409
  26 H :    0.039847
  27 H :    0.039448
  28 C :   -0.000380
  29 H :    0.030918
  30 H :    0.024203
  31 H :    0.026733
  32 H :    0.050148
  33 H :    0.030437
Sum of atomic charges:   -0.0000000

LOEWDIN ATOMIC CHARGES
----------------------
   0 S :    0.412796
   1 C :   -0.215805
   2 C :   -0.060713
   3 C :   -0.068708
   4 C :   -0.191869
   5 H :    0.033507
   6 C :   -0.029697
   7 H :    0.032359
   8 H :    0.037236
   9 C :   -0.046176
  10 H :    0.028604
  11 H :    0.018513
  12 C :   -0.073407
  13 H :    0.026743
  14 H :    0.033617
  15 H :    0.034953
  16 S :    0.380688
  17 C :   -0.156164
  18 C :   -0.059434
  19 C :   -0.059022
  20 C :   -0.193286
  21 H :    0.019590
  22 C :   -0.030095
  23 H :    0.027924
  24 H :    0.028530
  25 C :   -0.045499
  26 H :    0.022965
  27 H :    0.026845
  28 C :   -0.063487
  29 H :    0.023632
  30 H :    0.030506
  31 H :    0.022258
  32 H :    0.032323
  33 H :    0.019773

  Mayer bond orders larger than 0.100000
B(  0-S ,  1-C ) :   1.1464 B(  0-S ,  4-C ) :   1.1511 B(  1-C ,  2-C ) :   1.6148
B(  1-C ,  4-C ) :   0.1011 B(  1-C , 32-H ) :   0.9678 B(  2-C ,  3-C ) :   1.2604
B(  2-C ,  6-C ) :   0.9631 B(  3-C ,  4-C ) :   1.5655 B(  3-C ,  5-H ) :   0.9899
B(  4-C , 20-C ) :   1.0324 B(  6-C ,  7-H ) :   0.9476 B(  6-C ,  8-H ) :   0.9390
B(  6-C ,  9-C ) :   1.0693 B(  9-C , 10-H ) :   0.9575 B(  9-C , 11-H ) :   0.9558
B(  9-C , 12-C ) :   1.0624 B( 12-C , 13-H ) :   0.9794 B( 12-C , 14-H ) :   0.9785
B( 12-C , 15-H ) :   0.9755 B( 16-S , 17-C ) :   1.1343 B( 16-S , 20-C ) :   1.1272
B( 17-C , 18-C ) :   1.6158 B( 17-C , 20-C ) :   0.1018 B( 17-C , 33-H ) :   0.9754
B( 18-C , 19-C ) :   1.2404 B( 18-C , 21-H ) :   0.9939 B( 19-C , 20-C ) :   1.6013
B( 19-C , 22-C ) :   1.0484 B( 22-C , 23-H ) :   0.9379 B( 22-C , 24-H ) :   0.9287
B( 22-C , 25-C ) :   1.0353 B( 25-C , 26-H ) :   0.9526 B( 25-C , 27-H ) :   0.9614
B( 25-C , 28-C ) :   1.0931 B( 28-C , 29-H ) :   0.9730 B( 28-C , 30-H ) :   0.9656
B( 28-C , 31-H ) :   0.9701

Dispersion correction           -0.014299269
FINAL SINGLE POINT ENERGY     -1339.869612469418

DIPOLE MOMENT
-------------
                                X             Y             Z
Electronic contribution:     -7.45578       0.82980     -32.22145
Nuclear contribution   :      7.76153      -0.72336      33.04441
                        -----------------------------------------
Total Dipole Moment    :      0.30575       0.10644       0.82296
                        -----------------------------------------
Magnitude (a.u.)       :      0.88435
Magnitude (Debye)      :      2.24784

Rotational constants in cm-1:     0.016645     0.009705     0.006701
Rotational constants in MHz :   498.990794   290.940878   200.905767

                             ****ORCA TERMINATED NORMALLY****
TOTAL RUN TIME: 0 days 0 hours 0 minutes 21 seconds 130 msec
