                         Program Version 4.2.1 -  RELEASE  -
|  1> ! wB97X-D3 SP def2-SVP
|  2> %pal
|  3> nprocs 24
|  4> end
|  5>
|  6> * xyz 0 1
|  7> S 	 -39.4205 	 -6.09424 	 10.5356
|  8> C 	 -38.2049 	 -5.33942 	 9.43096
|  9> C 	 -38.7206 	 -4.66301 	 8.36485
| 10> C 	 -40.1522 	 -4.62636 	 8.53742
| 11> C 	 -40.6584 	 -5.18409 	 9.71098
| 12> H 	 -40.842 	 -4.13283 	 7.92339
| 13> C 	 -37.9757 	 -3.99642 	 7.24107
| 14> H 	 -37.6161 	 -4.68004 	 6.52198
| 15> H 	 -37.0936 	 -3.57312 	 7.65695
| 16> C 	 -38.7172 	 -2.85974 	 6.54116
| 17> H 	 -39.576 	 -3.31638 	 5.95151
| 18> H 	 -39.2 	 -2.13761 	 7.20779
| 19> C 	 -37.9023 	 -2.1774 	 5.39675
| 20> H 	 -38.3068 	 -1.32615 	 4.86887
| 21> H 	 -36.8801 	 -1.97805 	 5.76954
| 22> H 	 -37.8776 	 -2.94799 	 4.60417
| 23> S 	 -42.8364 	 -6.74128 	 10.3895
| 24> C 	 -44.3495 	 -6.01749 	 10.7446
| 25> C 	 -44.3085 	 -4.6669 	 10.6237
| 26> C 	 -42.9755 	 -4.11216 	 10.2466
| 27> C 	 -42.0335 	 -5.18685 	 10.1684
| 28> H 	 -45.238 	 -4.01486 	 10.7116
| 29> C 	 -42.7953 	 -2.61355 	 9.96355
| 30> H 	 -41.7557 	 -2.43854 	 9.64552
| 31> H 	 -43.0278 	 -2.07844 	 10.8818
| 32> C 	 -43.6212 	 -2.08973 	 8.85319
| 33> H 	 -44.7359 	 -2.11322 	 9.05495
| 34> H 	 -43.5587 	 -2.78366 	 7.9947
| 35> C 	 -43.2797 	 -0.675039 	 8.41948
| 36> H 	 -43.7756 	 -0.284726 	 7.48453
| 37> H 	 -42.2149 	 -0.407137 	 8.3882
| 38> H 	 -43.6824 	 -0.0167196 	 9.1678
| 39> H 	 -37.1717 	 -5.38438 	 9.55578
| 40> H 	 -45.2573 	 -6.61759 	 10.8432
| 41> *
| 42>
| 43>                          ****END OF INPUT****

CARTESIAN COORDINATES (ANGSTROEM)
---------------------------------
  S    -39.420500   -6.094240   10.535600
  C    -38.204900   -5.339420    9.430960
  C    -38.720600   -4.663010    8.364850
  C    -40.152200   -4.626360    8.537420
  C    -40.658400   -5.184090    9.710980
  H    -40.842000   -4.132830    7.923390
  C    -37.975700   -3.996420    7.241070
  H    -37.616100   -4.680040    6.521980
  H    -37.093600   -3.573120    7.656950
  C    -38.717200   -2.859740    6.541160
  H    -39.576000   -3.316380    5.951510
  H    -39.200000   -2.137610    7.207790
  C    -37.902300   -2.177400    5.396750
  H    -38.306800   -1.326150    4.868870
  H    -36.880100   -1.978050    5.769540
  H    -37.877600   -2.947990    4.604170
  S    -42.836400   -6.741280   10.389500
  C    -44.349500   -6.017490   10.744600
  C    -44.308500   -4.666900   10.623700
  C    -42.975500   -4.112160   10.246600
  C    -42.033500   -5.186850   10.168400
  H    -45.238000   -4.014860   10.711600
  C    -42.795300   -2.613550    9.963550
  H    -41.755700   -2.438540    9.645520
  H    -43.027800   -2.078440   10.881800
  C    -43.621200   -2.089730    8.853190
  H    -44.735900   -2.113220    9.054950
  H    -43.558700   -2.783660    7.994700
  C    -43.279700   -0.675039    8.419480
  H    -43.775600   -0.284726    7.484530
  H    -42.214900   -0.407137    8.388200
  H    -43.682400   -0.016720    9.167800
  H    -37.171700   -5.384380    9.555780
  H    -45.257300   -6.617590   10.843200

 Total Charge           Charge          ....    0
 Multiplicity           Mult            ....    1
 Number of Electrons    NEL             ....  134
 Basis Dimension        Dim             ....  322

ORBITAL ENERGIES
----------------

  NO   OCC          E(Eh)            E(eV)
   0   2.0000     -88.966531     -2420.9024
   1   2.0000     -88.963839     -2420.8291
   2   2.0000     -10.331792      -281.1424
   3   2.0000     -10.327995      -281.0390
   4   2.0000     -10.315431      -280.6971
   5   2.0000     -10.315226      -280.6916
   6   2.0000     -10.310976      -280.5759
   7   2.0000     -10.303373      -280.3690
   8   2.0000     -10.301072      -280.3064
   9   2.0000     -10.296356      -280.1781
  10   2.0000     -10.294497      -280.1275
  11   2.0000     -10.293410      -280.0979
  12   2.0000     -10.290636      -280.0224
  13   2.0000     -10.290056      -280.0067
  14   2.0000     -10.286174      -279.9010
  15   2.0000     -10.281643      -279.7777
  16   2.0000      -8.080608      -219.8845
  17   2.0000      -8.079226      -219.8469
  18   2.0000      -6.039269      -164.3369
  19   2.0000      -6.037785      -164.2965
  20   2.0000      -6.035398      -164.2315
  21   2.0000      -6.033646      -164.1839
  22   2.0000      -6.031072      -164.1138
  23   2.0000      -6.029891      -164.0817
  24   2.0000      -1.002437       -27.2777
  25   2.0000      -0.980334       -26.6762
  26   2.0000      -0.917833       -24.9755
  27   2.0000      -0.916561       -24.9409
  28   2.0000      -0.871136       -23.7048
  29   2.0000      -0.848635       -23.0925
  30   2.0000      -0.840606       -22.8740
  31   2.0000      -0.813094       -22.1254
  32   2.0000      -0.788295       -21.4506
  33   2.0000      -0.776490       -21.1294
  34   2.0000      -0.711976       -19.3739
  35   2.0000      -0.697363       -18.9762
  36   2.0000      -0.690403       -18.7868
  37   2.0000      -0.652938       -17.7673
  38   2.0000      -0.642070       -17.4716
  39   2.0000      -0.620685       -16.8897
  40   2.0000      -0.601429       -16.3657
  41   2.0000      -0.576081       -15.6760
  42   2.0000      -0.569769       -15.5042
  43   2.0000      -0.562806       -15.3147
  44   2.0000      -0.527872       -14.3641
  45   2.0000      -0.522546       -14.2192
  46   2.0000      -0.517097       -14.0709
  47   2.0000      -0.508189       -13.8285
  48   2.0000      -0.503665       -13.7054
  49   2.0000      -0.501130       -13.6364
  50   2.0000      -0.493066       -13.4170
  51   2.0000      -0.485985       -13.2243
  52   2.0000      -0.470882       -12.8134
  53   2.0000      -0.462839       -12.5945
  54   2.0000      -0.459645       -12.5076
  55   2.0000      -0.452475       -12.3125
  56   2.0000      -0.448042       -12.1918
  57   2.0000      -0.439551       -11.9608
  58   2.0000      -0.432990       -11.7823
  59   2.0000      -0.428072       -11.6484
  60   2.0000      -0.421601       -11.4723
  61   2.0000      -0.414364       -11.2754
  62   2.0000      -0.409845       -11.1524
  63   2.0000      -0.347294        -9.4503
  64   2.0000      -0.332510        -9.0481
  65   2.0000      -0.326018        -8.8714
  66   2.0000      -0.290894        -7.9156
  67   0.0000       0.031123         0.8469
  68   0.0000       0.067157         1.8274
  69   0.0000       0.105965         2.8835
  70   0.0000       0.118454         3.2233
  71   0.0000       0.125197         3.4068

MULLIKEN ATOMIC CHARGES
-----------------------
   0 S :    0.107127
   1 C :   -0.099401
   2 C :   -0.070397
   3 C :    0.044664
   4 C :   -0.165292
   5 H :   -0.019731
   6 C :    0.137807
   7 H :    0.030463
   8 H :    0.012952
   9 C :   -0.147431
  10 H :    0.039591
  11 H :    0.040641
  12 C :   -0.043732
  13 H :    0.040676
  14 H :    0.034273
  15 H :    0.027528
  16 S :    0.101864
  17 C :   -0.089175
  18 C :   -0.056816
  19 C :   -0.058576
  20 C :   -0.147879
  21 H :    0.044053
  22 C :    0.104259
  23 H :    0.023438
  24 H :    0.036490
  25 C :   -0.112527
  26 H :    0.031147
  27 H :    0.031169
  28 C :   -0.049242
  29 H :    0.043218
  30 H :    0.030952
  31 H :    0.018143
  32 H :    0.011485
  33 H :    0.068260
Sum of atomic charges:    0.0000000

LOEWDIN ATOMIC CHARGES
----------------------
   0 S :    0.382833
   1 C :   -0.163940
   2 C :   -0.054256
   3 C :   -0.053879
   4 C :   -0.195625
   5 H :    0.016548
   6 C :   -0.024718
   7 H :    0.032658
   8 H :    0.030185
   9 C :   -0.046823
  10 H :    0.028962
  11 H :    0.021721
  12 C :   -0.067539
  13 H :    0.027317
  14 H :    0.024202
  15 H :    0.027943
  16 S :    0.409708
  17 C :   -0.199572
  18 C :   -0.081972
  19 C :   -0.044018
  20 C :   -0.201968
  21 H :    0.040561
  22 C :   -0.031763
  23 H :    0.033437
  24 H :    0.034743
  25 C :   -0.052665
  26 H :    0.027664
  27 H :    0.023702
  28 C :   -0.073609
  29 H :    0.035227
  30 H :    0.024568
  31 H :    0.022926
  32 H :    0.012013
  33 H :    0.035427

  Mayer bond orders larger than 0.100000
B(  0-S ,  1-C ) :   1.1210 B(  0-S ,  4-C ) :   1.1322 B(  1-C ,  2-C ) :   1.6613
B(  1-C , 32-H ) :   0.9725 B(  2-C ,  3-C ) :   1.2102 B(  2-C ,  6-C ) :   1.0081
B(  3-C ,  4-C ) :   1.5927 B(  3-C ,  5-H ) :   0.9969 B(  4-C , 20-C ) :   1.0424
B(  6-C ,  7-H ) :   0.9262 B(  6-C ,  8-H ) :   0.9307 B(  6-C ,  9-C ) :   1.0719
B(  9-C , 10-H ) :   0.9508 B(  9-C , 11-H ) :   0.9626 B(  9-C , 12-C ) :   1.0659
B( 12-C , 13-H ) :   0.9756 B( 12-C , 14-H ) :   0.9771 B( 12-C , 15-H ) :   0.9775
B( 16-S , 17-C ) :   1.1489 B( 16-S , 20-C ) :   1.1465 B( 17-C , 18-C ) :   1.6311
B( 17-C , 33-H ) :   0.9651 B( 18-C , 19-C ) :   1.2184 B( 18-C , 21-H ) :   0.9762
B( 19-C , 20-C ) :   1.5952 B( 19-C , 22-C ) :   1.0509 B( 22-C , 23-H ) :   0.9309
B( 22-C , 24-H ) :   0.9286 B( 22-C , 25-C ) :   1.0638 B( 25-C , 26-H ) :   0.9464
B( 25-C , 27-H ) :   0.9556 B( 25-C , 28-C ) :   1.0823 B( 28-C , 29-H ) :   0.9736
B( 28-C , 30-H ) :   0.9750 B( 28-C , 31-H ) :   0.9706

Dispersion correction           -0.013945718
FINAL SINGLE POINT ENERGY     -1339.872382902973

DIPOLE MOMENT
-------------
                                X             Y             Z
Electronic contribution:     -2.17898     -27.41643      19.86730
Nuclear contribution   :      2.09395      28.06024     -20.43420
                        -----------------------------------------
Total Dipole Moment    :     -0.08503       0.64381      -0.56691
                        -----------------------------------------
Magnitude (a.u.)       :      0.86204
Magnitude (Debye)      :      2.19112

Rotational constants in cm-1:     0.015859     0.009674     0.006478
Rotational constants in MHz :   475.427316   290.028359   194.201851

                             ****ORCA TERMINATED NORMALLY****
TOTAL RUN TIME: 0 days 0 hours 0 minutes 21 seconds 794 msec
