                         Program Version 4.2.1 -  RELEASE  -
|  1> ! wB97X-D3 SP def2-SVP
|  2> %pal
|  3> nprocs 24
|  4> end
|  5>
|  6> * xyz 0 1
|  7> S 	 -57.2709 	 16.6148 	 -86.5785
|  8> C 	 -58.8625 	 17.0264 	 -87.1527
|  9> C 	 -59.1911 	 18.3535 	 -86.8913
| 10> C 	 -58.0442 	 19.1196 	 -86.4416
| 11> C 	 -56.9582 	 18.3129 	 -86.2198
| 12> H 	 -58.0303 	 20.1615 	 -86.3215
| 13> C 	 -60.4802 	 18.9777 	 -87.2642
| 14> H 	 -60.8866 	 19.6895 	 -86.5146
| 15> H 	 -61.2864 	 18.2842 	 -87.3825
| 16> C 	 -60.3734 	 19.6499 	 -88.6131
| 17> H 	 -59.6096 	 20.4485 	 -88.5811
| 18> H 	 -60.0323 	 18.9698 	 -89.4085
| 19> C 	 -61.7368 	 20.237 	 -89.0854
| 20> H 	 -62.2117 	 20.9891 	 -88.3899
| 21> H 	 -61.6182 	 20.6069 	 -90.1118
| 22> H 	 -62.4695 	 19.4918 	 -89.215
| 23> S 	 -55.0906 	 17.812 	 -84.3424
| 24> C 	 -53.6366 	 18.7209 	 -84.1716
| 25> C 	 -53.661 	 19.8028 	 -85.0483
| 26> C 	 -54.8622 	 19.8061 	 -85.919
| 27> C 	 -55.6993 	 18.7593 	 -85.6836
| 28> H 	 -52.8293 	 20.4921 	 -85.0885
| 29> C 	 -54.9767 	 20.7507 	 -87.0556
| 30> H 	 -55.9608 	 20.7373 	 -87.4977
| 31> H 	 -54.2596 	 20.392 	 -87.8239
| 32> C 	 -54.573 	 22.2094 	 -86.7944
| 33> H 	 -53.5026 	 22.3961 	 -86.7052
| 34> H 	 -55.0305 	 22.6335 	 -85.8986
| 35> C 	 -55.1346 	 23.0625 	 -88.0307
| 36> H 	 -54.6612 	 22.9067 	 -89.0379
| 37> H 	 -54.9648 	 24.1298 	 -87.8445
| 38> H 	 -56.2134 	 22.8931 	 -88.2478
| 39> H 	 -59.4756 	 16.2656 	 -87.4919
| 40> H 	 -52.8173 	 18.6356 	 -83.4787
| 41> *
| 42>
| 43>                          ****END OF INPUT****

CARTESIAN COORDINATES (ANGSTROEM)
---------------------------------
  S    -57.270900   16.614800  -86.578500
  C    -58.862500   17.026400  -87.152700
  C    -59.191100   18.353500  -86.891300
  C    -58.044200   19.119600  -86.441600
  C    -56.958200   18.312900  -86.219800
  H    -58.030300   20.161500  -86.321500
  C    -60.480200   18.977700  -87.264200
  H    -60.886600   19.689500  -86.514600
  H    -61.286400   18.284200  -87.382500
  C    -60.373400   19.649900  -88.613100
  H    -59.609600   20.448500  -88.581100
  H    -60.032300   18.969800  -89.408500
  C    -61.736800   20.237000  -89.085400
  H    -62.211700   20.989100  -88.389900
  H    -61.618200   20.606900  -90.111800
  H    -62.469500   19.491800  -89.215000
  S    -55.090600   17.812000  -84.342400
  C    -53.636600   18.720900  -84.171600
  C    -53.661000   19.802800  -85.048300
  C    -54.862200   19.806100  -85.919000
  C    -55.699300   18.759300  -85.683600
  H    -52.829300   20.492100  -85.088500
  C    -54.976700   20.750700  -87.055600
  H    -55.960800   20.737300  -87.497700
  H    -54.259600   20.392000  -87.823900
  C    -54.573000   22.209400  -86.794400
  H    -53.502600   22.396100  -86.705200
  H    -55.030500   22.633500  -85.898600
  C    -55.134600   23.062500  -88.030700
  H    -54.661200   22.906700  -89.037900
  H    -54.964800   24.129800  -87.844500
  H    -56.213400   22.893100  -88.247800
  H    -59.475600   16.265600  -87.491900
  H    -52.817300   18.635600  -83.478700

 Total Charge           Charge          ....    0
 Multiplicity           Mult            ....    1
 Number of Electrons    NEL             ....  134
 Basis Dimension        Dim             ....  322

ORBITAL ENERGIES
----------------

  NO   OCC          E(Eh)            E(eV)
   0   2.0000     -88.966893     -2420.9122
   1   2.0000     -88.960004     -2420.7248
   2   2.0000     -10.329633      -281.0836
   3   2.0000     -10.320773      -280.8425
   4   2.0000     -10.315436      -280.6973
   5   2.0000     -10.310407      -280.5604
   6   2.0000     -10.304022      -280.3867
   7   2.0000     -10.301497      -280.3180
   8   2.0000     -10.295925      -280.1664
   9   2.0000     -10.293975      -280.1133
  10   2.0000     -10.293971      -280.1132
  11   2.0000     -10.289515      -279.9919
  12   2.0000     -10.288998      -279.9779
  13   2.0000     -10.288673      -279.9690
  14   2.0000     -10.287208      -279.9292
  15   2.0000     -10.280440      -279.7450
  16   2.0000      -8.081729      -219.9150
  17   2.0000      -8.075378      -219.7422
  18   2.0000      -6.040223      -164.3628
  19   2.0000      -6.036286      -164.2557
  20   2.0000      -6.034056      -164.1950
  21   2.0000      -6.032434      -164.1509
  22   2.0000      -6.029659      -164.0754
  23   2.0000      -6.026034      -163.9767
  24   2.0000      -1.008734       -27.4491
  25   2.0000      -0.983707       -26.7680
  26   2.0000      -0.917395       -24.9636
  27   2.0000      -0.907769       -24.7017
  28   2.0000      -0.872643       -23.7458
  29   2.0000      -0.851132       -23.1605
  30   2.0000      -0.840287       -22.8654
  31   2.0000      -0.817223       -22.2378
  32   2.0000      -0.778511       -21.1844
  33   2.0000      -0.768474       -20.9113
  34   2.0000      -0.710223       -19.3261
  35   2.0000      -0.701934       -19.1006
  36   2.0000      -0.698702       -19.0126
  37   2.0000      -0.662900       -18.0384
  38   2.0000      -0.648786       -17.6544
  39   2.0000      -0.628347       -17.0982
  40   2.0000      -0.596190       -16.2232
  41   2.0000      -0.571677       -15.5561
  42   2.0000      -0.565996       -15.4015
  43   2.0000      -0.558294       -15.1920
  44   2.0000      -0.527850       -14.3635
  45   2.0000      -0.523962       -14.2577
  46   2.0000      -0.518205       -14.1011
  47   2.0000      -0.514259       -13.9937
  48   2.0000      -0.505746       -13.7621
  49   2.0000      -0.499856       -13.6018
  50   2.0000      -0.486914       -13.2496
  51   2.0000      -0.477995       -13.0069
  52   2.0000      -0.472030       -12.8446
  53   2.0000      -0.463249       -12.6057
  54   2.0000      -0.455741       -12.4013
  55   2.0000      -0.448778       -12.2119
  56   2.0000      -0.445034       -12.1100
  57   2.0000      -0.442002       -12.0275
  58   2.0000      -0.438653       -11.9364
  59   2.0000      -0.429271       -11.6811
  60   2.0000      -0.425648       -11.5825
  61   2.0000      -0.416354       -11.3296
  62   2.0000      -0.409560       -11.1447
  63   2.0000      -0.353228        -9.6118
  64   2.0000      -0.329670        -8.9708
  65   2.0000      -0.322165        -8.7666
  66   2.0000      -0.291234        -7.9249
  67   0.0000       0.033275         0.9055
  68   0.0000       0.072357         1.9689
  69   0.0000       0.111004         3.0206
  70   0.0000       0.119918         3.2631
  71   0.0000       0.124615         3.3910

MULLIKEN ATOMIC CHARGES
-----------------------
   0 S :    0.116246
   1 C :   -0.101350
   2 C :   -0.052522
   3 C :    0.037119
   4 C :   -0.139674
   5 H :    0.000704
   6 C :    0.073243
   7 H :    0.032753
   8 H :    0.003811
   9 C :   -0.097742
  10 H :    0.025815
  11 H :    0.032750
  12 C :   -0.043775
  13 H :    0.040670
  14 H :    0.034664
  15 H :    0.014233
  16 S :    0.094803
  17 C :   -0.070232
  18 C :   -0.053526
  19 C :   -0.027090
  20 C :   -0.135406
  21 H :    0.017908
  22 C :    0.059018
  23 H :    0.010115
  24 H :    0.048283
  25 C :   -0.082960
  26 H :    0.039058
  27 H :    0.035841
  28 C :   -0.100600
  29 H :    0.036061
  30 H :    0.035595
  31 H :    0.037469
  32 H :    0.025302
  33 H :    0.053418
Sum of atomic charges:    0.0000000

LOEWDIN ATOMIC CHARGES
----------------------
   0 S :    0.404474
   1 C :   -0.184858
   2 C :   -0.051540
   3 C :   -0.048192
   4 C :   -0.186098
   5 H :    0.024594
   6 C :   -0.039835
   7 H :    0.035909
   8 H :    0.025585
   9 C :   -0.037723
  10 H :    0.020654
  11 H :    0.028178
  12 C :   -0.070873
  13 H :    0.030600
  14 H :    0.029988
  15 H :    0.015380
  16 S :    0.407617
  17 C :   -0.193427
  18 C :   -0.071686
  19 C :   -0.061299
  20 C :   -0.196898
  21 H :    0.027199
  22 C :   -0.036018
  23 H :    0.025238
  24 H :    0.044806
  25 C :   -0.034861
  26 H :    0.024119
  27 H :    0.024679
  28 C :   -0.078017
  29 H :    0.028181
  30 H :    0.024226
  31 H :    0.025415
  32 H :    0.011382
  33 H :    0.033099

  Mayer bond orders larger than 0.100000
B(  0-S ,  1-C ) :   1.1337 B(  0-S ,  4-C ) :   1.1457 B(  1-C ,  2-C ) :   1.6029
B(  1-C , 32-H ) :   0.9812 B(  2-C ,  3-C ) :   1.2111 B(  2-C ,  6-C ) :   1.0538
B(  3-C ,  4-C ) :   1.5797 B(  3-C ,  5-H ) :   1.0030 B(  4-C , 20-C ) :   1.0396
B(  6-C ,  7-H ) :   0.9351 B(  6-C ,  8-H ) :   0.9362 B(  6-C ,  9-C ) :   1.0576
B(  9-C , 10-H ) :   0.9570 B(  9-C , 11-H ) :   0.9539 B(  9-C , 12-C ) :   1.0807
B( 12-C , 13-H ) :   0.9746 B( 12-C , 14-H ) :   0.9727 B( 12-C , 15-H ) :   0.9730
B( 16-S , 17-C ) :   1.1494 B( 16-S , 20-C ) :   1.1204 B( 17-C , 18-C ) :   1.6317
B( 17-C , 33-H ) :   0.9681 B( 18-C , 19-C ) :   1.1960 B( 18-C , 21-H ) :   0.9900
B( 19-C , 20-C ) :   1.6321 B( 19-C , 22-C ) :   1.0629 B( 22-C , 23-H ) :   0.9424
B( 22-C , 24-H ) :   0.9249 B( 22-C , 25-C ) :   1.0560 B( 25-C , 26-H ) :   0.9505
B( 25-C , 27-H ) :   0.9635 B( 25-C , 28-C ) :   1.0722 B( 28-C , 29-H ) :   0.9764
B( 28-C , 30-H ) :   0.9770 B( 28-C , 31-H ) :   0.9775

Dispersion correction           -0.013656618
FINAL SINGLE POINT ENERGY     -1339.885418586344

DIPOLE MOMENT
-------------
                                X             Y             Z
Electronic contribution:     11.82477     -24.64487      17.16313
Nuclear contribution   :    -12.00673      25.18730     -17.52077
                        -----------------------------------------
Total Dipole Moment    :     -0.18197       0.54243      -0.35763
                        -----------------------------------------
Magnitude (a.u.)       :      0.67472
Magnitude (Debye)      :      1.71499

Rotational constants in cm-1:     0.017005     0.009038     0.006237
Rotational constants in MHz :   509.795197   270.957955   186.973366

                             ****ORCA TERMINATED NORMALLY****
TOTAL RUN TIME: 0 days 0 hours 0 minutes 20 seconds 108 msec
