                         Program Version 4.2.1 -  RELEASE  -
|  1> ! wB97X-D3 SP def2-SVP
|  2> %pal
|  3> nprocs 24
|  4> end
|  5>
|  6> * xyz 0 1
|  7> S 	 -104.974 	 21.8421 	 -117.681
|  8> C 	 -106.064 	 20.874 	 -116.821
|  9> C 	 -106.967 	 20.2638 	 -117.635
| 10> C 	 -106.786 	 20.7024 	 -118.977
| 11> C 	 -105.759 	 21.6194 	 -119.184
| 12> H 	 -107.244 	 20.2951 	 -119.811
| 13> C 	 -108.039 	 19.2413 	 -117.211
| 14> H 	 -107.753 	 18.5423 	 -118.003
| 15> H 	 -108.987 	 19.6999 	 -117.356
| 16> C 	 -107.93 	 18.348 	 -115.921
| 17> H 	 -108.18 	 18.9654 	 -115.025
| 18> H 	 -108.808 	 17.6711 	 -115.989
| 19> C 	 -106.612 	 17.6998 	 -115.707
| 20> H 	 -106.623 	 16.7517 	 -115.036
| 21> H 	 -106.306 	 17.2213 	 -116.637
| 22> H 	 -105.865 	 18.2724 	 -115.244
| 23> S 	 -103.496 	 22.7223 	 -120.38
| 24> C 	 -103.518 	 22.9575 	 -122.095
| 25> C 	 -104.71 	 22.5944 	 -122.656
| 26> C 	 -105.685 	 22.0993 	 -121.717
| 27> C 	 -105.157 	 22.0712 	 -120.456
| 28> H 	 -104.856 	 22.7257 	 -123.76
| 29> C 	 -107.114 	 21.7678 	 -122.048
| 30> H 	 -107.475 	 22.5914 	 -122.672
| 31> H 	 -107.737 	 21.8416 	 -121.181
| 32> C 	 -107.31 	 20.3256 	 -122.631
| 33> H 	 -107.092 	 19.6086 	 -121.803
| 34> H 	 -106.679 	 20.1742 	 -123.539
| 35> C 	 -108.768 	 19.992 	 -123.046
| 36> H 	 -109.447 	 20.0576 	 -122.19
| 37> H 	 -108.783 	 19.053 	 -123.569
| 38> H 	 -109.164 	 20.7174 	 -123.789
| 39> H 	 -106.1 	 20.705 	 -115.71
| 40> H 	 -102.786 	 23.2848 	 -122.796
| 41> *
| 42>
| 43>                          ****END OF INPUT****

CARTESIAN COORDINATES (ANGSTROEM)
---------------------------------
  S    -104.974000   21.842100  -117.681000
  C    -106.064000   20.874000  -116.821000
  C    -106.967000   20.263800  -117.635000
  C    -106.786000   20.702400  -118.977000
  C    -105.759000   21.619400  -119.184000
  H    -107.244000   20.295100  -119.811000
  C    -108.039000   19.241300  -117.211000
  H    -107.753000   18.542300  -118.003000
  H    -108.987000   19.699900  -117.356000
  C    -107.930000   18.348000  -115.921000
  H    -108.180000   18.965400  -115.025000
  H    -108.808000   17.671100  -115.989000
  C    -106.612000   17.699800  -115.707000
  H    -106.623000   16.751700  -115.036000
  H    -106.306000   17.221300  -116.637000
  H    -105.865000   18.272400  -115.244000
  S    -103.496000   22.722300  -120.380000
  C    -103.518000   22.957500  -122.095000
  C    -104.710000   22.594400  -122.656000
  C    -105.685000   22.099300  -121.717000
  C    -105.157000   22.071200  -120.456000
  H    -104.856000   22.725700  -123.760000
  C    -107.114000   21.767800  -122.048000
  H    -107.475000   22.591400  -122.672000
  H    -107.737000   21.841600  -121.181000
  C    -107.310000   20.325600  -122.631000
  H    -107.092000   19.608600  -121.803000
  H    -106.679000   20.174200  -123.539000
  C    -108.768000   19.992000  -123.046000
  H    -109.447000   20.057600  -122.190000
  H    -108.783000   19.053000  -123.569000
  H    -109.164000   20.717400  -123.789000
  H    -106.100000   20.705000  -115.710000
  H    -102.786000   23.284800  -122.796000

 Total Charge           Charge          ....    0
 Multiplicity           Mult            ....    1
 Number of Electrons    NEL             ....  134
 Basis Dimension        Dim             ....  322

ORBITAL ENERGIES
----------------

  NO   OCC          E(Eh)            E(eV)
   0   2.0000     -88.967930     -2420.9405
   1   2.0000     -88.962700     -2420.7981
   2   2.0000     -10.330062      -281.0953
   3   2.0000     -10.327902      -281.0365
   4   2.0000     -10.312386      -280.6143
   5   2.0000     -10.307853      -280.4909
   6   2.0000     -10.301444      -280.3165
   7   2.0000     -10.298413      -280.2341
   8   2.0000     -10.297720      -280.2152
   9   2.0000     -10.297593      -280.2117
  10   2.0000     -10.295711      -280.1606
  11   2.0000     -10.295089      -280.1436
  12   2.0000     -10.292675      -280.0779
  13   2.0000     -10.286421      -279.9077
  14   2.0000     -10.281745      -279.7805
  15   2.0000     -10.281614      -279.7769
  16   2.0000      -8.082305      -219.9307
  17   2.0000      -8.079204      -219.8463
  18   2.0000      -6.041010      -164.3842
  19   2.0000      -6.037612      -164.2918
  20   2.0000      -6.037043      -164.2763
  21   2.0000      -6.033415      -164.1776
  22   2.0000      -6.032707      -164.1583
  23   2.0000      -6.030029      -164.0854
  24   2.0000      -1.014228       -27.5986
  25   2.0000      -0.989779       -26.9333
  26   2.0000      -0.912991       -24.8437
  27   2.0000      -0.907725       -24.7005
  28   2.0000      -0.870346       -23.6833
  29   2.0000      -0.857011       -23.3204
  30   2.0000      -0.847621       -23.0649
  31   2.0000      -0.815253       -22.1842
  32   2.0000      -0.787230       -21.4216
  33   2.0000      -0.777426       -21.1548
  34   2.0000      -0.707596       -19.2547
  35   2.0000      -0.702824       -19.1248
  36   2.0000      -0.694384       -18.8951
  37   2.0000      -0.663904       -18.0657
  38   2.0000      -0.635074       -17.2812
  39   2.0000      -0.614651       -16.7255
  40   2.0000      -0.593298       -16.1445
  41   2.0000      -0.575887       -15.6707
  42   2.0000      -0.567284       -15.4366
  43   2.0000      -0.563372       -15.3301
  44   2.0000      -0.537271       -14.6199
  45   2.0000      -0.529049       -14.3962
  46   2.0000      -0.513418       -13.9708
  47   2.0000      -0.510601       -13.8942
  48   2.0000      -0.506889       -13.7932
  49   2.0000      -0.498177       -13.5561
  50   2.0000      -0.494070       -13.4443
  51   2.0000      -0.488149       -13.2832
  52   2.0000      -0.471177       -12.8214
  53   2.0000      -0.468871       -12.7586
  54   2.0000      -0.461262       -12.5516
  55   2.0000      -0.451810       -12.2944
  56   2.0000      -0.450600       -12.2615
  57   2.0000      -0.436279       -11.8718
  58   2.0000      -0.430166       -11.7054
  59   2.0000      -0.427825       -11.6417
  60   2.0000      -0.419078       -11.4037
  61   2.0000      -0.415625       -11.3097
  62   2.0000      -0.401974       -10.9383
  63   2.0000      -0.364125        -9.9083
  64   2.0000      -0.334937        -9.1141
  65   2.0000      -0.326217        -8.8768
  66   2.0000      -0.284268        -7.7353
  67   0.0000       0.026179         0.7124
  68   0.0000       0.090466         2.4617
  69   0.0000       0.104993         2.8570
  70   0.0000       0.123806         3.3689
  71   0.0000       0.131416         3.5760

MULLIKEN ATOMIC CHARGES
-----------------------
   0 S :    0.098824
   1 C :   -0.134174
   2 C :   -0.085067
   3 C :    0.008124
   4 C :   -0.095462
   5 H :   -0.058055
   6 C :    0.043695
   7 H :    0.034926
   8 H :    0.046682
   9 C :   -0.063626
  10 H :    0.027988
  11 H :    0.039156
  12 C :   -0.050456
  13 H :    0.034342
  14 H :    0.029233
  15 H :    0.032223
  16 S :    0.105335
  17 C :   -0.056192
  18 C :   -0.066243
  19 C :   -0.056888
  20 C :   -0.114259
  21 H :    0.030997
  22 C :    0.062302
  23 H :    0.027946
  24 H :    0.014323
  25 C :   -0.107309
  26 H :    0.049184
  27 H :    0.041319
  28 C :   -0.039044
  29 H :    0.031913
  30 H :    0.039009
  31 H :    0.026172
  32 H :    0.062051
  33 H :    0.041033
Sum of atomic charges:    0.0000000

LOEWDIN ATOMIC CHARGES
----------------------
   0 S :    0.437385
   1 C :   -0.226654
   2 C :   -0.069083
   3 C :   -0.068729
   4 C :   -0.197270
   5 H :    0.010632
   6 C :   -0.030710
   7 H :    0.038326
   8 H :    0.030269
   9 C :   -0.047571
  10 H :    0.024050
  11 H :    0.034449
  12 C :   -0.071236
  13 H :    0.039315
  14 H :    0.027497
  15 H :    0.019020
  16 S :    0.389998
  17 C :   -0.190789
  18 C :   -0.074844
  19 C :   -0.059520
  20 C :   -0.174459
  21 H :    0.037953
  22 C :   -0.033242
  23 H :    0.034109
  24 H :    0.025421
  25 C :   -0.039039
  26 H :    0.027864
  27 H :    0.028911
  28 C :   -0.068945
  29 H :    0.023676
  30 H :    0.026101
  31 H :    0.025521
  32 H :    0.040640
  33 H :    0.030954

  Mayer bond orders larger than 0.100000
B(  0-S ,  1-C ) :   1.1528 B(  0-S ,  4-C ) :   1.1666 B(  1-C ,  2-C ) :   1.6040
B(  1-C , 32-H ) :   0.9540 B(  2-C ,  3-C ) :   1.2934 B(  2-C ,  6-C ) :   0.9610
B(  3-C ,  4-C ) :   1.5290 B(  3-C ,  5-H ) :   0.9989 B(  4-C , 20-C ) :   1.0642
B(  6-C ,  7-H ) :   0.9458 B(  6-C ,  8-H ) :   0.9498 B(  6-C ,  9-C ) :   1.0767
B(  9-C , 10-H ) :   0.9508 B(  9-C , 11-H ) :   0.9528 B(  9-C , 12-C ) :   1.0797
B( 12-C , 13-H ) :   0.9685 B( 12-C , 14-H ) :   0.9735 B( 12-C , 15-H ) :   0.9728
B( 16-S , 17-C ) :   1.1296 B( 16-S , 20-C ) :   1.1131 B( 17-C , 18-C ) :   1.6666
B( 17-C , 33-H ) :   0.9633 B( 18-C , 19-C ) :   1.2139 B( 18-C , 21-H ) :   0.9785
B( 19-C , 20-C ) :   1.6379 B( 19-C , 22-C ) :   1.0464 B( 22-C , 23-H ) :   0.9326
B( 22-C , 24-H ) :   0.9279 B( 22-C , 25-C ) :   1.0552 B( 25-C , 26-H ) :   0.9502
B( 25-C , 27-H ) :   0.9573 B( 25-C , 28-C ) :   1.0831 B( 28-C , 29-H ) :   0.9738
B( 28-C , 30-H ) :   0.9746 B( 28-C , 31-H ) :   0.9742

Dispersion correction           -0.014172810
FINAL SINGLE POINT ENERGY     -1339.869501509826

DIPOLE MOMENT
-------------
                                X             Y             Z
Electronic contribution:     21.05072      19.60327       1.98530
Nuclear contribution   :    -21.57593     -20.07318      -2.25104
                        -----------------------------------------
Total Dipole Moment    :     -0.52521      -0.46991      -0.26574
                        -----------------------------------------
Magnitude (a.u.)       :      0.75318
Magnitude (Debye)      :      1.91443

Rotational constants in cm-1:     0.018659     0.008861     0.006353
Rotational constants in MHz :   559.388102   265.658956   190.473131

                             ****ORCA TERMINATED NORMALLY****
TOTAL RUN TIME: 0 days 0 hours 0 minutes 21 seconds 678 msec
