                         Program Version 4.2.1 -  RELEASE  -
|  1> ! wB97X-D3 SP def2-SVP
|  2> %pal
|  3> nprocs 24
|  4> end
|  5>
|  6> * xyz 0 1
|  7> S 	 -55.3737 	 5.45821 	 -32.9641
|  8> C 	 -56.3226 	 4.06363 	 -33.2662
|  9> C 	 -55.5321 	 2.98191 	 -33.6903
| 10> C 	 -54.1656 	 3.34667 	 -34.0005
| 11> C 	 -53.9312 	 4.65247 	 -33.6155
| 12> H 	 -53.4001 	 2.69421 	 -34.4844
| 13> C 	 -56.0391 	 1.60724 	 -33.983
| 14> H 	 -55.4999 	 1.16033 	 -34.8926
| 15> H 	 -57.0775 	 1.66791 	 -34.2642
| 16> C 	 -56.0841 	 0.767323 	 -32.7152
| 17> H 	 -55.0843 	 0.57605 	 -32.2981
| 18> H 	 -56.6994 	 1.27366 	 -31.9282
| 19> C 	 -56.6171 	 -0.596158 	 -32.9556
| 20> H 	 -56.1503 	 -1.05783 	 -33.8889
| 21> H 	 -56.4103 	 -1.20667 	 -32.083
| 22> H 	 -57.7037 	 -0.560496 	 -33.0569
| 23> S 	 -52.8169 	 7.00778 	 -34.3691
| 24> C 	 -51.0332 	 7.0943 	 -34.6331
| 25> C 	 -50.3908 	 6.01227 	 -34.0652
| 26> C 	 -51.298 	 5.03478 	 -33.6175
| 27> C 	 -52.6484 	 5.4074 	 -33.6749
| 28> H 	 -49.3646 	 5.98155 	 -34.104
| 29> C 	 -50.7813 	 3.6908 	 -33.0726
| 30> H 	 -51.619 	 3.19084 	 -32.5139
| 31> H 	 -50.0169 	 3.94048 	 -32.3409
| 32> C 	 -50.0921 	 2.86105 	 -34.2671
| 33> H 	 -49.224 	 3.4069 	 -34.6595
| 34> H 	 -50.8708 	 2.69539 	 -35.0204
| 35> C 	 -49.6663 	 1.37488 	 -33.815
| 36> H 	 -50.2519 	 0.954242 	 -33.0446
| 37> H 	 -48.6773 	 1.51826 	 -33.3664
| 38> H 	 -49.4931 	 0.632447 	 -34.6005
| 39> H 	 -57.3551 	 3.87986 	 -33.1299
| 40> H 	 -50.5732 	 7.98966 	 -35.0585
| 41> *
| 42>
| 43>                          ****END OF INPUT****

CARTESIAN COORDINATES (ANGSTROEM)
---------------------------------
  S    -55.373700    5.458210  -32.964100
  C    -56.322600    4.063630  -33.266200
  C    -55.532100    2.981910  -33.690300
  C    -54.165600    3.346670  -34.000500
  C    -53.931200    4.652470  -33.615500
  H    -53.400100    2.694210  -34.484400
  C    -56.039100    1.607240  -33.983000
  H    -55.499900    1.160330  -34.892600
  H    -57.077500    1.667910  -34.264200
  C    -56.084100    0.767323  -32.715200
  H    -55.084300    0.576050  -32.298100
  H    -56.699400    1.273660  -31.928200
  C    -56.617100   -0.596158  -32.955600
  H    -56.150300   -1.057830  -33.888900
  H    -56.410300   -1.206670  -32.083000
  H    -57.703700   -0.560496  -33.056900
  S    -52.816900    7.007780  -34.369100
  C    -51.033200    7.094300  -34.633100
  C    -50.390800    6.012270  -34.065200
  C    -51.298000    5.034780  -33.617500
  C    -52.648400    5.407400  -33.674900
  H    -49.364600    5.981550  -34.104000
  C    -50.781300    3.690800  -33.072600
  H    -51.619000    3.190840  -32.513900
  H    -50.016900    3.940480  -32.340900
  C    -50.092100    2.861050  -34.267100
  H    -49.224000    3.406900  -34.659500
  H    -50.870800    2.695390  -35.020400
  C    -49.666300    1.374880  -33.815000
  H    -50.251900    0.954242  -33.044600
  H    -48.677300    1.518260  -33.366400
  H    -49.493100    0.632447  -34.600500
  H    -57.355100    3.879860  -33.129900
  H    -50.573200    7.989660  -35.058500

 Total Charge           Charge          ....    0
 Multiplicity           Mult            ....    1
 Number of Electrons    NEL             ....  134
 Basis Dimension        Dim             ....  322

ORBITAL ENERGIES
----------------

  NO   OCC          E(Eh)            E(eV)
   0   2.0000     -88.969289     -2420.9774
   1   2.0000     -88.962650     -2420.7968
   2   2.0000     -10.334054      -281.2039
   3   2.0000     -10.328450      -281.0514
   4   2.0000     -10.323425      -280.9147
   5   2.0000     -10.309047      -280.5234
   6   2.0000     -10.305968      -280.4396
   7   2.0000     -10.302118      -280.3349
   8   2.0000     -10.301015      -280.3049
   9   2.0000     -10.300034      -280.2782
  10   2.0000     -10.299083      -280.2523
  11   2.0000     -10.292411      -280.0708
  12   2.0000     -10.291666      -280.0505
  13   2.0000     -10.284718      -279.8614
  14   2.0000     -10.280016      -279.7335
  15   2.0000     -10.277896      -279.6758
  16   2.0000      -8.083841      -219.9725
  17   2.0000      -8.076866      -219.7827
  18   2.0000      -6.042394      -164.4219
  19   2.0000      -6.038456      -164.3147
  20   2.0000      -6.035374      -164.2309
  21   2.0000      -6.034488      -164.2068
  22   2.0000      -6.031486      -164.1251
  23   2.0000      -6.027607      -164.0195
  24   2.0000      -1.002791       -27.2873
  25   2.0000      -0.981145       -26.6983
  26   2.0000      -0.918055       -24.9816
  27   2.0000      -0.894544       -24.3418
  28   2.0000      -0.869162       -23.6511
  29   2.0000      -0.853115       -23.2144
  30   2.0000      -0.842453       -22.9243
  31   2.0000      -0.817035       -22.2327
  32   2.0000      -0.776378       -21.1263
  33   2.0000      -0.765137       -20.8204
  34   2.0000      -0.705176       -19.1888
  35   2.0000      -0.695499       -18.9255
  36   2.0000      -0.689631       -18.7658
  37   2.0000      -0.667541       -18.1647
  38   2.0000      -0.638904       -17.3855
  39   2.0000      -0.620560       -16.8863
  40   2.0000      -0.589115       -16.0306
  41   2.0000      -0.572675       -15.5833
  42   2.0000      -0.567603       -15.4453
  43   2.0000      -0.558557       -15.1991
  44   2.0000      -0.526558       -14.3284
  45   2.0000      -0.525360       -14.2958
  46   2.0000      -0.518255       -14.1024
  47   2.0000      -0.510016       -13.8783
  48   2.0000      -0.503376       -13.6976
  49   2.0000      -0.496942       -13.5225
  50   2.0000      -0.491503       -13.3745
  51   2.0000      -0.477861       -13.0033
  52   2.0000      -0.469349       -12.7716
  53   2.0000      -0.461839       -12.5673
  54   2.0000      -0.459743       -12.5103
  55   2.0000      -0.447398       -12.1743
  56   2.0000      -0.444033       -12.0828
  57   2.0000      -0.438421       -11.9300
  58   2.0000      -0.436585       -11.8801
  59   2.0000      -0.426343       -11.6014
  60   2.0000      -0.420057       -11.4303
  61   2.0000      -0.414216       -11.2714
  62   2.0000      -0.410642       -11.1741
  63   2.0000      -0.353235        -9.6120
  64   2.0000      -0.333210        -9.0671
  65   2.0000      -0.324281        -8.8241
  66   2.0000      -0.285931        -7.7806
  67   0.0000       0.026652         0.7252
  68   0.0000       0.071510         1.9459
  69   0.0000       0.102945         2.8013
  70   0.0000       0.120303         3.2736
  71   0.0000       0.126478         3.4416

MULLIKEN ATOMIC CHARGES
-----------------------
   0 S :    0.118297
   1 C :   -0.073383
   2 C :   -0.118428
   3 C :    0.005826
   4 C :   -0.125948
   5 H :    0.034725
   6 C :    0.043768
   7 H :    0.041879
   8 H :    0.008733
   9 C :   -0.093846
  10 H :    0.024840
  11 H :    0.036318
  12 C :   -0.038158
  13 H :    0.037348
  14 H :    0.033790
  15 H :    0.026107
  16 S :    0.078394
  17 C :   -0.109344
  18 C :    0.014262
  19 C :   -0.057050
  20 C :   -0.115589
  21 H :   -0.008157
  22 C :    0.037134
  23 H :    0.047169
  24 H :    0.031794
  25 C :   -0.107581
  26 H :    0.047813
  27 H :    0.041772
  28 C :   -0.045948
  29 H :    0.027116
  30 H :    0.022097
  31 H :    0.041598
  32 H :    0.026871
  33 H :    0.065782
Sum of atomic charges:    0.0000000

LOEWDIN ATOMIC CHARGES
----------------------
   0 S :    0.410868
   1 C :   -0.213527
   2 C :   -0.056851
   3 C :   -0.069144
   4 C :   -0.180378
   5 H :    0.042315
   6 C :   -0.040444
   7 H :    0.038931
   8 H :    0.026525
   9 C :   -0.046979
  10 H :    0.022567
  11 H :    0.030734
  12 C :   -0.069287
  13 H :    0.031649
  14 H :    0.025912
  15 H :    0.020983
  16 S :    0.380046
  17 C :   -0.158250
  18 C :   -0.060684
  19 C :   -0.056295
  20 C :   -0.201006
  21 H :    0.020828
  22 C :   -0.031504
  23 H :    0.036139
  24 H :    0.029070
  25 C :   -0.032393
  26 H :    0.026988
  27 H :    0.021516
  28 C :   -0.072351
  29 H :    0.018446
  30 H :    0.025929
  31 H :    0.027497
  32 H :    0.022547
  33 H :    0.029602

  Mayer bond orders larger than 0.100000
B(  0-S ,  1-C ) :   1.1274 B(  0-S ,  4-C ) :   1.1528 B(  1-C ,  2-C ) :   1.6189
B(  1-C , 32-H ) :   0.9663 B(  2-C ,  3-C ) :   1.2301 B(  2-C ,  6-C ) :   1.0383
B(  3-C ,  4-C ) :   1.5839 B(  3-C ,  5-H ) :   0.9854 B(  4-C , 20-C ) :   1.0022
B(  6-C ,  7-H ) :   0.9441 B(  6-C ,  8-H ) :   0.9359 B(  6-C ,  9-C ) :   1.0571
B(  9-C , 10-H ) :   0.9560 B(  9-C , 11-H ) :   0.9524 B(  9-C , 12-C ) :   1.0917
B( 12-C , 13-H ) :   0.9693 B( 12-C , 14-H ) :   0.9730 B( 12-C , 15-H ) :   0.9720
B( 16-S , 17-C ) :   1.1551 B( 16-S , 20-C ) :   1.1331 B( 17-C , 18-C ) :   1.5988
B( 17-C , 20-C ) :   0.1023 B( 17-C , 33-H ) :   0.9661 B( 18-C , 19-C ) :   1.2325
B( 18-C , 21-H ) :   1.0068 B( 19-C , 20-C ) :   1.6108 B( 19-C , 22-C ) :   1.0306
B( 22-C , 23-H ) :   0.9470 B( 22-C , 24-H ) :   0.9402 B( 22-C , 25-C ) :   1.0377
B( 25-C , 26-H ) :   0.9619 B( 25-C , 27-H ) :   0.9648 B( 25-C , 28-C ) :   1.0608
B( 28-C , 29-H ) :   0.9789 B( 28-C , 30-H ) :   0.9770 B( 28-C , 31-H ) :   0.9802

Dispersion correction           -0.013839170
FINAL SINGLE POINT ENERGY     -1339.870317962472

DIPOLE MOMENT
-------------
                                X             Y             Z
Electronic contribution:     -5.24391      31.87753      -1.19104
Nuclear contribution   :      5.60274     -32.48850       1.13186
                        -----------------------------------------
Total Dipole Moment    :      0.35883      -0.61097      -0.05917
                        -----------------------------------------
Magnitude (a.u.)       :      0.71102
Magnitude (Debye)      :      1.80726

Rotational constants in cm-1:     0.017315     0.008975     0.006177
Rotational constants in MHz :   519.094175   269.060884   185.180371

                             ****ORCA TERMINATED NORMALLY****
TOTAL RUN TIME: 0 days 0 hours 0 minutes 22 seconds 524 msec
