                         Program Version 4.2.1 -  RELEASE  -
|  1> ! wB97X-D3 SP def2-SVP
|  2> %pal
|  3> nprocs 24
|  4> end
|  5>
|  6> * xyz 0 1
|  7> S 	 24.7048 	 -2.28509 	 -107.845
|  8> C 	 25.8769 	 -1.99246 	 -109.149
|  9> C 	 25.2526 	 -1.81949 	 -110.384
| 10> C 	 23.8722 	 -1.95901 	 -110.265
| 11> C 	 23.3987 	 -2.24064 	 -108.979
| 12> H 	 23.0909 	 -1.90459 	 -110.985
| 13> C 	 25.9775 	 -1.7219 	 -111.661
| 14> H 	 26.8869 	 -2.36322 	 -111.539
| 15> H 	 26.4069 	 -0.69267 	 -111.729
| 16> C 	 25.2197 	 -1.97185 	 -112.98
| 17> H 	 24.3227 	 -1.42126 	 -113.092
| 18> H 	 25.8271 	 -1.50562 	 -113.776
| 19> C 	 24.9116 	 -3.44753 	 -113.271
| 20> H 	 24.4032 	 -3.44938 	 -114.231
| 21> H 	 25.8042 	 -4.04281 	 -113.251
| 22> H 	 24.2577 	 -3.88641 	 -112.507
| 23> S 	 21.4723 	 -1.40704 	 -107.245
| 24> C 	 19.8451 	 -1.78552 	 -107.512
| 25> C 	 19.7208 	 -2.79977 	 -108.453
| 26> C 	 20.9566 	 -3.15477 	 -109.061
| 27> C 	 22.0102 	 -2.42825 	 -108.593
| 28> H 	 18.665 	 -3.2058 	 -108.497
| 29> C 	 21.2212 	 -4.34293 	 -110.1
| 30> H 	 22.0827 	 -3.97085 	 -110.639
| 31> H 	 20.3447 	 -4.46978 	 -110.735
| 32> C 	 21.6599 	 -5.76396 	 -109.515
| 33> H 	 20.9086 	 -6.1962 	 -108.88
| 34> H 	 22.5346 	 -5.53951 	 -108.912
| 35> C 	 22.1847 	 -6.61019 	 -110.697
| 36> H 	 22.5801 	 -7.54574 	 -110.423
| 37> H 	 23.0354 	 -6.13096 	 -111.169
| 38> H 	 21.3903 	 -6.78126 	 -111.54
| 39> H 	 26.8949 	 -1.66955 	 -108.959
| 40> H 	 19.0211 	 -1.65096 	 -106.824
| 41> *
| 42>
| 43>                          ****END OF INPUT****

CARTESIAN COORDINATES (ANGSTROEM)
---------------------------------
  S     24.704800   -2.285090  -107.845000
  C     25.876900   -1.992460  -109.149000
  C     25.252600   -1.819490  -110.384000
  C     23.872200   -1.959010  -110.265000
  C     23.398700   -2.240640  -108.979000
  H     23.090900   -1.904590  -110.985000
  C     25.977500   -1.721900  -111.661000
  H     26.886900   -2.363220  -111.539000
  H     26.406900   -0.692670  -111.729000
  C     25.219700   -1.971850  -112.980000
  H     24.322700   -1.421260  -113.092000
  H     25.827100   -1.505620  -113.776000
  C     24.911600   -3.447530  -113.271000
  H     24.403200   -3.449380  -114.231000
  H     25.804200   -4.042810  -113.251000
  H     24.257700   -3.886410  -112.507000
  S     21.472300   -1.407040  -107.245000
  C     19.845100   -1.785520  -107.512000
  C     19.720800   -2.799770  -108.453000
  C     20.956600   -3.154770  -109.061000
  C     22.010200   -2.428250  -108.593000
  H     18.665000   -3.205800  -108.497000
  C     21.221200   -4.342930  -110.100000
  H     22.082700   -3.970850  -110.639000
  H     20.344700   -4.469780  -110.735000
  C     21.659900   -5.763960  -109.515000
  H     20.908600   -6.196200  -108.880000
  H     22.534600   -5.539510  -108.912000
  C     22.184700   -6.610190  -110.697000
  H     22.580100   -7.545740  -110.423000
  H     23.035400   -6.130960  -111.169000
  H     21.390300   -6.781260  -111.540000
  H     26.894900   -1.669550  -108.959000
  H     19.021100   -1.650960  -106.824000

 Total Charge           Charge          ....    0
 Multiplicity           Mult            ....    1
 Number of Electrons    NEL             ....  134
 Basis Dimension        Dim             ....  322

ORBITAL ENERGIES
----------------

  NO   OCC          E(Eh)            E(eV)
   0   2.0000     -88.969449     -2420.9818
   1   2.0000     -88.961760     -2420.7726
   2   2.0000     -10.329286      -281.0742
   3   2.0000     -10.325238      -280.9640
   4   2.0000     -10.313576      -280.6467
   5   2.0000     -10.311936      -280.6020
   6   2.0000     -10.308296      -280.5030
   7   2.0000     -10.300293      -280.2852
   8   2.0000     -10.298058      -280.2244
   9   2.0000     -10.297494      -280.2091
  10   2.0000     -10.296496      -280.1819
  11   2.0000     -10.289671      -279.9962
  12   2.0000     -10.288956      -279.9767
  13   2.0000     -10.288605      -279.9672
  14   2.0000     -10.281995      -279.7873
  15   2.0000     -10.277660      -279.6693
  16   2.0000      -8.083786      -219.9710
  17   2.0000      -8.077569      -219.8018
  18   2.0000      -6.042194      -164.4165
  19   2.0000      -6.038252      -164.3092
  20   2.0000      -6.035952      -164.2466
  21   2.0000      -6.034796      -164.2151
  22   2.0000      -6.031900      -164.1363
  23   2.0000      -6.028402      -164.0412
  24   2.0000      -1.010857       -27.5068
  25   2.0000      -0.988130       -26.8884
  26   2.0000      -0.916063       -24.9273
  27   2.0000      -0.897947       -24.4344
  28   2.0000      -0.871246       -23.7078
  29   2.0000      -0.853050       -23.2127
  30   2.0000      -0.843660       -22.9571
  31   2.0000      -0.816631       -22.2217
  32   2.0000      -0.782730       -21.2992
  33   2.0000      -0.770848       -20.9758
  34   2.0000      -0.714828       -19.4515
  35   2.0000      -0.699696       -19.0397
  36   2.0000      -0.695344       -18.9213
  37   2.0000      -0.655804       -17.8453
  38   2.0000      -0.643077       -17.4990
  39   2.0000      -0.623272       -16.9601
  40   2.0000      -0.585929       -15.9439
  41   2.0000      -0.569512       -15.4972
  42   2.0000      -0.563233       -15.3263
  43   2.0000      -0.551410       -15.0046
  44   2.0000      -0.530938       -14.4475
  45   2.0000      -0.527930       -14.3657
  46   2.0000      -0.517712       -14.0877
  47   2.0000      -0.508615       -13.8401
  48   2.0000      -0.505410       -13.7529
  49   2.0000      -0.495419       -13.4810
  50   2.0000      -0.493958       -13.4413
  51   2.0000      -0.481624       -13.1057
  52   2.0000      -0.474651       -12.9159
  53   2.0000      -0.465792       -12.6749
  54   2.0000      -0.461099       -12.5471
  55   2.0000      -0.446691       -12.1551
  56   2.0000      -0.440258       -11.9800
  57   2.0000      -0.436225       -11.8703
  58   2.0000      -0.433619       -11.7994
  59   2.0000      -0.431099       -11.7308
  60   2.0000      -0.422311       -11.4917
  61   2.0000      -0.417956       -11.3731
  62   2.0000      -0.412536       -11.2257
  63   2.0000      -0.343283        -9.3412
  64   2.0000      -0.332907        -9.0589
  65   2.0000      -0.331034        -9.0079
  66   2.0000      -0.290501        -7.9049
  67   0.0000       0.024976         0.6796
  68   0.0000       0.066274         1.8034
  69   0.0000       0.109846         2.9891
  70   0.0000       0.120831         3.2880
  71   0.0000       0.134752         3.6668

MULLIKEN ATOMIC CHARGES
-----------------------
   0 S :    0.117616
   1 C :   -0.138932
   2 C :   -0.055053
   3 C :    0.029833
   4 C :   -0.162446
   5 H :    0.002818
   6 C :    0.033944
   7 H :    0.039916
   8 H :    0.040996
   9 C :   -0.066853
  10 H :    0.019335
  11 H :    0.026087
  12 C :   -0.034985
  13 H :    0.038907
  14 H :    0.027312
  15 H :    0.037518
  16 S :    0.103932
  17 C :   -0.082888
  18 C :   -0.101309
  19 C :   -0.015028
  20 C :   -0.167344
  21 H :    0.041255
  22 C :    0.054429
  23 H :    0.006035
  24 H :    0.028904
  25 C :   -0.037371
  26 H :    0.036144
  27 H :    0.030209
  28 C :   -0.059666
  29 H :    0.023987
  30 H :    0.028242
  31 H :    0.040266
  32 H :    0.053843
  33 H :    0.060345
Sum of atomic charges:    0.0000000

LOEWDIN ATOMIC CHARGES
----------------------
   0 S :    0.411479
   1 C :   -0.199544
   2 C :   -0.062984
   3 C :   -0.064731
   4 C :   -0.201949
   5 H :    0.025868
   6 C :   -0.040836
   7 H :    0.040521
   8 H :    0.041281
   9 C :   -0.042316
  10 H :    0.019567
  11 H :    0.030357
  12 C :   -0.060528
  13 H :    0.029256
  14 H :    0.022049
  15 H :    0.024955
  16 S :    0.417704
  17 C :   -0.208845
  18 C :   -0.086240
  19 C :   -0.059368
  20 C :   -0.193074
  21 H :    0.043930
  22 C :   -0.020885
  23 H :    0.024367
  24 H :    0.024884
  25 C :   -0.031544
  26 H :    0.020768
  27 H :    0.027948
  28 C :   -0.068471
  29 H :    0.017799
  30 H :    0.025620
  31 H :    0.033138
  32 H :    0.027364
  33 H :    0.032459

  Mayer bond orders larger than 0.100000
B(  0-S ,  1-C ) :   1.1422 B(  0-S ,  4-C ) :   1.1727 B(  1-C ,  2-C ) :   1.5766
B(  1-C ,  4-C ) :   0.1140 B(  1-C , 32-H ) :   0.9667 B(  2-C ,  3-C ) :   1.2724
B(  2-C ,  6-C ) :   1.0136 B(  3-C ,  4-C ) :   1.5404 B(  3-C ,  5-H ) :   0.9918
B(  4-C , 20-C ) :   1.0235 B(  6-C ,  7-H ) :   0.9465 B(  6-C ,  8-H ) :   0.9208
B(  6-C ,  9-C ) :   1.0928 B(  9-C , 10-H ) :   0.9454 B(  9-C , 11-H ) :   0.9502
B(  9-C , 12-C ) :   1.0774 B( 12-C , 13-H ) :   0.9722 B( 12-C , 14-H ) :   0.9739
B( 12-C , 15-H ) :   0.9768 B( 16-S , 17-C ) :   1.1763 B( 16-S , 20-C ) :   1.1385
B( 17-C , 18-C ) :   1.6117 B( 17-C , 20-C ) :   0.1051 B( 17-C , 33-H ) :   0.9593
B( 18-C , 19-C ) :   1.2348 B( 18-C , 21-H ) :   0.9861 B( 19-C , 20-C ) :   1.6061
B( 19-C , 22-C ) :   1.0195 B( 22-C , 23-H ) :   0.9350 B( 22-C , 24-H ) :   0.9441
B( 22-C , 25-C ) :   1.0625 B( 25-C , 26-H ) :   0.9622 B( 25-C , 27-H ) :   0.9526
B( 25-C , 28-C ) :   1.0734 B( 28-C , 29-H ) :   0.9720 B( 28-C , 30-H ) :   0.9742
B( 28-C , 31-H ) :   0.9758

Dispersion correction           -0.014961304
FINAL SINGLE POINT ENERGY     -1339.868550129166

DIPOLE MOMENT
-------------
                                X             Y             Z
Electronic contribution:     -3.38046      15.60479      25.10225
Nuclear contribution   :      3.40589     -15.82493     -25.61692
                        -----------------------------------------
Total Dipole Moment    :      0.02542      -0.22014      -0.51467
                        -----------------------------------------
Magnitude (a.u.)       :      0.56035
Magnitude (Debye)      :      1.42431

Rotational constants in cm-1:     0.016748     0.010174     0.007681
Rotational constants in MHz :   502.095089   305.023520   230.272433

                             ****ORCA TERMINATED NORMALLY****
TOTAL RUN TIME: 0 days 0 hours 0 minutes 22 seconds 528 msec
