                         Program Version 4.2.1 -  RELEASE  -
|  1> ! wB97X-D3 SP def2-SVP
|  2> %pal
|  3> nprocs 24
|  4> end
|  5>
|  6> * xyz 0 1
|  7> S 	 -135.195 	 27.3535 	 -19.4727
|  8> C 	 -133.946 	 26.6293 	 -18.5286
|  9> C 	 -132.732 	 27.2069 	 -18.8645
| 10> C 	 -132.746 	 28.1335 	 -19.9355
| 11> C 	 -134.023 	 28.3428 	 -20.3324
| 12> H 	 -131.89 	 28.6264 	 -20.4071
| 13> C 	 -131.37 	 26.8541 	 -18.1921
| 14> H 	 -130.643 	 26.7641 	 -19.0026
| 15> H 	 -131.407 	 25.9304 	 -17.6232
| 16> C 	 -130.874 	 27.9256 	 -17.2315
| 17> H 	 -130.181 	 27.4849 	 -16.5532
| 18> H 	 -130.479 	 28.7533 	 -17.8334
| 19> C 	 -131.924 	 28.5333 	 -16.2984
| 20> H 	 -131.434 	 29.2 	 -15.5384
| 21> H 	 -132.604 	 29.1347 	 -16.9144
| 22> H 	 -132.55 	 27.8054 	 -15.7411
| 23> S 	 -134.929 	 28.454 	 -22.9353
| 24> C 	 -135.219 	 30.0279 	 -23.6379
| 25> C 	 -135.081 	 31.014 	 -22.7004
| 26> C 	 -134.599 	 30.5712 	 -21.4369
| 27> C 	 -134.374 	 29.2216 	 -21.435
| 28> H 	 -135.298 	 31.9924 	 -23.0222
| 29> C 	 -134.203 	 31.477 	 -20.2207
| 30> H 	 -133.908 	 30.8108 	 -19.3995
| 31> H 	 -134.99 	 32.0564 	 -19.7505
| 32> C 	 -133.08 	 32.4555 	 -20.6166
| 33> H 	 -133.445 	 33.1051 	 -21.4168
| 34> H 	 -132.194 	 31.9034 	 -20.993
| 35> C 	 -132.737 	 33.3466 	 -19.4885
| 36> H 	 -131.991 	 34.0702 	 -19.6506
| 37> H 	 -132.298 	 32.7212 	 -18.7298
| 38> H 	 -133.582 	 33.8987 	 -19.205
| 39> H 	 -134.046 	 25.9239 	 -17.7272
| 40> H 	 -135.34 	 30.2026 	 -24.7049
| 41> *
| 42>
| 43>                          ****END OF INPUT****

CARTESIAN COORDINATES (ANGSTROEM)
---------------------------------
  S    -135.195000   27.353500  -19.472700
  C    -133.946000   26.629300  -18.528600
  C    -132.732000   27.206900  -18.864500
  C    -132.746000   28.133500  -19.935500
  C    -134.023000   28.342800  -20.332400
  H    -131.890000   28.626400  -20.407100
  C    -131.370000   26.854100  -18.192100
  H    -130.643000   26.764100  -19.002600
  H    -131.407000   25.930400  -17.623200
  C    -130.874000   27.925600  -17.231500
  H    -130.181000   27.484900  -16.553200
  H    -130.479000   28.753300  -17.833400
  C    -131.924000   28.533300  -16.298400
  H    -131.434000   29.200000  -15.538400
  H    -132.604000   29.134700  -16.914400
  H    -132.550000   27.805400  -15.741100
  S    -134.929000   28.454000  -22.935300
  C    -135.219000   30.027900  -23.637900
  C    -135.081000   31.014000  -22.700400
  C    -134.599000   30.571200  -21.436900
  C    -134.374000   29.221600  -21.435000
  H    -135.298000   31.992400  -23.022200
  C    -134.203000   31.477000  -20.220700
  H    -133.908000   30.810800  -19.399500
  H    -134.990000   32.056400  -19.750500
  C    -133.080000   32.455500  -20.616600
  H    -133.445000   33.105100  -21.416800
  H    -132.194000   31.903400  -20.993000
  C    -132.737000   33.346600  -19.488500
  H    -131.991000   34.070200  -19.650600
  H    -132.298000   32.721200  -18.729800
  H    -133.582000   33.898700  -19.205000
  H    -134.046000   25.923900  -17.727200
  H    -135.340000   30.202600  -24.704900

 Total Charge           Charge          ....    0
 Multiplicity           Mult            ....    1
 Number of Electrons    NEL             ....  134
 Basis Dimension        Dim             ....  322

ORBITAL ENERGIES
----------------

  NO   OCC          E(Eh)            E(eV)
   0   2.0000     -88.967419     -2420.9265
   1   2.0000     -88.961408     -2420.7630
   2   2.0000     -10.324494      -280.9438
   3   2.0000     -10.321585      -280.8646
   4   2.0000     -10.315763      -280.7062
   5   2.0000     -10.311308      -280.5850
   6   2.0000     -10.305424      -280.4248
   7   2.0000     -10.299241      -280.2566
   8   2.0000     -10.294061      -280.1156
   9   2.0000     -10.291943      -280.0580
  10   2.0000     -10.289569      -279.9934
  11   2.0000     -10.289344      -279.9873
  12   2.0000     -10.283444      -279.8267
  13   2.0000     -10.281063      -279.7620
  14   2.0000     -10.278219      -279.6846
  15   2.0000     -10.263963      -279.2966
  16   2.0000      -8.082281      -219.9301
  17   2.0000      -8.076228      -219.7653
  18   2.0000      -6.040713      -164.3762
  19   2.0000      -6.036795      -164.2696
  20   2.0000      -6.034685      -164.2121
  21   2.0000      -6.033073      -164.1683
  22   2.0000      -6.030814      -164.1068
  23   2.0000      -6.026944      -164.0015
  24   2.0000      -1.009861       -27.4797
  25   2.0000      -0.986412       -26.8416
  26   2.0000      -0.913053       -24.8454
  27   2.0000      -0.909671       -24.7534
  28   2.0000      -0.872546       -23.7432
  29   2.0000      -0.851681       -23.1754
  30   2.0000      -0.847708       -23.0673
  31   2.0000      -0.814107       -22.1530
  32   2.0000      -0.782962       -21.3055
  33   2.0000      -0.772705       -21.0264
  34   2.0000      -0.703388       -19.1402
  35   2.0000      -0.697104       -18.9692
  36   2.0000      -0.687585       -18.7101
  37   2.0000      -0.658033       -17.9060
  38   2.0000      -0.642654       -17.4875
  39   2.0000      -0.620709       -16.8904
  40   2.0000      -0.598356       -16.2821
  41   2.0000      -0.576837       -15.6965
  42   2.0000      -0.567689       -15.4476
  43   2.0000      -0.556094       -15.1321
  44   2.0000      -0.542887       -14.7727
  45   2.0000      -0.528057       -14.3692
  46   2.0000      -0.519943       -14.1484
  47   2.0000      -0.513431       -13.9712
  48   2.0000      -0.506296       -13.7770
  49   2.0000      -0.498982       -13.5780
  50   2.0000      -0.487442       -13.2640
  51   2.0000      -0.477344       -12.9892
  52   2.0000      -0.473934       -12.8964
  53   2.0000      -0.464866       -12.6497
  54   2.0000      -0.454351       -12.3635
  55   2.0000      -0.449473       -12.2308
  56   2.0000      -0.444031       -12.0827
  57   2.0000      -0.436534       -11.8787
  58   2.0000      -0.428246       -11.6532
  59   2.0000      -0.423198       -11.5158
  60   2.0000      -0.420707       -11.4480
  61   2.0000      -0.418579       -11.3901
  62   2.0000      -0.405734       -11.0406
  63   2.0000      -0.342409        -9.3174
  64   2.0000      -0.331777        -9.0281
  65   2.0000      -0.325516        -8.8577
  66   2.0000      -0.305023        -8.3001
  67   0.0000       0.045570         1.2400
  68   0.0000       0.055910         1.5214
  69   0.0000       0.117792         3.2053
  70   0.0000       0.122281         3.3274
  71   0.0000       0.130657         3.5554

MULLIKEN ATOMIC CHARGES
-----------------------
   0 S :    0.129184
   1 C :   -0.109669
   2 C :   -0.109035
   3 C :    0.023378
   4 C :   -0.156529
   5 H :    0.028571
   6 C :    0.087762
   7 H :    0.030315
   8 H :    0.014835
   9 C :   -0.068496
  10 H :    0.027458
  11 H :    0.029572
  12 C :   -0.081939
  13 H :    0.039976
  14 H :    0.039476
  15 H :    0.028145
  16 S :    0.100748
  17 C :   -0.099772
  18 C :   -0.020690
  19 C :    0.021268
  20 C :   -0.203105
  21 H :   -0.001657
  22 C :    0.071435
  23 H :    0.028086
  24 H :    0.021641
  25 C :   -0.101560
  26 H :    0.026948
  27 H :    0.031939
  28 C :    0.015823
  29 H :    0.015082
  30 H :    0.019568
  31 H :    0.016713
  32 H :    0.040840
  33 H :    0.063690
Sum of atomic charges:   -0.0000000

LOEWDIN ATOMIC CHARGES
----------------------
   0 S :    0.415396
   1 C :   -0.208025
   2 C :   -0.061308
   3 C :   -0.062254
   4 C :   -0.192004
   5 H :    0.040749
   6 C :   -0.028380
   7 H :    0.031069
   8 H :    0.025143
   9 C :   -0.043188
  10 H :    0.021578
  11 H :    0.024276
  12 C :   -0.071427
  13 H :    0.029934
  14 H :    0.023092
  15 H :    0.022733
  16 S :    0.389679
  17 C :   -0.179577
  18 C :   -0.068024
  19 C :   -0.046784
  20 C :   -0.193735
  21 H :    0.023287
  22 C :   -0.025003
  23 H :    0.030204
  24 H :    0.028476
  25 C :   -0.041049
  26 H :    0.021864
  27 H :    0.025491
  28 C :   -0.058837
  29 H :    0.020706
  30 H :    0.025648
  31 H :    0.019930
  32 H :    0.027602
  33 H :    0.032737

  Mayer bond orders larger than 0.100000
B(  0-S ,  1-C ) :   1.1292 B(  0-S ,  4-C ) :   1.1584 B(  1-C ,  2-C ) :   1.6209
B(  1-C , 32-H ) :   0.9707 B(  2-C ,  3-C ) :   1.2229 B(  2-C ,  6-C ) :   1.0251
B(  3-C ,  4-C ) :   1.5829 B(  3-C ,  5-H ) :   0.9964 B(  4-C , 20-C ) :   1.0159
B(  6-C ,  7-H ) :   0.9464 B(  6-C ,  8-H ) :   0.9424 B(  6-C ,  9-C ) :   1.0734
B(  9-C , 10-H ) :   0.9600 B(  9-C , 11-H ) :   0.9545 B(  9-C , 12-C ) :   1.0843
B( 12-C , 13-H ) :   0.9746 B( 12-C , 14-H ) :   0.9684 B( 12-C , 15-H ) :   0.9752
B( 16-S , 17-C ) :   1.1484 B( 16-S , 20-C ) :   1.1382 B( 17-C , 18-C ) :   1.6289
B( 17-C , 33-H ) :   0.9653 B( 18-C , 19-C ) :   1.2115 B( 18-C , 21-H ) :   1.0011
B( 19-C , 20-C ) :   1.6303 B( 19-C , 22-C ) :   1.0257 B( 22-C , 23-H ) :   0.9344
B( 22-C , 24-H ) :   0.9375 B( 22-C , 25-C ) :   1.0580 B( 25-C , 26-H ) :   0.9553
B( 25-C , 27-H ) :   0.9538 B( 25-C , 28-C ) :   1.0983 B( 28-C , 29-H ) :   0.9680
B( 28-C , 30-H ) :   0.9707 B( 28-C , 31-H ) :   0.9683

Dispersion correction           -0.015051589
FINAL SINGLE POINT ENERGY     -1339.884286472927

DIPOLE MOMENT
-------------
                                X             Y             Z
Electronic contribution:    -17.50652     -15.70616     -17.91726
Nuclear contribution   :     17.94549      16.15663      18.12700
                        -----------------------------------------
Total Dipole Moment    :      0.43897       0.45047       0.20973
                        -----------------------------------------
Magnitude (a.u.)       :      0.66303
Magnitude (Debye)      :      1.68528

Rotational constants in cm-1:     0.017393     0.010093     0.007218
Rotational constants in MHz :   521.415558   302.582102   216.388887

                             ****ORCA TERMINATED NORMALLY****
TOTAL RUN TIME: 0 days 0 hours 0 minutes 22 seconds 253 msec
