                         Program Version 4.2.1 -  RELEASE  -
|  1> ! wB97X-D3 SP def2-SVP
|  2> %pal
|  3> nprocs 24
|  4> end
|  5>
|  6> * xyz 0 1
|  7> S 	 -107.857 	 2.01193 	 -112.766
|  8> C 	 -109.51 	 2.37134 	 -113.009
|  9> C 	 -110.049 	 1.92004 	 -114.156
| 10> C 	 -109.132 	 1.03584 	 -114.843
| 11> C 	 -107.948 	 0.873817 	 -114.092
| 12> H 	 -109.362 	 0.471363 	 -115.748
| 13> C 	 -111.334 	 2.19716 	 -114.822
| 14> H 	 -112.138 	 1.60567 	 -114.332
| 15> H 	 -111.192 	 1.95936 	 -115.911
| 16> C 	 -111.796 	 3.63476 	 -114.67
| 17> H 	 -111.756 	 3.95571 	 -113.568
| 18> H 	 -111.201 	 4.25778 	 -115.346
| 19> C 	 -113.212 	 3.78251 	 -115.212
| 20> H 	 -113.518 	 4.81452 	 -114.958
| 21> H 	 -113.306 	 3.45411 	 -116.284
| 22> H 	 -113.85 	 3.12894 	 -114.642
| 23> S 	 -105.344 	 0.701989 	 -114.366
| 24> C 	 -104.546 	 -0.711429 	 -114.858
| 25> C 	 -105.405 	 -1.71782 	 -115.206
| 26> C 	 -106.77 	 -1.31432 	 -114.997
| 27> C 	 -106.839 	 0.0123044 	 -114.515
| 28> H 	 -104.994 	 -2.65047 	 -115.526
| 29> C 	 -107.996 	 -2.20018 	 -115.213
| 30> H 	 -108.107 	 -2.29159 	 -116.296
| 31> H 	 -108.829 	 -1.70673 	 -114.803
| 32> C 	 -107.777 	 -3.64807 	 -114.806
| 33> H 	 -107.016 	 -4.18932 	 -115.432
| 34> H 	 -108.759 	 -4.19129 	 -114.93
| 35> C 	 -107.365 	 -3.79272 	 -113.276
| 36> H 	 -108.113 	 -3.31865 	 -112.62
| 37> H 	 -106.375 	 -3.37522 	 -112.952
| 38> H 	 -107.455 	 -4.91898 	 -112.88
| 39> H 	 -110.014 	 3.16464 	 -112.493
| 40> H 	 -103.512 	 -0.909197 	 -114.751
| 41> *
| 42>
| 43>                          ****END OF INPUT****

CARTESIAN COORDINATES (ANGSTROEM)
---------------------------------
  S    -107.857000    2.011930  -112.766000
  C    -109.510000    2.371340  -113.009000
  C    -110.049000    1.920040  -114.156000
  C    -109.132000    1.035840  -114.843000
  C    -107.948000    0.873817  -114.092000
  H    -109.362000    0.471363  -115.748000
  C    -111.334000    2.197160  -114.822000
  H    -112.138000    1.605670  -114.332000
  H    -111.192000    1.959360  -115.911000
  C    -111.796000    3.634760  -114.670000
  H    -111.756000    3.955710  -113.568000
  H    -111.201000    4.257780  -115.346000
  C    -113.212000    3.782510  -115.212000
  H    -113.518000    4.814520  -114.958000
  H    -113.306000    3.454110  -116.284000
  H    -113.850000    3.128940  -114.642000
  S    -105.344000    0.701989  -114.366000
  C    -104.546000   -0.711429  -114.858000
  C    -105.405000   -1.717820  -115.206000
  C    -106.770000   -1.314320  -114.997000
  C    -106.839000    0.012304  -114.515000
  H    -104.994000   -2.650470  -115.526000
  C    -107.996000   -2.200180  -115.213000
  H    -108.107000   -2.291590  -116.296000
  H    -108.829000   -1.706730  -114.803000
  C    -107.777000   -3.648070  -114.806000
  H    -107.016000   -4.189320  -115.432000
  H    -108.759000   -4.191290  -114.930000
  C    -107.365000   -3.792720  -113.276000
  H    -108.113000   -3.318650  -112.620000
  H    -106.375000   -3.375220  -112.952000
  H    -107.455000   -4.918980  -112.880000
  H    -110.014000    3.164640  -112.493000
  H    -103.512000   -0.909197  -114.751000

 Total Charge           Charge          ....    0
 Multiplicity           Mult            ....    1
 Number of Electrons    NEL             ....  134
 Basis Dimension        Dim             ....  322

ORBITAL ENERGIES
----------------

  NO   OCC          E(Eh)            E(eV)
   0   2.0000     -88.969862     -2420.9930
   1   2.0000     -88.961555     -2420.7670
   2   2.0000     -10.330825      -281.1160
   3   2.0000     -10.317163      -280.7443
   4   2.0000     -10.303937      -280.3844
   5   2.0000     -10.303597      -280.3751
   6   2.0000     -10.303397      -280.3697
   7   2.0000     -10.298308      -280.2312
   8   2.0000     -10.294880      -280.1379
   9   2.0000     -10.293965      -280.1130
  10   2.0000     -10.293028      -280.0875
  11   2.0000     -10.291023      -280.0330
  12   2.0000     -10.290343      -280.0145
  13   2.0000     -10.287701      -279.9426
  14   2.0000     -10.286863      -279.9198
  15   2.0000     -10.281694      -279.7791
  16   2.0000      -8.085192      -220.0093
  17   2.0000      -8.079425      -219.8523
  18   2.0000      -6.043696      -164.4573
  19   2.0000      -6.039824      -164.3520
  20   2.0000      -6.037664      -164.2932
  21   2.0000      -6.035726      -164.2404
  22   2.0000      -6.033380      -164.1766
  23   2.0000      -6.030405      -164.0957
  24   2.0000      -1.018090       -27.7036
  25   2.0000      -0.993990       -27.0479
  26   2.0000      -0.921242       -25.0683
  27   2.0000      -0.907145       -24.6847
  28   2.0000      -0.873806       -23.7775
  29   2.0000      -0.855931       -23.2911
  30   2.0000      -0.838533       -22.8176
  31   2.0000      -0.811350       -22.0780
  32   2.0000      -0.779500       -21.2113
  33   2.0000      -0.770364       -20.9627
  34   2.0000      -0.708217       -19.2716
  35   2.0000      -0.697777       -18.9875
  36   2.0000      -0.685808       -18.6618
  37   2.0000      -0.658106       -17.9080
  38   2.0000      -0.636876       -17.3303
  39   2.0000      -0.617809       -16.8114
  40   2.0000      -0.595890       -16.2150
  41   2.0000      -0.582497       -15.8505
  42   2.0000      -0.566489       -15.4149
  43   2.0000      -0.548586       -14.9278
  44   2.0000      -0.533462       -14.5163
  45   2.0000      -0.524658       -14.2767
  46   2.0000      -0.517524       -14.0826
  47   2.0000      -0.512877       -13.9561
  48   2.0000      -0.499419       -13.5899
  49   2.0000      -0.494539       -13.4571
  50   2.0000      -0.493454       -13.4276
  51   2.0000      -0.482092       -13.1184
  52   2.0000      -0.472089       -12.8462
  53   2.0000      -0.464655       -12.6439
  54   2.0000      -0.461825       -12.5669
  55   2.0000      -0.451485       -12.2855
  56   2.0000      -0.443201       -12.0601
  57   2.0000      -0.431639       -11.7455
  58   2.0000      -0.426768       -11.6130
  59   2.0000      -0.425001       -11.5649
  60   2.0000      -0.420861       -11.4522
  61   2.0000      -0.418183       -11.3793
  62   2.0000      -0.413799       -11.2600
  63   2.0000      -0.351720        -9.5708
  64   2.0000      -0.330893        -9.0041
  65   2.0000      -0.326345        -8.8803
  66   2.0000      -0.286923        -7.8076
  67   0.0000       0.030114         0.8194
  68   0.0000       0.080525         2.1912
  69   0.0000       0.108327         2.9477
  70   0.0000       0.125433         3.4132
  71   0.0000       0.137794         3.7496

MULLIKEN ATOMIC CHARGES
-----------------------
   0 S :    0.127611
   1 C :   -0.101899
   2 C :   -0.071269
   3 C :   -0.004452
   4 C :   -0.141867
   5 H :    0.025562
   6 C :    0.065821
   7 H :    0.041504
   8 H :    0.036665
   9 C :   -0.146157
  10 H :    0.048551
  11 H :    0.037429
  12 C :   -0.030877
  13 H :    0.039966
  14 H :    0.043033
  15 H :    0.012761
  16 S :    0.116327
  17 C :   -0.077775
  18 C :   -0.042121
  19 C :   -0.068578
  20 C :   -0.165816
  21 H :    0.009268
  22 C :    0.137339
  23 H :    0.033972
  24 H :    0.015887
  25 C :   -0.110181
  26 H :    0.045762
  27 H :    0.042375
  28 C :   -0.116648
  29 H :    0.032405
  30 H :    0.056776
  31 H :    0.040933
  32 H :    0.027893
  33 H :    0.039801
Sum of atomic charges:   -0.0000000

LOEWDIN ATOMIC CHARGES
----------------------
   0 S :    0.420796
   1 C :   -0.212367
   2 C :   -0.065711
   3 C :   -0.060112
   4 C :   -0.193546
   5 H :    0.032323
   6 C :   -0.039000
   7 H :    0.038743
   8 H :    0.038312
   9 C :   -0.047433
  10 H :    0.031099
  11 H :    0.025881
  12 C :   -0.067970
  13 H :    0.030471
  14 H :    0.032454
  15 H :    0.015852
  16 S :    0.465489
  17 C :   -0.203535
  18 C :   -0.067096
  19 C :   -0.055181
  20 C :   -0.232469
  21 H :    0.029186
  22 C :   -0.030810
  23 H :    0.037788
  24 H :    0.022753
  25 C :   -0.046931
  26 H :    0.027572
  27 H :    0.033875
  28 C :   -0.090237
  29 H :    0.023898
  30 H :    0.029271
  31 H :    0.034591
  32 H :    0.019985
  33 H :    0.022060

  Mayer bond orders larger than 0.100000
B(  0-S ,  1-C ) :   1.1240 B(  0-S ,  4-C ) :   1.1601 B(  1-C ,  2-C ) :   1.6460
B(  1-C , 32-H ) :   0.9579 B(  2-C ,  3-C ) :   1.2347 B(  2-C ,  6-C ) :   1.0176
B(  3-C ,  4-C ) :   1.5468 B(  3-C ,  5-H ) :   0.9914 B(  4-C , 20-C ) :   1.0458
B(  6-C ,  7-H ) :   0.9245 B(  6-C ,  8-H ) :   0.9436 B(  6-C ,  9-C ) :   1.0716
B(  9-C , 10-H ) :   0.9502 B(  9-C , 11-H ) :   0.9563 B(  9-C , 12-C ) :   1.0875
B( 12-C , 13-H ) :   0.9722 B( 12-C , 14-H ) :   0.9700 B( 12-C , 15-H ) :   0.9729
B( 16-S , 17-C ) :   1.1755 B( 16-S , 20-C ) :   1.1841 B( 17-C , 18-C ) :   1.5969
B( 17-C , 33-H ) :   0.9685 B( 18-C , 19-C ) :   1.2505 B( 18-C , 21-H ) :   0.9976
B( 19-C , 20-C ) :   1.5521 B( 19-C , 22-C ) :   1.0385 B( 22-C , 23-H ) :   0.9236
B( 22-C , 24-H ) :   0.9314 B( 22-C , 25-C ) :   1.0757 B( 25-C , 26-H ) :   0.9524
B( 25-C , 27-H ) :   0.9544 B( 25-C , 28-C ) :   1.0608 B( 28-C , 29-H ) :   0.9755
B( 28-C , 30-H ) :   0.9728 B( 28-C , 31-H ) :   0.9767

Dispersion correction           -0.013932463
FINAL SINGLE POINT ENERGY     -1339.867502887717

DIPOLE MOMENT
-------------
                                X             Y             Z
Electronic contribution:     21.65740       8.38576       5.40169
Nuclear contribution   :    -22.10671      -8.54166      -5.68570
                        -----------------------------------------
Total Dipole Moment    :     -0.44931      -0.15590      -0.28401
                        -----------------------------------------
Magnitude (a.u.)       :      0.55393
Magnitude (Debye)      :      1.40799

Rotational constants in cm-1:     0.023045     0.007367     0.006284
Rotational constants in MHz :   690.860172   220.855604   188.381377

                             ****ORCA TERMINATED NORMALLY****
TOTAL RUN TIME: 0 days 0 hours 0 minutes 21 seconds 518 msec
