                         Program Version 4.2.1 -  RELEASE  -
|  1> ! wB97X-D3 SP def2-SVP
|  2> %pal
|  3> nprocs 24
|  4> end
|  5>
|  6> * xyz 0 1
|  7> S 	 -32.4308 	 -34.2338 	 -89.4341
|  8> C 	 -34.0895 	 -34.2457 	 -89.1143
|  9> C 	 -34.8071 	 -33.3253 	 -89.8382
| 10> C 	 -33.906 	 -32.5544 	 -90.6378
| 11> C 	 -32.6222 	 -32.9188 	 -90.5821
| 12> H 	 -34.1405 	 -31.6294 	 -91.1024
| 13> C 	 -36.3295 	 -33.1137 	 -89.7055
| 14> H 	 -36.7609 	 -33.9203 	 -89.1142
| 15> H 	 -36.7914 	 -33.1717 	 -90.707
| 16> C 	 -36.6727 	 -31.8452 	 -88.9837
| 17> H 	 -36.2076 	 -30.8628 	 -89.2121
| 18> H 	 -37.7733 	 -31.5962 	 -89.0154
| 19> C 	 -36.2095 	 -31.8144 	 -87.4733
| 20> H 	 -36.4892 	 -30.917 	 -87.0902
| 21> H 	 -36.7739 	 -32.5935 	 -86.9773
| 22> H 	 -35.1527 	 -32.0404 	 -87.4811
| 23> S 	 -29.8007 	 -32.5532 	 -90.5533
| 24> C 	 -29.0853 	 -31.0415 	 -91.0869
| 25> C 	 -29.9604 	 -30.4121 	 -91.9201
| 26> C 	 -31.3078 	 -30.949 	 -91.836
| 27> C 	 -31.4018 	 -32.0932 	 -91.0351
| 28> H 	 -29.7284 	 -29.4927 	 -92.4051
| 29> C 	 -32.4455 	 -30.1729 	 -92.5121
| 30> H 	 -33.1248 	 -30.9389 	 -92.918
| 31> H 	 -32.1727 	 -29.6186 	 -93.389
| 32> C 	 -33.135 	 -29.2052 	 -91.4524
| 33> H 	 -33.2328 	 -29.7661 	 -90.4907
| 34> H 	 -34.1073 	 -28.8309 	 -91.7646
| 35> C 	 -32.1962 	 -28.0146 	 -91.156
| 36> H 	 -32.0287 	 -27.419 	 -92.0585
| 37> H 	 -31.1889 	 -28.2455 	 -90.8507
| 38> H 	 -32.6879 	 -27.3695 	 -90.5196
| 39> H 	 -34.6866 	 -34.8942 	 -88.4476
| 40> H 	 -28.1379 	 -30.5913 	 -90.7891
| 41> *
| 42>
| 43>                          ****END OF INPUT****

CARTESIAN COORDINATES (ANGSTROEM)
---------------------------------
  S    -32.430800  -34.233800  -89.434100
  C    -34.089500  -34.245700  -89.114300
  C    -34.807100  -33.325300  -89.838200
  C    -33.906000  -32.554400  -90.637800
  C    -32.622200  -32.918800  -90.582100
  H    -34.140500  -31.629400  -91.102400
  C    -36.329500  -33.113700  -89.705500
  H    -36.760900  -33.920300  -89.114200
  H    -36.791400  -33.171700  -90.707000
  C    -36.672700  -31.845200  -88.983700
  H    -36.207600  -30.862800  -89.212100
  H    -37.773300  -31.596200  -89.015400
  C    -36.209500  -31.814400  -87.473300
  H    -36.489200  -30.917000  -87.090200
  H    -36.773900  -32.593500  -86.977300
  H    -35.152700  -32.040400  -87.481100
  S    -29.800700  -32.553200  -90.553300
  C    -29.085300  -31.041500  -91.086900
  C    -29.960400  -30.412100  -91.920100
  C    -31.307800  -30.949000  -91.836000
  C    -31.401800  -32.093200  -91.035100
  H    -29.728400  -29.492700  -92.405100
  C    -32.445500  -30.172900  -92.512100
  H    -33.124800  -30.938900  -92.918000
  H    -32.172700  -29.618600  -93.389000
  C    -33.135000  -29.205200  -91.452400
  H    -33.232800  -29.766100  -90.490700
  H    -34.107300  -28.830900  -91.764600
  C    -32.196200  -28.014600  -91.156000
  H    -32.028700  -27.419000  -92.058500
  H    -31.188900  -28.245500  -90.850700
  H    -32.687900  -27.369500  -90.519600
  H    -34.686600  -34.894200  -88.447600
  H    -28.137900  -30.591300  -90.789100

 Total Charge           Charge          ....    0
 Multiplicity           Mult            ....    1
 Number of Electrons    NEL             ....  134
 Basis Dimension        Dim             ....  322

ORBITAL ENERGIES
----------------

  NO   OCC          E(Eh)            E(eV)
   0   2.0000     -88.967916     -2420.9401
   1   2.0000     -88.964491     -2420.8469
   2   2.0000     -10.337024      -281.2847
   3   2.0000     -10.333775      -281.1963
   4   2.0000     -10.318824      -280.7895
   5   2.0000     -10.312603      -280.6202
   6   2.0000     -10.307250      -280.4745
   7   2.0000     -10.300914      -280.3021
   8   2.0000     -10.300413      -280.2885
   9   2.0000     -10.296555      -280.1835
  10   2.0000     -10.296061      -280.1701
  11   2.0000     -10.293192      -280.0920
  12   2.0000     -10.289995      -280.0050
  13   2.0000     -10.288333      -279.9598
  14   2.0000     -10.270210      -279.4666
  15   2.0000     -10.266961      -279.3782
  16   2.0000      -8.083653      -219.9674
  17   2.0000      -8.079545      -219.8556
  18   2.0000      -6.042196      -164.4165
  19   2.0000      -6.038305      -164.3106
  20   2.0000      -6.038084      -164.3046
  21   2.0000      -6.034238      -164.2000
  22   2.0000      -6.034033      -164.1944
  23   2.0000      -6.030008      -164.0848
  24   2.0000      -1.013233       -27.5715
  25   2.0000      -0.991776       -26.9876
  26   2.0000      -0.913468       -24.8567
  27   2.0000      -0.904892       -24.6234
  28   2.0000      -0.868513       -23.6334
  29   2.0000      -0.852434       -23.1959
  30   2.0000      -0.842079       -22.9141
  31   2.0000      -0.823501       -22.4086
  32   2.0000      -0.786579       -21.4039
  33   2.0000      -0.775392       -21.0995
  34   2.0000      -0.706271       -19.2186
  35   2.0000      -0.696107       -18.9420
  36   2.0000      -0.685315       -18.6484
  37   2.0000      -0.664164       -18.0728
  38   2.0000      -0.641663       -17.4605
  39   2.0000      -0.627153       -17.0657
  40   2.0000      -0.596963       -16.2442
  41   2.0000      -0.574414       -15.6306
  42   2.0000      -0.562725       -15.3125
  43   2.0000      -0.553612       -15.0646
  44   2.0000      -0.546611       -14.8740
  45   2.0000      -0.538161       -14.6441
  46   2.0000      -0.517965       -14.0945
  47   2.0000      -0.507835       -13.8189
  48   2.0000      -0.506604       -13.7854
  49   2.0000      -0.497852       -13.5473
  50   2.0000      -0.487997       -13.2791
  51   2.0000      -0.483200       -13.1485
  52   2.0000      -0.475155       -12.9296
  53   2.0000      -0.471628       -12.8336
  54   2.0000      -0.463764       -12.6196
  55   2.0000      -0.455572       -12.3967
  56   2.0000      -0.447366       -12.1734
  57   2.0000      -0.435846       -11.8600
  58   2.0000      -0.428007       -11.6467
  59   2.0000      -0.425495       -11.5783
  60   2.0000      -0.419111       -11.4046
  61   2.0000      -0.414211       -11.2712
  62   2.0000      -0.400633       -10.9018
  63   2.0000      -0.364807        -9.9269
  64   2.0000      -0.337322        -9.1790
  65   2.0000      -0.324321        -8.8252
  66   2.0000      -0.288862        -7.8603
  67   0.0000       0.025382         0.6907
  68   0.0000       0.085382         2.3234
  69   0.0000       0.099506         2.7077
  70   0.0000       0.118950         3.2368
  71   0.0000       0.134227         3.6525

MULLIKEN ATOMIC CHARGES
-----------------------
   0 S :    0.110538
   1 C :   -0.101604
   2 C :   -0.140643
   3 C :   -0.011939
   4 C :   -0.056774
   5 H :   -0.011216
   6 C :    0.132520
   7 H :    0.015425
   8 H :    0.044611
   9 C :   -0.147240
  10 H :    0.031709
  11 H :    0.035004
  12 C :   -0.022167
  13 H :    0.015120
  14 H :    0.013797
  15 H :    0.051046
  16 S :    0.090269
  17 C :   -0.099921
  18 C :    0.003526
  19 C :   -0.109378
  20 C :   -0.106951
  21 H :    0.011815
  22 C :    0.034798
  23 H :    0.037943
  24 H :    0.020571
  25 C :   -0.087916
  26 H :    0.051922
  27 H :    0.034991
  28 C :   -0.017286
  29 H :    0.010167
  30 H :    0.037604
  31 H :    0.016285
  32 H :    0.047603
  33 H :    0.065770
Sum of atomic charges:   -0.0000000

LOEWDIN ATOMIC CHARGES
----------------------
   0 S :    0.419923
   1 C :   -0.214121
   2 C :   -0.066767
   3 C :   -0.064172
   4 C :   -0.178906
   5 H :    0.026563
   6 C :   -0.027664
   7 H :    0.031535
   8 H :    0.037780
   9 C :   -0.054441
  10 H :    0.025678
  11 H :    0.026020
  12 C :   -0.048666
  13 H :    0.010280
  14 H :    0.016882
  15 H :    0.027283
  16 S :    0.397643
  17 C :   -0.182974
  18 C :   -0.066547
  19 C :   -0.061223
  20 C :   -0.193178
  21 H :    0.025637
  22 C :   -0.035550
  23 H :    0.029833
  24 H :    0.026001
  25 C :   -0.034759
  26 H :    0.029891
  27 H :    0.022157
  28 C :   -0.059988
  29 H :    0.022362
  30 H :    0.024251
  31 H :    0.015803
  32 H :    0.036051
  33 H :    0.037383

  Mayer bond orders larger than 0.100000
B(  0-S ,  1-C ) :   1.1541 B(  0-S ,  4-C ) :   1.1307 B(  1-C ,  2-C ) :   1.6322
B(  1-C , 32-H ) :   0.9530 B(  2-C ,  3-C ) :   1.2318 B(  2-C ,  6-C ) :   1.0256
B(  3-C ,  4-C ) :   1.6161 B(  3-C ,  5-H ) :   0.9951 B(  4-C , 20-C ) :   1.0197
B(  6-C ,  7-H ) :   0.9376 B(  6-C ,  8-H ) :   0.9381 B(  6-C ,  9-C ) :   1.0545
B(  9-C , 10-H ) :   0.9685 B(  9-C , 11-H ) :   0.9579 B(  9-C , 12-C ) :   1.0575
B( 12-C , 13-H ) :   0.9771 B( 12-C , 14-H ) :   0.9764 B( 12-C , 15-H ) :   0.9786
B( 16-S , 17-C ) :   1.1471 B( 16-S , 20-C ) :   1.1345 B( 17-C , 18-C ) :   1.6108
B( 17-C , 33-H ) :   0.9674 B( 18-C , 19-C ) :   1.2496 B( 18-C , 21-H ) :   0.9866
B( 19-C , 20-C ) :   1.6078 B( 19-C , 22-C ) :   1.0365 B( 22-C , 23-H ) :   0.9386
B( 22-C , 24-H ) :   0.9457 B( 22-C , 25-C ) :   1.0481 B( 25-C , 26-H ) :   0.9553
B( 25-C , 27-H ) :   0.9586 B( 25-C , 28-C ) :   1.0746 B( 28-C , 29-H ) :   0.9717
B( 28-C , 30-H ) :   0.9726 B( 28-C , 31-H ) :   0.9703

Dispersion correction           -0.015408033
FINAL SINGLE POINT ENERGY     -1339.857354391496

DIPOLE MOMENT
-------------
                                X             Y             Z
Electronic contribution:     20.93205     -19.55022      -2.14155
Nuclear contribution   :    -21.43708      20.24335       2.12082
                        -----------------------------------------
Total Dipole Moment    :     -0.50503       0.69312      -0.02074
                        -----------------------------------------
Magnitude (a.u.)       :      0.85785
Magnitude (Debye)      :      2.18049

Rotational constants in cm-1:     0.019437     0.009771     0.007225
Rotational constants in MHz :   582.715661   292.924114   216.606551

                             ****ORCA TERMINATED NORMALLY****
TOTAL RUN TIME: 0 days 0 hours 0 minutes 22 seconds 643 msec
