                         Program Version 4.2.1 -  RELEASE  -
|  1> ! wB97X-D3 SP def2-SVP
|  2> %pal
|  3> nprocs 24
|  4> end
|  5>
|  6> * xyz 0 1
|  7> S 	 -89.7261 	 -5.74593 	 -113.597
|  8> C 	 -88.6658 	 -5.71989 	 -114.994
|  9> C 	 -89.3709 	 -5.72893 	 -116.142
| 10> C 	 -90.7681 	 -5.53961 	 -115.884
| 11> C 	 -91.1799 	 -5.48152 	 -114.57
| 12> H 	 -91.5528 	 -5.32644 	 -116.559
| 13> C 	 -88.7678 	 -5.66225 	 -117.539
| 14> H 	 -89.5611 	 -5.80912 	 -118.312
| 15> H 	 -88.0196 	 -6.46223 	 -117.711
| 16> C 	 -88.1362 	 -4.31051 	 -117.949
| 17> H 	 -88.9947 	 -3.66009 	 -118.295
| 18> H 	 -87.8711 	 -3.72141 	 -117.042
| 19> C 	 -87.1545 	 -4.36211 	 -119.149
| 20> H 	 -87.0648 	 -3.36897 	 -119.48
| 21> H 	 -86.1236 	 -4.76175 	 -118.841
| 22> H 	 -87.4372 	 -4.92449 	 -120.079
| 23> S 	 -92.9903 	 -6.64662 	 -112.86
| 24> C 	 -94.5069 	 -5.83931 	 -112.497
| 25> C 	 -94.6194 	 -4.74742 	 -113.306
| 26> C 	 -93.4359 	 -4.41832 	 -114.079
| 27> C 	 -92.5391 	 -5.43821 	 -114.057
| 28> H 	 -95.4905 	 -4.15505 	 -113.187
| 29> C 	 -93.3734 	 -3.11662 	 -114.903
| 30> H 	 -92.3324 	 -2.95361 	 -114.995
| 31> H 	 -93.8551 	 -2.33682 	 -114.437
| 32> C 	 -93.984 	 -3.18149 	 -116.324
| 33> H 	 -93.4249 	 -3.90842 	 -116.894
| 34> H 	 -93.7947 	 -2.21647 	 -116.768
| 35> C 	 -95.5219 	 -3.37006 	 -116.358
| 36> H 	 -95.9638 	 -2.64625 	 -115.691
| 37> H 	 -95.7826 	 -4.38309 	 -115.993
| 38> H 	 -96.0968 	 -3.08004 	 -117.256
| 39> H 	 -87.61 	 -5.94588 	 -114.902
| 40> H 	 -95.1986 	 -6.25282 	 -111.788
| 41> *
| 42>
| 43>                          ****END OF INPUT****

CARTESIAN COORDINATES (ANGSTROEM)
---------------------------------
  S    -89.726100   -5.745930  -113.597000
  C    -88.665800   -5.719890  -114.994000
  C    -89.370900   -5.728930  -116.142000
  C    -90.768100   -5.539610  -115.884000
  C    -91.179900   -5.481520  -114.570000
  H    -91.552800   -5.326440  -116.559000
  C    -88.767800   -5.662250  -117.539000
  H    -89.561100   -5.809120  -118.312000
  H    -88.019600   -6.462230  -117.711000
  C    -88.136200   -4.310510  -117.949000
  H    -88.994700   -3.660090  -118.295000
  H    -87.871100   -3.721410  -117.042000
  C    -87.154500   -4.362110  -119.149000
  H    -87.064800   -3.368970  -119.480000
  H    -86.123600   -4.761750  -118.841000
  H    -87.437200   -4.924490  -120.079000
  S    -92.990300   -6.646620  -112.860000
  C    -94.506900   -5.839310  -112.497000
  C    -94.619400   -4.747420  -113.306000
  C    -93.435900   -4.418320  -114.079000
  C    -92.539100   -5.438210  -114.057000
  H    -95.490500   -4.155050  -113.187000
  C    -93.373400   -3.116620  -114.903000
  H    -92.332400   -2.953610  -114.995000
  H    -93.855100   -2.336820  -114.437000
  C    -93.984000   -3.181490  -116.324000
  H    -93.424900   -3.908420  -116.894000
  H    -93.794700   -2.216470  -116.768000
  C    -95.521900   -3.370060  -116.358000
  H    -95.963800   -2.646250  -115.691000
  H    -95.782600   -4.383090  -115.993000
  H    -96.096800   -3.080040  -117.256000
  H    -87.610000   -5.945880  -114.902000
  H    -95.198600   -6.252820  -111.788000

 Total Charge           Charge          ....    0
 Multiplicity           Mult            ....    1
 Number of Electrons    NEL             ....  134
 Basis Dimension        Dim             ....  322

ORBITAL ENERGIES
----------------

  NO   OCC          E(Eh)            E(eV)
   0   2.0000     -88.962327     -2420.7880
   1   2.0000     -88.960802     -2420.7465
   2   2.0000     -10.328875      -281.0630
   3   2.0000     -10.326689      -281.0035
   4   2.0000     -10.318351      -280.7766
   5   2.0000     -10.313710      -280.6503
   6   2.0000     -10.305693      -280.4322
   7   2.0000     -10.301623      -280.3214
   8   2.0000     -10.297085      -280.1979
   9   2.0000     -10.295214      -280.1470
  10   2.0000     -10.291808      -280.0543
  11   2.0000     -10.291235      -280.0387
  12   2.0000     -10.288780      -279.9719
  13   2.0000     -10.288490      -279.9640
  14   2.0000     -10.286271      -279.9037
  15   2.0000     -10.281300      -279.7684
  16   2.0000      -8.076928      -219.7844
  17   2.0000      -8.075903      -219.7565
  18   2.0000      -6.035534      -164.2352
  19   2.0000      -6.034520      -164.2076
  20   2.0000      -6.031385      -164.1223
  21   2.0000      -6.030335      -164.0938
  22   2.0000      -6.027632      -164.0202
  23   2.0000      -6.026532      -163.9903
  24   2.0000      -1.008683       -27.4477
  25   2.0000      -0.987004       -26.8577
  26   2.0000      -0.909787       -24.7566
  27   2.0000      -0.906274       -24.6610
  28   2.0000      -0.873750       -23.7759
  29   2.0000      -0.846893       -23.0451
  30   2.0000      -0.840932       -22.8829
  31   2.0000      -0.819392       -22.2968
  32   2.0000      -0.786900       -21.4126
  33   2.0000      -0.776744       -21.1363
  34   2.0000      -0.710066       -19.3219
  35   2.0000      -0.697155       -18.9705
  36   2.0000      -0.696500       -18.9527
  37   2.0000      -0.667340       -18.1592
  38   2.0000      -0.648604       -17.6494
  39   2.0000      -0.614731       -16.7277
  40   2.0000      -0.597019       -16.2457
  41   2.0000      -0.572654       -15.5827
  42   2.0000      -0.565718       -15.3940
  43   2.0000      -0.549174       -14.9438
  44   2.0000      -0.545977       -14.8568
  45   2.0000      -0.520161       -14.1543
  46   2.0000      -0.518237       -14.1019
  47   2.0000      -0.509905       -13.8752
  48   2.0000      -0.503422       -13.6988
  49   2.0000      -0.499987       -13.6053
  50   2.0000      -0.497141       -13.5279
  51   2.0000      -0.479955       -13.0602
  52   2.0000      -0.474521       -12.9124
  53   2.0000      -0.467531       -12.7222
  54   2.0000      -0.463876       -12.6227
  55   2.0000      -0.451509       -12.2862
  56   2.0000      -0.445812       -12.1312
  57   2.0000      -0.433829       -11.8051
  58   2.0000      -0.432060       -11.7570
  59   2.0000      -0.425944       -11.5905
  60   2.0000      -0.417444       -11.3592
  61   2.0000      -0.412352       -11.2207
  62   2.0000      -0.400798       -10.9063
  63   2.0000      -0.348116        -9.4727
  64   2.0000      -0.331375        -9.0172
  65   2.0000      -0.327138        -8.9019
  66   2.0000      -0.303026        -8.2457
  67   0.0000       0.032508         0.8846
  68   0.0000       0.066808         1.8179
  69   0.0000       0.116665         3.1746
  70   0.0000       0.126353         3.4382
  71   0.0000       0.130812         3.5596

MULLIKEN ATOMIC CHARGES
-----------------------
   0 S :    0.099763
   1 C :   -0.125293
   2 C :   -0.041790
   3 C :    0.032371
   4 C :   -0.153037
   5 H :   -0.018468
   6 C :    0.044614
   7 H :    0.030870
   8 H :    0.035587
   9 C :   -0.108014
  10 H :    0.024514
  11 H :    0.040745
  12 C :   -0.053974
  13 H :    0.027281
  14 H :    0.045760
  15 H :    0.043095
  16 S :    0.084806
  17 C :   -0.091660
  18 C :   -0.006944
  19 C :   -0.068779
  20 C :   -0.153249
  21 H :    0.007470
  22 C :    0.132872
  23 H :    0.023435
  24 H :   -0.000034
  25 C :   -0.053466
  26 H :    0.024179
  27 H :    0.025107
  28 C :   -0.065997
  29 H :    0.009671
  30 H :    0.051355
  31 H :    0.039344
  32 H :    0.056917
  33 H :    0.060952
Sum of atomic charges:    0.0000000

LOEWDIN ATOMIC CHARGES
----------------------
   0 S :    0.391292
   1 C :   -0.182096
   2 C :   -0.070569
   3 C :   -0.058490
   4 C :   -0.190400
   5 H :    0.020692
   6 C :   -0.038446
   7 H :    0.034693
   8 H :    0.030863
   9 C :   -0.053288
  10 H :    0.027557
  11 H :    0.029095
  12 C :   -0.072017
  13 H :    0.021568
  14 H :    0.031811
  15 H :    0.033770
  16 S :    0.390031
  17 C :   -0.169488
  18 C :   -0.071534
  19 C :   -0.047338
  20 C :   -0.196548
  21 H :    0.024478
  22 C :   -0.012474
  23 H :    0.029906
  24 H :    0.018519
  25 C :   -0.030065
  26 H :    0.016594
  27 H :    0.023894
  28 C :   -0.075179
  29 H :    0.020745
  30 H :    0.029961
  31 H :    0.031667
  32 H :    0.031489
  33 H :    0.029305

  Mayer bond orders larger than 0.100000
B(  0-S ,  1-C ) :   1.1444 B(  0-S ,  4-C ) :   1.1306 B(  1-C ,  2-C ) :   1.6145
B(  1-C , 32-H ) :   0.9669 B(  2-C ,  3-C ) :   1.2229 B(  2-C ,  6-C ) :   1.0316
B(  3-C ,  4-C ) :   1.5964 B(  3-C ,  5-H ) :   1.0019 B(  4-C , 20-C ) :   1.0403
B(  6-C ,  7-H ) :   0.9450 B(  6-C ,  8-H ) :   0.9474 B(  6-C ,  9-C ) :   1.0433
B(  9-C , 10-H ) :   0.9584 B(  9-C , 11-H ) :   0.9621 B(  9-C , 12-C ) :   1.0632
B( 12-C , 13-H ) :   0.9742 B( 12-C , 14-H ) :   0.9752 B( 12-C , 15-H ) :   0.9750
B( 16-S , 17-C ) :   1.1453 B( 16-S , 20-C ) :   1.1245 B( 17-C , 18-C ) :   1.6268
B( 17-C , 33-H ) :   0.9717 B( 18-C , 19-C ) :   1.2053 B( 18-C , 21-H ) :   0.9939
B( 19-C , 20-C ) :   1.6316 B( 19-C , 22-C ) :   1.0474 B( 22-C , 23-H ) :   0.9210
B( 22-C , 24-H ) :   0.9313 B( 22-C , 25-C ) :   1.0849 B( 25-C , 26-H ) :   0.9557
B( 25-C , 27-H ) :   0.9520 B( 25-C , 28-C ) :   1.0717 B( 28-C , 29-H ) :   0.9692
B( 28-C , 30-H ) :   0.9745 B( 28-C , 31-H ) :   0.9738

Dispersion correction           -0.014281041
FINAL SINGLE POINT ENERGY     -1339.870463182676

DIPOLE MOMENT
-------------
                                X             Y             Z
Electronic contribution:     -1.09908     -14.49997      25.54837
Nuclear contribution   :      0.92587      14.99687     -26.05203
                        -----------------------------------------
Total Dipole Moment    :     -0.17320       0.49690      -0.50366
                        -----------------------------------------
Magnitude (a.u.)       :      0.72841
Magnitude (Debye)      :      1.85148

Rotational constants in cm-1:     0.020086     0.008107     0.006141
Rotational constants in MHz :   602.158194   243.051504   184.111902

                             ****ORCA TERMINATED NORMALLY****
TOTAL RUN TIME: 0 days 0 hours 0 minutes 21 seconds 467 msec
