                         Program Version 4.2.1 -  RELEASE  -
|  1> ! wB97X-D3 SP def2-SVP
|  2> %pal
|  3> nprocs 24
|  4> end
|  5>
|  6> * xyz 0 1
|  7> S 	 -73.7507 	 -43.6175 	 -93.1378
|  8> C 	 -72.6337 	 -42.3485 	 -93.2054
|  9> C 	 -71.7984 	 -42.3879 	 -94.2996
| 10> C 	 -72.0746 	 -43.5835 	 -95.0901
| 11> C 	 -73.067 	 -44.3522 	 -94.5571
| 12> H 	 -71.5865 	 -43.8863 	 -96.0261
| 13> C 	 -70.8249 	 -41.2949 	 -94.7661
| 14> H 	 -70.9871 	 -41.0568 	 -95.8371
| 15> H 	 -69.871 	 -41.747 	 -94.5974
| 16> C 	 -70.7078 	 -39.9516 	 -93.9003
| 17> H 	 -70.1704 	 -39.1604 	 -94.5018
| 18> H 	 -71.7922 	 -39.6131 	 -93.7745
| 19> C 	 -70.0031 	 -40.0142 	 -92.5194
| 20> H 	 -69.9032 	 -39.1466 	 -91.9844
| 21> H 	 -70.4638 	 -40.8248 	 -91.9641
| 22> H 	 -68.9447 	 -40.3099 	 -92.6439
| 23> S 	 -73.2831 	 -47.0403 	 -93.7598
| 24> C 	 -73.6995 	 -48.2017 	 -95.0195
| 25> C 	 -73.9915 	 -47.5498 	 -96.1925
| 26> C 	 -73.9207 	 -46.1001 	 -96.1295
| 27> C 	 -73.5256 	 -45.6891 	 -94.8996
| 28> H 	 -74.3454 	 -48.2047 	 -97.0229
| 29> C 	 -74.1813 	 -45.2775 	 -97.3716
| 30> H 	 -74.5769 	 -46.0247 	 -98.1317
| 31> H 	 -73.2594 	 -44.9405 	 -97.8395
| 32> C 	 -75.1177 	 -44.0826 	 -97.1884
| 33> H 	 -75.2713 	 -43.5084 	 -98.1387
| 34> H 	 -74.5777 	 -43.4146 	 -96.531
| 35> C 	 -76.5286 	 -44.4525 	 -96.6882
| 36> H 	 -76.4058 	 -45.1621 	 -95.9004
| 37> H 	 -77.1506 	 -44.9829 	 -97.4735
| 38> H 	 -77.0296 	 -43.5853 	 -96.1685
| 39> H 	 -72.7328 	 -41.4568 	 -92.6297
| 40> H 	 -73.8093 	 -49.2427 	 -94.9291
| 41> *
| 42>
| 43>                          ****END OF INPUT****

CARTESIAN COORDINATES (ANGSTROEM)
---------------------------------
  S    -73.750700  -43.617500  -93.137800
  C    -72.633700  -42.348500  -93.205400
  C    -71.798400  -42.387900  -94.299600
  C    -72.074600  -43.583500  -95.090100
  C    -73.067000  -44.352200  -94.557100
  H    -71.586500  -43.886300  -96.026100
  C    -70.824900  -41.294900  -94.766100
  H    -70.987100  -41.056800  -95.837100
  H    -69.871000  -41.747000  -94.597400
  C    -70.707800  -39.951600  -93.900300
  H    -70.170400  -39.160400  -94.501800
  H    -71.792200  -39.613100  -93.774500
  C    -70.003100  -40.014200  -92.519400
  H    -69.903200  -39.146600  -91.984400
  H    -70.463800  -40.824800  -91.964100
  H    -68.944700  -40.309900  -92.643900
  S    -73.283100  -47.040300  -93.759800
  C    -73.699500  -48.201700  -95.019500
  C    -73.991500  -47.549800  -96.192500
  C    -73.920700  -46.100100  -96.129500
  C    -73.525600  -45.689100  -94.899600
  H    -74.345400  -48.204700  -97.022900
  C    -74.181300  -45.277500  -97.371600
  H    -74.576900  -46.024700  -98.131700
  H    -73.259400  -44.940500  -97.839500
  C    -75.117700  -44.082600  -97.188400
  H    -75.271300  -43.508400  -98.138700
  H    -74.577700  -43.414600  -96.531000
  C    -76.528600  -44.452500  -96.688200
  H    -76.405800  -45.162100  -95.900400
  H    -77.150600  -44.982900  -97.473500
  H    -77.029600  -43.585300  -96.168500
  H    -72.732800  -41.456800  -92.629700
  H    -73.809300  -49.242700  -94.929100

 Total Charge           Charge          ....    0
 Multiplicity           Mult            ....    1
 Number of Electrons    NEL             ....  134
 Basis Dimension        Dim             ....  322

ORBITAL ENERGIES
----------------

  NO   OCC          E(Eh)            E(eV)
   0   2.0000     -88.966106     -2420.8908
   1   2.0000     -88.963495     -2420.8198
   2   2.0000     -10.326347      -280.9942
   3   2.0000     -10.325019      -280.9581
   4   2.0000     -10.315312      -280.6939
   5   2.0000     -10.307235      -280.4741
   6   2.0000     -10.306630      -280.4577
   7   2.0000     -10.304352      -280.3957
   8   2.0000     -10.302877      -280.3555
   9   2.0000     -10.301998      -280.3316
  10   2.0000     -10.299171      -280.2547
  11   2.0000     -10.296354      -280.1780
  12   2.0000     -10.295857      -280.1645
  13   2.0000     -10.283469      -279.8274
  14   2.0000     -10.276840      -279.6470
  15   2.0000     -10.276206      -279.6298
  16   2.0000      -8.080122      -219.8713
  17   2.0000      -8.079803      -219.8626
  18   2.0000      -6.038889      -164.3265
  19   2.0000      -6.038155      -164.3065
  20   2.0000      -6.034768      -164.2144
  21   2.0000      -6.034054      -164.1949
  22   2.0000      -6.030677      -164.1031
  23   2.0000      -6.030587      -164.1006
  24   2.0000      -1.011593       -27.5269
  25   2.0000      -0.985499       -26.8168
  26   2.0000      -0.906877       -24.6774
  27   2.0000      -0.903546       -24.5867
  28   2.0000      -0.868765       -23.6403
  29   2.0000      -0.852203       -23.1896
  30   2.0000      -0.841779       -22.9060
  31   2.0000      -0.815464       -22.1899
  32   2.0000      -0.785568       -21.3764
  33   2.0000      -0.775276       -21.0963
  34   2.0000      -0.709394       -19.3036
  35   2.0000      -0.703304       -19.1379
  36   2.0000      -0.684768       -18.6335
  37   2.0000      -0.661629       -18.0038
  38   2.0000      -0.642960       -17.4958
  39   2.0000      -0.608365       -16.5545
  40   2.0000      -0.587106       -15.9760
  41   2.0000      -0.572291       -15.5728
  42   2.0000      -0.558809       -15.2060
  43   2.0000      -0.551648       -15.0111
  44   2.0000      -0.544760       -14.8237
  45   2.0000      -0.536702       -14.6044
  46   2.0000      -0.511486       -13.9182
  47   2.0000      -0.510613       -13.8945
  48   2.0000      -0.504506       -13.7283
  49   2.0000      -0.497531       -13.5385
  50   2.0000      -0.484278       -13.1779
  51   2.0000      -0.481842       -13.1116
  52   2.0000      -0.473571       -12.8865
  53   2.0000      -0.464443       -12.6381
  54   2.0000      -0.459981       -12.5167
  55   2.0000      -0.450943       -12.2708
  56   2.0000      -0.440723       -11.9927
  57   2.0000      -0.434315       -11.8183
  58   2.0000      -0.431761       -11.7488
  59   2.0000      -0.424229       -11.5439
  60   2.0000      -0.418834       -11.3971
  61   2.0000      -0.412337       -11.2203
  62   2.0000      -0.408695       -11.1212
  63   2.0000      -0.348201        -9.4750
  64   2.0000      -0.331138        -9.0107
  65   2.0000      -0.327679        -8.9166
  66   2.0000      -0.300876        -8.1873
  67   0.0000       0.036232         0.9859
  68   0.0000       0.067921         1.8482
  69   0.0000       0.112994         3.0747
  70   0.0000       0.119040         3.2392
  71   0.0000       0.132726         3.6117

MULLIKEN ATOMIC CHARGES
-----------------------
   0 S :    0.120371
   1 C :   -0.101226
   2 C :   -0.118125
   3 C :    0.035414
   4 C :   -0.212071
   5 H :    0.019524
   6 C :    0.066559
   7 H :    0.056030
   8 H :    0.032794
   9 C :   -0.139187
  10 H :    0.042213
  11 H :    0.039718
  12 C :   -0.023426
  13 H :    0.027886
  14 H :    0.031132
  15 H :    0.023692
  16 S :    0.111663
  17 C :   -0.073676
  18 C :   -0.060238
  19 C :   -0.036309
  20 C :   -0.127874
  21 H :    0.034475
  22 C :    0.066928
  23 H :    0.020374
  24 H :    0.035073
  25 C :   -0.075698
  26 H :    0.032728
  27 H :    0.038169
  28 C :   -0.062663
  29 H :    0.025064
  30 H :    0.041843
  31 H :    0.045977
  32 H :    0.043698
  33 H :    0.039170
Sum of atomic charges:   -0.0000000

LOEWDIN ATOMIC CHARGES
----------------------
   0 S :    0.429839
   1 C :   -0.216318
   2 C :   -0.061236
   3 C :   -0.059570
   4 C :   -0.195000
   5 H :    0.035782
   6 C :   -0.032196
   7 H :    0.040340
   8 H :    0.031753
   9 C :   -0.048667
  10 H :    0.030843
  11 H :    0.024516
  12 C :   -0.065111
  13 H :    0.016967
  14 H :    0.025334
  15 H :    0.029631
  16 S :    0.384695
  17 C :   -0.173265
  18 C :   -0.075500
  19 C :   -0.057481
  20 C :   -0.195919
  21 H :    0.037770
  22 C :   -0.034173
  23 H :    0.033873
  24 H :    0.032008
  25 C :   -0.046636
  26 H :    0.028302
  27 H :    0.023374
  28 C :   -0.074649
  29 H :    0.018266
  30 H :    0.032076
  31 H :    0.035771
  32 H :    0.021317
  33 H :    0.023264

  Mayer bond orders larger than 0.100000
B(  0-S ,  1-C ) :   1.1435 B(  0-S ,  4-C ) :   1.1569 B(  1-C ,  2-C ) :   1.6432
B(  1-C , 32-H ) :   0.9532 B(  2-C ,  3-C ) :   1.2259 B(  2-C ,  6-C ) :   0.9934
B(  3-C ,  4-C ) :   1.6067 B(  3-C ,  5-H ) :   0.9936 B(  4-C , 20-C ) :   1.0153
B(  6-C ,  7-H ) :   0.9499 B(  6-C ,  8-H ) :   0.9359 B(  6-C ,  9-C ) :   1.0622
B(  9-C , 10-H ) :   0.9583 B(  9-C , 11-H ) :   0.9566 B(  9-C , 12-C ) :   1.0700
B( 12-C , 13-H ) :   0.9757 B( 12-C , 14-H ) :   0.9777 B( 12-C , 15-H ) :   0.9684
B( 16-S , 17-C ) :   1.1311 B( 16-S , 20-C ) :   1.1193 B( 17-C , 18-C ) :   1.6657
B( 17-C , 33-H ) :   0.9692 B( 18-C , 19-C ) :   1.2029 B( 18-C , 21-H ) :   0.9767
B( 19-C , 20-C ) :   1.6323 B( 19-C , 22-C ) :   1.0295 B( 22-C , 23-H ) :   0.9377
B( 22-C , 24-H ) :   0.9293 B( 22-C , 25-C ) :   1.0694 B( 25-C , 26-H ) :   0.9548
B( 25-C , 27-H ) :   0.9509 B( 25-C , 28-C ) :   1.0729 B( 28-C , 29-H ) :   0.9750
B( 28-C , 30-H ) :   0.9735 B( 28-C , 31-H ) :   0.9725

Dispersion correction           -0.015304358
FINAL SINGLE POINT ENERGY     -1339.879343047230

DIPOLE MOMENT
-------------
                                X             Y             Z
Electronic contribution:     -3.03883     -18.64907      10.09825
Nuclear contribution   :      3.29428      18.92115     -10.60389
                        -----------------------------------------
Total Dipole Moment    :      0.25545       0.27209      -0.50564
                        -----------------------------------------
Magnitude (a.u.)       :      0.62846
Magnitude (Debye)      :      1.59741

Rotational constants in cm-1:     0.023794     0.007837     0.006894
Rotational constants in MHz :   713.330020   234.956504   206.662488

                             ****ORCA TERMINATED NORMALLY****
TOTAL RUN TIME: 0 days 0 hours 0 minutes 21 seconds 7 msec
