                         Program Version 4.2.1 -  RELEASE  -
|  1> ! wB97X-D3 SP def2-SVP
|  2> %pal
|  3> nprocs 24
|  4> end
|  5>
|  6> * xyz 0 1
|  7> S 	 -44.8274 	 -48.5599 	 -71.8429
|  8> C 	 -45.1429 	 -46.8101 	 -72.274
|  9> C 	 -46.498 	 -46.5692 	 -72.2116
| 10> C 	 -47.3019 	 -47.74 	 -71.9452
| 11> C 	 -46.5847 	 -48.9104 	 -71.7416
| 12> H 	 -48.387 	 -47.7936 	 -71.9833
| 13> C 	 -47.057 	 -45.2476 	 -72.7273
| 14> H 	 -46.1683 	 -44.6902 	 -72.6611
| 15> H 	 -47.724 	 -44.7402 	 -72.0433
| 16> C 	 -47.7499 	 -45.1946 	 -74.0883
| 17> H 	 -47.8735 	 -44.1487 	 -74.3856
| 18> H 	 -46.9629 	 -45.5415 	 -74.7223
| 19> C 	 -49.0333 	 -45.9645 	 -74.286
| 20> H 	 -49.6992 	 -45.8024 	 -73.4432
| 21> H 	 -49.6982 	 -45.7842 	 -75.1407
| 22> H 	 -48.9051 	 -47.0326 	 -74.3384
| 23> S 	 -46.3074 	 -51.0043 	 -69.9923
| 24> C 	 -47.2632 	 -52.4435 	 -70.1132
| 25> C 	 -48.0838 	 -52.4209 	 -71.2373
| 26> C 	 -48.0493 	 -51.1436 	 -71.8886
| 27> C 	 -47.0882 	 -50.2589 	 -71.4106
| 28> H 	 -48.6495 	 -53.2833 	 -71.4649
| 29> C 	 -48.9894 	 -50.7885 	 -72.9759
| 30> H 	 -48.502 	 -49.9743 	 -73.4853
| 31> H 	 -49.9037 	 -50.3539 	 -72.5332
| 32> C 	 -49.4949 	 -51.8813 	 -73.9019
| 33> H 	 -50.0217 	 -52.7182 	 -73.3752
| 34> H 	 -48.6103 	 -52.3537 	 -74.3711
| 35> C 	 -50.5362 	 -51.3197 	 -74.9142
| 36> H 	 -51.4985 	 -51.4792 	 -74.3931
| 37> H 	 -50.6665 	 -51.9094 	 -75.8418
| 38> H 	 -50.3533 	 -50.2736 	 -75.2683
| 39> H 	 -44.3622 	 -46.1175 	 -72.5684
| 40> H 	 -47.3882 	 -53.1489 	 -69.311
| 41> *
| 42>
| 43>                          ****END OF INPUT****

CARTESIAN COORDINATES (ANGSTROEM)
---------------------------------
  S    -44.827400  -48.559900  -71.842900
  C    -45.142900  -46.810100  -72.274000
  C    -46.498000  -46.569200  -72.211600
  C    -47.301900  -47.740000  -71.945200
  C    -46.584700  -48.910400  -71.741600
  H    -48.387000  -47.793600  -71.983300
  C    -47.057000  -45.247600  -72.727300
  H    -46.168300  -44.690200  -72.661100
  H    -47.724000  -44.740200  -72.043300
  C    -47.749900  -45.194600  -74.088300
  H    -47.873500  -44.148700  -74.385600
  H    -46.962900  -45.541500  -74.722300
  C    -49.033300  -45.964500  -74.286000
  H    -49.699200  -45.802400  -73.443200
  H    -49.698200  -45.784200  -75.140700
  H    -48.905100  -47.032600  -74.338400
  S    -46.307400  -51.004300  -69.992300
  C    -47.263200  -52.443500  -70.113200
  C    -48.083800  -52.420900  -71.237300
  C    -48.049300  -51.143600  -71.888600
  C    -47.088200  -50.258900  -71.410600
  H    -48.649500  -53.283300  -71.464900
  C    -48.989400  -50.788500  -72.975900
  H    -48.502000  -49.974300  -73.485300
  H    -49.903700  -50.353900  -72.533200
  C    -49.494900  -51.881300  -73.901900
  H    -50.021700  -52.718200  -73.375200
  H    -48.610300  -52.353700  -74.371100
  C    -50.536200  -51.319700  -74.914200
  H    -51.498500  -51.479200  -74.393100
  H    -50.666500  -51.909400  -75.841800
  H    -50.353300  -50.273600  -75.268300
  H    -44.362200  -46.117500  -72.568400
  H    -47.388200  -53.148900  -69.311000

 Total Charge           Charge          ....    0
 Multiplicity           Mult            ....    1
 Number of Electrons    NEL             ....  134
 Basis Dimension        Dim             ....  322

ORBITAL ENERGIES
----------------

  NO   OCC          E(Eh)            E(eV)
   0   2.0000     -88.965946     -2420.8865
   1   2.0000     -88.963062     -2420.8080
   2   2.0000     -10.340588      -281.3817
   3   2.0000     -10.331548      -281.1357
   4   2.0000     -10.324090      -280.9328
   5   2.0000     -10.318175      -280.7718
   6   2.0000     -10.307077      -280.4698
   7   2.0000     -10.306565      -280.4559
   8   2.0000     -10.298586      -280.2388
   9   2.0000     -10.294243      -280.1206
  10   2.0000     -10.294190      -280.1192
  11   2.0000     -10.288219      -279.9567
  12   2.0000     -10.287868      -279.9471
  13   2.0000     -10.287816      -279.9457
  14   2.0000     -10.286228      -279.9025
  15   2.0000     -10.278738      -279.6987
  16   2.0000      -8.078919      -219.8386
  17   2.0000      -8.077824      -219.8088
  18   2.0000      -6.037719      -164.2947
  19   2.0000      -6.036328      -164.2568
  20   2.0000      -6.033735      -164.1863
  21   2.0000      -6.032189      -164.1442
  22   2.0000      -6.029374      -164.0676
  23   2.0000      -6.028701      -164.0493
  24   2.0000      -1.001140       -27.2424
  25   2.0000      -0.977836       -26.6083
  26   2.0000      -0.914180       -24.8761
  27   2.0000      -0.912103       -24.8196
  28   2.0000      -0.870235       -23.6803
  29   2.0000      -0.850519       -23.1438
  30   2.0000      -0.838490       -22.8165
  31   2.0000      -0.820679       -22.3318
  32   2.0000      -0.786761       -21.4088
  33   2.0000      -0.772564       -21.0225
  34   2.0000      -0.711263       -19.3545
  35   2.0000      -0.702845       -19.1254
  36   2.0000      -0.700671       -19.0662
  37   2.0000      -0.656016       -17.8511
  38   2.0000      -0.642520       -17.4839
  39   2.0000      -0.617535       -16.8040
  40   2.0000      -0.597912       -16.2700
  41   2.0000      -0.578988       -15.7551
  42   2.0000      -0.571735       -15.5577
  43   2.0000      -0.552600       -15.0370
  44   2.0000      -0.543606       -14.7923
  45   2.0000      -0.528560       -14.3829
  46   2.0000      -0.514230       -13.9929
  47   2.0000      -0.511412       -13.9162
  48   2.0000      -0.504930       -13.7398
  49   2.0000      -0.500225       -13.6118
  50   2.0000      -0.491036       -13.3618
  51   2.0000      -0.478555       -13.0221
  52   2.0000      -0.477262       -12.9870
  53   2.0000      -0.465056       -12.6548
  54   2.0000      -0.456341       -12.4177
  55   2.0000      -0.449851       -12.2411
  56   2.0000      -0.446188       -12.1414
  57   2.0000      -0.436090       -11.8666
  58   2.0000      -0.431842       -11.7510
  59   2.0000      -0.420709       -11.4481
  60   2.0000      -0.417949       -11.3730
  61   2.0000      -0.416185       -11.3250
  62   2.0000      -0.410243       -11.1633
  63   2.0000      -0.349329        -9.5057
  64   2.0000      -0.331267        -9.0142
  65   2.0000      -0.327488        -8.9114
  66   2.0000      -0.292525        -7.9600
  67   0.0000       0.028048         0.7632
  68   0.0000       0.059185         1.6105
  69   0.0000       0.108722         2.9585
  70   0.0000       0.116658         3.1744
  71   0.0000       0.127510         3.4697

MULLIKEN ATOMIC CHARGES
-----------------------
   0 S :    0.089229
   1 C :   -0.137466
   2 C :   -0.080665
   3 C :    0.030356
   4 C :   -0.139611
   5 H :    0.015864
   6 C :    0.075720
   7 H :   -0.000825
   8 H :    0.021673
   9 C :   -0.022594
  10 H :    0.031719
  11 H :    0.014719
  12 C :   -0.053053
  13 H :    0.019801
  14 H :    0.035375
  15 H :    0.028248
  16 S :    0.094622
  17 C :   -0.084019
  18 C :   -0.034538
  19 C :   -0.018934
  20 C :   -0.155386
  21 H :    0.008984
  22 C :    0.054169
  23 H :    0.026147
  24 H :    0.037483
  25 C :   -0.105886
  26 H :    0.038338
  27 H :    0.036949
  28 C :   -0.071887
  29 H :    0.039344
  30 H :    0.036941
  31 H :    0.046170
  32 H :    0.061526
  33 H :    0.061486
Sum of atomic charges:    0.0000000

LOEWDIN ATOMIC CHARGES
----------------------
   0 S :    0.352509
   1 C :   -0.170158
   2 C :   -0.059520
   3 C :   -0.066549
   4 C :   -0.174735
   5 H :    0.031904
   6 C :   -0.028592
   7 H :    0.026091
   8 H :    0.026024
   9 C :   -0.038440
  10 H :    0.029873
  11 H :    0.021827
  12 C :   -0.073728
  13 H :    0.023470
  14 H :    0.032975
  15 H :    0.023176
  16 S :    0.402578
  17 C :   -0.181223
  18 C :   -0.069798
  19 C :   -0.050807
  20 C :   -0.193303
  21 H :    0.026436
  22 C :   -0.039851
  23 H :    0.030110
  24 H :    0.036492
  25 C :   -0.045836
  26 H :    0.027255
  27 H :    0.024032
  28 C :   -0.074124
  29 H :    0.030834
  30 H :    0.029347
  31 H :    0.029626
  32 H :    0.032476
  33 H :    0.029626

  Mayer bond orders larger than 0.100000
B(  0-S ,  1-C ) :   1.1086 B(  0-S ,  4-C ) :   1.1299 B(  1-C ,  2-C ) :   1.6362
B(  1-C , 32-H ) :   0.9677 B(  2-C ,  3-C ) :   1.2006 B(  2-C ,  6-C ) :   1.0274
B(  3-C ,  4-C ) :   1.5982 B(  3-C ,  5-H ) :   0.9926 B(  4-C , 20-C ) :   1.0354
B(  6-C ,  7-H ) :   0.9349 B(  6-C ,  8-H ) :   0.9347 B(  6-C ,  9-C ) :   1.0678
B(  9-C , 10-H ) :   0.9519 B(  9-C , 11-H ) :   0.9520 B(  9-C , 12-C ) :   1.0769
B( 12-C , 13-H ) :   0.9723 B( 12-C , 14-H ) :   0.9700 B( 12-C , 15-H ) :   0.9706
B( 16-S , 17-C ) :   1.1769 B( 16-S , 20-C ) :   1.1273 B( 17-C , 18-C ) :   1.5900
B( 17-C , 33-H ) :   0.9642 B( 18-C , 19-C ) :   1.2324 B( 18-C , 21-H ) :   1.0014
B( 19-C , 20-C ) :   1.5898 B( 19-C , 22-C ) :   1.0526 B( 22-C , 23-H ) :   0.9286
B( 22-C , 24-H ) :   0.9244 B( 22-C , 25-C ) :   1.0695 B( 25-C , 26-H ) :   0.9526
B( 25-C , 27-H ) :   0.9605 B( 25-C , 28-C ) :   1.0640 B( 28-C , 29-H ) :   0.9781
B( 28-C , 30-H ) :   0.9750 B( 28-C , 31-H ) :   0.9771

Dispersion correction           -0.014260912
FINAL SINGLE POINT ENERGY     -1339.869456169394

DIPOLE MOMENT
-------------
                                X             Y             Z
Electronic contribution:     22.34888      -8.07495      20.15078
Nuclear contribution   :    -23.04807       8.20032     -20.54710
                        -----------------------------------------
Total Dipole Moment    :     -0.69920       0.12537      -0.39632
                        -----------------------------------------
Magnitude (a.u.)       :      0.81343
Magnitude (Debye)      :      2.06757

Rotational constants in cm-1:     0.015997     0.009903     0.006568
Rotational constants in MHz :   479.582047   296.882687   196.909839

                             ****ORCA TERMINATED NORMALLY****
TOTAL RUN TIME: 0 days 0 hours 0 minutes 21 seconds 622 msec
