                         Program Version 4.2.1 -  RELEASE  -
|  1> ! wB97X-D3 SP def2-SVP
|  2> %pal
|  3> nprocs 24
|  4> end
|  5>
|  6> * xyz 0 1
|  7> S 	 -72.4337 	 3.95968 	 -102.141
|  8> C 	 -73.025 	 5.43996 	 -101.341
|  9> C 	 -74.0791 	 6.0381 	 -102.002
| 10> C 	 -74.4753 	 5.29201 	 -103.129
| 11> C 	 -73.6794 	 4.17954 	 -103.32
| 12> H 	 -75.2876 	 5.51162 	 -103.911
| 13> C 	 -74.7154 	 7.34118 	 -101.714
| 14> H 	 -74.8293 	 7.55027 	 -100.667
| 15> H 	 -75.7588 	 7.10607 	 -101.868
| 16> C 	 -74.2858 	 8.53284 	 -102.597
| 17> H 	 -74.0822 	 8.32344 	 -103.589
| 18> H 	 -74.9259 	 9.31528 	 -102.514
| 19> C 	 -73.03 	 9.0706 	 -101.976
| 20> H 	 -73.0811 	 9.4031 	 -100.936
| 21> H 	 -72.2069 	 8.49956 	 -102.156
| 22> H 	 -72.6875 	 9.9511 	 -102.453
| 23> S 	 -74.9715 	 2.02891 	 -104.411
| 24> C 	 -74.3327 	 1.31702 	 -105.875
| 25> C 	 -73.1559 	 1.84464 	 -106.269
| 26> C 	 -72.8047 	 3.00924 	 -105.51
| 27> C 	 -73.7066 	 3.28625 	 -104.501
| 28> H 	 -72.6095 	 1.34947 	 -107.034
| 29> C 	 -71.565 	 3.81031 	 -105.8
| 30> H 	 -71.1294 	 3.21612 	 -106.566
| 31> H 	 -70.9873 	 3.87558 	 -104.845
| 32> C 	 -71.7454 	 5.21356 	 -106.438
| 33> H 	 -72.2783 	 5.82589 	 -105.698
| 34> H 	 -72.4755 	 5.21567 	 -107.36
| 35> C 	 -70.3738 	 5.86806 	 -106.719
| 36> H 	 -69.7759 	 6.09996 	 -105.79
| 37> H 	 -70.4613 	 6.82248 	 -107.2
| 38> H 	 -69.7413 	 5.28324 	 -107.4
| 39> H 	 -72.6644 	 5.79207 	 -100.352
| 40> H 	 -74.7537 	 0.40175 	 -106.201
| 41> *
| 42>
| 43>                          ****END OF INPUT****

CARTESIAN COORDINATES (ANGSTROEM)
---------------------------------
  S    -72.433700    3.959680  -102.141000
  C    -73.025000    5.439960  -101.341000
  C    -74.079100    6.038100  -102.002000
  C    -74.475300    5.292010  -103.129000
  C    -73.679400    4.179540  -103.320000
  H    -75.287600    5.511620  -103.911000
  C    -74.715400    7.341180  -101.714000
  H    -74.829300    7.550270  -100.667000
  H    -75.758800    7.106070  -101.868000
  C    -74.285800    8.532840  -102.597000
  H    -74.082200    8.323440  -103.589000
  H    -74.925900    9.315280  -102.514000
  C    -73.030000    9.070600  -101.976000
  H    -73.081100    9.403100  -100.936000
  H    -72.206900    8.499560  -102.156000
  H    -72.687500    9.951100  -102.453000
  S    -74.971500    2.028910  -104.411000
  C    -74.332700    1.317020  -105.875000
  C    -73.155900    1.844640  -106.269000
  C    -72.804700    3.009240  -105.510000
  C    -73.706600    3.286250  -104.501000
  H    -72.609500    1.349470  -107.034000
  C    -71.565000    3.810310  -105.800000
  H    -71.129400    3.216120  -106.566000
  H    -70.987300    3.875580  -104.845000
  C    -71.745400    5.213560  -106.438000
  H    -72.278300    5.825890  -105.698000
  H    -72.475500    5.215670  -107.360000
  C    -70.373800    5.868060  -106.719000
  H    -69.775900    6.099960  -105.790000
  H    -70.461300    6.822480  -107.200000
  H    -69.741300    5.283240  -107.400000
  H    -72.664400    5.792070  -100.352000
  H    -74.753700    0.401750  -106.201000

 Total Charge           Charge          ....    0
 Multiplicity           Mult            ....    1
 Number of Electrons    NEL             ....  134
 Basis Dimension        Dim             ....  322

ORBITAL ENERGIES
----------------

  NO   OCC          E(Eh)            E(eV)
   0   2.0000     -88.969817     -2420.9918
   1   2.0000     -88.958132     -2420.6738
   2   2.0000     -10.326720      -281.0043
   3   2.0000     -10.322633      -280.8931
   4   2.0000     -10.316572      -280.7282
   5   2.0000     -10.309328      -280.5311
   6   2.0000     -10.300830      -280.2998
   7   2.0000     -10.298887      -280.2470
   8   2.0000     -10.296825      -280.1908
   9   2.0000     -10.295661      -280.1592
  10   2.0000     -10.288796      -279.9724
  11   2.0000     -10.288553      -279.9658
  12   2.0000     -10.285803      -279.8909
  13   2.0000     -10.280269      -279.7403
  14   2.0000     -10.275270      -279.6043
  15   2.0000     -10.258720      -279.1540
  16   2.0000      -8.084088      -219.9792
  17   2.0000      -8.073012      -219.6778
  18   2.0000      -6.042484      -164.4244
  19   2.0000      -6.038745      -164.3226
  20   2.0000      -6.034909      -164.2182
  21   2.0000      -6.031417      -164.1232
  22   2.0000      -6.027588      -164.0190
  23   2.0000      -6.023790      -163.9157
  24   2.0000      -1.005449       -27.3597
  25   2.0000      -0.983920       -26.7738
  26   2.0000      -0.921447       -25.0739
  27   2.0000      -0.902948       -24.5705
  28   2.0000      -0.870415       -23.6852
  29   2.0000      -0.853148       -23.2153
  30   2.0000      -0.845662       -23.0116
  31   2.0000      -0.812656       -22.1135
  32   2.0000      -0.786487       -21.4014
  33   2.0000      -0.770016       -20.9532
  34   2.0000      -0.717258       -19.5176
  35   2.0000      -0.701727       -19.0950
  36   2.0000      -0.685750       -18.6602
  37   2.0000      -0.665241       -18.1021
  38   2.0000      -0.637984       -17.3604
  39   2.0000      -0.618302       -16.8249
  40   2.0000      -0.591685       -16.1006
  41   2.0000      -0.577532       -15.7155
  42   2.0000      -0.563177       -15.3248
  43   2.0000      -0.551236       -14.9999
  44   2.0000      -0.545827       -14.8527
  45   2.0000      -0.515453       -14.0262
  46   2.0000      -0.514154       -13.9908
  47   2.0000      -0.510122       -13.8811
  48   2.0000      -0.507512       -13.8101
  49   2.0000      -0.493445       -13.4273
  50   2.0000      -0.482838       -13.1387
  51   2.0000      -0.475073       -12.9274
  52   2.0000      -0.470607       -12.8059
  53   2.0000      -0.462179       -12.5765
  54   2.0000      -0.456662       -12.4264
  55   2.0000      -0.449389       -12.2285
  56   2.0000      -0.448427       -12.2023
  57   2.0000      -0.445819       -12.1314
  58   2.0000      -0.430727       -11.7207
  59   2.0000      -0.426399       -11.6029
  60   2.0000      -0.420998       -11.4559
  61   2.0000      -0.413875       -11.2621
  62   2.0000      -0.410848       -11.1797
  63   2.0000      -0.336334        -9.1521
  64   2.0000      -0.332425        -9.0457
  65   2.0000      -0.324594        -8.8327
  66   2.0000      -0.301891        -8.2149
  67   0.0000       0.041001         1.1157
  68   0.0000       0.059801         1.6273
  69   0.0000       0.108110         2.9418
  70   0.0000       0.113013         3.0752
  71   0.0000       0.125326         3.4103

MULLIKEN ATOMIC CHARGES
-----------------------
   0 S :    0.124934
   1 C :   -0.133977
   2 C :   -0.077644
   3 C :    0.006653
   4 C :   -0.163426
   5 H :    0.047883
   6 C :    0.066703
   7 H :    0.009939
   8 H :    0.010349
   9 C :    0.054141
  10 H :    0.015158
  11 H :    0.005205
  12 C :   -0.028745
  13 H :    0.022989
  14 H :    0.005706
  15 H :   -0.001849
  16 S :    0.085770
  17 C :   -0.069746
  18 C :   -0.024437
  19 C :   -0.047025
  20 C :   -0.178745
  21 H :    0.010296
  22 C :    0.095154
  23 H :    0.002658
  24 H :    0.041597
  25 C :   -0.097899
  26 H :    0.032939
  27 H :    0.046487
  28 C :   -0.051312
  29 H :    0.040426
  30 H :    0.026726
  31 H :    0.029204
  32 H :    0.052063
  33 H :    0.041825
Sum of atomic charges:    0.0000000

LOEWDIN ATOMIC CHARGES
----------------------
   0 S :    0.407114
   1 C :   -0.193269
   2 C :   -0.065044
   3 C :   -0.067680
   4 C :   -0.205620
   5 H :    0.050634
   6 C :   -0.033153
   7 H :    0.029795
   8 H :    0.031208
   9 C :   -0.012060
  10 H :    0.021292
  11 H :    0.015705
  12 C :   -0.058584
  13 H :    0.025752
  14 H :    0.011756
  15 H :    0.019656
  16 S :    0.384664
  17 C :   -0.168939
  18 C :   -0.070993
  19 C :   -0.056848
  20 C :   -0.192075
  21 H :    0.030389
  22 C :   -0.033536
  23 H :    0.023996
  24 H :    0.035300
  25 C :   -0.045448
  26 H :    0.022963
  27 H :    0.036052
  28 C :   -0.073141
  29 H :    0.033665
  30 H :    0.022863
  31 H :    0.023361
  32 H :    0.032010
  33 H :    0.018217

  Mayer bond orders larger than 0.100000
B(  0-S ,  1-C ) :   1.1231 B(  0-S ,  4-C ) :   1.1610 B(  1-C ,  2-C ) :   1.6264
B(  1-C , 32-H ) :   0.9622 B(  2-C ,  3-C ) :   1.2294 B(  2-C ,  6-C ) :   1.0253
B(  3-C ,  4-C ) :   1.5943 B(  3-C ,  5-H ) :   0.9784 B(  4-C , 20-C ) :   0.9997
B(  6-C ,  7-H ) :   0.9360 B(  6-C ,  8-H ) :   0.9261 B(  6-C ,  9-C ) :   1.0695
B(  9-C , 10-H ) :   0.9542 B(  9-C , 11-H ) :   0.9489 B(  9-C , 12-C ) :   1.0883
B( 12-C , 13-H ) :   0.9737 B( 12-C , 14-H ) :   0.9722 B( 12-C , 15-H ) :   0.9625
B( 16-S , 17-C ) :   1.1547 B( 16-S , 20-C ) :   1.1388 B( 17-C , 18-C ) :   1.6317
B( 17-C , 33-H ) :   0.9671 B( 18-C , 19-C ) :   1.2180 B( 18-C , 21-H ) :   0.9986
B( 19-C , 20-C ) :   1.6208 B( 19-C , 22-C ) :   1.0382 B( 22-C , 23-H ) :   0.9270
B( 22-C , 24-H ) :   0.9256 B( 22-C , 25-C ) :   1.0681 B( 25-C , 26-H ) :   0.9541
B( 25-C , 27-H ) :   0.9544 B( 25-C , 28-C ) :   1.0769 B( 28-C , 29-H ) :   0.9730
B( 28-C , 30-H ) :   0.9732 B( 28-C , 31-H ) :   0.9764

Dispersion correction           -0.014838249
FINAL SINGLE POINT ENERGY     -1339.856128596243

DIPOLE MOMENT
-------------
                                X             Y             Z
Electronic contribution:     -9.05315     -25.12372       5.98699
Nuclear contribution   :      9.18060      25.57325      -6.15216
                        -----------------------------------------
Total Dipole Moment    :      0.12745       0.44954      -0.16517
                        -----------------------------------------
Magnitude (a.u.)       :      0.49559
Magnitude (Debye)      :      1.25968

Rotational constants in cm-1:     0.018532     0.009226     0.007362
Rotational constants in MHz :   555.575149   276.600844   220.716936

                             ****ORCA TERMINATED NORMALLY****
TOTAL RUN TIME: 0 days 0 hours 0 minutes 22 seconds 41 msec
