                         Program Version 4.2.1 -  RELEASE  -
|  1> ! wB97X-D3 SP def2-SVP
|  2> %pal
|  3> nprocs 24
|  4> end
|  5>
|  6> * xyz 0 1
|  7> S 	 34.7986 	 -28.1011 	 -126.783
|  8> C 	 36.2275 	 -29.0067 	 -127.111
|  9> C 	 35.9525 	 -30.0755 	 -127.872
| 10> C 	 34.5592 	 -30.1971 	 -128.172
| 11> C 	 33.7522 	 -29.1499 	 -127.641
| 12> H 	 34.0769 	 -30.8593 	 -128.925
| 13> C 	 36.9667 	 -31.0394 	 -128.41
| 14> H 	 37.9488 	 -30.649 	 -128.121
| 15> H 	 36.9806 	 -30.8761 	 -129.517
| 16> C 	 36.8532 	 -32.549 	 -128.214
| 17> H 	 35.8668 	 -32.9574 	 -128.593
| 18> H 	 37.5833 	 -33.0484 	 -128.839
| 19> C 	 37.1005 	 -33.1512 	 -126.831
| 20> H 	 36.8008 	 -34.2797 	 -126.891
| 21> H 	 38.1061 	 -33.0974 	 -126.51
| 22> H 	 36.4153 	 -32.7717 	 -126.022
| 23> S 	 31.6725 	 -28.1108 	 -129.085
| 24> C 	 30.0859 	 -28.5695 	 -128.703
| 25> C 	 29.9837 	 -29.2327 	 -127.551
| 26> C 	 31.2556 	 -29.6127 	 -127.061
| 27> C 	 32.3056 	 -28.9727 	 -127.736
| 28> H 	 29.0365 	 -29.5576 	 -127.138
| 29> C 	 31.5303 	 -30.5854 	 -125.917
| 30> H 	 30.8294 	 -30.7304 	 -125.263
| 31> H 	 32.2975 	 -30.202 	 -125.337
| 32> C 	 31.8965 	 -31.9618 	 -126.425
| 33> H 	 32.2948 	 -31.8977 	 -127.446
| 34> H 	 30.9778 	 -32.4817 	 -126.582
| 35> C 	 32.8985 	 -32.6381 	 -125.529
| 36> H 	 32.5212 	 -32.9982 	 -124.558
| 37> H 	 33.7329 	 -32.0759 	 -125.38
| 38> H 	 33.2596 	 -33.5918 	 -126.029
| 39> H 	 37.1785 	 -28.8295 	 -126.738
| 40> H 	 29.2619 	 -28.1713 	 -129.182
| 41> *
| 42>
| 43>                          ****END OF INPUT****

CARTESIAN COORDINATES (ANGSTROEM)
---------------------------------
  S     34.798600  -28.101100  -126.783000
  C     36.227500  -29.006700  -127.111000
  C     35.952500  -30.075500  -127.872000
  C     34.559200  -30.197100  -128.172000
  C     33.752200  -29.149900  -127.641000
  H     34.076900  -30.859300  -128.925000
  C     36.966700  -31.039400  -128.410000
  H     37.948800  -30.649000  -128.121000
  H     36.980600  -30.876100  -129.517000
  C     36.853200  -32.549000  -128.214000
  H     35.866800  -32.957400  -128.593000
  H     37.583300  -33.048400  -128.839000
  C     37.100500  -33.151200  -126.831000
  H     36.800800  -34.279700  -126.891000
  H     38.106100  -33.097400  -126.510000
  H     36.415300  -32.771700  -126.022000
  S     31.672500  -28.110800  -129.085000
  C     30.085900  -28.569500  -128.703000
  C     29.983700  -29.232700  -127.551000
  C     31.255600  -29.612700  -127.061000
  C     32.305600  -28.972700  -127.736000
  H     29.036500  -29.557600  -127.138000
  C     31.530300  -30.585400  -125.917000
  H     30.829400  -30.730400  -125.263000
  H     32.297500  -30.202000  -125.337000
  C     31.896500  -31.961800  -126.425000
  H     32.294800  -31.897700  -127.446000
  H     30.977800  -32.481700  -126.582000
  C     32.898500  -32.638100  -125.529000
  H     32.521200  -32.998200  -124.558000
  H     33.732900  -32.075900  -125.380000
  H     33.259600  -33.591800  -126.029000
  H     37.178500  -28.829500  -126.738000
  H     29.261900  -28.171300  -129.182000

 Total Charge           Charge          ....    0
 Multiplicity           Mult            ....    1
 Number of Electrons    NEL             ....  134
 Basis Dimension        Dim             ....  322

ORBITAL ENERGIES
----------------

  NO   OCC          E(Eh)            E(eV)
   0   2.0000     -88.964163     -2420.8379
   1   2.0000     -88.963000     -2420.8063
   2   2.0000     -10.329770      -281.0873
   3   2.0000     -10.321258      -280.8557
   4   2.0000     -10.303818      -280.3811
   5   2.0000     -10.303479      -280.3719
   6   2.0000     -10.303105      -280.3618
   7   2.0000     -10.297373      -280.2058
   8   2.0000     -10.295807      -280.1631
   9   2.0000     -10.295131      -280.1448
  10   2.0000     -10.292597      -280.0758
  11   2.0000     -10.287190      -279.9287
  12   2.0000     -10.283706      -279.8339
  13   2.0000     -10.273617      -279.5593
  14   2.0000     -10.269702      -279.4528
  15   2.0000     -10.265320      -279.3336
  16   2.0000      -8.079852      -219.8639
  17   2.0000      -8.079498      -219.8543
  18   2.0000      -6.038258      -164.3094
  19   2.0000      -6.037768      -164.2960
  20   2.0000      -6.033939      -164.1918
  21   2.0000      -6.033692      -164.1851
  22   2.0000      -6.030940      -164.1102
  23   2.0000      -6.030478      -164.0976
  24   2.0000      -1.015589       -27.6356
  25   2.0000      -0.996448       -27.1147
  26   2.0000      -0.917440       -24.9648
  27   2.0000      -0.911519       -24.8037
  28   2.0000      -0.875296       -23.8180
  29   2.0000      -0.851118       -23.1601
  30   2.0000      -0.846112       -23.0239
  31   2.0000      -0.817978       -22.2583
  32   2.0000      -0.786774       -21.4092
  33   2.0000      -0.778687       -21.1892
  34   2.0000      -0.711503       -19.3610
  35   2.0000      -0.702570       -19.1179
  36   2.0000      -0.692614       -18.8470
  37   2.0000      -0.663565       -18.0565
  38   2.0000      -0.641894       -17.4668
  39   2.0000      -0.619173       -16.8486
  40   2.0000      -0.606483       -16.5033
  41   2.0000      -0.576893       -15.6981
  42   2.0000      -0.566925       -15.4268
  43   2.0000      -0.544800       -14.8247
  44   2.0000      -0.539711       -14.6863
  45   2.0000      -0.525872       -14.3097
  46   2.0000      -0.519166       -14.1272
  47   2.0000      -0.513495       -13.9729
  48   2.0000      -0.509767       -13.8715
  49   2.0000      -0.503024       -13.6880
  50   2.0000      -0.490427       -13.3452
  51   2.0000      -0.486731       -13.2446
  52   2.0000      -0.477525       -12.9941
  53   2.0000      -0.468570       -12.7504
  54   2.0000      -0.466332       -12.6895
  55   2.0000      -0.442803       -12.0493
  56   2.0000      -0.440564       -11.9884
  57   2.0000      -0.435057       -11.8385
  58   2.0000      -0.431288       -11.7359
  59   2.0000      -0.422788       -11.5046
  60   2.0000      -0.418250       -11.3812
  61   2.0000      -0.413818       -11.2606
  62   2.0000      -0.411379       -11.1942
  63   2.0000      -0.338691        -9.2163
  64   2.0000      -0.328310        -8.9338
  65   2.0000      -0.319281        -8.6881
  66   2.0000      -0.314365        -8.5543
  67   0.0000       0.050821         1.3829
  68   0.0000       0.055302         1.5048
  69   0.0000       0.120464         3.2780
  70   0.0000       0.127158         3.4601
  71   0.0000       0.134594         3.6625

MULLIKEN ATOMIC CHARGES
-----------------------
   0 S :    0.122297
   1 C :   -0.093702
   2 C :   -0.074555
   3 C :    0.023386
   4 C :   -0.188549
   5 H :    0.035581
   6 C :    0.073641
   7 H :    0.002362
   8 H :    0.041235
   9 C :   -0.065881
  10 H :    0.033592
  11 H :    0.026107
  12 C :   -0.084659
  13 H :    0.039920
  14 H :    0.030068
  15 H :    0.045621
  16 S :    0.124486
  17 C :   -0.050328
  18 C :   -0.023149
  19 C :   -0.066221
  20 C :   -0.181456
  21 H :    0.014799
  22 C :    0.204726
  23 H :   -0.041401
  24 H :   -0.002714
  25 C :   -0.064051
  26 H :    0.019272
  27 H :    0.012814
  28 C :   -0.029776
  29 H :    0.027371
  30 H :    0.022213
  31 H :    0.025389
  32 H :    0.013434
  33 H :    0.028129
Sum of atomic charges:   -0.0000000

LOEWDIN ATOMIC CHARGES
----------------------
   0 S :    0.438539
   1 C :   -0.196034
   2 C :   -0.073133
   3 C :   -0.066587
   4 C :   -0.215560
   5 H :    0.035109
   6 C :   -0.036838
   7 H :    0.026791
   8 H :    0.043561
   9 C :   -0.048431
  10 H :    0.029932
  11 H :    0.027603
  12 C :   -0.074348
  13 H :    0.038247
  14 H :    0.015473
  15 H :    0.028728
  16 S :    0.445179
  17 C :   -0.185347
  18 C :   -0.074497
  19 C :   -0.033911
  20 C :   -0.226363
  21 H :    0.033735
  22 C :   -0.013101
  23 H :    0.005259
  24 H :    0.023853
  25 C :   -0.033312
  26 H :    0.022943
  27 H :    0.018864
  28 C :   -0.056963
  29 H :    0.025107
  30 H :    0.010763
  31 H :    0.032318
  32 H :    0.017416
  33 H :    0.015005

  Mayer bond orders larger than 0.100000
B(  0-S ,  1-C ) :   1.1474 B(  0-S ,  4-C ) :   1.1837 B(  1-C ,  2-C ) :   1.6021
B(  1-C , 32-H ) :   0.9746 B(  2-C ,  3-C ) :   1.2458 B(  2-C ,  6-C ) :   1.0276
B(  3-C ,  4-C ) :   1.5583 B(  3-C ,  5-H ) :   0.9841 B(  4-C , 20-C ) :   0.9952
B(  6-C ,  7-H ) :   0.9375 B(  6-C ,  8-H ) :   0.9299 B(  6-C ,  9-C ) :   1.0764
B(  9-C , 10-H ) :   0.9538 B(  9-C , 11-H ) :   0.9489 B(  9-C , 12-C ) :   1.0777
B( 12-C , 13-H ) :   0.9720 B( 12-C , 14-H ) :   0.9755 B( 12-C , 15-H ) :   0.9755
B( 16-S , 17-C ) :   1.1858 B( 16-S , 20-C ) :   1.1625 B( 17-C , 18-C ) :   1.5916
B( 17-C , 33-H ) :   0.9672 B( 18-C , 19-C ) :   1.2677 B( 18-C , 21-H ) :   0.9936
B( 19-C , 20-C ) :   1.5806 B( 19-C , 22-C ) :   1.0492 B( 22-C , 23-H ) :   0.9168
B( 22-C , 24-H ) :   0.9281 B( 22-C , 25-C ) :   1.0422 B( 25-C , 26-H ) :   0.9592
B( 25-C , 27-H ) :   0.9512 B( 25-C , 28-C ) :   1.0863 B( 28-C , 29-H ) :   0.9723
B( 28-C , 30-H ) :   0.9746 B( 28-C , 31-H ) :   0.9704

Dispersion correction           -0.016014060
FINAL SINGLE POINT ENERGY     -1339.859799351449

DIPOLE MOMENT
-------------
                                X             Y             Z
Electronic contribution:     -9.81243      27.59643      -7.32568
Nuclear contribution   :      9.83556     -28.13752       7.32223
                        -----------------------------------------
Total Dipole Moment    :      0.02313      -0.54109      -0.00345
                        -----------------------------------------
Magnitude (a.u.)       :      0.54160
Magnitude (Debye)      :      1.37663

Rotational constants in cm-1:     0.020278     0.009479     0.007674
Rotational constants in MHz :   607.907828   284.168734   230.073466

                             ****ORCA TERMINATED NORMALLY****
TOTAL RUN TIME: 0 days 0 hours 0 minutes 23 seconds 58 msec
