                         Program Version 4.2.1 -  RELEASE  -
|  1> ! wB97X-D3 SP def2-SVP
|  2> %pal
|  3> nprocs 24
|  4> end
|  5>
|  6> * xyz 0 1
|  7> S 	 -48.4942 	 15.1986 	 -99.0268
|  8> C 	 -47.6613 	 13.6586 	 -99.1083
|  9> C 	 -47.9969 	 13.0352 	 -100.298
| 10> C 	 -49.0231 	 13.6464 	 -101.052
| 11> C 	 -49.4073 	 14.8389 	 -100.499
| 12> H 	 -49.4143 	 13.3149 	 -101.951
| 13> C 	 -47.3807 	 11.7146 	 -100.782
| 14> H 	 -46.5017 	 11.4653 	 -100.127
| 15> H 	 -46.8575 	 11.8761 	 -101.763
| 16> C 	 -48.2683 	 10.5065 	 -100.881
| 17> H 	 -49.2767 	 10.7742 	 -101.127
| 18> H 	 -47.9472 	 9.87553 	 -101.668
| 19> C 	 -48.421 	 9.56752 	 -99.6727
| 20> H 	 -47.5666 	 8.97761 	 -99.3659
| 21> H 	 -48.715 	 10.1749 	 -98.7791
| 22> H 	 -49.3384 	 8.95325 	 -99.9572
| 23> S 	 -51.2433 	 16.9438 	 -100.085
| 24> C 	 -52.1867 	 17.5186 	 -101.383
| 25> C 	 -51.8187 	 17.0569 	 -102.645
| 26> C 	 -50.9051 	 15.9586 	 -102.435
| 27> C 	 -50.4987 	 15.6855 	 -101.096
| 28> H 	 -52.253 	 17.2456 	 -103.537
| 29> C 	 -50.4216 	 15.19 	 -103.613
| 30> H 	 -49.4015 	 14.9513 	 -103.423
| 31> H 	 -50.5362 	 15.8016 	 -104.56
| 32> C 	 -51.2746 	 13.9759 	 -103.954
| 33> H 	 -52.3167 	 14.3126 	 -103.926
| 34> H 	 -51.1288 	 13.176 	 -103.18
| 35> C 	 -50.9535 	 13.432 	 -105.315
| 36> H 	 -51.6304 	 12.5894 	 -105.427
| 37> H 	 -49.9102 	 13.1542 	 -105.463
| 38> H 	 -51.4079 	 14.0772 	 -106.107
| 39> H 	 -46.8781 	 13.3127 	 -98.4452
| 40> H 	 -52.9841 	 18.2279 	 -101.268
| 41> *
| 42>
| 43>                          ****END OF INPUT****

CARTESIAN COORDINATES (ANGSTROEM)
---------------------------------
  S    -48.494200   15.198600  -99.026800
  C    -47.661300   13.658600  -99.108300
  C    -47.996900   13.035200  -100.298000
  C    -49.023100   13.646400  -101.052000
  C    -49.407300   14.838900  -100.499000
  H    -49.414300   13.314900  -101.951000
  C    -47.380700   11.714600  -100.782000
  H    -46.501700   11.465300  -100.127000
  H    -46.857500   11.876100  -101.763000
  C    -48.268300   10.506500  -100.881000
  H    -49.276700   10.774200  -101.127000
  H    -47.947200    9.875530  -101.668000
  C    -48.421000    9.567520  -99.672700
  H    -47.566600    8.977610  -99.365900
  H    -48.715000   10.174900  -98.779100
  H    -49.338400    8.953250  -99.957200
  S    -51.243300   16.943800  -100.085000
  C    -52.186700   17.518600  -101.383000
  C    -51.818700   17.056900  -102.645000
  C    -50.905100   15.958600  -102.435000
  C    -50.498700   15.685500  -101.096000
  H    -52.253000   17.245600  -103.537000
  C    -50.421600   15.190000  -103.613000
  H    -49.401500   14.951300  -103.423000
  H    -50.536200   15.801600  -104.560000
  C    -51.274600   13.975900  -103.954000
  H    -52.316700   14.312600  -103.926000
  H    -51.128800   13.176000  -103.180000
  C    -50.953500   13.432000  -105.315000
  H    -51.630400   12.589400  -105.427000
  H    -49.910200   13.154200  -105.463000
  H    -51.407900   14.077200  -106.107000
  H    -46.878100   13.312700  -98.445200
  H    -52.984100   18.227900  -101.268000

 Total Charge           Charge          ....    0
 Multiplicity           Mult            ....    1
 Number of Electrons    NEL             ....  134
 Basis Dimension        Dim             ....  322

ORBITAL ENERGIES
----------------

  NO   OCC          E(Eh)            E(eV)
   0   2.0000     -88.970137     -2421.0005
   1   2.0000     -88.967786     -2420.9365
   2   2.0000     -10.337599      -281.3004
   3   2.0000     -10.334213      -281.2082
   4   2.0000     -10.319806      -280.8162
   5   2.0000     -10.315580      -280.7012
   6   2.0000     -10.307185      -280.4728
   7   2.0000     -10.301135      -280.3081
   8   2.0000     -10.295060      -280.1428
   9   2.0000     -10.292390      -280.0702
  10   2.0000     -10.289049      -279.9793
  11   2.0000     -10.286568      -279.9118
  12   2.0000     -10.285681      -279.8876
  13   2.0000     -10.281912      -279.7850
  14   2.0000     -10.281087      -279.7626
  15   2.0000     -10.278582      -279.6944
  16   2.0000      -8.084250      -219.9836
  17   2.0000      -8.082832      -219.9451
  18   2.0000      -6.042918      -164.4362
  19   2.0000      -6.041268      -164.3913
  20   2.0000      -6.038932      -164.3277
  21   2.0000      -6.037251      -164.2819
  22   2.0000      -6.034785      -164.2148
  23   2.0000      -6.033721      -164.1859
  24   2.0000      -1.005435       -27.3593
  25   2.0000      -0.986750       -26.8508
  26   2.0000      -0.919565       -25.0226
  27   2.0000      -0.909341       -24.7444
  28   2.0000      -0.868143       -23.6234
  29   2.0000      -0.858600       -23.3637
  30   2.0000      -0.848730       -23.0951
  31   2.0000      -0.817900       -22.2562
  32   2.0000      -0.781832       -21.2747
  33   2.0000      -0.769808       -20.9475
  34   2.0000      -0.703743       -19.1498
  35   2.0000      -0.693551       -18.8725
  36   2.0000      -0.690418       -18.7872
  37   2.0000      -0.671218       -18.2648
  38   2.0000      -0.644773       -17.5452
  39   2.0000      -0.627782       -17.0828
  40   2.0000      -0.599997       -16.3267
  41   2.0000      -0.578758       -15.7488
  42   2.0000      -0.571379       -15.5480
  43   2.0000      -0.550010       -14.9665
  44   2.0000      -0.535158       -14.5624
  45   2.0000      -0.532444       -14.4885
  46   2.0000      -0.521964       -14.2034
  47   2.0000      -0.512905       -13.9569
  48   2.0000      -0.507289       -13.8040
  49   2.0000      -0.501676       -13.6513
  50   2.0000      -0.490506       -13.3474
  51   2.0000      -0.484471       -13.1831
  52   2.0000      -0.471834       -12.8393
  53   2.0000      -0.466189       -12.6856
  54   2.0000      -0.462810       -12.5937
  55   2.0000      -0.450618       -12.2619
  56   2.0000      -0.439843       -11.9687
  57   2.0000      -0.438509       -11.9324
  58   2.0000      -0.434563       -11.8251
  59   2.0000      -0.421179       -11.4609
  60   2.0000      -0.415421       -11.3042
  61   2.0000      -0.414652       -11.2833
  62   2.0000      -0.407092       -11.0775
  63   2.0000      -0.360060        -9.7977
  64   2.0000      -0.334795        -9.1102
  65   2.0000      -0.329442        -8.9646
  66   2.0000      -0.283595        -7.7170
  67   0.0000       0.022859         0.6220
  68   0.0000       0.075282         2.0485
  69   0.0000       0.102094         2.7781
  70   0.0000       0.122226         3.3259
  71   0.0000       0.125794         3.4230

MULLIKEN ATOMIC CHARGES
-----------------------
   0 S :    0.105810
   1 C :   -0.121578
   2 C :   -0.069335
   3 C :    0.033124
   4 C :   -0.081478
   5 H :   -0.047995
   6 C :    0.044694
   7 H :    0.013190
   8 H :    0.038936
   9 C :   -0.043319
  10 H :    0.018312
  11 H :    0.015770
  12 C :   -0.084041
  13 H :    0.039720
  14 H :    0.034518
  15 H :    0.043502
  16 S :    0.103021
  17 C :   -0.073178
  18 C :    0.043580
  19 C :   -0.093967
  20 C :   -0.124341
  21 H :   -0.020787
  22 C :    0.031030
  23 H :    0.026834
  24 H :    0.020227
  25 C :   -0.096913
  26 H :    0.024892
  27 H :    0.039442
  28 C :   -0.027094
  29 H :    0.024951
  30 H :    0.045289
  31 H :    0.032311
  32 H :    0.051879
  33 H :    0.052995
Sum of atomic charges:    0.0000000

LOEWDIN ATOMIC CHARGES
----------------------
   0 S :    0.393566
   1 C :   -0.201742
   2 C :   -0.059300
   3 C :   -0.064568
   4 C :   -0.169806
   5 H :    0.016355
   6 C :   -0.040826
   7 H :    0.030313
   8 H :    0.038220
   9 C :   -0.047333
  10 H :    0.022318
  11 H :    0.021184
  12 C :   -0.069975
  13 H :    0.019642
  14 H :    0.027272
  15 H :    0.037456
  16 S :    0.415392
  17 C :   -0.179031
  18 C :   -0.057696
  19 C :   -0.043839
  20 C :   -0.198603
  21 H :    0.013696
  22 C :   -0.041890
  23 H :    0.022506
  24 H :    0.035798
  25 C :   -0.043764
  26 H :    0.027039
  27 H :    0.022042
  28 C :   -0.069909
  29 H :    0.028831
  30 H :    0.027582
  31 H :    0.031138
  32 H :    0.032796
  33 H :    0.025137

  Mayer bond orders larger than 0.100000
B(  0-S ,  1-C ) :   1.1158 B(  0-S ,  4-C ) :   1.1457 B(  1-C ,  2-C ) :   1.6152
B(  1-C , 32-H ) :   0.9669 B(  2-C ,  3-C ) :   1.2332 B(  2-C ,  6-C ) :   1.0327
B(  3-C ,  4-C ) :   1.5575 B(  3-C ,  5-H ) :   1.0034 B(  4-C , 20-C ) :   1.0648
B(  6-C ,  7-H ) :   0.9435 B(  6-C ,  8-H ) :   0.9402 B(  6-C ,  9-C ) :   1.0591
B(  9-C , 10-H ) :   0.9607 B(  9-C , 11-H ) :   0.9500 B(  9-C , 12-C ) :   1.0826
B( 12-C , 13-H ) :   0.9762 B( 12-C , 14-H ) :   0.9764 B( 12-C , 15-H ) :   0.9747
B( 16-S , 17-C ) :   1.2038 B( 16-S , 20-C ) :   1.1123 B( 17-C , 18-C ) :   1.5508
B( 17-C , 33-H ) :   0.9659 B( 18-C , 19-C ) :   1.2784 B( 18-C , 21-H ) :   1.0030
B( 19-C , 20-C ) :   1.5465 B( 19-C , 22-C ) :   1.0680 B( 22-C , 23-H ) :   0.9211
B( 22-C , 24-H ) :   0.9355 B( 22-C , 25-C ) :   1.0641 B( 25-C , 26-H ) :   0.9476
B( 25-C , 27-H ) :   0.9453 B( 25-C , 28-C ) :   1.1008 B( 28-C , 29-H ) :   0.9680
B( 28-C , 30-H ) :   0.9716 B( 28-C , 31-H ) :   0.9672

Dispersion correction           -0.014085674
FINAL SINGLE POINT ENERGY     -1339.865196992609

DIPOLE MOMENT
-------------
                                X             Y             Z
Electronic contribution:     -1.62178      25.70291      17.79665
Nuclear contribution   :      1.54024     -26.05381     -18.47074
                        -----------------------------------------
Total Dipole Moment    :     -0.08154      -0.35091      -0.67409
                        -----------------------------------------
Magnitude (a.u.)       :      0.76431
Magnitude (Debye)      :      1.94273

Rotational constants in cm-1:     0.017326     0.009420     0.006592
Rotational constants in MHz :   519.427320   282.402256   197.608787

                             ****ORCA TERMINATED NORMALLY****
TOTAL RUN TIME: 0 days 0 hours 0 minutes 21 seconds 882 msec
