                         Program Version 4.2.1 -  RELEASE  -
|  1> ! wB97X-D3 SP def2-SVP
|  2> %pal
|  3> nprocs 24
|  4> end
|  5>
|  6> * xyz 0 1
|  7> S 	 -63.9976 	 -50.1159 	 -81.5196
|  8> C 	 -63.2072 	 -51.6403 	 -81.4957
|  9> C 	 -64.0782 	 -52.7129 	 -81.669
| 10> C 	 -65.3681 	 -52.2106 	 -81.9672
| 11> C 	 -65.4962 	 -50.8094 	 -82.034
| 12> H 	 -66.2735 	 -52.8064 	 -82.0873
| 13> C 	 -63.6844 	 -54.22 	 -81.6041
| 14> H 	 -62.5318 	 -54.342 	 -81.4511
| 15> H 	 -63.8404 	 -54.6203 	 -82.608
| 16> C 	 -64.3314 	 -55.0971 	 -80.5115
| 17> H 	 -64.2471 	 -54.7942 	 -79.4947
| 18> H 	 -65.4099 	 -55.2545 	 -80.6323
| 19> C 	 -63.6869 	 -56.5143 	 -80.4286
| 20> H 	 -62.7383 	 -56.4535 	 -79.8595
| 21> H 	 -64.3786 	 -57.1974 	 -79.8397
| 22> H 	 -63.275 	 -56.8702 	 -81.3993
| 23> S 	 -67.3938 	 -49.2025 	 -80.9608
| 24> C 	 -68.853 	 -48.8597 	 -81.8065
| 25> C 	 -68.6932 	 -49.2109 	 -83.1299
| 26> C 	 -67.4658 	 -49.8686 	 -83.4436
| 27> C 	 -66.6871 	 -50.0473 	 -82.3148
| 28> H 	 -69.4304 	 -48.9478 	 -83.8499
| 29> C 	 -67.2537 	 -50.5042 	 -84.8027
| 30> H 	 -66.22 	 -50.2547 	 -85.1132
| 31> H 	 -68.0251 	 -49.9862 	 -85.4237
| 32> C 	 -67.3727 	 -52.0698 	 -84.9095
| 33> H 	 -66.4992 	 -52.4584 	 -84.3576
| 34> H 	 -67.2647 	 -52.3909 	 -85.9575
| 35> C 	 -68.7232 	 -52.63 	 -84.4309
| 36> H 	 -68.8932 	 -52.542 	 -83.3667
| 37> H 	 -68.7297 	 -53.7405 	 -84.4499
| 38> H 	 -69.5445 	 -52.0889 	 -84.855
| 39> H 	 -62.2687 	 -51.9664 	 -81.0838
| 40> H 	 -69.6807 	 -48.3535 	 -81.29
| 41> *
| 42>
| 43>                          ****END OF INPUT****

CARTESIAN COORDINATES (ANGSTROEM)
---------------------------------
  S    -63.997600  -50.115900  -81.519600
  C    -63.207200  -51.640300  -81.495700
  C    -64.078200  -52.712900  -81.669000
  C    -65.368100  -52.210600  -81.967200
  C    -65.496200  -50.809400  -82.034000
  H    -66.273500  -52.806400  -82.087300
  C    -63.684400  -54.220000  -81.604100
  H    -62.531800  -54.342000  -81.451100
  H    -63.840400  -54.620300  -82.608000
  C    -64.331400  -55.097100  -80.511500
  H    -64.247100  -54.794200  -79.494700
  H    -65.409900  -55.254500  -80.632300
  C    -63.686900  -56.514300  -80.428600
  H    -62.738300  -56.453500  -79.859500
  H    -64.378600  -57.197400  -79.839700
  H    -63.275000  -56.870200  -81.399300
  S    -67.393800  -49.202500  -80.960800
  C    -68.853000  -48.859700  -81.806500
  C    -68.693200  -49.210900  -83.129900
  C    -67.465800  -49.868600  -83.443600
  C    -66.687100  -50.047300  -82.314800
  H    -69.430400  -48.947800  -83.849900
  C    -67.253700  -50.504200  -84.802700
  H    -66.220000  -50.254700  -85.113200
  H    -68.025100  -49.986200  -85.423700
  C    -67.372700  -52.069800  -84.909500
  H    -66.499200  -52.458400  -84.357600
  H    -67.264700  -52.390900  -85.957500
  C    -68.723200  -52.630000  -84.430900
  H    -68.893200  -52.542000  -83.366700
  H    -68.729700  -53.740500  -84.449900
  H    -69.544500  -52.088900  -84.855000
  H    -62.268700  -51.966400  -81.083800
  H    -69.680700  -48.353500  -81.290000

 Total Charge           Charge          ....    0
 Multiplicity           Mult            ....    1
 Number of Electrons    NEL             ....  134
 Basis Dimension        Dim             ....  322

ORBITAL ENERGIES
----------------

  NO   OCC          E(Eh)            E(eV)
   0   2.0000     -88.970680     -2421.0153
   1   2.0000     -88.961278     -2420.7595
   2   2.0000     -10.328564      -281.0545
   3   2.0000     -10.323450      -280.9153
   4   2.0000     -10.318800      -280.7888
   5   2.0000     -10.311672      -280.5949
   6   2.0000     -10.310590      -280.5654
   7   2.0000     -10.303839      -280.3817
   8   2.0000     -10.302476      -280.3446
   9   2.0000     -10.296489      -280.1817
  10   2.0000     -10.295494      -280.1546
  11   2.0000     -10.291947      -280.0581
  12   2.0000     -10.290137      -280.0089
  13   2.0000     -10.290007      -280.0053
  14   2.0000     -10.289538      -279.9926
  15   2.0000     -10.274805      -279.5917
  16   2.0000      -8.085789      -220.0255
  17   2.0000      -8.077141      -219.7902
  18   2.0000      -6.044197      -164.4710
  19   2.0000      -6.040173      -164.3615
  20   2.0000      -6.036691      -164.2667
  21   2.0000      -6.035519      -164.2348
  22   2.0000      -6.031364      -164.1217
  23   2.0000      -6.028090      -164.0327
  24   2.0000      -1.011761       -27.5314
  25   2.0000      -0.989619       -26.9289
  26   2.0000      -0.907009       -24.6810
  27   2.0000      -0.903070       -24.5738
  28   2.0000      -0.872515       -23.7423
  29   2.0000      -0.849175       -23.1072
  30   2.0000      -0.847453       -23.0604
  31   2.0000      -0.811856       -22.0917
  32   2.0000      -0.781483       -21.2652
  33   2.0000      -0.772284       -21.0149
  34   2.0000      -0.711133       -19.3509
  35   2.0000      -0.700117       -19.0512
  36   2.0000      -0.690458       -18.7883
  37   2.0000      -0.666758       -18.1434
  38   2.0000      -0.640024       -17.4159
  39   2.0000      -0.615873       -16.7588
  40   2.0000      -0.586667       -15.9640
  41   2.0000      -0.571421       -15.5492
  42   2.0000      -0.560947       -15.2641
  43   2.0000      -0.555798       -15.1240
  44   2.0000      -0.538820       -14.6620
  45   2.0000      -0.531576       -14.4649
  46   2.0000      -0.518017       -14.0960
  47   2.0000      -0.510618       -13.8946
  48   2.0000      -0.504312       -13.7230
  49   2.0000      -0.487864       -13.2755
  50   2.0000      -0.487198       -13.2573
  51   2.0000      -0.480852       -13.0846
  52   2.0000      -0.475373       -12.9355
  53   2.0000      -0.467606       -12.7242
  54   2.0000      -0.456686       -12.4271
  55   2.0000      -0.449442       -12.2299
  56   2.0000      -0.438341       -11.9279
  57   2.0000      -0.436738       -11.8842
  58   2.0000      -0.432169       -11.7599
  59   2.0000      -0.426201       -11.5975
  60   2.0000      -0.423843       -11.5334
  61   2.0000      -0.411563       -11.1992
  62   2.0000      -0.409180       -11.1343
  63   2.0000      -0.338747        -9.2178
  64   2.0000      -0.332778        -9.0554
  65   2.0000      -0.326675        -8.8893
  66   2.0000      -0.300432        -8.1752
  67   0.0000       0.036032         0.9805
  68   0.0000       0.056730         1.5437
  69   0.0000       0.116756         3.1771
  70   0.0000       0.122864         3.3433
  71   0.0000       0.131854         3.5879

MULLIKEN ATOMIC CHARGES
-----------------------
   0 S :    0.139153
   1 C :   -0.084951
   2 C :   -0.100808
   3 C :    0.047214
   4 C :   -0.187888
   5 H :    0.017220
   6 C :    0.023862
   7 H :    0.030639
   8 H :    0.046608
   9 C :   -0.050016
  10 H :    0.028192
  11 H :    0.032962
  12 C :   -0.102574
  13 H :    0.029887
  14 H :    0.053798
  15 H :    0.033616
  16 S :    0.106450
  17 C :   -0.102508
  18 C :   -0.038910
  19 C :   -0.013447
  20 C :   -0.191617
  21 H :    0.009164
  22 C :    0.059653
  23 H :    0.041612
  24 H :    0.024684
  25 C :   -0.069750
  26 H :    0.032256
  27 H :    0.036165
  28 C :   -0.045787
  29 H :    0.021965
  30 H :    0.034456
  31 H :    0.029685
  32 H :    0.037014
  33 H :    0.072004
Sum of atomic charges:    0.0000000

LOEWDIN ATOMIC CHARGES
----------------------
   0 S :    0.440015
   1 C :   -0.213502
   2 C :   -0.067835
   3 C :   -0.059630
   4 C :   -0.215278
   5 H :    0.030060
   6 C :   -0.033336
   7 H :    0.038496
   8 H :    0.035090
   9 C :   -0.046063
  10 H :    0.024572
  11 H :    0.023426
  12 C :   -0.075855
  13 H :    0.023762
  14 H :    0.036858
  15 H :    0.024689
  16 S :    0.420527
  17 C :   -0.191802
  18 C :   -0.075034
  19 C :   -0.055945
  20 C :   -0.207420
  21 H :    0.024941
  22 C :   -0.031261
  23 H :    0.038184
  24 H :    0.030806
  25 C :   -0.039732
  26 H :    0.024916
  27 H :    0.027536
  28 C :   -0.075339
  29 H :    0.023142
  30 H :    0.032912
  31 H :    0.023620
  32 H :    0.028849
  33 H :    0.035631

  Mayer bond orders larger than 0.100000
B(  0-S ,  1-C ) :   1.1617 B(  0-S ,  4-C ) :   1.1652 B(  1-C ,  2-C ) :   1.5995
B(  1-C ,  4-C ) :   0.1062 B(  1-C , 32-H ) :   0.9549 B(  2-C ,  3-C ) :   1.2821
B(  2-C ,  6-C ) :   1.0109 B(  3-C ,  4-C ) :   1.5470 B(  3-C ,  5-H ) :   0.9852
B(  4-C , 20-C ) :   1.0373 B(  6-C ,  7-H ) :   0.9483 B(  6-C ,  8-H ) :   0.9410
B(  6-C ,  9-C ) :   1.0544 B(  9-C , 10-H ) :   0.9600 B(  9-C , 11-H ) :   0.9598
B(  9-C , 12-C ) :   1.0682 B( 12-C , 13-H ) :   0.9771 B( 12-C , 14-H ) :   0.9744
B( 12-C , 15-H ) :   0.9755 B( 16-S , 17-C ) :   1.1741 B( 16-S , 20-C ) :   1.1612
B( 17-C , 18-C ) :   1.5714 B( 17-C , 20-C ) :   0.1029 B( 17-C , 33-H ) :   0.9699
B( 18-C , 19-C ) :   1.2542 B( 18-C , 21-H ) :   0.9938 B( 19-C , 20-C ) :   1.5715
B( 19-C , 22-C ) :   1.0436 B( 22-C , 23-H ) :   0.9292 B( 22-C , 24-H ) :   0.9373
B( 22-C , 25-C ) :   1.0704 B( 25-C , 26-H ) :   0.9496 B( 25-C , 27-H ) :   0.9543
B( 25-C , 28-C ) :   1.0736 B( 28-C , 29-H ) :   0.9687 B( 28-C , 30-H ) :   0.9715
B( 28-C , 31-H ) :   0.9750

Dispersion correction           -0.014863393
FINAL SINGLE POINT ENERGY     -1339.870959675688

DIPOLE MOMENT
-------------
                                X             Y             Z
Electronic contribution:      1.48468      27.57612       7.64396
Nuclear contribution   :     -1.69027     -28.11516      -7.71111
                        -----------------------------------------
Total Dipole Moment    :     -0.20559      -0.53904      -0.06715
                        -----------------------------------------
Magnitude (a.u.)       :      0.58081
Magnitude (Debye)      :      1.47629

Rotational constants in cm-1:     0.019422     0.008352     0.006986
Rotational constants in MHz :   582.265245   250.387365   209.422761

                             ****ORCA TERMINATED NORMALLY****
TOTAL RUN TIME: 0 days 0 hours 0 minutes 21 seconds 919 msec
