                         Program Version 4.2.1 -  RELEASE  -
|  1> ! wB97X-D3 SP def2-SVP
|  2> %pal
|  3> nprocs 24
|  4> end
|  5>
|  6> * xyz 0 1
|  7> S 	 -98.4905 	 1.0888 	 -119.421
|  8> C 	 -99.2176 	 1.01831 	 -121.013
|  9> C 	 -100.444 	 1.61041 	 -121.032
| 10> C 	 -100.852 	 2.11276 	 -119.772
| 11> C 	 -99.9376 	 1.93221 	 -118.729
| 12> H 	 -101.682 	 2.69984 	 -119.601
| 13> C 	 -101.297 	 1.72702 	 -122.274
| 14> H 	 -100.705 	 1.41883 	 -123.096
| 15> H 	 -101.597 	 2.73973 	 -122.433
| 16> C 	 -102.494 	 0.718168 	 -122.266
| 17> H 	 -103.295 	 0.989097 	 -121.619
| 18> H 	 -102.727 	 0.814345 	 -123.334
| 19> C 	 -102.281 	 -0.757238 	 -122.049
| 20> H 	 -101.423 	 -1.12129 	 -122.686
| 21> H 	 -102.123 	 -1.08497 	 -121.027
| 22> H 	 -103.153 	 -1.27423 	 -122.375
| 23> S 	 -98.5891 	 2.98383 	 -116.67
| 24> C 	 -99.3697 	 3.52968 	 -115.167
| 25> C 	 -100.708 	 3.17119 	 -115.273
| 26> C 	 -101.094 	 2.56989 	 -116.557
| 27> C 	 -100.037 	 2.31029 	 -117.352
| 28> H 	 -101.325 	 3.582 	 -114.475
| 29> C 	 -102.568 	 2.46972 	 -116.822
| 30> H 	 -103.03 	 1.94994 	 -115.983
| 31> H 	 -102.685 	 1.87251 	 -117.735
| 32> C 	 -103.069 	 3.85379 	 -116.967
| 33> H 	 -102.675 	 4.35453 	 -117.826
| 34> H 	 -102.855 	 4.42027 	 -116.082
| 35> C 	 -104.64 	 3.75507 	 -117.111
| 36> H 	 -104.912 	 3.39401 	 -118.083
| 37> H 	 -105.111 	 4.65541 	 -117.189
| 38> H 	 -105.168 	 3.19782 	 -116.291
| 39> H 	 -98.8208 	 0.488513 	 -121.804
| 40> H 	 -98.9443 	 4.15772 	 -114.405
| 41> *
| 42>
| 43>                          ****END OF INPUT****

CARTESIAN COORDINATES (ANGSTROEM)
---------------------------------
  S    -98.490500    1.088800  -119.421000
  C    -99.217600    1.018310  -121.013000
  C    -100.444000    1.610410  -121.032000
  C    -100.852000    2.112760  -119.772000
  C    -99.937600    1.932210  -118.729000
  H    -101.682000    2.699840  -119.601000
  C    -101.297000    1.727020  -122.274000
  H    -100.705000    1.418830  -123.096000
  H    -101.597000    2.739730  -122.433000
  C    -102.494000    0.718168  -122.266000
  H    -103.295000    0.989097  -121.619000
  H    -102.727000    0.814345  -123.334000
  C    -102.281000   -0.757238  -122.049000
  H    -101.423000   -1.121290  -122.686000
  H    -102.123000   -1.084970  -121.027000
  H    -103.153000   -1.274230  -122.375000
  S    -98.589100    2.983830  -116.670000
  C    -99.369700    3.529680  -115.167000
  C    -100.708000    3.171190  -115.273000
  C    -101.094000    2.569890  -116.557000
  C    -100.037000    2.310290  -117.352000
  H    -101.325000    3.582000  -114.475000
  C    -102.568000    2.469720  -116.822000
  H    -103.030000    1.949940  -115.983000
  H    -102.685000    1.872510  -117.735000
  C    -103.069000    3.853790  -116.967000
  H    -102.675000    4.354530  -117.826000
  H    -102.855000    4.420270  -116.082000
  C    -104.640000    3.755070  -117.111000
  H    -104.912000    3.394010  -118.083000
  H    -105.111000    4.655410  -117.189000
  H    -105.168000    3.197820  -116.291000
  H    -98.820800    0.488513  -121.804000
  H    -98.944300    4.157720  -114.405000

 Total Charge           Charge          ....    0
 Multiplicity           Mult            ....    1
 Number of Electrons    NEL             ....  134
 Basis Dimension        Dim             ....  322

ORBITAL ENERGIES
----------------

  NO   OCC          E(Eh)            E(eV)
   0   2.0000     -88.963560     -2420.8215
   1   2.0000     -88.958481     -2420.6833
   2   2.0000     -10.335754      -281.2502
   3   2.0000     -10.323617      -280.9199
   4   2.0000     -10.322193      -280.8811
   5   2.0000     -10.306135      -280.4442
   6   2.0000     -10.302949      -280.3575
   7   2.0000     -10.298237      -280.2293
   8   2.0000     -10.294733      -280.1339
   9   2.0000     -10.289849      -280.0010
  10   2.0000     -10.289369      -279.9880
  11   2.0000     -10.288902      -279.9753
  12   2.0000     -10.286597      -279.9125
  13   2.0000     -10.284852      -279.8650
  14   2.0000     -10.276344      -279.6335
  15   2.0000     -10.273852      -279.5657
  16   2.0000      -8.077381      -219.7967
  17   2.0000      -8.073559      -219.6927
  18   2.0000      -6.036066      -164.2497
  19   2.0000      -6.032318      -164.1477
  20   2.0000      -6.031996      -164.1390
  21   2.0000      -6.028023      -164.0309
  22   2.0000      -6.027973      -164.0295
  23   2.0000      -6.024026      -163.9221
  24   2.0000      -1.007761       -27.4226
  25   2.0000      -0.982291       -26.7295
  26   2.0000      -0.921741       -25.0819
  27   2.0000      -0.911874       -24.8134
  28   2.0000      -0.875428       -23.8216
  29   2.0000      -0.850386       -23.1402
  30   2.0000      -0.841860       -22.9082
  31   2.0000      -0.820562       -22.3286
  32   2.0000      -0.784309       -21.3421
  33   2.0000      -0.778319       -21.1791
  34   2.0000      -0.715378       -19.4664
  35   2.0000      -0.705448       -19.1962
  36   2.0000      -0.693710       -18.8768
  37   2.0000      -0.667719       -18.1696
  38   2.0000      -0.645830       -17.5739
  39   2.0000      -0.626039       -17.0354
  40   2.0000      -0.597269       -16.2525
  41   2.0000      -0.577597       -15.7172
  42   2.0000      -0.570188       -15.5156
  43   2.0000      -0.561906       -15.2902
  44   2.0000      -0.538945       -14.6654
  45   2.0000      -0.526778       -14.3343
  46   2.0000      -0.524406       -14.2698
  47   2.0000      -0.519647       -14.1403
  48   2.0000      -0.509884       -13.8747
  49   2.0000      -0.503185       -13.6924
  50   2.0000      -0.491300       -13.3690
  51   2.0000      -0.481163       -13.0931
  52   2.0000      -0.469902       -12.7867
  53   2.0000      -0.465359       -12.6630
  54   2.0000      -0.462294       -12.5797
  55   2.0000      -0.452058       -12.3011
  56   2.0000      -0.447070       -12.1654
  57   2.0000      -0.436337       -11.8733
  58   2.0000      -0.435012       -11.8373
  59   2.0000      -0.427221       -11.6253
  60   2.0000      -0.426971       -11.6185
  61   2.0000      -0.407479       -11.0881
  62   2.0000      -0.402523       -10.9532
  63   2.0000      -0.360771        -9.8171
  64   2.0000      -0.329596        -8.9688
  65   2.0000      -0.322963        -8.7883
  66   2.0000      -0.288113        -7.8400
  67   0.0000       0.025237         0.6867
  68   0.0000       0.075458         2.0533
  69   0.0000       0.106053         2.8858
  70   0.0000       0.125788         3.4229
  71   0.0000       0.128325         3.4919

MULLIKEN ATOMIC CHARGES
-----------------------
   0 S :    0.094818
   1 C :   -0.092568
   2 C :   -0.087288
   3 C :    0.036879
   4 C :   -0.140953
   5 H :   -0.030725
   6 C :    0.124692
   7 H :   -0.003374
   8 H :    0.030218
   9 C :   -0.091176
  10 H :    0.028866
  11 H :    0.029396
  12 C :   -0.042866
  13 H :    0.022540
  14 H :    0.041045
  15 H :    0.028907
  16 S :    0.070632
  17 C :   -0.092513
  18 C :   -0.052017
  19 C :   -0.095259
  20 C :   -0.061712
  21 H :    0.029718
  22 C :    0.086878
  23 H :    0.030744
  24 H :    0.021483
  25 C :   -0.071485
  26 H :    0.031720
  27 H :    0.029403
  28 C :   -0.007554
  29 H :    0.011871
  30 H :   -0.000564
  31 H :    0.039805
  32 H :    0.017411
  33 H :    0.063028
Sum of atomic charges:    0.0000000

LOEWDIN ATOMIC CHARGES
----------------------
   0 S :    0.376068
   1 C :   -0.182283
   2 C :   -0.063326
   3 C :   -0.059886
   4 C :   -0.162404
   5 H :    0.014565
   6 C :   -0.020052
   7 H :    0.023589
   8 H :    0.031112
   9 C :   -0.038912
  10 H :    0.017816
  11 H :    0.029611
  12 C :   -0.064940
  13 H :    0.027108
  14 H :    0.025231
  15 H :    0.025781
  16 S :    0.388300
  17 C :   -0.171011
  18 C :   -0.073097
  19 C :   -0.054137
  20 C :   -0.203173
  21 H :    0.031329
  22 C :   -0.029485
  23 H :    0.034177
  24 H :    0.029301
  25 C :   -0.025400
  26 H :    0.024583
  27 H :    0.022712
  28 C :   -0.064453
  29 H :    0.022542
  30 H :    0.010289
  31 H :    0.032169
  32 H :    0.013535
  33 H :    0.032740

  Mayer bond orders larger than 0.100000
B(  0-S ,  1-C ) :   1.1251 B(  0-S ,  4-C ) :   1.1337 B(  1-C ,  2-C ) :   1.6209
B(  1-C , 32-H ) :   0.9728 B(  2-C ,  3-C ) :   1.2345 B(  2-C ,  6-C ) :   1.0377
B(  3-C ,  4-C ) :   1.5728 B(  3-C ,  5-H ) :   1.0001 B(  4-C , 20-C ) :   1.0616
B(  6-C ,  7-H ) :   0.9327 B(  6-C ,  8-H ) :   0.9396 B(  6-C ,  9-C ) :   1.0588
B(  9-C , 10-H ) :   0.9597 B(  9-C , 11-H ) :   0.9601 B(  9-C , 12-C ) :   1.0886
B( 12-C , 13-H ) :   0.9720 B( 12-C , 14-H ) :   0.9718 B( 12-C , 15-H ) :   0.9702
B( 16-S , 17-C ) :   1.1384 B( 16-S , 20-C ) :   1.1106 B( 17-C , 18-C ) :   1.6393
B( 17-C , 33-H ) :   0.9714 B( 18-C , 19-C ) :   1.1888 B( 18-C , 21-H ) :   0.9839
B( 19-C , 20-C ) :   1.6446 B( 19-C , 22-C ) :   1.0464 B( 22-C , 23-H ) :   0.9293
B( 22-C , 24-H ) :   0.9304 B( 22-C , 25-C ) :   1.0739 B( 25-C , 26-H ) :   0.9501
B( 25-C , 27-H ) :   0.9542 B( 25-C , 28-C ) :   1.0830 B( 28-C , 29-H ) :   0.9693
B( 28-C , 30-H ) :   0.9691 B( 28-C , 31-H ) :   0.9753

Dispersion correction           -0.014479683
FINAL SINGLE POINT ENERGY     -1339.859595025933

DIPOLE MOMENT
-------------
                                X             Y             Z
Electronic contribution:     27.74698       1.03228      10.41587
Nuclear contribution   :    -28.59946      -0.69856     -10.60722
                        -----------------------------------------
Total Dipole Moment    :     -0.85248       0.33372      -0.19135
                        -----------------------------------------
Magnitude (a.u.)       :      0.93526
Magnitude (Debye)      :      2.37724

Rotational constants in cm-1:     0.018026     0.009674     0.006745
Rotational constants in MHz :   540.397005   290.009877   202.198579

                             ****ORCA TERMINATED NORMALLY****
TOTAL RUN TIME: 0 days 0 hours 0 minutes 22 seconds 218 msec
