                         Program Version 4.2.1 -  RELEASE  -
|  1> ! wB97X-D3 SP def2-SVP
|  2> %pal
|  3> nprocs 24
|  4> end
|  5>
|  6> * xyz 0 1
|  7> S 	 27.0842 	 -6.15877 	 -113.585
|  8> C 	 27.1815 	 -7.97757 	 -113.823
|  9> C 	 25.9759 	 -8.34029 	 -114.489
| 10> C 	 24.9473 	 -7.2917 	 -114.322
| 11> C 	 25.4197 	 -6.08993 	 -113.858
| 12> H 	 23.8709 	 -7.34304 	 -114.39
| 13> C 	 25.6169 	 -9.72454 	 -115.045
| 14> H 	 24.5257 	 -9.68414 	 -115.288
| 15> H 	 25.6777 	 -10.5372 	 -114.348
| 16> C 	 26.491 	 -10.1535 	 -116.175
| 17> H 	 27.5422 	 -10.2321 	 -115.914
| 18> H 	 25.9838 	 -11.0812 	 -116.666
| 19> C 	 26.4885 	 -9.115 	 -117.345
| 20> H 	 25.4028 	 -8.928 	 -117.481
| 21> H 	 26.8933 	 -8.13526 	 -117.174
| 22> H 	 26.925 	 -9.39176 	 -118.299
| 23> S 	 25.1663 	 -3.35752 	 -114.197
| 24> C 	 23.8512 	 -2.62752 	 -113.466
| 25> C 	 23.0549 	 -3.42835 	 -112.679
| 26> C 	 23.4309 	 -4.80907 	 -112.866
| 27> C 	 24.6412 	 -4.90977 	 -113.564
| 28> H 	 22.1391 	 -3.0923 	 -112.199
| 29> C 	 22.6669 	 -5.94502 	 -112.242
| 30> H 	 22.6329 	 -5.67237 	 -111.189
| 31> H 	 23.272 	 -6.87939 	 -112.238
| 32> C 	 21.302 	 -6.1321 	 -112.914
| 33> H 	 21.451 	 -6.29474 	 -114.023
| 34> H 	 20.7138 	 -5.24231 	 -112.764
| 35> C 	 20.3883 	 -7.32307 	 -112.486
| 36> H 	 19.7385 	 -7.50219 	 -113.313
| 37> H 	 19.6911 	 -7.01008 	 -111.703
| 38> H 	 20.9401 	 -8.13402 	 -112.084
| 39> H 	 28.0652 	 -8.51084 	 -113.806
| 40> H 	 23.6811 	 -1.56976 	 -113.58
| 41> *
| 42>
| 43>                          ****END OF INPUT****

CARTESIAN COORDINATES (ANGSTROEM)
---------------------------------
  S     27.084200   -6.158770  -113.585000
  C     27.181500   -7.977570  -113.823000
  C     25.975900   -8.340290  -114.489000
  C     24.947300   -7.291700  -114.322000
  C     25.419700   -6.089930  -113.858000
  H     23.870900   -7.343040  -114.390000
  C     25.616900   -9.724540  -115.045000
  H     24.525700   -9.684140  -115.288000
  H     25.677700  -10.537200  -114.348000
  C     26.491000  -10.153500  -116.175000
  H     27.542200  -10.232100  -115.914000
  H     25.983800  -11.081200  -116.666000
  C     26.488500   -9.115000  -117.345000
  H     25.402800   -8.928000  -117.481000
  H     26.893300   -8.135260  -117.174000
  H     26.925000   -9.391760  -118.299000
  S     25.166300   -3.357520  -114.197000
  C     23.851200   -2.627520  -113.466000
  C     23.054900   -3.428350  -112.679000
  C     23.430900   -4.809070  -112.866000
  C     24.641200   -4.909770  -113.564000
  H     22.139100   -3.092300  -112.199000
  C     22.666900   -5.945020  -112.242000
  H     22.632900   -5.672370  -111.189000
  H     23.272000   -6.879390  -112.238000
  C     21.302000   -6.132100  -112.914000
  H     21.451000   -6.294740  -114.023000
  H     20.713800   -5.242310  -112.764000
  C     20.388300   -7.323070  -112.486000
  H     19.738500   -7.502190  -113.313000
  H     19.691100   -7.010080  -111.703000
  H     20.940100   -8.134020  -112.084000
  H     28.065200   -8.510840  -113.806000
  H     23.681100   -1.569760  -113.580000

 Total Charge           Charge          ....    0
 Multiplicity           Mult            ....    1
 Number of Electrons    NEL             ....  134
 Basis Dimension        Dim             ....  322

ORBITAL ENERGIES
----------------

  NO   OCC          E(Eh)            E(eV)
   0   2.0000     -88.968363     -2420.9522
   1   2.0000     -88.961047     -2420.7532
   2   2.0000     -10.323962      -280.9293
   3   2.0000     -10.322152      -280.8800
   4   2.0000     -10.319853      -280.8175
   5   2.0000     -10.316675      -280.7310
   6   2.0000     -10.313226      -280.6371
   7   2.0000     -10.305957      -280.4393
   8   2.0000     -10.295020      -280.1417
   9   2.0000     -10.294905      -280.1386
  10   2.0000     -10.294568      -280.1294
  11   2.0000     -10.293726      -280.1065
  12   2.0000     -10.292655      -280.0774
  13   2.0000     -10.292479      -280.0726
  14   2.0000     -10.275880      -279.6209
  15   2.0000     -10.269773      -279.4547
  16   2.0000      -8.084694      -219.9957
  17   2.0000      -8.075931      -219.7572
  18   2.0000      -6.042978      -164.4378
  19   2.0000      -6.039030      -164.3304
  20   2.0000      -6.035550      -164.2357
  21   2.0000      -6.034543      -164.2083
  22   2.0000      -6.030459      -164.0971
  23   2.0000      -6.026500      -163.9894
  24   2.0000      -1.011684       -27.5293
  25   2.0000      -0.983031       -26.7496
  26   2.0000      -0.916127       -24.9291
  27   2.0000      -0.911852       -24.8127
  28   2.0000      -0.866121       -23.5683
  29   2.0000      -0.856290       -23.3008
  30   2.0000      -0.835413       -22.7328
  31   2.0000      -0.811513       -22.0824
  32   2.0000      -0.788209       -21.4482
  33   2.0000      -0.777128       -21.1467
  34   2.0000      -0.704347       -19.1662
  35   2.0000      -0.702085       -19.1047
  36   2.0000      -0.690672       -18.7941
  37   2.0000      -0.661174       -17.9914
  38   2.0000      -0.643323       -17.5057
  39   2.0000      -0.610676       -16.6173
  40   2.0000      -0.597109       -16.2482
  41   2.0000      -0.575834       -15.6692
  42   2.0000      -0.564452       -15.3595
  43   2.0000      -0.555090       -15.1048
  44   2.0000      -0.541202       -14.7268
  45   2.0000      -0.538025       -14.6404
  46   2.0000      -0.519359       -14.1325
  47   2.0000      -0.516167       -14.0456
  48   2.0000      -0.504731       -13.7344
  49   2.0000      -0.496469       -13.5096
  50   2.0000      -0.489956       -13.3324
  51   2.0000      -0.472590       -12.8598
  52   2.0000      -0.468884       -12.7590
  53   2.0000      -0.467252       -12.7146
  54   2.0000      -0.458910       -12.4876
  55   2.0000      -0.454181       -12.3589
  56   2.0000      -0.446911       -12.1611
  57   2.0000      -0.440816       -11.9952
  58   2.0000      -0.427722       -11.6389
  59   2.0000      -0.424017       -11.5381
  60   2.0000      -0.414795       -11.2871
  61   2.0000      -0.410392       -11.1673
  62   2.0000      -0.405492       -11.0340
  63   2.0000      -0.347751        -9.4628
  64   2.0000      -0.334279        -9.0962
  65   2.0000      -0.324070        -8.8184
  66   2.0000      -0.290036        -7.8923
  67   0.0000       0.032680         0.8893
  68   0.0000       0.064826         1.7640
  69   0.0000       0.106122         2.8877
  70   0.0000       0.116960         3.1826
  71   0.0000       0.122962         3.3460

MULLIKEN ATOMIC CHARGES
-----------------------
   0 S :    0.084865
   1 C :   -0.092068
   2 C :   -0.094688
   3 C :    0.015558
   4 C :   -0.137835
   5 H :    0.001872
   6 C :    0.076514
   7 H :    0.028194
   8 H :    0.036842
   9 C :   -0.099350
  10 H :    0.040631
  11 H :    0.050420
  12 C :   -0.070885
  13 H :    0.014167
  14 H :    0.036683
  15 H :    0.032627
  16 S :    0.133511
  17 C :   -0.084471
  18 C :   -0.020931
  19 C :   -0.061557
  20 C :   -0.154003
  21 H :    0.023845
  22 C :    0.059818
  23 H :    0.033264
  24 H :    0.034292
  25 C :   -0.123861
  26 H :    0.043660
  27 H :    0.027265
  28 C :   -0.004973
  29 H :    0.031355
  30 H :    0.022954
  31 H :    0.029076
  32 H :    0.033957
  33 H :    0.053250
Sum of atomic charges:    0.0000000

LOEWDIN ATOMIC CHARGES
----------------------
   0 S :    0.392466
   1 C :   -0.167296
   2 C :   -0.041530
   3 C :   -0.078000
   4 C :   -0.208593
   5 H :    0.027270
   6 C :   -0.040299
   7 H :    0.035266
   8 H :    0.032947
   9 C :   -0.043130
  10 H :    0.023140
  11 H :    0.041243
  12 C :   -0.076870
  13 H :    0.024407
  14 H :    0.021551
  15 H :    0.022289
  16 S :    0.437730
  17 C :   -0.197923
  18 C :   -0.073958
  19 C :   -0.042329
  20 C :   -0.206288
  21 H :    0.033187
  22 C :   -0.039913
  23 H :    0.034418
  24 H :    0.033048
  25 C :   -0.042541
  26 H :    0.030100
  27 H :    0.021651
  28 C :   -0.061603
  29 H :    0.026961
  30 H :    0.026000
  31 H :    0.020565
  32 H :    0.010819
  33 H :    0.025215

  Mayer bond orders larger than 0.100000
B(  0-S ,  1-C ) :   1.1112 B(  0-S ,  4-C ) :   1.1567 B(  1-C ,  2-C ) :   1.6061
B(  1-C , 32-H ) :   0.9828 B(  2-C ,  3-C ) :   1.1932 B(  2-C ,  6-C ) :   1.0115
B(  3-C ,  4-C ) :   1.6020 B(  3-C ,  5-H ) :   0.9915 B(  4-C , 20-C ) :   1.0322
B(  6-C ,  7-H ) :   0.9427 B(  6-C ,  8-H ) :   0.9409 B(  6-C ,  9-C ) :   1.0710
B(  9-C , 10-H ) :   0.9592 B(  9-C , 11-H ) :   0.9558 B(  9-C , 12-C ) :   1.0635
B( 12-C , 13-H ) :   0.9769 B( 12-C , 14-H ) :   0.9715 B( 12-C , 15-H ) :   0.9783
B( 16-S , 17-C ) :   1.1870 B( 16-S , 20-C ) :   1.1391 B( 17-C , 18-C ) :   1.5971
B( 17-C , 33-H ) :   0.9645 B( 18-C , 19-C ) :   1.2424 B( 18-C , 21-H ) :   0.9865
B( 19-C , 20-C ) :   1.5954 B( 19-C , 22-C ) :   1.0458 B( 22-C , 23-H ) :   0.9318
B( 22-C , 24-H ) :   0.9333 B( 22-C , 25-C ) :   1.0526 B( 25-C , 26-H ) :   0.9622
B( 25-C , 27-H ) :   0.9580 B( 25-C , 28-C ) :   1.0768 B( 28-C , 29-H ) :   0.9763
B( 28-C , 30-H ) :   0.9759 B( 28-C , 31-H ) :   0.9763

Dispersion correction           -0.014444960
FINAL SINGLE POINT ENERGY     -1339.855344888880

DIPOLE MOMENT
-------------
                                X             Y             Z
Electronic contribution:     15.56435      20.87396       4.97871
Nuclear contribution   :    -16.16938     -21.16954      -4.94330
                        -----------------------------------------
Total Dipole Moment    :     -0.60503      -0.29558       0.03541
                        -----------------------------------------
Magnitude (a.u.)       :      0.67430
Magnitude (Debye)      :      1.71394

Rotational constants in cm-1:     0.017902     0.008979     0.006801
Rotational constants in MHz :   536.695645   269.189796   203.889460

                             ****ORCA TERMINATED NORMALLY****
TOTAL RUN TIME: 0 days 0 hours 0 minutes 21 seconds 890 msec
