                         Program Version 4.2.1 -  RELEASE  -
|  1> ! wB97X-D3 SP def2-SVP
|  2> %pal
|  3> nprocs 24
|  4> end
|  5>
|  6> * xyz 0 1
|  7> S 	 -83.1987 	 -34.041 	 -79.8947
|  8> C 	 -83.0051 	 -34.1934 	 -81.6084
|  9> C 	 -83.9123 	 -33.4083 	 -82.3253
| 10> C 	 -84.8972 	 -32.8576 	 -81.4566
| 11> C 	 -84.6326 	 -33.0577 	 -80.1243
| 12> H 	 -85.8254 	 -32.3314 	 -81.7398
| 13> C 	 -83.8732 	 -33.1778 	 -83.8129
| 14> H 	 -84.8575 	 -33.2881 	 -84.2706
| 15> H 	 -83.312 	 -34.0236 	 -84.1707
| 16> C 	 -83.2901 	 -31.8581 	 -84.3492
| 17> H 	 -82.967 	 -31.9373 	 -85.376
| 18> H 	 -84.0936 	 -31.1429 	 -84.375
| 19> C 	 -81.9943 	 -31.3573 	 -83.6476
| 20> H 	 -82.3737 	 -31.1048 	 -82.6368
| 21> H 	 -81.1291 	 -32.0117 	 -83.6886
| 22> H 	 -81.6315 	 -30.4534 	 -84.1038
| 23> S 	 -86.5733 	 -33.4539 	 -78.1258
| 24> C 	 -86.9761 	 -31.981 	 -77.0786
| 25> C 	 -86.309 	 -30.8916 	 -77.5267
| 26> C 	 -85.4455 	 -31.1426 	 -78.6372
| 27> C 	 -85.3692 	 -32.519 	 -79.0114
| 28> H 	 -86.4341 	 -29.9138 	 -77.0472
| 29> C 	 -84.773 	 -29.9662 	 -79.2984
| 30> H 	 -84.0818 	 -30.3299 	 -80.0111
| 31> H 	 -84.2285 	 -29.3792 	 -78.5257
| 32> C 	 -85.8799 	 -29.03 	 -79.8511
| 33> H 	 -86.6157 	 -28.6739 	 -79.08
| 34> H 	 -86.5676 	 -29.4858 	 -80.6343
| 35> C 	 -85.1855 	 -27.8803 	 -80.5814
| 36> H 	 -84.6868 	 -27.08 	 -79.9794
| 37> H 	 -86.0185 	 -27.3303 	 -80.9868
| 38> H 	 -84.5653 	 -28.2247 	 -81.4215
| 39> H 	 -82.1617 	 -34.7759 	 -82.0109
| 40> H 	 -87.5065 	 -31.8656 	 -76.1394
| 41> *
| 42>
| 43>                          ****END OF INPUT****

CARTESIAN COORDINATES (ANGSTROEM)
---------------------------------
  S    -83.198700  -34.041000  -79.894700
  C    -83.005100  -34.193400  -81.608400
  C    -83.912300  -33.408300  -82.325300
  C    -84.897200  -32.857600  -81.456600
  C    -84.632600  -33.057700  -80.124300
  H    -85.825400  -32.331400  -81.739800
  C    -83.873200  -33.177800  -83.812900
  H    -84.857500  -33.288100  -84.270600
  H    -83.312000  -34.023600  -84.170700
  C    -83.290100  -31.858100  -84.349200
  H    -82.967000  -31.937300  -85.376000
  H    -84.093600  -31.142900  -84.375000
  C    -81.994300  -31.357300  -83.647600
  H    -82.373700  -31.104800  -82.636800
  H    -81.129100  -32.011700  -83.688600
  H    -81.631500  -30.453400  -84.103800
  S    -86.573300  -33.453900  -78.125800
  C    -86.976100  -31.981000  -77.078600
  C    -86.309000  -30.891600  -77.526700
  C    -85.445500  -31.142600  -78.637200
  C    -85.369200  -32.519000  -79.011400
  H    -86.434100  -29.913800  -77.047200
  C    -84.773000  -29.966200  -79.298400
  H    -84.081800  -30.329900  -80.011100
  H    -84.228500  -29.379200  -78.525700
  C    -85.879900  -29.030000  -79.851100
  H    -86.615700  -28.673900  -79.080000
  H    -86.567600  -29.485800  -80.634300
  C    -85.185500  -27.880300  -80.581400
  H    -84.686800  -27.080000  -79.979400
  H    -86.018500  -27.330300  -80.986800
  H    -84.565300  -28.224700  -81.421500
  H    -82.161700  -34.775900  -82.010900
  H    -87.506500  -31.865600  -76.139400

 Total Charge           Charge          ....    0
 Multiplicity           Mult            ....    1
 Number of Electrons    NEL             ....  134
 Basis Dimension        Dim             ....  322

ORBITAL ENERGIES
----------------

  NO   OCC          E(Eh)            E(eV)
   0   2.0000     -88.965910     -2420.8855
   1   2.0000     -88.965367     -2420.8707
   2   2.0000     -10.325915      -280.9824
   3   2.0000     -10.324114      -280.9334
   4   2.0000     -10.320367      -280.8315
   5   2.0000     -10.317463      -280.7525
   6   2.0000     -10.302788      -280.3531
   7   2.0000     -10.302255      -280.3386
   8   2.0000     -10.297596      -280.2118
   9   2.0000     -10.295203      -280.1467
  10   2.0000     -10.291010      -280.0326
  11   2.0000     -10.289848      -280.0010
  12   2.0000     -10.289595      -279.9941
  13   2.0000     -10.286122      -279.8996
  14   2.0000     -10.278768      -279.6995
  15   2.0000     -10.276960      -279.6503
  16   2.0000      -8.081056      -219.8967
  17   2.0000      -8.078126      -219.8170
  18   2.0000      -6.039339      -164.3388
  19   2.0000      -6.036976      -164.2745
  20   2.0000      -6.035537      -164.2353
  21   2.0000      -6.032985      -164.1659
  22   2.0000      -6.031993      -164.1389
  23   2.0000      -6.028548      -164.0451
  24   2.0000      -1.003252       -27.2999
  25   2.0000      -0.976396       -26.5691
  26   2.0000      -0.910442       -24.7744
  27   2.0000      -0.906360       -24.6633
  28   2.0000      -0.870209       -23.6796
  29   2.0000      -0.848794       -23.0968
  30   2.0000      -0.843440       -22.9512
  31   2.0000      -0.816344       -22.2139
  32   2.0000      -0.784452       -21.3460
  33   2.0000      -0.762331       -20.7441
  34   2.0000      -0.708276       -19.2732
  35   2.0000      -0.695907       -18.9366
  36   2.0000      -0.694448       -18.8969
  37   2.0000      -0.651979       -17.7412
  38   2.0000      -0.643882       -17.5209
  39   2.0000      -0.615619       -16.7518
  40   2.0000      -0.589232       -16.0338
  41   2.0000      -0.565051       -15.3758
  42   2.0000      -0.561031       -15.2664
  43   2.0000      -0.555234       -15.1087
  44   2.0000      -0.545440       -14.8422
  45   2.0000      -0.527690       -14.3592
  46   2.0000      -0.516240       -14.0476
  47   2.0000      -0.510009       -13.8781
  48   2.0000      -0.508748       -13.8437
  49   2.0000      -0.494604       -13.4589
  50   2.0000      -0.484257       -13.1773
  51   2.0000      -0.478691       -13.0259
  52   2.0000      -0.471404       -12.8275
  53   2.0000      -0.463048       -12.6002
  54   2.0000      -0.454501       -12.3676
  55   2.0000      -0.447814       -12.1856
  56   2.0000      -0.442141       -12.0313
  57   2.0000      -0.438035       -11.9195
  58   2.0000      -0.435742       -11.8571
  59   2.0000      -0.426308       -11.6004
  60   2.0000      -0.419496       -11.4151
  61   2.0000      -0.409197       -11.1348
  62   2.0000      -0.407801       -11.0968
  63   2.0000      -0.340363        -9.2618
  64   2.0000      -0.331914        -9.0318
  65   2.0000      -0.316002        -8.5989
  66   2.0000      -0.301185        -8.1956
  67   0.0000       0.036128         0.9831
  68   0.0000       0.058539         1.5929
  69   0.0000       0.107740         2.9317
  70   0.0000       0.118356         3.2206
  71   0.0000       0.120977         3.2919

MULLIKEN ATOMIC CHARGES
-----------------------
   0 S :    0.124597
   1 C :   -0.130484
   2 C :   -0.113219
   3 C :    0.037970
   4 C :   -0.202080
   5 H :    0.025404
   6 C :    0.106015
   7 H :    0.027378
   8 H :    0.008477
   9 C :   -0.074708
  10 H :    0.025004
  11 H :    0.023063
  12 C :   -0.053569
  13 H :    0.047590
  14 H :    0.035913
  15 H :    0.023511
  16 S :    0.098013
  17 C :   -0.083758
  18 C :   -0.044185
  19 C :   -0.035177
  20 C :   -0.156327
  21 H :    0.029698
  22 C :    0.118012
  23 H :    0.021604
  24 H :    0.033658
  25 C :   -0.150378
  26 H :    0.042026
  27 H :    0.039448
  28 C :   -0.037299
  29 H :    0.038817
  30 H :    0.018062
  31 H :    0.041673
  32 H :    0.060440
  33 H :    0.054811
Sum of atomic charges:    0.0000000

LOEWDIN ATOMIC CHARGES
----------------------
   0 S :    0.418515
   1 C :   -0.199991
   2 C :   -0.068292
   3 C :   -0.057938
   4 C :   -0.203446
   5 H :    0.039026
   6 C :   -0.033075
   7 H :    0.033411
   8 H :    0.027983
   9 C :   -0.038945
  10 H :    0.023923
  11 H :    0.020146
  12 C :   -0.065333
  13 H :    0.029467
  14 H :    0.025289
  15 H :    0.022603
  16 S :    0.361775
  17 C :   -0.160687
  18 C :   -0.072956
  19 C :   -0.046181
  20 C :   -0.212723
  21 H :    0.035575
  22 C :   -0.027748
  23 H :    0.023720
  24 H :    0.037629
  25 C :   -0.044015
  26 H :    0.028722
  27 H :    0.031322
  28 C :   -0.074808
  29 H :    0.028226
  30 H :    0.023369
  31 H :    0.028669
  32 H :    0.030744
  33 H :    0.036025

  Mayer bond orders larger than 0.100000
B(  0-S ,  1-C ) :   1.1599 B(  0-S ,  4-C ) :   1.1550 B(  1-C ,  2-C ) :   1.5890
B(  1-C , 32-H ) :   0.9644 B(  2-C ,  3-C ) :   1.2297 B(  2-C ,  6-C ) :   1.0328
B(  3-C ,  4-C ) :   1.5850 B(  3-C ,  5-H ) :   0.9952 B(  4-C , 20-C ) :   1.0354
B(  6-C ,  7-H ) :   0.9421 B(  6-C ,  8-H ) :   0.9316 B(  6-C ,  9-C ) :   1.0643
B(  9-C , 10-H ) :   0.9568 B(  9-C , 11-H ) :   0.9590 B(  9-C , 12-C ) :   1.0777
B( 12-C , 13-H ) :   0.9726 B( 12-C , 14-H ) :   0.9766 B( 12-C , 15-H ) :   0.9731
B( 16-S , 17-C ) :   1.1162 B( 16-S , 20-C ) :   1.1189 B( 17-C , 18-C ) :   1.6647
B( 17-C , 33-H ) :   0.9595 B( 18-C , 19-C ) :   1.2199 B( 18-C , 21-H ) :   0.9776
B( 19-C , 20-C ) :   1.5957 B( 19-C , 22-C ) :   1.0579 B( 22-C , 23-H ) :   0.9322
B( 22-C , 24-H ) :   0.9314 B( 22-C , 25-C ) :   1.0480 B( 25-C , 26-H ) :   0.9539
B( 25-C , 27-H ) :   0.9553 B( 25-C , 28-C ) :   1.0853 B( 28-C , 29-H ) :   0.9726
B( 28-C , 30-H ) :   0.9714 B( 28-C , 31-H ) :   0.9729

Dispersion correction           -0.015157338
FINAL SINGLE POINT ENERGY     -1339.870783011498

DIPOLE MOMENT
-------------
                                X             Y             Z
Electronic contribution:     -5.38350     -22.86905      19.17120
Nuclear contribution   :      5.43025      23.56761     -19.61132
                        -----------------------------------------
Total Dipole Moment    :      0.04675       0.69856      -0.44011
                        -----------------------------------------
Magnitude (a.u.)       :      0.82696
Magnitude (Debye)      :      2.10197

Rotational constants in cm-1:     0.017612     0.009954     0.007136
Rotational constants in MHz :   527.997515   298.422353   213.940669

                             ****ORCA TERMINATED NORMALLY****
TOTAL RUN TIME: 0 days 0 hours 0 minutes 22 seconds 263 msec
