                         Program Version 4.2.1 -  RELEASE  -
|  1> ! wB97X-D3 SP def2-SVP
|  2> %pal
|  3> nprocs 24
|  4> end
|  5>
|  6> * xyz 0 1
|  7> S 	 -145.747 	 4.35625 	 13.8594
|  8> C 	 -145.376 	 3.72549 	 12.2167
|  9> C 	 -144.023 	 3.74233 	 11.9891
| 10> C 	 -143.35 	 4.2444 	 13.1301
| 11> C 	 -144.051 	 4.64809 	 14.2552
| 12> H 	 -142.269 	 4.54817 	 13.2344
| 13> C 	 -143.362 	 3.29345 	 10.6532
| 14> H 	 -142.412 	 2.89185 	 10.9626
| 15> H 	 -143.175 	 4.11537 	 9.88928
| 16> C 	 -144.026 	 2.04666 	 10.0131
| 17> H 	 -144.24 	 1.38011 	 10.7285
| 18> H 	 -144.889 	 2.5832 	 9.64396
| 19> C 	 -143.17 	 1.44892 	 8.86446
| 20> H 	 -143.8 	 0.895579 	 8.20503
| 21> H 	 -142.74 	 2.21592 	 8.19387
| 22> H 	 -142.349 	 0.908535 	 9.25333
| 23> S 	 -142.643 	 3.87299 	 16.6202
| 24> C 	 -142.375 	 5.1556 	 17.7221
| 25> C 	 -143.211 	 6.24338 	 17.5237
| 26> C 	 -143.875 	 6.13746 	 16.3268
| 27> C 	 -143.584 	 5.00406 	 15.6011
| 28> H 	 -143.271 	 7.01098 	 18.24
| 29> C 	 -144.95 	 7.2201 	 16.0541
| 30> H 	 -145.262 	 7.56522 	 17.0575
| 31> H 	 -145.839 	 6.81099 	 15.5698
| 32> C 	 -144.368 	 8.37756 	 15.2565
| 33> H 	 -143.984 	 8.05624 	 14.2397
| 34> H 	 -143.486 	 8.63511 	 15.9157
| 35> C 	 -145.277 	 9.57867 	 14.9715
| 36> H 	 -145.397 	 10.0308 	 15.9169
| 37> H 	 -146.234 	 9.32286 	 14.4845
| 38> H 	 -144.776 	 10.4197 	 14.4425
| 39> H 	 -146.1 	 3.34242 	 11.534
| 40> H 	 -141.924 	 5.15922 	 18.7242
| 41> *
| 42>
| 43>                          ****END OF INPUT****

CARTESIAN COORDINATES (ANGSTROEM)
---------------------------------
  S    -145.747000    4.356250   13.859400
  C    -145.376000    3.725490   12.216700
  C    -144.023000    3.742330   11.989100
  C    -143.350000    4.244400   13.130100
  C    -144.051000    4.648090   14.255200
  H    -142.269000    4.548170   13.234400
  C    -143.362000    3.293450   10.653200
  H    -142.412000    2.891850   10.962600
  H    -143.175000    4.115370    9.889280
  C    -144.026000    2.046660   10.013100
  H    -144.240000    1.380110   10.728500
  H    -144.889000    2.583200    9.643960
  C    -143.170000    1.448920    8.864460
  H    -143.800000    0.895579    8.205030
  H    -142.740000    2.215920    8.193870
  H    -142.349000    0.908535    9.253330
  S    -142.643000    3.872990   16.620200
  C    -142.375000    5.155600   17.722100
  C    -143.211000    6.243380   17.523700
  C    -143.875000    6.137460   16.326800
  C    -143.584000    5.004060   15.601100
  H    -143.271000    7.010980   18.240000
  C    -144.950000    7.220100   16.054100
  H    -145.262000    7.565220   17.057500
  H    -145.839000    6.810990   15.569800
  C    -144.368000    8.377560   15.256500
  H    -143.984000    8.056240   14.239700
  H    -143.486000    8.635110   15.915700
  C    -145.277000    9.578670   14.971500
  H    -145.397000   10.030800   15.916900
  H    -146.234000    9.322860   14.484500
  H    -144.776000   10.419700   14.442500
  H    -146.100000    3.342420   11.534000
  H    -141.924000    5.159220   18.724200

 Total Charge           Charge          ....    0
 Multiplicity           Mult            ....    1
 Number of Electrons    NEL             ....  134
 Basis Dimension        Dim             ....  322

ORBITAL ENERGIES
----------------

  NO   OCC          E(Eh)            E(eV)
   0   2.0000     -88.974421     -2421.1171
   1   2.0000     -88.961378     -2420.7622
   2   2.0000     -10.330546      -281.1084
   3   2.0000     -10.329594      -281.0825
   4   2.0000     -10.316800      -280.7344
   5   2.0000     -10.316640      -280.7301
   6   2.0000     -10.304467      -280.3988
   7   2.0000     -10.299164      -280.2545
   8   2.0000     -10.297651      -280.2133
   9   2.0000     -10.295793      -280.1628
  10   2.0000     -10.293014      -280.0871
  11   2.0000     -10.289119      -279.9812
  12   2.0000     -10.285036      -279.8701
  13   2.0000     -10.279673      -279.7241
  14   2.0000     -10.278190      -279.6838
  15   2.0000     -10.275256      -279.6039
  16   2.0000      -8.088654      -220.1035
  17   2.0000      -8.075104      -219.7348
  18   2.0000      -6.047034      -164.5482
  19   2.0000      -6.043460      -164.4509
  20   2.0000      -6.039325      -164.3384
  21   2.0000      -6.033696      -164.1852
  22   2.0000      -6.029636      -164.0747
  23   2.0000      -6.025935      -163.9740
  24   2.0000      -1.008249       -27.4359
  25   2.0000      -0.985072       -26.8052
  26   2.0000      -0.911798       -24.8113
  27   2.0000      -0.907742       -24.7009
  28   2.0000      -0.869280       -23.6543
  29   2.0000      -0.854739       -23.2586
  30   2.0000      -0.838270       -22.8105
  31   2.0000      -0.813123       -22.1262
  32   2.0000      -0.785585       -21.3769
  33   2.0000      -0.774623       -21.0786
  34   2.0000      -0.711822       -19.3697
  35   2.0000      -0.702011       -19.1027
  36   2.0000      -0.683203       -18.5909
  37   2.0000      -0.665796       -18.1172
  38   2.0000      -0.638067       -17.3627
  39   2.0000      -0.608978       -16.5711
  40   2.0000      -0.593951       -16.1622
  41   2.0000      -0.579859       -15.7788
  42   2.0000      -0.570367       -15.5205
  43   2.0000      -0.563450       -15.3322
  44   2.0000      -0.520582       -14.1658
  45   2.0000      -0.518287       -14.1033
  46   2.0000      -0.513769       -13.9804
  47   2.0000      -0.511967       -13.9313
  48   2.0000      -0.508182       -13.8283
  49   2.0000      -0.503864       -13.7108
  50   2.0000      -0.496461       -13.5094
  51   2.0000      -0.480690       -13.0803
  52   2.0000      -0.474531       -12.9126
  53   2.0000      -0.470658       -12.8073
  54   2.0000      -0.462257       -12.5787
  55   2.0000      -0.448040       -12.1918
  56   2.0000      -0.444974       -12.1084
  57   2.0000      -0.434573       -11.8253
  58   2.0000      -0.429903       -11.6983
  59   2.0000      -0.419999       -11.4288
  60   2.0000      -0.412639       -11.2285
  61   2.0000      -0.407819       -11.0973
  62   2.0000      -0.402616       -10.9557
  63   2.0000      -0.339407        -9.2357
  64   2.0000      -0.337732        -9.1902
  65   2.0000      -0.328446        -8.9375
  66   2.0000      -0.298299        -8.1171
  67   0.0000       0.028058         0.7635
  68   0.0000       0.057465         1.5637
  69   0.0000       0.100429         2.7328
  70   0.0000       0.117997         3.2109
  71   0.0000       0.132649         3.6096

MULLIKEN ATOMIC CHARGES
-----------------------
   0 S :    0.083777
   1 C :   -0.131850
   2 C :   -0.056410
   3 C :   -0.013638
   4 C :   -0.168239
   5 H :    0.031029
   6 C :    0.040566
   7 H :    0.012224
   8 H :    0.061733
   9 C :   -0.075430
  10 H :    0.015783
  11 H :    0.029934
  12 C :   -0.013955
  13 H :    0.030260
  14 H :    0.022691
  15 H :    0.033848
  16 S :    0.149074
  17 C :   -0.077168
  18 C :   -0.055602
  19 C :   -0.001545
  20 C :   -0.175811
  21 H :    0.003461
  22 C :    0.086991
  23 H :    0.020291
  24 H :    0.019572
  25 C :   -0.125582
  26 H :    0.045799
  27 H :    0.026442
  28 C :   -0.013523
  29 H :    0.007184
  30 H :    0.047436
  31 H :    0.036147
  32 H :    0.046044
  33 H :    0.058468
Sum of atomic charges:    0.0000000

LOEWDIN ATOMIC CHARGES
----------------------
   0 S :    0.376944
   1 C :   -0.171525
   2 C :   -0.071097
   3 C :   -0.074576
   4 C :   -0.193466
   5 H :    0.039499
   6 C :   -0.028421
   7 H :    0.022005
   8 H :    0.040017
   9 C :   -0.028268
  10 H :    0.008583
  11 H :    0.022715
  12 C :   -0.056039
  13 H :    0.025101
  14 H :    0.029415
  15 H :    0.021995
  16 S :    0.425415
  17 C :   -0.197049
  18 C :   -0.071771
  19 C :   -0.046253
  20 C :   -0.199984
  21 H :    0.025027
  22 C :   -0.024853
  23 H :    0.030094
  24 H :    0.019263
  25 C :   -0.049646
  26 H :    0.029507
  27 H :    0.027607
  28 C :   -0.071658
  29 H :    0.017103
  30 H :    0.030518
  31 H :    0.033207
  32 H :    0.023878
  33 H :    0.036710

  Mayer bond orders larger than 0.100000
B(  0-S ,  1-C ) :   1.1459 B(  0-S ,  4-C ) :   1.1259 B(  1-C ,  2-C ) :   1.5983
B(  1-C ,  4-C ) :   0.1007 B(  1-C , 32-H ) :   0.9721 B(  2-C ,  3-C ) :   1.2486
B(  2-C ,  6-C ) :   0.9933 B(  3-C ,  4-C ) :   1.6003 B(  3-C ,  5-H ) :   0.9858
B(  4-C , 20-C ) :   1.0552 B(  6-C ,  7-H ) :   0.9470 B(  6-C ,  8-H ) :   0.9440
B(  6-C ,  9-C ) :   1.0554 B(  9-C , 10-H ) :   0.9654 B(  9-C , 11-H ) :   0.9557
B(  9-C , 12-C ) :   1.0845 B( 12-C , 13-H ) :   0.9738 B( 12-C , 14-H ) :   0.9723
B( 12-C , 15-H ) :   0.9761 B( 16-S , 17-C ) :   1.1801 B( 16-S , 20-C ) :   1.1334
B( 17-C , 18-C ) :   1.5837 B( 17-C , 20-C ) :   0.1007 B( 17-C , 33-H ) :   0.9550
B( 18-C , 19-C ) :   1.2889 B( 18-C , 21-H ) :   0.9937 B( 19-C , 20-C ) :   1.5673
B( 19-C , 22-C ) :   1.0215 B( 22-C , 23-H ) :   0.9418 B( 22-C , 24-H ) :   0.9327
B( 22-C , 25-C ) :   1.0545 B( 25-C , 26-H ) :   0.9585 B( 25-C , 27-H ) :   0.9560
B( 25-C , 28-C ) :   1.0798 B( 28-C , 29-H ) :   0.9702 B( 28-C , 30-H ) :   0.9729
B( 28-C , 31-H ) :   0.9716

Dispersion correction           -0.013610783
FINAL SINGLE POINT ENERGY     -1339.843602672928

DIPOLE MOMENT
-------------
                                X             Y             Z
Electronic contribution:      0.18563      -8.12206      17.85592
Nuclear contribution   :     -0.08519       8.29618     -17.98790
                        -----------------------------------------
Total Dipole Moment    :      0.10045       0.17412      -0.13198
                        -----------------------------------------
Magnitude (a.u.)       :      0.24047
Magnitude (Debye)      :      0.61124

Rotational constants in cm-1:     0.021010     0.007105     0.005925
Rotational constants in MHz :   629.868733   212.990789   177.639932

                             ****ORCA TERMINATED NORMALLY****
TOTAL RUN TIME: 0 days 0 hours 0 minutes 20 seconds 698 msec
