                         Program Version 4.2.1 -  RELEASE  -
|  1> ! wB97X-D3 SP def2-SVP
|  2> %pal
|  3> nprocs 24
|  4> end
|  5>
|  6> * xyz 0 1
|  7> S 	 -64.6239 	 18.2581 	 -113.862
|  8> C 	 -65.4195 	 16.7522 	 -113.42
|  9> C 	 -66.607 	 16.9495 	 -112.666
| 10> C 	 -66.7444 	 18.3688 	 -112.305
| 11> C 	 -65.6636 	 19.1329 	 -112.81
| 12> H 	 -67.3948 	 18.8334 	 -111.598
| 13> C 	 -67.56 	 15.7758 	 -112.267
| 14> H 	 -67.4926 	 15.0154 	 -113.061
| 15> H 	 -68.5824 	 16.152 	 -112.136
| 16> C 	 -67.3665 	 15.1174 	 -110.864
| 17> H 	 -66.3135 	 14.8002 	 -110.869
| 18> H 	 -67.495 	 15.8928 	 -110.099
| 19> C 	 -68.3686 	 13.9543 	 -110.588
| 20> H 	 -68.0475 	 13.0867 	 -111.168
| 21> H 	 -68.1841 	 13.5501 	 -109.606
| 22> H 	 -69.4052 	 14.2923 	 -110.695
| 23> S 	 -66.0422 	 21.4416 	 -114.29
| 24> C 	 -65.5635 	 22.9569 	 -113.641
| 25> C 	 -65.264 	 22.86 	 -112.311
| 26> C 	 -65.2311 	 21.5057 	 -111.851
| 27> C 	 -65.5835 	 20.6015 	 -112.843
| 28> H 	 -64.9688 	 23.6513 	 -111.675
| 29> C 	 -64.7055 	 21.1597 	 -110.538
| 30> H 	 -64.5485 	 22.1541 	 -109.974
| 31> H 	 -63.6501 	 20.7671 	 -110.668
| 32> C 	 -65.4948 	 20.2345 	 -109.667
| 33> H 	 -65.4453 	 19.3155 	 -110.164
| 34> H 	 -66.5532 	 20.5174 	 -109.73
| 35> C 	 -65.113 	 20.2901 	 -108.163
| 36> H 	 -64.0506 	 20.1519 	 -108.063
| 37> H 	 -65.6586 	 19.5386 	 -107.598
| 38> H 	 -65.449 	 21.1952 	 -107.657
| 39> H 	 -65.2216 	 15.7582 	 -113.765
| 40> H 	 -65.5858 	 23.8602 	 -114.297
| 41> *
| 42>
| 43>                          ****END OF INPUT****

CARTESIAN COORDINATES (ANGSTROEM)
---------------------------------
  S    -64.623900   18.258100  -113.862000
  C    -65.419500   16.752200  -113.420000
  C    -66.607000   16.949500  -112.666000
  C    -66.744400   18.368800  -112.305000
  C    -65.663600   19.132900  -112.810000
  H    -67.394800   18.833400  -111.598000
  C    -67.560000   15.775800  -112.267000
  H    -67.492600   15.015400  -113.061000
  H    -68.582400   16.152000  -112.136000
  C    -67.366500   15.117400  -110.864000
  H    -66.313500   14.800200  -110.869000
  H    -67.495000   15.892800  -110.099000
  C    -68.368600   13.954300  -110.588000
  H    -68.047500   13.086700  -111.168000
  H    -68.184100   13.550100  -109.606000
  H    -69.405200   14.292300  -110.695000
  S    -66.042200   21.441600  -114.290000
  C    -65.563500   22.956900  -113.641000
  C    -65.264000   22.860000  -112.311000
  C    -65.231100   21.505700  -111.851000
  C    -65.583500   20.601500  -112.843000
  H    -64.968800   23.651300  -111.675000
  C    -64.705500   21.159700  -110.538000
  H    -64.548500   22.154100  -109.974000
  H    -63.650100   20.767100  -110.668000
  C    -65.494800   20.234500  -109.667000
  H    -65.445300   19.315500  -110.164000
  H    -66.553200   20.517400  -109.730000
  C    -65.113000   20.290100  -108.163000
  H    -64.050600   20.151900  -108.063000
  H    -65.658600   19.538600  -107.598000
  H    -65.449000   21.195200  -107.657000
  H    -65.221600   15.758200  -113.765000
  H    -65.585800   23.860200  -114.297000

 Total Charge           Charge          ....    0
 Multiplicity           Mult            ....    1
 Number of Electrons    NEL             ....  134
 Basis Dimension        Dim             ....  322

ORBITAL ENERGIES
----------------

  NO   OCC          E(Eh)            E(eV)
   0   2.0000     -88.972259     -2421.0582
   1   2.0000     -88.961612     -2420.7685
   2   2.0000     -10.329736      -281.0864
   3   2.0000     -10.319306      -280.8026
   4   2.0000     -10.317189      -280.7450
   5   2.0000     -10.316731      -280.7325
   6   2.0000     -10.314359      -280.6680
   7   2.0000     -10.302578      -280.3474
   8   2.0000     -10.300241      -280.2838
   9   2.0000     -10.294822      -280.1364
  10   2.0000     -10.291496      -280.0459
  11   2.0000     -10.289598      -279.9942
  12   2.0000     -10.288198      -279.9561
  13   2.0000     -10.283619      -279.8315
  14   2.0000     -10.276926      -279.6494
  15   2.0000     -10.275617      -279.6138
  16   2.0000      -8.086873      -220.0550
  17   2.0000      -8.077504      -219.8001
  18   2.0000      -6.045250      -164.4996
  19   2.0000      -6.041360      -164.3938
  20   2.0000      -6.037809      -164.2971
  21   2.0000      -6.035910      -164.2455
  22   2.0000      -6.031757      -164.1324
  23   2.0000      -6.028407      -164.0413
  24   2.0000      -1.008592       -27.4452
  25   2.0000      -0.982375       -26.7318
  26   2.0000      -0.914093       -24.8737
  27   2.0000      -0.904929       -24.6244
  28   2.0000      -0.865532       -23.5523
  29   2.0000      -0.851489       -23.1702
  30   2.0000      -0.845713       -23.0130
  31   2.0000      -0.811573       -22.0840
  32   2.0000      -0.782955       -21.3053
  33   2.0000      -0.770244       -20.9594
  34   2.0000      -0.709510       -19.3068
  35   2.0000      -0.696329       -18.9481
  36   2.0000      -0.684612       -18.6292
  37   2.0000      -0.663940       -18.0667
  38   2.0000      -0.642942       -17.4953
  39   2.0000      -0.609735       -16.5917
  40   2.0000      -0.598652       -16.2901
  41   2.0000      -0.577672       -15.7193
  42   2.0000      -0.563366       -15.3300
  43   2.0000      -0.558765       -15.2048
  44   2.0000      -0.527463       -14.3530
  45   2.0000      -0.520628       -14.1670
  46   2.0000      -0.514189       -13.9918
  47   2.0000      -0.508316       -13.8320
  48   2.0000      -0.503684       -13.7059
  49   2.0000      -0.496884       -13.5209
  50   2.0000      -0.490382       -13.3440
  51   2.0000      -0.477431       -12.9915
  52   2.0000      -0.472215       -12.8496
  53   2.0000      -0.468585       -12.7508
  54   2.0000      -0.461107       -12.5474
  55   2.0000      -0.451482       -12.2854
  56   2.0000      -0.449725       -12.2376
  57   2.0000      -0.434939       -11.8353
  58   2.0000      -0.432409       -11.7665
  59   2.0000      -0.426820       -11.6144
  60   2.0000      -0.421633       -11.4732
  61   2.0000      -0.415623       -11.3097
  62   2.0000      -0.407485       -11.0882
  63   2.0000      -0.337470        -9.1830
  64   2.0000      -0.326214        -8.8767
  65   2.0000      -0.324279        -8.8241
  66   2.0000      -0.301831        -8.2132
  67   0.0000       0.036812         1.0017
  68   0.0000       0.059792         1.6270
  69   0.0000       0.106201         2.8899
  70   0.0000       0.124503         3.3879
  71   0.0000       0.127663         3.4739

MULLIKEN ATOMIC CHARGES
-----------------------
   0 S :    0.135488
   1 C :   -0.092792
   2 C :   -0.102308
   3 C :    0.075439
   4 C :   -0.206043
   5 H :    0.012002
   6 C :    0.041291
   7 H :    0.031399
   8 H :    0.024296
   9 C :   -0.096790
  10 H :    0.027532
  11 H :    0.031389
  12 C :   -0.031639
  13 H :    0.030429
  14 H :    0.028457
  15 H :    0.046966
  16 S :    0.119495
  17 C :   -0.109887
  18 C :    0.003146
  19 C :   -0.039788
  20 C :   -0.175667
  21 H :    0.001279
  22 C :    0.029370
  23 H :    0.012943
  24 H :    0.049505
  25 C :   -0.085521
  26 H :    0.039963
  27 H :    0.022293
  28 C :   -0.019661
  29 H :    0.032189
  30 H :    0.026462
  31 H :    0.029760
  32 H :    0.033666
  33 H :    0.075335
Sum of atomic charges:    0.0000000

LOEWDIN ATOMIC CHARGES
----------------------
   0 S :    0.431912
   1 C :   -0.200630
   2 C :   -0.054182
   3 C :   -0.049910
   4 C :   -0.212438
   5 H :    0.027575
   6 C :   -0.034944
   7 H :    0.029603
   8 H :    0.030660
   9 C :   -0.040991
  10 H :    0.021626
  11 H :    0.021721
  12 C :   -0.066443
  13 H :    0.028915
  14 H :    0.027545
  15 H :    0.029128
  16 S :    0.425004
  17 C :   -0.195279
  18 C :   -0.068567
  19 C :   -0.060457
  20 C :   -0.219368
  21 H :    0.025084
  22 C :   -0.042657
  23 H :    0.031434
  24 H :    0.042069
  25 C :   -0.043859
  26 H :    0.017401
  27 H :    0.023125
  28 C :   -0.059353
  29 H :    0.022782
  30 H :    0.027055
  31 H :    0.026728
  32 H :    0.022196
  33 H :    0.037515

  Mayer bond orders larger than 0.100000
B(  0-S ,  1-C ) :   1.1446 B(  0-S ,  4-C ) :   1.1751 B(  1-C ,  2-C ) :   1.6054
B(  1-C , 32-H ) :   0.9677 B(  2-C ,  3-C ) :   1.2348 B(  2-C ,  6-C ) :   1.0266
B(  3-C ,  4-C ) :   1.5593 B(  3-C ,  5-H ) :   0.9925 B(  4-C , 20-C ) :   1.0080
B(  6-C ,  7-H ) :   0.9460 B(  6-C ,  8-H ) :   0.9436 B(  6-C ,  9-C ) :   1.0525
B(  9-C , 10-H ) :   0.9577 B(  9-C , 11-H ) :   0.9599 B(  9-C , 12-C ) :   1.0776
B( 12-C , 13-H ) :   0.9735 B( 12-C , 14-H ) :   0.9718 B( 12-C , 15-H ) :   0.9746
B( 16-S , 17-C ) :   1.1762 B( 16-S , 20-C ) :   1.1538 B( 17-C , 18-C ) :   1.5667
B( 17-C , 33-H ) :   0.9633 B( 18-C , 19-C ) :   1.2741 B( 18-C , 21-H ) :   0.9972
B( 19-C , 20-C ) :   1.5826 B( 19-C , 22-C ) :   1.0603 B( 22-C , 23-H ) :   0.9345
B( 22-C , 24-H ) :   0.9177 B( 22-C , 25-C ) :   1.0550 B( 25-C , 26-H ) :   0.9492
B( 25-C , 27-H ) :   0.9557 B( 25-C , 28-C ) :   1.0835 B( 28-C , 29-H ) :   0.9752
B( 28-C , 30-H ) :   0.9730 B( 28-C , 31-H ) :   0.9729

Dispersion correction           -0.014178670
FINAL SINGLE POINT ENERGY     -1339.873815260809

DIPOLE MOMENT
-------------
                                X             Y             Z
Electronic contribution:      7.44843      14.93823     -25.48321
Nuclear contribution   :     -7.62285     -15.15900      25.95802
                        -----------------------------------------
Total Dipole Moment    :     -0.17442      -0.22077       0.47482
                        -----------------------------------------
Magnitude (a.u.)       :      0.55191
Magnitude (Debye)      :      1.40285

Rotational constants in cm-1:     0.019239     0.008268     0.006503
Rotational constants in MHz :   576.774658   247.860989   194.968740

                             ****ORCA TERMINATED NORMALLY****
TOTAL RUN TIME: 0 days 0 hours 0 minutes 21 seconds 438 msec
