                         Program Version 4.2.1 -  RELEASE  -
|  1> ! wB97X-D3 SP def2-SVP
|  2> %pal
|  3> nprocs 24
|  4> end
|  5>
|  6> * xyz 0 1
|  7> S 	 -126.459 	 27.6069 	 -111.967
|  8> C 	 -125.716 	 26.1905 	 -112.616
|  9> C 	 -124.376 	 26.0863 	 -112.161
| 10> C 	 -124.093 	 27.0245 	 -111.115
| 11> C 	 -125.144 	 27.8138 	 -110.796
| 12> H 	 -123.221 	 27.1341 	 -110.543
| 13> C 	 -123.426 	 24.9516 	 -112.401
| 14> H 	 -122.493 	 25.4936 	 -112.722
| 15> H 	 -123.799 	 24.4615 	 -113.279
| 16> C 	 -123.381 	 23.8819 	 -111.317
| 17> H 	 -123.452 	 24.2739 	 -110.227
| 18> H 	 -124.288 	 23.3106 	 -111.265
| 19> C 	 -122.284 	 22.8022 	 -111.658
| 20> H 	 -122.536 	 21.7684 	 -111.217
| 21> H 	 -122.061 	 22.5646 	 -112.774
| 22> H 	 -121.418 	 23.1512 	 -111.1
| 23> S 	 -125.349 	 30.4745 	 -110.125
| 24> C 	 -125.287 	 30.9668 	 -108.484
| 25> C 	 -125.21 	 29.8782 	 -107.627
| 26> C 	 -125.25 	 28.6226 	 -108.249
| 27> C 	 -125.257 	 28.757 	 -109.668
| 28> H 	 -125.229 	 30.2025 	 -106.547
| 29> C 	 -125.106 	 27.3276 	 -107.392
| 30> H 	 -125.756 	 26.5834 	 -107.862
| 31> H 	 -125.523 	 27.5332 	 -106.353
| 32> C 	 -123.695 	 26.8301 	 -107.381
| 33> H 	 -122.94 	 27.5599 	 -107.025
| 34> H 	 -123.496 	 26.6452 	 -108.47
| 35> C 	 -123.575 	 25.5356 	 -106.553
| 36> H 	 -123.562 	 25.8843 	 -105.54
| 37> H 	 -122.643 	 25.0493 	 -106.913
| 38> H 	 -124.387 	 24.9126 	 -106.742
| 39> H 	 -126.227 	 25.5068 	 -113.233
| 40> H 	 -125.281 	 32.0127 	 -108.108
| 41> *
| 42>
| 43>                          ****END OF INPUT****

CARTESIAN COORDINATES (ANGSTROEM)
---------------------------------
  S    -126.459000   27.606900  -111.967000
  C    -125.716000   26.190500  -112.616000
  C    -124.376000   26.086300  -112.161000
  C    -124.093000   27.024500  -111.115000
  C    -125.144000   27.813800  -110.796000
  H    -123.221000   27.134100  -110.543000
  C    -123.426000   24.951600  -112.401000
  H    -122.493000   25.493600  -112.722000
  H    -123.799000   24.461500  -113.279000
  C    -123.381000   23.881900  -111.317000
  H    -123.452000   24.273900  -110.227000
  H    -124.288000   23.310600  -111.265000
  C    -122.284000   22.802200  -111.658000
  H    -122.536000   21.768400  -111.217000
  H    -122.061000   22.564600  -112.774000
  H    -121.418000   23.151200  -111.100000
  S    -125.349000   30.474500  -110.125000
  C    -125.287000   30.966800  -108.484000
  C    -125.210000   29.878200  -107.627000
  C    -125.250000   28.622600  -108.249000
  C    -125.257000   28.757000  -109.668000
  H    -125.229000   30.202500  -106.547000
  C    -125.106000   27.327600  -107.392000
  H    -125.756000   26.583400  -107.862000
  H    -125.523000   27.533200  -106.353000
  C    -123.695000   26.830100  -107.381000
  H    -122.940000   27.559900  -107.025000
  H    -123.496000   26.645200  -108.470000
  C    -123.575000   25.535600  -106.553000
  H    -123.562000   25.884300  -105.540000
  H    -122.643000   25.049300  -106.913000
  H    -124.387000   24.912600  -106.742000
  H    -126.227000   25.506800  -113.233000
  H    -125.281000   32.012700  -108.108000

 Total Charge           Charge          ....    0
 Multiplicity           Mult            ....    1
 Number of Electrons    NEL             ....  134
 Basis Dimension        Dim             ....  322

ORBITAL ENERGIES
----------------

  NO   OCC          E(Eh)            E(eV)
   0   2.0000     -88.965489     -2420.8740
   1   2.0000     -88.962371     -2420.7892
   2   2.0000     -10.331467      -281.1335
   3   2.0000     -10.327447      -281.0241
   4   2.0000     -10.315006      -280.6856
   5   2.0000     -10.314761      -280.6789
   6   2.0000     -10.309921      -280.5472
   7   2.0000     -10.302677      -280.3501
   8   2.0000     -10.298007      -280.2230
   9   2.0000     -10.297725      -280.2153
  10   2.0000     -10.295582      -280.1570
  11   2.0000     -10.293689      -280.1055
  12   2.0000     -10.292585      -280.0755
  13   2.0000     -10.288648      -279.9683
  14   2.0000     -10.286787      -279.9177
  15   2.0000     -10.274304      -279.5780
  16   2.0000      -8.080284      -219.8757
  17   2.0000      -8.077542      -219.8011
  18   2.0000      -6.038643      -164.3198
  19   2.0000      -6.035953      -164.2466
  20   2.0000      -6.034674      -164.2118
  21   2.0000      -6.032046      -164.1403
  22   2.0000      -6.031313      -164.1204
  23   2.0000      -6.028312      -164.0387
  24   2.0000      -1.004050       -27.3216
  25   2.0000      -0.983669       -26.7670
  26   2.0000      -0.913045       -24.8452
  27   2.0000      -0.909900       -24.7596
  28   2.0000      -0.865757       -23.5585
  29   2.0000      -0.851385       -23.1674
  30   2.0000      -0.846912       -23.0457
  31   2.0000      -0.812603       -22.1121
  32   2.0000      -0.780727       -21.2447
  33   2.0000      -0.764509       -20.8034
  34   2.0000      -0.704361       -19.1666
  35   2.0000      -0.700747       -19.0683
  36   2.0000      -0.687517       -18.7083
  37   2.0000      -0.654628       -17.8133
  38   2.0000      -0.647909       -17.6305
  39   2.0000      -0.622561       -16.9407
  40   2.0000      -0.592046       -16.1104
  41   2.0000      -0.570513       -15.5245
  42   2.0000      -0.561388       -15.2762
  43   2.0000      -0.553033       -15.0488
  44   2.0000      -0.528186       -14.3727
  45   2.0000      -0.524112       -14.2618
  46   2.0000      -0.516194       -14.0464
  47   2.0000      -0.514020       -13.9872
  48   2.0000      -0.504226       -13.7207
  49   2.0000      -0.499900       -13.6030
  50   2.0000      -0.496174       -13.5016
  51   2.0000      -0.479925       -13.0594
  52   2.0000      -0.471014       -12.8170
  53   2.0000      -0.466682       -12.6991
  54   2.0000      -0.459198       -12.4954
  55   2.0000      -0.445557       -12.1242
  56   2.0000      -0.443374       -12.0648
  57   2.0000      -0.440142       -11.9769
  58   2.0000      -0.434488       -11.8230
  59   2.0000      -0.421497       -11.4695
  60   2.0000      -0.415008       -11.2929
  61   2.0000      -0.414124       -11.2689
  62   2.0000      -0.399936       -10.8828
  63   2.0000      -0.341372        -9.2892
  64   2.0000      -0.332505        -9.0479
  65   2.0000      -0.325127        -8.8472
  66   2.0000      -0.293381        -7.9833
  67   0.0000       0.037370         1.0169
  68   0.0000       0.054347         1.4789
  69   0.0000       0.112473         3.0605
  70   0.0000       0.121924         3.3177
  71   0.0000       0.125894         3.4257

MULLIKEN ATOMIC CHARGES
-----------------------
   0 S :    0.111249
   1 C :   -0.107293
   2 C :   -0.098333
   3 C :    0.053155
   4 C :   -0.158968
   5 H :    0.008953
   6 C :    0.075102
   7 H :    0.048124
   8 H :    0.009955
   9 C :   -0.073805
  10 H :    0.043310
  11 H :    0.017535
  12 C :   -0.103353
  13 H :    0.042045
  14 H :    0.060101
  15 H :    0.044481
  16 S :    0.114603
  17 C :   -0.109839
  18 C :   -0.083581
  19 C :    0.007946
  20 C :   -0.201168
  21 H :    0.038293
  22 C :    0.060687
  23 H :    0.033315
  24 H :    0.030850
  25 C :   -0.121056
  26 H :    0.037166
  27 H :    0.014683
  28 C :    0.012330
  29 H :    0.034093
  30 H :    0.040642
  31 H :    0.015735
  32 H :    0.035974
  33 H :    0.067072
Sum of atomic charges:   -0.0000000

LOEWDIN ATOMIC CHARGES
----------------------
   0 S :    0.399266
   1 C :   -0.193461
   2 C :   -0.062755
   3 C :   -0.054196
   4 C :   -0.190288
   5 H :    0.025000
   6 C :   -0.040169
   7 H :    0.042047
   8 H :    0.027640
   9 C :   -0.051213
  10 H :    0.034884
  11 H :    0.022133
  12 C :   -0.081398
  13 H :    0.031566
  14 H :    0.040080
  15 H :    0.025706
  16 S :    0.416466
  17 C :   -0.207574
  18 C :   -0.090519
  19 C :   -0.049704
  20 C :   -0.199263
  21 H :    0.042738
  22 C :   -0.030620
  23 H :    0.032829
  24 H :    0.032617
  25 C :   -0.047831
  26 H :    0.026835
  27 H :    0.023052
  28 C :   -0.054351
  29 H :    0.025739
  30 H :    0.033338
  31 H :    0.014392
  32 H :    0.018919
  33 H :    0.038098

  Mayer bond orders larger than 0.100000
B(  0-S ,  1-C ) :   1.1504 B(  0-S ,  4-C ) :   1.1393 B(  1-C ,  2-C ) :   1.5919
B(  1-C , 32-H ) :   0.9792 B(  2-C ,  3-C ) :   1.2020 B(  2-C ,  6-C ) :   1.0398
B(  3-C ,  4-C ) :   1.6173 B(  3-C ,  5-H ) :   0.9952 B(  4-C , 20-C ) :   1.0107
B(  6-C ,  7-H ) :   0.9399 B(  6-C ,  8-H ) :   0.9325 B(  6-C ,  9-C ) :   1.0502
B(  9-C , 10-H ) :   0.9603 B(  9-C , 11-H ) :   0.9541 B(  9-C , 12-C ) :   1.0449
B( 12-C , 13-H ) :   0.9789 B( 12-C , 14-H ) :   0.9740 B( 12-C , 15-H ) :   0.9809
B( 16-S , 17-C ) :   1.1721 B( 16-S , 20-C ) :   1.1658 B( 17-C , 18-C ) :   1.6033
B( 17-C , 20-C ) :   0.1134 B( 17-C , 33-H ) :   0.9604 B( 18-C , 19-C ) :   1.2587
B( 18-C , 21-H ) :   0.9812 B( 19-C , 20-C ) :   1.5582 B( 19-C , 22-C ) :   1.0350
B( 22-C , 23-H ) :   0.9264 B( 22-C , 24-H ) :   0.9398 B( 22-C , 25-C ) :   1.0723
B( 25-C , 26-H ) :   0.9566 B( 25-C , 27-H ) :   0.9452 B( 25-C , 28-C ) :   1.0752
B( 28-C , 29-H ) :   0.9766 B( 28-C , 30-H ) :   0.9737 B( 28-C , 31-H ) :   0.9721

Dispersion correction           -0.014700353
FINAL SINGLE POINT ENERGY     -1339.853875621774

DIPOLE MOMENT
-------------
                                X             Y             Z
Electronic contribution:    -15.88871      26.44021     -10.89000
Nuclear contribution   :     16.20679     -26.94519      11.25775
                        -----------------------------------------
Total Dipole Moment    :      0.31808      -0.50498       0.36775
                        -----------------------------------------
Magnitude (a.u.)       :      0.70101
Magnitude (Debye)      :      1.78183

Rotational constants in cm-1:     0.017651     0.009570     0.006781
Rotational constants in MHz :   529.156814   286.903644   203.301355

                             ****ORCA TERMINATED NORMALLY****
TOTAL RUN TIME: 0 days 0 hours 0 minutes 22 seconds 93 msec
