                         Program Version 4.2.1 -  RELEASE  -
|  1> ! wB97X-D3 SP def2-SVP
|  2> %pal
|  3> nprocs 24
|  4> end
|  5>
|  6> * xyz 0 1
|  7> S 	 -121.627 	 35.1994 	 -110.615
|  8> C 	 -119.968 	 35.3859 	 -110.085
|  9> C 	 -119.36 	 34.212 	 -109.797
| 10> C 	 -120.273 	 33.1615 	 -109.874
| 11> C 	 -121.521 	 33.5348 	 -110.277
| 12> H 	 -120.169 	 32.1826 	 -109.557
| 13> C 	 -117.979 	 34.0088 	 -109.222
| 14> H 	 -118.012 	 33.0439 	 -108.8
| 15> H 	 -117.871 	 34.6157 	 -108.366
| 16> C 	 -116.857 	 34.3703 	 -110.245
| 17> H 	 -116.994 	 35.3561 	 -110.599
| 18> H 	 -115.927 	 34.4087 	 -109.729
| 19> C 	 -116.706 	 33.3218 	 -111.315
| 20> H 	 -116.554 	 32.3265 	 -111.003
| 21> H 	 -117.495 	 33.3275 	 -112.062
| 22> H 	 -115.872 	 33.5355 	 -111.981
| 23> S 	 -123.561 	 32.1388 	 -108.999
| 24> C 	 -124.722 	 31.2169 	 -109.938
| 25> C 	 -124.357 	 31.2101 	 -111.273
| 26> C 	 -123.253 	 32.0705 	 -111.587
| 27> C 	 -122.623 	 32.5983 	 -110.443
| 28> H 	 -124.887 	 30.6138 	 -111.967
| 29> C 	 -122.737 	 32.2159 	 -113.028
| 30> H 	 -122.863 	 31.3062 	 -113.573
| 31> H 	 -121.653 	 32.4544 	 -113.01
| 32> C 	 -123.676 	 33.2794 	 -113.665
| 33> H 	 -123.909 	 34.1991 	 -113.051
| 34> H 	 -124.632 	 32.8722 	 -113.872
| 35> C 	 -123.12 	 33.7265 	 -115.038
| 36> H 	 -122.938 	 32.9474 	 -115.79
| 37> H 	 -122.087 	 34.1482 	 -114.94
| 38> H 	 -123.829 	 34.4232 	 -115.429
| 39> H 	 -119.513 	 36.408 	 -110.117
| 40> H 	 -125.39 	 30.604 	 -109.389
| 41> *
| 42>
| 43>                          ****END OF INPUT****

CARTESIAN COORDINATES (ANGSTROEM)
---------------------------------
  S    -121.627000   35.199400  -110.615000
  C    -119.968000   35.385900  -110.085000
  C    -119.360000   34.212000  -109.797000
  C    -120.273000   33.161500  -109.874000
  C    -121.521000   33.534800  -110.277000
  H    -120.169000   32.182600  -109.557000
  C    -117.979000   34.008800  -109.222000
  H    -118.012000   33.043900  -108.800000
  H    -117.871000   34.615700  -108.366000
  C    -116.857000   34.370300  -110.245000
  H    -116.994000   35.356100  -110.599000
  H    -115.927000   34.408700  -109.729000
  C    -116.706000   33.321800  -111.315000
  H    -116.554000   32.326500  -111.003000
  H    -117.495000   33.327500  -112.062000
  H    -115.872000   33.535500  -111.981000
  S    -123.561000   32.138800  -108.999000
  C    -124.722000   31.216900  -109.938000
  C    -124.357000   31.210100  -111.273000
  C    -123.253000   32.070500  -111.587000
  C    -122.623000   32.598300  -110.443000
  H    -124.887000   30.613800  -111.967000
  C    -122.737000   32.215900  -113.028000
  H    -122.863000   31.306200  -113.573000
  H    -121.653000   32.454400  -113.010000
  C    -123.676000   33.279400  -113.665000
  H    -123.909000   34.199100  -113.051000
  H    -124.632000   32.872200  -113.872000
  C    -123.120000   33.726500  -115.038000
  H    -122.938000   32.947400  -115.790000
  H    -122.087000   34.148200  -114.940000
  H    -123.829000   34.423200  -115.429000
  H    -119.513000   36.408000  -110.117000
  H    -125.390000   30.604000  -109.389000

 Total Charge           Charge          ....    0
 Multiplicity           Mult            ....    1
 Number of Electrons    NEL             ....  134
 Basis Dimension        Dim             ....  322

ORBITAL ENERGIES
----------------

  NO   OCC          E(Eh)            E(eV)
   0   2.0000     -88.965384     -2420.8712
   1   2.0000     -88.958061     -2420.6719
   2   2.0000     -10.324013      -280.9307
   3   2.0000     -10.317302      -280.7480
   4   2.0000     -10.315529      -280.6998
   5   2.0000     -10.311697      -280.5956
   6   2.0000     -10.304619      -280.4029
   7   2.0000     -10.293000      -280.0868
   8   2.0000     -10.292322      -280.0683
   9   2.0000     -10.291825      -280.0548
  10   2.0000     -10.286514      -279.9103
  11   2.0000     -10.283995      -279.8417
  12   2.0000     -10.283053      -279.8161
  13   2.0000     -10.279302      -279.7140
  14   2.0000     -10.274175      -279.5745
  15   2.0000     -10.268777      -279.4276
  16   2.0000      -8.080993      -219.8950
  17   2.0000      -8.072598      -219.6666
  18   2.0000      -6.039234      -164.3359
  19   2.0000      -6.035460      -164.2332
  20   2.0000      -6.031908      -164.1366
  21   2.0000      -6.031083      -164.1141
  22   2.0000      -6.026994      -164.0028
  23   2.0000      -6.023558      -163.9093
  24   2.0000      -1.011098       -27.5134
  25   2.0000      -0.981207       -26.7000
  26   2.0000      -0.914950       -24.8970
  27   2.0000      -0.903517       -24.5859
  28   2.0000      -0.868027       -23.6202
  29   2.0000      -0.854735       -23.2585
  30   2.0000      -0.842246       -22.9187
  31   2.0000      -0.811949       -22.0942
  32   2.0000      -0.786287       -21.3960
  33   2.0000      -0.768567       -20.9138
  34   2.0000      -0.715603       -19.4725
  35   2.0000      -0.698264       -19.0007
  36   2.0000      -0.693256       -18.8645
  37   2.0000      -0.661777       -18.0079
  38   2.0000      -0.648984       -17.6598
  39   2.0000      -0.613172       -16.6853
  40   2.0000      -0.595275       -16.1983
  41   2.0000      -0.574681       -15.6379
  42   2.0000      -0.558614       -15.2007
  43   2.0000      -0.550935       -14.9917
  44   2.0000      -0.542130       -14.7521
  45   2.0000      -0.529326       -14.4037
  46   2.0000      -0.520284       -14.1577
  47   2.0000      -0.510311       -13.8863
  48   2.0000      -0.504869       -13.7382
  49   2.0000      -0.492395       -13.3988
  50   2.0000      -0.487364       -13.2619
  51   2.0000      -0.481025       -13.0894
  52   2.0000      -0.468649       -12.7526
  53   2.0000      -0.460599       -12.5335
  54   2.0000      -0.458398       -12.4736
  55   2.0000      -0.450902       -12.2697
  56   2.0000      -0.449183       -12.2229
  57   2.0000      -0.437669       -11.9096
  58   2.0000      -0.434306       -11.8181
  59   2.0000      -0.431606       -11.7446
  60   2.0000      -0.415947       -11.3185
  61   2.0000      -0.414849       -11.2886
  62   2.0000      -0.406525       -11.0621
  63   2.0000      -0.336490        -9.1564
  64   2.0000      -0.328377        -8.9356
  65   2.0000      -0.320634        -8.7249
  66   2.0000      -0.304682        -8.2908
  67   0.0000       0.045755         1.2450
  68   0.0000       0.058077         1.5804
  69   0.0000       0.114922         3.1272
  70   0.0000       0.120193         3.2706
  71   0.0000       0.135809         3.6955

MULLIKEN ATOMIC CHARGES
-----------------------
   0 S :    0.130508
   1 C :   -0.168898
   2 C :   -0.042871
   3 C :    0.042323
   4 C :   -0.162996
   5 H :   -0.020608
   6 C :    0.111968
   7 H :    0.001971
   8 H :    0.018622
   9 C :   -0.021131
  10 H :    0.017405
  11 H :    0.015525
  12 C :   -0.029114
  13 H :    0.021736
  14 H :    0.025380
  15 H :    0.016932
  16 S :    0.083793
  17 C :   -0.086818
  18 C :   -0.007169
  19 C :   -0.042909
  20 C :   -0.189890
  21 H :    0.006066
  22 C :    0.095091
  23 H :    0.019827
  24 H :    0.044514
  25 C :   -0.104459
  26 H :    0.045120
  27 H :    0.020127
  28 C :   -0.041281
  29 H :    0.022792
  30 H :    0.033112
  31 H :    0.031269
  32 H :    0.060089
  33 H :    0.053976
Sum of atomic charges:    0.0000000

LOEWDIN ATOMIC CHARGES
----------------------
   0 S :    0.429032
   1 C :   -0.196317
   2 C :   -0.066271
   3 C :   -0.053148
   4 C :   -0.216791
   5 H :    0.020865
   6 C :   -0.017856
   7 H :    0.024308
   8 H :    0.028468
   9 C :   -0.026452
  10 H :    0.020878
  11 H :    0.021025
  12 C :   -0.065008
  13 H :    0.019735
  14 H :    0.025316
  15 H :    0.026886
  16 S :    0.386077
  17 C :   -0.173799
  18 C :   -0.068800
  19 C :   -0.047918
  20 C :   -0.198712
  21 H :    0.024286
  22 C :   -0.023355
  23 H :    0.027964
  24 H :    0.035191
  25 C :   -0.037599
  26 H :    0.031534
  27 H :    0.018230
  28 C :   -0.071364
  29 H :    0.022339
  30 H :    0.027696
  31 H :    0.021359
  32 H :    0.031745
  33 H :    0.020456

  Mayer bond orders larger than 0.100000
B(  0-S ,  1-C ) :   1.1516 B(  0-S ,  4-C ) :   1.1629 B(  1-C ,  2-C ) :   1.6020
B(  1-C , 32-H ) :   0.9622 B(  2-C ,  3-C ) :   1.2374 B(  2-C ,  6-C ) :   1.0022
B(  3-C ,  4-C ) :   1.5847 B(  3-C ,  5-H ) :   1.0074 B(  4-C , 20-C ) :   1.0122
B(  6-C ,  7-H ) :   0.9451 B(  6-C ,  8-H ) :   0.9365 B(  6-C ,  9-C ) :   1.0675
B(  9-C , 10-H ) :   0.9576 B(  9-C , 11-H ) :   0.9541 B(  9-C , 12-C ) :   1.0813
B( 12-C , 13-H ) :   0.9761 B( 12-C , 14-H ) :   0.9732 B( 12-C , 15-H ) :   0.9689
B( 16-S , 17-C ) :   1.1672 B( 16-S , 20-C ) :   1.1417 B( 17-C , 18-C ) :   1.5816
B( 17-C , 20-C ) :   0.1067 B( 17-C , 33-H ) :   0.9734 B( 18-C , 19-C ) :   1.2421
B( 18-C , 21-H ) :   0.9952 B( 19-C , 20-C ) :   1.5946 B( 19-C , 22-C ) :   1.0439
B( 22-C , 23-H ) :   0.9343 B( 22-C , 24-H ) :   0.9472 B( 22-C , 25-C ) :   1.0407
B( 25-C , 26-H ) :   0.9604 B( 25-C , 27-H ) :   0.9551 B( 25-C , 28-C ) :   1.0818
B( 28-C , 29-H ) :   0.9716 B( 28-C , 30-H ) :   0.9767 B( 28-C , 31-H ) :   0.9751

Dispersion correction           -0.014605464
FINAL SINGLE POINT ENERGY     -1339.875007230494

DIPOLE MOMENT
-------------
                                X             Y             Z
Electronic contribution:    -15.57889       0.45947      16.75290
Nuclear contribution   :     15.95095      -0.63423     -17.02851
                        -----------------------------------------
Total Dipole Moment    :      0.37206      -0.17476      -0.27561
                        -----------------------------------------
Magnitude (a.u.)       :      0.49490
Magnitude (Debye)      :      1.25794

Rotational constants in cm-1:     0.018879     0.008544     0.007109
Rotational constants in MHz :   565.988571   256.133427   213.126969

                             ****ORCA TERMINATED NORMALLY****
TOTAL RUN TIME: 0 days 0 hours 0 minutes 21 seconds 594 msec
