                         Program Version 4.2.1 -  RELEASE  -
|  1> ! wB97X-D3 SP def2-SVP
|  2> %pal
|  3> nprocs 24
|  4> end
|  5>
|  6> * xyz 0 1
|  7> S 	 -46.4936 	 10.8953 	 -19.1202
|  8> C 	 -47.8463 	 10.2324 	 -18.2607
|  9> C 	 -48.6867 	 9.57801 	 -19.1025
| 10> C 	 -48.2527 	 9.56168 	 -20.4543
| 11> C 	 -47.1688 	 10.3658 	 -20.7258
| 12> H 	 -48.8462 	 9.02956 	 -21.1647
| 13> C 	 -49.9757 	 8.80704 	 -18.7429
| 14> H 	 -50.3524 	 8.2889 	 -19.5813
| 15> H 	 -50.6771 	 9.64523 	 -18.5204
| 16> C 	 -49.8752 	 7.92158 	 -17.5037
| 17> H 	 -49.9162 	 8.64956 	 -16.6538
| 18> H 	 -50.8163 	 7.4401 	 -17.2921
| 19> C 	 -48.6794 	 6.96519 	 -17.4465
| 20> H 	 -48.5817 	 6.58104 	 -16.4437
| 21> H 	 -48.9011 	 6.14661 	 -18.0705
| 22> H 	 -47.7324 	 7.38437 	 -17.8109
| 23> S 	 -44.8016 	 10.3983 	 -22.1419
| 24> C 	 -44.8923 	 10.3047 	 -23.922
| 25> C 	 -46.1981 	 10.6128 	 -24.3386
| 26> C 	 -47.154 	 10.6971 	 -23.2616
| 27> C 	 -46.5433 	 10.5936 	 -22.0106
| 28> H 	 -46.4636 	 10.7841 	 -25.3842
| 29> C 	 -48.6907 	 10.8064 	 -23.5343
| 30> H 	 -49.162 	 11.0513 	 -22.5922
| 31> H 	 -49.0163 	 9.76548 	 -23.7375
| 32> C 	 -49.0794 	 11.7257 	 -24.6641
| 33> H 	 -48.6115 	 11.4377 	 -25.5836
| 34> H 	 -48.6108 	 12.6287 	 -24.468
| 35> C 	 -50.6018 	 12.02 	 -24.752
| 36> H 	 -50.9422 	 12.6007 	 -23.8555
| 37> H 	 -51.2214 	 11.1335 	 -24.9063
| 38> H 	 -50.9063 	 12.4429 	 -25.6891
| 39> H 	 -47.904 	 10.3031 	 -17.1946
| 40> H 	 -43.97 	 10.392 	 -24.4358
| 41> *
| 42>
| 43>                          ****END OF INPUT****

CARTESIAN COORDINATES (ANGSTROEM)
---------------------------------
  S    -46.493600   10.895300  -19.120200
  C    -47.846300   10.232400  -18.260700
  C    -48.686700    9.578010  -19.102500
  C    -48.252700    9.561680  -20.454300
  C    -47.168800   10.365800  -20.725800
  H    -48.846200    9.029560  -21.164700
  C    -49.975700    8.807040  -18.742900
  H    -50.352400    8.288900  -19.581300
  H    -50.677100    9.645230  -18.520400
  C    -49.875200    7.921580  -17.503700
  H    -49.916200    8.649560  -16.653800
  H    -50.816300    7.440100  -17.292100
  C    -48.679400    6.965190  -17.446500
  H    -48.581700    6.581040  -16.443700
  H    -48.901100    6.146610  -18.070500
  H    -47.732400    7.384370  -17.810900
  S    -44.801600   10.398300  -22.141900
  C    -44.892300   10.304700  -23.922000
  C    -46.198100   10.612800  -24.338600
  C    -47.154000   10.697100  -23.261600
  C    -46.543300   10.593600  -22.010600
  H    -46.463600   10.784100  -25.384200
  C    -48.690700   10.806400  -23.534300
  H    -49.162000   11.051300  -22.592200
  H    -49.016300    9.765480  -23.737500
  C    -49.079400   11.725700  -24.664100
  H    -48.611500   11.437700  -25.583600
  H    -48.610800   12.628700  -24.468000
  C    -50.601800   12.020000  -24.752000
  H    -50.942200   12.600700  -23.855500
  H    -51.221400   11.133500  -24.906300
  H    -50.906300   12.442900  -25.689100
  H    -47.904000   10.303100  -17.194600
  H    -43.970000   10.392000  -24.435800

 Total Charge           Charge          ....    0
 Multiplicity           Mult            ....    1
 Number of Electrons    NEL             ....  134
 Basis Dimension        Dim             ....  322

ORBITAL ENERGIES
----------------

  NO   OCC          E(Eh)            E(eV)
   0   2.0000     -88.963582     -2420.8221
   1   2.0000     -88.963063     -2420.8080
   2   2.0000     -10.333655      -281.1931
   3   2.0000     -10.329070      -281.0683
   4   2.0000     -10.323040      -280.9042
   5   2.0000     -10.310647      -280.5670
   6   2.0000     -10.309094      -280.5247
   7   2.0000     -10.303652      -280.3766
   8   2.0000     -10.295930      -280.1665
   9   2.0000     -10.295456      -280.1536
  10   2.0000     -10.291254      -280.0393
  11   2.0000     -10.290681      -280.0237
  12   2.0000     -10.287005      -279.9236
  13   2.0000     -10.283598      -279.8309
  14   2.0000     -10.281996      -279.7873
  15   2.0000     -10.270877      -279.4848
  16   2.0000      -8.078068      -219.8154
  17   2.0000      -8.077283      -219.7940
  18   2.0000      -6.036632      -164.2651
  19   2.0000      -6.036025      -164.2486
  20   2.0000      -6.032659      -164.1570
  21   2.0000      -6.031859      -164.1352
  22   2.0000      -6.028733      -164.0502
  23   2.0000      -6.027836      -164.0257
  24   2.0000      -1.002139       -27.2696
  25   2.0000      -0.980159       -26.6715
  26   2.0000      -0.910412       -24.7736
  27   2.0000      -0.908165       -24.7124
  28   2.0000      -0.869612       -23.6633
  29   2.0000      -0.850183       -23.1347
  30   2.0000      -0.843020       -22.9397
  31   2.0000      -0.811040       -22.0695
  32   2.0000      -0.784800       -21.3555
  33   2.0000      -0.776238       -21.1225
  34   2.0000      -0.714252       -19.4358
  35   2.0000      -0.707582       -19.2543
  36   2.0000      -0.697589       -18.9824
  37   2.0000      -0.660891       -17.9838
  38   2.0000      -0.640799       -17.4370
  39   2.0000      -0.614441       -16.7198
  40   2.0000      -0.597717       -16.2647
  41   2.0000      -0.570225       -15.5166
  42   2.0000      -0.570023       -15.5111
  43   2.0000      -0.553664       -15.0660
  44   2.0000      -0.538361       -14.6495
  45   2.0000      -0.526043       -14.3144
  46   2.0000      -0.514634       -14.0039
  47   2.0000      -0.510214       -13.8836
  48   2.0000      -0.504182       -13.7195
  49   2.0000      -0.498561       -13.5665
  50   2.0000      -0.487427       -13.2636
  51   2.0000      -0.485246       -13.2042
  52   2.0000      -0.477345       -12.9892
  53   2.0000      -0.471811       -12.8386
  54   2.0000      -0.455205       -12.3868
  55   2.0000      -0.451216       -12.2782
  56   2.0000      -0.440261       -11.9801
  57   2.0000      -0.437338       -11.9006
  58   2.0000      -0.432609       -11.7719
  59   2.0000      -0.421628       -11.4731
  60   2.0000      -0.417965       -11.3734
  61   2.0000      -0.417817       -11.3694
  62   2.0000      -0.408480       -11.1153
  63   2.0000      -0.355160        -9.6644
  64   2.0000      -0.331330        -9.0159
  65   2.0000      -0.326514        -8.8849
  66   2.0000      -0.287921        -7.8347
  67   0.0000       0.020884         0.5683
  68   0.0000       0.071336         1.9412
  69   0.0000       0.104804         2.8519
  70   0.0000       0.121327         3.3015
  71   0.0000       0.133755         3.6397

MULLIKEN ATOMIC CHARGES
-----------------------
   0 S :    0.088231
   1 C :   -0.124028
   2 C :   -0.112096
   3 C :    0.022971
   4 C :   -0.129869
   5 H :    0.002638
   6 C :    0.093897
   7 H :    0.008440
   8 H :    0.044616
   9 C :   -0.091138
  10 H :    0.014265
  11 H :    0.018837
  12 C :   -0.010827
  13 H :    0.030818
  14 H :    0.018211
  15 H :    0.051013
  16 S :    0.085716
  17 C :   -0.089096
  18 C :   -0.036804
  19 C :   -0.077887
  20 C :   -0.123544
  21 H :    0.031554
  22 C :    0.069656
  23 H :    0.025312
  24 H :    0.040406
  25 C :   -0.043387
  26 H :    0.019581
  27 H :    0.015012
  28 C :   -0.041703
  29 H :    0.054483
  30 H :    0.017869
  31 H :    0.020793
  32 H :    0.044796
  33 H :    0.061263
Sum of atomic charges:   -0.0000000

LOEWDIN ATOMIC CHARGES
----------------------
   0 S :    0.376120
   1 C :   -0.192251
   2 C :   -0.068179
   3 C :   -0.058192
   4 C :   -0.169359
   5 H :    0.026527
   6 C :   -0.026707
   7 H :    0.017550
   8 H :    0.043300
   9 C :   -0.048938
  10 H :    0.022057
  11 H :    0.023480
  12 C :   -0.060332
  13 H :    0.027338
  14 H :    0.020344
  15 H :    0.031561
  16 S :    0.387760
  17 C :   -0.168510
  18 C :   -0.066901
  19 C :   -0.052191
  20 C :   -0.196491
  21 H :    0.032368
  22 C :   -0.026994
  23 H :    0.027422
  24 H :    0.033052
  25 C :   -0.039011
  26 H :    0.020022
  27 H :    0.020198
  28 C :   -0.069193
  29 H :    0.036125
  30 H :    0.025596
  31 H :    0.026155
  32 H :    0.025336
  33 H :    0.020938

  Mayer bond orders larger than 0.100000
B(  0-S ,  1-C ) :   1.1328 B(  0-S ,  4-C ) :   1.1281 B(  1-C ,  2-C ) :   1.6136
B(  1-C , 32-H ) :   0.9737 B(  2-C ,  3-C ) :   1.2605 B(  2-C ,  6-C ) :   1.0011
B(  3-C ,  4-C ) :   1.5521 B(  3-C ,  5-H ) :   0.9931 B(  4-C , 20-C ) :   1.0662
B(  6-C ,  7-H ) :   0.9466 B(  6-C ,  8-H ) :   0.9352 B(  6-C ,  9-C ) :   1.0795
B(  9-C , 10-H ) :   0.9520 B(  9-C , 11-H ) :   0.9526 B(  9-C , 12-C ) :   1.0701
B( 12-C , 13-H ) :   0.9732 B( 12-C , 14-H ) :   0.9746 B( 12-C , 15-H ) :   0.9733
B( 16-S , 17-C ) :   1.1533 B( 16-S , 20-C ) :   1.1370 B( 17-C , 18-C ) :   1.5862
B( 17-C , 20-C ) :   0.1034 B( 17-C , 33-H ) :   0.9716 B( 18-C , 19-C ) :   1.2495
B( 18-C , 21-H ) :   0.9852 B( 19-C , 20-C ) :   1.5931 B( 19-C , 22-C ) :   1.0259
B( 22-C , 23-H ) :   0.9370 B( 22-C , 24-H ) :   0.9295 B( 22-C , 25-C ) :   1.0611
B( 25-C , 26-H ) :   0.9482 B( 25-C , 27-H ) :   0.9563 B( 25-C , 28-C ) :   1.0874
B( 28-C , 29-H ) :   0.9748 B( 28-C , 30-H ) :   0.9708 B( 28-C , 31-H ) :   0.9701

Dispersion correction           -0.014003601
FINAL SINGLE POINT ENERGY     -1339.873436324178

DIPOLE MOMENT
-------------
                                X             Y             Z
Electronic contribution:     24.45518       6.52013       2.20554
Nuclear contribution   :    -25.16323      -6.71825      -2.48818
                        -----------------------------------------
Total Dipole Moment    :     -0.70805      -0.19812      -0.28263
                        -----------------------------------------
Magnitude (a.u.)       :      0.78769
Magnitude (Debye)      :      2.00216

Rotational constants in cm-1:     0.018078     0.008296     0.006411
Rotational constants in MHz :   541.956845   248.704281   192.192022

                             ****ORCA TERMINATED NORMALLY****
TOTAL RUN TIME: 0 days 0 hours 0 minutes 21 seconds 313 msec
