                         Program Version 4.2.1 -  RELEASE  -
|  1> ! wB97X-D3 SP def2-SVP
|  2> %pal
|  3> nprocs 24
|  4> end
|  5>
|  6> * xyz 0 1
|  7> S 	 -100.455 	 -0.0438172 	 -120.171
|  8> C 	 -101.089 	 0.950077 	 -121.469
|  9> C 	 -102.062 	 1.87789 	 -121.064
| 10> C 	 -102.343 	 1.82242 	 -119.671
| 11> C 	 -101.471 	 0.920743 	 -119.069
| 12> H 	 -103.022 	 2.43002 	 -119.181
| 13> C 	 -102.951 	 2.72258 	 -121.97
| 14> H 	 -102.79 	 2.34813 	 -123.005
| 15> H 	 -102.528 	 3.67599 	 -121.957
| 16> C 	 -104.459 	 2.70693 	 -121.628
| 17> H 	 -104.578 	 3.11936 	 -120.593
| 18> H 	 -104.945 	 3.33937 	 -122.476
| 19> C 	 -105.08 	 1.20686 	 -121.693
| 20> H 	 -106.045 	 1.20588 	 -121.315
| 21> H 	 -105.215 	 1.02585 	 -122.728
| 22> H 	 -104.436 	 0.394733 	 -121.301
| 23> S 	 -99.5927 	 1.37409 	 -117.209
| 24> C 	 -99.9645 	 1.0651 	 -115.492
| 25> C 	 -101.217 	 0.541224 	 -115.321
| 26> C 	 -101.943 	 0.359502 	 -116.574
| 27> C 	 -101.224 	 0.806376 	 -117.667
| 28> H 	 -101.493 	 0.364872 	 -114.318
| 29> C 	 -103.318 	 -0.167848 	 -116.678
| 30> H 	 -103.277 	 -1.16375 	 -116.31
| 31> H 	 -103.592 	 -0.110176 	 -117.758
| 32> C 	 -104.299 	 0.713752 	 -115.884
| 33> H 	 -104.152 	 1.65752 	 -116.247
| 34> H 	 -104.097 	 0.635529 	 -114.809
| 35> C 	 -105.75 	 0.309495 	 -116.124
| 36> H 	 -106.063 	 -0.536181 	 -115.55
| 37> H 	 -105.789 	 -0.0347699 	 -117.179
| 38> H 	 -106.364 	 1.20526 	 -115.997
| 39> H 	 -100.841 	 0.747978 	 -122.452
| 40> H 	 -99.2599 	 1.26743 	 -114.676
| 41> *
| 42>
| 43>                          ****END OF INPUT****

CARTESIAN COORDINATES (ANGSTROEM)
---------------------------------
  S    -100.455000   -0.043817  -120.171000
  C    -101.089000    0.950077  -121.469000
  C    -102.062000    1.877890  -121.064000
  C    -102.343000    1.822420  -119.671000
  C    -101.471000    0.920743  -119.069000
  H    -103.022000    2.430020  -119.181000
  C    -102.951000    2.722580  -121.970000
  H    -102.790000    2.348130  -123.005000
  H    -102.528000    3.675990  -121.957000
  C    -104.459000    2.706930  -121.628000
  H    -104.578000    3.119360  -120.593000
  H    -104.945000    3.339370  -122.476000
  C    -105.080000    1.206860  -121.693000
  H    -106.045000    1.205880  -121.315000
  H    -105.215000    1.025850  -122.728000
  H    -104.436000    0.394733  -121.301000
  S    -99.592700    1.374090  -117.209000
  C    -99.964500    1.065100  -115.492000
  C    -101.217000    0.541224  -115.321000
  C    -101.943000    0.359502  -116.574000
  C    -101.224000    0.806376  -117.667000
  H    -101.493000    0.364872  -114.318000
  C    -103.318000   -0.167848  -116.678000
  H    -103.277000   -1.163750  -116.310000
  H    -103.592000   -0.110176  -117.758000
  C    -104.299000    0.713752  -115.884000
  H    -104.152000    1.657520  -116.247000
  H    -104.097000    0.635529  -114.809000
  C    -105.750000    0.309495  -116.124000
  H    -106.063000   -0.536181  -115.550000
  H    -105.789000   -0.034770  -117.179000
  H    -106.364000    1.205260  -115.997000
  H    -100.841000    0.747978  -122.452000
  H    -99.259900    1.267430  -114.676000

 Total Charge           Charge          ....    0
 Multiplicity           Mult            ....    1
 Number of Electrons    NEL             ....  134
 Basis Dimension        Dim             ....  322

ORBITAL ENERGIES
----------------

  NO   OCC          E(Eh)            E(eV)
   0   2.0000     -88.969988     -2420.9964
   1   2.0000     -88.956825     -2420.6383
   2   2.0000     -10.329358      -281.0761
   3   2.0000     -10.319358      -280.8040
   4   2.0000     -10.316580      -280.7284
   5   2.0000     -10.309169      -280.5267
   6   2.0000     -10.308090      -280.4974
   7   2.0000     -10.301147      -280.3084
   8   2.0000     -10.300814      -280.2994
   9   2.0000     -10.292553      -280.0746
  10   2.0000     -10.290947      -280.0309
  11   2.0000     -10.289850      -280.0010
  12   2.0000     -10.284397      -279.8527
  13   2.0000     -10.277188      -279.6565
  14   2.0000     -10.275661      -279.6149
  15   2.0000     -10.274875      -279.5936
  16   2.0000      -8.084107      -219.9797
  17   2.0000      -8.070948      -219.6217
  18   2.0000      -6.042500      -164.4248
  19   2.0000      -6.038881      -164.3263
  20   2.0000      -6.034849      -164.2166
  21   2.0000      -6.029590      -164.0735
  22   2.0000      -6.025634      -163.9658
  23   2.0000      -6.021499      -163.8533
  24   2.0000      -1.001987       -27.2655
  25   2.0000      -0.975289       -26.5390
  26   2.0000      -0.913932       -24.8693
  27   2.0000      -0.905820       -24.6486
  28   2.0000      -0.867281       -23.5999
  29   2.0000      -0.848826       -23.0977
  30   2.0000      -0.844694       -22.9853
  31   2.0000      -0.813792       -22.1444
  32   2.0000      -0.783602       -21.3229
  33   2.0000      -0.766533       -20.8584
  34   2.0000      -0.709910       -19.3176
  35   2.0000      -0.698765       -19.0144
  36   2.0000      -0.692681       -18.8488
  37   2.0000      -0.658403       -17.9161
  38   2.0000      -0.644917       -17.5491
  39   2.0000      -0.625755       -17.0277
  40   2.0000      -0.589308       -16.0359
  41   2.0000      -0.579610       -15.7720
  42   2.0000      -0.558292       -15.1919
  43   2.0000      -0.554840       -15.0980
  44   2.0000      -0.537885       -14.6366
  45   2.0000      -0.528816       -14.3898
  46   2.0000      -0.521965       -14.2034
  47   2.0000      -0.509557       -13.8658
  48   2.0000      -0.507027       -13.7969
  49   2.0000      -0.497203       -13.5296
  50   2.0000      -0.485908       -13.2222
  51   2.0000      -0.475207       -12.9310
  52   2.0000      -0.464989       -12.6530
  53   2.0000      -0.459312       -12.4985
  54   2.0000      -0.458448       -12.4750
  55   2.0000      -0.450139       -12.2489
  56   2.0000      -0.443905       -12.0793
  57   2.0000      -0.437290       -11.8993
  58   2.0000      -0.434358       -11.8195
  59   2.0000      -0.424766       -11.5585
  60   2.0000      -0.423258       -11.5174
  61   2.0000      -0.418296       -11.3824
  62   2.0000      -0.415490       -11.3060
  63   2.0000      -0.344692        -9.3795
  64   2.0000      -0.324949        -8.8423
  65   2.0000      -0.323035        -8.7902
  66   2.0000      -0.293264        -7.9801
  67   0.0000       0.036286         0.9874
  68   0.0000       0.060293         1.6407
  69   0.0000       0.106603         2.9008
  70   0.0000       0.120104         3.2682
  71   0.0000       0.128960         3.5092

MULLIKEN ATOMIC CHARGES
-----------------------
   0 S :    0.124724
   1 C :   -0.097653
   2 C :   -0.106893
   3 C :    0.074836
   4 C :   -0.179788
   5 H :   -0.014905
   6 C :    0.104977
   7 H :    0.015132
   8 H :    0.028918
   9 C :   -0.146986
  10 H :    0.048152
  11 H :    0.059496
  12 C :   -0.031109
  13 H :    0.023942
  14 H :    0.015877
  15 H :    0.061770
  16 S :    0.084846
  17 C :   -0.102670
  18 C :   -0.018271
  19 C :   -0.026386
  20 C :   -0.170751
  21 H :    0.002988
  22 C :    0.084526
  23 H :    0.025007
  24 H :    0.029970
  25 C :   -0.079500
  26 H :    0.007359
  27 H :    0.035260
  28 C :   -0.019737
  29 H :    0.029857
  30 H :    0.018540
  31 H :    0.040112
  32 H :    0.015301
  33 H :    0.063059
Sum of atomic charges:    0.0000000

LOEWDIN ATOMIC CHARGES
----------------------
   0 S :    0.400098
   1 C :   -0.190147
   2 C :   -0.056462
   3 C :   -0.043093
   4 C :   -0.181834
   5 H :    0.020646
   6 C :   -0.034739
   7 H :    0.030624
   8 H :    0.025369
   9 C :   -0.041651
  10 H :    0.022877
  11 H :    0.041210
  12 C :   -0.061984
  13 H :    0.016534
  14 H :    0.021342
  15 H :    0.034958
  16 S :    0.364516
  17 C :   -0.170189
  18 C :   -0.070384
  19 C :   -0.051678
  20 C :   -0.194064
  21 H :    0.025487
  22 C :   -0.029402
  23 H :    0.027878
  24 H :    0.034142
  25 C :   -0.030738
  26 H :    0.011525
  27 H :    0.025016
  28 C :   -0.062678
  29 H :    0.021510
  30 H :    0.026798
  31 H :    0.029087
  32 H :    0.006966
  33 H :    0.032458

  Mayer bond orders larger than 0.100000
B(  0-S ,  1-C ) :   1.1297 B(  0-S ,  4-C ) :   1.1594 B(  1-C ,  2-C ) :   1.6172
B(  1-C , 32-H ) :   0.9744 B(  2-C ,  3-C ) :   1.2345 B(  2-C ,  6-C ) :   1.0073
B(  3-C ,  4-C ) :   1.5622 B(  3-C ,  5-H ) :   1.0050 B(  4-C , 20-C ) :   1.0373
B(  6-C ,  7-H ) :   0.9436 B(  6-C ,  8-H ) :   0.9286 B(  6-C ,  9-C ) :   1.0687
B(  9-C , 10-H ) :   0.9536 B(  9-C , 11-H ) :   0.9579 B(  9-C , 12-C ) :   1.0540
B( 12-C , 13-H ) :   0.9775 B( 12-C , 14-H ) :   0.9756 B( 12-C , 15-H ) :   0.9775
B( 16-S , 17-C ) :   1.1303 B( 16-S , 20-C ) :   1.1127 B( 17-C , 18-C ) :   1.6669
B( 17-C , 33-H ) :   0.9631 B( 18-C , 19-C ) :   1.1587 B( 18-C , 21-H ) :   0.9992
B( 19-C , 20-C ) :   1.6437 B( 19-C , 22-C ) :   1.0647 B( 22-C , 23-H ) :   0.9182
B( 22-C , 24-H ) :   0.9258 B( 22-C , 25-C ) :   1.0755 B( 25-C , 26-H ) :   0.9560
B( 25-C , 27-H ) :   0.9525 B( 25-C , 28-C ) :   1.0920 B( 28-C , 29-H ) :   0.9740
B( 28-C , 30-H ) :   0.9715 B( 28-C , 31-H ) :   0.9757

Dispersion correction           -0.014830550
FINAL SINGLE POINT ENERGY     -1339.860632471511

DIPOLE MOMENT
-------------
                                X             Y             Z
Electronic contribution:     28.87163      -2.97323       2.34369
Nuclear contribution   :    -29.50529       3.09119      -2.34102
                        -----------------------------------------
Total Dipole Moment    :     -0.63366       0.11796       0.00267
                        -----------------------------------------
Magnitude (a.u.)       :      0.64455
Magnitude (Debye)      :      1.63831

Rotational constants in cm-1:     0.016675     0.010421     0.007211
Rotational constants in MHz :   499.903127   312.418767   216.188500

                             ****ORCA TERMINATED NORMALLY****
TOTAL RUN TIME: 0 days 0 hours 0 minutes 21 seconds 205 msec
