                         Program Version 4.2.1 -  RELEASE  -
|  1> ! wB97X-D3 SP def2-SVP
|  2> %pal
|  3> nprocs 24
|  4> end
|  5>
|  6> * xyz 0 1
|  7> S 	 -86.4679 	 -29.6695 	 -62.4956
|  8> C 	 -86.8827 	 -27.9909 	 -62.5694
|  9> C 	 -87.5525 	 -27.6026 	 -61.4528
| 10> C 	 -87.7003 	 -28.6915 	 -60.5477
| 11> C 	 -87.0985 	 -29.8617 	 -60.8529
| 12> H 	 -88.2059 	 -28.4986 	 -59.6167
| 13> C 	 -88.2933 	 -26.2435 	 -61.245
| 14> H 	 -87.5822 	 -25.5923 	 -61.6644
| 15> H 	 -88.2864 	 -25.8616 	 -60.2424
| 16> C 	 -89.5683 	 -26.0433 	 -61.9704
| 17> H 	 -89.9819 	 -25.11 	 -61.6482
| 18> H 	 -89.1969 	 -25.8985 	 -63.0288
| 19> C 	 -90.5677 	 -27.2357 	 -61.7972
| 20> H 	 -91.4778 	 -27.2377 	 -62.3665
| 21> H 	 -90.1465 	 -28.1683 	 -62.1717
| 22> H 	 -90.7815 	 -27.3954 	 -60.7269
| 23> S 	 -87.8415 	 -32.5158 	 -60.6484
| 24> C 	 -87.1754 	 -33.4776 	 -59.3118
| 25> C 	 -86.4709 	 -32.7309 	 -58.4167
| 26> C 	 -86.3732 	 -31.3067 	 -58.8053
| 27> C 	 -87.0623 	 -31.0221 	 -59.9903
| 28> H 	 -86.0374 	 -33.1585 	 -57.5202
| 29> C 	 -85.567 	 -30.3557 	 -57.978
| 30> H 	 -85.1065 	 -29.6096 	 -58.5478
| 31> H 	 -84.7992 	 -30.9862 	 -57.5719
| 32> C 	 -86.3387 	 -29.6645 	 -56.8482
| 33> H 	 -87.1305 	 -29.2078 	 -57.4224
| 34> H 	 -85.8136 	 -28.7093 	 -56.5432
| 35> C 	 -86.612 	 -30.3869 	 -55.5732
| 36> H 	 -85.6616 	 -30.6105 	 -55.1165
| 37> H 	 -87.2677 	 -31.2234 	 -55.8213
| 38> H 	 -87.1657 	 -29.726 	 -54.8484
| 39> H 	 -86.5918 	 -27.3737 	 -63.3918
| 40> H 	 -87.6207 	 -34.3685 	 -59.0606
| 41> *
| 42>
| 43>                          ****END OF INPUT****

CARTESIAN COORDINATES (ANGSTROEM)
---------------------------------
  S    -86.467900  -29.669500  -62.495600
  C    -86.882700  -27.990900  -62.569400
  C    -87.552500  -27.602600  -61.452800
  C    -87.700300  -28.691500  -60.547700
  C    -87.098500  -29.861700  -60.852900
  H    -88.205900  -28.498600  -59.616700
  C    -88.293300  -26.243500  -61.245000
  H    -87.582200  -25.592300  -61.664400
  H    -88.286400  -25.861600  -60.242400
  C    -89.568300  -26.043300  -61.970400
  H    -89.981900  -25.110000  -61.648200
  H    -89.196900  -25.898500  -63.028800
  C    -90.567700  -27.235700  -61.797200
  H    -91.477800  -27.237700  -62.366500
  H    -90.146500  -28.168300  -62.171700
  H    -90.781500  -27.395400  -60.726900
  S    -87.841500  -32.515800  -60.648400
  C    -87.175400  -33.477600  -59.311800
  C    -86.470900  -32.730900  -58.416700
  C    -86.373200  -31.306700  -58.805300
  C    -87.062300  -31.022100  -59.990300
  H    -86.037400  -33.158500  -57.520200
  C    -85.567000  -30.355700  -57.978000
  H    -85.106500  -29.609600  -58.547800
  H    -84.799200  -30.986200  -57.571900
  C    -86.338700  -29.664500  -56.848200
  H    -87.130500  -29.207800  -57.422400
  H    -85.813600  -28.709300  -56.543200
  C    -86.612000  -30.386900  -55.573200
  H    -85.661600  -30.610500  -55.116500
  H    -87.267700  -31.223400  -55.821300
  H    -87.165700  -29.726000  -54.848400
  H    -86.591800  -27.373700  -63.391800
  H    -87.620700  -34.368500  -59.060600

 Total Charge           Charge          ....    0
 Multiplicity           Mult            ....    1
 Number of Electrons    NEL             ....  134
 Basis Dimension        Dim             ....  322

ORBITAL ENERGIES
----------------

  NO   OCC          E(Eh)            E(eV)
   0   2.0000     -88.964695     -2420.8524
   1   2.0000     -88.961325     -2420.7607
   2   2.0000     -10.333221      -281.1812
   3   2.0000     -10.327007      -281.0121
   4   2.0000     -10.313843      -280.6539
   5   2.0000     -10.313299      -280.6391
   6   2.0000     -10.310944      -280.5750
   7   2.0000     -10.299532      -280.2645
   8   2.0000     -10.298173      -280.2275
   9   2.0000     -10.289620      -279.9948
  10   2.0000     -10.286817      -279.9185
  11   2.0000     -10.284880      -279.8658
  12   2.0000     -10.283605      -279.8311
  13   2.0000     -10.282967      -279.8138
  14   2.0000     -10.281532      -279.7747
  15   2.0000     -10.275177      -279.6018
  16   2.0000      -8.079580      -219.8565
  17   2.0000      -8.075293      -219.7399
  18   2.0000      -6.038181      -164.3073
  19   2.0000      -6.034064      -164.1952
  20   2.0000      -6.033997      -164.1934
  21   2.0000      -6.030195      -164.0900
  22   2.0000      -6.029942      -164.0831
  23   2.0000      -6.025855      -163.9719
  24   2.0000      -1.006471       -27.3875
  25   2.0000      -0.980056       -26.6687
  26   2.0000      -0.915261       -24.9055
  27   2.0000      -0.913660       -24.8620
  28   2.0000      -0.874041       -23.7839
  29   2.0000      -0.848927       -23.1005
  30   2.0000      -0.840495       -22.8710
  31   2.0000      -0.817891       -22.2560
  32   2.0000      -0.789738       -21.4899
  33   2.0000      -0.779180       -21.2026
  34   2.0000      -0.711174       -19.3520
  35   2.0000      -0.701057       -19.0767
  36   2.0000      -0.690581       -18.7917
  37   2.0000      -0.665160       -18.0999
  38   2.0000      -0.644874       -17.5479
  39   2.0000      -0.618681       -16.8352
  40   2.0000      -0.596087       -16.2203
  41   2.0000      -0.577925       -15.7261
  42   2.0000      -0.558636       -15.2013
  43   2.0000      -0.552401       -15.0316
  44   2.0000      -0.548941       -14.9374
  45   2.0000      -0.545811       -14.8523
  46   2.0000      -0.516802       -14.0629
  47   2.0000      -0.508588       -13.8394
  48   2.0000      -0.505486       -13.7550
  49   2.0000      -0.498539       -13.5659
  50   2.0000      -0.489920       -13.3314
  51   2.0000      -0.481911       -13.1135
  52   2.0000      -0.473305       -12.8793
  53   2.0000      -0.466963       -12.7067
  54   2.0000      -0.457113       -12.4387
  55   2.0000      -0.449961       -12.2441
  56   2.0000      -0.442481       -12.0405
  57   2.0000      -0.435608       -11.8535
  58   2.0000      -0.427315       -11.6278
  59   2.0000      -0.423147       -11.5144
  60   2.0000      -0.415903       -11.3173
  61   2.0000      -0.409766       -11.1503
  62   2.0000      -0.402394       -10.9497
  63   2.0000      -0.346108        -9.4181
  64   2.0000      -0.331815        -9.0291
  65   2.0000      -0.327608        -8.9147
  66   2.0000      -0.302040        -8.2189
  67   0.0000       0.034254         0.9321
  68   0.0000       0.057823         1.5735
  69   0.0000       0.112808         3.0697
  70   0.0000       0.118282         3.2186
  71   0.0000       0.128989         3.5100

MULLIKEN ATOMIC CHARGES
-----------------------
   0 S :    0.115046
   1 C :   -0.135382
   2 C :   -0.095620
   3 C :    0.022170
   4 C :   -0.122746
   5 H :    0.006536
   6 C :    0.086661
   7 H :    0.002539
   8 H :    0.015820
   9 C :   -0.039822
  10 H :    0.026984
  11 H :    0.029298
  12 C :   -0.052578
  13 H :    0.029446
  14 H :    0.038834
  15 H :    0.033559
  16 S :    0.074009
  17 C :   -0.046061
  18 C :   -0.039605
  19 C :   -0.055823
  20 C :   -0.179824
  21 H :    0.027269
  22 C :    0.126250
  23 H :    0.017048
  24 H :    0.005680
  25 C :   -0.093208
  26 H :    0.005011
  27 H :    0.019627
  28 C :   -0.020919
  29 H :    0.033507
  30 H :    0.039938
  31 H :    0.040988
  32 H :    0.044849
  33 H :    0.040519
Sum of atomic charges:    0.0000000

LOEWDIN ATOMIC CHARGES
----------------------
   0 S :    0.404414
   1 C :   -0.188579
   2 C :   -0.066945
   3 C :   -0.060100
   4 C :   -0.201107
   5 H :    0.025493
   6 C :   -0.034400
   7 H :    0.027355
   8 H :    0.024868
   9 C :   -0.036202
  10 H :    0.022730
  11 H :    0.029882
  12 C :   -0.070670
  13 H :    0.023611
  14 H :    0.030075
  15 H :    0.027780
  16 S :    0.362113
  17 C :   -0.159759
  18 C :   -0.065725
  19 C :   -0.041564
  20 C :   -0.176010
  21 H :    0.032965
  22 C :   -0.025942
  23 H :    0.029280
  24 H :    0.025978
  25 C :   -0.049542
  26 H :    0.018233
  27 H :    0.027343
  28 C :   -0.064753
  29 H :    0.026576
  30 H :    0.026829
  31 H :    0.036014
  32 H :    0.025919
  33 H :    0.013840

  Mayer bond orders larger than 0.100000
B(  0-S ,  1-C ) :   1.1525 B(  0-S ,  4-C ) :   1.1203 B(  1-C ,  2-C ) :   1.6048
B(  1-C , 32-H ) :   0.9715 B(  2-C ,  3-C ) :   1.2587 B(  2-C ,  6-C ) :   1.0047
B(  3-C ,  4-C ) :   1.5785 B(  3-C ,  5-H ) :   0.9947 B(  4-C , 20-C ) :   1.0504
B(  6-C ,  7-H ) :   0.9312 B(  6-C ,  8-H ) :   0.9392 B(  6-C ,  9-C ) :   1.0779
B(  9-C , 10-H ) :   0.9537 B(  9-C , 11-H ) :   0.9574 B(  9-C , 12-C ) :   1.0723
B( 12-C , 13-H ) :   0.9768 B( 12-C , 14-H ) :   0.9689 B( 12-C , 15-H ) :   0.9757
B( 16-S , 17-C ) :   1.1366 B( 16-S , 20-C ) :   1.1157 B( 17-C , 18-C ) :   1.6547
B( 17-C , 33-H ) :   0.9658 B( 18-C , 19-C ) :   1.2014 B( 18-C , 21-H ) :   0.9835
B( 19-C , 20-C ) :   1.6311 B( 19-C , 22-C ) :   1.0507 B( 22-C , 23-H ) :   0.9223
B( 22-C , 24-H ) :   0.9300 B( 22-C , 25-C ) :   1.0709 B( 25-C , 26-H ) :   0.9506
B( 25-C , 27-H ) :   0.9514 B( 25-C , 28-C ) :   1.0805 B( 28-C , 29-H ) :   0.9700
B( 28-C , 30-H ) :   0.9741 B( 28-C , 31-H ) :   0.9690

Dispersion correction           -0.015023497
FINAL SINGLE POINT ENERGY     -1339.860325433688

DIPOLE MOMENT
-------------
                                X             Y             Z
Electronic contribution:      6.24719     -16.80765     -15.25610
Nuclear contribution   :     -6.26469      17.31840      15.77921
                        -----------------------------------------
Total Dipole Moment    :     -0.01749       0.51075       0.52311
                        -----------------------------------------
Magnitude (a.u.)       :      0.73131
Magnitude (Debye)      :      1.85884

Rotational constants in cm-1:     0.019183     0.008575     0.007171
Rotational constants in MHz :   575.094394   257.072303   214.994380

                             ****ORCA TERMINATED NORMALLY****
TOTAL RUN TIME: 0 days 0 hours 0 minutes 22 seconds 3 msec
