                         Program Version 4.2.1 -  RELEASE  -
|  1> ! wB97X-D3 SP def2-SVP
|  2> %pal
|  3> nprocs 24
|  4> end
|  5>
|  6> * xyz 0 1
|  7> S 	 -46.426 	 16.5961 	 26.2048
|  8> C 	 -47.5557 	 15.762 	 25.131
|  9> C 	 -48.5342 	 16.7029 	 24.7913
| 10> C 	 -48.3109 	 18.0686 	 25.244
| 11> C 	 -47.2468 	 18.1871 	 26.092
| 12> H 	 -48.914 	 18.9143 	 25.0666
| 13> C 	 -49.5569 	 16.3776 	 23.7733
| 14> H 	 -50.4687 	 16.8515 	 24.1059
| 15> H 	 -49.7075 	 15.319 	 23.9021
| 16> C 	 -49.1354 	 16.7353 	 22.2695
| 17> H 	 -48.8478 	 17.7899 	 22.1882
| 18> H 	 -48.2102 	 16.1447 	 22.0396
| 19> C 	 -50.1405 	 16.3519 	 21.2208
| 20> H 	 -51.1564 	 16.9056 	 21.246
| 21> H 	 -49.6368 	 16.5981 	 20.2681
| 22> H 	 -50.2868 	 15.2941 	 21.1513
| 23> S 	 -47.1467 	 19.1846 	 28.6486
| 24> C 	 -46.9693 	 20.9464 	 28.9282
| 25> C 	 -46.5565 	 21.6045 	 27.7245
| 26> C 	 -46.415 	 20.6378 	 26.6013
| 27> C 	 -46.8643 	 19.3459 	 26.8745
| 28> H 	 -46.3296 	 22.6505 	 27.7163
| 29> C 	 -45.7973 	 21.0739 	 25.272
| 30> H 	 -45.4494 	 22.1331 	 25.359
| 31> H 	 -46.5778 	 21.0824 	 24.5194
| 32> C 	 -44.5466 	 20.3038 	 24.8878
| 33> H 	 -44.0147 	 20.7149 	 24.0444
| 34> H 	 -44.7798 	 19.2583 	 24.7403
| 35> C 	 -43.5271 	 20.3908 	 26.0496
| 36> H 	 -42.934 	 21.2836 	 26.0589
| 37> H 	 -42.8754 	 19.4817 	 26.1142
| 38> H 	 -43.9384 	 20.401 	 27.018
| 39> H 	 -47.6541 	 14.7087 	 24.8467
| 40> H 	 -47.0594 	 21.5506 	 29.8462
| 41> *
| 42>
| 43>                          ****END OF INPUT****

CARTESIAN COORDINATES (ANGSTROEM)
---------------------------------
  S    -46.426000   16.596100   26.204800
  C    -47.555700   15.762000   25.131000
  C    -48.534200   16.702900   24.791300
  C    -48.310900   18.068600   25.244000
  C    -47.246800   18.187100   26.092000
  H    -48.914000   18.914300   25.066600
  C    -49.556900   16.377600   23.773300
  H    -50.468700   16.851500   24.105900
  H    -49.707500   15.319000   23.902100
  C    -49.135400   16.735300   22.269500
  H    -48.847800   17.789900   22.188200
  H    -48.210200   16.144700   22.039600
  C    -50.140500   16.351900   21.220800
  H    -51.156400   16.905600   21.246000
  H    -49.636800   16.598100   20.268100
  H    -50.286800   15.294100   21.151300
  S    -47.146700   19.184600   28.648600
  C    -46.969300   20.946400   28.928200
  C    -46.556500   21.604500   27.724500
  C    -46.415000   20.637800   26.601300
  C    -46.864300   19.345900   26.874500
  H    -46.329600   22.650500   27.716300
  C    -45.797300   21.073900   25.272000
  H    -45.449400   22.133100   25.359000
  H    -46.577800   21.082400   24.519400
  C    -44.546600   20.303800   24.887800
  H    -44.014700   20.714900   24.044400
  H    -44.779800   19.258300   24.740300
  C    -43.527100   20.390800   26.049600
  H    -42.934000   21.283600   26.058900
  H    -42.875400   19.481700   26.114200
  H    -43.938400   20.401000   27.018000
  H    -47.654100   14.708700   24.846700
  H    -47.059400   21.550600   29.846200

 Total Charge           Charge          ....    0
 Multiplicity           Mult            ....    1
 Number of Electrons    NEL             ....  134
 Basis Dimension        Dim             ....  322

ORBITAL ENERGIES
----------------

  NO   OCC          E(Eh)            E(eV)
   0   2.0000     -88.967584     -2420.9310
   1   2.0000     -88.965347     -2420.8702
   2   2.0000     -10.335647      -281.2473
   3   2.0000     -10.334161      -281.2068
   4   2.0000     -10.332068      -281.1499
   5   2.0000     -10.320568      -280.8369
   6   2.0000     -10.316731      -280.7325
   7   2.0000     -10.306212      -280.4463
   8   2.0000     -10.301141      -280.3083
   9   2.0000     -10.294967      -280.1403
  10   2.0000     -10.294792      -280.1355
  11   2.0000     -10.293361      -280.0966
  12   2.0000     -10.287013      -279.9239
  13   2.0000     -10.283370      -279.8247
  14   2.0000     -10.280505      -279.7468
  15   2.0000     -10.264065      -279.2994
  16   2.0000      -8.080664      -219.8861
  17   2.0000      -8.078871      -219.8373
  18   2.0000      -6.039495      -164.3430
  19   2.0000      -6.037599      -164.2914
  20   2.0000      -6.035356      -164.2304
  21   2.0000      -6.033404      -164.1773
  22   2.0000      -6.031178      -164.1167
  23   2.0000      -6.029567      -164.0729
  24   2.0000      -0.998072       -27.1589
  25   2.0000      -0.972229       -26.4557
  26   2.0000      -0.907891       -24.7050
  27   2.0000      -0.906168       -24.6581
  28   2.0000      -0.869540       -23.6614
  29   2.0000      -0.848171       -23.0799
  30   2.0000      -0.837017       -22.7764
  31   2.0000      -0.818000       -22.2589
  32   2.0000      -0.777714       -21.1627
  33   2.0000      -0.764868       -20.8131
  34   2.0000      -0.712479       -19.3875
  35   2.0000      -0.697057       -18.9679
  36   2.0000      -0.688621       -18.7383
  37   2.0000      -0.663323       -18.0499
  38   2.0000      -0.643962       -17.5231
  39   2.0000      -0.616268       -16.7695
  40   2.0000      -0.584789       -15.9129
  41   2.0000      -0.566136       -15.4053
  42   2.0000      -0.558630       -15.2011
  43   2.0000      -0.553059       -15.0495
  44   2.0000      -0.546810       -14.8794
  45   2.0000      -0.523932       -14.2569
  46   2.0000      -0.520417       -14.1613
  47   2.0000      -0.519099       -14.1254
  48   2.0000      -0.508046       -13.8246
  49   2.0000      -0.498326       -13.5601
  50   2.0000      -0.482226       -13.1220
  51   2.0000      -0.473565       -12.8864
  52   2.0000      -0.469764       -12.7829
  53   2.0000      -0.463886       -12.6230
  54   2.0000      -0.455377       -12.3914
  55   2.0000      -0.446718       -12.1558
  56   2.0000      -0.434762       -11.8305
  57   2.0000      -0.429978       -11.7003
  58   2.0000      -0.427188       -11.6244
  59   2.0000      -0.423995       -11.5375
  60   2.0000      -0.417832       -11.3698
  61   2.0000      -0.414607       -11.2820
  62   2.0000      -0.409051       -11.1309
  63   2.0000      -0.342316        -9.3149
  64   2.0000      -0.326500        -8.8845
  65   2.0000      -0.322143        -8.7659
  66   2.0000      -0.301685        -8.2093
  67   0.0000       0.029151         0.7932
  68   0.0000       0.049991         1.3603
  69   0.0000       0.107156         2.9159
  70   0.0000       0.119065         3.2399
  71   0.0000       0.123306         3.3553

MULLIKEN ATOMIC CHARGES
-----------------------
   0 S :    0.096907
   1 C :   -0.108468
   2 C :   -0.129717
   3 C :    0.076536
   4 C :   -0.154787
   5 H :    0.001162
   6 C :    0.077115
   7 H :    0.019779
   8 H :    0.005817
   9 C :   -0.077877
  10 H :    0.033437
  11 H :    0.030264
  12 C :   -0.048329
  13 H :    0.049155
  14 H :    0.031402
  15 H :    0.027772
  16 S :    0.103761
  17 C :   -0.099561
  18 C :   -0.036713
  19 C :   -0.073765
  20 C :   -0.154302
  21 H :    0.024095
  22 C :    0.078735
  23 H :    0.016349
  24 H :    0.034109
  25 C :   -0.035045
  26 H :    0.033554
  27 H :    0.036456
  28 C :   -0.071391
  29 H :    0.019142
  30 H :    0.035401
  31 H :    0.023417
  32 H :    0.062622
  33 H :    0.072969
Sum of atomic charges:    0.0000000

LOEWDIN ATOMIC CHARGES
----------------------
   0 S :    0.377033
   1 C :   -0.197859
   2 C :   -0.064250
   3 C :   -0.050258
   4 C :   -0.184190
   5 H :    0.028269
   6 C :   -0.037469
   7 H :    0.026635
   8 H :    0.025156
   9 C :   -0.038380
  10 H :    0.024848
  11 H :    0.031524
  12 C :   -0.074434
  13 H :    0.034269
  14 H :    0.031520
  15 H :    0.020609
  16 S :    0.377296
  17 C :   -0.177790
  18 C :   -0.071207
  19 C :   -0.043753
  20 C :   -0.190257
  21 H :    0.028658
  22 C :   -0.033787
  23 H :    0.032189
  24 H :    0.028803
  25 C :   -0.034470
  26 H :    0.026592
  27 H :    0.022476
  28 C :   -0.069313
  29 H :    0.019117
  30 H :    0.033321
  31 H :    0.018732
  32 H :    0.040359
  33 H :    0.040012

  Mayer bond orders larger than 0.100000
B(  0-S ,  1-C ) :   1.1188 B(  0-S ,  4-C ) :   1.1242 B(  1-C ,  2-C ) :   1.6134
B(  1-C , 32-H ) :   0.9661 B(  2-C ,  3-C ) :   1.2058 B(  2-C ,  6-C ) :   1.0571
B(  3-C ,  4-C ) :   1.6037 B(  3-C ,  5-H ) :   1.0016 B(  4-C , 20-C ) :   1.0436
B(  6-C ,  7-H ) :   0.9343 B(  6-C ,  8-H ) :   0.9364 B(  6-C ,  9-C ) :   1.0437
B(  9-C , 10-H ) :   0.9591 B(  9-C , 11-H ) :   0.9526 B(  9-C , 12-C ) :   1.0895
B( 12-C , 13-H ) :   0.9725 B( 12-C , 14-H ) :   0.9701 B( 12-C , 15-H ) :   0.9733
B( 16-S , 17-C ) :   1.1498 B( 16-S , 20-C ) :   1.1040 B( 17-C , 18-C ) :   1.6233
B( 17-C , 33-H ) :   0.9628 B( 18-C , 19-C ) :   1.2183 B( 18-C , 21-H ) :   0.9870
B( 19-C , 20-C ) :   1.6133 B( 19-C , 22-C ) :   1.0348 B( 22-C , 23-H ) :   0.9401
B( 22-C , 24-H ) :   0.9330 B( 22-C , 25-C ) :   1.0718 B( 25-C , 26-H ) :   0.9601
B( 25-C , 27-H ) :   0.9579 B( 25-C , 28-C ) :   1.0597 B( 28-C , 29-H ) :   0.9768
B( 28-C , 30-H ) :   0.9748 B( 28-C , 31-H ) :   0.9756

Dispersion correction           -0.014909209
FINAL SINGLE POINT ENERGY     -1339.859869863637

DIPOLE MOMENT
-------------
                                X             Y             Z
Electronic contribution:      0.64127      -3.06540      22.50685
Nuclear contribution   :     -0.85784       3.39959     -23.02347
                        -----------------------------------------
Total Dipole Moment    :     -0.21657       0.33419      -0.51661
                        -----------------------------------------
Magnitude (a.u.)       :      0.65229
Magnitude (Debye)      :      1.65798

Rotational constants in cm-1:     0.021624     0.007650     0.007034
Rotational constants in MHz :   648.259049   229.353165   210.862693

                             ****ORCA TERMINATED NORMALLY****
TOTAL RUN TIME: 0 days 0 hours 0 minutes 20 seconds 370 msec
