                         Program Version 4.2.1 -  RELEASE  -
|  1> ! wB97X-D3 SP def2-SVP
|  2> %pal
|  3> nprocs 24
|  4> end
|  5>
|  6> * xyz 0 1
|  7> S 	 -30.5142 	 -38.1371 	 -91.5956
|  8> C 	 -29.8393 	 -36.7446 	 -92.3354
|  9> C 	 -30.8397 	 -35.9323 	 -92.8116
| 10> C 	 -32.1289 	 -36.4608 	 -92.6062
| 11> C 	 -32.1284 	 -37.6789 	 -91.9965
| 12> H 	 -33.0643 	 -35.8778 	 -92.7985
| 13> C 	 -30.7818 	 -34.6609 	 -93.554
| 14> H 	 -31.3263 	 -34.932 	 -94.551
| 15> H 	 -29.7452 	 -34.5066 	 -93.8416
| 16> C 	 -31.2772 	 -33.3569 	 -92.9491
| 17> H 	 -31.0218 	 -32.4666 	 -93.5759
| 18> H 	 -32.3357 	 -33.3317 	 -92.7103
| 19> C 	 -30.465 	 -33.1 	 -91.6841
| 20> H 	 -30.827 	 -33.8275 	 -90.904
| 21> H 	 -29.3776 	 -33.2562 	 -91.8046
| 22> H 	 -30.5259 	 -32.0639 	 -91.3293
| 23> S 	 -33.4271 	 -40.1673 	 -91.5611
| 24> C 	 -34.8987 	 -40.1909 	 -90.6695
| 25> C 	 -35.348 	 -38.9996 	 -90.3875
| 26> C 	 -34.4519 	 -37.9722 	 -90.7955
| 27> C 	 -33.2774 	 -38.4493 	 -91.4465
| 28> H 	 -36.1734 	 -38.7964 	 -89.836
| 29> C 	 -34.7713 	 -36.5172 	 -90.3938
| 30> H 	 -33.884 	 -36.0153 	 -89.9894
| 31> H 	 -35.5446 	 -36.6872 	 -89.626
| 32> C 	 -35.4512 	 -35.58 	 -91.4293
| 33> H 	 -34.7193 	 -34.7971 	 -91.7065
| 34> H 	 -36.0911 	 -34.9494 	 -90.8286
| 35> C 	 -36.1974 	 -36.1609 	 -92.6328
| 36> H 	 -35.6822 	 -36.9692 	 -93.1294
| 37> H 	 -36.4812 	 -35.2961 	 -93.3101
| 38> H 	 -37.1192 	 -36.7511 	 -92.44
| 39> H 	 -28.8344 	 -36.4516 	 -92.3009
| 40> H 	 -35.564 	 -41.0516 	 -90.5522
| 41> *
| 42>
| 43>                          ****END OF INPUT****

CARTESIAN COORDINATES (ANGSTROEM)
---------------------------------
  S    -30.514200  -38.137100  -91.595600
  C    -29.839300  -36.744600  -92.335400
  C    -30.839700  -35.932300  -92.811600
  C    -32.128900  -36.460800  -92.606200
  C    -32.128400  -37.678900  -91.996500
  H    -33.064300  -35.877800  -92.798500
  C    -30.781800  -34.660900  -93.554000
  H    -31.326300  -34.932000  -94.551000
  H    -29.745200  -34.506600  -93.841600
  C    -31.277200  -33.356900  -92.949100
  H    -31.021800  -32.466600  -93.575900
  H    -32.335700  -33.331700  -92.710300
  C    -30.465000  -33.100000  -91.684100
  H    -30.827000  -33.827500  -90.904000
  H    -29.377600  -33.256200  -91.804600
  H    -30.525900  -32.063900  -91.329300
  S    -33.427100  -40.167300  -91.561100
  C    -34.898700  -40.190900  -90.669500
  C    -35.348000  -38.999600  -90.387500
  C    -34.451900  -37.972200  -90.795500
  C    -33.277400  -38.449300  -91.446500
  H    -36.173400  -38.796400  -89.836000
  C    -34.771300  -36.517200  -90.393800
  H    -33.884000  -36.015300  -89.989400
  H    -35.544600  -36.687200  -89.626000
  C    -35.451200  -35.580000  -91.429300
  H    -34.719300  -34.797100  -91.706500
  H    -36.091100  -34.949400  -90.828600
  C    -36.197400  -36.160900  -92.632800
  H    -35.682200  -36.969200  -93.129400
  H    -36.481200  -35.296100  -93.310100
  H    -37.119200  -36.751100  -92.440000
  H    -28.834400  -36.451600  -92.300900
  H    -35.564000  -41.051600  -90.552200

 Total Charge           Charge          ....    0
 Multiplicity           Mult            ....    1
 Number of Electrons    NEL             ....  134
 Basis Dimension        Dim             ....  322

ORBITAL ENERGIES
----------------

  NO   OCC          E(Eh)            E(eV)
   0   2.0000     -88.965397     -2420.8715
   1   2.0000     -88.964696     -2420.8525
   2   2.0000     -10.330582      -281.1094
   3   2.0000     -10.329379      -281.0767
   4   2.0000     -10.308721      -280.5145
   5   2.0000     -10.308628      -280.5120
   6   2.0000     -10.302647      -280.3493
   7   2.0000     -10.294410      -280.1252
   8   2.0000     -10.294177      -280.1188
   9   2.0000     -10.294143      -280.1179
  10   2.0000     -10.292099      -280.0622
  11   2.0000     -10.290012      -280.0055
  12   2.0000     -10.289567      -279.9933
  13   2.0000     -10.284112      -279.8449
  14   2.0000     -10.280474      -279.7459
  15   2.0000     -10.278082      -279.6808
  16   2.0000      -8.081084      -219.8975
  17   2.0000      -8.080631      -219.8851
  18   2.0000      -6.039572      -164.3451
  19   2.0000      -6.039108      -164.3325
  20   2.0000      -6.035369      -164.2307
  21   2.0000      -6.034906      -164.2181
  22   2.0000      -6.031894      -164.1362
  23   2.0000      -6.031417      -164.1232
  24   2.0000      -1.015237       -27.6260
  25   2.0000      -0.997781       -27.1510
  26   2.0000      -0.919371       -25.0173
  27   2.0000      -0.904112       -24.6021
  28   2.0000      -0.875208       -23.8156
  29   2.0000      -0.852286       -23.1919
  30   2.0000      -0.847717       -23.0676
  31   2.0000      -0.820822       -22.3357
  32   2.0000      -0.782222       -21.2853
  33   2.0000      -0.772974       -21.0337
  34   2.0000      -0.713423       -19.4132
  35   2.0000      -0.700496       -19.0615
  36   2.0000      -0.690300       -18.7840
  37   2.0000      -0.664997       -18.0955
  38   2.0000      -0.639522       -17.4023
  39   2.0000      -0.629230       -17.1222
  40   2.0000      -0.587570       -15.9886
  41   2.0000      -0.576683       -15.6924
  42   2.0000      -0.558248       -15.1907
  43   2.0000      -0.553278       -15.0555
  44   2.0000      -0.543697       -14.7947
  45   2.0000      -0.542123       -14.7519
  46   2.0000      -0.514343       -13.9960
  47   2.0000      -0.510784       -13.8991
  48   2.0000      -0.506803       -13.7908
  49   2.0000      -0.497396       -13.5348
  50   2.0000      -0.492084       -13.3903
  51   2.0000      -0.478835       -13.0298
  52   2.0000      -0.476646       -12.9702
  53   2.0000      -0.467587       -12.7237
  54   2.0000      -0.459603       -12.5064
  55   2.0000      -0.448290       -12.1986
  56   2.0000      -0.442131       -12.0310
  57   2.0000      -0.436605       -11.8806
  58   2.0000      -0.433880       -11.8065
  59   2.0000      -0.428928       -11.6717
  60   2.0000      -0.420975       -11.4553
  61   2.0000      -0.412777       -11.2322
  62   2.0000      -0.397733       -10.8229
  63   2.0000      -0.357525        -9.7287
  64   2.0000      -0.331959        -9.0331
  65   2.0000      -0.328990        -8.9523
  66   2.0000      -0.293350        -7.9825
  67   0.0000       0.032986         0.8976
  68   0.0000       0.077743         2.1155
  69   0.0000       0.117693         3.2026
  70   0.0000       0.121279         3.3002
  71   0.0000       0.122920         3.3448

MULLIKEN ATOMIC CHARGES
-----------------------
   0 S :    0.112587
   1 C :   -0.085737
   2 C :   -0.102624
   3 C :   -0.010678
   4 C :   -0.107176
   5 H :    0.020371
   6 C :    0.028148
   7 H :    0.054973
   8 H :    0.008372
   9 C :   -0.043761
  10 H :    0.040422
  11 H :    0.035006
  12 C :   -0.096330
  13 H :    0.049742
  14 H :    0.026151
  15 H :    0.035723
  16 S :    0.110406
  17 C :   -0.061920
  18 C :    0.008950
  19 C :   -0.107075
  20 C :   -0.139081
  21 H :   -0.024172
  22 C :    0.083558
  23 H :    0.045238
  24 H :    0.017062
  25 C :   -0.089612
  26 H :    0.019666
  27 H :    0.016467
  28 C :   -0.042126
  29 H :    0.038505
  30 H :    0.050712
  31 H :    0.025830
  32 H :    0.024415
  33 H :    0.057987
Sum of atomic charges:    0.0000000

LOEWDIN ATOMIC CHARGES
----------------------
   0 S :    0.431538
   1 C :   -0.200211
   2 C :   -0.072802
   3 C :   -0.068661
   4 C :   -0.195061
   5 H :    0.041018
   6 C :   -0.041337
   7 H :    0.046154
   8 H :    0.026207
   9 C :   -0.043117
  10 H :    0.033971
  11 H :    0.021160
  12 C :   -0.072707
  13 H :    0.031108
  14 H :    0.023285
  15 H :    0.024086
  16 S :    0.424959
  17 C :   -0.189392
  18 C :   -0.069436
  19 C :   -0.055265
  20 C :   -0.212849
  21 H :    0.016553
  22 C :   -0.032690
  23 H :    0.036478
  24 H :    0.031495
  25 C :   -0.053461
  26 H :    0.021753
  27 H :    0.024402
  28 C :   -0.079322
  29 H :    0.026244
  30 H :    0.038748
  31 H :    0.029493
  32 H :    0.020120
  33 H :    0.037539

  Mayer bond orders larger than 0.100000
B(  0-S ,  1-C ) :   1.1418 B(  0-S ,  4-C ) :   1.1714 B(  1-C ,  2-C ) :   1.5900
B(  1-C , 32-H ) :   0.9738 B(  2-C ,  3-C ) :   1.2486 B(  2-C ,  6-C ) :   1.0238
B(  3-C ,  4-C ) :   1.5675 B(  3-C ,  5-H ) :   0.9968 B(  4-C , 20-C ) :   1.0155
B(  6-C ,  7-H ) :   0.9395 B(  6-C ,  8-H ) :   0.9371 B(  6-C ,  9-C ) :   1.0736
B(  9-C , 10-H ) :   0.9546 B(  9-C , 11-H ) :   0.9550 B(  9-C , 12-C ) :   1.0664
B( 12-C , 13-H ) :   0.9730 B( 12-C , 14-H ) :   0.9752 B( 12-C , 15-H ) :   0.9752
B( 16-S , 17-C ) :   1.1548 B( 16-S , 20-C ) :   1.1527 B( 17-C , 18-C ) :   1.6114
B( 17-C , 33-H ) :   0.9552 B( 18-C , 19-C ) :   1.2755 B( 18-C , 21-H ) :   1.0027
B( 19-C , 20-C ) :   1.5540 B( 19-C , 22-C ) :   1.0426 B( 22-C , 23-H ) :   0.9405
B( 22-C , 24-H ) :   0.9360 B( 22-C , 25-C ) :   1.0531 B( 25-C , 26-H ) :   0.9550
B( 25-C , 27-H ) :   0.9500 B( 25-C , 28-C ) :   1.0843 B( 28-C , 29-H ) :   0.9641
B( 28-C , 30-H ) :   0.9724 B( 28-C , 31-H ) :   0.9695

Dispersion correction           -0.015837842
FINAL SINGLE POINT ENERGY     -1339.867802487570

DIPOLE MOMENT
-------------
                                X             Y             Z
Electronic contribution:      7.99913     -28.08271       3.11540
Nuclear contribution   :     -8.36915      28.74621      -3.03805
                        -----------------------------------------
Total Dipole Moment    :     -0.37002       0.66350       0.07734
                        -----------------------------------------
Magnitude (a.u.)       :      0.76363
Magnitude (Debye)      :      1.94099

Rotational constants in cm-1:     0.019948     0.009967     0.007323
Rotational constants in MHz :   598.013036   298.793746   219.550687

                             ****ORCA TERMINATED NORMALLY****
TOTAL RUN TIME: 0 days 0 hours 0 minutes 23 seconds 88 msec
