                         Program Version 4.2.1 -  RELEASE  -
|  1> ! wB97X-D3 SP def2-SVP
|  2> %pal
|  3> nprocs 24
|  4> end
|  5>
|  6> * xyz 0 1
|  7> S 	 -106.965 	 48.4628 	 -97.1375
|  8> C 	 -107.476 	 50.1274 	 -96.9256
|  9> C 	 -107.372 	 50.8588 	 -98.0653
| 10> C 	 -106.902 	 50.0509 	 -99.1638
| 11> C 	 -106.589 	 48.7863 	 -98.8045
| 12> H 	 -106.842 	 50.3547 	 -100.207
| 13> C 	 -107.931 	 52.2462 	 -98.2382
| 14> H 	 -107.258 	 52.8637 	 -98.8825
| 15> H 	 -107.961 	 52.8633 	 -97.3301
| 16> C 	 -109.294 	 52.3477 	 -98.9047
| 17> H 	 -109.41 	 53.3893 	 -99.2715
| 18> H 	 -109.291 	 51.7955 	 -99.8147
| 19> C 	 -110.543 	 51.9496 	 -98.0553
| 20> H 	 -110.511 	 50.8869 	 -97.9277
| 21> H 	 -110.561 	 52.3479 	 -97.0245
| 22> H 	 -111.385 	 52.3285 	 -98.577
| 23> S 	 -107.531 	 46.4768 	 -99.8158
| 24> C 	 -106.603 	 45.6061 	 -100.936
| 25> C 	 -105.387 	 46.2427 	 -101.229
| 26> C 	 -105.206 	 47.5034 	 -100.595
| 27> C 	 -106.256 	 47.6468 	 -99.6445
| 28> H 	 -104.662 	 45.7471 	 -101.899
| 29> C 	 -104.271 	 48.5493 	 -101.019
| 30> H 	 -104.808 	 49.4883 	 -100.998
| 31> H 	 -104.255 	 48.2974 	 -102.069
| 32> C 	 -102.843 	 48.5037 	 -100.411
| 33> H 	 -102.513 	 47.4695 	 -100.418
| 34> H 	 -102.812 	 48.8127 	 -99.322
| 35> C 	 -101.891 	 49.4175 	 -101.279
| 36> H 	 -101.267 	 50.0124 	 -100.614
| 37> H 	 -102.425 	 50.2153 	 -101.797
| 38> H 	 -101.265 	 48.8056 	 -101.91
| 39> H 	 -107.609 	 50.4658 	 -95.9294
| 40> H 	 -106.81 	 44.6718 	 -101.337
| 41> *
| 42>
| 43>                          ****END OF INPUT****

CARTESIAN COORDINATES (ANGSTROEM)
---------------------------------
  S    -106.965000   48.462800  -97.137500
  C    -107.476000   50.127400  -96.925600
  C    -107.372000   50.858800  -98.065300
  C    -106.902000   50.050900  -99.163800
  C    -106.589000   48.786300  -98.804500
  H    -106.842000   50.354700  -100.207000
  C    -107.931000   52.246200  -98.238200
  H    -107.258000   52.863700  -98.882500
  H    -107.961000   52.863300  -97.330100
  C    -109.294000   52.347700  -98.904700
  H    -109.410000   53.389300  -99.271500
  H    -109.291000   51.795500  -99.814700
  C    -110.543000   51.949600  -98.055300
  H    -110.511000   50.886900  -97.927700
  H    -110.561000   52.347900  -97.024500
  H    -111.385000   52.328500  -98.577000
  S    -107.531000   46.476800  -99.815800
  C    -106.603000   45.606100  -100.936000
  C    -105.387000   46.242700  -101.229000
  C    -105.206000   47.503400  -100.595000
  C    -106.256000   47.646800  -99.644500
  H    -104.662000   45.747100  -101.899000
  C    -104.271000   48.549300  -101.019000
  H    -104.808000   49.488300  -100.998000
  H    -104.255000   48.297400  -102.069000
  C    -102.843000   48.503700  -100.411000
  H    -102.513000   47.469500  -100.418000
  H    -102.812000   48.812700  -99.322000
  C    -101.891000   49.417500  -101.279000
  H    -101.267000   50.012400  -100.614000
  H    -102.425000   50.215300  -101.797000
  H    -101.265000   48.805600  -101.910000
  H    -107.609000   50.465800  -95.929400
  H    -106.810000   44.671800  -101.337000

 Total Charge           Charge          ....    0
 Multiplicity           Mult            ....    1
 Number of Electrons    NEL             ....  134
 Basis Dimension        Dim             ....  322

ORBITAL ENERGIES
----------------

  NO   OCC          E(Eh)            E(eV)
   0   2.0000     -88.967264     -2420.9223
   1   2.0000     -88.959514     -2420.7114
   2   2.0000     -10.321744      -280.8689
   3   2.0000     -10.320251      -280.8283
   4   2.0000     -10.308247      -280.5017
   5   2.0000     -10.307447      -280.4799
   6   2.0000     -10.300936      -280.3027
   7   2.0000     -10.300629      -280.2944
   8   2.0000     -10.294739      -280.1341
   9   2.0000     -10.293520      -280.1009
  10   2.0000     -10.292764      -280.0803
  11   2.0000     -10.292163      -280.0640
  12   2.0000     -10.288586      -279.9667
  13   2.0000     -10.284079      -279.8440
  14   2.0000     -10.278754      -279.6991
  15   2.0000     -10.272120      -279.5186
  16   2.0000      -8.082800      -219.9442
  17   2.0000      -8.075137      -219.7356
  18   2.0000      -6.041069      -164.3858
  19   2.0000      -6.037141      -164.2790
  20   2.0000      -6.033830      -164.1889
  21   2.0000      -6.033516      -164.1803
  22   2.0000      -6.029604      -164.0739
  23   2.0000      -6.025897      -163.9730
  24   2.0000      -1.011075       -27.5128
  25   2.0000      -0.986840       -26.8533
  26   2.0000      -0.912002       -24.8168
  27   2.0000      -0.909690       -24.7539
  28   2.0000      -0.866813       -23.5872
  29   2.0000      -0.852699       -23.2031
  30   2.0000      -0.844017       -22.9669
  31   2.0000      -0.811819       -22.0907
  32   2.0000      -0.786222       -21.3942
  33   2.0000      -0.773180       -21.0393
  34   2.0000      -0.710462       -19.3326
  35   2.0000      -0.699610       -19.0374
  36   2.0000      -0.691516       -18.8171
  37   2.0000      -0.658389       -17.9157
  38   2.0000      -0.647362       -17.6156
  39   2.0000      -0.623016       -16.9531
  40   2.0000      -0.596524       -16.2322
  41   2.0000      -0.565191       -15.3796
  42   2.0000      -0.557795       -15.1784
  43   2.0000      -0.548776       -14.9330
  44   2.0000      -0.533468       -14.5164
  45   2.0000      -0.528216       -14.3735
  46   2.0000      -0.518089       -14.0979
  47   2.0000      -0.512112       -13.9353
  48   2.0000      -0.500395       -13.6164
  49   2.0000      -0.497289       -13.5319
  50   2.0000      -0.493422       -13.4267
  51   2.0000      -0.484797       -13.1920
  52   2.0000      -0.470652       -12.8071
  53   2.0000      -0.466035       -12.6814
  54   2.0000      -0.452878       -12.3234
  55   2.0000      -0.449039       -12.2190
  56   2.0000      -0.444588       -12.0979
  57   2.0000      -0.441205       -12.0058
  58   2.0000      -0.432740       -11.7755
  59   2.0000      -0.427362       -11.6291
  60   2.0000      -0.422796       -11.5049
  61   2.0000      -0.414928       -11.2908
  62   2.0000      -0.409028       -11.1302
  63   2.0000      -0.342981        -9.3330
  64   2.0000      -0.329378        -8.9628
  65   2.0000      -0.325950        -8.8696
  66   2.0000      -0.293048        -7.9742
  67   0.0000       0.039004         1.0613
  68   0.0000       0.066419         1.8073
  69   0.0000       0.110157         2.9975
  70   0.0000       0.120420         3.2768
  71   0.0000       0.127559         3.4711

MULLIKEN ATOMIC CHARGES
-----------------------
   0 S :    0.092412
   1 C :   -0.124917
   2 C :   -0.041549
   3 C :    0.027424
   4 C :   -0.163094
   5 H :    0.020554
   6 C :    0.047285
   7 H :    0.022146
   8 H :    0.020725
   9 C :   -0.082112
  10 H :    0.023947
  11 H :    0.016951
  12 C :   -0.028486
  13 H :    0.038814
  14 H :    0.024117
  15 H :    0.032870
  16 S :    0.138651
  17 C :   -0.062092
  18 C :   -0.068267
  19 C :   -0.039025
  20 C :   -0.175550
  21 H :    0.024498
  22 C :    0.083748
  23 H :    0.014154
  24 H :    0.021659
  25 C :   -0.079658
  26 H :    0.030328
  27 H :    0.052312
  28 C :   -0.032408
  29 H :    0.022946
  30 H :    0.031300
  31 H :    0.041233
  32 H :    0.042300
  33 H :    0.026786
Sum of atomic charges:   -0.0000000

LOEWDIN ATOMIC CHARGES
----------------------
   0 S :    0.397495
   1 C :   -0.184413
   2 C :   -0.063488
   3 C :   -0.063420
   4 C :   -0.196372
   5 H :    0.031845
   6 C :   -0.038263
   7 H :    0.033820
   8 H :    0.030131
   9 C :   -0.039174
  10 H :    0.025154
  11 H :    0.018283
  12 C :   -0.060904
  13 H :    0.025047
  14 H :    0.025485
  15 H :    0.023595
  16 S :    0.445165
  17 C :   -0.202377
  18 C :   -0.074371
  19 C :   -0.052536
  20 C :   -0.213486
  21 H :    0.032204
  22 C :   -0.037484
  23 H :    0.030129
  24 H :    0.037636
  25 C :   -0.034284
  26 H :    0.024191
  27 H :    0.034143
  28 C :   -0.065762
  29 H :    0.026220
  30 H :    0.026078
  31 H :    0.025460
  32 H :    0.019284
  33 H :    0.014967

  Mayer bond orders larger than 0.100000
B(  0-S ,  1-C ) :   1.1305 B(  0-S ,  4-C ) :   1.1516 B(  1-C ,  2-C ) :   1.6286
B(  1-C , 32-H ) :   0.9742 B(  2-C ,  3-C ) :   1.2027 B(  2-C ,  6-C ) :   1.0406
B(  3-C ,  4-C ) :   1.6196 B(  3-C ,  5-H ) :   0.9867 B(  4-C , 20-C ) :   0.9987
B(  6-C ,  7-H ) :   0.9328 B(  6-C ,  8-H ) :   0.9432 B(  6-C ,  9-C ) :   1.0800
B(  9-C , 10-H ) :   0.9555 B(  9-C , 11-H ) :   0.9528 B(  9-C , 12-C ) :   1.0703
B( 12-C , 13-H ) :   0.9772 B( 12-C , 14-H ) :   0.9761 B( 12-C , 15-H ) :   0.9750
B( 16-S , 17-C ) :   1.1706 B( 16-S , 20-C ) :   1.1786 B( 17-C , 18-C ) :   1.5892
B( 17-C , 20-C ) :   0.1047 B( 17-C , 33-H ) :   0.9744 B( 18-C , 19-C ) :   1.2683
B( 18-C , 21-H ) :   0.9806 B( 19-C , 20-C ) :   1.5451 B( 19-C , 22-C ) :   1.0323
B( 22-C , 23-H ) :   0.9239 B( 22-C , 24-H ) :   0.9335 B( 22-C , 25-C ) :   1.0497
B( 25-C , 26-H ) :   0.9635 B( 25-C , 27-H ) :   0.9622 B( 25-C , 28-C ) :   1.0571
B( 28-C , 29-H ) :   0.9773 B( 28-C , 30-H ) :   0.9776 B( 28-C , 31-H ) :   0.9801

Dispersion correction           -0.014095188
FINAL SINGLE POINT ENERGY     -1339.873971260603

DIPOLE MOMENT
-------------
                                X             Y             Z
Electronic contribution:     -5.79109     -19.55184       7.60055
Nuclear contribution   :      5.96141      19.96358      -8.01795
                        -----------------------------------------
Total Dipole Moment    :      0.17032       0.41175      -0.41740
                        -----------------------------------------
Magnitude (a.u.)       :      0.61055
Magnitude (Debye)      :      1.55189

Rotational constants in cm-1:     0.018510     0.008420     0.006930
Rotational constants in MHz :   554.927632   252.415660   207.761182

                             ****ORCA TERMINATED NORMALLY****
TOTAL RUN TIME: 0 days 0 hours 0 minutes 21 seconds 384 msec
