                         Program Version 4.2.1 -  RELEASE  -
|  1> ! wB97X-D3 SP def2-SVP
|  2> %pal
|  3> nprocs 24
|  4> end
|  5>
|  6> * xyz 0 1
|  7> S 	 -47.3803 	 16.8169 	 20.5289
|  8> C 	 -49.0821 	 16.823 	 20.3169
|  9> C 	 -49.5618 	 15.6119 	 19.9732
| 10> C 	 -48.5477 	 14.6516 	 19.6385
| 11> C 	 -47.2541 	 15.1934 	 19.6951
| 12> H 	 -48.7239 	 13.6837 	 19.2773
| 13> C 	 -51.0028 	 15.1628 	 19.898
| 14> H 	 -51.1283 	 14.1372 	 20.1445
| 15> H 	 -51.1537 	 15.2772 	 18.8413
| 16> C 	 -51.9825 	 16.0438 	 20.6028
| 17> H 	 -51.9581 	 17.1141 	 20.3499
| 18> H 	 -53.0317 	 15.7118 	 20.4278
| 19> C 	 -51.7227 	 15.9417 	 22.0908
| 20> H 	 -50.6728 	 16.2162 	 22.3172
| 21> H 	 -52.3578 	 16.6672 	 22.6419
| 22> H 	 -51.8603 	 14.9117 	 22.3863
| 23> S 	 -45.2942 	 13.363 	 20.4744
| 24> C 	 -43.9508 	 13.1385 	 19.3879
| 25> C 	 -43.9917 	 13.9959 	 18.3057
| 26> C 	 -45.1728 	 14.7803 	 18.3156
| 27> C 	 -45.9747 	 14.5608 	 19.4069
| 28> H 	 -43.1786 	 13.9783 	 17.6603
| 29> C 	 -45.5556 	 15.6777 	 17.0907
| 30> H 	 -46.5488 	 16.0779 	 17.2307
| 31> H 	 -45.6024 	 15.0714 	 16.2129
| 32> C 	 -44.5414 	 16.8396 	 16.7884
| 33> H 	 -44.8945 	 17.2704 	 15.8997
| 34> H 	 -43.6052 	 16.3131 	 16.6068
| 35> C 	 -44.3303 	 17.7123 	 18.0057
| 36> H 	 -43.4755 	 18.4439 	 17.9649
| 37> H 	 -43.9165 	 17.1219 	 18.8859
| 38> H 	 -45.2267 	 18.2607 	 18.4121
| 39> H 	 -49.6369 	 17.6661 	 20.5731
| 40> H 	 -43.1215 	 12.5454 	 19.7633
| 41> *
| 42>
| 43>                          ****END OF INPUT****

CARTESIAN COORDINATES (ANGSTROEM)
---------------------------------
  S    -47.380300   16.816900   20.528900
  C    -49.082100   16.823000   20.316900
  C    -49.561800   15.611900   19.973200
  C    -48.547700   14.651600   19.638500
  C    -47.254100   15.193400   19.695100
  H    -48.723900   13.683700   19.277300
  C    -51.002800   15.162800   19.898000
  H    -51.128300   14.137200   20.144500
  H    -51.153700   15.277200   18.841300
  C    -51.982500   16.043800   20.602800
  H    -51.958100   17.114100   20.349900
  H    -53.031700   15.711800   20.427800
  C    -51.722700   15.941700   22.090800
  H    -50.672800   16.216200   22.317200
  H    -52.357800   16.667200   22.641900
  H    -51.860300   14.911700   22.386300
  S    -45.294200   13.363000   20.474400
  C    -43.950800   13.138500   19.387900
  C    -43.991700   13.995900   18.305700
  C    -45.172800   14.780300   18.315600
  C    -45.974700   14.560800   19.406900
  H    -43.178600   13.978300   17.660300
  C    -45.555600   15.677700   17.090700
  H    -46.548800   16.077900   17.230700
  H    -45.602400   15.071400   16.212900
  C    -44.541400   16.839600   16.788400
  H    -44.894500   17.270400   15.899700
  H    -43.605200   16.313100   16.606800
  C    -44.330300   17.712300   18.005700
  H    -43.475500   18.443900   17.964900
  H    -43.916500   17.121900   18.885900
  H    -45.226700   18.260700   18.412100
  H    -49.636900   17.666100   20.573100
  H    -43.121500   12.545400   19.763300

 Total Charge           Charge          ....    0
 Multiplicity           Mult            ....    1
 Number of Electrons    NEL             ....  134
 Basis Dimension        Dim             ....  322

ORBITAL ENERGIES
----------------

  NO   OCC          E(Eh)            E(eV)
   0   2.0000     -88.964363     -2420.8434
   1   2.0000     -88.960445     -2420.7368
   2   2.0000     -10.333481      -281.1883
   3   2.0000     -10.321157      -280.8530
   4   2.0000     -10.318218      -280.7730
   5   2.0000     -10.303740      -280.3790
   6   2.0000     -10.303160      -280.3632
   7   2.0000     -10.296206      -280.1740
   8   2.0000     -10.294227      -280.1201
   9   2.0000     -10.291135      -280.0360
  10   2.0000     -10.287000      -279.9235
  11   2.0000     -10.285139      -279.8729
  12   2.0000     -10.284936      -279.8673
  13   2.0000     -10.282768      -279.8083
  14   2.0000     -10.279421      -279.7173
  15   2.0000     -10.272275      -279.5228
  16   2.0000      -8.079673      -219.8591
  17   2.0000      -8.074797      -219.7264
  18   2.0000      -6.037987      -164.3020
  19   2.0000      -6.034096      -164.1961
  20   2.0000      -6.033337      -164.1755
  21   2.0000      -6.030615      -164.1014
  22   2.0000      -6.029531      -164.0719
  23   2.0000      -6.025362      -163.9584
  24   2.0000      -1.004999       -27.3474
  25   2.0000      -0.986291       -26.8384
  26   2.0000      -0.919637       -25.0246
  27   2.0000      -0.902428       -24.5563
  28   2.0000      -0.869937       -23.6722
  29   2.0000      -0.849097       -23.1051
  30   2.0000      -0.844539       -22.9811
  31   2.0000      -0.811567       -22.0839
  32   2.0000      -0.780819       -21.2472
  33   2.0000      -0.771170       -20.9846
  34   2.0000      -0.707247       -19.2452
  35   2.0000      -0.696745       -18.9594
  36   2.0000      -0.692898       -18.8547
  37   2.0000      -0.660791       -17.9810
  38   2.0000      -0.650008       -17.6876
  39   2.0000      -0.610000       -16.5989
  40   2.0000      -0.599227       -16.3058
  41   2.0000      -0.583786       -15.8856
  42   2.0000      -0.560216       -15.2442
  43   2.0000      -0.547986       -14.9115
  44   2.0000      -0.539546       -14.6818
  45   2.0000      -0.534287       -14.5387
  46   2.0000      -0.522960       -14.2305
  47   2.0000      -0.515341       -14.0231
  48   2.0000      -0.505672       -13.7600
  49   2.0000      -0.493960       -13.4413
  50   2.0000      -0.483745       -13.1634
  51   2.0000      -0.479085       -13.0366
  52   2.0000      -0.469243       -12.7688
  53   2.0000      -0.463069       -12.6007
  54   2.0000      -0.455492       -12.3946
  55   2.0000      -0.449069       -12.2198
  56   2.0000      -0.439295       -11.9538
  57   2.0000      -0.432984       -11.7821
  58   2.0000      -0.432118       -11.7585
  59   2.0000      -0.423430       -11.5221
  60   2.0000      -0.417775       -11.3682
  61   2.0000      -0.414019       -11.2660
  62   2.0000      -0.407558       -11.0902
  63   2.0000      -0.335996        -9.1429
  64   2.0000      -0.331363        -9.0168
  65   2.0000      -0.317366        -8.6360
  66   2.0000      -0.307285        -8.3616
  67   0.0000       0.039804         1.0831
  68   0.0000       0.054492         1.4828
  69   0.0000       0.106913         2.9092
  70   0.0000       0.123671         3.3653
  71   0.0000       0.129653         3.5280

MULLIKEN ATOMIC CHARGES
-----------------------
   0 S :    0.099100
   1 C :   -0.109369
   2 C :   -0.104872
   3 C :    0.059069
   4 C :   -0.176623
   5 H :   -0.004404
   6 C :    0.112585
   7 H :    0.024416
   8 H :    0.035189
   9 C :   -0.083184
  10 H :    0.026508
  11 H :    0.031425
  12 C :   -0.061685
  13 H :    0.039589
  14 H :    0.035491
  15 H :    0.023423
  16 S :    0.116809
  17 C :   -0.113505
  18 C :   -0.006047
  19 C :   -0.016673
  20 C :   -0.181834
  21 H :   -0.001226
  22 C :    0.073494
  23 H :    0.027160
  24 H :    0.026058
  25 C :   -0.021112
  26 H :    0.024825
  27 H :    0.020366
  28 C :   -0.101344
  29 H :    0.031444
  30 H :    0.040984
  31 H :    0.045090
  32 H :    0.023846
  33 H :    0.065008
Sum of atomic charges:   -0.0000000

LOEWDIN ATOMIC CHARGES
----------------------
   0 S :    0.384160
   1 C :   -0.197661
   2 C :   -0.062346
   3 C :   -0.043144
   4 C :   -0.165380
   5 H :    0.023977
   6 C :   -0.029419
   7 H :    0.029043
   8 H :    0.038474
   9 C :   -0.048236
  10 H :    0.023052
  11 H :    0.029093
  12 C :   -0.066917
  13 H :    0.025822
  14 H :    0.025841
  15 H :    0.020865
  16 S :    0.412222
  17 C :   -0.177590
  18 C :   -0.065498
  19 C :   -0.045383
  20 C :   -0.218571
  21 H :    0.022598
  22 C :   -0.018192
  23 H :    0.025252
  24 H :    0.026484
  25 C :   -0.033284
  26 H :    0.018501
  27 H :    0.023493
  28 C :   -0.087499
  29 H :    0.027369
  30 H :    0.034918
  31 H :    0.026462
  32 H :    0.014220
  33 H :    0.027273

  Mayer bond orders larger than 0.100000
B(  0-S ,  1-C ) :   1.1306 B(  0-S ,  4-C ) :   1.1288 B(  1-C ,  2-C ) :   1.6309
B(  1-C , 32-H ) :   0.9717 B(  2-C ,  3-C ) :   1.2238 B(  2-C ,  6-C ) :   0.9911
B(  3-C ,  4-C ) :   1.5915 B(  3-C ,  5-H ) :   1.0067 B(  4-C , 20-C ) :   1.0418
B(  6-C ,  7-H ) :   0.9471 B(  6-C ,  8-H ) :   0.9223 B(  6-C ,  9-C ) :   1.0934
B(  9-C , 10-H ) :   0.9474 B(  9-C , 11-H ) :   0.9510 B(  9-C , 12-C ) :   1.0788
B( 12-C , 13-H ) :   0.9743 B( 12-C , 14-H ) :   0.9741 B( 12-C , 15-H ) :   0.9734
B( 16-S , 17-C ) :   1.1739 B( 16-S , 20-C ) :   1.1434 B( 17-C , 18-C ) :   1.5967
B( 17-C , 33-H ) :   0.9652 B( 18-C , 19-C ) :   1.2273 B( 18-C , 21-H ) :   1.0080
B( 19-C , 20-C ) :   1.6049 B( 19-C , 22-C ) :   1.0270 B( 22-C , 23-H ) :   0.9345
B( 22-C , 24-H ) :   0.9455 B( 22-C , 25-C ) :   1.0655 B( 25-C , 26-H ) :   0.9594
B( 25-C , 27-H ) :   0.9550 B( 25-C , 28-C ) :   1.0734 B( 28-C , 29-H ) :   0.9727
B( 28-C , 30-H ) :   0.9644 B( 28-C , 31-H ) :   0.9745

Dispersion correction           -0.015373209
FINAL SINGLE POINT ENERGY     -1339.876164876330

DIPOLE MOMENT
-------------
                                X             Y             Z
Electronic contribution:     11.18987      -9.11808       5.90948
Nuclear contribution   :    -11.39106       8.99089      -6.26607
                        -----------------------------------------
Total Dipole Moment    :     -0.20119      -0.12719      -0.35659
                        -----------------------------------------
Magnitude (a.u.)       :      0.42874
Magnitude (Debye)      :      1.08976

Rotational constants in cm-1:     0.024279     0.007863     0.006794
Rotational constants in MHz :   727.870372   235.730499   203.673555

                             ****ORCA TERMINATED NORMALLY****
TOTAL RUN TIME: 0 days 0 hours 0 minutes 22 seconds 215 msec
