                         Program Version 4.2.1 -  RELEASE  -
|  1> ! wB97X-D3 SP def2-SVP
|  2> %pal
|  3> nprocs 24
|  4> end
|  5>
|  6> * xyz 0 1
|  7> S 	 -110.123 	 40.5901 	 -11.9237
|  8> C 	 -111.062 	 42.0813 	 -11.7261
|  9> C 	 -111.287 	 42.3565 	 -10.4341
| 10> C 	 -110.813 	 41.2793 	 -9.58217
| 11> C 	 -110.111 	 40.2775 	 -10.2173
| 12> H 	 -110.841 	 41.2644 	 -8.43992
| 13> C 	 -111.84 	 43.6685 	 -9.82564
| 14> H 	 -111.782 	 44.417 	 -10.6383
| 15> H 	 -111.201 	 44.0126 	 -9.02709
| 16> C 	 -113.288 	 43.5376 	 -9.4012
| 17> H 	 -113.618 	 44.4386 	 -8.89674
| 18> H 	 -113.885 	 43.3889 	 -10.3069
| 19> C 	 -113.483 	 42.5033 	 -8.35577
| 20> H 	 -114.478 	 42.6184 	 -7.90145
| 21> H 	 -113.541 	 41.461 	 -8.76828
| 22> H 	 -112.903 	 42.4225 	 -7.48045
| 23> S 	 -110.426 	 37.5833 	 -10.0486
| 24> C 	 -109.436 	 36.6529 	 -8.96688
| 25> C 	 -108.704 	 37.4617 	 -8.05756
| 26> C 	 -108.826 	 38.8237 	 -8.40938
| 27> C 	 -109.655 	 39.0569 	 -9.53142
| 28> H 	 -108.029 	 37.0931 	 -7.35205
| 29> C 	 -108.092 	 39.8981 	 -7.64145
| 30> H 	 -108.248 	 40.8122 	 -8.26602
| 31> H 	 -107.007 	 39.7292 	 -7.75676
| 32> C 	 -108.468 	 40.1031 	 -6.08645
| 33> H 	 -107.514 	 40.4987 	 -5.70434
| 34> H 	 -108.529 	 39.0634 	 -5.73567
| 35> C 	 -109.698 	 41.0129 	 -5.69247
| 36> H 	 -110.104 	 40.73 	 -4.71609
| 37> H 	 -110.458 	 40.9121 	 -6.39938
| 38> H 	 -109.435 	 42.0652 	 -5.66346
| 39> H 	 -111.523 	 42.5312 	 -12.5634
| 40> H 	 -109.452 	 35.6273 	 -9.05689
| 41> *
| 42>
| 43>                          ****END OF INPUT****

CARTESIAN COORDINATES (ANGSTROEM)
---------------------------------
  S    -110.123000   40.590100  -11.923700
  C    -111.062000   42.081300  -11.726100
  C    -111.287000   42.356500  -10.434100
  C    -110.813000   41.279300   -9.582170
  C    -110.111000   40.277500  -10.217300
  H    -110.841000   41.264400   -8.439920
  C    -111.840000   43.668500   -9.825640
  H    -111.782000   44.417000  -10.638300
  H    -111.201000   44.012600   -9.027090
  C    -113.288000   43.537600   -9.401200
  H    -113.618000   44.438600   -8.896740
  H    -113.885000   43.388900  -10.306900
  C    -113.483000   42.503300   -8.355770
  H    -114.478000   42.618400   -7.901450
  H    -113.541000   41.461000   -8.768280
  H    -112.903000   42.422500   -7.480450
  S    -110.426000   37.583300  -10.048600
  C    -109.436000   36.652900   -8.966880
  C    -108.704000   37.461700   -8.057560
  C    -108.826000   38.823700   -8.409380
  C    -109.655000   39.056900   -9.531420
  H    -108.029000   37.093100   -7.352050
  C    -108.092000   39.898100   -7.641450
  H    -108.248000   40.812200   -8.266020
  H    -107.007000   39.729200   -7.756760
  C    -108.468000   40.103100   -6.086450
  H    -107.514000   40.498700   -5.704340
  H    -108.529000   39.063400   -5.735670
  C    -109.698000   41.012900   -5.692470
  H    -110.104000   40.730000   -4.716090
  H    -110.458000   40.912100   -6.399380
  H    -109.435000   42.065200   -5.663460
  H    -111.523000   42.531200  -12.563400
  H    -109.452000   35.627300   -9.056890

 Total Charge           Charge          ....    0
 Multiplicity           Mult            ....    1
 Number of Electrons    NEL             ....  134
 Basis Dimension        Dim             ....  322

ORBITAL ENERGIES
----------------

  NO   OCC          E(Eh)            E(eV)
   0   2.0000     -88.964877     -2420.8574
   1   2.0000     -88.962480     -2420.7922
   2   2.0000     -10.326622      -281.0017
   3   2.0000     -10.326366      -280.9947
   4   2.0000     -10.315746      -280.7057
   5   2.0000     -10.310855      -280.5726
   6   2.0000     -10.302491      -280.3450
   7   2.0000     -10.300489      -280.2906
   8   2.0000     -10.299029      -280.2508
   9   2.0000     -10.295805      -280.1631
  10   2.0000     -10.294733      -280.1339
  11   2.0000     -10.293960      -280.1129
  12   2.0000     -10.293238      -280.0932
  13   2.0000     -10.284649      -279.8595
  14   2.0000     -10.282421      -279.7989
  15   2.0000     -10.271173      -279.4928
  16   2.0000      -8.080135      -219.8717
  17   2.0000      -8.077376      -219.7966
  18   2.0000      -6.038359      -164.3121
  19   2.0000      -6.035962      -164.2469
  20   2.0000      -6.034514      -164.2075
  21   2.0000      -6.031879      -164.1358
  22   2.0000      -6.031225      -164.1180
  23   2.0000      -6.028012      -164.0305
  24   2.0000      -1.005035       -27.3484
  25   2.0000      -0.983682       -26.7673
  26   2.0000      -0.917393       -24.9635
  27   2.0000      -0.896867       -24.4050
  28   2.0000      -0.870431       -23.6856
  29   2.0000      -0.849156       -23.1067
  30   2.0000      -0.840145       -22.8615
  31   2.0000      -0.811719       -22.0880
  32   2.0000      -0.786555       -21.4032
  33   2.0000      -0.776573       -21.1316
  34   2.0000      -0.708888       -19.2898
  35   2.0000      -0.701827       -19.0977
  36   2.0000      -0.694897       -18.9091
  37   2.0000      -0.663664       -18.0592
  38   2.0000      -0.642034       -17.4706
  39   2.0000      -0.610333       -16.6080
  40   2.0000      -0.594771       -16.1846
  41   2.0000      -0.579444       -15.7675
  42   2.0000      -0.551527       -15.0078
  43   2.0000      -0.545380       -14.8405
  44   2.0000      -0.540053       -14.6956
  45   2.0000      -0.531314       -14.4578
  46   2.0000      -0.522584       -14.2202
  47   2.0000      -0.513754       -13.9799
  48   2.0000      -0.505375       -13.7520
  49   2.0000      -0.499688       -13.5972
  50   2.0000      -0.489283       -13.3141
  51   2.0000      -0.480602       -13.0778
  52   2.0000      -0.470749       -12.8097
  53   2.0000      -0.465984       -12.6801
  54   2.0000      -0.461679       -12.5629
  55   2.0000      -0.449840       -12.2408
  56   2.0000      -0.439522       -11.9600
  57   2.0000      -0.437473       -11.9042
  58   2.0000      -0.428394       -11.6572
  59   2.0000      -0.425038       -11.5659
  60   2.0000      -0.420721       -11.4484
  61   2.0000      -0.413379       -11.2486
  62   2.0000      -0.408722       -11.1219
  63   2.0000      -0.337848        -9.1933
  64   2.0000      -0.331256        -9.0139
  65   2.0000      -0.326263        -8.8781
  66   2.0000      -0.296468        -8.0673
  67   0.0000       0.031317         0.8522
  68   0.0000       0.071196         1.9373
  69   0.0000       0.111761         3.0412
  70   0.0000       0.113933         3.1003
  71   0.0000       0.128340         3.4923

MULLIKEN ATOMIC CHARGES
-----------------------
   0 S :    0.098725
   1 C :   -0.131288
   2 C :   -0.072875
   3 C :    0.017783
   4 C :   -0.157107
   5 H :    0.010866
   6 C :    0.074275
   7 H :    0.019766
   8 H :    0.034837
   9 C :   -0.027902
  10 H :    0.025753
  11 H :    0.032900
  12 C :   -0.068819
  13 H :    0.019862
  14 H :    0.042994
  15 H :    0.018330
  16 S :    0.116164
  17 C :   -0.076888
  18 C :   -0.000220
  19 C :   -0.033016
  20 C :   -0.167407
  21 H :    0.004184
  22 C :   -0.000394
  23 H :    0.029208
  24 H :    0.037787
  25 C :   -0.070143
  26 H :    0.032783
  27 H :    0.030260
  28 C :   -0.016764
  29 H :    0.037394
  30 H :    0.028057
  31 H :    0.037084
  32 H :    0.040738
  33 H :    0.033073
Sum of atomic charges:   -0.0000000

LOEWDIN ATOMIC CHARGES
----------------------
   0 S :    0.393526
   1 C :   -0.178225
   2 C :   -0.064165
   3 C :   -0.066776
   4 C :   -0.213033
   5 H :    0.036322
   6 C :   -0.023570
   7 H :    0.030225
   8 H :    0.029878
   9 C :   -0.040139
  10 H :    0.025325
  11 H :    0.030962
  12 C :   -0.076805
  13 H :    0.028387
  14 H :    0.032468
  15 H :    0.017481
  16 S :    0.426644
  17 C :   -0.169088
  18 C :   -0.062219
  19 C :   -0.059811
  20 C :   -0.205762
  21 H :    0.023046
  22 C :   -0.043943
  23 H :    0.031795
  24 H :    0.035022
  25 C :   -0.034760
  26 H :    0.026823
  27 H :    0.023631
  28 C :   -0.058500
  29 H :    0.032843
  30 H :    0.013417
  31 H :    0.029225
  32 H :    0.022289
  33 H :    0.007486

  Mayer bond orders larger than 0.100000
B(  0-S ,  1-C ) :   1.1296 B(  0-S ,  4-C ) :   1.1406 B(  1-C ,  2-C ) :   1.6491
B(  1-C , 32-H ) :   0.9687 B(  2-C ,  3-C ) :   1.2217 B(  2-C ,  6-C ) :   0.9999
B(  3-C ,  4-C ) :   1.5941 B(  3-C ,  5-H ) :   0.9741 B(  4-C , 20-C ) :   1.0215
B(  6-C ,  7-H ) :   0.9436 B(  6-C ,  8-H ) :   0.9465 B(  6-C ,  9-C ) :   1.0858
B(  9-C , 10-H ) :   0.9552 B(  9-C , 11-H ) :   0.9487 B(  9-C , 12-C ) :   1.0925
B( 12-C , 13-H ) :   0.9668 B( 12-C , 14-H ) :   0.9642 B( 12-C , 15-H ) :   0.9718
B( 16-S , 17-C ) :   1.1902 B( 16-S , 20-C ) :   1.1648 B( 17-C , 18-C ) :   1.5404
B( 17-C , 20-C ) :   0.1111 B( 17-C , 33-H ) :   0.9824 B( 18-C , 19-C ) :   1.2761
B( 18-C , 21-H ) :   0.9986 B( 19-C , 20-C ) :   1.5646 B( 19-C , 22-C ) :   1.0454
B( 22-C , 23-H ) :   0.9377 B( 22-C , 24-H ) :   0.9403 B( 22-C , 25-C ) :   1.0434
B( 25-C , 26-H ) :   0.9608 B( 25-C , 27-H ) :   0.9642 B( 25-C , 28-C ) :   1.0584
B( 28-C , 29-H ) :   0.9694 B( 28-C , 30-H ) :   0.9759 B( 28-C , 31-H ) :   0.9782

Dispersion correction           -0.015370783
FINAL SINGLE POINT ENERGY     -1339.865172727214

DIPOLE MOMENT
-------------
                                X             Y             Z
Electronic contribution:      5.77421     -16.69341     -21.52833
Nuclear contribution   :     -5.87877      17.04977      22.08290
                        -----------------------------------------
Total Dipole Moment    :     -0.10456       0.35636       0.55456
                        -----------------------------------------
Magnitude (a.u.)       :      0.66743
Magnitude (Debye)      :      1.69647

Rotational constants in cm-1:     0.017256     0.010127     0.007640
Rotational constants in MHz :   517.324313   303.613173   229.052472

                             ****ORCA TERMINATED NORMALLY****
TOTAL RUN TIME: 0 days 0 hours 0 minutes 22 seconds 443 msec
