                         Program Version 4.2.1 -  RELEASE  -
|  1> ! wB97X-D3 SP def2-SVP
|  2> %pal
|  3> nprocs 24
|  4> end
|  5>
|  6> * xyz 0 1
|  7> S 	 -31.635 	 -6.51866 	 13.8325
|  8> C 	 -31.7147 	 -6.52553 	 15.5927
|  9> C 	 -32.2777 	 -7.66104 	 16.074
| 10> C 	 -32.7214 	 -8.53267 	 15.0524
| 11> C 	 -32.4895 	 -8.03268 	 13.7996
| 12> H 	 -33.1733 	 -9.42711 	 15.2469
| 13> C 	 -32.5705 	 -7.91674 	 17.5724
| 14> H 	 -31.6506 	 -8.15036 	 18.1798
| 15> H 	 -33.1631 	 -8.89096 	 17.6201
| 16> C 	 -33.4347 	 -6.82855 	 18.2145
| 17> H 	 -33.7421 	 -7.11345 	 19.2186
| 18> H 	 -32.9043 	 -5.86779 	 18.4648
| 19> C 	 -34.7761 	 -6.61995 	 17.509
| 20> H 	 -34.8032 	 -6.42488 	 16.4686
| 21> H 	 -35.462 	 -7.4772 	 17.7098
| 22> H 	 -35.3051 	 -5.81359 	 17.9231
| 23> S 	 -31.9686 	 -9.73938 	 11.7751
| 24> C 	 -32.9514 	 -9.72151 	 10.3185
| 25> C 	 -34.1585 	 -9.07516 	 10.5764
| 26> C 	 -34.1287 	 -8.27132 	 11.8061
| 27> C 	 -32.978 	 -8.56695 	 12.5366
| 28> H 	 -35.0946 	 -9.12344 	 9.97846
| 29> C 	 -35.2652 	 -7.3655 	 12.2814
| 30> H 	 -35.1571 	 -7.1621 	 13.3634
| 31> H 	 -36.1393 	 -7.91284 	 12.1421
| 32> C 	 -35.3715 	 -6.06127 	 11.4876
| 33> H 	 -35.1909 	 -6.07794 	 10.3949
| 34> H 	 -34.6303 	 -5.31289 	 11.8076
| 35> C 	 -36.7268 	 -5.34064 	 11.6392
| 36> H 	 -37.0791 	 -5.01164 	 12.6378
| 37> H 	 -37.5531 	 -5.94565 	 11.368
| 38> H 	 -36.7261 	 -4.34201 	 11.1885
| 39> H 	 -31.4197 	 -5.73014 	 16.25
| 40> H 	 -32.7504 	 -10.3419 	 9.479
| 41> *
| 42>
| 43>                          ****END OF INPUT****

CARTESIAN COORDINATES (ANGSTROEM)
---------------------------------
  S    -31.635000   -6.518660   13.832500
  C    -31.714700   -6.525530   15.592700
  C    -32.277700   -7.661040   16.074000
  C    -32.721400   -8.532670   15.052400
  C    -32.489500   -8.032680   13.799600
  H    -33.173300   -9.427110   15.246900
  C    -32.570500   -7.916740   17.572400
  H    -31.650600   -8.150360   18.179800
  H    -33.163100   -8.890960   17.620100
  C    -33.434700   -6.828550   18.214500
  H    -33.742100   -7.113450   19.218600
  H    -32.904300   -5.867790   18.464800
  C    -34.776100   -6.619950   17.509000
  H    -34.803200   -6.424880   16.468600
  H    -35.462000   -7.477200   17.709800
  H    -35.305100   -5.813590   17.923100
  S    -31.968600   -9.739380   11.775100
  C    -32.951400   -9.721510   10.318500
  C    -34.158500   -9.075160   10.576400
  C    -34.128700   -8.271320   11.806100
  C    -32.978000   -8.566950   12.536600
  H    -35.094600   -9.123440    9.978460
  C    -35.265200   -7.365500   12.281400
  H    -35.157100   -7.162100   13.363400
  H    -36.139300   -7.912840   12.142100
  C    -35.371500   -6.061270   11.487600
  H    -35.190900   -6.077940   10.394900
  H    -34.630300   -5.312890   11.807600
  C    -36.726800   -5.340640   11.639200
  H    -37.079100   -5.011640   12.637800
  H    -37.553100   -5.945650   11.368000
  H    -36.726100   -4.342010   11.188500
  H    -31.419700   -5.730140   16.250000
  H    -32.750400  -10.341900    9.479000

 Total Charge           Charge          ....    0
 Multiplicity           Mult            ....    1
 Number of Electrons    NEL             ....  134
 Basis Dimension        Dim             ....  322

ORBITAL ENERGIES
----------------

  NO   OCC          E(Eh)            E(eV)
   0   2.0000     -88.966394     -2420.8987
   1   2.0000     -88.962427     -2420.7907
   2   2.0000     -10.324096      -280.9329
   3   2.0000     -10.320677      -280.8399
   4   2.0000     -10.317942      -280.7655
   5   2.0000     -10.308026      -280.4956
   6   2.0000     -10.305720      -280.4329
   7   2.0000     -10.303672      -280.3772
   8   2.0000     -10.302386      -280.3422
   9   2.0000     -10.294840      -280.1368
  10   2.0000     -10.292461      -280.0721
  11   2.0000     -10.291763      -280.0531
  12   2.0000     -10.287773      -279.9445
  13   2.0000     -10.285088      -279.8715
  14   2.0000     -10.273771      -279.5635
  15   2.0000     -10.270617      -279.4777
  16   2.0000      -8.081076      -219.8973
  17   2.0000      -8.077693      -219.8052
  18   2.0000      -6.039553      -164.3446
  19   2.0000      -6.036191      -164.2531
  20   2.0000      -6.035632      -164.2379
  21   2.0000      -6.032166      -164.1436
  22   2.0000      -6.031827      -164.1344
  23   2.0000      -6.028392      -164.0409
  24   2.0000      -1.007785       -27.4232
  25   2.0000      -0.983070       -26.7507
  26   2.0000      -0.908890       -24.7322
  27   2.0000      -0.905948       -24.6521
  28   2.0000      -0.866503       -23.5787
  29   2.0000      -0.849155       -23.1067
  30   2.0000      -0.845881       -23.0176
  31   2.0000      -0.812397       -22.1064
  32   2.0000      -0.784677       -21.3522
  33   2.0000      -0.772761       -21.0279
  34   2.0000      -0.705016       -19.1845
  35   2.0000      -0.703602       -19.1460
  36   2.0000      -0.695722       -18.9316
  37   2.0000      -0.661799       -18.0085
  38   2.0000      -0.644210       -17.5299
  39   2.0000      -0.612466       -16.6660
  40   2.0000      -0.595363       -16.2007
  41   2.0000      -0.569002       -15.4833
  42   2.0000      -0.560712       -15.2577
  43   2.0000      -0.553805       -15.0698
  44   2.0000      -0.541287       -14.7292
  45   2.0000      -0.524814       -14.2809
  46   2.0000      -0.515164       -14.0183
  47   2.0000      -0.508838       -13.8462
  48   2.0000      -0.506271       -13.7763
  49   2.0000      -0.495296       -13.4777
  50   2.0000      -0.489781       -13.3276
  51   2.0000      -0.473165       -12.8755
  52   2.0000      -0.467504       -12.7214
  53   2.0000      -0.461306       -12.5528
  54   2.0000      -0.458315       -12.4714
  55   2.0000      -0.448313       -12.1992
  56   2.0000      -0.441893       -12.0245
  57   2.0000      -0.439792       -11.9674
  58   2.0000      -0.438775       -11.9397
  59   2.0000      -0.429903       -11.6983
  60   2.0000      -0.421764       -11.4768
  61   2.0000      -0.409928       -11.1547
  62   2.0000      -0.407005       -11.0752
  63   2.0000      -0.337108        -9.1732
  64   2.0000      -0.328616        -8.9421
  65   2.0000      -0.317217        -8.6319
  66   2.0000      -0.311300        -8.4709
  67   0.0000       0.048032         1.3070
  68   0.0000       0.054016         1.4699
  69   0.0000       0.106140         2.8882
  70   0.0000       0.117533         3.1982
  71   0.0000       0.136622         3.7177

MULLIKEN ATOMIC CHARGES
-----------------------
   0 S :    0.129124
   1 C :   -0.120392
   2 C :   -0.080343
   3 C :    0.087078
   4 C :   -0.168059
   5 H :   -0.031078
   6 C :    0.050218
   7 H :    0.052823
   8 H :    0.024247
   9 C :   -0.080025
  10 H :    0.021988
  11 H :    0.035048
  12 C :   -0.038700
  13 H :    0.037480
  14 H :    0.025693
  15 H :    0.012850
  16 S :    0.113882
  17 C :   -0.084222
  18 C :   -0.036205
  19 C :   -0.041674
  20 C :   -0.199234
  21 H :    0.034807
  22 C :    0.124885
  23 H :    0.044210
  24 H :    0.007300
  25 C :   -0.083403
  26 H :    0.039800
  27 H :    0.029131
  28 C :   -0.062054
  29 H :    0.012060
  30 H :    0.020869
  31 H :    0.032850
  32 H :    0.035364
  33 H :    0.053685
Sum of atomic charges:    0.0000000

LOEWDIN ATOMIC CHARGES
----------------------
   0 S :    0.411791
   1 C :   -0.188212
   2 C :   -0.067395
   3 C :   -0.047600
   4 C :   -0.199572
   5 H :    0.016935
   6 C :   -0.035774
   7 H :    0.038032
   8 H :    0.034145
   9 C :   -0.048841
  10 H :    0.026732
  11 H :    0.026168
  12 C :   -0.064792
  13 H :    0.019350
  14 H :    0.029982
  15 H :    0.020996
  16 S :    0.415499
  17 C :   -0.182689
  18 C :   -0.068764
  19 C :   -0.050016
  20 C :   -0.216660
  21 H :    0.036094
  22 C :   -0.022915
  23 H :    0.040480
  24 H :    0.023018
  25 C :   -0.044364
  26 H :    0.030294
  27 H :    0.028004
  28 C :   -0.077653
  29 H :    0.024010
  30 H :    0.015594
  31 H :    0.030098
  32 H :    0.025206
  33 H :    0.022817

  Mayer bond orders larger than 0.100000
B(  0-S ,  1-C ) :   1.1326 B(  0-S ,  4-C ) :   1.1571 B(  1-C ,  2-C ) :   1.6355
B(  1-C , 32-H ) :   0.9693 B(  2-C ,  3-C ) :   1.2421 B(  2-C ,  6-C ) :   1.0046
B(  3-C ,  4-C ) :   1.5860 B(  3-C ,  5-H ) :   1.0125 B(  4-C , 20-C ) :   0.9898
B(  6-C ,  7-H ) :   0.9401 B(  6-C ,  8-H ) :   0.9462 B(  6-C ,  9-C ) :   1.0752
B(  9-C , 10-H ) :   0.9519 B(  9-C , 11-H ) :   0.9562 B(  9-C , 12-C ) :   1.0702
B( 12-C , 13-H ) :   0.9770 B( 12-C , 14-H ) :   0.9745 B( 12-C , 15-H ) :   0.9690
B( 16-S , 17-C ) :   1.1504 B( 16-S , 20-C ) :   1.1621 B( 17-C , 18-C ) :   1.6028
B( 17-C , 33-H ) :   0.9747 B( 18-C , 19-C ) :   1.2302 B( 18-C , 21-H ) :   0.9785
B( 19-C , 20-C ) :   1.6132 B( 19-C , 22-C ) :   1.0409 B( 22-C , 23-H ) :   0.9307
B( 22-C , 24-H ) :   0.9360 B( 22-C , 25-C ) :   1.0505 B( 25-C , 26-H ) :   0.9630
B( 25-C , 27-H ) :   0.9500 B( 25-C , 28-C ) :   1.0780 B( 28-C , 29-H ) :   0.9710
B( 28-C , 30-H ) :   0.9768 B( 28-C , 31-H ) :   0.9730

Dispersion correction           -0.014946662
FINAL SINGLE POINT ENERGY     -1339.873238277987

DIPOLE MOMENT
-------------
                                X             Y             Z
Electronic contribution:     21.24723     -11.63539     -12.56588
Nuclear contribution   :    -21.83570      11.69784      12.94394
                        -----------------------------------------
Total Dipole Moment    :     -0.58847       0.06246       0.37806
                        -----------------------------------------
Magnitude (a.u.)       :      0.70223
Magnitude (Debye)      :      1.78494

Rotational constants in cm-1:     0.017798     0.009319     0.007220
Rotational constants in MHz :   533.561335   279.389214   216.445348

                             ****ORCA TERMINATED NORMALLY****
TOTAL RUN TIME: 0 days 0 hours 0 minutes 21 seconds 856 msec
