                         Program Version 4.2.1 -  RELEASE  -
|  1> ! wB97X-D3 SP def2-SVP
|  2> %pal
|  3> nprocs 24
|  4> end
|  5>
|  6> * xyz 0 1
|  7> S 	 -34.4635 	 11.0927 	 7.44563
|  8> C 	 -35.2048 	 12.6221 	 6.87585
|  9> C 	 -34.4419 	 13.7347 	 7.28907
| 10> C 	 -33.2298 	 13.3096 	 7.94751
| 11> C 	 -33.0967 	 11.9391 	 8.08815
| 12> H 	 -32.3608 	 13.9438 	 8.14764
| 13> C 	 -34.8815 	 15.1279 	 7.08278
| 14> H 	 -34.7281 	 15.8462 	 7.87625
| 15> H 	 -35.9106 	 15.202 	 6.95413
| 16> C 	 -34.2114 	 15.744 	 5.88112
| 17> H 	 -33.1403 	 15.574 	 6.08907
| 18> H 	 -34.4814 	 15.3147 	 4.90921
| 19> C 	 -34.4152 	 17.2491 	 5.7411
| 20> H 	 -33.8284 	 17.6463 	 4.96577
| 21> H 	 -35.4162 	 17.4504 	 5.46384
| 22> H 	 -34.1041 	 17.7664 	 6.65354
| 23> S 	 -32.4923 	 9.55819 	 9.27874
| 24> C 	 -30.8756 	 9.22388 	 9.80282
| 25> C 	 -30.0245 	 10.2131 	 9.3649
| 26> C 	 -30.6395 	 11.321 	 8.67151
| 27> C 	 -32.042 	 11.1833 	 8.6918
| 28> H 	 -29.0089 	 9.90306 	 9.54092
| 29> C 	 -29.8039 	 12.4418 	 8.06168
| 30> H 	 -28.9352 	 12.4965 	 8.67387
| 31> H 	 -30.2949 	 13.3637 	 8.23408
| 32> C 	 -29.3497 	 12.2114 	 6.59479
| 33> H 	 -28.8671 	 13.0264 	 6.12586
| 34> H 	 -30.2621 	 11.9738 	 5.98452
| 35> C 	 -28.4878 	 10.9202 	 6.50431
| 36> H 	 -28.9888 	 10.0592 	 6.88832
| 37> H 	 -27.5016 	 11.0616 	 6.97046
| 38> H 	 -28.1417 	 10.7607 	 5.47124
| 39> H 	 -36.1721 	 12.6992 	 6.5549
| 40> H 	 -30.6069 	 8.35698 	 10.263
| 41> *
| 42>
| 43>                          ****END OF INPUT****

CARTESIAN COORDINATES (ANGSTROEM)
---------------------------------
  S    -34.463500   11.092700    7.445630
  C    -35.204800   12.622100    6.875850
  C    -34.441900   13.734700    7.289070
  C    -33.229800   13.309600    7.947510
  C    -33.096700   11.939100    8.088150
  H    -32.360800   13.943800    8.147640
  C    -34.881500   15.127900    7.082780
  H    -34.728100   15.846200    7.876250
  H    -35.910600   15.202000    6.954130
  C    -34.211400   15.744000    5.881120
  H    -33.140300   15.574000    6.089070
  H    -34.481400   15.314700    4.909210
  C    -34.415200   17.249100    5.741100
  H    -33.828400   17.646300    4.965770
  H    -35.416200   17.450400    5.463840
  H    -34.104100   17.766400    6.653540
  S    -32.492300    9.558190    9.278740
  C    -30.875600    9.223880    9.802820
  C    -30.024500   10.213100    9.364900
  C    -30.639500   11.321000    8.671510
  C    -32.042000   11.183300    8.691800
  H    -29.008900    9.903060    9.540920
  C    -29.803900   12.441800    8.061680
  H    -28.935200   12.496500    8.673870
  H    -30.294900   13.363700    8.234080
  C    -29.349700   12.211400    6.594790
  H    -28.867100   13.026400    6.125860
  H    -30.262100   11.973800    5.984520
  C    -28.487800   10.920200    6.504310
  H    -28.988800   10.059200    6.888320
  H    -27.501600   11.061600    6.970460
  H    -28.141700   10.760700    5.471240
  H    -36.172100   12.699200    6.554900
  H    -30.606900    8.356980   10.263000

 Total Charge           Charge          ....    0
 Multiplicity           Mult            ....    1
 Number of Electrons    NEL             ....  134
 Basis Dimension        Dim             ....  322

ORBITAL ENERGIES
----------------

  NO   OCC          E(Eh)            E(eV)
   0   2.0000     -88.966176     -2420.8927
   1   2.0000     -88.964138     -2420.8373
   2   2.0000     -10.332416      -281.1593
   3   2.0000     -10.329147      -281.0704
   4   2.0000     -10.313748      -280.6513
   5   2.0000     -10.311123      -280.5799
   6   2.0000     -10.310759      -280.5700
   7   2.0000     -10.306366      -280.4505
   8   2.0000     -10.295643      -280.1587
   9   2.0000     -10.294709      -280.1333
  10   2.0000     -10.291029      -280.0331
  11   2.0000     -10.289660      -279.9959
  12   2.0000     -10.282685      -279.8061
  13   2.0000     -10.282158      -279.7917
  14   2.0000     -10.274927      -279.5950
  15   2.0000     -10.269828      -279.4562
  16   2.0000      -8.080541      -219.8827
  17   2.0000      -8.078977      -219.8401
  18   2.0000      -6.039131      -164.3331
  19   2.0000      -6.037477      -164.2881
  20   2.0000      -6.035158      -164.2250
  21   2.0000      -6.033522      -164.1805
  22   2.0000      -6.031181      -164.1168
  23   2.0000      -6.029695      -164.0763
  24   2.0000      -1.006965       -27.4009
  25   2.0000      -0.980333       -26.6762
  26   2.0000      -0.923019       -25.1166
  27   2.0000      -0.908924       -24.7331
  28   2.0000      -0.873789       -23.7770
  29   2.0000      -0.850712       -23.1490
  30   2.0000      -0.840371       -22.8676
  31   2.0000      -0.818859       -22.2823
  32   2.0000      -0.788606       -21.4591
  33   2.0000      -0.777429       -21.1549
  34   2.0000      -0.715061       -19.4578
  35   2.0000      -0.698878       -19.0174
  36   2.0000      -0.696421       -18.9506
  37   2.0000      -0.665739       -18.1157
  38   2.0000      -0.647268       -17.6131
  39   2.0000      -0.622721       -16.9451
  40   2.0000      -0.596362       -16.2278
  41   2.0000      -0.578349       -15.7377
  42   2.0000      -0.567962       -15.4550
  43   2.0000      -0.558118       -15.1872
  44   2.0000      -0.549211       -14.9448
  45   2.0000      -0.522438       -14.2163
  46   2.0000      -0.522020       -14.2049
  47   2.0000      -0.509822       -13.8729
  48   2.0000      -0.506670       -13.7872
  49   2.0000      -0.505098       -13.7444
  50   2.0000      -0.490115       -13.3367
  51   2.0000      -0.485957       -13.2236
  52   2.0000      -0.473037       -12.8720
  53   2.0000      -0.465349       -12.6628
  54   2.0000      -0.461157       -12.5487
  55   2.0000      -0.446969       -12.1627
  56   2.0000      -0.444416       -12.0932
  57   2.0000      -0.434575       -11.8254
  58   2.0000      -0.431910       -11.7529
  59   2.0000      -0.428635       -11.6637
  60   2.0000      -0.420826       -11.4513
  61   2.0000      -0.416900       -11.3444
  62   2.0000      -0.410893       -11.1810
  63   2.0000      -0.356957        -9.7133
  64   2.0000      -0.334464        -9.1012
  65   2.0000      -0.326368        -8.8809
  66   2.0000      -0.283113        -7.7039
  67   0.0000       0.016932         0.4608
  68   0.0000       0.072715         1.9787
  69   0.0000       0.101644         2.7659
  70   0.0000       0.115772         3.1503
  71   0.0000       0.133245         3.6258

MULLIKEN ATOMIC CHARGES
-----------------------
   0 S :    0.091244
   1 C :   -0.076993
   2 C :   -0.086526
   3 C :    0.011006
   4 C :   -0.118156
   5 H :    0.011759
   6 C :    0.117767
   7 H :    0.014347
   8 H :   -0.006912
   9 C :   -0.116850
  10 H :    0.022561
  11 H :    0.031494
  12 C :   -0.000767
  13 H :    0.020117
  14 H :    0.019650
  15 H :    0.025296
  16 S :    0.079720
  17 C :   -0.056042
  18 C :   -0.038326
  19 C :   -0.063527
  20 C :   -0.128905
  21 H :    0.017832
  22 C :    0.124633
  23 H :    0.010653
  24 H :    0.008248
  25 C :   -0.052484
  26 H :    0.028367
  27 H :    0.044561
  28 C :   -0.074105
  29 H :    0.053471
  30 H :    0.019666
  31 H :    0.028457
  32 H :    0.017537
  33 H :    0.021207
Sum of atomic charges:    0.0000000

LOEWDIN ATOMIC CHARGES
----------------------
   0 S :    0.394018
   1 C :   -0.175301
   2 C :   -0.043945
   3 C :   -0.072694
   4 C :   -0.190268
   5 H :    0.029827
   6 C :   -0.033955
   7 H :    0.032823
   8 H :    0.020743
   9 C :   -0.036455
  10 H :    0.022996
  11 H :    0.024360
  12 C :   -0.058351
  13 H :    0.021613
  14 H :    0.019038
  15 H :    0.024412
  16 S :    0.391312
  17 C :   -0.171180
  18 C :   -0.072619
  19 C :   -0.047644
  20 C :   -0.180962
  21 H :    0.032183
  22 C :   -0.025171
  23 H :    0.028026
  24 H :    0.021489
  25 C :   -0.031230
  26 H :    0.019085
  27 H :    0.033812
  28 C :   -0.067998
  29 H :    0.023972
  30 H :    0.022175
  31 H :    0.027943
  32 H :    0.007659
  33 H :    0.010285

  Mayer bond orders larger than 0.100000
B(  0-S ,  1-C ) :   1.1199 B(  0-S ,  4-C ) :   1.1450 B(  1-C ,  2-C ) :   1.6126
B(  1-C , 32-H ) :   0.9752 B(  2-C ,  3-C ) :   1.2354 B(  2-C ,  6-C ) :   1.0471
B(  3-C ,  4-C ) :   1.5742 B(  3-C ,  5-H ) :   0.9857 B(  4-C , 20-C ) :   1.0952
B(  6-C ,  7-H ) :   0.9372 B(  6-C ,  8-H ) :   0.9266 B(  6-C ,  9-C ) :   1.0534
B(  9-C , 10-H ) :   0.9608 B(  9-C , 11-H ) :   0.9546 B(  9-C , 12-C ) :   1.0936
B( 12-C , 13-H ) :   0.9707 B( 12-C , 14-H ) :   0.9725 B( 12-C , 15-H ) :   0.9709
B( 16-S , 17-C ) :   1.1493 B( 16-S , 20-C ) :   1.1352 B( 17-C , 18-C ) :   1.6179
B( 17-C , 33-H ) :   0.9805 B( 18-C , 19-C ) :   1.2190 B( 18-C , 21-H ) :   0.9918
B( 19-C , 20-C ) :   1.5681 B( 19-C , 22-C ) :   1.0275 B( 22-C , 23-H ) :   0.9306
B( 22-C , 24-H ) :   0.9367 B( 22-C , 25-C ) :   1.0576 B( 25-C , 26-H ) :   0.9601
B( 25-C , 27-H ) :   0.9582 B( 25-C , 28-C ) :   1.0776 B( 28-C , 29-H ) :   0.9736
B( 28-C , 30-H ) :   0.9740 B( 28-C , 31-H ) :   0.9719

Dispersion correction           -0.014170217
FINAL SINGLE POINT ENERGY     -1339.865426829304

DIPOLE MOMENT
-------------
                                X             Y             Z
Electronic contribution:    -11.03729     -22.39978      12.88467
Nuclear contribution   :     11.46660      22.87202     -13.09167
                        -----------------------------------------
Total Dipole Moment    :      0.42931       0.47225      -0.20700
                        -----------------------------------------
Magnitude (a.u.)       :      0.67095
Magnitude (Debye)      :      1.70541

Rotational constants in cm-1:     0.020500     0.008323     0.006470
Rotational constants in MHz :   614.575096   249.523150   193.962703

                             ****ORCA TERMINATED NORMALLY****
TOTAL RUN TIME: 0 days 0 hours 0 minutes 20 seconds 684 msec
