                         Program Version 4.2.1 -  RELEASE  -
|  1> ! wB97X-D3 SP def2-SVP
|  2> %pal
|  3> nprocs 24
|  4> end
|  5>
|  6> * xyz 0 1
|  7> S 	 -64.6092 	 2.04558 	 -18.2882
|  8> C 	 -65.104 	 1.69328 	 -16.6015
|  9> C 	 -64.9859 	 0.36533 	 -16.3855
| 10> C 	 -64.3154 	 -0.316682 	 -17.4437
| 11> C 	 -64.0477 	 0.374518 	 -18.591
| 12> H 	 -64.1468 	 -1.38148 	 -17.3717
| 13> C 	 -65.1797 	 -0.302222 	 -15.0018
| 14> H 	 -65.8728 	 -1.09558 	 -15.0245
| 15> H 	 -65.5857 	 0.550186 	 -14.4085
| 16> C 	 -63.9421 	 -0.740072 	 -14.2193
| 17> H 	 -63.4144 	 0.074635 	 -13.7482
| 18> H 	 -64.262 	 -1.21271 	 -13.2601
| 19> C 	 -62.9297 	 -1.58854 	 -14.9251
| 20> H 	 -62.2983 	 -0.945859 	 -15.5209
| 21> H 	 -62.3427 	 -2.19492 	 -14.1891
| 22> H 	 -63.5 	 -2.30321 	 -15.4994
| 23> S 	 -62.2892 	 1.11381 	 -20.7785
| 24> C 	 -61.4307 	 -0.199236 	 -21.5406
| 25> C 	 -61.8231 	 -1.45973 	 -21.1823
| 26> C 	 -62.8686 	 -1.44682 	 -20.2046
| 27> C 	 -63.1463 	 -0.115307 	 -19.7623
| 28> H 	 -61.4207 	 -2.31061 	 -21.6147
| 29> C 	 -63.3176 	 -2.75204 	 -19.5878
| 30> H 	 -63.3749 	 -3.52082 	 -20.4049
| 31> H 	 -64.2855 	 -2.67934 	 -19.1284
| 32> C 	 -62.2725 	 -3.35891 	 -18.6117
| 33> H 	 -62.72 	 -4.18318 	 -17.9471
| 34> H 	 -62.1417 	 -2.60126 	 -17.8526
| 35> C 	 -60.9396 	 -3.79295 	 -19.2207
| 36> H 	 -61.1888 	 -4.44452 	 -20.0617
| 37> H 	 -60.3772 	 -4.42966 	 -18.5829
| 38> H 	 -60.1758 	 -3.00379 	 -19.4023
| 39> H 	 -65.7508 	 2.27937 	 -15.9478
| 40> H 	 -60.5429 	 -0.0418544 	 -22.1479
| 41> *
| 42>
| 43>                          ****END OF INPUT****

CARTESIAN COORDINATES (ANGSTROEM)
---------------------------------
  S    -64.609200    2.045580  -18.288200
  C    -65.104000    1.693280  -16.601500
  C    -64.985900    0.365330  -16.385500
  C    -64.315400   -0.316682  -17.443700
  C    -64.047700    0.374518  -18.591000
  H    -64.146800   -1.381480  -17.371700
  C    -65.179700   -0.302222  -15.001800
  H    -65.872800   -1.095580  -15.024500
  H    -65.585700    0.550186  -14.408500
  C    -63.942100   -0.740072  -14.219300
  H    -63.414400    0.074635  -13.748200
  H    -64.262000   -1.212710  -13.260100
  C    -62.929700   -1.588540  -14.925100
  H    -62.298300   -0.945859  -15.520900
  H    -62.342700   -2.194920  -14.189100
  H    -63.500000   -2.303210  -15.499400
  S    -62.289200    1.113810  -20.778500
  C    -61.430700   -0.199236  -21.540600
  C    -61.823100   -1.459730  -21.182300
  C    -62.868600   -1.446820  -20.204600
  C    -63.146300   -0.115307  -19.762300
  H    -61.420700   -2.310610  -21.614700
  C    -63.317600   -2.752040  -19.587800
  H    -63.374900   -3.520820  -20.404900
  H    -64.285500   -2.679340  -19.128400
  C    -62.272500   -3.358910  -18.611700
  H    -62.720000   -4.183180  -17.947100
  H    -62.141700   -2.601260  -17.852600
  C    -60.939600   -3.792950  -19.220700
  H    -61.188800   -4.444520  -20.061700
  H    -60.377200   -4.429660  -18.582900
  H    -60.175800   -3.003790  -19.402300
  H    -65.750800    2.279370  -15.947800
  H    -60.542900   -0.041854  -22.147900

 Total Charge           Charge          ....    0
 Multiplicity           Mult            ....    1
 Number of Electrons    NEL             ....  134
 Basis Dimension        Dim             ....  322

ORBITAL ENERGIES
----------------

  NO   OCC          E(Eh)            E(eV)
   0   2.0000     -88.971752     -2421.0445
   1   2.0000     -88.965083     -2420.8630
   2   2.0000     -10.347104      -281.5590
   3   2.0000     -10.341796      -281.4146
   4   2.0000     -10.317680      -280.7584
   5   2.0000     -10.316538      -280.7273
   6   2.0000     -10.312111      -280.6068
   7   2.0000     -10.299308      -280.2584
   8   2.0000     -10.298457      -280.2353
   9   2.0000     -10.294795      -280.1356
  10   2.0000     -10.294748      -280.1343
  11   2.0000     -10.290302      -280.0133
  12   2.0000     -10.288822      -279.9731
  13   2.0000     -10.283305      -279.8230
  14   2.0000     -10.281589      -279.7763
  15   2.0000     -10.276463      -279.6368
  16   2.0000      -8.085522      -220.0182
  17   2.0000      -8.078507      -219.8273
  18   2.0000      -6.044031      -164.4664
  19   2.0000      -6.040369      -164.3668
  20   2.0000      -6.037404      -164.2861
  21   2.0000      -6.036139      -164.2517
  22   2.0000      -6.033211      -164.1720
  23   2.0000      -6.028885      -164.0543
  24   2.0000      -0.998035       -27.1579
  25   2.0000      -0.982591       -26.7377
  26   2.0000      -0.912576       -24.8324
  27   2.0000      -0.910542       -24.7771
  28   2.0000      -0.865617       -23.5546
  29   2.0000      -0.850440       -23.1416
  30   2.0000      -0.838780       -22.8244
  31   2.0000      -0.819183       -22.2911
  32   2.0000      -0.789941       -21.4954
  33   2.0000      -0.777281       -21.1509
  34   2.0000      -0.707806       -19.2604
  35   2.0000      -0.697403       -18.9773
  36   2.0000      -0.688592       -18.7375
  37   2.0000      -0.663460       -18.0537
  38   2.0000      -0.634802       -17.2738
  39   2.0000      -0.620252       -16.8779
  40   2.0000      -0.595948       -16.2166
  41   2.0000      -0.577053       -15.7024
  42   2.0000      -0.563986       -15.3468
  43   2.0000      -0.547099       -14.8873
  44   2.0000      -0.544161       -14.8074
  45   2.0000      -0.539375       -14.6771
  46   2.0000      -0.518792       -14.1170
  47   2.0000      -0.508939       -13.8489
  48   2.0000      -0.498877       -13.5751
  49   2.0000      -0.494403       -13.4534
  50   2.0000      -0.490822       -13.3559
  51   2.0000      -0.486420       -13.2362
  52   2.0000      -0.474207       -12.9038
  53   2.0000      -0.462777       -12.5928
  54   2.0000      -0.459747       -12.5103
  55   2.0000      -0.447935       -12.1889
  56   2.0000      -0.447724       -12.1832
  57   2.0000      -0.436429       -11.8759
  58   2.0000      -0.427424       -11.6308
  59   2.0000      -0.424167       -11.5422
  60   2.0000      -0.420323       -11.4376
  61   2.0000      -0.411357       -11.1936
  62   2.0000      -0.404141       -10.9972
  63   2.0000      -0.358934        -9.7671
  64   2.0000      -0.336363        -9.1529
  65   2.0000      -0.329246        -8.9592
  66   2.0000      -0.287453        -7.8220
  67   0.0000       0.020570         0.5597
  68   0.0000       0.077491         2.1086
  69   0.0000       0.095358         2.5948
  70   0.0000       0.120291         3.2733
  71   0.0000       0.125323         3.4102

MULLIKEN ATOMIC CHARGES
-----------------------
   0 S :    0.072404
   1 C :   -0.114185
   2 C :   -0.092261
   3 C :   -0.021282
   4 C :   -0.063540
   5 H :   -0.011916
   6 C :    0.076408
   7 H :    0.028138
   8 H :    0.018461
   9 C :   -0.083561
  10 H :    0.013683
  11 H :    0.020794
  12 C :   -0.044348
  13 H :    0.060794
  14 H :    0.035806
  15 H :    0.019312
  16 S :    0.110808
  17 C :   -0.084163
  18 C :    0.004076
  19 C :   -0.047385
  20 C :   -0.148254
  21 H :   -0.005844
  22 C :    0.038269
  23 H :    0.029753
  24 H :    0.035662
  25 C :   -0.086860
  26 H :    0.038724
  27 H :    0.018839
  28 C :   -0.036367
  29 H :    0.026780
  30 H :    0.018360
  31 H :    0.053836
  32 H :    0.059303
  33 H :    0.059755
Sum of atomic charges:   -0.0000000

LOEWDIN ATOMIC CHARGES
----------------------
   0 S :    0.361576
   1 C :   -0.183792
   2 C :   -0.068556
   3 C :   -0.076545
   4 C :   -0.169512
   5 H :    0.022485
   6 C :   -0.025097
   7 H :    0.022423
   8 H :    0.037715
   9 C :   -0.049836
  10 H :    0.020971
  11 H :    0.028387
  12 C :   -0.064143
  13 H :    0.028957
  14 H :    0.033370
  15 H :    0.017029
  16 S :    0.386428
  17 C :   -0.180753
  18 C :   -0.057857
  19 C :   -0.048022
  20 C :   -0.172284
  21 H :    0.022183
  22 C :   -0.034382
  23 H :    0.034129
  24 H :    0.027861
  25 C :   -0.046690
  26 H :    0.033565
  27 H :    0.019029
  28 C :   -0.072215
  29 H :    0.025585
  30 H :    0.024573
  31 H :    0.036500
  32 H :    0.036656
  33 H :    0.030263

  Mayer bond orders larger than 0.100000
B(  0-S ,  1-C ) :   1.1173 B(  0-S ,  4-C ) :   1.1243 B(  1-C ,  2-C ) :   1.6530
B(  1-C , 32-H ) :   0.9500 B(  2-C ,  3-C ) :   1.2413 B(  2-C ,  6-C ) :   1.0255
B(  3-C ,  4-C ) :   1.5951 B(  3-C ,  5-H ) :   0.9803 B(  4-C , 20-C ) :   1.0316
B(  6-C ,  7-H ) :   0.9389 B(  6-C ,  8-H ) :   0.9401 B(  6-C ,  9-C ) :   1.0757
B(  9-C , 10-H ) :   0.9518 B(  9-C , 11-H ) :   0.9485 B(  9-C , 12-C ) :   1.0931
B( 12-C , 13-H ) :   0.9674 B( 12-C , 14-H ) :   0.9654 B( 12-C , 15-H ) :   0.9714
B( 16-S , 17-C ) :   1.1487 B( 16-S , 20-C ) :   1.1330 B( 17-C , 18-C ) :   1.6267
B( 17-C , 33-H ) :   0.9602 B( 18-C , 19-C ) :   1.2359 B( 18-C , 21-H ) :   0.9932
B( 19-C , 20-C ) :   1.5870 B( 19-C , 22-C ) :   1.0570 B( 22-C , 23-H ) :   0.9351
B( 22-C , 24-H ) :   0.9310 B( 22-C , 25-C ) :   1.0609 B( 25-C , 26-H ) :   0.9555
B( 25-C , 27-H ) :   0.9458 B( 25-C , 28-C ) :   1.0869 B( 28-C , 29-H ) :   0.9712
B( 28-C , 30-H ) :   0.9658 B( 28-C , 31-H ) :   0.9651

Dispersion correction           -0.015729669
FINAL SINGLE POINT ENERGY     -1339.854747007683

DIPOLE MOMENT
-------------
                                X             Y             Z
Electronic contribution:     -5.70212      24.20600     -17.59766
Nuclear contribution   :      5.95636     -25.00030      18.07487
                        -----------------------------------------
Total Dipole Moment    :      0.25425      -0.79430       0.47721
                        -----------------------------------------
Magnitude (a.u.)       :      0.96087
Magnitude (Debye)      :      2.44235

Rotational constants in cm-1:     0.017474     0.010648     0.007191
Rotational constants in MHz :   523.849202   319.211317   215.588167

                             ****ORCA TERMINATED NORMALLY****
TOTAL RUN TIME: 0 days 0 hours 0 minutes 22 seconds 958 msec
