                         Program Version 4.2.1 -  RELEASE  -
|  1> ! wB97X-D3 SP def2-SVP
|  2> %pal
|  3> nprocs 24
|  4> end
|  5>
|  6> * xyz 0 1
|  7> S 	 39.4759 	 -2.01592 	 -120.107
|  8> C 	 40.5098 	 -3.26695 	 -119.282
|  9> C 	 39.8441 	 -3.75709 	 -118.156
| 10> C 	 38.5489 	 -3.18965 	 -117.999
| 11> C 	 38.0728 	 -2.36471 	 -118.986
| 12> H 	 37.8572 	 -3.51408 	 -117.153
| 13> C 	 40.5189 	 -4.54658 	 -117.155
| 14> H 	 40.6195 	 -3.9186 	 -116.294
| 15> H 	 41.5591 	 -4.76527 	 -117.307
| 16> C 	 39.7693 	 -5.83803 	 -116.819
| 17> H 	 38.7038 	 -5.68683 	 -116.761
| 18> H 	 39.8981 	 -6.55836 	 -117.618
| 19> C 	 40.2513 	 -6.46621 	 -115.501
| 20> H 	 39.603 	 -7.3417 	 -115.24
| 21> H 	 41.2488 	 -6.89786 	 -115.609
| 22> H 	 40.2921 	 -5.67938 	 -114.705
| 23> S 	 37.0638 	 0.0174415 	 -119.552
| 24> C 	 35.4118 	 0.404884 	 -119.061
| 25> C 	 34.7173 	 -0.731828 	 -118.639
| 26> C 	 35.5326 	 -1.88482 	 -118.703
| 27> C 	 36.8189 	 -1.62733 	 -119.109
| 28> H 	 33.6306 	 -0.705122 	 -118.433
| 29> C 	 34.98 	 -3.19072 	 -118.12
| 30> H 	 35.6867 	 -3.94188 	 -118.452
| 31> H 	 33.9885 	 -3.34607 	 -118.563
| 32> C 	 34.8002 	 -3.20233 	 -116.594
| 33> H 	 34.1282 	 -2.4421 	 -116.297
| 34> H 	 35.7482 	 -2.87493 	 -116.283
| 35> C 	 34.914 	 -4.60209 	 -115.898
| 36> H 	 33.9818 	 -5.21833 	 -116.005
| 37> H 	 35.1956 	 -4.47117 	 -114.785
| 38> H 	 35.6509 	 -5.32868 	 -116.353
| 39> H 	 41.4733 	 -3.43277 	 -119.691
| 40> H 	 34.9208 	 1.37739 	 -119.115
| 41> *
| 42>
| 43>                          ****END OF INPUT****

CARTESIAN COORDINATES (ANGSTROEM)
---------------------------------
  S     39.475900   -2.015920  -120.107000
  C     40.509800   -3.266950  -119.282000
  C     39.844100   -3.757090  -118.156000
  C     38.548900   -3.189650  -117.999000
  C     38.072800   -2.364710  -118.986000
  H     37.857200   -3.514080  -117.153000
  C     40.518900   -4.546580  -117.155000
  H     40.619500   -3.918600  -116.294000
  H     41.559100   -4.765270  -117.307000
  C     39.769300   -5.838030  -116.819000
  H     38.703800   -5.686830  -116.761000
  H     39.898100   -6.558360  -117.618000
  C     40.251300   -6.466210  -115.501000
  H     39.603000   -7.341700  -115.240000
  H     41.248800   -6.897860  -115.609000
  H     40.292100   -5.679380  -114.705000
  S     37.063800    0.017441  -119.552000
  C     35.411800    0.404884  -119.061000
  C     34.717300   -0.731828  -118.639000
  C     35.532600   -1.884820  -118.703000
  C     36.818900   -1.627330  -119.109000
  H     33.630600   -0.705122  -118.433000
  C     34.980000   -3.190720  -118.120000
  H     35.686700   -3.941880  -118.452000
  H     33.988500   -3.346070  -118.563000
  C     34.800200   -3.202330  -116.594000
  H     34.128200   -2.442100  -116.297000
  H     35.748200   -2.874930  -116.283000
  C     34.914000   -4.602090  -115.898000
  H     33.981800   -5.218330  -116.005000
  H     35.195600   -4.471170  -114.785000
  H     35.650900   -5.328680  -116.353000
  H     41.473300   -3.432770  -119.691000
  H     34.920800    1.377390  -119.115000

 Total Charge           Charge          ....    0
 Multiplicity           Mult            ....    1
 Number of Electrons    NEL             ....  134
 Basis Dimension        Dim             ....  322

ORBITAL ENERGIES
----------------

  NO   OCC          E(Eh)            E(eV)
   0   2.0000     -88.969510     -2420.9834
   1   2.0000     -88.959799     -2420.7192
   2   2.0000     -10.338881      -281.3353
   3   2.0000     -10.326989      -281.0117
   4   2.0000     -10.322569      -280.8914
   5   2.0000     -10.319811      -280.8163
   6   2.0000     -10.303129      -280.3624
   7   2.0000     -10.302714      -280.3511
   8   2.0000     -10.301042      -280.3056
   9   2.0000     -10.300044      -280.2784
  10   2.0000     -10.297947      -280.2214
  11   2.0000     -10.292131      -280.0631
  12   2.0000     -10.285375      -279.8793
  13   2.0000     -10.285000      -279.8691
  14   2.0000     -10.284586      -279.8578
  15   2.0000     -10.284559      -279.8571
  16   2.0000      -8.084491      -219.9902
  17   2.0000      -8.072868      -219.6739
  18   2.0000      -6.043034      -164.4393
  19   2.0000      -6.038959      -164.3284
  20   2.0000      -6.035174      -164.2254
  21   2.0000      -6.031658      -164.1298
  22   2.0000      -6.027689      -164.0217
  23   2.0000      -6.023362      -163.9040
  24   2.0000      -1.008744       -27.4493
  25   2.0000      -0.979688       -26.6587
  26   2.0000      -0.918471       -24.9929
  27   2.0000      -0.910507       -24.7761
  28   2.0000      -0.870716       -23.6934
  29   2.0000      -0.851266       -23.1641
  30   2.0000      -0.841104       -22.8876
  31   2.0000      -0.817522       -22.2459
  32   2.0000      -0.779370       -21.2077
  33   2.0000      -0.769026       -20.9263
  34   2.0000      -0.712016       -19.3749
  35   2.0000      -0.703475       -19.1425
  36   2.0000      -0.697276       -18.9738
  37   2.0000      -0.667955       -18.1760
  38   2.0000      -0.648788       -17.6544
  39   2.0000      -0.622704       -16.9446
  40   2.0000      -0.592177       -16.1140
  41   2.0000      -0.571054       -15.5392
  42   2.0000      -0.567906       -15.4535
  43   2.0000      -0.559307       -15.2195
  44   2.0000      -0.530530       -14.4365
  45   2.0000      -0.526020       -14.3137
  46   2.0000      -0.520226       -14.1561
  47   2.0000      -0.511918       -13.9300
  48   2.0000      -0.505138       -13.7455
  49   2.0000      -0.498950       -13.5771
  50   2.0000      -0.492360       -13.3978
  51   2.0000      -0.486727       -13.2445
  52   2.0000      -0.475326       -12.9343
  53   2.0000      -0.464262       -12.6332
  54   2.0000      -0.453642       -12.3442
  55   2.0000      -0.449543       -12.2327
  56   2.0000      -0.445369       -12.1191
  57   2.0000      -0.443192       -12.0599
  58   2.0000      -0.434983       -11.8365
  59   2.0000      -0.429868       -11.6973
  60   2.0000      -0.420167       -11.4333
  61   2.0000      -0.407911       -11.0998
  62   2.0000      -0.401716       -10.9312
  63   2.0000      -0.355359        -9.6698
  64   2.0000      -0.335892        -9.1401
  65   2.0000      -0.325145        -8.8477
  66   2.0000      -0.287139        -7.8135
  67   0.0000       0.021710         0.5908
  68   0.0000       0.067884         1.8472
  69   0.0000       0.094288         2.5657
  70   0.0000       0.116769         3.1774
  71   0.0000       0.121732         3.3125

MULLIKEN ATOMIC CHARGES
-----------------------
   0 S :    0.047552
   1 C :   -0.123033
   2 C :   -0.043127
   3 C :   -0.003097
   4 C :   -0.116800
   5 H :    0.028288
   6 C :    0.084724
   7 H :    0.025434
   8 H :    0.009390
   9 C :   -0.090225
  10 H :    0.025705
  11 H :    0.028105
  12 C :   -0.065257
  13 H :    0.042173
  14 H :    0.030528
  15 H :    0.037802
  16 S :    0.112024
  17 C :   -0.093526
  18 C :   -0.056506
  19 C :   -0.072981
  20 C :   -0.116145
  21 H :    0.037701
  22 C :    0.071749
  23 H :    0.017901
  24 H :    0.028689
  25 C :   -0.012355
  26 H :    0.024888
  27 H :    0.005869
  28 C :   -0.114492
  29 H :    0.038109
  30 H :    0.059102
  31 H :    0.044660
  32 H :    0.046692
  33 H :    0.060459
Sum of atomic charges:    0.0000000

LOEWDIN ATOMIC CHARGES
----------------------
   0 S :    0.322960
   1 C :   -0.158281
   2 C :   -0.061277
   3 C :   -0.074486
   4 C :   -0.158674
   5 H :    0.038917
   6 C :   -0.034052
   7 H :    0.034377
   8 H :    0.030809
   9 C :   -0.039109
  10 H :    0.018224
  11 H :    0.025502
  12 C :   -0.069789
  13 H :    0.031583
  14 H :    0.023172
  15 H :    0.027133
  16 S :    0.422209
  17 C :   -0.178471
  18 C :   -0.074135
  19 C :   -0.058787
  20 C :   -0.206116
  21 H :    0.039387
  22 C :   -0.025969
  23 H :    0.026564
  24 H :    0.029603
  25 C :   -0.042679
  26 H :    0.022640
  27 H :    0.019392
  28 C :   -0.077681
  29 H :    0.023776
  30 H :    0.038820
  31 H :    0.032271
  32 H :    0.020696
  33 H :    0.031471

  Mayer bond orders larger than 0.100000
B(  0-S ,  1-C ) :   1.1130 B(  0-S ,  4-C ) :   1.1161 B(  1-C ,  2-C ) :   1.5922
B(  1-C ,  4-C ) :   0.1005 B(  1-C , 32-H ) :   0.9825 B(  2-C ,  3-C ) :   1.2260
B(  2-C ,  6-C ) :   1.0468 B(  3-C ,  4-C ) :   1.6106 B(  3-C ,  5-H ) :   0.9662
B(  4-C , 20-C ) :   1.0329 B(  6-C ,  7-H ) :   0.9342 B(  6-C ,  8-H ) :   0.9379
B(  6-C ,  9-C ) :   1.0413 B(  9-C , 10-H ) :   0.9638 B(  9-C , 11-H ) :   0.9506
B(  9-C , 12-C ) :   1.0829 B( 12-C , 13-H ) :   0.9734 B( 12-C , 14-H ) :   0.9739
B( 12-C , 15-H ) :   0.9769 B( 16-S , 17-C ) :   1.1604 B( 16-S , 20-C ) :   1.1395
B( 17-C , 18-C ) :   1.6039 B( 17-C , 33-H ) :   0.9666 B( 18-C , 19-C ) :   1.2454
B( 18-C , 21-H ) :   0.9830 B( 19-C , 20-C ) :   1.6054 B( 19-C , 22-C ) :   1.0542
B( 22-C , 23-H ) :   0.9332 B( 22-C , 24-H ) :   0.9294 B( 22-C , 25-C ) :   1.0638
B( 25-C , 26-H ) :   0.9545 B( 25-C , 27-H ) :   0.9530 B( 25-C , 28-C ) :   1.0525
B( 28-C , 29-H ) :   0.9750 B( 28-C , 30-H ) :   0.9781 B( 28-C , 31-H ) :   0.9716

Dispersion correction           -0.014412067
FINAL SINGLE POINT ENERGY     -1339.858342527688

DIPOLE MOMENT
-------------
                                X             Y             Z
Electronic contribution:      3.65878      24.61673     -22.60159
Nuclear contribution   :     -3.82003     -24.96820      23.22363
                        -----------------------------------------
Total Dipole Moment    :     -0.16125      -0.35148       0.62204
                        -----------------------------------------
Magnitude (a.u.)       :      0.73244
Magnitude (Debye)      :      1.86172

Rotational constants in cm-1:     0.017109     0.009905     0.006564
Rotational constants in MHz :   512.925256   296.949675   196.798384

                             ****ORCA TERMINATED NORMALLY****
TOTAL RUN TIME: 0 days 0 hours 0 minutes 20 seconds 919 msec
