                         Program Version 4.2.1 -  RELEASE  -
|  1> ! wB97X-D3 SP def2-SVP
|  2> %pal
|  3> nprocs 24
|  4> end
|  5>
|  6> * xyz 0 1
|  7> S 	 -35.7564 	 -9.32892 	 6.41808
|  8> C 	 -35.5691 	 -9.96056 	 8.0521
|  9> C 	 -36.1809 	 -9.17106 	 8.99543
| 10> C 	 -36.8544 	 -8.02083 	 8.38842
| 11> C 	 -36.7289 	 -8.00933 	 7.01057
| 12> H 	 -37.6013 	 -7.2699 	 8.74232
| 13> C 	 -36.1224 	 -9.39179 	 10.5618
| 14> H 	 -35.0702 	 -9.48843 	 10.9141
| 15> H 	 -36.4199 	 -10.4264 	 10.5565
| 16> C 	 -37.0089 	 -8.49664 	 11.4373
| 17> H 	 -38.0844 	 -8.58814 	 11.0881
| 18> H 	 -37.0282 	 -8.93057 	 12.4947
| 19> C 	 -36.4369 	 -7.04566 	 11.5368
| 20> H 	 -36.3594 	 -6.55852 	 10.6072
| 21> H 	 -37.0925 	 -6.35605 	 12.1637
| 22> H 	 -35.4232 	 -7.04748 	 11.9765
| 23> S 	 -39.0211 	 -6.89395 	 6.26822
| 24> C 	 -39.198 	 -5.8638 	 4.87696
| 25> C 	 -37.9029 	 -5.6922 	 4.3268
| 26> C 	 -36.8768 	 -6.30147 	 5.08025
| 27> C 	 -37.357 	 -7.0441 	 6.09724
| 28> H 	 -37.75 	 -5.01223 	 3.44248
| 29> C 	 -35.3961 	 -6.34699 	 4.63355
| 30> H 	 -35.3568 	 -7.19357 	 3.93689
| 31> H 	 -34.7092 	 -6.57432 	 5.46477
| 32> C 	 -34.8973 	 -5.14651 	 3.87641
| 33> H 	 -35.1659 	 -4.21253 	 4.37767
| 34> H 	 -35.469 	 -5.00503 	 2.91669
| 35> C 	 -33.3787 	 -5.19048 	 3.60889
| 36> H 	 -32.8134 	 -5.32717 	 4.48029
| 37> H 	 -33.0492 	 -4.23587 	 3.2663
| 38> H 	 -33.0282 	 -5.9813 	 2.87706
| 39> H 	 -35.011 	 -10.8554 	 8.18468
| 40> H 	 -40.132 	 -5.41489 	 4.47402
| 41> *
| 42>
| 43>                          ****END OF INPUT****

CARTESIAN COORDINATES (ANGSTROEM)
---------------------------------
  S    -35.756400   -9.328920    6.418080
  C    -35.569100   -9.960560    8.052100
  C    -36.180900   -9.171060    8.995430
  C    -36.854400   -8.020830    8.388420
  C    -36.728900   -8.009330    7.010570
  H    -37.601300   -7.269900    8.742320
  C    -36.122400   -9.391790   10.561800
  H    -35.070200   -9.488430   10.914100
  H    -36.419900  -10.426400   10.556500
  C    -37.008900   -8.496640   11.437300
  H    -38.084400   -8.588140   11.088100
  H    -37.028200   -8.930570   12.494700
  C    -36.436900   -7.045660   11.536800
  H    -36.359400   -6.558520   10.607200
  H    -37.092500   -6.356050   12.163700
  H    -35.423200   -7.047480   11.976500
  S    -39.021100   -6.893950    6.268220
  C    -39.198000   -5.863800    4.876960
  C    -37.902900   -5.692200    4.326800
  C    -36.876800   -6.301470    5.080250
  C    -37.357000   -7.044100    6.097240
  H    -37.750000   -5.012230    3.442480
  C    -35.396100   -6.346990    4.633550
  H    -35.356800   -7.193570    3.936890
  H    -34.709200   -6.574320    5.464770
  C    -34.897300   -5.146510    3.876410
  H    -35.165900   -4.212530    4.377670
  H    -35.469000   -5.005030    2.916690
  C    -33.378700   -5.190480    3.608890
  H    -32.813400   -5.327170    4.480290
  H    -33.049200   -4.235870    3.266300
  H    -33.028200   -5.981300    2.877060
  H    -35.011000  -10.855400    8.184680
  H    -40.132000   -5.414890    4.474020

 Total Charge           Charge          ....    0
 Multiplicity           Mult            ....    1
 Number of Electrons    NEL             ....  134
 Basis Dimension        Dim             ....  322

ORBITAL ENERGIES
----------------

  NO   OCC          E(Eh)            E(eV)
   0   2.0000     -88.965517     -2420.8748
   1   2.0000     -88.964639     -2420.8509
   2   2.0000     -10.327879      -281.0359
   3   2.0000     -10.321832      -280.8713
   4   2.0000     -10.315698      -280.7044
   5   2.0000     -10.313101      -280.6337
   6   2.0000     -10.312142      -280.6076
   7   2.0000     -10.303023      -280.3595
   8   2.0000     -10.299231      -280.2563
   9   2.0000     -10.299177      -280.2548
  10   2.0000     -10.298663      -280.2409
  11   2.0000     -10.296641      -280.1858
  12   2.0000     -10.290457      -280.0176
  13   2.0000     -10.287355      -279.9332
  14   2.0000     -10.281919      -279.7853
  15   2.0000     -10.275144      -279.6009
  16   2.0000      -8.080657      -219.8858
  17   2.0000      -8.080013      -219.8683
  18   2.0000      -6.039013      -164.3299
  19   2.0000      -6.038497      -164.3158
  20   2.0000      -6.034749      -164.2139
  21   2.0000      -6.034584      -164.2094
  22   2.0000      -6.031714      -164.1313
  23   2.0000      -6.030801      -164.1064
  24   2.0000      -1.015014       -27.6199
  25   2.0000      -0.984652       -26.7937
  26   2.0000      -0.908676       -24.7263
  27   2.0000      -0.902986       -24.5715
  28   2.0000      -0.868945       -23.6452
  29   2.0000      -0.851350       -23.1664
  30   2.0000      -0.837664       -22.7940
  31   2.0000      -0.813066       -22.1247
  32   2.0000      -0.782554       -21.2944
  33   2.0000      -0.774481       -21.0747
  34   2.0000      -0.703228       -19.1358
  35   2.0000      -0.702353       -19.1120
  36   2.0000      -0.687688       -18.7129
  37   2.0000      -0.661958       -18.0128
  38   2.0000      -0.639060       -17.3897
  39   2.0000      -0.612148       -16.6574
  40   2.0000      -0.596959       -16.2441
  41   2.0000      -0.565065       -15.3762
  42   2.0000      -0.561341       -15.2749
  43   2.0000      -0.545990       -14.8571
  44   2.0000      -0.529022       -14.3954
  45   2.0000      -0.523177       -14.2364
  46   2.0000      -0.517236       -14.0747
  47   2.0000      -0.510248       -13.8846
  48   2.0000      -0.499790       -13.6000
  49   2.0000      -0.496603       -13.5133
  50   2.0000      -0.488564       -13.2945
  51   2.0000      -0.480021       -13.0620
  52   2.0000      -0.476031       -12.9535
  53   2.0000      -0.468811       -12.7570
  54   2.0000      -0.460781       -12.5385
  55   2.0000      -0.444420       -12.0933
  56   2.0000      -0.440053       -11.9745
  57   2.0000      -0.437208       -11.8970
  58   2.0000      -0.433857       -11.8058
  59   2.0000      -0.429218       -11.6796
  60   2.0000      -0.417695       -11.3660
  61   2.0000      -0.412407       -11.2222
  62   2.0000      -0.411185       -11.1889
  63   2.0000      -0.345033        -9.3888
  64   2.0000      -0.331651        -9.0247
  65   2.0000      -0.328056        -8.9269
  66   2.0000      -0.296275        -8.0620
  67   0.0000       0.037137         1.0105
  68   0.0000       0.071300         1.9402
  69   0.0000       0.112528         3.0620
  70   0.0000       0.120810         3.2874
  71   0.0000       0.134163         3.6508

MULLIKEN ATOMIC CHARGES
-----------------------
   0 S :    0.108577
   1 C :   -0.137404
   2 C :   -0.058320
   3 C :   -0.009156
   4 C :   -0.158809
   5 H :    0.042583
   6 C :    0.054043
   7 H :    0.042555
   8 H :    0.026617
   9 C :   -0.091720
  10 H :    0.047042
  11 H :    0.044651
  12 C :   -0.060810
  13 H :    0.028804
  14 H :    0.042308
  15 H :    0.036725
  16 S :    0.118526
  17 C :   -0.117812
  18 C :   -0.076887
  19 C :   -0.022969
  20 C :   -0.156131
  21 H :    0.041215
  22 C :    0.061214
  23 H :    0.041390
  24 H :    0.035612
  25 C :   -0.115052
  26 H :    0.026127
  27 H :    0.029683
  28 C :   -0.010439
  29 H :    0.014986
  30 H :    0.018833
  31 H :    0.040688
  32 H :    0.038890
  33 H :    0.074438
Sum of atomic charges:   -0.0000000

LOEWDIN ATOMIC CHARGES
----------------------
   0 S :    0.404770
   1 C :   -0.192120
   2 C :   -0.052656
   3 C :   -0.082178
   4 C :   -0.192205
   5 H :    0.039060
   6 C :   -0.039057
   7 H :    0.036048
   8 H :    0.032677
   9 C :   -0.050960
  10 H :    0.032927
  11 H :    0.036062
  12 C :   -0.069864
  13 H :    0.015392
  14 H :    0.033350
  15 H :    0.030245
  16 S :    0.451710
  17 C :   -0.206287
  18 C :   -0.077286
  19 C :   -0.068887
  20 C :   -0.223066
  21 H :    0.037964
  22 C :   -0.035044
  23 H :    0.035202
  24 H :    0.030120
  25 C :   -0.049053
  26 H :    0.023287
  27 H :    0.025704
  28 C :   -0.061269
  29 H :    0.017452
  30 H :    0.023397
  31 H :    0.033387
  32 H :    0.020655
  33 H :    0.040525

  Mayer bond orders larger than 0.100000
B(  0-S ,  1-C ) :   1.1296 B(  0-S ,  4-C ) :   1.1532 B(  1-C ,  2-C ) :   1.6405
B(  1-C , 32-H ) :   0.9805 B(  2-C ,  3-C ) :   1.2029 B(  2-C ,  6-C ) :   0.9746
B(  3-C ,  4-C ) :   1.6156 B(  3-C ,  5-H ) :   0.9725 B(  4-C , 20-C ) :   0.9856
B(  6-C ,  7-H ) :   0.9474 B(  6-C ,  8-H ) :   0.9360 B(  6-C ,  9-C ) :   1.0824
B(  9-C , 10-H ) :   0.9534 B(  9-C , 11-H ) :   0.9542 B(  9-C , 12-C ) :   1.0574
B( 12-C , 13-H ) :   0.9790 B( 12-C , 14-H ) :   0.9747 B( 12-C , 15-H ) :   0.9726
B( 16-S , 17-C ) :   1.1727 B( 16-S , 20-C ) :   1.1747 B( 17-C , 18-C ) :   1.5632
B( 17-C , 20-C ) :   0.1040 B( 17-C , 33-H ) :   0.9676 B( 18-C , 19-C ) :   1.2714
B( 18-C , 21-H ) :   0.9776 B( 19-C , 20-C ) :   1.5873 B( 19-C , 22-C ) :   1.0318
B( 22-C , 23-H ) :   0.9330 B( 22-C , 24-H ) :   0.9381 B( 22-C , 25-C ) :   1.0702
B( 25-C , 26-H ) :   0.9612 B( 25-C , 27-H ) :   0.9429 B( 25-C , 28-C ) :   1.0876
B( 28-C , 29-H ) :   0.9724 B( 28-C , 30-H ) :   0.9707 B( 28-C , 31-H ) :   0.9742

Dispersion correction           -0.013982825
FINAL SINGLE POINT ENERGY     -1339.879563465820

DIPOLE MOMENT
-------------
                                X             Y             Z
Electronic contribution:    -12.75914      -9.04576      -7.51757
Nuclear contribution   :     12.95447       9.15031       7.67026
                        -----------------------------------------
Total Dipole Moment    :      0.19533       0.10455       0.15269
                        -----------------------------------------
Magnitude (a.u.)       :      0.26907
Magnitude (Debye)      :      0.68393

Rotational constants in cm-1:     0.018902     0.008101     0.006996
Rotational constants in MHz :   566.659571   242.864220   209.738647

                             ****ORCA TERMINATED NORMALLY****
TOTAL RUN TIME: 0 days 0 hours 0 minutes 21 seconds 108 msec
