                         Program Version 4.2.1 -  RELEASE  -
|  1> ! wB97X-D3 SP def2-SVP
|  2> %pal
|  3> nprocs 24
|  4> end
|  5>
|  6> * xyz 0 1
|  7> S 	 -100.98 	 -3.17882 	 -120.7
|  8> C 	 -101.872 	 -3.51271 	 -122.209
|  9> C 	 -102.375 	 -2.38618 	 -122.852
| 10> C 	 -102.002 	 -1.24107 	 -122.12
| 11> C 	 -101.264 	 -1.44657 	 -120.971
| 12> H 	 -102.296 	 -0.22563 	 -122.293
| 13> C 	 -103.189 	 -2.40039 	 -124.107
| 14> H 	 -104.169 	 -1.99689 	 -123.855
| 15> H 	 -103.218 	 -3.2914 	 -124.599
| 16> C 	 -102.698 	 -1.39333 	 -125.126
| 17> H 	 -102.731 	 -0.390912 	 -124.811
| 18> H 	 -101.685 	 -1.54286 	 -125.358
| 19> C 	 -103.53 	 -1.48373 	 -126.416
| 20> H 	 -104.543 	 -1.20742 	 -126.169
| 21> H 	 -103.102 	 -0.939308 	 -127.231
| 22> H 	 -103.57 	 -2.47879 	 -126.813
| 23> S 	 -100.916 	 -0.868935 	 -118.4
| 24> C 	 -99.9677 	 0.453251 	 -117.906
| 25> C 	 -99.8083 	 1.40681 	 -118.927
| 26> C 	 -100.364 	 0.893797 	 -120.152
| 27> C 	 -100.708 	 -0.452245 	 -120.039
| 28> H 	 -99.257 	 2.33148 	 -118.709
| 29> C 	 -100.33 	 1.70579 	 -121.433
| 30> H 	 -100.07 	 1.01103 	 -122.136
| 31> H 	 -99.5486 	 2.49117 	 -121.375
| 32> C 	 -101.642 	 2.45337 	 -121.619
| 33> H 	 -101.826 	 3.05033 	 -120.737
| 34> H 	 -102.399 	 1.68614 	 -121.395
| 35> C 	 -101.896 	 3.15342 	 -122.883
| 36> H 	 -101.836 	 2.4923 	 -123.737
| 37> H 	 -101.144 	 3.93869 	 -123.008
| 38> H 	 -102.916 	 3.49639 	 -122.76
| 39> H 	 -102.117 	 -4.53092 	 -122.549
| 40> H 	 -99.6635 	 0.584811 	 -116.874
| 41> *
| 42>
| 43>                          ****END OF INPUT****

CARTESIAN COORDINATES (ANGSTROEM)
---------------------------------
  S    -100.980000   -3.178820  -120.700000
  C    -101.872000   -3.512710  -122.209000
  C    -102.375000   -2.386180  -122.852000
  C    -102.002000   -1.241070  -122.120000
  C    -101.264000   -1.446570  -120.971000
  H    -102.296000   -0.225630  -122.293000
  C    -103.189000   -2.400390  -124.107000
  H    -104.169000   -1.996890  -123.855000
  H    -103.218000   -3.291400  -124.599000
  C    -102.698000   -1.393330  -125.126000
  H    -102.731000   -0.390912  -124.811000
  H    -101.685000   -1.542860  -125.358000
  C    -103.530000   -1.483730  -126.416000
  H    -104.543000   -1.207420  -126.169000
  H    -103.102000   -0.939308  -127.231000
  H    -103.570000   -2.478790  -126.813000
  S    -100.916000   -0.868935  -118.400000
  C    -99.967700    0.453251  -117.906000
  C    -99.808300    1.406810  -118.927000
  C    -100.364000    0.893797  -120.152000
  C    -100.708000   -0.452245  -120.039000
  H    -99.257000    2.331480  -118.709000
  C    -100.330000    1.705790  -121.433000
  H    -100.070000    1.011030  -122.136000
  H    -99.548600    2.491170  -121.375000
  C    -101.642000    2.453370  -121.619000
  H    -101.826000    3.050330  -120.737000
  H    -102.399000    1.686140  -121.395000
  C    -101.896000    3.153420  -122.883000
  H    -101.836000    2.492300  -123.737000
  H    -101.144000    3.938690  -123.008000
  H    -102.916000    3.496390  -122.760000
  H    -102.117000   -4.530920  -122.549000
  H    -99.663500    0.584811  -116.874000

 Total Charge           Charge          ....    0
 Multiplicity           Mult            ....    1
 Number of Electrons    NEL             ....  134
 Basis Dimension        Dim             ....  322

ORBITAL ENERGIES
----------------

  NO   OCC          E(Eh)            E(eV)
   0   2.0000     -88.967634     -2420.9324
   1   2.0000     -88.962806     -2420.8010
   2   2.0000     -10.330838      -281.1164
   3   2.0000     -10.322751      -280.8963
   4   2.0000     -10.316660      -280.7306
   5   2.0000     -10.312243      -280.6104
   6   2.0000     -10.304856      -280.4094
   7   2.0000     -10.301723      -280.3241
   8   2.0000     -10.298009      -280.2231
   9   2.0000     -10.290601      -280.0215
  10   2.0000     -10.286709      -279.9156
  11   2.0000     -10.282995      -279.8145
  12   2.0000     -10.279682      -279.7244
  13   2.0000     -10.277235      -279.6578
  14   2.0000     -10.276023      -279.6248
  15   2.0000     -10.273539      -279.5572
  16   2.0000      -8.081250      -219.9020
  17   2.0000      -8.079516      -219.8548
  18   2.0000      -6.039794      -164.3512
  19   2.0000      -6.037780      -164.2964
  20   2.0000      -6.036044      -164.2491
  21   2.0000      -6.033879      -164.1902
  22   2.0000      -6.031912      -164.1367
  23   2.0000      -6.030286      -164.0924
  24   2.0000      -1.012152       -27.5421
  25   2.0000      -0.984474       -26.7889
  26   2.0000      -0.923023       -25.1167
  27   2.0000      -0.920441       -25.0465
  28   2.0000      -0.868939       -23.6450
  29   2.0000      -0.859876       -23.3984
  30   2.0000      -0.846458       -23.0333
  31   2.0000      -0.815326       -22.1862
  32   2.0000      -0.787911       -21.4401
  33   2.0000      -0.774527       -21.0759
  34   2.0000      -0.712479       -19.3875
  35   2.0000      -0.700989       -19.0749
  36   2.0000      -0.690355       -18.7855
  37   2.0000      -0.666749       -18.1432
  38   2.0000      -0.641798       -17.4642
  39   2.0000      -0.624071       -16.9818
  40   2.0000      -0.596072       -16.2200
  41   2.0000      -0.584069       -15.8933
  42   2.0000      -0.571772       -15.5587
  43   2.0000      -0.562231       -15.2991
  44   2.0000      -0.539759       -14.6876
  45   2.0000      -0.527311       -14.3489
  46   2.0000      -0.519369       -14.1328
  47   2.0000      -0.513806       -13.9814
  48   2.0000      -0.509585       -13.8665
  49   2.0000      -0.496601       -13.5132
  50   2.0000      -0.492984       -13.4148
  51   2.0000      -0.487760       -13.2726
  52   2.0000      -0.474007       -12.8984
  53   2.0000      -0.470302       -12.7976
  54   2.0000      -0.460118       -12.5205
  55   2.0000      -0.449190       -12.2231
  56   2.0000      -0.444308       -12.0902
  57   2.0000      -0.443052       -12.0561
  58   2.0000      -0.438039       -11.9196
  59   2.0000      -0.430851       -11.7241
  60   2.0000      -0.424486       -11.5509
  61   2.0000      -0.420467       -11.4415
  62   2.0000      -0.406355       -11.0575
  63   2.0000      -0.348052        -9.4710
  64   2.0000      -0.333231        -9.0677
  65   2.0000      -0.327491        -8.9115
  66   2.0000      -0.284542        -7.7428
  67   0.0000       0.023265         0.6331
  68   0.0000       0.076928         2.0933
  69   0.0000       0.104136         2.8337
  70   0.0000       0.120476         3.2783
  71   0.0000       0.125435         3.4133

MULLIKEN ATOMIC CHARGES
-----------------------
   0 S :    0.105194
   1 C :   -0.137381
   2 C :   -0.062037
   3 C :    0.013632
   4 C :   -0.138556
   5 H :   -0.017798
   6 C :    0.160440
   7 H :    0.029358
   8 H :   -0.008329
   9 C :   -0.098162
  10 H :    0.020530
  11 H :    0.015160
  12 C :   -0.018614
  13 H :    0.022651
  14 H :    0.029702
  15 H :    0.014346
  16 S :    0.110677
  17 C :   -0.092194
  18 C :   -0.043029
  19 C :   -0.094303
  20 C :   -0.121652
  21 H :    0.031809
  22 C :    0.115793
  23 H :    0.007690
  24 H :    0.015239
  25 C :   -0.121753
  26 H :    0.012064
  27 H :    0.012472
  28 C :    0.039357
  29 H :    0.024740
  30 H :    0.031682
  31 H :    0.038045
  32 H :    0.048847
  33 H :    0.054380
Sum of atomic charges:   -0.0000000

LOEWDIN ATOMIC CHARGES
----------------------
   0 S :    0.379190
   1 C :   -0.188393
   2 C :   -0.057503
   3 C :   -0.066463
   4 C :   -0.183637
   5 H :    0.024455
   6 C :   -0.014049
   7 H :    0.038747
   8 H :    0.017834
   9 C :   -0.032071
  10 H :    0.015492
  11 H :    0.016194
  12 C :   -0.056821
  13 H :    0.022719
  14 H :    0.025155
  15 H :    0.020073
  16 S :    0.443625
  17 C :   -0.200859
  18 C :   -0.073273
  19 C :   -0.050177
  20 C :   -0.213427
  21 H :    0.037879
  22 C :   -0.024238
  23 H :    0.016531
  24 H :    0.029426
  25 C :   -0.052995
  26 H :    0.024963
  27 H :    0.019458
  28 C :   -0.056600
  29 H :    0.023309
  30 H :    0.027926
  31 H :    0.034234
  32 H :    0.028287
  33 H :    0.025008

  Mayer bond orders larger than 0.100000
B(  0-S ,  1-C ) :   1.1281 B(  0-S ,  4-C ) :   1.1349 B(  1-C ,  2-C ) :   1.6207
B(  1-C , 32-H ) :   0.9611 B(  2-C ,  3-C ) :   1.2241 B(  2-C ,  6-C ) :   1.0375
B(  3-C ,  4-C ) :   1.5962 B(  3-C ,  5-H ) :   0.9887 B(  4-C , 20-C ) :   1.0300
B(  6-C ,  7-H ) :   0.9229 B(  6-C ,  8-H ) :   0.9419 B(  6-C ,  9-C ) :   1.0622
B(  9-C , 10-H ) :   0.9507 B(  9-C , 11-H ) :   0.9557 B(  9-C , 12-C ) :   1.0955
B( 12-C , 13-H ) :   0.9730 B( 12-C , 14-H ) :   0.9723 B( 12-C , 15-H ) :   0.9727
B( 16-S , 17-C ) :   1.1801 B( 16-S , 20-C ) :   1.1656 B( 17-C , 18-C ) :   1.5766
B( 17-C , 20-C ) :   0.1029 B( 17-C , 33-H ) :   0.9703 B( 18-C , 19-C ) :   1.2427
B( 18-C , 21-H ) :   0.9952 B( 19-C , 20-C ) :   1.5692 B( 19-C , 22-C ) :   1.0477
B( 22-C , 23-H ) :   0.9323 B( 22-C , 24-H ) :   0.9332 B( 22-C , 25-C ) :   1.0576
B( 25-C , 26-H ) :   0.9413 B( 25-C , 27-H ) :   0.9474 B( 25-C , 28-C ) :   1.0838
B( 28-C , 29-H ) :   0.9698 B( 28-C , 30-H ) :   0.9670 B( 28-C , 31-H ) :   0.9672

Dispersion correction           -0.014410943
FINAL SINGLE POINT ENERGY     -1339.862313172961

DIPOLE MOMENT
-------------
                                X             Y             Z
Electronic contribution:      9.56338     -15.69884      27.25426
Nuclear contribution   :     -9.80237      16.16681     -27.72406
                        -----------------------------------------
Total Dipole Moment    :     -0.23899       0.46796      -0.46980
                        -----------------------------------------
Magnitude (a.u.)       :      0.70485
Magnitude (Debye)      :      1.79159

Rotational constants in cm-1:     0.017959     0.009724     0.006557
Rotational constants in MHz :   538.402167   291.533169   196.565763

                             ****ORCA TERMINATED NORMALLY****
TOTAL RUN TIME: 0 days 0 hours 0 minutes 22 seconds 221 msec
