                         Program Version 4.2.1 -  RELEASE  -
|  1> ! wB97X-D3 SP def2-SVP
|  2> %pal
|  3> nprocs 24
|  4> end
|  5>
|  6> * xyz 0 1
|  7> S 	 -108.801 	 -0.173619 	 -115.326
|  8> C 	 -109.938 	 1.18165 	 -115.215
|  9> C 	 -109.621 	 2.00247 	 -114.177
| 10> C 	 -108.481 	 1.52784 	 -113.439
| 11> C 	 -108.001 	 0.332434 	 -113.881
| 12> H 	 -107.98 	 2.03907 	 -112.676
| 13> C 	 -110.245 	 3.29248 	 -113.797
| 14> H 	 -111.224 	 3.13089 	 -113.457
| 15> H 	 -110.572 	 3.81768 	 -114.708
| 16> C 	 -109.49 	 4.31498 	 -112.897
| 17> H 	 -109.265 	 3.83759 	 -111.879
| 18> H 	 -108.613 	 4.58988 	 -113.469
| 19> C 	 -110.401 	 5.51275 	 -112.653
| 20> H 	 -109.913 	 6.25487 	 -112.02
| 21> H 	 -110.708 	 5.95907 	 -113.561
| 22> H 	 -111.398 	 5.29067 	 -112.037
| 23> S 	 -107.036 	 -2.11637 	 -113.058
| 24> C 	 -105.575 	 -2.21211 	 -112.194
| 25> C 	 -104.812 	 -1.08873 	 -112.452
| 26> C 	 -105.583 	 0.00724941 	 -112.955
| 27> C 	 -106.846 	 -0.358032 	 -113.33
| 28> H 	 -103.79 	 -1.05871 	 -112.051
| 29> C 	 -104.965 	 1.39048 	 -113.149
| 30> H 	 -105.617 	 2.09881 	 -113.646
| 31> H 	 -104.031 	 1.14528 	 -113.707
| 32> C 	 -104.594 	 2.12185 	 -111.848
| 33> H 	 -103.516 	 2.1568 	 -111.701
| 34> H 	 -104.863 	 1.4837 	 -110.969
| 35> C 	 -105.236 	 3.5504 	 -111.743
| 36> H 	 -106.297 	 3.56709 	 -111.559
| 37> H 	 -105.073 	 4.19269 	 -112.635
| 38> H 	 -104.88 	 3.98479 	 -110.822
| 39> H 	 -110.721 	 1.27592 	 -115.936
| 40> H 	 -105.134 	 -3.17423 	 -111.841
| 41> *
| 42>
| 43>                          ****END OF INPUT****

CARTESIAN COORDINATES (ANGSTROEM)
---------------------------------
  S    -108.801000   -0.173619  -115.326000
  C    -109.938000    1.181650  -115.215000
  C    -109.621000    2.002470  -114.177000
  C    -108.481000    1.527840  -113.439000
  C    -108.001000    0.332434  -113.881000
  H    -107.980000    2.039070  -112.676000
  C    -110.245000    3.292480  -113.797000
  H    -111.224000    3.130890  -113.457000
  H    -110.572000    3.817680  -114.708000
  C    -109.490000    4.314980  -112.897000
  H    -109.265000    3.837590  -111.879000
  H    -108.613000    4.589880  -113.469000
  C    -110.401000    5.512750  -112.653000
  H    -109.913000    6.254870  -112.020000
  H    -110.708000    5.959070  -113.561000
  H    -111.398000    5.290670  -112.037000
  S    -107.036000   -2.116370  -113.058000
  C    -105.575000   -2.212110  -112.194000
  C    -104.812000   -1.088730  -112.452000
  C    -105.583000    0.007249  -112.955000
  C    -106.846000   -0.358032  -113.330000
  H    -103.790000   -1.058710  -112.051000
  C    -104.965000    1.390480  -113.149000
  H    -105.617000    2.098810  -113.646000
  H    -104.031000    1.145280  -113.707000
  C    -104.594000    2.121850  -111.848000
  H    -103.516000    2.156800  -111.701000
  H    -104.863000    1.483700  -110.969000
  C    -105.236000    3.550400  -111.743000
  H    -106.297000    3.567090  -111.559000
  H    -105.073000    4.192690  -112.635000
  H    -104.880000    3.984790  -110.822000
  H    -110.721000    1.275920  -115.936000
  H    -105.134000   -3.174230  -111.841000

 Total Charge           Charge          ....    0
 Multiplicity           Mult            ....    1
 Number of Electrons    NEL             ....  134
 Basis Dimension        Dim             ....  322

ORBITAL ENERGIES
----------------

  NO   OCC          E(Eh)            E(eV)
   0   2.0000     -88.962831     -2420.8017
   1   2.0000     -88.958469     -2420.6830
   2   2.0000     -10.324259      -280.9374
   3   2.0000     -10.323945      -280.9288
   4   2.0000     -10.317532      -280.7543
   5   2.0000     -10.310446      -280.5615
   6   2.0000     -10.303918      -280.3839
   7   2.0000     -10.299994      -280.2771
   8   2.0000     -10.299205      -280.2556
   9   2.0000     -10.294529      -280.1284
  10   2.0000     -10.292670      -280.0778
  11   2.0000     -10.290120      -280.0084
  12   2.0000     -10.288426      -279.9623
  13   2.0000     -10.286193      -279.9015
  14   2.0000     -10.283941      -279.8402
  15   2.0000     -10.283308      -279.8231
  16   2.0000      -8.077847      -219.8094
  17   2.0000      -8.074135      -219.7084
  18   2.0000      -6.036442      -164.2599
  19   2.0000      -6.032588      -164.1551
  20   2.0000      -6.032337      -164.1482
  21   2.0000      -6.028588      -164.0462
  22   2.0000      -6.028490      -164.0435
  23   2.0000      -6.024792      -163.9429
  24   2.0000      -1.009392       -27.4670
  25   2.0000      -0.987835       -26.8804
  26   2.0000      -0.915425       -24.9100
  27   2.0000      -0.906558       -24.6687
  28   2.0000      -0.872318       -23.7370
  29   2.0000      -0.851090       -23.1593
  30   2.0000      -0.843910       -22.9640
  31   2.0000      -0.814786       -22.1715
  32   2.0000      -0.782865       -21.3028
  33   2.0000      -0.774341       -21.0709
  34   2.0000      -0.713975       -19.4282
  35   2.0000      -0.700146       -19.0519
  36   2.0000      -0.691677       -18.8215
  37   2.0000      -0.657685       -17.8965
  38   2.0000      -0.644952       -17.5500
  39   2.0000      -0.626193       -17.0396
  40   2.0000      -0.599301       -16.3078
  41   2.0000      -0.572276       -15.5724
  42   2.0000      -0.564972       -15.3737
  43   2.0000      -0.556311       -15.1380
  44   2.0000      -0.530075       -14.4241
  45   2.0000      -0.523035       -14.2325
  46   2.0000      -0.519042       -14.1239
  47   2.0000      -0.513593       -13.9756
  48   2.0000      -0.503666       -13.7055
  49   2.0000      -0.498015       -13.5517
  50   2.0000      -0.483767       -13.1640
  51   2.0000      -0.480467       -13.0742
  52   2.0000      -0.478514       -13.0210
  53   2.0000      -0.469609       -12.7787
  54   2.0000      -0.458654       -12.4806
  55   2.0000      -0.453132       -12.3304
  56   2.0000      -0.438475       -11.9315
  57   2.0000      -0.436161       -11.8685
  58   2.0000      -0.433063       -11.7843
  59   2.0000      -0.430189       -11.7060
  60   2.0000      -0.426116       -11.5952
  61   2.0000      -0.419732       -11.4215
  62   2.0000      -0.403261       -10.9733
  63   2.0000      -0.347531        -9.4568
  64   2.0000      -0.327949        -8.9240
  65   2.0000      -0.325757        -8.8643
  66   2.0000      -0.292764        -7.9665
  67   0.0000       0.035258         0.9594
  68   0.0000       0.066923         1.8211
  69   0.0000       0.112501         3.0613
  70   0.0000       0.121913         3.3174
  71   0.0000       0.134744         3.6666

MULLIKEN ATOMIC CHARGES
-----------------------
   0 S :    0.104591
   1 C :   -0.141014
   2 C :   -0.010601
   3 C :    0.018035
   4 C :   -0.101351
   5 H :   -0.034690
   6 C :    0.053150
   7 H :    0.009768
   8 H :    0.007091
   9 C :   -0.081952
  10 H :    0.056934
  11 H :    0.043990
  12 C :   -0.061791
  13 H :    0.036094
  14 H :    0.024711
  15 H :    0.044875
  16 S :    0.093994
  17 C :   -0.101044
  18 C :   -0.052291
  19 C :   -0.042641
  20 C :   -0.169476
  21 H :    0.028976
  22 C :    0.080107
  23 H :    0.023805
  24 H :    0.045996
  25 C :   -0.088734
  26 H :    0.024614
  27 H :    0.036444
  28 C :   -0.066530
  29 H :    0.028532
  30 H :    0.050603
  31 H :    0.027719
  32 H :    0.035461
  33 H :    0.076626
Sum of atomic charges:   -0.0000000

LOEWDIN ATOMIC CHARGES
----------------------
   0 S :    0.400936
   1 C :   -0.186224
   2 C :   -0.056801
   3 C :   -0.062376
   4 C :   -0.193695
   5 H :    0.017624
   6 C :   -0.043052
   7 H :    0.027142
   8 H :    0.034249
   9 C :   -0.039947
  10 H :    0.034419
  11 H :    0.027632
  12 C :   -0.068980
  13 H :    0.025842
  14 H :    0.016468
  15 H :    0.039322
  16 S :    0.401126
  17 C :   -0.199491
  18 C :   -0.081382
  19 C :   -0.055575
  20 C :   -0.185737
  21 H :    0.033394
  22 C :   -0.030840
  23 H :    0.027583
  24 H :    0.043188
  25 C :   -0.046999
  26 H :    0.022226
  27 H :    0.029497
  28 C :   -0.070114
  29 H :    0.021280
  30 H :    0.030536
  31 H :    0.027652
  32 H :    0.021616
  33 H :    0.039482

  Mayer bond orders larger than 0.100000
B(  0-S ,  1-C ) :   1.1175 B(  0-S ,  4-C ) :   1.1583 B(  1-C ,  2-C ) :   1.6151
B(  1-C , 32-H ) :   0.9815 B(  2-C ,  3-C ) :   1.2191 B(  2-C ,  6-C ) :   1.0085
B(  3-C ,  4-C ) :   1.5800 B(  3-C ,  5-H ) :   1.0111 B(  4-C , 20-C ) :   1.0249
B(  6-C ,  7-H ) :   0.9227 B(  6-C ,  8-H ) :   0.9284 B(  6-C ,  9-C ) :   1.0715
B(  9-C , 10-H ) :   0.9433 B(  9-C , 11-H ) :   0.9526 B(  9-C , 12-C ) :   1.0854
B( 12-C , 13-H ) :   0.9719 B( 12-C , 14-H ) :   0.9734 B( 12-C , 15-H ) :   0.9730
B( 16-S , 17-C ) :   1.1749 B( 16-S , 20-C ) :   1.1224 B( 17-C , 18-C ) :   1.6108
B( 17-C , 20-C ) :   0.1005 B( 17-C , 33-H ) :   0.9589 B( 18-C , 19-C ) :   1.2189
B( 18-C , 21-H ) :   0.9830 B( 19-C , 20-C ) :   1.6236 B( 19-C , 22-C ) :   1.0483
B( 22-C , 23-H ) :   0.9479 B( 22-C , 24-H ) :   0.9337 B( 22-C , 25-C ) :   1.0301
B( 25-C , 26-H ) :   0.9554 B( 25-C , 27-H ) :   0.9632 B( 25-C , 28-C ) :   1.0839
B( 28-C , 29-H ) :   0.9730 B( 28-C , 30-H ) :   0.9746 B( 28-C , 31-H ) :   0.9691

Dispersion correction           -0.014629378
FINAL SINGLE POINT ENERGY     -1339.868728401125

DIPOLE MOMENT
-------------
                                X             Y             Z
Electronic contribution:     -1.85074     -30.90386     -10.99174
Nuclear contribution   :      2.07226      31.62131      11.23792
                        -----------------------------------------
Total Dipole Moment    :      0.22151       0.71745       0.24618
                        -----------------------------------------
Magnitude (a.u.)       :      0.79020
Magnitude (Debye)      :      2.00853

Rotational constants in cm-1:     0.017538     0.009694     0.006761
Rotational constants in MHz :   525.764880   290.632329   202.677370

                             ****ORCA TERMINATED NORMALLY****
TOTAL RUN TIME: 0 days 0 hours 0 minutes 21 seconds 987 msec
