                         Program Version 4.2.1 -  RELEASE  -
|  1> ! wB97X-D3 SP def2-SVP
|  2> %pal
|  3> nprocs 24
|  4> end
|  5>
|  6> * xyz 0 1
|  7> S 	 -100.28 	 0.15129 	 -119.54
|  8> C 	 -101.861 	 0.558349 	 -120.077
|  9> C 	 -102.874 	 0.0297492 	 -119.284
| 10> C 	 -102.355 	 -0.730534 	 -118.186
| 11> C 	 -100.95 	 -0.807789 	 -118.211
| 12> H 	 -102.924 	 -1.27945 	 -117.443
| 13> C 	 -104.382 	 0.16044 	 -119.584
| 14> H 	 -104.687 	 -0.863661 	 -119.75
| 15> H 	 -104.584 	 0.730932 	 -120.526
| 16> C 	 -105.198 	 0.739719 	 -118.407
| 17> H 	 -105.352 	 0.101657 	 -117.483
| 18> H 	 -104.62 	 1.63591 	 -118.106
| 19> C 	 -106.544 	 1.27778 	 -118.854
| 20> H 	 -106.944 	 1.63099 	 -117.922
| 21> H 	 -106.36 	 2.12471 	 -119.553
| 22> H 	 -107.184 	 0.481931 	 -119.417
| 23> S 	 -98.4229 	 -0.74081 	 -117.1
| 24> C 	 -97.8696 	 -2.08459 	 -116.064
| 25> C 	 -98.8332 	 -3.07946 	 -115.948
| 26> C 	 -100.043 	 -2.6673 	 -116.571
| 27> C 	 -100.051 	 -1.4733 	 -117.258
| 28> H 	 -98.6765 	 -4.0087 	 -115.478
| 29> C 	 -101.215 	 -3.59541 	 -116.598
| 30> H 	 -102.007 	 -3.03678 	 -116.064
| 31> H 	 -100.932 	 -4.49387 	 -116.073
| 32> C 	 -101.603 	 -4.02322 	 -118.026
| 33> H 	 -101.989 	 -3.21757 	 -118.644
| 34> H 	 -102.392 	 -4.73936 	 -117.989
| 35> C 	 -100.455 	 -4.65049 	 -118.88
| 36> H 	 -99.679 	 -3.93321 	 -119.092
| 37> H 	 -100.894 	 -4.90515 	 -119.868
| 38> H 	 -99.882 	 -5.42516 	 -118.409
| 39> H 	 -102.149 	 1.16203 	 -120.906
| 40> H 	 -96.8402 	 -2.36182 	 -115.811
| 41> *
| 42>
| 43>                          ****END OF INPUT****

CARTESIAN COORDINATES (ANGSTROEM)
---------------------------------
  S    -100.280000    0.151290  -119.540000
  C    -101.861000    0.558349  -120.077000
  C    -102.874000    0.029749  -119.284000
  C    -102.355000   -0.730534  -118.186000
  C    -100.950000   -0.807789  -118.211000
  H    -102.924000   -1.279450  -117.443000
  C    -104.382000    0.160440  -119.584000
  H    -104.687000   -0.863661  -119.750000
  H    -104.584000    0.730932  -120.526000
  C    -105.198000    0.739719  -118.407000
  H    -105.352000    0.101657  -117.483000
  H    -104.620000    1.635910  -118.106000
  C    -106.544000    1.277780  -118.854000
  H    -106.944000    1.630990  -117.922000
  H    -106.360000    2.124710  -119.553000
  H    -107.184000    0.481931  -119.417000
  S    -98.422900   -0.740810  -117.100000
  C    -97.869600   -2.084590  -116.064000
  C    -98.833200   -3.079460  -115.948000
  C    -100.043000   -2.667300  -116.571000
  C    -100.051000   -1.473300  -117.258000
  H    -98.676500   -4.008700  -115.478000
  C    -101.215000   -3.595410  -116.598000
  H    -102.007000   -3.036780  -116.064000
  H    -100.932000   -4.493870  -116.073000
  C    -101.603000   -4.023220  -118.026000
  H    -101.989000   -3.217570  -118.644000
  H    -102.392000   -4.739360  -117.989000
  C    -100.455000   -4.650490  -118.880000
  H    -99.679000   -3.933210  -119.092000
  H    -100.894000   -4.905150  -119.868000
  H    -99.882000   -5.425160  -118.409000
  H    -102.149000    1.162030  -120.906000
  H    -96.840200   -2.361820  -115.811000

 Total Charge           Charge          ....    0
 Multiplicity           Mult            ....    1
 Number of Electrons    NEL             ....  134
 Basis Dimension        Dim             ....  322

ORBITAL ENERGIES
----------------

  NO   OCC          E(Eh)            E(eV)
   0   2.0000     -88.972503     -2421.0649
   1   2.0000     -88.965775     -2420.8818
   2   2.0000     -10.338141      -281.3151
   3   2.0000     -10.329406      -281.0774
   4   2.0000     -10.322446      -280.8880
   5   2.0000     -10.311021      -280.5772
   6   2.0000     -10.304304      -280.3944
   7   2.0000     -10.299997      -280.2772
   8   2.0000     -10.299100      -280.2527
   9   2.0000     -10.298798      -280.2446
  10   2.0000     -10.294075      -280.1160
  11   2.0000     -10.292640      -280.0770
  12   2.0000     -10.289094      -279.9805
  13   2.0000     -10.287159      -279.9278
  14   2.0000     -10.279261      -279.7129
  15   2.0000     -10.270985      -279.4877
  16   2.0000      -8.086954      -220.0572
  17   2.0000      -8.079303      -219.8490
  18   2.0000      -6.045472      -164.5057
  19   2.0000      -6.041489      -164.3973
  20   2.0000      -6.038048      -164.3036
  21   2.0000      -6.037733      -164.2951
  22   2.0000      -6.033966      -164.1925
  23   2.0000      -6.029890      -164.0817
  24   2.0000      -1.004686       -27.3389
  25   2.0000      -0.981899       -26.7188
  26   2.0000      -0.911884       -24.8136
  27   2.0000      -0.905584       -24.6422
  28   2.0000      -0.870748       -23.6942
  29   2.0000      -0.852135       -23.1878
  30   2.0000      -0.841473       -22.8977
  31   2.0000      -0.816237       -22.2109
  32   2.0000      -0.779993       -21.2247
  33   2.0000      -0.769861       -20.9490
  34   2.0000      -0.711498       -19.3608
  35   2.0000      -0.692167       -18.8348
  36   2.0000      -0.684400       -18.6235
  37   2.0000      -0.669916       -18.2293
  38   2.0000      -0.641666       -17.4606
  39   2.0000      -0.619772       -16.8648
  40   2.0000      -0.584860       -15.9149
  41   2.0000      -0.570776       -15.5316
  42   2.0000      -0.568233       -15.4624
  43   2.0000      -0.555931       -15.1277
  44   2.0000      -0.540315       -14.7027
  45   2.0000      -0.531611       -14.4659
  46   2.0000      -0.512120       -13.9355
  47   2.0000      -0.509406       -13.8616
  48   2.0000      -0.502575       -13.6758
  49   2.0000      -0.499414       -13.5897
  50   2.0000      -0.487916       -13.2769
  51   2.0000      -0.476856       -12.9759
  52   2.0000      -0.470782       -12.8106
  53   2.0000      -0.466006       -12.6807
  54   2.0000      -0.459771       -12.5110
  55   2.0000      -0.453906       -12.3514
  56   2.0000      -0.441273       -12.0076
  57   2.0000      -0.435027       -11.8377
  58   2.0000      -0.430345       -11.7103
  59   2.0000      -0.423702       -11.5295
  60   2.0000      -0.420110       -11.4318
  61   2.0000      -0.414031       -11.2663
  62   2.0000      -0.407915       -11.0999
  63   2.0000      -0.355123        -9.6634
  64   2.0000      -0.334687        -9.1073
  65   2.0000      -0.329453        -8.9649
  66   2.0000      -0.283317        -7.7094
  67   0.0000       0.017215         0.4684
  68   0.0000       0.071295         1.9400
  69   0.0000       0.102190         2.7807
  70   0.0000       0.119907         3.2628
  71   0.0000       0.136525         3.7150

MULLIKEN ATOMIC CHARGES
-----------------------
   0 S :    0.124635
   1 C :   -0.095162
   2 C :   -0.104938
   3 C :    0.017620
   4 C :   -0.139936
   5 H :    0.015336
   6 C :    0.082762
   7 H :    0.033788
   8 H :    0.024231
   9 C :   -0.133812
  10 H :    0.048337
  11 H :    0.038535
  12 C :   -0.061104
  13 H :    0.037680
  14 H :    0.037673
  15 H :    0.047778
  16 S :    0.074824
  17 C :   -0.074413
  18 C :   -0.026980
  19 C :   -0.087752
  20 C :   -0.119504
  21 H :    0.008220
  22 C :    0.077211
  23 H :    0.048141
  24 H :    0.008794
  25 C :   -0.069703
  26 H :    0.040131
  27 H :    0.017864
  28 C :   -0.053858
  29 H :    0.030902
  30 H :    0.039418
  31 H :    0.020115
  32 H :    0.029383
  33 H :    0.063784
Sum of atomic charges:   -0.0000000

LOEWDIN ATOMIC CHARGES
----------------------
   0 S :    0.416402
   1 C :   -0.211127
   2 C :   -0.061140
   3 C :   -0.061503
   4 C :   -0.182157
   5 H :    0.030614
   6 C :   -0.031993
   7 H :    0.030953
   8 H :    0.033737
   9 C :   -0.054206
  10 H :    0.029693
  11 H :    0.029586
  12 C :   -0.070770
  13 H :    0.025965
  14 H :    0.026521
  15 H :    0.033299
  16 S :    0.371400
  17 C :   -0.174879
  18 C :   -0.064992
  19 C :   -0.061222
  20 C :   -0.183976
  21 H :    0.027049
  22 C :   -0.031914
  23 H :    0.036242
  24 H :    0.026405
  25 C :   -0.039042
  26 H :    0.025256
  27 H :    0.016848
  28 C :   -0.064873
  29 H :    0.023948
  30 H :    0.033061
  31 H :    0.017237
  32 H :    0.024403
  33 H :    0.035173

  Mayer bond orders larger than 0.100000
B(  0-S ,  1-C ) :   1.1336 B(  0-S ,  4-C ) :   1.1546 B(  1-C ,  2-C ) :   1.6172
B(  1-C , 32-H ) :   0.9648 B(  2-C ,  3-C ) :   1.2462 B(  2-C ,  6-C ) :   1.0237
B(  3-C ,  4-C ) :   1.5421 B(  3-C ,  5-H ) :   0.9922 B(  4-C , 20-C ) :   1.0775
B(  6-C ,  7-H ) :   0.9321 B(  6-C ,  8-H ) :   0.9462 B(  6-C ,  9-C ) :   1.0493
B(  9-C , 10-H ) :   0.9535 B(  9-C , 11-H ) :   0.9589 B(  9-C , 12-C ) :   1.0852
B( 12-C , 13-H ) :   0.9743 B( 12-C , 14-H ) :   0.9751 B( 12-C , 15-H ) :   0.9719
B( 16-S , 17-C ) :   1.1524 B( 16-S , 20-C ) :   1.1017 B( 17-C , 18-C ) :   1.6062
B( 17-C , 33-H ) :   0.9573 B( 18-C , 19-C ) :   1.2573 B( 18-C , 21-H ) :   0.9941
B( 19-C , 20-C ) :   1.5921 B( 19-C , 22-C ) :   1.0322 B( 22-C , 23-H ) :   0.9341
B( 22-C , 24-H ) :   0.9328 B( 22-C , 25-C ) :   1.0724 B( 25-C , 26-H ) :   0.9494
B( 25-C , 27-H ) :   0.9577 B( 25-C , 28-C ) :   1.0735 B( 28-C , 29-H ) :   0.9716
B( 28-C , 30-H ) :   0.9737 B( 28-C , 31-H ) :   0.9784

Dispersion correction           -0.015265816
FINAL SINGLE POINT ENERGY     -1339.875032065109

DIPOLE MOMENT
-------------
                                X             Y             Z
Electronic contribution:     24.59937       8.37869       2.56183
Nuclear contribution   :    -25.13497      -8.74772      -2.59106
                        -----------------------------------------
Total Dipole Moment    :     -0.53560      -0.36902      -0.02923
                        -----------------------------------------
Magnitude (a.u.)       :      0.65107
Magnitude (Debye)      :      1.65490

Rotational constants in cm-1:     0.022395     0.008112     0.007076
Rotational constants in MHz :   671.389235   243.187280   212.130061

                             ****ORCA TERMINATED NORMALLY****
TOTAL RUN TIME: 0 days 0 hours 0 minutes 22 seconds 523 msec
