                         Program Version 4.2.1 -  RELEASE  -
|  1> ! wB97X-D3 SP def2-SVP
|  2> %pal
|  3> nprocs 24
|  4> end
|  5>
|  6> * xyz 0 1
|  7> S 	 -27.382 	 -3.71743 	 -5.42275
|  8> C 	 -26.1514 	 -4.96062 	 -5.2454
|  9> C 	 -26.6396 	 -6.27596 	 -5.46141
| 10> C 	 -27.9669 	 -6.21495 	 -5.92178
| 11> C 	 -28.5369 	 -4.93628 	 -5.94114
| 12> H 	 -28.5057 	 -7.05392 	 -6.3022
| 13> C 	 -25.9381 	 -7.62704 	 -5.1981
| 14> H 	 -24.8391 	 -7.54857 	 -5.4432
| 15> H 	 -26.2874 	 -8.29077 	 -5.93586
| 16> C 	 -26.1102 	 -8.16344 	 -3.76309
| 17> H 	 -25.6696 	 -7.49073 	 -3.02959
| 18> H 	 -27.1969 	 -8.02709 	 -3.62152
| 19> C 	 -25.6959 	 -9.58985 	 -3.54054
| 20> H 	 -25.9309 	 -9.94668 	 -2.55154
| 21> H 	 -26.1642 	 -10.2829 	 -4.25363
| 22> H 	 -24.6172 	 -9.62215 	 -3.61993
| 23> S 	 -30.0094 	 -3.57797 	 -7.69828
| 24> C 	 -31.6993 	 -3.76079 	 -7.80384
| 25> C 	 -32.1294 	 -4.6746 	 -6.85822
| 26> C 	 -31.1173 	 -5.21024 	 -5.97176
| 27> C 	 -29.8735 	 -4.66085 	 -6.36436
| 28> H 	 -33.1811 	 -4.90929 	 -6.82872
| 29> C 	 -31.3611 	 -6.17875 	 -4.84448
| 30> H 	 -30.447 	 -6.72264 	 -4.7268
| 31> H 	 -32.0615 	 -6.92014 	 -5.21713
| 32> C 	 -31.8463 	 -5.49543 	 -3.57712
| 33> H 	 -32.8826 	 -5.15035 	 -3.71037
| 34> H 	 -31.1699 	 -4.61162 	 -3.36674
| 35> C 	 -31.7604 	 -6.37095 	 -2.30849
| 36> H 	 -31.99 	 -5.88646 	 -1.3887
| 37> H 	 -30.7326 	 -6.7651 	 -2.16992
| 38> H 	 -32.4823 	 -7.14599 	 -2.49294
| 39> H 	 -25.1929 	 -4.95972 	 -4.77563
| 40> H 	 -32.3395 	 -3.25404 	 -8.53492
| 41> *
| 42>
| 43>                          ****END OF INPUT****

CARTESIAN COORDINATES (ANGSTROEM)
---------------------------------
  S    -27.382000   -3.717430   -5.422750
  C    -26.151400   -4.960620   -5.245400
  C    -26.639600   -6.275960   -5.461410
  C    -27.966900   -6.214950   -5.921780
  C    -28.536900   -4.936280   -5.941140
  H    -28.505700   -7.053920   -6.302200
  C    -25.938100   -7.627040   -5.198100
  H    -24.839100   -7.548570   -5.443200
  H    -26.287400   -8.290770   -5.935860
  C    -26.110200   -8.163440   -3.763090
  H    -25.669600   -7.490730   -3.029590
  H    -27.196900   -8.027090   -3.621520
  C    -25.695900   -9.589850   -3.540540
  H    -25.930900   -9.946680   -2.551540
  H    -26.164200  -10.282900   -4.253630
  H    -24.617200   -9.622150   -3.619930
  S    -30.009400   -3.577970   -7.698280
  C    -31.699300   -3.760790   -7.803840
  C    -32.129400   -4.674600   -6.858220
  C    -31.117300   -5.210240   -5.971760
  C    -29.873500   -4.660850   -6.364360
  H    -33.181100   -4.909290   -6.828720
  C    -31.361100   -6.178750   -4.844480
  H    -30.447000   -6.722640   -4.726800
  H    -32.061500   -6.920140   -5.217130
  C    -31.846300   -5.495430   -3.577120
  H    -32.882600   -5.150350   -3.710370
  H    -31.169900   -4.611620   -3.366740
  C    -31.760400   -6.370950   -2.308490
  H    -31.990000   -5.886460   -1.388700
  H    -30.732600   -6.765100   -2.169920
  H    -32.482300   -7.145990   -2.492940
  H    -25.192900   -4.959720   -4.775630
  H    -32.339500   -3.254040   -8.534920

 Total Charge           Charge          ....    0
 Multiplicity           Mult            ....    1
 Number of Electrons    NEL             ....  134
 Basis Dimension        Dim             ....  322

ORBITAL ENERGIES
----------------

  NO   OCC          E(Eh)            E(eV)
   0   2.0000     -88.975263     -2421.1400
   1   2.0000     -88.962853     -2420.8023
   2   2.0000     -10.327262      -281.0191
   3   2.0000     -10.321995      -280.8758
   4   2.0000     -10.313855      -280.6543
   5   2.0000     -10.313273      -280.6384
   6   2.0000     -10.306749      -280.4609
   7   2.0000     -10.302342      -280.3410
   8   2.0000     -10.296355      -280.1781
   9   2.0000     -10.292270      -280.0669
  10   2.0000     -10.289786      -279.9993
  11   2.0000     -10.288945      -279.9764
  12   2.0000     -10.288795      -279.9724
  13   2.0000     -10.287485      -279.9367
  14   2.0000     -10.278941      -279.7042
  15   2.0000     -10.274161      -279.5741
  16   2.0000      -8.088869      -220.1093
  17   2.0000      -8.078986      -219.8404
  18   2.0000      -6.047412      -164.5584
  19   2.0000      -6.043509      -164.4522
  20   2.0000      -6.039692      -164.3484
  21   2.0000      -6.037298      -164.2832
  22   2.0000      -6.033117      -164.1694
  23   2.0000      -6.030054      -164.0861
  24   2.0000      -1.008666       -27.4472
  25   2.0000      -0.982226       -26.7277
  26   2.0000      -0.912580       -24.8326
  27   2.0000      -0.911664       -24.8076
  28   2.0000      -0.870319       -23.6826
  29   2.0000      -0.854745       -23.2588
  30   2.0000      -0.848166       -23.0798
  31   2.0000      -0.809896       -22.0384
  32   2.0000      -0.785930       -21.3862
  33   2.0000      -0.772715       -21.0266
  34   2.0000      -0.704552       -19.1718
  35   2.0000      -0.702302       -19.1106
  36   2.0000      -0.693599       -18.8738
  37   2.0000      -0.659036       -17.9333
  38   2.0000      -0.635736       -17.2992
  39   2.0000      -0.620232       -16.8774
  40   2.0000      -0.595251       -16.1976
  41   2.0000      -0.569916       -15.5082
  42   2.0000      -0.567823       -15.4512
  43   2.0000      -0.559947       -15.2369
  44   2.0000      -0.526596       -14.3294
  45   2.0000      -0.524953       -14.2847
  46   2.0000      -0.521761       -14.1978
  47   2.0000      -0.510997       -13.9049
  48   2.0000      -0.504101       -13.7173
  49   2.0000      -0.501052       -13.6343
  50   2.0000      -0.496132       -13.5004
  51   2.0000      -0.483393       -13.1538
  52   2.0000      -0.470226       -12.7955
  53   2.0000      -0.460630       -12.5344
  54   2.0000      -0.458148       -12.4669
  55   2.0000      -0.451761       -12.2930
  56   2.0000      -0.445397       -12.1199
  57   2.0000      -0.437459       -11.9039
  58   2.0000      -0.433885       -11.8066
  59   2.0000      -0.430275       -11.7084
  60   2.0000      -0.427065       -11.6210
  61   2.0000      -0.412002       -11.2111
  62   2.0000      -0.411851       -11.2070
  63   2.0000      -0.343097        -9.3361
  64   2.0000      -0.333721        -9.0810
  65   2.0000      -0.328402        -8.9363
  66   2.0000      -0.289262        -7.8712
  67   0.0000       0.030218         0.8223
  68   0.0000       0.068092         1.8529
  69   0.0000       0.113087         3.0773
  70   0.0000       0.119670         3.2564
  71   0.0000       0.133238         3.6256

MULLIKEN ATOMIC CHARGES
-----------------------
   0 S :    0.139753
   1 C :   -0.085861
   2 C :   -0.131014
   3 C :    0.044065
   4 C :   -0.169542
   5 H :    0.007437
   6 C :    0.064787
   7 H :    0.026029
   8 H :    0.010518
   9 C :   -0.074200
  10 H :    0.026964
  11 H :    0.021489
  12 C :   -0.012336
  13 H :    0.031348
  14 H :    0.032925
  15 H :    0.027561
  16 S :    0.120289
  17 C :   -0.097494
  18 C :   -0.051241
  19 C :   -0.042839
  20 C :   -0.185852
  21 H :    0.010613
  22 C :    0.132271
  23 H :   -0.000126
  24 H :    0.020286
  25 C :   -0.101161
  26 H :    0.033535
  27 H :    0.042951
  28 C :   -0.026920
  29 H :    0.030608
  30 H :    0.035047
  31 H :    0.022945
  32 H :    0.032458
  33 H :    0.064705
Sum of atomic charges:   -0.0000000

LOEWDIN ATOMIC CHARGES
----------------------
   0 S :    0.416347
   1 C :   -0.203878
   2 C :   -0.058549
   3 C :   -0.059303
   4 C :   -0.202971
   5 H :    0.026566
   6 C :   -0.029338
   7 H :    0.031562
   8 H :    0.022519
   9 C :   -0.044511
  10 H :    0.024912
  11 H :    0.023866
  12 C :   -0.061843
  13 H :    0.026890
  14 H :    0.028131
  15 H :    0.025394
  16 S :    0.440909
  17 C :   -0.209589
  18 C :   -0.074288
  19 C :   -0.046980
  20 C :   -0.213801
  21 H :    0.026267
  22 C :   -0.031755
  23 H :    0.026364
  24 H :    0.031754
  25 C :   -0.040111
  26 H :    0.025202
  27 H :    0.031807
  28 C :   -0.063325
  29 H :    0.021906
  30 H :    0.028667
  31 H :    0.021027
  32 H :    0.024796
  33 H :    0.035356

  Mayer bond orders larger than 0.100000
B(  0-S ,  1-C ) :   1.1424 B(  0-S ,  4-C ) :   1.1499 B(  1-C ,  2-C ) :   1.6035
B(  1-C ,  4-C ) :   0.1065 B(  1-C , 32-H ) :   0.9598 B(  2-C ,  3-C ) :   1.2757
B(  2-C ,  6-C ) :   1.0258 B(  3-C ,  4-C ) :   1.5486 B(  3-C ,  5-H ) :   0.9885
B(  4-C , 20-C ) :   1.0511 B(  6-C ,  7-H ) :   0.9375 B(  6-C ,  8-H ) :   0.9396
B(  6-C ,  9-C ) :   1.0531 B(  9-C , 10-H ) :   0.9533 B(  9-C , 11-H ) :   0.9549
B(  9-C , 12-C ) :   1.0885 B( 12-C , 13-H ) :   0.9713 B( 12-C , 14-H ) :   0.9727
B( 12-C , 15-H ) :   0.9728 B( 16-S , 17-C ) :   1.1652 B( 16-S , 20-C ) :   1.1783
B( 17-C , 18-C ) :   1.5869 B( 17-C , 33-H ) :   0.9682 B( 18-C , 19-C ) :   1.2517
B( 18-C , 21-H ) :   0.9908 B( 19-C , 20-C ) :   1.5467 B( 19-C , 22-C ) :   1.0500
B( 22-C , 23-H ) :   0.9207 B( 22-C , 24-H ) :   0.9206 B( 22-C , 25-C ) :   1.0612
B( 25-C , 26-H ) :   0.9548 B( 25-C , 27-H ) :   0.9592 B( 25-C , 28-C ) :   1.0819
B( 28-C , 29-H ) :   0.9758 B( 28-C , 30-H ) :   0.9756 B( 28-C , 31-H ) :   0.9749

Dispersion correction           -0.014005856
FINAL SINGLE POINT ENERGY     -1339.887253036229

DIPOLE MOMENT
-------------
                                X             Y             Z
Electronic contribution:      0.21760      23.98908     -19.24093
Nuclear contribution   :     -0.39243     -24.61489      19.54670
                        -----------------------------------------
Total Dipole Moment    :     -0.17483      -0.62581       0.30577
                        -----------------------------------------
Magnitude (a.u.)       :      0.71812
Magnitude (Debye)      :      1.82531

Rotational constants in cm-1:     0.017330     0.008842     0.006771
Rotational constants in MHz :   519.540825   265.075504   202.998024

                             ****ORCA TERMINATED NORMALLY****
TOTAL RUN TIME: 0 days 0 hours 0 minutes 20 seconds 250 msec
