                         Program Version 4.2.1 -  RELEASE  -
|  1> ! wB97X-D3 SP def2-SVP
|  2> %pal
|  3> nprocs 24
|  4> end
|  5>
|  6> * xyz 0 1
|  7> S 	 31.1771 	 -31.0125 	 -115.574
|  8> C 	 31.8452 	 -30.163 	 -114.177
|  9> C 	 33.087 	 -30.6034 	 -113.885
| 10> C 	 33.4336 	 -31.7277 	 -114.637
| 11> C 	 32.4904 	 -32.1334 	 -115.578
| 12> H 	 34.374 	 -32.2138 	 -114.58
| 13> C 	 34.1006 	 -30.0033 	 -112.827
| 14> H 	 33.824 	 -28.9521 	 -112.617
| 15> H 	 35.158 	 -29.8544 	 -113.192
| 16> C 	 34.2681 	 -30.8027 	 -111.563
| 17> H 	 34.3846 	 -31.8729 	 -111.845
| 18> H 	 35.0973 	 -30.4101 	 -110.936
| 19> C 	 32.9451 	 -30.8402 	 -110.805
| 20> H 	 32.785 	 -29.8424 	 -110.367
| 21> H 	 32.2023 	 -31.0811 	 -111.547
| 22> H 	 32.8531 	 -31.6618 	 -110.033
| 23> S 	 31.8821 	 -32.8701 	 -118.181
| 24> C 	 32.4758 	 -34.4153 	 -118.8
| 25> C 	 33.2727 	 -35.0632 	 -117.894
| 26> C 	 33.3905 	 -34.382 	 -116.652
| 27> C 	 32.6915 	 -33.1353 	 -116.619
| 28> H 	 33.5825 	 -36.0492 	 -118.079
| 29> C 	 34.0019 	 -35.0355 	 -115.422
| 30> H 	 33.7289 	 -36.0969 	 -115.544
| 31> H 	 33.5217 	 -34.6555 	 -114.577
| 32> C 	 35.5246 	 -34.8974 	 -115.327
| 33> H 	 35.7935 	 -33.815 	 -115.339
| 34> H 	 36.0247 	 -35.3916 	 -116.197
| 35> C 	 36.2007 	 -35.5532 	 -114.049
| 36> H 	 35.6662 	 -35.2491 	 -113.205
| 37> H 	 37.2971 	 -35.3794 	 -113.899
| 38> H 	 36.0631 	 -36.5977 	 -113.999
| 39> H 	 31.5401 	 -29.1237 	 -113.815
| 40> H 	 32.01 	 -34.8464 	 -119.704
| 41> *
| 42>
| 43>                          ****END OF INPUT****

CARTESIAN COORDINATES (ANGSTROEM)
---------------------------------
  S     31.177100  -31.012500  -115.574000
  C     31.845200  -30.163000  -114.177000
  C     33.087000  -30.603400  -113.885000
  C     33.433600  -31.727700  -114.637000
  C     32.490400  -32.133400  -115.578000
  H     34.374000  -32.213800  -114.580000
  C     34.100600  -30.003300  -112.827000
  H     33.824000  -28.952100  -112.617000
  H     35.158000  -29.854400  -113.192000
  C     34.268100  -30.802700  -111.563000
  H     34.384600  -31.872900  -111.845000
  H     35.097300  -30.410100  -110.936000
  C     32.945100  -30.840200  -110.805000
  H     32.785000  -29.842400  -110.367000
  H     32.202300  -31.081100  -111.547000
  H     32.853100  -31.661800  -110.033000
  S     31.882100  -32.870100  -118.181000
  C     32.475800  -34.415300  -118.800000
  C     33.272700  -35.063200  -117.894000
  C     33.390500  -34.382000  -116.652000
  C     32.691500  -33.135300  -116.619000
  H     33.582500  -36.049200  -118.079000
  C     34.001900  -35.035500  -115.422000
  H     33.728900  -36.096900  -115.544000
  H     33.521700  -34.655500  -114.577000
  C     35.524600  -34.897400  -115.327000
  H     35.793500  -33.815000  -115.339000
  H     36.024700  -35.391600  -116.197000
  C     36.200700  -35.553200  -114.049000
  H     35.666200  -35.249100  -113.205000
  H     37.297100  -35.379400  -113.899000
  H     36.063100  -36.597700  -113.999000
  H     31.540100  -29.123700  -113.815000
  H     32.010000  -34.846400  -119.704000

 Total Charge           Charge          ....    0
 Multiplicity           Mult            ....    1
 Number of Electrons    NEL             ....  134
 Basis Dimension        Dim             ....  322

ORBITAL ENERGIES
----------------

  NO   OCC          E(Eh)            E(eV)
   0   2.0000     -88.972130     -2421.0547
   1   2.0000     -88.966657     -2420.9058
   2   2.0000     -10.336000      -281.2569
   3   2.0000     -10.334144      -281.2063
   4   2.0000     -10.322589      -280.8919
   5   2.0000     -10.320285      -280.8292
   6   2.0000     -10.309775      -280.5433
   7   2.0000     -10.303728      -280.3787
   8   2.0000     -10.302839      -280.3545
   9   2.0000     -10.297506      -280.2094
  10   2.0000     -10.294706      -280.1332
  11   2.0000     -10.292015      -280.0600
  12   2.0000     -10.290871      -280.0288
  13   2.0000     -10.288388      -279.9613
  14   2.0000     -10.276533      -279.6387
  15   2.0000     -10.273687      -279.5612
  16   2.0000      -8.086833      -220.0539
  17   2.0000      -8.080897      -219.8924
  18   2.0000      -6.045418      -164.5042
  19   2.0000      -6.041360      -164.3938
  20   2.0000      -6.039429      -164.3412
  21   2.0000      -6.037482      -164.2882
  22   2.0000      -6.035459      -164.2332
  23   2.0000      -6.031691      -164.1307
  24   2.0000      -1.011674       -27.5290
  25   2.0000      -0.985643       -26.8207
  26   2.0000      -0.916036       -24.9266
  27   2.0000      -0.906955       -24.6795
  28   2.0000      -0.873757       -23.7761
  29   2.0000      -0.850824       -23.1521
  30   2.0000      -0.845160       -22.9980
  31   2.0000      -0.814388       -22.1606
  32   2.0000      -0.783534       -21.3210
  33   2.0000      -0.775807       -21.1108
  34   2.0000      -0.710389       -19.3307
  35   2.0000      -0.698088       -18.9960
  36   2.0000      -0.686714       -18.6864
  37   2.0000      -0.664957       -18.0944
  38   2.0000      -0.636866       -17.3300
  39   2.0000      -0.628066       -17.0905
  40   2.0000      -0.597724       -16.2649
  41   2.0000      -0.575785       -15.6679
  42   2.0000      -0.564772       -15.3682
  43   2.0000      -0.550197       -14.9716
  44   2.0000      -0.541239       -14.7279
  45   2.0000      -0.525492       -14.2994
  46   2.0000      -0.514697       -14.0056
  47   2.0000      -0.512520       -13.9464
  48   2.0000      -0.503766       -13.7082
  49   2.0000      -0.497276       -13.5316
  50   2.0000      -0.492624       -13.4050
  51   2.0000      -0.480979       -13.0881
  52   2.0000      -0.470585       -12.8053
  53   2.0000      -0.466432       -12.6923
  54   2.0000      -0.459502       -12.5037
  55   2.0000      -0.454494       -12.3674
  56   2.0000      -0.447548       -12.1784
  57   2.0000      -0.437404       -11.9024
  58   2.0000      -0.430200       -11.7063
  59   2.0000      -0.424834       -11.5603
  60   2.0000      -0.423471       -11.5232
  61   2.0000      -0.416191       -11.3251
  62   2.0000      -0.408929       -11.1275
  63   2.0000      -0.360772        -9.8171
  64   2.0000      -0.339678        -9.2431
  65   2.0000      -0.333911        -9.0862
  66   2.0000      -0.285815        -7.7774
  67   0.0000       0.013751         0.3742
  68   0.0000       0.075140         2.0447
  69   0.0000       0.102533         2.7901
  70   0.0000       0.119152         3.2423
  71   0.0000       0.128575         3.4987

MULLIKEN ATOMIC CHARGES
-----------------------
   0 S :    0.107351
   1 C :   -0.130142
   2 C :   -0.086783
   3 C :    0.020866
   4 C :   -0.106206
   5 H :   -0.021629
   6 C :    0.035327
   7 H :    0.017738
   8 H :    0.041793
   9 C :   -0.073800
  10 H :    0.031759
  11 H :    0.045002
  12 C :   -0.070145
  13 H :    0.027418
  14 H :    0.035729
  15 H :    0.039862
  16 S :    0.082082
  17 C :   -0.107799
  18 C :    0.003668
  19 C :   -0.060237
  20 C :   -0.137298
  21 H :    0.005019
  22 C :    0.088347
  23 H :    0.026228
  24 H :    0.014351
  25 C :   -0.107883
  26 H :    0.044081
  27 H :    0.036032
  28 C :   -0.020400
  29 H :    0.006881
  30 H :    0.049207
  31 H :    0.013421
  32 H :    0.074254
  33 H :    0.075905
Sum of atomic charges:   -0.0000000

LOEWDIN ATOMIC CHARGES
----------------------
   0 S :    0.413294
   1 C :   -0.205578
   2 C :   -0.066630
   3 C :   -0.062016
   4 C :   -0.196507
   5 H :    0.022468
   6 C :   -0.033308
   7 H :    0.026053
   8 H :    0.038285
   9 C :   -0.049075
  10 H :    0.027858
  11 H :    0.028666
  12 C :   -0.071738
  13 H :    0.021880
  14 H :    0.023605
  15 H :    0.028428
  16 S :    0.380792
  17 C :   -0.177636
  18 C :   -0.065685
  19 C :   -0.050269
  20 C :   -0.184832
  21 H :    0.026905
  22 C :   -0.026990
  23 H :    0.035171
  24 H :    0.020853
  25 C :   -0.040014
  26 H :    0.024425
  27 H :    0.027784
  28 C :   -0.068209
  29 H :    0.014889
  30 H :    0.035341
  31 H :    0.018263
  32 H :    0.047363
  33 H :    0.036163

  Mayer bond orders larger than 0.100000
B(  0-S ,  1-C ) :   1.1324 B(  0-S ,  4-C ) :   1.1542 B(  1-C ,  2-C ) :   1.6235
B(  1-C , 32-H ) :   0.9474 B(  2-C ,  3-C ) :   1.2755 B(  2-C ,  6-C ) :   1.0044
B(  3-C ,  4-C ) :   1.5211 B(  3-C ,  5-H ) :   1.0012 B(  4-C , 20-C ) :   1.0883
B(  6-C ,  7-H ) :   0.9438 B(  6-C ,  8-H ) :   0.9478 B(  6-C ,  9-C ) :   1.0687
B(  9-C , 10-H ) :   0.9557 B(  9-C , 11-H ) :   0.9560 B(  9-C , 12-C ) :   1.0659
B( 12-C , 13-H ) :   0.9755 B( 12-C , 14-H ) :   0.9743 B( 12-C , 15-H ) :   0.9752
B( 16-S , 17-C ) :   1.1536 B( 16-S , 20-C ) :   1.1329 B( 17-C , 18-C ) :   1.5994
B( 17-C , 33-H ) :   0.9624 B( 18-C , 19-C ) :   1.2611 B( 18-C , 21-H ) :   0.9945
B( 19-C , 20-C ) :   1.5589 B( 19-C , 22-C ) :   1.0428 B( 22-C , 23-H ) :   0.9345
B( 22-C , 24-H ) :   0.9326 B( 22-C , 25-C ) :   1.0585 B( 25-C , 26-H ) :   0.9555
B( 25-C , 27-H ) :   0.9565 B( 25-C , 28-C ) :   1.0698 B( 28-C , 29-H ) :   0.9726
B( 28-C , 30-H ) :   0.9773 B( 28-C , 31-H ) :   0.9733

Dispersion correction           -0.014412625
FINAL SINGLE POINT ENERGY     -1339.873940989395

DIPOLE MOMENT
-------------
                                X             Y             Z
Electronic contribution:    -18.80266       6.17780     -24.36031
Nuclear contribution   :     19.25138      -6.45288      24.64012
                        -----------------------------------------
Total Dipole Moment    :      0.44872      -0.27508       0.27982
                        -----------------------------------------
Magnitude (a.u.)       :      0.59609
Magnitude (Debye)      :      1.51514

Rotational constants in cm-1:     0.017344     0.009845     0.006623
Rotational constants in MHz :   519.970019   295.156992   198.558115

                             ****ORCA TERMINATED NORMALLY****
TOTAL RUN TIME: 0 days 0 hours 0 minutes 22 seconds 11 msec
