                         Program Version 4.2.1 -  RELEASE  -
|  1> ! wB97X-D3 SP def2-SVP
|  2> %pal
|  3> nprocs 24
|  4> end
|  5>
|  6> * xyz 0 1
|  7> S 	 -87.7715 	 -46.8193 	 -83.8328
|  8> C 	 -88.9129 	 -46.8577 	 -82.4162
|  9> C 	 -88.2453 	 -46.6119 	 -81.2068
| 10> C 	 -86.8604 	 -46.6945 	 -81.3976
| 11> C 	 -86.3756 	 -46.7703 	 -82.732
| 12> H 	 -86.1239 	 -46.4487 	 -80.6399
| 13> C 	 -88.8168 	 -46.4085 	 -79.8242
| 14> H 	 -88.922 	 -47.2678 	 -79.1593
| 15> H 	 -89.8518 	 -46.2218 	 -80.0121
| 16> C 	 -88.2886 	 -45.2348 	 -78.9758
| 17> H 	 -87.3018 	 -45.3618 	 -78.5466
| 18> H 	 -88.3314 	 -44.3417 	 -79.5035
| 19> C 	 -89.2354 	 -44.9475 	 -77.7977
| 20> H 	 -88.7514 	 -44.285 	 -77.1088
| 21> H 	 -90.1975 	 -44.5709 	 -78.2347
| 22> H 	 -89.5615 	 -45.7749 	 -77.1688
| 23> S 	 -84.5968 	 -45.5649 	 -84.5714
| 24> C 	 -82.8617 	 -45.7704 	 -84.336
| 25> C 	 -82.5971 	 -46.5517 	 -83.2112
| 26> C 	 -83.7634 	 -47.0388 	 -82.5857
| 27> C 	 -84.9798 	 -46.6506 	 -83.1462
| 28> H 	 -81.6115 	 -46.6442 	 -82.8564
| 29> C 	 -83.5755 	 -47.7561 	 -81.2379
| 30> H 	 -82.9611 	 -48.6219 	 -81.4863
| 31> H 	 -84.4678 	 -48.3562 	 -81.0997
| 32> C 	 -83.1461 	 -47.1027 	 -79.9406
| 33> H 	 -83.877 	 -46.4062 	 -79.5862
| 34> H 	 -82.2558 	 -46.5363 	 -80.0681
| 35> C 	 -82.9711 	 -48.2574 	 -78.9927
| 36> H 	 -82.1705 	 -48.922 	 -79.2684
| 37> H 	 -83.8602 	 -48.9343 	 -79.031
| 38> H 	 -82.7999 	 -47.917 	 -77.9553
| 39> H 	 -89.967 	 -46.9796 	 -82.5147
| 40> H 	 -82.1139 	 -45.3824 	 -84.9722
| 41> *
| 42>
| 43>                          ****END OF INPUT****

CARTESIAN COORDINATES (ANGSTROEM)
---------------------------------
  S    -87.771500  -46.819300  -83.832800
  C    -88.912900  -46.857700  -82.416200
  C    -88.245300  -46.611900  -81.206800
  C    -86.860400  -46.694500  -81.397600
  C    -86.375600  -46.770300  -82.732000
  H    -86.123900  -46.448700  -80.639900
  C    -88.816800  -46.408500  -79.824200
  H    -88.922000  -47.267800  -79.159300
  H    -89.851800  -46.221800  -80.012100
  C    -88.288600  -45.234800  -78.975800
  H    -87.301800  -45.361800  -78.546600
  H    -88.331400  -44.341700  -79.503500
  C    -89.235400  -44.947500  -77.797700
  H    -88.751400  -44.285000  -77.108800
  H    -90.197500  -44.570900  -78.234700
  H    -89.561500  -45.774900  -77.168800
  S    -84.596800  -45.564900  -84.571400
  C    -82.861700  -45.770400  -84.336000
  C    -82.597100  -46.551700  -83.211200
  C    -83.763400  -47.038800  -82.585700
  C    -84.979800  -46.650600  -83.146200
  H    -81.611500  -46.644200  -82.856400
  C    -83.575500  -47.756100  -81.237900
  H    -82.961100  -48.621900  -81.486300
  H    -84.467800  -48.356200  -81.099700
  C    -83.146100  -47.102700  -79.940600
  H    -83.877000  -46.406200  -79.586200
  H    -82.255800  -46.536300  -80.068100
  C    -82.971100  -48.257400  -78.992700
  H    -82.170500  -48.922000  -79.268400
  H    -83.860200  -48.934300  -79.031000
  H    -82.799900  -47.917000  -77.955300
  H    -89.967000  -46.979600  -82.514700
  H    -82.113900  -45.382400  -84.972200

 Total Charge           Charge          ....    0
 Multiplicity           Mult            ....    1
 Number of Electrons    NEL             ....  134
 Basis Dimension        Dim             ....  322

ORBITAL ENERGIES
----------------

  NO   OCC          E(Eh)            E(eV)
   0   2.0000     -88.972312     -2421.0597
   1   2.0000     -88.964846     -2420.8565
   2   2.0000     -10.338490      -281.3246
   3   2.0000     -10.336295      -281.2649
   4   2.0000     -10.323738      -280.9232
   5   2.0000     -10.318950      -280.7929
   6   2.0000     -10.306178      -280.4454
   7   2.0000     -10.303694      -280.3778
   8   2.0000     -10.293967      -280.1131
   9   2.0000     -10.293605      -280.1032
  10   2.0000     -10.290057      -280.0067
  11   2.0000     -10.286184      -279.9013
  12   2.0000     -10.285448      -279.8813
  13   2.0000     -10.285282      -279.8768
  14   2.0000     -10.280969      -279.7594
  15   2.0000     -10.280682      -279.7516
  16   2.0000      -8.085087      -220.0064
  17   2.0000      -8.078256      -219.8205
  18   2.0000      -6.043768      -164.4593
  19   2.0000      -6.039897      -164.3540
  20   2.0000      -6.036913      -164.2727
  21   2.0000      -6.035757      -164.2413
  22   2.0000      -6.032954      -164.1650
  23   2.0000      -6.028933      -164.0556
  24   2.0000      -0.995398       -27.0861
  25   2.0000      -0.975429       -26.5428
  26   2.0000      -0.917147       -24.9568
  27   2.0000      -0.914487       -24.8844
  28   2.0000      -0.869442       -23.6587
  29   2.0000      -0.853503       -23.2250
  30   2.0000      -0.844528       -22.9808
  31   2.0000      -0.809199       -22.0194
  32   2.0000      -0.781931       -21.2774
  33   2.0000      -0.769555       -20.9407
  34   2.0000      -0.716219       -19.4893
  35   2.0000      -0.709493       -19.3063
  36   2.0000      -0.700008       -19.0482
  37   2.0000      -0.663483       -18.0543
  38   2.0000      -0.643671       -17.5152
  39   2.0000      -0.619665       -16.8619
  40   2.0000      -0.598731       -16.2923
  41   2.0000      -0.577603       -15.7174
  42   2.0000      -0.568732       -15.4760
  43   2.0000      -0.564560       -15.3625
  44   2.0000      -0.532392       -14.4871
  45   2.0000      -0.528647       -14.3852
  46   2.0000      -0.515655       -14.0317
  47   2.0000      -0.508554       -13.8385
  48   2.0000      -0.506158       -13.7733
  49   2.0000      -0.498443       -13.5633
  50   2.0000      -0.494789       -13.4639
  51   2.0000      -0.476232       -12.9589
  52   2.0000      -0.465717       -12.6728
  53   2.0000      -0.458071       -12.4647
  54   2.0000      -0.455658       -12.3991
  55   2.0000      -0.448473       -12.2036
  56   2.0000      -0.446594       -12.1524
  57   2.0000      -0.441213       -12.0060
  58   2.0000      -0.437704       -11.9105
  59   2.0000      -0.430619       -11.7177
  60   2.0000      -0.420421       -11.4402
  61   2.0000      -0.418904       -11.3989
  62   2.0000      -0.409427       -11.1411
  63   2.0000      -0.350376        -9.5342
  64   2.0000      -0.335134        -9.1195
  65   2.0000      -0.331519        -9.0211
  66   2.0000      -0.281918        -7.6714
  67   0.0000       0.015730         0.4280
  68   0.0000       0.066200         1.8014
  69   0.0000       0.099924         2.7191
  70   0.0000       0.121272         3.3000
  71   0.0000       0.123767         3.3679

MULLIKEN ATOMIC CHARGES
-----------------------
   0 S :    0.105688
   1 C :   -0.117999
   2 C :   -0.051608
   3 C :    0.016997
   4 C :   -0.141274
   5 H :    0.006081
   6 C :    0.072058
   7 H :    0.039657
   8 H :   -0.005364
   9 C :   -0.045977
  10 H :    0.034725
  11 H :    0.023403
  12 C :   -0.077185
  13 H :    0.032561
  14 H :    0.034909
  15 H :    0.023624
  16 S :    0.079125
  17 C :   -0.076184
  18 C :   -0.015578
  19 C :   -0.030820
  20 C :   -0.121127
  21 H :    0.005049
  22 C :   -0.015464
  23 H :    0.014575
  24 H :    0.006847
  25 C :    0.041656
  26 H :    0.024094
  27 H :    0.016627
  28 C :   -0.061556
  29 H :    0.026671
  30 H :    0.030417
  31 H :    0.035893
  32 H :    0.040865
  33 H :    0.048613
Sum of atomic charges:    0.0000000

LOEWDIN ATOMIC CHARGES
----------------------
   0 S :    0.377376
   1 C :   -0.168548
   2 C :   -0.060905
   3 C :   -0.060318
   4 C :   -0.185393
   5 H :    0.028248
   6 C :   -0.033816
   7 H :    0.036165
   8 H :    0.026891
   9 C :   -0.029850
  10 H :    0.022036
  11 H :    0.021137
  12 C :   -0.064943
  13 H :    0.024211
  14 H :    0.029201
  15 H :    0.020480
  16 S :    0.365416
  17 C :   -0.166732
  18 C :   -0.066561
  19 C :   -0.059109
  20 C :   -0.171801
  21 H :    0.025613
  22 C :   -0.044856
  23 H :    0.033083
  24 H :    0.027685
  25 C :   -0.030403
  26 H :    0.021632
  27 H :    0.021260
  28 C :   -0.061682
  29 H :    0.023417
  30 H :    0.030354
  31 H :    0.026386
  32 H :    0.021702
  33 H :    0.022622

  Mayer bond orders larger than 0.100000
B(  0-S ,  1-C ) :   1.1345 B(  0-S ,  4-C ) :   1.1387 B(  1-C ,  2-C ) :   1.5822
B(  1-C ,  4-C ) :   0.1105 B(  1-C , 32-H ) :   0.9702 B(  2-C ,  3-C ) :   1.2734
B(  2-C ,  6-C ) :   1.0198 B(  3-C ,  4-C ) :   1.5430 B(  3-C ,  5-H ) :   0.9832
B(  4-C , 20-C ) :   1.0844 B(  6-C ,  7-H ) :   0.9395 B(  6-C ,  8-H ) :   0.9318
B(  6-C ,  9-C ) :   1.0680 B(  9-C , 10-H ) :   0.9548 B(  9-C , 11-H ) :   0.9557
B(  9-C , 12-C ) :   1.0828 B( 12-C , 13-H ) :   0.9747 B( 12-C , 14-H ) :   0.9767
B( 12-C , 15-H ) :   0.9755 B( 16-S , 17-C ) :   1.1568 B( 16-S , 20-C ) :   1.1069
B( 17-C , 18-C ) :   1.5896 B( 17-C , 20-C ) :   0.1021 B( 17-C , 33-H ) :   0.9707
B( 18-C , 19-C ) :   1.2502 B( 18-C , 21-H ) :   1.0016 B( 19-C , 20-C ) :   1.5932
B( 19-C , 22-C ) :   1.0277 B( 22-C , 23-H ) :   0.9328 B( 22-C , 24-H ) :   0.9264
B( 22-C , 25-C ) :   1.0574 B( 25-C , 26-H ) :   0.9490 B( 25-C , 27-H ) :   0.9457
B( 25-C , 28-C ) :   1.0746 B( 28-C , 29-H ) :   0.9746 B( 28-C , 30-H ) :   0.9732
B( 28-C , 31-H ) :   0.9708

Dispersion correction           -0.013665020
FINAL SINGLE POINT ENERGY     -1339.858492666909

DIPOLE MOMENT
-------------
                                X             Y             Z
Electronic contribution:     -0.42374       1.78129     -32.55091
Nuclear contribution   :      0.58533      -1.72751      33.40533
                        -----------------------------------------
Total Dipole Moment    :      0.16159       0.05378       0.85442
                        -----------------------------------------
Magnitude (a.u.)       :      0.87122
Magnitude (Debye)      :      2.21448

Rotational constants in cm-1:     0.015674     0.009277     0.006555
Rotational constants in MHz :   469.886438   278.104459   196.506911

                             ****ORCA TERMINATED NORMALLY****
TOTAL RUN TIME: 0 days 0 hours 0 minutes 22 seconds 654 msec
