                         Program Version 4.2.1 -  RELEASE  -
|  1> ! wB97X-D3 SP def2-SVP
|  2> %pal
|  3> nprocs 24
|  4> end
|  5>
|  6> * xyz 0 1
|  7> S 	 -59.2277 	 7.43813 	 -17.5949
|  8> C 	 -60.9118 	 7.95389 	 -17.1622
|  9> C 	 -61.8781 	 7.35238 	 -17.9771
| 10> C 	 -61.3131 	 6.33906 	 -18.7991
| 11> C 	 -59.9436 	 6.1609 	 -18.6351
| 12> H 	 -61.8579 	 5.7683 	 -19.5348
| 13> C 	 -63.3737 	 7.68033 	 -17.967
| 14> H 	 -63.5554 	 8.19107 	 -18.8586
| 15> H 	 -63.547 	 8.4692 	 -17.2525
| 16> C 	 -64.333 	 6.5518 	 -17.6909
| 17> H 	 -64.1151 	 5.78644 	 -18.4794
| 18> H 	 -64.0969 	 6.05498 	 -16.7296
| 19> C 	 -65.8515 	 6.84926 	 -17.9575
| 20> H 	 -66.318 	 5.97145 	 -17.7436
| 21> H 	 -66.1894 	 7.652 	 -17.2874
| 22> H 	 -66.2047 	 7.11344 	 -18.9921
| 23> S 	 -57.8953 	 5.59172 	 -20.2849
| 24> C 	 -57.396 	 3.89985 	 -20.4518
| 25> C 	 -57.9837 	 3.06891 	 -19.5159
| 26> C 	 -59.1398 	 3.70592 	 -18.9473
| 27> C 	 -59.1184 	 5.07255 	 -19.1431
| 28> H 	 -57.5869 	 2.01325 	 -19.4257
| 29> C 	 -59.9975 	 3.0936 	 -17.8629
| 30> H 	 -60.9271 	 3.69293 	 -17.621
| 31> H 	 -59.4235 	 3.25498 	 -16.9307
| 32> C 	 -60.2846 	 1.57597 	 -17.9426
| 33> H 	 -60.7289 	 1.14871 	 -17.0208
| 34> H 	 -59.3009 	 1.20287 	 -17.8946
| 35> C 	 -61.0012 	 1.06669 	 -19.2049
| 36> H 	 -60.902 	 -0.0492793 	 -19.267
| 37> H 	 -60.4667 	 1.41407 	 -20.0464
| 38> H 	 -62.0881 	 1.23355 	 -19.2352
| 39> H 	 -61.1562 	 8.60315 	 -16.3309
| 40> H 	 -56.6062 	 3.65213 	 -21.1441
| 41> *
| 42>
| 43>                          ****END OF INPUT****

CARTESIAN COORDINATES (ANGSTROEM)
---------------------------------
  S    -59.227700    7.438130  -17.594900
  C    -60.911800    7.953890  -17.162200
  C    -61.878100    7.352380  -17.977100
  C    -61.313100    6.339060  -18.799100
  C    -59.943600    6.160900  -18.635100
  H    -61.857900    5.768300  -19.534800
  C    -63.373700    7.680330  -17.967000
  H    -63.555400    8.191070  -18.858600
  H    -63.547000    8.469200  -17.252500
  C    -64.333000    6.551800  -17.690900
  H    -64.115100    5.786440  -18.479400
  H    -64.096900    6.054980  -16.729600
  C    -65.851500    6.849260  -17.957500
  H    -66.318000    5.971450  -17.743600
  H    -66.189400    7.652000  -17.287400
  H    -66.204700    7.113440  -18.992100
  S    -57.895300    5.591720  -20.284900
  C    -57.396000    3.899850  -20.451800
  C    -57.983700    3.068910  -19.515900
  C    -59.139800    3.705920  -18.947300
  C    -59.118400    5.072550  -19.143100
  H    -57.586900    2.013250  -19.425700
  C    -59.997500    3.093600  -17.862900
  H    -60.927100    3.692930  -17.621000
  H    -59.423500    3.254980  -16.930700
  C    -60.284600    1.575970  -17.942600
  H    -60.728900    1.148710  -17.020800
  H    -59.300900    1.202870  -17.894600
  C    -61.001200    1.066690  -19.204900
  H    -60.902000   -0.049279  -19.267000
  H    -60.466700    1.414070  -20.046400
  H    -62.088100    1.233550  -19.235200
  H    -61.156200    8.603150  -16.330900
  H    -56.606200    3.652130  -21.144100

 Total Charge           Charge          ....    0
 Multiplicity           Mult            ....    1
 Number of Electrons    NEL             ....  134
 Basis Dimension        Dim             ....  322

ORBITAL ENERGIES
----------------

  NO   OCC          E(Eh)            E(eV)
   0   2.0000     -88.966665     -2420.9060
   1   2.0000     -88.963241     -2420.8128
   2   2.0000     -10.331698      -281.1398
   3   2.0000     -10.323217      -280.9090
   4   2.0000     -10.319544      -280.8091
   5   2.0000     -10.318823      -280.7895
   6   2.0000     -10.308315      -280.5035
   7   2.0000     -10.304629      -280.4032
   8   2.0000     -10.303812      -280.3810
   9   2.0000     -10.294484      -280.1272
  10   2.0000     -10.293717      -280.1063
  11   2.0000     -10.293022      -280.0874
  12   2.0000     -10.286084      -279.8986
  13   2.0000     -10.284351      -279.8514
  14   2.0000     -10.280983      -279.7598
  15   2.0000     -10.276671      -279.6424
  16   2.0000      -8.079776      -219.8619
  17   2.0000      -8.078125      -219.8170
  18   2.0000      -6.038371      -164.3124
  19   2.0000      -6.036469      -164.2607
  20   2.0000      -6.034737      -164.2135
  21   2.0000      -6.032816      -164.1613
  22   2.0000      -6.030322      -164.0934
  23   2.0000      -6.028841      -164.0531
  24   2.0000      -1.002148       -27.2698
  25   2.0000      -0.975094       -26.5337
  26   2.0000      -0.910391       -24.7730
  27   2.0000      -0.904791       -24.6206
  28   2.0000      -0.866119       -23.5683
  29   2.0000      -0.847767       -23.0689
  30   2.0000      -0.842408       -22.9231
  31   2.0000      -0.813658       -22.1408
  32   2.0000      -0.785731       -21.3808
  33   2.0000      -0.772612       -21.0239
  34   2.0000      -0.708989       -19.2926
  35   2.0000      -0.698256       -19.0005
  36   2.0000      -0.693200       -18.8629
  37   2.0000      -0.653974       -17.7955
  38   2.0000      -0.639479       -17.4011
  39   2.0000      -0.618834       -16.8393
  40   2.0000      -0.596315       -16.2266
  41   2.0000      -0.564079       -15.3494
  42   2.0000      -0.556764       -15.1503
  43   2.0000      -0.546860       -14.8808
  44   2.0000      -0.541205       -14.7269
  45   2.0000      -0.531047       -14.4505
  46   2.0000      -0.519636       -14.1400
  47   2.0000      -0.503759       -13.7080
  48   2.0000      -0.500421       -13.6171
  49   2.0000      -0.492504       -13.4017
  50   2.0000      -0.486504       -13.2385
  51   2.0000      -0.481491       -13.1020
  52   2.0000      -0.474915       -12.9231
  53   2.0000      -0.467425       -12.7193
  54   2.0000      -0.451086       -12.2747
  55   2.0000      -0.450168       -12.2497
  56   2.0000      -0.447760       -12.1842
  57   2.0000      -0.442376       -12.0377
  58   2.0000      -0.433197       -11.7879
  59   2.0000      -0.423413       -11.5217
  60   2.0000      -0.421697       -11.4750
  61   2.0000      -0.409483       -11.1426
  62   2.0000      -0.407696       -11.0940
  63   2.0000      -0.338919        -9.2225
  64   2.0000      -0.332340        -9.0434
  65   2.0000      -0.326534        -8.8854
  66   2.0000      -0.289489        -7.8774
  67   0.0000       0.032570         0.8863
  68   0.0000       0.053266         1.4494
  69   0.0000       0.104809         2.8520
  70   0.0000       0.111499         3.0340
  71   0.0000       0.125474         3.4143

MULLIKEN ATOMIC CHARGES
-----------------------
   0 S :    0.097018
   1 C :   -0.132130
   2 C :   -0.092711
   3 C :    0.041278
   4 C :   -0.153429
   5 H :    0.017009
   6 C :    0.132487
   7 H :    0.017529
   8 H :   -0.001733
   9 C :   -0.121633
  10 H :    0.028254
  11 H :    0.044507
  12 C :   -0.024976
  13 H :    0.017099
  14 H :    0.033609
  15 H :    0.040665
  16 S :    0.099840
  17 C :   -0.102549
  18 C :   -0.055099
  19 C :   -0.010537
  20 C :   -0.159697
  21 H :    0.057421
  22 C :    0.005239
  23 H :    0.039321
  24 H :    0.045846
  25 C :   -0.059064
  26 H :    0.028820
  27 H :    0.005303
  28 C :   -0.040827
  29 H :    0.028207
  30 H :    0.028274
  31 H :    0.041320
  32 H :    0.048490
  33 H :    0.056847
Sum of atomic charges:   -0.0000000

LOEWDIN ATOMIC CHARGES
----------------------
   0 S :    0.357415
   1 C :   -0.179369
   2 C :   -0.056513
   3 C :   -0.059210
   4 C :   -0.178186
   5 H :    0.031998
   6 C :   -0.031539
   7 H :    0.028170
   8 H :    0.025317
   9 C :   -0.043178
  10 H :    0.025986
  11 H :    0.031546
  12 C :   -0.060154
  13 H :    0.014428
  14 H :    0.024576
  15 H :    0.033999
  16 S :    0.392777
  17 C :   -0.169518
  18 C :   -0.077661
  19 C :   -0.055868
  20 C :   -0.198355
  21 H :    0.046997
  22 C :   -0.041132
  23 H :    0.034326
  24 H :    0.042400
  25 C :   -0.046117
  26 H :    0.029095
  27 H :    0.015365
  28 C :   -0.066544
  29 H :    0.031384
  30 H :    0.019771
  31 H :    0.027934
  32 H :    0.026510
  33 H :    0.023348

  Mayer bond orders larger than 0.100000
B(  0-S ,  1-C ) :   1.1175 B(  0-S ,  4-C ) :   1.1298 B(  1-C ,  2-C ) :   1.6332
B(  1-C ,  4-C ) :   0.1036 B(  1-C , 32-H ) :   0.9663 B(  2-C ,  3-C ) :   1.2125
B(  2-C ,  6-C ) :   1.0210 B(  3-C ,  4-C ) :   1.6034 B(  3-C ,  5-H ) :   0.9965
B(  4-C , 20-C ) :   1.0126 B(  6-C ,  7-H ) :   0.9304 B(  6-C ,  8-H ) :   0.9318
B(  6-C ,  9-C ) :   1.0598 B(  9-C , 10-H ) :   0.9559 B(  9-C , 11-H ) :   0.9575
B(  9-C , 12-C ) :   1.0715 B( 12-C , 13-H ) :   0.9734 B( 12-C , 14-H ) :   0.9771
B( 12-C , 15-H ) :   0.9751 B( 16-S , 17-C ) :   1.1533 B( 16-S , 20-C ) :   1.1422
B( 17-C , 18-C ) :   1.6370 B( 17-C , 20-C ) :   0.1027 B( 17-C , 33-H ) :   0.9686
B( 18-C , 19-C ) :   1.1867 B( 18-C , 21-H ) :   0.9740 B( 19-C , 20-C ) :   1.6252
B( 19-C , 22-C ) :   1.0423 B( 22-C , 23-H ) :   0.9394 B( 22-C , 24-H ) :   0.9359
B( 22-C , 25-C ) :   1.0663 B( 25-C , 26-H ) :   0.9544 B( 25-C , 27-H ) :   0.9479
B( 25-C , 28-C ) :   1.0849 B( 28-C , 29-H ) :   0.9724 B( 28-C , 30-H ) :   0.9719
B( 28-C , 31-H ) :   0.9766

Dispersion correction           -0.014073923
FINAL SINGLE POINT ENERGY     -1339.857236430645

DIPOLE MOMENT
-------------
                                X             Y             Z
Electronic contribution:     26.20622      14.16235      -4.78356
Nuclear contribution   :    -26.69799     -14.59845       4.91911
                        -----------------------------------------
Total Dipole Moment    :     -0.49177      -0.43610       0.13555
                        -----------------------------------------
Magnitude (a.u.)       :      0.67111
Magnitude (Debye)      :      1.70583

Rotational constants in cm-1:     0.017058     0.008781     0.006510
Rotational constants in MHz :   511.385161   263.262264   195.151050

                             ****ORCA TERMINATED NORMALLY****
TOTAL RUN TIME: 0 days 0 hours 0 minutes 21 seconds 405 msec
