                         Program Version 4.2.1 -  RELEASE  -
|  1> ! wB97X-D3 SP def2-SVP
|  2> %pal
|  3> nprocs 24
|  4> end
|  5>
|  6> * xyz 0 1
|  7> S 	 -105.829 	 36.3198 	 -14.6656
|  8> C 	 -105.569 	 37.2284 	 -16.0996
|  9> C 	 -104.469 	 38.0808 	 -15.9387
| 10> C 	 -103.879 	 38.0641 	 -14.6575
| 11> C 	 -104.551 	 37.1666 	 -13.8154
| 12> H 	 -102.988 	 38.5501 	 -14.2934
| 13> C 	 -103.937 	 39.0391 	 -16.955
| 14> H 	 -104.43 	 38.7242 	 -17.8616
| 15> H 	 -102.903 	 38.8298 	 -17.1681
| 16> C 	 -104.271 	 40.5174 	 -16.7169
| 17> H 	 -105.271 	 40.5445 	 -16.2495
| 18> H 	 -103.739 	 40.9443 	 -15.854
| 19> C 	 -104.288 	 41.4159 	 -18.0253
| 20> H 	 -104.536 	 42.4423 	 -17.7023
| 21> H 	 -103.385 	 41.5697 	 -18.6728
| 22> H 	 -105.103 	 41.1266 	 -18.5809
| 23> S 	 -103.861 	 38.1889 	 -11.3215
| 24> C 	 -103.404 	 37.1855 	 -10.0422
| 25> C 	 -103.617 	 35.8335 	 -10.3739
| 26> C 	 -103.985 	 35.6974 	 -11.7304
| 27> C 	 -104.171 	 36.8729 	 -12.4039
| 28> H 	 -103.371 	 35.0342 	 -9.68514
| 29> C 	 -104.189 	 34.3002 	 -12.3512
| 30> H 	 -104.302 	 34.3069 	 -13.4554
| 31> H 	 -105.139 	 33.855 	 -12.0334
| 32> C 	 -103.034 	 33.3645 	 -12.066
| 33> H 	 -102.83 	 33.3146 	 -11.0163
| 34> H 	 -102.158 	 33.7063 	 -12.639
| 35> C 	 -103.38 	 31.8707 	 -12.5143
| 36> H 	 -103.219 	 31.7877 	 -13.5321
| 37> H 	 -104.348 	 31.4623 	 -12.1678
| 38> H 	 -102.606 	 31.2227 	 -12.1009
| 39> H 	 -106.166 	 37.0901 	 -17.0313
| 40> H 	 -102.896 	 37.5833 	 -9.18581
| 41> *
| 42>
| 43>                          ****END OF INPUT****

CARTESIAN COORDINATES (ANGSTROEM)
---------------------------------
  S    -105.829000   36.319800  -14.665600
  C    -105.569000   37.228400  -16.099600
  C    -104.469000   38.080800  -15.938700
  C    -103.879000   38.064100  -14.657500
  C    -104.551000   37.166600  -13.815400
  H    -102.988000   38.550100  -14.293400
  C    -103.937000   39.039100  -16.955000
  H    -104.430000   38.724200  -17.861600
  H    -102.903000   38.829800  -17.168100
  C    -104.271000   40.517400  -16.716900
  H    -105.271000   40.544500  -16.249500
  H    -103.739000   40.944300  -15.854000
  C    -104.288000   41.415900  -18.025300
  H    -104.536000   42.442300  -17.702300
  H    -103.385000   41.569700  -18.672800
  H    -105.103000   41.126600  -18.580900
  S    -103.861000   38.188900  -11.321500
  C    -103.404000   37.185500  -10.042200
  C    -103.617000   35.833500  -10.373900
  C    -103.985000   35.697400  -11.730400
  C    -104.171000   36.872900  -12.403900
  H    -103.371000   35.034200   -9.685140
  C    -104.189000   34.300200  -12.351200
  H    -104.302000   34.306900  -13.455400
  H    -105.139000   33.855000  -12.033400
  C    -103.034000   33.364500  -12.066000
  H    -102.830000   33.314600  -11.016300
  H    -102.158000   33.706300  -12.639000
  C    -103.380000   31.870700  -12.514300
  H    -103.219000   31.787700  -13.532100
  H    -104.348000   31.462300  -12.167800
  H    -102.606000   31.222700  -12.100900
  H    -106.166000   37.090100  -17.031300
  H    -102.896000   37.583300   -9.185810

 Total Charge           Charge          ....    0
 Multiplicity           Mult            ....    1
 Number of Electrons    NEL             ....  134
 Basis Dimension        Dim             ....  322

ORBITAL ENERGIES
----------------

  NO   OCC          E(Eh)            E(eV)
   0   2.0000     -88.970372     -2421.0069
   1   2.0000     -88.963862     -2420.8298
   2   2.0000     -10.333030      -281.1760
   3   2.0000     -10.322853      -280.8991
   4   2.0000     -10.317930      -280.7652
   5   2.0000     -10.314815      -280.6804
   6   2.0000     -10.299175      -280.2548
   7   2.0000     -10.298582      -280.2387
   8   2.0000     -10.294500      -280.1276
   9   2.0000     -10.292854      -280.0828
  10   2.0000     -10.291883      -280.0564
  11   2.0000     -10.287673      -279.9418
  12   2.0000     -10.284362      -279.8517
  13   2.0000     -10.283425      -279.8262
  14   2.0000     -10.281119      -279.7635
  15   2.0000     -10.273839      -279.5654
  16   2.0000      -8.084900      -220.0013
  17   2.0000      -8.080047      -219.8693
  18   2.0000      -6.043300      -164.4465
  19   2.0000      -6.039271      -164.3369
  20   2.0000      -6.038358      -164.3121
  21   2.0000      -6.035952      -164.2466
  22   2.0000      -6.034170      -164.1981
  23   2.0000      -6.031112      -164.1149
  24   2.0000      -1.011012       -27.5110
  25   2.0000      -0.990926       -26.9645
  26   2.0000      -0.908257       -24.7149
  27   2.0000      -0.905056       -24.6278
  28   2.0000      -0.865429       -23.5495
  29   2.0000      -0.850808       -23.1517
  30   2.0000      -0.845164       -22.9981
  31   2.0000      -0.811862       -22.0919
  32   2.0000      -0.780804       -21.2467
  33   2.0000      -0.771771       -21.0010
  34   2.0000      -0.708490       -19.2790
  35   2.0000      -0.700510       -19.0618
  36   2.0000      -0.690392       -18.7865
  37   2.0000      -0.662844       -18.0369
  38   2.0000      -0.641918       -17.4675
  39   2.0000      -0.617246       -16.7961
  40   2.0000      -0.602115       -16.3844
  41   2.0000      -0.568560       -15.4713
  42   2.0000      -0.565573       -15.3900
  43   2.0000      -0.553311       -15.0564
  44   2.0000      -0.523223       -14.2376
  45   2.0000      -0.521762       -14.1979
  46   2.0000      -0.511187       -13.9101
  47   2.0000      -0.509180       -13.8555
  48   2.0000      -0.504349       -13.7240
  49   2.0000      -0.502350       -13.6696
  50   2.0000      -0.486714       -13.2442
  51   2.0000      -0.483902       -13.1676
  52   2.0000      -0.473899       -12.8954
  53   2.0000      -0.467772       -12.7287
  54   2.0000      -0.464353       -12.6357
  55   2.0000      -0.445353       -12.1187
  56   2.0000      -0.442811       -12.0495
  57   2.0000      -0.438061       -11.9203
  58   2.0000      -0.435667       -11.8551
  59   2.0000      -0.424875       -11.5614
  60   2.0000      -0.417920       -11.3722
  61   2.0000      -0.411487       -11.1971
  62   2.0000      -0.408004       -11.1024
  63   2.0000      -0.348074        -9.4716
  64   2.0000      -0.333132        -9.0650
  65   2.0000      -0.330006        -8.9799
  66   2.0000      -0.291453        -7.9308
  67   0.0000       0.029849         0.8122
  68   0.0000       0.077539         2.1099
  69   0.0000       0.115310         3.1378
  70   0.0000       0.123638         3.3644
  71   0.0000       0.137394         3.7387

MULLIKEN ATOMIC CHARGES
-----------------------
   0 S :    0.126558
   1 C :   -0.137224
   2 C :   -0.116271
   3 C :    0.023762
   4 C :   -0.151408
   5 H :    0.020109
   6 C :    0.119870
   7 H :   -0.010736
   8 H :    0.028667
   9 C :   -0.082064
  10 H :    0.027578
  11 H :    0.027676
  12 C :   -0.044378
  13 H :    0.027393
  14 H :    0.049628
  15 H :    0.021258
  16 S :    0.115575
  17 C :   -0.107125
  18 C :   -0.034449
  19 C :   -0.026278
  20 C :   -0.149888
  21 H :    0.025616
  22 C :    0.061422
  23 H :    0.021624
  24 H :    0.030746
  25 C :   -0.110033
  26 H :    0.026575
  27 H :    0.040785
  28 C :   -0.037038
  29 H :    0.020038
  30 H :    0.040162
  31 H :    0.023277
  32 H :    0.067640
  33 H :    0.060932
Sum of atomic charges:    0.0000000

LOEWDIN ATOMIC CHARGES
----------------------
   0 S :    0.435718
   1 C :   -0.221528
   2 C :   -0.065218
   3 C :   -0.061681
   4 C :   -0.187422
   5 H :    0.033310
   6 C :   -0.035659
   7 H :    0.024536
   8 H :    0.029502
   9 C :   -0.041986
  10 H :    0.031506
  11 H :    0.022819
  12 C :   -0.066387
  13 H :    0.030895
  14 H :    0.032850
  15 H :    0.014119
  16 S :    0.444177
  17 C :   -0.201565
  18 C :   -0.071401
  19 C :   -0.063216
  20 C :   -0.210613
  21 H :    0.031583
  22 C :   -0.039898
  23 H :    0.022776
  24 H :    0.029458
  25 C :   -0.033045
  26 H :    0.013867
  27 H :    0.030593
  28 C :   -0.062940
  29 H :    0.014134
  30 H :    0.027812
  31 H :    0.026696
  32 H :    0.039373
  33 H :    0.026836

  Mayer bond orders larger than 0.100000
B(  0-S ,  1-C ) :   1.1501 B(  0-S ,  4-C ) :   1.1758 B(  1-C ,  2-C ) :   1.5752
B(  1-C , 32-H ) :   0.9631 B(  2-C ,  3-C ) :   1.2570 B(  2-C ,  6-C ) :   1.0418
B(  3-C ,  4-C ) :   1.5364 B(  3-C ,  5-H ) :   0.9979 B(  4-C , 20-C ) :   1.0116
B(  6-C ,  7-H ) :   0.9315 B(  6-C ,  8-H ) :   0.9320 B(  6-C ,  9-C ) :   1.0489
B(  9-C , 10-H ) :   0.9523 B(  9-C , 11-H ) :   0.9573 B(  9-C , 12-C ) :   1.0714
B( 12-C , 13-H ) :   0.9739 B( 12-C , 14-H ) :   0.9797 B( 12-C , 15-H ) :   0.9758
B( 16-S , 17-C ) :   1.2010 B( 16-S , 20-C ) :   1.1541 B( 17-C , 18-C ) :   1.5380
B( 17-C , 33-H ) :   0.9722 B( 18-C , 19-C ) :   1.2816 B( 18-C , 21-H ) :   0.9928
B( 19-C , 20-C ) :   1.5813 B( 19-C , 22-C ) :   1.0234 B( 22-C , 23-H ) :   0.9366
B( 22-C , 24-H ) :   0.9406 B( 22-C , 25-C ) :   1.0622 B( 25-C , 26-H ) :   0.9622
B( 25-C , 27-H ) :   0.9567 B( 25-C , 28-C ) :   1.0794 B( 28-C , 29-H ) :   0.9772
B( 28-C , 30-H ) :   0.9765 B( 28-C , 31-H ) :   0.9743

Dispersion correction           -0.013586604
FINAL SINGLE POINT ENERGY     -1339.879963720198

DIPOLE MOMENT
-------------
                                X             Y             Z
Electronic contribution:     -6.29602       3.32770      12.35448
Nuclear contribution   :      6.56256      -3.40995     -12.55264
                        -----------------------------------------
Total Dipole Moment    :      0.26654      -0.08225      -0.19815
                        -----------------------------------------
Magnitude (a.u.)       :      0.34215
Magnitude (Debye)      :      0.86969

Rotational constants in cm-1:     0.022084     0.007271     0.005965
Rotational constants in MHz :   662.063316   217.988589   178.839779

                             ****ORCA TERMINATED NORMALLY****
TOTAL RUN TIME: 0 days 0 hours 0 minutes 20 seconds 839 msec
