                         Program Version 4.2.1 -  RELEASE  -
|  1> ! wB97X-D3 SP def2-SVP
|  2> %pal
|  3> nprocs 24
|  4> end
|  5>
|  6> * xyz 0 1
|  7> S 	 -44.3407 	 -1.94982 	 -10.6281
|  8> C 	 -44.7503 	 -0.942541 	 -9.30606
|  9> C 	 -46.0933 	 -1.0378 	 -8.99942
| 10> C 	 -46.7318 	 -2.01658 	 -9.74573
| 11> C 	 -45.9255 	 -2.75347 	 -10.6329
| 12> H 	 -47.7995 	 -2.30934 	 -9.69399
| 13> C 	 -46.8378 	 -0.291534 	 -7.87241
| 14> H 	 -47.9594 	 -0.368635 	 -7.92913
| 15> H 	 -46.6703 	 0.813272 	 -7.89514
| 16> C 	 -46.3426 	 -0.816355 	 -6.4545
| 17> H 	 -46.6837 	 -1.89759 	 -6.31241
| 18> H 	 -45.2559 	 -0.855359 	 -6.30543
| 19> C 	 -46.8955 	 0.0398728 	 -5.30269
| 20> H 	 -46.6915 	 -0.417288 	 -4.34751
| 21> H 	 -46.3657 	 0.989712 	 -5.2604
| 22> H 	 -47.9613 	 0.31445 	 -5.4823
| 23> S 	 -46.0186 	 -3.45696 	 -13.2604
| 24> C 	 -46.6638 	 -4.98206 	 -13.7689
| 25> C 	 -47.4289 	 -5.45387 	 -12.7423
| 26> C 	 -47.2851 	 -4.66769 	 -11.5416
| 27> C 	 -46.3494 	 -3.69286 	 -11.6338
| 28> H 	 -48.044 	 -6.33398 	 -12.8337
| 29> C 	 -47.9822 	 -5.0708 	 -10.2072
| 30> H 	 -48.704 	 -4.34424 	 -9.83545
| 31> H 	 -47.174 	 -5.13008 	 -9.48629
| 32> C 	 -48.7391 	 -6.49878 	 -10.1044
| 33> H 	 -47.9542 	 -7.21682 	 -10.2483
| 34> H 	 -49.532 	 -6.73392 	 -10.8115
| 35> C 	 -49.2225 	 -6.79112 	 -8.70487
| 36> H 	 -49.4849 	 -7.86406 	 -8.55256
| 37> H 	 -50.1894 	 -6.2488 	 -8.45607
| 38> H 	 -48.5322 	 -6.60548 	 -7.91657
| 39> H 	 -44.132 	 -0.298787 	 -8.75143
| 40> H 	 -46.7181 	 -5.38791 	 -14.747
| 41> *
| 42>
| 43>                          ****END OF INPUT****

CARTESIAN COORDINATES (ANGSTROEM)
---------------------------------
  S    -44.340700   -1.949820  -10.628100
  C    -44.750300   -0.942541   -9.306060
  C    -46.093300   -1.037800   -8.999420
  C    -46.731800   -2.016580   -9.745730
  C    -45.925500   -2.753470  -10.632900
  H    -47.799500   -2.309340   -9.693990
  C    -46.837800   -0.291534   -7.872410
  H    -47.959400   -0.368635   -7.929130
  H    -46.670300    0.813272   -7.895140
  C    -46.342600   -0.816355   -6.454500
  H    -46.683700   -1.897590   -6.312410
  H    -45.255900   -0.855359   -6.305430
  C    -46.895500    0.039873   -5.302690
  H    -46.691500   -0.417288   -4.347510
  H    -46.365700    0.989712   -5.260400
  H    -47.961300    0.314450   -5.482300
  S    -46.018600   -3.456960  -13.260400
  C    -46.663800   -4.982060  -13.768900
  C    -47.428900   -5.453870  -12.742300
  C    -47.285100   -4.667690  -11.541600
  C    -46.349400   -3.692860  -11.633800
  H    -48.044000   -6.333980  -12.833700
  C    -47.982200   -5.070800  -10.207200
  H    -48.704000   -4.344240   -9.835450
  H    -47.174000   -5.130080   -9.486290
  C    -48.739100   -6.498780  -10.104400
  H    -47.954200   -7.216820  -10.248300
  H    -49.532000   -6.733920  -10.811500
  C    -49.222500   -6.791120   -8.704870
  H    -49.484900   -7.864060   -8.552560
  H    -50.189400   -6.248800   -8.456070
  H    -48.532200   -6.605480   -7.916570
  H    -44.132000   -0.298787   -8.751430
  H    -46.718100   -5.387910  -14.747000

 Total Charge           Charge          ....    0
 Multiplicity           Mult            ....    1
 Number of Electrons    NEL             ....  134
 Basis Dimension        Dim             ....  322

ORBITAL ENERGIES
----------------

  NO   OCC          E(Eh)            E(eV)
   0   2.0000     -88.970989     -2421.0237
   1   2.0000     -88.959290     -2420.7054
   2   2.0000     -10.331590      -281.1368
   3   2.0000     -10.317954      -280.7658
   4   2.0000     -10.312701      -280.6228
   5   2.0000     -10.309957      -280.5482
   6   2.0000     -10.307536      -280.4823
   7   2.0000     -10.300636      -280.2946
   8   2.0000     -10.299365      -280.2600
   9   2.0000     -10.297460      -280.2081
  10   2.0000     -10.296798      -280.1901
  11   2.0000     -10.296089      -280.1708
  12   2.0000     -10.290439      -280.0171
  13   2.0000     -10.289180      -279.9828
  14   2.0000     -10.280804      -279.7549
  15   2.0000     -10.279939      -279.7314
  16   2.0000      -8.085491      -220.0174
  17   2.0000      -8.076043      -219.7603
  18   2.0000      -6.043879      -164.4623
  19   2.0000      -6.039929      -164.3548
  20   2.0000      -6.036469      -164.2607
  21   2.0000      -6.034567      -164.2089
  22   2.0000      -6.030351      -164.0942
  23   2.0000      -6.026539      -163.9905
  24   2.0000      -1.019322       -27.7372
  25   2.0000      -0.994445       -27.0602
  26   2.0000      -0.904163       -24.6035
  27   2.0000      -0.899876       -24.4869
  28   2.0000      -0.877199       -23.8698
  29   2.0000      -0.854056       -23.2401
  30   2.0000      -0.845471       -23.0064
  31   2.0000      -0.817800       -22.2535
  32   2.0000      -0.777270       -21.1506
  33   2.0000      -0.769435       -20.9374
  34   2.0000      -0.709698       -19.3119
  35   2.0000      -0.703957       -19.1557
  36   2.0000      -0.695491       -18.9253
  37   2.0000      -0.658731       -17.9250
  38   2.0000      -0.642539       -17.4844
  39   2.0000      -0.619649       -16.8615
  40   2.0000      -0.595439       -16.2027
  41   2.0000      -0.576927       -15.6990
  42   2.0000      -0.568122       -15.4594
  43   2.0000      -0.553274       -15.0554
  44   2.0000      -0.526266       -14.3204
  45   2.0000      -0.523719       -14.2511
  46   2.0000      -0.517497       -14.0818
  47   2.0000      -0.515490       -14.0272
  48   2.0000      -0.509720       -13.8702
  49   2.0000      -0.499405       -13.5895
  50   2.0000      -0.488873       -13.3029
  51   2.0000      -0.485557       -13.2127
  52   2.0000      -0.475035       -12.9264
  53   2.0000      -0.464177       -12.6309
  54   2.0000      -0.462912       -12.5965
  55   2.0000      -0.449657       -12.2358
  56   2.0000      -0.444370       -12.0919
  57   2.0000      -0.433585       -11.7984
  58   2.0000      -0.431315       -11.7367
  59   2.0000      -0.427706       -11.6385
  60   2.0000      -0.416777       -11.3411
  61   2.0000      -0.415287       -11.3005
  62   2.0000      -0.408143       -11.1061
  63   2.0000      -0.356939        -9.7128
  64   2.0000      -0.333957        -9.0874
  65   2.0000      -0.323503        -8.8030
  66   2.0000      -0.290124        -7.8947
  67   0.0000       0.022189         0.6038
  68   0.0000       0.075970         2.0673
  69   0.0000       0.113768         3.0958
  70   0.0000       0.127479         3.4689
  71   0.0000       0.141956         3.8628

MULLIKEN ATOMIC CHARGES
-----------------------
   0 S :    0.126173
   1 C :   -0.083257
   2 C :   -0.049365
   3 C :    0.007113
   4 C :   -0.179709
   5 H :    0.020146
   6 C :    0.022992
   7 H :    0.040763
   8 H :    0.036165
   9 C :   -0.113049
  10 H :    0.040832
  11 H :    0.035025
  12 C :   -0.043414
  13 H :    0.036151
  14 H :    0.024647
  15 H :    0.035509
  16 S :    0.103709
  17 C :   -0.063907
  18 C :   -0.040716
  19 C :   -0.048048
  20 C :   -0.109783
  21 H :    0.015845
  22 C :    0.015373
  23 H :    0.041746
  24 H :    0.039860
  25 C :   -0.068206
  26 H :    0.024667
  27 H :    0.041992
  28 C :   -0.071463
  29 H :    0.033029
  30 H :    0.034148
  31 H :    0.025272
  32 H :    0.025291
  33 H :    0.044469
Sum of atomic charges:   -0.0000000

LOEWDIN ATOMIC CHARGES
----------------------
   0 S :    0.426944
   1 C :   -0.193033
   2 C :   -0.071285
   3 C :   -0.056405
   4 C :   -0.194305
   5 H :    0.035602
   6 C :   -0.033987
   7 H :    0.036136
   8 H :    0.031521
   9 C :   -0.045744
  10 H :    0.029617
  11 H :    0.023151
  12 C :   -0.071291
  13 H :    0.025651
  14 H :    0.022887
  15 H :    0.027432
  16 S :    0.436525
  17 C :   -0.188911
  18 C :   -0.068429
  19 C :   -0.065293
  20 C :   -0.222850
  21 H :    0.029372
  22 C :   -0.029679
  23 H :    0.024202
  24 H :    0.034601
  25 C :   -0.044372
  26 H :    0.022510
  27 H :    0.023949
  28 C :   -0.071543
  29 H :    0.031304
  30 H :    0.027641
  31 H :    0.019168
  32 H :    0.021678
  33 H :    0.027235

  Mayer bond orders larger than 0.100000
B(  0-S ,  1-C ) :   1.1720 B(  0-S ,  4-C ) :   1.1530 B(  1-C ,  2-C ) :   1.5554
B(  1-C ,  4-C ) :   0.1133 B(  1-C , 32-H ) :   0.9724 B(  2-C ,  3-C ) :   1.3133
B(  2-C ,  6-C ) :   1.0147 B(  3-C ,  4-C ) :   1.5125 B(  3-C ,  5-H ) :   0.9841
B(  4-C , 20-C ) :   1.0735 B(  6-C ,  7-H ) :   0.9485 B(  6-C ,  8-H ) :   0.9465
B(  6-C ,  9-C ) :   1.0448 B(  9-C , 10-H ) :   0.9581 B(  9-C , 11-H ) :   0.9624
B(  9-C , 12-C ) :   1.0774 B( 12-C , 13-H ) :   0.9734 B( 12-C , 14-H ) :   0.9740
B( 12-C , 15-H ) :   0.9744 B( 16-S , 17-C ) :   1.1522 B( 16-S , 20-C ) :   1.1559
B( 17-C , 18-C ) :   1.5841 B( 17-C , 33-H ) :   0.9731 B( 18-C , 19-C ) :   1.2683
B( 18-C , 21-H ) :   0.9919 B( 19-C , 20-C ) :   1.5867 B( 19-C , 22-C ) :   1.0209
B( 22-C , 23-H ) :   0.9384 B( 22-C , 24-H ) :   0.9416 B( 22-C , 25-C ) :   1.0650
B( 25-C , 26-H ) :   0.9532 B( 25-C , 27-H ) :   0.9547 B( 25-C , 28-C ) :   1.0909
B( 28-C , 29-H ) :   0.9716 B( 28-C , 30-H ) :   0.9733 B( 28-C , 31-H ) :   0.9742

Dispersion correction           -0.013380541
FINAL SINGLE POINT ENERGY     -1339.866086279957

DIPOLE MOMENT
-------------
                                X             Y             Z
Electronic contribution:     16.66682       3.96336     -27.41333
Nuclear contribution   :    -17.13237      -4.02452      27.96083
                        -----------------------------------------
Total Dipole Moment    :     -0.46555      -0.06115       0.54750
                        -----------------------------------------
Magnitude (a.u.)       :      0.72127
Magnitude (Debye)      :      1.83333

Rotational constants in cm-1:     0.017100     0.008500     0.005988
Rotational constants in MHz :   512.656989   254.823402   179.517198

                             ****ORCA TERMINATED NORMALLY****
TOTAL RUN TIME: 0 days 0 hours 0 minutes 21 seconds 59 msec
