                         Program Version 4.2.1 -  RELEASE  -
|  1> ! wB97X-D3 SP def2-SVP
|  2> %pal
|  3> nprocs 24
|  4> end
|  5>
|  6> * xyz 0 1
|  7> S 	 -132.708 	 4.49176 	 9.41344
|  8> C 	 -132.24 	 4.54641 	 7.72616
|  9> C 	 -131.179 	 3.61726 	 7.52637
| 10> C 	 -131.103 	 2.67691 	 8.59302
| 11> C 	 -131.904 	 2.99264 	 9.68369
| 12> H 	 -130.319 	 1.93134 	 8.65976
| 13> C 	 -130.29 	 3.60863 	 6.2962
| 14> H 	 -130.831 	 3.91021 	 5.39224
| 15> H 	 -130.011 	 2.59824 	 6.0114
| 16> C 	 -129.043 	 4.56687 	 6.37314
| 17> H 	 -129.532 	 5.523 	 6.56587
| 18> H 	 -128.314 	 4.40071 	 7.21403
| 19> C 	 -128.326 	 4.61538 	 5.00569
| 20> H 	 -127.628 	 3.7044 	 4.98153
| 21> H 	 -129.113 	 4.48156 	 4.21771
| 22> H 	 -127.641 	 5.45289 	 4.82594
| 23> S 	 -131.022 	 3.26658 	 12.3563
| 24> C 	 -131.322 	 1.8992 	 13.3903
| 25> C 	 -131.798 	 0.824692 	 12.7144
| 26> C 	 -132.007 	 1.053 	 11.3432
| 27> C 	 -131.725 	 2.3684 	 11.0293
| 28> H 	 -132.053 	 -0.0673404 	 13.3199
| 29> C 	 -132.641 	 -0.0273192 	 10.3863
| 30> H 	 -132.992 	 0.32709 	 9.46165
| 31> H 	 -133.546 	 -0.387551 	 10.8964
| 32> C 	 -131.734 	 -1.27925 	 10.1185
| 33> H 	 -132.258 	 -1.96732 	 9.47861
| 34> H 	 -131.676 	 -1.72477 	 11.1134
| 35> C 	 -130.401 	 -0.973046 	 9.48224
| 36> H 	 -130.466 	 -0.29563 	 8.61601
| 37> H 	 -129.889 	 -1.89381 	 9.1133
| 38> H 	 -129.689 	 -0.416575 	 10.1013
| 39> H 	 -132.554 	 5.38415 	 7.05278
| 40> H 	 -131.297 	 2.00375 	 14.4338
| 41> *
| 42>
| 43>                          ****END OF INPUT****

CARTESIAN COORDINATES (ANGSTROEM)
---------------------------------
  S    -132.708000    4.491760    9.413440
  C    -132.240000    4.546410    7.726160
  C    -131.179000    3.617260    7.526370
  C    -131.103000    2.676910    8.593020
  C    -131.904000    2.992640    9.683690
  H    -130.319000    1.931340    8.659760
  C    -130.290000    3.608630    6.296200
  H    -130.831000    3.910210    5.392240
  H    -130.011000    2.598240    6.011400
  C    -129.043000    4.566870    6.373140
  H    -129.532000    5.523000    6.565870
  H    -128.314000    4.400710    7.214030
  C    -128.326000    4.615380    5.005690
  H    -127.628000    3.704400    4.981530
  H    -129.113000    4.481560    4.217710
  H    -127.641000    5.452890    4.825940
  S    -131.022000    3.266580   12.356300
  C    -131.322000    1.899200   13.390300
  C    -131.798000    0.824692   12.714400
  C    -132.007000    1.053000   11.343200
  C    -131.725000    2.368400   11.029300
  H    -132.053000   -0.067340   13.319900
  C    -132.641000   -0.027319   10.386300
  H    -132.992000    0.327090    9.461650
  H    -133.546000   -0.387551   10.896400
  C    -131.734000   -1.279250   10.118500
  H    -132.258000   -1.967320    9.478610
  H    -131.676000   -1.724770   11.113400
  C    -130.401000   -0.973046    9.482240
  H    -130.466000   -0.295630    8.616010
  H    -129.889000   -1.893810    9.113300
  H    -129.689000   -0.416575   10.101300
  H    -132.554000    5.384150    7.052780
  H    -131.297000    2.003750   14.433800

 Total Charge           Charge          ....    0
 Multiplicity           Mult            ....    1
 Number of Electrons    NEL             ....  134
 Basis Dimension        Dim             ....  322

ORBITAL ENERGIES
----------------

  NO   OCC          E(Eh)            E(eV)
   0   2.0000     -88.968484     -2420.9555
   1   2.0000     -88.966163     -2420.8924
   2   2.0000     -10.328131      -281.0427
   3   2.0000     -10.326837      -281.0075
   4   2.0000     -10.322084      -280.8782
   5   2.0000     -10.308434      -280.5067
   6   2.0000     -10.307550      -280.4827
   7   2.0000     -10.303476      -280.3718
   8   2.0000     -10.296023      -280.1690
   9   2.0000     -10.293775      -280.1079
  10   2.0000     -10.293566      -280.1022
  11   2.0000     -10.291887      -280.0565
  12   2.0000     -10.291843      -280.0553
  13   2.0000     -10.289794      -279.9995
  14   2.0000     -10.285903      -279.8937
  15   2.0000     -10.278067      -279.6804
  16   2.0000      -8.083332      -219.9586
  17   2.0000      -8.081266      -219.9024
  18   2.0000      -6.041696      -164.4029
  19   2.0000      -6.039650      -164.3472
  20   2.0000      -6.037846      -164.2981
  21   2.0000      -6.035897      -164.2451
  22   2.0000      -6.034219      -164.1994
  23   2.0000      -6.031977      -164.1384
  24   2.0000      -1.007951       -27.4277
  25   2.0000      -0.987125       -26.8610
  26   2.0000      -0.906637       -24.6708
  27   2.0000      -0.903169       -24.5765
  28   2.0000      -0.863867       -23.5070
  29   2.0000      -0.849823       -23.1248
  30   2.0000      -0.846550       -23.0358
  31   2.0000      -0.811378       -22.0787
  32   2.0000      -0.782809       -21.3013
  33   2.0000      -0.768919       -20.9234
  34   2.0000      -0.699683       -19.0394
  35   2.0000      -0.696711       -18.9585
  36   2.0000      -0.693573       -18.8731
  37   2.0000      -0.653393       -17.7797
  38   2.0000      -0.641933       -17.4679
  39   2.0000      -0.620864       -16.8946
  40   2.0000      -0.600990       -16.3538
  41   2.0000      -0.566432       -15.4134
  42   2.0000      -0.556952       -15.1554
  43   2.0000      -0.548377       -14.9221
  44   2.0000      -0.543585       -14.7917
  45   2.0000      -0.521875       -14.2010
  46   2.0000      -0.513655       -13.9773
  47   2.0000      -0.509251       -13.8574
  48   2.0000      -0.502153       -13.6643
  49   2.0000      -0.490517       -13.3476
  50   2.0000      -0.488279       -13.2868
  51   2.0000      -0.479568       -13.0497
  52   2.0000      -0.466511       -12.6944
  53   2.0000      -0.462623       -12.5886
  54   2.0000      -0.455900       -12.4057
  55   2.0000      -0.449153       -12.2221
  56   2.0000      -0.446372       -12.1464
  57   2.0000      -0.438586       -11.9345
  58   2.0000      -0.436958       -11.8902
  59   2.0000      -0.425268       -11.5721
  60   2.0000      -0.421026       -11.4567
  61   2.0000      -0.413897       -11.2627
  62   2.0000      -0.412301       -11.2193
  63   2.0000      -0.342078        -9.3084
  64   2.0000      -0.333273        -9.0688
  65   2.0000      -0.327333        -8.9072
  66   2.0000      -0.296335        -8.0637
  67   0.0000       0.031804         0.8654
  68   0.0000       0.063955         1.7403
  69   0.0000       0.111892         3.0447
  70   0.0000       0.120310         3.2738
  71   0.0000       0.129428         3.5219

MULLIKEN ATOMIC CHARGES
-----------------------
   0 S :    0.115552
   1 C :   -0.137132
   2 C :   -0.093915
   3 C :    0.047904
   4 C :   -0.153953
   5 H :    0.013688
   6 C :    0.033890
   7 H :    0.020793
   8 H :    0.017621
   9 C :   -0.076452
  10 H :    0.024554
  11 H :    0.046626
  12 C :   -0.075695
  13 H :    0.037543
  14 H :    0.037295
  15 H :    0.048122
  16 S :    0.114159
  17 C :   -0.088308
  18 C :   -0.041919
  19 C :   -0.019993
  20 C :   -0.175650
  21 H :    0.031535
  22 C :    0.079188
  23 H :    0.016417
  24 H :    0.029370
  25 C :   -0.058062
  26 H :    0.029178
  27 H :    0.026952
  28 C :   -0.067688
  29 H :    0.023085
  30 H :    0.039442
  31 H :    0.040076
  32 H :    0.074987
  33 H :    0.040789
Sum of atomic charges:    0.0000000

LOEWDIN ATOMIC CHARGES
----------------------
   0 S :    0.427131
   1 C :   -0.209729
   2 C :   -0.059257
   3 C :   -0.062089
   4 C :   -0.205991
   5 H :    0.030143
   6 C :   -0.036466
   7 H :    0.031521
   8 H :    0.023852
   9 C :   -0.042582
  10 H :    0.020907
  11 H :    0.029741
  12 C :   -0.075913
  13 H :    0.032408
  14 H :    0.028077
  15 H :    0.027619
  16 S :    0.403343
  17 C :   -0.180421
  18 C :   -0.073846
  19 C :   -0.058042
  20 C :   -0.195955
  21 H :    0.039412
  22 C :   -0.018258
  23 H :    0.019061
  24 H :    0.033704
  25 C :   -0.037904
  26 H :    0.024287
  27 H :    0.022728
  28 C :   -0.075779
  29 H :    0.023500
  30 H :    0.031859
  31 H :    0.026572
  32 H :    0.038160
  33 H :    0.018206

  Mayer bond orders larger than 0.100000
B(  0-S ,  1-C ) :   1.1601 B(  0-S ,  4-C ) :   1.1784 B(  1-C ,  2-C ) :   1.5442
B(  1-C ,  4-C ) :   0.1054 B(  1-C , 32-H ) :   0.9667 B(  2-C ,  3-C ) :   1.3022
B(  2-C ,  6-C ) :   1.0340 B(  3-C ,  4-C ) :   1.5240 B(  3-C ,  5-H ) :   0.9830
B(  4-C , 20-C ) :   1.0115 B(  6-C ,  7-H ) :   0.9409 B(  6-C ,  8-H ) :   0.9474
B(  6-C ,  9-C ) :   1.0415 B(  9-C , 10-H ) :   0.9573 B(  9-C , 11-H ) :   0.9606
B(  9-C , 12-C ) :   1.0686 B( 12-C , 13-H ) :   0.9759 B( 12-C , 14-H ) :   0.9725
B( 12-C , 15-H ) :   0.9756 B( 16-S , 17-C ) :   1.1428 B( 16-S , 20-C ) :   1.1541
B( 17-C , 18-C ) :   1.6358 B( 17-C , 33-H ) :   0.9712 B( 18-C , 19-C ) :   1.2289
B( 18-C , 21-H ) :   0.9847 B( 19-C , 20-C ) :   1.6190 B( 19-C , 22-C ) :   1.0270
B( 22-C , 23-H ) :   0.9387 B( 22-C , 24-H ) :   0.9436 B( 22-C , 25-C ) :   1.0720
B( 25-C , 26-H ) :   0.9563 B( 25-C , 27-H ) :   0.9578 B( 25-C , 28-C ) :   1.0767
B( 28-C , 29-H ) :   0.9677 B( 28-C , 30-H ) :   0.9703 B( 28-C , 31-H ) :   0.9723

Dispersion correction           -0.014737199
FINAL SINGLE POINT ENERGY     -1339.877955376300

DIPOLE MOMENT
-------------
                                X             Y             Z
Electronic contribution:    -12.09934      12.59214      20.10516
Nuclear contribution   :     12.28996     -12.85854     -20.37074
                        -----------------------------------------
Total Dipole Moment    :      0.19062      -0.26640      -0.26558
                        -----------------------------------------
Magnitude (a.u.)       :      0.42171
Magnitude (Debye)      :      1.07189

Rotational constants in cm-1:     0.019315     0.008214     0.006915
Rotational constants in MHz :   579.063910   246.252122   207.306740

                             ****ORCA TERMINATED NORMALLY****
TOTAL RUN TIME: 0 days 0 hours 0 minutes 20 seconds 589 msec
