                         Program Version 4.2.1 -  RELEASE  -
|  1> ! wB97X-D3 SP def2-SVP
|  2> %pal
|  3> nprocs 24
|  4> end
|  5>
|  6> * xyz 0 1
|  7> S 	 -123.947 	 55.7079 	 -33.0234
|  8> C 	 -122.696 	 55.2011 	 -31.7405
|  9> C 	 -121.448 	 55.1535 	 -32.3126
| 10> C 	 -121.453 	 55.427 	 -33.7156
| 11> C 	 -122.68 	 55.7086 	 -34.2964
| 12> H 	 -120.529 	 55.5323 	 -34.3036
| 13> C 	 -120.18 	 54.8169 	 -31.5751
| 14> H 	 -120.425 	 54.6608 	 -30.5063
| 15> H 	 -119.525 	 55.6781 	 -31.7072
| 16> C 	 -119.385 	 53.6064 	 -32.1907
| 17> H 	 -119.21 	 53.9457 	 -33.2048
| 18> H 	 -118.386 	 53.5549 	 -31.6132
| 19> C 	 -120.172 	 52.2851 	 -32.2526
| 20> H 	 -120.478 	 51.7847 	 -31.3077
| 21> H 	 -121.133 	 52.3559 	 -32.7218
| 22> H 	 -119.62 	 51.451 	 -32.6449
| 23> S 	 -123.56 	 57.8156 	 -35.9296
| 24> C 	 -123.285 	 57.7106 	 -37.6642
| 25> C 	 -122.792 	 56.5406 	 -38.0278
| 26> C 	 -122.466 	 55.7041 	 -36.858
| 27> C 	 -122.846 	 56.2405 	 -35.691
| 28> H 	 -122.517 	 56.3916 	 -39.0438
| 29> C 	 -121.849 	 54.3745 	 -37.0437
| 30> H 	 -120.827 	 54.5441 	 -36.5843
| 31> H 	 -121.726 	 54.3469 	 -38.1316
| 32> C 	 -122.448 	 53.0711 	 -36.5123
| 33> H 	 -123.485 	 53.068 	 -36.7624
| 34> H 	 -122.549 	 53.2517 	 -35.4214
| 35> C 	 -121.677 	 51.7316 	 -36.7172
| 36> H 	 -122.153 	 50.9071 	 -36.2139
| 37> H 	 -120.667 	 51.8005 	 -36.3979
| 38> H 	 -121.535 	 51.5471 	 -37.7938
| 39> H 	 -122.975 	 55.063 	 -30.7198
| 40> H 	 -123.557 	 58.5574 	 -38.3366
| 41> *
| 42>
| 43>                          ****END OF INPUT****

CARTESIAN COORDINATES (ANGSTROEM)
---------------------------------
  S    -123.947000   55.707900  -33.023400
  C    -122.696000   55.201100  -31.740500
  C    -121.448000   55.153500  -32.312600
  C    -121.453000   55.427000  -33.715600
  C    -122.680000   55.708600  -34.296400
  H    -120.529000   55.532300  -34.303600
  C    -120.180000   54.816900  -31.575100
  H    -120.425000   54.660800  -30.506300
  H    -119.525000   55.678100  -31.707200
  C    -119.385000   53.606400  -32.190700
  H    -119.210000   53.945700  -33.204800
  H    -118.386000   53.554900  -31.613200
  C    -120.172000   52.285100  -32.252600
  H    -120.478000   51.784700  -31.307700
  H    -121.133000   52.355900  -32.721800
  H    -119.620000   51.451000  -32.644900
  S    -123.560000   57.815600  -35.929600
  C    -123.285000   57.710600  -37.664200
  C    -122.792000   56.540600  -38.027800
  C    -122.466000   55.704100  -36.858000
  C    -122.846000   56.240500  -35.691000
  H    -122.517000   56.391600  -39.043800
  C    -121.849000   54.374500  -37.043700
  H    -120.827000   54.544100  -36.584300
  H    -121.726000   54.346900  -38.131600
  C    -122.448000   53.071100  -36.512300
  H    -123.485000   53.068000  -36.762400
  H    -122.549000   53.251700  -35.421400
  C    -121.677000   51.731600  -36.717200
  H    -122.153000   50.907100  -36.213900
  H    -120.667000   51.800500  -36.397900
  H    -121.535000   51.547100  -37.793800
  H    -122.975000   55.063000  -30.719800
  H    -123.557000   58.557400  -38.336600

 Total Charge           Charge          ....    0
 Multiplicity           Mult            ....    1
 Number of Electrons    NEL             ....  134
 Basis Dimension        Dim             ....  322

ORBITAL ENERGIES
----------------

  NO   OCC          E(Eh)            E(eV)
   0   2.0000     -88.966576     -2420.9036
   1   2.0000     -88.959638     -2420.7148
   2   2.0000     -10.341078      -281.3950
   3   2.0000     -10.324526      -280.9446
   4   2.0000     -10.323470      -280.9159
   5   2.0000     -10.317116      -280.7430
   6   2.0000     -10.304947      -280.4119
   7   2.0000     -10.301564      -280.3198
   8   2.0000     -10.300402      -280.2882
   9   2.0000     -10.298573      -280.2384
  10   2.0000     -10.297892      -280.2199
  11   2.0000     -10.290723      -280.0248
  12   2.0000     -10.290578      -280.0209
  13   2.0000     -10.282555      -279.8025
  14   2.0000     -10.277924      -279.6765
  15   2.0000     -10.276231      -279.6305
  16   2.0000      -8.078994      -219.8406
  17   2.0000      -8.075045      -219.7332
  18   2.0000      -6.037844      -164.2981
  19   2.0000      -6.033892      -164.1905
  20   2.0000      -6.033714      -164.1857
  21   2.0000      -6.029575      -164.0731
  22   2.0000      -6.029454      -164.0698
  23   2.0000      -6.025459      -163.9611
  24   2.0000      -1.006281       -27.3823
  25   2.0000      -0.978766       -26.6336
  26   2.0000      -0.908972       -24.7344
  27   2.0000      -0.905817       -24.6485
  28   2.0000      -0.868271       -23.6268
  29   2.0000      -0.849076       -23.1045
  30   2.0000      -0.838666       -22.8213
  31   2.0000      -0.820044       -22.3145
  32   2.0000      -0.784699       -21.3528
  33   2.0000      -0.775766       -21.1097
  34   2.0000      -0.715946       -19.4819
  35   2.0000      -0.701599       -19.0915
  36   2.0000      -0.691727       -18.8228
  37   2.0000      -0.663720       -18.0607
  38   2.0000      -0.637172       -17.3383
  39   2.0000      -0.621643       -16.9158
  40   2.0000      -0.590932       -16.0801
  41   2.0000      -0.568950       -15.4819
  42   2.0000      -0.558411       -15.1951
  43   2.0000      -0.547437       -14.8965
  44   2.0000      -0.539125       -14.6703
  45   2.0000      -0.525796       -14.3076
  46   2.0000      -0.519965       -14.1490
  47   2.0000      -0.511214       -13.9108
  48   2.0000      -0.502587       -13.6761
  49   2.0000      -0.496917       -13.5218
  50   2.0000      -0.488524       -13.2934
  51   2.0000      -0.482077       -13.1180
  52   2.0000      -0.471429       -12.8282
  53   2.0000      -0.468027       -12.7357
  54   2.0000      -0.459100       -12.4927
  55   2.0000      -0.450102       -12.2479
  56   2.0000      -0.442034       -12.0284
  57   2.0000      -0.441017       -12.0007
  58   2.0000      -0.435880       -11.8609
  59   2.0000      -0.419250       -11.4084
  60   2.0000      -0.416312       -11.3284
  61   2.0000      -0.414475       -11.2784
  62   2.0000      -0.402559       -10.9542
  63   2.0000      -0.350644        -9.5415
  64   2.0000      -0.330644        -8.9973
  65   2.0000      -0.326676        -8.8893
  66   2.0000      -0.301023        -8.1913
  67   0.0000       0.031595         0.8597
  68   0.0000       0.069845         1.9006
  69   0.0000       0.104684         2.8486
  70   0.0000       0.121035         3.2935
  71   0.0000       0.126788         3.4501

MULLIKEN ATOMIC CHARGES
-----------------------
   0 S :    0.074712
   1 C :   -0.141322
   2 C :   -0.059880
   3 C :    0.007259
   4 C :   -0.139676
   5 H :    0.029411
   6 C :    0.069891
   7 H :    0.027594
   8 H :    0.038803
   9 C :   -0.086282
  10 H :    0.027573
  11 H :    0.052800
  12 C :   -0.047482
  13 H :    0.015761
  14 H :    0.040529
  15 H :    0.028288
  16 S :    0.090570
  17 C :   -0.106875
  18 C :    0.006592
  19 C :   -0.092506
  20 C :   -0.136738
  21 H :    0.014042
  22 C :    0.062471
  23 H :    0.030964
  24 H :    0.006226
  25 C :   -0.060376
  26 H :    0.018884
  27 H :    0.035718
  28 C :   -0.011973
  29 H :    0.043123
  30 H :    0.016503
  31 H :    0.026246
  32 H :    0.046934
  33 H :    0.072216
Sum of atomic charges:   -0.0000000

LOEWDIN ATOMIC CHARGES
----------------------
   0 S :    0.336643
   1 C :   -0.156498
   2 C :   -0.063547
   3 C :   -0.067669
   4 C :   -0.169109
   5 H :    0.033274
   6 C :   -0.029530
   7 H :    0.030199
   8 H :    0.035666
   9 C :   -0.038737
  10 H :    0.020877
  11 H :    0.037147
  12 C :   -0.078726
  13 H :    0.028715
  14 H :    0.027220
  15 H :    0.025731
  16 S :    0.386609
  17 C :   -0.171910
  18 C :   -0.072278
  19 C :   -0.059373
  20 C :   -0.197890
  21 H :    0.030905
  22 C :   -0.040899
  23 H :    0.038322
  24 H :    0.025935
  25 C :   -0.046243
  26 H :    0.021228
  27 H :    0.029482
  28 C :   -0.057621
  29 H :    0.029996
  30 H :    0.021305
  31 H :    0.026611
  32 H :    0.024655
  33 H :    0.039508

  Mayer bond orders larger than 0.100000
B(  0-S ,  1-C ) :   1.1014 B(  0-S ,  4-C ) :   1.1284 B(  1-C ,  2-C ) :   1.6279
B(  1-C , 32-H ) :   0.9753 B(  2-C ,  3-C ) :   1.2125 B(  2-C ,  6-C ) :   1.0268
B(  3-C ,  4-C ) :   1.6049 B(  3-C ,  5-H ) :   0.9792 B(  4-C , 20-C ) :   1.0201
B(  6-C ,  7-H ) :   0.9457 B(  6-C ,  8-H ) :   0.9356 B(  6-C ,  9-C ) :   1.0631
B(  9-C , 10-H ) :   0.9532 B(  9-C , 11-H ) :   0.9572 B(  9-C , 12-C ) :   1.0671
B( 12-C , 13-H ) :   0.9710 B( 12-C , 14-H ) :   0.9716 B( 12-C , 15-H ) :   0.9741
B( 16-S , 17-C ) :   1.1381 B( 16-S , 20-C ) :   1.1071 B( 17-C , 18-C ) :   1.6738
B( 17-C , 33-H ) :   0.9569 B( 18-C , 19-C ) :   1.1870 B( 18-C , 21-H ) :   0.9910
B( 19-C , 20-C ) :   1.6741 B( 19-C , 22-C ) :   1.0453 B( 22-C , 23-H ) :   0.9150
B( 22-C , 24-H ) :   0.9273 B( 22-C , 25-C ) :   1.0654 B( 25-C , 26-H ) :   0.9536
B( 25-C , 27-H ) :   0.9443 B( 25-C , 28-C ) :   1.0789 B( 28-C , 29-H ) :   0.9743
B( 28-C , 30-H ) :   0.9721 B( 28-C , 31-H ) :   0.9760

Dispersion correction           -0.015501100
FINAL SINGLE POINT ENERGY     -1339.872127780964

DIPOLE MOMENT
-------------
                                X             Y             Z
Electronic contribution:    -17.69582      24.19214      -0.80060
Nuclear contribution   :     18.33837     -24.49935       0.69933
                        -----------------------------------------
Total Dipole Moment    :      0.64255      -0.30721      -0.10127
                        -----------------------------------------
Magnitude (a.u.)       :      0.71937
Magnitude (Debye)      :      1.82850

Rotational constants in cm-1:     0.018011     0.009965     0.007488
Rotational constants in MHz :   539.963552   298.742620   224.483655

                             ****ORCA TERMINATED NORMALLY****
TOTAL RUN TIME: 0 days 0 hours 0 minutes 22 seconds 697 msec
