                         Program Version 4.2.1 -  RELEASE  -
|  1> ! wB97X-D3 SP def2-SVP
|  2> %pal
|  3> nprocs 24
|  4> end
|  5>
|  6> * xyz 0 1
|  7> S 	 -64.1859 	 18.6359 	 -119.671
|  8> C 	 -62.9616 	 17.3627 	 -119.723
|  9> C 	 -63.3406 	 16.2615 	 -118.949
| 10> C 	 -64.5389 	 16.4866 	 -118.17
| 11> C 	 -65.0791 	 17.8047 	 -118.326
| 12> H 	 -65.1481 	 15.7222 	 -117.701
| 13> C 	 -62.6101 	 14.9264 	 -118.745
| 14> H 	 -62.9726 	 14.3779 	 -119.601
| 15> H 	 -63.1299 	 14.4237 	 -117.839
| 16> C 	 -61.1064 	 14.9203 	 -118.71
| 17> H 	 -60.8169 	 15.7128 	 -119.469
| 18> H 	 -60.913 	 15.2847 	 -117.698
| 19> C 	 -60.6269 	 13.5042 	 -119.036
| 20> H 	 -61.1728 	 12.7924 	 -118.489
| 21> H 	 -60.8233 	 13.1673 	 -120.064
| 22> H 	 -59.5767 	 13.3255 	 -118.81
| 23> S 	 -66.9759 	 19.6449 	 -118.531
| 24> C 	 -68.3571 	 19.6332 	 -117.483
| 25> C 	 -68.3145 	 18.6332 	 -116.618
| 26> C 	 -67.1281 	 17.7723 	 -116.75
| 27> C 	 -66.3383 	 18.2091 	 -117.822
| 28> H 	 -69.0663 	 18.3592 	 -115.893
| 29> C 	 -66.8537 	 16.5533 	 -115.888
| 30> H 	 -67.2658 	 16.912 	 -114.954
| 31> H 	 -65.7525 	 16.4171 	 -115.592
| 32> C 	 -67.5133 	 15.2957 	 -116.443
| 33> H 	 -67.3083 	 15.1597 	 -117.514
| 34> H 	 -68.5308 	 15.5811 	 -116.705
| 35> C 	 -67.3669 	 14.0493 	 -115.559
| 36> H 	 -66.4404 	 13.9762 	 -114.999
| 37> H 	 -67.5138 	 13.037 	 -116.07
| 38> H 	 -68.2544 	 14.1088 	 -114.975
| 39> H 	 -62.027 	 17.3873 	 -120.231
| 40> H 	 -69.1351 	 20.2519 	 -117.682
| 41> *
| 42>
| 43>                          ****END OF INPUT****

CARTESIAN COORDINATES (ANGSTROEM)
---------------------------------
  S    -64.185900   18.635900  -119.671000
  C    -62.961600   17.362700  -119.723000
  C    -63.340600   16.261500  -118.949000
  C    -64.538900   16.486600  -118.170000
  C    -65.079100   17.804700  -118.326000
  H    -65.148100   15.722200  -117.701000
  C    -62.610100   14.926400  -118.745000
  H    -62.972600   14.377900  -119.601000
  H    -63.129900   14.423700  -117.839000
  C    -61.106400   14.920300  -118.710000
  H    -60.816900   15.712800  -119.469000
  H    -60.913000   15.284700  -117.698000
  C    -60.626900   13.504200  -119.036000
  H    -61.172800   12.792400  -118.489000
  H    -60.823300   13.167300  -120.064000
  H    -59.576700   13.325500  -118.810000
  S    -66.975900   19.644900  -118.531000
  C    -68.357100   19.633200  -117.483000
  C    -68.314500   18.633200  -116.618000
  C    -67.128100   17.772300  -116.750000
  C    -66.338300   18.209100  -117.822000
  H    -69.066300   18.359200  -115.893000
  C    -66.853700   16.553300  -115.888000
  H    -67.265800   16.912000  -114.954000
  H    -65.752500   16.417100  -115.592000
  C    -67.513300   15.295700  -116.443000
  H    -67.308300   15.159700  -117.514000
  H    -68.530800   15.581100  -116.705000
  C    -67.366900   14.049300  -115.559000
  H    -66.440400   13.976200  -114.999000
  H    -67.513800   13.037000  -116.070000
  H    -68.254400   14.108800  -114.975000
  H    -62.027000   17.387300  -120.231000
  H    -69.135100   20.251900  -117.682000

 Total Charge           Charge          ....    0
 Multiplicity           Mult            ....    1
 Number of Electrons    NEL             ....  134
 Basis Dimension        Dim             ....  322

ORBITAL ENERGIES
----------------

  NO   OCC          E(Eh)            E(eV)
   0   2.0000     -88.968901     -2420.9669
   1   2.0000     -88.959211     -2420.7032
   2   2.0000     -10.335004      -281.2298
   3   2.0000     -10.324022      -280.9309
   4   2.0000     -10.315278      -280.6930
   5   2.0000     -10.306538      -280.4552
   6   2.0000     -10.306018      -280.4410
   7   2.0000     -10.304018      -280.3866
   8   2.0000     -10.299846      -280.2731
   9   2.0000     -10.296230      -280.1747
  10   2.0000     -10.294663      -280.1320
  11   2.0000     -10.294391      -280.1246
  12   2.0000     -10.293980      -280.1134
  13   2.0000     -10.291533      -280.0469
  14   2.0000     -10.286155      -279.9005
  15   2.0000     -10.279030      -279.7066
  16   2.0000      -8.081789      -219.9167
  17   2.0000      -8.075687      -219.7506
  18   2.0000      -6.040675      -164.3751
  19   2.0000      -6.036636      -164.2652
  20   2.0000      -6.034210      -164.1992
  21   2.0000      -6.032190      -164.1442
  22   2.0000      -6.030024      -164.0853
  23   2.0000      -6.026269      -163.9831
  24   2.0000      -1.008803       -27.4509
  25   2.0000      -0.975135       -26.5348
  26   2.0000      -0.915739       -24.9185
  27   2.0000      -0.913893       -24.8683
  28   2.0000      -0.877332       -23.8734
  29   2.0000      -0.853094       -23.2139
  30   2.0000      -0.843237       -22.9457
  31   2.0000      -0.813105       -22.1257
  32   2.0000      -0.781969       -21.2785
  33   2.0000      -0.771780       -21.0012
  34   2.0000      -0.716957       -19.5094
  35   2.0000      -0.711156       -19.3515
  36   2.0000      -0.698482       -19.0067
  37   2.0000      -0.671801       -18.2806
  38   2.0000      -0.632637       -17.2149
  39   2.0000      -0.613472       -16.6934
  40   2.0000      -0.602012       -16.3816
  41   2.0000      -0.572737       -15.5850
  42   2.0000      -0.561435       -15.2774
  43   2.0000      -0.553172       -15.0526
  44   2.0000      -0.533900       -14.5282
  45   2.0000      -0.524118       -14.2620
  46   2.0000      -0.517851       -14.0914
  47   2.0000      -0.515382       -14.0243
  48   2.0000      -0.508194       -13.8287
  49   2.0000      -0.504004       -13.7146
  50   2.0000      -0.496630       -13.5140
  51   2.0000      -0.481845       -13.1117
  52   2.0000      -0.475764       -12.9462
  53   2.0000      -0.464472       -12.6389
  54   2.0000      -0.459013       -12.4904
  55   2.0000      -0.456813       -12.4305
  56   2.0000      -0.445299       -12.1172
  57   2.0000      -0.437385       -11.9018
  58   2.0000      -0.434092       -11.8122
  59   2.0000      -0.425624       -11.5818
  60   2.0000      -0.418840       -11.3972
  61   2.0000      -0.411910       -11.2086
  62   2.0000      -0.397324       -10.8117
  63   2.0000      -0.368358       -10.0235
  64   2.0000      -0.332747        -9.0545
  65   2.0000      -0.321261        -8.7420
  66   2.0000      -0.277466        -7.5502
  67   0.0000       0.013077         0.3558
  68   0.0000       0.083529         2.2729
  69   0.0000       0.098330         2.6757
  70   0.0000       0.119313         3.2467
  71   0.0000       0.132714         3.6113

MULLIKEN ATOMIC CHARGES
-----------------------
   0 S :    0.091127
   1 C :   -0.111111
   2 C :   -0.078259
   3 C :   -0.039210
   4 C :   -0.082056
   5 H :    0.021650
   6 C :    0.008804
   7 H :    0.032753
   8 H :    0.038620
   9 C :   -0.056263
  10 H :    0.039090
  11 H :    0.042892
  12 C :   -0.026666
  13 H :    0.014161
  14 H :    0.031642
  15 H :    0.035557
  16 S :    0.074299
  17 C :   -0.030680
  18 C :    0.006069
  19 C :   -0.118439
  20 C :   -0.119545
  21 H :    0.013093
  22 C :    0.028155
  23 H :    0.016540
  24 H :    0.046505
  25 C :   -0.065817
  26 H :    0.022382
  27 H :    0.007618
  28 C :   -0.018961
  29 H :    0.044297
  30 H :    0.039038
  31 H :    0.032957
  32 H :    0.038533
  33 H :    0.021226
Sum of atomic charges:    0.0000000

LOEWDIN ATOMIC CHARGES
----------------------
   0 S :    0.370119
   1 C :   -0.200102
   2 C :   -0.057540
   3 C :   -0.065353
   4 C :   -0.169387
   5 H :    0.031064
   6 C :   -0.041518
   7 H :    0.030081
   8 H :    0.035289
   9 C :   -0.042429
  10 H :    0.031411
  11 H :    0.031931
  12 C :   -0.062617
  13 H :    0.019881
  14 H :    0.030904
  15 H :    0.026712
  16 S :    0.407928
  17 C :   -0.167523
  18 C :   -0.064292
  19 C :   -0.058116
  20 C :   -0.195540
  21 H :    0.031402
  22 C :   -0.041437
  23 H :    0.028693
  24 H :    0.038054
  25 C :   -0.057732
  26 H :    0.026192
  27 H :    0.028372
  28 C :   -0.069316
  29 H :    0.027386
  30 H :    0.037153
  31 H :    0.028041
  32 H :    0.022252
  33 H :    0.010038

  Mayer bond orders larger than 0.100000
B(  0-S ,  1-C ) :   1.1135 B(  0-S ,  4-C ) :   1.1243 B(  1-C ,  2-C ) :   1.6118
B(  1-C , 32-H ) :   0.9677 B(  2-C ,  3-C ) :   1.2526 B(  2-C ,  6-C ) :   0.9956
B(  3-C ,  4-C ) :   1.5386 B(  3-C ,  5-H ) :   0.9809 B(  4-C , 20-C ) :   1.1454
B(  6-C ,  7-H ) :   0.9335 B(  6-C ,  8-H ) :   0.9475 B(  6-C ,  9-C ) :   1.0492
B(  9-C , 10-H ) :   0.9571 B(  9-C , 11-H ) :   0.9574 B(  9-C , 12-C ) :   1.0723
B( 12-C , 13-H ) :   0.9718 B( 12-C , 14-H ) :   0.9739 B( 12-C , 15-H ) :   0.9743
B( 16-S , 17-C ) :   1.1399 B( 16-S , 20-C ) :   1.1300 B( 17-C , 18-C ) :   1.6133
B( 17-C , 33-H ) :   0.9840 B( 18-C , 19-C ) :   1.2435 B( 18-C , 21-H ) :   0.9903
B( 19-C , 20-C ) :   1.5677 B( 19-C , 22-C ) :   1.0424 B( 22-C , 23-H ) :   0.9283
B( 22-C , 24-H ) :   0.9333 B( 22-C , 25-C ) :   1.0511 B( 25-C , 26-H ) :   0.9493
B( 25-C , 27-H ) :   0.9435 B( 25-C , 28-C ) :   1.0447 B( 28-C , 29-H ) :   0.9772
B( 28-C , 30-H ) :   0.9740 B( 28-C , 31-H ) :   0.9790

Dispersion correction           -0.013858432
FINAL SINGLE POINT ENERGY     -1339.847253981821

DIPOLE MOMENT
-------------
                                X             Y             Z
Electronic contribution:     -8.05669      29.34589      -9.90533
Nuclear contribution   :      7.87490     -30.14567      10.21395
                        -----------------------------------------
Total Dipole Moment    :     -0.18179      -0.79978       0.30862
                        -----------------------------------------
Magnitude (a.u.)       :      0.87632
Magnitude (Debye)      :      2.22743

Rotational constants in cm-1:     0.018743     0.008610     0.006048
Rotational constants in MHz :   561.911917   258.130504   181.305287

                             ****ORCA TERMINATED NORMALLY****
TOTAL RUN TIME: 0 days 0 hours 0 minutes 21 seconds 512 msec
