                         Program Version 4.2.1 -  RELEASE  -
|  1> ! wB97X-D3 SP def2-SVP
|  2> %pal
|  3> nprocs 24
|  4> end
|  5>
|  6> * xyz 0 1
|  7> S 	 -40.922 	 -49.7418 	 -78.6197
|  8> C 	 -40.1172 	 -50.232 	 -80.0692
|  9> C 	 -39.3596 	 -49.1861 	 -80.5754
| 10> C 	 -39.5421 	 -48.0016 	 -79.7626
| 11> C 	 -40.5109 	 -48.0635 	 -78.8016
| 12> H 	 -39.1372 	 -47.0541 	 -80.0616
| 13> C 	 -38.4098 	 -49.3421 	 -81.7006
| 14> H 	 -37.9818 	 -50.3894 	 -81.5779
| 15> H 	 -37.5297 	 -48.6307 	 -81.4933
| 16> C 	 -39.07 	 -49.1972 	 -83.0743
| 17> H 	 -40.1601 	 -49.4105 	 -83.0167
| 18> H 	 -38.9473 	 -48.1595 	 -83.2862
| 19> C 	 -38.3805 	 -49.9512 	 -84.2571
| 20> H 	 -38.8565 	 -49.8237 	 -85.1749
| 21> H 	 -37.3348 	 -49.5539 	 -84.5053
| 22> H 	 -38.2876 	 -50.9962 	 -84.0108
| 23> S 	 -41.2504 	 -47.356 	 -76.2121
| 24> C 	 -41.3597 	 -45.6173 	 -75.7683
| 25> C 	 -41.4378 	 -44.854 	 -76.9578
| 26> C 	 -41.2063 	 -45.6492 	 -78.1207
| 27> C 	 -40.9619 	 -47.0105 	 -77.919
| 28> H 	 -41.6582 	 -43.7905 	 -76.9642
| 29> C 	 -41.1107 	 -44.933 	 -79.4327
| 30> H 	 -40.1945 	 -45.0696 	 -79.9742
| 31> H 	 -41.2194 	 -43.8508 	 -79.2785
| 32> C 	 -42.1558 	 -45.4631 	 -80.367
| 33> H 	 -43.1324 	 -45.5198 	 -79.9294
| 34> H 	 -41.9085 	 -46.5073 	 -80.4365
| 35> C 	 -42.1612 	 -44.8724 	 -81.792
| 36> H 	 -42.969 	 -45.1483 	 -82.428
| 37> H 	 -41.3481 	 -45.0339 	 -82.4071
| 38> H 	 -42.3157 	 -43.7402 	 -81.7062
| 39> H 	 -39.976 	 -51.2833 	 -80.3132
| 40> H 	 -41.7331 	 -45.3221 	 -74.822
| 41> *
| 42>
| 43>                          ****END OF INPUT****

CARTESIAN COORDINATES (ANGSTROEM)
---------------------------------
  S    -40.922000  -49.741800  -78.619700
  C    -40.117200  -50.232000  -80.069200
  C    -39.359600  -49.186100  -80.575400
  C    -39.542100  -48.001600  -79.762600
  C    -40.510900  -48.063500  -78.801600
  H    -39.137200  -47.054100  -80.061600
  C    -38.409800  -49.342100  -81.700600
  H    -37.981800  -50.389400  -81.577900
  H    -37.529700  -48.630700  -81.493300
  C    -39.070000  -49.197200  -83.074300
  H    -40.160100  -49.410500  -83.016700
  H    -38.947300  -48.159500  -83.286200
  C    -38.380500  -49.951200  -84.257100
  H    -38.856500  -49.823700  -85.174900
  H    -37.334800  -49.553900  -84.505300
  H    -38.287600  -50.996200  -84.010800
  S    -41.250400  -47.356000  -76.212100
  C    -41.359700  -45.617300  -75.768300
  C    -41.437800  -44.854000  -76.957800
  C    -41.206300  -45.649200  -78.120700
  C    -40.961900  -47.010500  -77.919000
  H    -41.658200  -43.790500  -76.964200
  C    -41.110700  -44.933000  -79.432700
  H    -40.194500  -45.069600  -79.974200
  H    -41.219400  -43.850800  -79.278500
  C    -42.155800  -45.463100  -80.367000
  H    -43.132400  -45.519800  -79.929400
  H    -41.908500  -46.507300  -80.436500
  C    -42.161200  -44.872400  -81.792000
  H    -42.969000  -45.148300  -82.428000
  H    -41.348100  -45.033900  -82.407100
  H    -42.315700  -43.740200  -81.706200
  H    -39.976000  -51.283300  -80.313200
  H    -41.733100  -45.322100  -74.822000

 Total Charge           Charge          ....    0
 Multiplicity           Mult            ....    1
 Number of Electrons    NEL             ....  134
 Basis Dimension        Dim             ....  322

ORBITAL ENERGIES
----------------

  NO   OCC          E(Eh)            E(eV)
   0   2.0000     -88.966728     -2420.9078
   1   2.0000     -88.964968     -2420.8598
   2   2.0000     -10.334428      -281.2141
   3   2.0000     -10.332423      -281.1595
   4   2.0000     -10.325877      -280.9814
   5   2.0000     -10.315045      -280.6866
   6   2.0000     -10.305838      -280.4361
   7   2.0000     -10.303558      -280.3741
   8   2.0000     -10.302987      -280.3585
   9   2.0000     -10.301981      -280.3312
  10   2.0000     -10.294537      -280.1286
  11   2.0000     -10.290363      -280.0150
  12   2.0000     -10.285610      -279.8857
  13   2.0000     -10.281868      -279.7839
  14   2.0000     -10.275151      -279.6011
  15   2.0000     -10.272923      -279.5404
  16   2.0000      -8.080583      -219.8838
  17   2.0000      -8.080495      -219.8814
  18   2.0000      -6.039229      -164.3358
  19   2.0000      -6.039030      -164.3304
  20   2.0000      -6.035177      -164.2255
  21   2.0000      -6.034861      -164.2169
  22   2.0000      -6.031270      -164.1192
  23   2.0000      -6.031214      -164.1177
  24   2.0000      -1.011133       -27.5143
  25   2.0000      -0.984978       -26.8026
  26   2.0000      -0.915156       -24.9027
  27   2.0000      -0.913157       -24.8483
  28   2.0000      -0.872578       -23.7441
  29   2.0000      -0.850006       -23.1298
  30   2.0000      -0.844844       -22.9894
  31   2.0000      -0.818913       -22.2838
  32   2.0000      -0.783011       -21.3068
  33   2.0000      -0.773577       -21.0501
  34   2.0000      -0.713806       -19.4236
  35   2.0000      -0.704121       -19.1601
  36   2.0000      -0.694126       -18.8881
  37   2.0000      -0.669858       -18.2277
  38   2.0000      -0.643807       -17.5189
  39   2.0000      -0.623284       -16.9604
  40   2.0000      -0.601614       -16.3708
  41   2.0000      -0.572812       -15.5870
  42   2.0000      -0.566252       -15.4085
  43   2.0000      -0.556801       -15.1513
  44   2.0000      -0.527290       -14.3483
  45   2.0000      -0.520382       -14.1603
  46   2.0000      -0.519248       -14.1295
  47   2.0000      -0.514772       -14.0076
  48   2.0000      -0.507280       -13.8038
  49   2.0000      -0.505283       -13.7495
  50   2.0000      -0.495449       -13.4819
  51   2.0000      -0.493008       -13.4154
  52   2.0000      -0.474799       -12.9200
  53   2.0000      -0.463323       -12.6077
  54   2.0000      -0.459182       -12.4950
  55   2.0000      -0.446814       -12.1584
  56   2.0000      -0.444075       -12.0839
  57   2.0000      -0.437417       -11.9027
  58   2.0000      -0.433623       -11.7995
  59   2.0000      -0.424950       -11.5635
  60   2.0000      -0.420317       -11.4374
  61   2.0000      -0.413127       -11.2418
  62   2.0000      -0.407143       -11.0789
  63   2.0000      -0.355099        -9.6627
  64   2.0000      -0.333597        -9.0776
  65   2.0000      -0.325584        -8.8596
  66   2.0000      -0.290714        -7.9107
  67   0.0000       0.014522         0.3952
  68   0.0000       0.068424         1.8619
  69   0.0000       0.101593         2.7645
  70   0.0000       0.114534         3.1166
  71   0.0000       0.127719         3.4754

MULLIKEN ATOMIC CHARGES
-----------------------
   0 S :    0.102137
   1 C :   -0.108652
   2 C :   -0.122974
   3 C :    0.042160
   4 C :   -0.138946
   5 H :   -0.003866
   6 C :    0.014884
   7 H :    0.031925
   8 H :    0.047861
   9 C :   -0.058834
  10 H :    0.050840
  11 H :    0.022507
  12 C :   -0.045196
  13 H :    0.025592
  14 H :    0.032114
  15 H :    0.032608
  16 S :    0.084631
  17 C :   -0.079266
  18 C :   -0.038848
  19 C :   -0.050195
  20 C :   -0.117977
  21 H :    0.032154
  22 C :    0.087876
  23 H :    0.018477
  24 H :    0.011776
  25 C :   -0.083754
  26 H :    0.020512
  27 H :    0.030711
  28 C :   -0.014500
  29 H :    0.021477
  30 H :    0.013015
  31 H :    0.022833
  32 H :    0.058594
  33 H :    0.058326
Sum of atomic charges:   -0.0000000

LOEWDIN ATOMIC CHARGES
----------------------
   0 S :    0.416395
   1 C :   -0.201144
   2 C :   -0.067198
   3 C :   -0.062649
   4 C :   -0.197741
   5 H :    0.023189
   6 C :   -0.042528
   7 H :    0.034373
   8 H :    0.041148
   9 C :   -0.041887
  10 H :    0.032130
  11 H :    0.022869
  12 C :   -0.064070
  13 H :    0.018062
  14 H :    0.033858
  15 H :    0.020730
  16 S :    0.384993
  17 C :   -0.164749
  18 C :   -0.062309
  19 C :   -0.053532
  20 C :   -0.189138
  21 H :    0.035595
  22 C :   -0.029518
  23 H :    0.025716
  24 H :    0.025996
  25 C :   -0.041369
  26 H :    0.022569
  27 H :    0.024796
  28 C :   -0.065740
  29 H :    0.024932
  30 H :    0.013010
  31 H :    0.030363
  32 H :    0.031105
  33 H :    0.021742

  Mayer bond orders larger than 0.100000
B(  0-S ,  1-C ) :   1.1524 B(  0-S ,  4-C ) :   1.1471 B(  1-C ,  2-C ) :   1.5858
B(  1-C , 32-H ) :   0.9667 B(  2-C ,  3-C ) :   1.2685 B(  2-C ,  6-C ) :   1.0261
B(  3-C ,  4-C ) :   1.5458 B(  3-C ,  5-H ) :   0.9912 B(  4-C , 20-C ) :   1.0805
B(  6-C ,  7-H ) :   0.9476 B(  6-C ,  8-H ) :   0.9445 B(  6-C ,  9-C ) :   1.0312
B(  9-C , 10-H ) :   0.9639 B(  9-C , 11-H ) :   0.9527 B(  9-C , 12-C ) :   1.0788
B( 12-C , 13-H ) :   0.9754 B( 12-C , 14-H ) :   0.9734 B( 12-C , 15-H ) :   0.9791
B( 16-S , 17-C ) :   1.1599 B( 16-S , 20-C ) :   1.1270 B( 17-C , 18-C ) :   1.5668
B( 17-C , 20-C ) :   0.1118 B( 17-C , 33-H ) :   0.9691 B( 18-C , 19-C ) :   1.2804
B( 18-C , 21-H ) :   0.9868 B( 19-C , 20-C ) :   1.5526 B( 19-C , 22-C ) :   1.0551
B( 22-C , 23-H ) :   0.9336 B( 22-C , 24-H ) :   0.9320 B( 22-C , 25-C ) :   1.0468
B( 25-C , 26-H ) :   0.9545 B( 25-C , 27-H ) :   0.9536 B( 25-C , 28-C ) :   1.0813
B( 28-C , 29-H ) :   0.9720 B( 28-C , 30-H ) :   0.9727 B( 28-C , 31-H ) :   0.9729

Dispersion correction           -0.014319622
FINAL SINGLE POINT ENERGY     -1339.863099526585

DIPOLE MOMENT
-------------
                                X             Y             Z
Electronic contribution:     -5.16045      -7.11907      30.44031
Nuclear contribution   :      5.32968       7.43585     -31.03149
                        -----------------------------------------
Total Dipole Moment    :      0.16923       0.31678      -0.59118
                        -----------------------------------------
Magnitude (a.u.)       :      0.69172
Magnitude (Debye)      :      1.75821

Rotational constants in cm-1:     0.020533     0.008528     0.006530
Rotational constants in MHz :   615.576009   255.660122   195.763529

                             ****ORCA TERMINATED NORMALLY****
TOTAL RUN TIME: 0 days 0 hours 0 minutes 22 seconds 15 msec
