                         Program Version 4.2.1 -  RELEASE  -
|  1> ! wB97X-D3 SP def2-SVP
|  2> %pal
|  3> nprocs 24
|  4> end
|  5>
|  6> * xyz 0 1
|  7> S 	 -65.7012 	 13.1042 	 -106.463
|  8> C 	 -66.3864 	 14.6646 	 -107.043
|  9> C 	 -66.191 	 15.6703 	 -106.129
| 10> C 	 -65.3675 	 15.242 	 -105.03
| 11> C 	 -64.9732 	 13.865 	 -105.076
| 12> H 	 -65.0622 	 15.7869 	 -104.12
| 13> C 	 -66.829 	 17.0248 	 -106.273
| 14> H 	 -67.1358 	 17.5506 	 -105.391
| 15> H 	 -67.7031 	 17.0104 	 -106.991
| 16> C 	 -65.8062 	 18.0855 	 -106.86
| 17> H 	 -64.9979 	 18.0876 	 -106.135
| 18> H 	 -65.4554 	 17.7744 	 -107.846
| 19> C 	 -66.5377 	 19.4481 	 -107.052
| 20> H 	 -67.012 	 19.8273 	 -106.136
| 21> H 	 -65.9184 	 20.2266 	 -107.487
| 22> H 	 -67.3511 	 19.2279 	 -107.795
| 23> S 	 -65.0651 	 11.6056 	 -103.643
| 24> C 	 -63.6978 	 11.1001 	 -102.683
| 25> C 	 -62.7104 	 12.0711 	 -102.691
| 26> C 	 -63.0237 	 13.1931 	 -103.478
| 27> C 	 -64.2364 	 13.053 	 -104.115
| 28> H 	 -61.7611 	 11.8292 	 -102.162
| 29> C 	 -62.1097 	 14.4192 	 -103.513
| 30> H 	 -62.5196 	 15.3158 	 -102.918
| 31> H 	 -62.1728 	 14.8428 	 -104.501
| 32> C 	 -60.5725 	 14.2831 	 -103.054
| 33> H 	 -60.1814 	 13.5503 	 -103.754
| 34> H 	 -60.5681 	 13.7849 	 -102.17
| 35> C 	 -59.8443 	 15.6439 	 -103.002
| 36> H 	 -59.9321 	 16.0797 	 -104.01
| 37> H 	 -58.9051 	 15.477 	 -102.498
| 38> H 	 -60.4168 	 16.2713 	 -102.331
| 39> H 	 -66.8525 	 14.7735 	 -107.987
| 40> H 	 -63.7329 	 10.1491 	 -102.207
| 41> *
| 42>
| 43>                          ****END OF INPUT****

CARTESIAN COORDINATES (ANGSTROEM)
---------------------------------
  S    -65.701200   13.104200  -106.463000
  C    -66.386400   14.664600  -107.043000
  C    -66.191000   15.670300  -106.129000
  C    -65.367500   15.242000  -105.030000
  C    -64.973200   13.865000  -105.076000
  H    -65.062200   15.786900  -104.120000
  C    -66.829000   17.024800  -106.273000
  H    -67.135800   17.550600  -105.391000
  H    -67.703100   17.010400  -106.991000
  C    -65.806200   18.085500  -106.860000
  H    -64.997900   18.087600  -106.135000
  H    -65.455400   17.774400  -107.846000
  C    -66.537700   19.448100  -107.052000
  H    -67.012000   19.827300  -106.136000
  H    -65.918400   20.226600  -107.487000
  H    -67.351100   19.227900  -107.795000
  S    -65.065100   11.605600  -103.643000
  C    -63.697800   11.100100  -102.683000
  C    -62.710400   12.071100  -102.691000
  C    -63.023700   13.193100  -103.478000
  C    -64.236400   13.053000  -104.115000
  H    -61.761100   11.829200  -102.162000
  C    -62.109700   14.419200  -103.513000
  H    -62.519600   15.315800  -102.918000
  H    -62.172800   14.842800  -104.501000
  C    -60.572500   14.283100  -103.054000
  H    -60.181400   13.550300  -103.754000
  H    -60.568100   13.784900  -102.170000
  C    -59.844300   15.643900  -103.002000
  H    -59.932100   16.079700  -104.010000
  H    -58.905100   15.477000  -102.498000
  H    -60.416800   16.271300  -102.331000
  H    -66.852500   14.773500  -107.987000
  H    -63.732900   10.149100  -102.207000

 Total Charge           Charge          ....    0
 Multiplicity           Mult            ....    1
 Number of Electrons    NEL             ....  134
 Basis Dimension        Dim             ....  322

ORBITAL ENERGIES
----------------

  NO   OCC          E(Eh)            E(eV)
   0   2.0000     -88.966137     -2420.8917
   1   2.0000     -88.964899     -2420.8580
   2   2.0000     -10.334684      -281.2210
   3   2.0000     -10.325594      -280.9737
   4   2.0000     -10.315424      -280.6970
   5   2.0000     -10.314784      -280.6795
   6   2.0000     -10.306762      -280.4612
   7   2.0000     -10.305507      -280.4271
   8   2.0000     -10.302689      -280.3504
   9   2.0000     -10.298234      -280.2292
  10   2.0000     -10.297330      -280.2046
  11   2.0000     -10.296990      -280.1954
  12   2.0000     -10.290094      -280.0077
  13   2.0000     -10.285000      -279.8691
  14   2.0000     -10.283714      -279.8341
  15   2.0000     -10.283666      -279.8328
  16   2.0000      -8.080326      -219.8768
  17   2.0000      -8.080235      -219.8744
  18   2.0000      -6.038722      -164.3220
  19   2.0000      -6.038643      -164.3198
  20   2.0000      -6.034803      -164.2153
  21   2.0000      -6.034702      -164.2126
  22   2.0000      -6.031262      -164.1190
  23   2.0000      -6.031069      -164.1137
  24   2.0000      -1.008973       -27.4555
  25   2.0000      -0.981250       -26.7012
  26   2.0000      -0.910102       -24.7651
  27   2.0000      -0.902167       -24.5492
  28   2.0000      -0.869326       -23.6556
  29   2.0000      -0.855148       -23.2698
  30   2.0000      -0.839549       -22.8453
  31   2.0000      -0.810611       -22.0578
  32   2.0000      -0.779294       -21.2057
  33   2.0000      -0.771130       -20.9835
  34   2.0000      -0.712798       -19.3962
  35   2.0000      -0.702503       -19.1161
  36   2.0000      -0.694942       -18.9103
  37   2.0000      -0.658175       -17.9099
  38   2.0000      -0.643902       -17.5215
  39   2.0000      -0.615181       -16.7399
  40   2.0000      -0.601821       -16.3764
  41   2.0000      -0.576807       -15.6957
  42   2.0000      -0.562817       -15.3150
  43   2.0000      -0.559840       -15.2340
  44   2.0000      -0.535949       -14.5839
  45   2.0000      -0.521278       -14.1847
  46   2.0000      -0.514358       -13.9964
  47   2.0000      -0.509353       -13.8602
  48   2.0000      -0.500936       -13.6312
  49   2.0000      -0.498982       -13.5780
  50   2.0000      -0.484491       -13.1837
  51   2.0000      -0.480607       -13.0780
  52   2.0000      -0.472310       -12.8522
  53   2.0000      -0.462838       -12.5945
  54   2.0000      -0.457887       -12.4598
  55   2.0000      -0.454112       -12.3570
  56   2.0000      -0.442035       -12.0284
  57   2.0000      -0.433376       -11.7928
  58   2.0000      -0.432510       -11.7692
  59   2.0000      -0.431562       -11.7434
  60   2.0000      -0.424563       -11.5529
  61   2.0000      -0.421694       -11.4749
  62   2.0000      -0.414357       -11.2752
  63   2.0000      -0.346318        -9.4238
  64   2.0000      -0.333059        -9.0630
  65   2.0000      -0.327881        -8.9221
  66   2.0000      -0.289009        -7.8643
  67   0.0000       0.026512         0.7214
  68   0.0000       0.066778         1.8171
  69   0.0000       0.108186         2.9439
  70   0.0000       0.121887         3.3167
  71   0.0000       0.128142         3.4869

MULLIKEN ATOMIC CHARGES
-----------------------
   0 S :    0.103387
   1 C :   -0.122111
   2 C :   -0.021447
   3 C :    0.024147
   4 C :   -0.168723
   5 H :    0.021858
   6 C :    0.024244
   7 H :    0.024091
   8 H :    0.030050
   9 C :   -0.086195
  10 H :    0.031143
  11 H :    0.029970
  12 C :   -0.056956
  13 H :    0.034300
  14 H :    0.042425
  15 H :    0.030781
  16 S :    0.106438
  17 C :   -0.096719
  18 C :   -0.063500
  19 C :    0.022790
  20 C :   -0.165443
  21 H :    0.039545
  22 C :   -0.002901
  23 H :    0.036941
  24 H :    0.021371
  25 C :   -0.070989
  26 H :    0.030743
  27 H :    0.009913
  28 C :   -0.009153
  29 H :    0.047308
  30 H :    0.042715
  31 H :    0.020492
  32 H :    0.038252
  33 H :    0.051236
Sum of atomic charges:   -0.0000000

LOEWDIN ATOMIC CHARGES
----------------------
   0 S :    0.393486
   1 C :   -0.175705
   2 C :   -0.060571
   3 C :   -0.069821
   4 C :   -0.196471
   5 H :    0.034435
   6 C :   -0.030963
   7 H :    0.027744
   8 H :    0.032733
   9 C :   -0.032940
  10 H :    0.018462
  11 H :    0.021258
  12 C :   -0.070981
  13 H :    0.023603
  14 H :    0.025579
  15 H :    0.030308
  16 S :    0.419328
  17 C :   -0.180835
  18 C :   -0.076859
  19 C :   -0.060377
  20 C :   -0.205012
  21 H :    0.040529
  22 C :   -0.038485
  23 H :    0.034480
  24 H :    0.025757
  25 C :   -0.032699
  26 H :    0.023996
  27 H :    0.004139
  28 C :   -0.057114
  29 H :    0.034756
  30 H :    0.031286
  31 H :    0.023790
  32 H :    0.021254
  33 H :    0.021912

  Mayer bond orders larger than 0.100000
B(  0-S ,  1-C ) :   1.1283 B(  0-S ,  4-C ) :   1.1641 B(  1-C ,  2-C ) :   1.6054
B(  1-C ,  4-C ) :   0.1036 B(  1-C , 32-H ) :   0.9749 B(  2-C ,  3-C ) :   1.2285
B(  2-C ,  6-C ) :   1.0291 B(  3-C ,  4-C ) :   1.5521 B(  3-C ,  5-H ) :   0.9896
B(  4-C , 20-C ) :   1.0367 B(  6-C ,  7-H ) :   0.9488 B(  6-C ,  8-H ) :   0.9488
B(  6-C ,  9-C ) :   1.0399 B(  9-C , 10-H ) :   0.9627 B(  9-C , 11-H ) :   0.9595
B(  9-C , 12-C ) :   1.0728 B( 12-C , 13-H ) :   0.9749 B( 12-C , 14-H ) :   0.9756
B( 12-C , 15-H ) :   0.9737 B( 16-S , 17-C ) :   1.1656 B( 16-S , 20-C ) :   1.1613
B( 17-C , 18-C ) :   1.5803 B( 17-C , 20-C ) :   0.1056 B( 17-C , 33-H ) :   0.9742
B( 18-C , 19-C ) :   1.2538 B( 18-C , 21-H ) :   0.9833 B( 19-C , 20-C ) :   1.5875
B( 19-C , 22-C ) :   1.0321 B( 22-C , 23-H ) :   0.9375 B( 22-C , 24-H ) :   0.9299
B( 22-C , 25-C ) :   1.0547 B( 25-C , 26-H ) :   0.9589 B( 25-C , 27-H ) :   0.9498
B( 25-C , 28-C ) :   1.0787 B( 28-C , 29-H ) :   0.9766 B( 28-C , 30-H ) :   0.9710
B( 28-C , 31-H ) :   0.9727

Dispersion correction           -0.013097652
FINAL SINGLE POINT ENERGY     -1339.871272520677

DIPOLE MOMENT
-------------
                                X             Y             Z
Electronic contribution:    -11.38419     -28.14799       0.08050
Nuclear contribution   :     11.64715      28.64581       0.10148
                        -----------------------------------------
Total Dipole Moment    :      0.26297       0.49783       0.18198
                        -----------------------------------------
Magnitude (a.u.)       :      0.59169
Magnitude (Debye)      :      1.50396

Rotational constants in cm-1:     0.016982     0.008028     0.005799
Rotational constants in MHz :   509.105650   240.658986   173.852190

                             ****ORCA TERMINATED NORMALLY****
TOTAL RUN TIME: 0 days 0 hours 0 minutes 20 seconds 589 msec
