                         Program Version 4.2.1 -  RELEASE  -
|  1> ! wB97X-D3 SP def2-SVP
|  2> %pal
|  3> nprocs 24
|  4> end
|  5>
|  6> * xyz 0 1
|  7> S 	 -137.974 	 8.3971 	 7.88865
|  8> C 	 -136.925 	 7.44014 	 6.89605
|  9> C 	 -135.928 	 6.86933 	 7.61688
| 10> C 	 -135.855 	 7.36103 	 8.9649
| 11> C 	 -136.859 	 8.26503 	 9.24746
| 12> H 	 -135.15 	 7.12914 	 9.72688
| 13> C 	 -134.948 	 5.79051 	 7.1554
| 14> H 	 -135.303 	 5.34583 	 6.26988
| 15> H 	 -134.83 	 5.00797 	 7.90554
| 16> C 	 -133.508 	 6.23094 	 6.95871
| 17> H 	 -133.541 	 6.97782 	 6.17388
| 18> H 	 -133.163 	 6.59668 	 7.90604
| 19> C 	 -132.614 	 5.03867 	 6.52864
| 20> H 	 -133.084 	 4.34049 	 5.76412
| 21> H 	 -131.656 	 5.26537 	 6.11042
| 22> H 	 -132.451 	 4.52107 	 7.47194
| 23> S 	 -138.3 	 8.97348 	 11.4036
| 24> C 	 -137.553 	 10.0659 	 12.5361
| 25> C 	 -136.23 	 10.3193 	 12.2504
| 26> C 	 -135.805 	 9.70251 	 11.041
| 27> C 	 -136.852 	 9.103 	 10.4104
| 28> H 	 -135.466 	 10.8454 	 12.8548
| 29> C 	 -134.37 	 9.7954 	 10.5336
| 30> H 	 -134.417 	 9.5222 	 9.47487
| 31> H 	 -133.752 	 9.04305 	 11.012
| 32> C 	 -133.767 	 11.2042 	 10.8157
| 33> H 	 -132.681 	 11.0831 	 10.5385
| 34> H 	 -133.754 	 11.389 	 11.8689
| 35> C 	 -134.334 	 12.377 	 10.1534
| 36> H 	 -133.853 	 13.285 	 10.5773
| 37> H 	 -135.416 	 12.4407 	 10.3007
| 38> H 	 -134.148 	 12.3348 	 9.11115
| 39> H 	 -137.007 	 7.17059 	 5.82969
| 40> H 	 -137.96 	 10.3048 	 13.4688
| 41> *
| 42>
| 43>                          ****END OF INPUT****

CARTESIAN COORDINATES (ANGSTROEM)
---------------------------------
  S    -137.974000    8.397100    7.888650
  C    -136.925000    7.440140    6.896050
  C    -135.928000    6.869330    7.616880
  C    -135.855000    7.361030    8.964900
  C    -136.859000    8.265030    9.247460
  H    -135.150000    7.129140    9.726880
  C    -134.948000    5.790510    7.155400
  H    -135.303000    5.345830    6.269880
  H    -134.830000    5.007970    7.905540
  C    -133.508000    6.230940    6.958710
  H    -133.541000    6.977820    6.173880
  H    -133.163000    6.596680    7.906040
  C    -132.614000    5.038670    6.528640
  H    -133.084000    4.340490    5.764120
  H    -131.656000    5.265370    6.110420
  H    -132.451000    4.521070    7.471940
  S    -138.300000    8.973480   11.403600
  C    -137.553000   10.065900   12.536100
  C    -136.230000   10.319300   12.250400
  C    -135.805000    9.702510   11.041000
  C    -136.852000    9.103000   10.410400
  H    -135.466000   10.845400   12.854800
  C    -134.370000    9.795400   10.533600
  H    -134.417000    9.522200    9.474870
  H    -133.752000    9.043050   11.012000
  C    -133.767000   11.204200   10.815700
  H    -132.681000   11.083100   10.538500
  H    -133.754000   11.389000   11.868900
  C    -134.334000   12.377000   10.153400
  H    -133.853000   13.285000   10.577300
  H    -135.416000   12.440700   10.300700
  H    -134.148000   12.334800    9.111150
  H    -137.007000    7.170590    5.829690
  H    -137.960000   10.304800   13.468800

 Total Charge           Charge          ....    0
 Multiplicity           Mult            ....    1
 Number of Electrons    NEL             ....  134
 Basis Dimension        Dim             ....  322

ORBITAL ENERGIES
----------------

  NO   OCC          E(Eh)            E(eV)
   0   2.0000     -88.965905     -2420.8853
   1   2.0000     -88.964852     -2420.8567
   2   2.0000     -10.323341      -280.9124
   3   2.0000     -10.318955      -280.7930
   4   2.0000     -10.313252      -280.6379
   5   2.0000     -10.312717      -280.6233
   6   2.0000     -10.297821      -280.2179
   7   2.0000     -10.297737      -280.2157
   8   2.0000     -10.294187      -280.1191
   9   2.0000     -10.293820      -280.1091
  10   2.0000     -10.289733      -279.9979
  11   2.0000     -10.286227      -279.9025
  12   2.0000     -10.284850      -279.8650
  13   2.0000     -10.284814      -279.8640
  14   2.0000     -10.283156      -279.8189
  15   2.0000     -10.269962      -279.4599
  16   2.0000      -8.080782      -219.8892
  17   2.0000      -8.079955      -219.8668
  18   2.0000      -6.039429      -164.3412
  19   2.0000      -6.038388      -164.3129
  20   2.0000      -6.035337      -164.2299
  21   2.0000      -6.034653      -164.2113
  22   2.0000      -6.031314      -164.1204
  23   2.0000      -6.030539      -164.0993
  24   2.0000      -1.010994       -27.5105
  25   2.0000      -0.987102       -26.8604
  26   2.0000      -0.915862       -24.9219
  27   2.0000      -0.913907       -24.8687
  28   2.0000      -0.875019       -23.8105
  29   2.0000      -0.856128       -23.2964
  30   2.0000      -0.845838       -23.0164
  31   2.0000      -0.812373       -22.1058
  32   2.0000      -0.786918       -21.4131
  33   2.0000      -0.774884       -21.0857
  34   2.0000      -0.706630       -19.2284
  35   2.0000      -0.698997       -19.0207
  36   2.0000      -0.695523       -18.9262
  37   2.0000      -0.660487       -17.9728
  38   2.0000      -0.641686       -17.4612
  39   2.0000      -0.619406       -16.8549
  40   2.0000      -0.602924       -16.4064
  41   2.0000      -0.582261       -15.8441
  42   2.0000      -0.560398       -15.2492
  43   2.0000      -0.554749       -15.0955
  44   2.0000      -0.540968       -14.7205
  45   2.0000      -0.527152       -14.3445
  46   2.0000      -0.516178       -14.0459
  47   2.0000      -0.513272       -13.9668
  48   2.0000      -0.501623       -13.6499
  49   2.0000      -0.497526       -13.5384
  50   2.0000      -0.492211       -13.3937
  51   2.0000      -0.477519       -12.9939
  52   2.0000      -0.476907       -12.9773
  53   2.0000      -0.467057       -12.7093
  54   2.0000      -0.464136       -12.6298
  55   2.0000      -0.452172       -12.3042
  56   2.0000      -0.444641       -12.0993
  57   2.0000      -0.439477       -11.9588
  58   2.0000      -0.435802       -11.8588
  59   2.0000      -0.426566       -11.6074
  60   2.0000      -0.422489       -11.4965
  61   2.0000      -0.417407       -11.3582
  62   2.0000      -0.409915       -11.1543
  63   2.0000      -0.347213        -9.4481
  64   2.0000      -0.332723        -9.0538
  65   2.0000      -0.329093        -8.9551
  66   2.0000      -0.292078        -7.9478
  67   0.0000       0.032060         0.8724
  68   0.0000       0.069205         1.8832
  69   0.0000       0.103485         2.8160
  70   0.0000       0.119624         3.2551
  71   0.0000       0.136095         3.7033

MULLIKEN ATOMIC CHARGES
-----------------------
   0 S :    0.119259
   1 C :   -0.120295
   2 C :   -0.066804
   3 C :    0.007833
   4 C :   -0.144883
   5 H :    0.007425
   6 C :    0.076780
   7 H :   -0.002244
   8 H :    0.018805
   9 C :   -0.057552
  10 H :    0.024553
  11 H :    0.022802
  12 C :   -0.062081
  13 H :    0.038777
  14 H :    0.033782
  15 H :    0.029695
  16 S :    0.103006
  17 C :   -0.040653
  18 C :   -0.048062
  19 C :   -0.077603
  20 C :   -0.162201
  21 H :    0.024814
  22 C :    0.089642
  23 H :    0.041117
  24 H :    0.035997
  25 C :   -0.112151
  26 H :    0.027756
  27 H :    0.017748
  28 C :   -0.008223
  29 H :    0.035453
  30 H :    0.040526
  31 H :    0.024377
  32 H :    0.049207
  33 H :    0.033398
Sum of atomic charges:   -0.0000000

LOEWDIN ATOMIC CHARGES
----------------------
   0 S :    0.402235
   1 C :   -0.205851
   2 C :   -0.064110
   3 C :   -0.056066
   4 C :   -0.194877
   5 H :    0.026940
   6 C :   -0.025832
   7 H :    0.017472
   8 H :    0.030188
   9 C :   -0.032573
  10 H :    0.018670
  11 H :    0.018937
  12 C :   -0.068765
  13 H :    0.031415
  14 H :    0.021896
  15 H :    0.025873
  16 S :    0.402903
  17 C :   -0.174211
  18 C :   -0.071953
  19 C :   -0.057265
  20 C :   -0.195275
  21 H :    0.035853
  22 C :   -0.027763
  23 H :    0.033926
  24 H :    0.032820
  25 C :   -0.047057
  26 H :    0.029753
  27 H :    0.015265
  28 C :   -0.061472
  29 H :    0.034202
  30 H :    0.029137
  31 H :    0.021381
  32 H :    0.037976
  33 H :    0.016231

  Mayer bond orders larger than 0.100000
B(  0-S ,  1-C ) :   1.1227 B(  0-S ,  4-C ) :   1.1355 B(  1-C ,  2-C ) :   1.6571
B(  1-C , 32-H ) :   0.9580 B(  2-C ,  3-C ) :   1.1952 B(  2-C ,  6-C ) :   1.0263
B(  3-C ,  4-C ) :   1.5866 B(  3-C ,  5-H ) :   1.0054 B(  4-C , 20-C ) :   1.0259
B(  6-C ,  7-H ) :   0.9382 B(  6-C ,  8-H ) :   0.9447 B(  6-C ,  9-C ) :   1.0608
B(  9-C , 10-H ) :   0.9570 B(  9-C , 11-H ) :   0.9606 B(  9-C , 12-C ) :   1.0710
B( 12-C , 13-H ) :   0.9758 B( 12-C , 14-H ) :   0.9767 B( 12-C , 15-H ) :   0.9760
B( 16-S , 17-C ) :   1.1488 B( 16-S , 20-C ) :   1.1384 B( 17-C , 18-C ) :   1.6070
B( 17-C , 33-H ) :   0.9713 B( 18-C , 19-C ) :   1.2403 B( 18-C , 21-H ) :   0.9813
B( 19-C , 20-C ) :   1.6343 B( 19-C , 22-C ) :   1.0236 B( 22-C , 23-H ) :   0.9345
B( 22-C , 24-H ) :   0.9262 B( 22-C , 25-C ) :   1.0721 B( 25-C , 26-H ) :   0.9475
B( 25-C , 27-H ) :   0.9516 B( 25-C , 28-C ) :   1.0950 B( 28-C , 29-H ) :   0.9676
B( 28-C , 30-H ) :   0.9680 B( 28-C , 31-H ) :   0.9714

Dispersion correction           -0.014328178
FINAL SINGLE POINT ENERGY     -1339.876802556216

DIPOLE MOMENT
-------------
                                X             Y             Z
Electronic contribution:    -28.12052       1.44640       6.69879
Nuclear contribution   :     28.94334      -1.60915      -6.62728
                        -----------------------------------------
Total Dipole Moment    :      0.82282      -0.16275       0.07151
                        -----------------------------------------
Magnitude (a.u.)       :      0.84181
Magnitude (Debye)      :      2.13971

Rotational constants in cm-1:     0.018373     0.008693     0.006863
Rotational constants in MHz :   550.813177   260.595560   205.742938

                             ****ORCA TERMINATED NORMALLY****
TOTAL RUN TIME: 0 days 0 hours 0 minutes 22 seconds 49 msec
