                         Program Version 4.2.1 -  RELEASE  -
|  1> ! wB97X-D3 SP def2-SVP
|  2> %pal
|  3> nprocs 24
|  4> end
|  5>
|  6> * xyz 0 1
|  7> S 	 -126.905 	 72.7506 	 -52.757
|  8> C 	 -126.572 	 71.5006 	 -53.9782
|  9> C 	 -125.424 	 70.791 	 -53.6628
| 10> C 	 -124.737 	 71.4085 	 -52.5379
| 11> C 	 -125.344 	 72.5292 	 -51.9784
| 12> H 	 -123.744 	 71.1618 	 -52.1755
| 13> C 	 -124.699 	 69.679 	 -54.4705
| 14> H 	 -123.92 	 69.2194 	 -53.838
| 15> H 	 -124.313 	 70.1513 	 -55.3637
| 16> C 	 -125.577 	 68.5512 	 -54.9889
| 17> H 	 -126.186 	 69.0073 	 -55.7636
| 18> H 	 -125.041 	 67.7345 	 -55.5168
| 19> C 	 -126.444 	 67.9991 	 -53.8349
| 20> H 	 -127.457 	 68.4945 	 -53.6462
| 21> H 	 -126.755 	 66.906 	 -53.8915
| 22> H 	 -126.02 	 68.1705 	 -52.8568
| 23> S 	 -125.395 	 74.86 	 -50.5775
| 24> C 	 -124.411 	 75.1168 	 -49.1508
| 25> C 	 -123.706 	 73.9771 	 -48.8213
| 26> C 	 -124.057 	 72.8704 	 -49.7319
| 27> C 	 -124.846 	 73.2289 	 -50.7715
| 28> H 	 -123.089 	 73.9563 	 -47.969
| 29> C 	 -123.509 	 71.4158 	 -49.4367
| 30> H 	 -124.162 	 70.6652 	 -49.9841
| 31> H 	 -123.611 	 71.1103 	 -48.4138
| 32> C 	 -122.048 	 71.3029 	 -49.7129
| 33> H 	 -121.461 	 72.0537 	 -49.2994
| 34> H 	 -121.853 	 71.4057 	 -50.765
| 35> C 	 -121.425 	 69.9642 	 -49.1833
| 36> H 	 -120.468 	 69.7382 	 -49.5552
| 37> H 	 -122.072 	 69.0715 	 -49.2697
| 38> H 	 -121.208 	 69.9936 	 -48.1004
| 39> H 	 -127.067 	 71.365 	 -54.911
| 40> H 	 -124.282 	 76.014 	 -48.6267
| 41> *
| 42>
| 43>                          ****END OF INPUT****

CARTESIAN COORDINATES (ANGSTROEM)
---------------------------------
  S    -126.905000   72.750600  -52.757000
  C    -126.572000   71.500600  -53.978200
  C    -125.424000   70.791000  -53.662800
  C    -124.737000   71.408500  -52.537900
  C    -125.344000   72.529200  -51.978400
  H    -123.744000   71.161800  -52.175500
  C    -124.699000   69.679000  -54.470500
  H    -123.920000   69.219400  -53.838000
  H    -124.313000   70.151300  -55.363700
  C    -125.577000   68.551200  -54.988900
  H    -126.186000   69.007300  -55.763600
  H    -125.041000   67.734500  -55.516800
  C    -126.444000   67.999100  -53.834900
  H    -127.457000   68.494500  -53.646200
  H    -126.755000   66.906000  -53.891500
  H    -126.020000   68.170500  -52.856800
  S    -125.395000   74.860000  -50.577500
  C    -124.411000   75.116800  -49.150800
  C    -123.706000   73.977100  -48.821300
  C    -124.057000   72.870400  -49.731900
  C    -124.846000   73.228900  -50.771500
  H    -123.089000   73.956300  -47.969000
  C    -123.509000   71.415800  -49.436700
  H    -124.162000   70.665200  -49.984100
  H    -123.611000   71.110300  -48.413800
  C    -122.048000   71.302900  -49.712900
  H    -121.461000   72.053700  -49.299400
  H    -121.853000   71.405700  -50.765000
  C    -121.425000   69.964200  -49.183300
  H    -120.468000   69.738200  -49.555200
  H    -122.072000   69.071500  -49.269700
  H    -121.208000   69.993600  -48.100400
  H    -127.067000   71.365000  -54.911000
  H    -124.282000   76.014000  -48.626700

 Total Charge           Charge          ....    0
 Multiplicity           Mult            ....    1
 Number of Electrons    NEL             ....  134
 Basis Dimension        Dim             ....  322

ORBITAL ENERGIES
----------------

  NO   OCC          E(Eh)            E(eV)
   0   2.0000     -88.969486     -2420.9828
   1   2.0000     -88.963853     -2420.8295
   2   2.0000     -10.335302      -281.2379
   3   2.0000     -10.329817      -281.0886
   4   2.0000     -10.318370      -280.7771
   5   2.0000     -10.317684      -280.7585
   6   2.0000     -10.310433      -280.5612
   7   2.0000     -10.309871      -280.5459
   8   2.0000     -10.298047      -280.2241
   9   2.0000     -10.298004      -280.2229
  10   2.0000     -10.296470      -280.1812
  11   2.0000     -10.295840      -280.1640
  12   2.0000     -10.291619      -280.0492
  13   2.0000     -10.281924      -279.7854
  14   2.0000     -10.281670      -279.7785
  15   2.0000     -10.278815      -279.7008
  16   2.0000      -8.083287      -219.9574
  17   2.0000      -8.079229      -219.8470
  18   2.0000      -6.042051      -164.4126
  19   2.0000      -6.037932      -164.3005
  20   2.0000      -6.037839      -164.2979
  21   2.0000      -6.033803      -164.1881
  22   2.0000      -6.033660      -164.1842
  23   2.0000      -6.029827      -164.0799
  24   2.0000      -1.006956       -27.4007
  25   2.0000      -0.982271       -26.7290
  26   2.0000      -0.912633       -24.8340
  27   2.0000      -0.910627       -24.7794
  28   2.0000      -0.870047       -23.6752
  29   2.0000      -0.847352       -23.0576
  30   2.0000      -0.837212       -22.7817
  31   2.0000      -0.814892       -22.1743
  32   2.0000      -0.781120       -21.2554
  33   2.0000      -0.777648       -21.1609
  34   2.0000      -0.709660       -19.3108
  35   2.0000      -0.706821       -19.2336
  36   2.0000      -0.696918       -18.9641
  37   2.0000      -0.671132       -18.2624
  38   2.0000      -0.637933       -17.3590
  39   2.0000      -0.612549       -16.6683
  40   2.0000      -0.596759       -16.2386
  41   2.0000      -0.574255       -15.6263
  42   2.0000      -0.563076       -15.3221
  43   2.0000      -0.559392       -15.2218
  44   2.0000      -0.542837       -14.7714
  45   2.0000      -0.528325       -14.3764
  46   2.0000      -0.517853       -14.0915
  47   2.0000      -0.510246       -13.8845
  48   2.0000      -0.500771       -13.6267
  49   2.0000      -0.495938       -13.4952
  50   2.0000      -0.492744       -13.4082
  51   2.0000      -0.473701       -12.8901
  52   2.0000      -0.472065       -12.8455
  53   2.0000      -0.466145       -12.6845
  54   2.0000      -0.456247       -12.4151
  55   2.0000      -0.452114       -12.3027
  56   2.0000      -0.449239       -12.2244
  57   2.0000      -0.438614       -11.9353
  58   2.0000      -0.431643       -11.7456
  59   2.0000      -0.426731       -11.6119
  60   2.0000      -0.418120       -11.3776
  61   2.0000      -0.411487       -11.1971
  62   2.0000      -0.407666       -11.0932
  63   2.0000      -0.358805        -9.7636
  64   2.0000      -0.331963        -9.0332
  65   2.0000      -0.328181        -8.9303
  66   2.0000      -0.293610        -7.9895
  67   0.0000       0.022963         0.6248
  68   0.0000       0.079816         2.1719
  69   0.0000       0.101435         2.7602
  70   0.0000       0.116774         3.1776
  71   0.0000       0.128180         3.4879

MULLIKEN ATOMIC CHARGES
-----------------------
   0 S :    0.105421
   1 C :   -0.114800
   2 C :   -0.082285
   3 C :   -0.026563
   4 C :   -0.080129
   5 H :    0.004969
   6 C :    0.064003
   7 H :    0.039745
   8 H :    0.043818
   9 C :   -0.065219
  10 H :    0.021962
  11 H :    0.044162
  12 C :   -0.094098
  13 H :    0.037601
  14 H :    0.041527
  15 H :    0.027686
  16 S :    0.090434
  17 C :   -0.060445
  18 C :   -0.012732
  19 C :   -0.074461
  20 C :   -0.128200
  21 H :    0.008621
  22 C :    0.041504
  23 H :    0.043434
  24 H :    0.016493
  25 C :   -0.028184
  26 H :    0.012290
  27 H :    0.019066
  28 C :   -0.056514
  29 H :    0.021214
  30 H :    0.031374
  31 H :    0.024659
  32 H :    0.043458
  33 H :    0.040186
Sum of atomic charges:   -0.0000000

LOEWDIN ATOMIC CHARGES
----------------------
   0 S :    0.389746
   1 C :   -0.186074
   2 C :   -0.055826
   3 C :   -0.067944
   4 C :   -0.188541
   5 H :    0.028113
   6 C :   -0.026732
   7 H :    0.032494
   8 H :    0.035806
   9 C :   -0.047742
  10 H :    0.020695
  11 H :    0.032393
  12 C :   -0.087207
  13 H :    0.035856
  14 H :    0.030128
  15 H :    0.021706
  16 S :    0.403094
  17 C :   -0.168550
  18 C :   -0.060040
  19 C :   -0.052112
  20 C :   -0.197698
  21 H :    0.025162
  22 C :   -0.031539
  23 H :    0.036901
  24 H :    0.026230
  25 C :   -0.036224
  26 H :    0.018517
  27 H :    0.018713
  28 C :   -0.068800
  29 H :    0.018945
  30 H :    0.026235
  31 H :    0.026821
  32 H :    0.026060
  33 H :    0.021414

  Mayer bond orders larger than 0.100000
B(  0-S ,  1-C ) :   1.1271 B(  0-S ,  4-C ) :   1.1322 B(  1-C ,  2-C ) :   1.6144
B(  1-C , 32-H ) :   0.9704 B(  2-C ,  3-C ) :   1.2338 B(  2-C ,  6-C ) :   1.0055
B(  3-C ,  4-C ) :   1.5916 B(  3-C ,  5-H ) :   0.9917 B(  4-C , 20-C ) :   1.0387
B(  6-C ,  7-H ) :   0.9492 B(  6-C ,  8-H ) :   0.9406 B(  6-C ,  9-C ) :   1.0800
B(  9-C , 10-H ) :   0.9544 B(  9-C , 11-H ) :   0.9616 B(  9-C , 12-C ) :   1.0579
B( 12-C , 13-H ) :   0.9686 B( 12-C , 14-H ) :   0.9784 B( 12-C , 15-H ) :   0.9794
B( 16-S , 17-C ) :   1.1480 B( 16-S , 20-C ) :   1.1134 B( 17-C , 18-C ) :   1.6399
B( 17-C , 33-H ) :   0.9744 B( 18-C , 19-C ) :   1.1986 B( 18-C , 21-H ) :   0.9972
B( 19-C , 20-C ) :   1.6581 B( 19-C , 22-C ) :   1.0202 B( 22-C , 23-H ) :   0.9386
B( 22-C , 24-H ) :   0.9417 B( 22-C , 25-C ) :   1.0611 B( 25-C , 26-H ) :   0.9513
B( 25-C , 27-H ) :   0.9506 B( 25-C , 28-C ) :   1.0728 B( 28-C , 29-H ) :   0.9749
B( 28-C , 30-H ) :   0.9776 B( 28-C , 31-H ) :   0.9738

Dispersion correction           -0.014270139
FINAL SINGLE POINT ENERGY     -1339.865374477552

DIPOLE MOMENT
-------------
                                X             Y             Z
Electronic contribution:    -13.67802      27.18094       0.90369
Nuclear contribution   :     14.26018     -27.61903      -0.81719
                        -----------------------------------------
Total Dipole Moment    :      0.58216      -0.43809       0.08650
                        -----------------------------------------
Magnitude (a.u.)       :      0.73370
Magnitude (Debye)      :      1.86492

Rotational constants in cm-1:     0.017879     0.009144     0.006383
Rotational constants in MHz :   535.986853   274.119213   191.359139

                             ****ORCA TERMINATED NORMALLY****
TOTAL RUN TIME: 0 days 0 hours 0 minutes 21 seconds 533 msec
