                         Program Version 4.2.1 -  RELEASE  -
|  1> ! wB97X-D3 SP def2-SVP
|  2> %pal
|  3> nprocs 24
|  4> end
|  5>
|  6> * xyz 0 1
|  7> S 	 -40.6577 	 -50.5156 	 -74.3484
|  8> C 	 -41.7976 	 -49.24 	 -74.6819
|  9> C 	 -41.4243 	 -48.0827 	 -74.0087
| 10> C 	 -40.4493 	 -48.3186 	 -73.0525
| 11> C 	 -39.9003 	 -49.5761 	 -73.1313
| 12> H 	 -40.3247 	 -47.6076 	 -72.2441
| 13> C 	 -42.1052 	 -46.7192 	 -74.1806
| 14> H 	 -42.2508 	 -46.3299 	 -73.0987
| 15> H 	 -43.0423 	 -46.8284 	 -74.731
| 16> C 	 -41.3557 	 -45.7269 	 -75.1027
| 17> H 	 -41.4018 	 -45.9979 	 -76.1827
| 18> H 	 -41.8951 	 -44.7149 	 -74.989
| 19> C 	 -39.907 	 -45.4816 	 -74.7132
| 20> H 	 -39.578 	 -45.2395 	 -73.6975
| 21> H 	 -39.2515 	 -46.3155 	 -74.8677
| 22> H 	 -39.4725 	 -44.673 	 -75.2513
| 23> S 	 -39.6561 	 -51.5527 	 -71.2197
| 24> C 	 -38.3178 	 -51.5641 	 -70.1616
| 25> C 	 -37.3453 	 -50.7584 	 -70.6971
| 26> C 	 -37.8535 	 -49.8522 	 -71.6779
| 27> C 	 -39.127 	 -50.1652 	 -72.1099
| 28> H 	 -36.3258 	 -50.7723 	 -70.2618
| 29> C 	 -36.9942 	 -48.8153 	 -72.3812
| 30> H 	 -36.1283 	 -48.7738 	 -71.7082
| 31> H 	 -37.4976 	 -47.864 	 -72.3071
| 32> C 	 -36.7202 	 -49.1519 	 -73.8533
| 33> H 	 -37.5698 	 -49.0292 	 -74.56
| 34> H 	 -36.4654 	 -50.1551 	 -73.8975
| 35> C 	 -35.4067 	 -48.4922 	 -74.4261
| 36> H 	 -35.5713 	 -47.3995 	 -74.6324
| 37> H 	 -35.1836 	 -48.9001 	 -75.3996
| 38> H 	 -34.4595 	 -48.6044 	 -73.8914
| 39> H 	 -42.6208 	 -49.2784 	 -75.4193
| 40> H 	 -38.1014 	 -52.2543 	 -69.3413
| 41> *
| 42>
| 43>                          ****END OF INPUT****

CARTESIAN COORDINATES (ANGSTROEM)
---------------------------------
  S    -40.657700  -50.515600  -74.348400
  C    -41.797600  -49.240000  -74.681900
  C    -41.424300  -48.082700  -74.008700
  C    -40.449300  -48.318600  -73.052500
  C    -39.900300  -49.576100  -73.131300
  H    -40.324700  -47.607600  -72.244100
  C    -42.105200  -46.719200  -74.180600
  H    -42.250800  -46.329900  -73.098700
  H    -43.042300  -46.828400  -74.731000
  C    -41.355700  -45.726900  -75.102700
  H    -41.401800  -45.997900  -76.182700
  H    -41.895100  -44.714900  -74.989000
  C    -39.907000  -45.481600  -74.713200
  H    -39.578000  -45.239500  -73.697500
  H    -39.251500  -46.315500  -74.867700
  H    -39.472500  -44.673000  -75.251300
  S    -39.656100  -51.552700  -71.219700
  C    -38.317800  -51.564100  -70.161600
  C    -37.345300  -50.758400  -70.697100
  C    -37.853500  -49.852200  -71.677900
  C    -39.127000  -50.165200  -72.109900
  H    -36.325800  -50.772300  -70.261800
  C    -36.994200  -48.815300  -72.381200
  H    -36.128300  -48.773800  -71.708200
  H    -37.497600  -47.864000  -72.307100
  C    -36.720200  -49.151900  -73.853300
  H    -37.569800  -49.029200  -74.560000
  H    -36.465400  -50.155100  -73.897500
  C    -35.406700  -48.492200  -74.426100
  H    -35.571300  -47.399500  -74.632400
  H    -35.183600  -48.900100  -75.399600
  H    -34.459500  -48.604400  -73.891400
  H    -42.620800  -49.278400  -75.419300
  H    -38.101400  -52.254300  -69.341300

 Total Charge           Charge          ....    0
 Multiplicity           Mult            ....    1
 Number of Electrons    NEL             ....  134
 Basis Dimension        Dim             ....  322

ORBITAL ENERGIES
----------------

  NO   OCC          E(Eh)            E(eV)
   0   2.0000     -88.969862     -2420.9930
   1   2.0000     -88.960920     -2420.7497
   2   2.0000     -10.322281      -280.8835
   3   2.0000     -10.316602      -280.7290
   4   2.0000     -10.315453      -280.6978
   5   2.0000     -10.313089      -280.6334
   6   2.0000     -10.302429      -280.3433
   7   2.0000     -10.299954      -280.2760
   8   2.0000     -10.297142      -280.1995
   9   2.0000     -10.295577      -280.1569
  10   2.0000     -10.292278      -280.0671
  11   2.0000     -10.288993      -279.9777
  12   2.0000     -10.286728      -279.9161
  13   2.0000     -10.282227      -279.7936
  14   2.0000     -10.277631      -279.6686
  15   2.0000     -10.269236      -279.4401
  16   2.0000      -8.085122      -220.0074
  17   2.0000      -8.076735      -219.7791
  18   2.0000      -6.043483      -164.4515
  19   2.0000      -6.039511      -164.3435
  20   2.0000      -6.036042      -164.2491
  21   2.0000      -6.035181      -164.2256
  22   2.0000      -6.030985      -164.1114
  23   2.0000      -6.027576      -164.0187
  24   2.0000      -1.018700       -27.7202
  25   2.0000      -0.993511       -27.0348
  26   2.0000      -0.911226       -24.7957
  27   2.0000      -0.904128       -24.6026
  28   2.0000      -0.873207       -23.7612
  29   2.0000      -0.852568       -23.1995
  30   2.0000      -0.842618       -22.9288
  31   2.0000      -0.815106       -22.1802
  32   2.0000      -0.785392       -21.3716
  33   2.0000      -0.770049       -20.9541
  34   2.0000      -0.710962       -19.3463
  35   2.0000      -0.700530       -19.0624
  36   2.0000      -0.695494       -18.9254
  37   2.0000      -0.658628       -17.9222
  38   2.0000      -0.637348       -17.3431
  39   2.0000      -0.622213       -16.9313
  40   2.0000      -0.591107       -16.0848
  41   2.0000      -0.568401       -15.4670
  42   2.0000      -0.557777       -15.1779
  43   2.0000      -0.548326       -14.9207
  44   2.0000      -0.542470       -14.7614
  45   2.0000      -0.524837       -14.2815
  46   2.0000      -0.514310       -13.9951
  47   2.0000      -0.511840       -13.9279
  48   2.0000      -0.505981       -13.7685
  49   2.0000      -0.497828       -13.5466
  50   2.0000      -0.490400       -13.3445
  51   2.0000      -0.478129       -13.0105
  52   2.0000      -0.475190       -12.9306
  53   2.0000      -0.465402       -12.6642
  54   2.0000      -0.457815       -12.4578
  55   2.0000      -0.445522       -12.1233
  56   2.0000      -0.443053       -12.0561
  57   2.0000      -0.442029       -12.0282
  58   2.0000      -0.438011       -11.9189
  59   2.0000      -0.423383       -11.5208
  60   2.0000      -0.415664       -11.3108
  61   2.0000      -0.409083       -11.1317
  62   2.0000      -0.405761       -11.0413
  63   2.0000      -0.347061        -9.4440
  64   2.0000      -0.331808        -9.0290
  65   2.0000      -0.324925        -8.8417
  66   2.0000      -0.291505        -7.9323
  67   0.0000       0.030503         0.8300
  68   0.0000       0.066744         1.8162
  69   0.0000       0.118416         3.2223
  70   0.0000       0.120474         3.2783
  71   0.0000       0.131532         3.5792

MULLIKEN ATOMIC CHARGES
-----------------------
   0 S :    0.124568
   1 C :   -0.140071
   2 C :   -0.089887
   3 C :    0.030494
   4 C :   -0.173125
   5 H :    0.020810
   6 C :    0.050299
   7 H :    0.050621
   8 H :    0.022193
   9 C :   -0.080324
  10 H :    0.045486
  11 H :    0.045365
  12 C :   -0.051558
  13 H :    0.014130
  14 H :    0.028511
  15 H :    0.019637
  16 S :    0.120469
  17 C :   -0.096619
  18 C :   -0.058242
  19 C :   -0.090800
  20 C :   -0.130637
  21 H :    0.031030
  22 C :    0.126826
  23 H :    0.012753
  24 H :    0.018481
  25 C :   -0.052884
  26 H :    0.055343
  27 H :    0.013993
  28 C :   -0.075203
  29 H :    0.030714
  30 H :    0.021923
  31 H :    0.034971
  32 H :    0.056572
  33 H :    0.064159
Sum of atomic charges:   -0.0000000

LOEWDIN ATOMIC CHARGES
----------------------
   0 S :    0.429470
   1 C :   -0.203841
   2 C :   -0.069199
   3 C :   -0.057164
   4 C :   -0.208280
   5 H :    0.034241
   6 C :   -0.034413
   7 H :    0.042163
   8 H :    0.030789
   9 C :   -0.043250
  10 H :    0.032734
  11 H :    0.035059
  12 C :   -0.082118
  13 H :    0.025146
  14 H :    0.022925
  15 H :    0.023053
  16 S :    0.431484
  17 C :   -0.203097
  18 C :   -0.082614
  19 C :   -0.059703
  20 C :   -0.213682
  21 H :    0.035057
  22 C :   -0.028920
  23 H :    0.030995
  24 H :    0.028246
  25 C :   -0.035248
  26 H :    0.034075
  27 H :    0.016185
  28 C :   -0.072268
  29 H :    0.025116
  30 H :    0.022231
  31 H :    0.024559
  32 H :    0.032981
  33 H :    0.037290

  Mayer bond orders larger than 0.100000
B(  0-S ,  1-C ) :   1.1439 B(  0-S ,  4-C ) :   1.1609 B(  1-C ,  2-C ) :   1.5890
B(  1-C , 32-H ) :   0.9646 B(  2-C ,  3-C ) :   1.2819 B(  2-C ,  6-C ) :   1.0173
B(  3-C ,  4-C ) :   1.5397 B(  3-C ,  5-H ) :   0.9870 B(  4-C , 20-C ) :   1.0639
B(  6-C ,  7-H ) :   0.9451 B(  6-C ,  8-H ) :   0.9396 B(  6-C ,  9-C ) :   1.0688
B(  9-C , 10-H ) :   0.9524 B(  9-C , 11-H ) :   0.9565 B(  9-C , 12-C ) :   1.0782
B( 12-C , 13-H ) :   0.9725 B( 12-C , 14-H ) :   0.9676 B( 12-C , 15-H ) :   0.9707
B( 16-S , 17-C ) :   1.1788 B( 16-S , 20-C ) :   1.1411 B( 17-C , 18-C ) :   1.5825
B( 17-C , 20-C ) :   0.1003 B( 17-C , 33-H ) :   0.9653 B( 18-C , 19-C ) :   1.2755
B( 18-C , 21-H ) :   0.9800 B( 19-C , 20-C ) :   1.5600 B( 19-C , 22-C ) :   1.0514
B( 22-C , 23-H ) :   0.9344 B( 22-C , 24-H ) :   0.9203 B( 22-C , 25-C ) :   1.0576
B( 25-C , 26-H ) :   0.9479 B( 25-C , 27-H ) :   0.9583 B( 25-C , 28-C ) :   1.0803
B( 28-C , 29-H ) :   0.9773 B( 28-C , 30-H ) :   0.9752 B( 28-C , 31-H ) :   0.9777

Dispersion correction           -0.015561943
FINAL SINGLE POINT ENERGY     -1339.864022321513

DIPOLE MOMENT
-------------
                                X             Y             Z
Electronic contribution:    -11.30767     -23.68240       9.97082
Nuclear contribution   :     11.46513      24.11695     -10.04853
                        -----------------------------------------
Total Dipole Moment    :      0.15746       0.43455      -0.07771
                        -----------------------------------------
Magnitude (a.u.)       :      0.46868
Magnitude (Debye)      :      1.19130

Rotational constants in cm-1:     0.018374     0.010063     0.007743
Rotational constants in MHz :   550.835980   301.688922   232.122980

                             ****ORCA TERMINATED NORMALLY****
TOTAL RUN TIME: 0 days 0 hours 0 minutes 22 seconds 766 msec
