                         Program Version 4.2.1 -  RELEASE  -
|  1> ! wB97X-D3 SP def2-SVP
|  2> %pal
|  3> nprocs 24
|  4> end
|  5>
|  6> * xyz 0 1
|  7> S 	 -129.084 	 66.3028 	 -57.8424
|  8> C 	 -128.884 	 67.5744 	 -56.6584
|  9> C 	 -129.606 	 68.682 	 -56.9439
| 10> C 	 -130.211 	 68.5692 	 -58.171
| 11> C 	 -129.895 	 67.4074 	 -58.8616
| 12> H 	 -130.829 	 69.314 	 -58.554
| 13> C 	 -129.725 	 70.0255 	 -56.1624
| 14> H 	 -129.079 	 70.0546 	 -55.3022
| 15> H 	 -130.705 	 70.0624 	 -55.6812
| 16> C 	 -129.664 	 71.3054 	 -56.9797
| 17> H 	 -128.685 	 71.4063 	 -57.5299
| 18> H 	 -130.408 	 71.3077 	 -57.7954
| 19> C 	 -129.917 	 72.5768 	 -56.1959
| 20> H 	 -129.094 	 72.6771 	 -55.4429
| 21> H 	 -129.817 	 73.4394 	 -56.8126
| 22> H 	 -130.894 	 72.5452 	 -55.732
| 23> S 	 -131.448 	 65.4258 	 -60.0267
| 24> C 	 -131.923 	 65.6551 	 -61.7139
| 25> C 	 -131.479 	 66.8939 	 -62.2292
| 26> C 	 -130.821 	 67.7071 	 -61.2044
| 27> C 	 -130.573 	 66.996 	 -60.0665
| 28> H 	 -131.804 	 67.2416 	 -63.2894
| 29> C 	 -130.329 	 69.1672 	 -61.5189
| 30> H 	 -129.513 	 69.3317 	 -60.8051
| 31> H 	 -131.125 	 69.7609 	 -61.1487
| 32> C 	 -129.792 	 69.4418 	 -63.0084
| 33> H 	 -129.709 	 70.4817 	 -63.2669
| 34> H 	 -130.575 	 69.0551 	 -63.7168
| 35> C 	 -128.54 	 68.5623 	 -63.3549
| 36> H 	 -127.739 	 68.4943 	 -62.603
| 37> H 	 -128.106 	 68.9839 	 -64.2329
| 38> H 	 -128.849 	 67.5374 	 -63.6545
| 39> H 	 -128.338 	 67.5493 	 -55.7035
| 40> H 	 -132.64 	 64.9919 	 -62.1789
| 41> *
| 42>
| 43>                          ****END OF INPUT****

CARTESIAN COORDINATES (ANGSTROEM)
---------------------------------
  S    -129.084000   66.302800  -57.842400
  C    -128.884000   67.574400  -56.658400
  C    -129.606000   68.682000  -56.943900
  C    -130.211000   68.569200  -58.171000
  C    -129.895000   67.407400  -58.861600
  H    -130.829000   69.314000  -58.554000
  C    -129.725000   70.025500  -56.162400
  H    -129.079000   70.054600  -55.302200
  H    -130.705000   70.062400  -55.681200
  C    -129.664000   71.305400  -56.979700
  H    -128.685000   71.406300  -57.529900
  H    -130.408000   71.307700  -57.795400
  C    -129.917000   72.576800  -56.195900
  H    -129.094000   72.677100  -55.442900
  H    -129.817000   73.439400  -56.812600
  H    -130.894000   72.545200  -55.732000
  S    -131.448000   65.425800  -60.026700
  C    -131.923000   65.655100  -61.713900
  C    -131.479000   66.893900  -62.229200
  C    -130.821000   67.707100  -61.204400
  C    -130.573000   66.996000  -60.066500
  H    -131.804000   67.241600  -63.289400
  C    -130.329000   69.167200  -61.518900
  H    -129.513000   69.331700  -60.805100
  H    -131.125000   69.760900  -61.148700
  C    -129.792000   69.441800  -63.008400
  H    -129.709000   70.481700  -63.266900
  H    -130.575000   69.055100  -63.716800
  C    -128.540000   68.562300  -63.354900
  H    -127.739000   68.494300  -62.603000
  H    -128.106000   68.983900  -64.232900
  H    -128.849000   67.537400  -63.654500
  H    -128.338000   67.549300  -55.703500
  H    -132.640000   64.991900  -62.178900

 Total Charge           Charge          ....    0
 Multiplicity           Mult            ....    1
 Number of Electrons    NEL             ....  134
 Basis Dimension        Dim             ....  322

ORBITAL ENERGIES
----------------

  NO   OCC          E(Eh)            E(eV)
   0   2.0000     -88.970515     -2421.0108
   1   2.0000     -88.963753     -2420.8268
   2   2.0000     -10.324579      -280.9461
   3   2.0000     -10.322552      -280.8909
   4   2.0000     -10.321127      -280.8521
   5   2.0000     -10.310501      -280.5630
   6   2.0000     -10.307410      -280.4789
   7   2.0000     -10.306354      -280.4501
   8   2.0000     -10.299076      -280.2521
   9   2.0000     -10.297415      -280.2069
  10   2.0000     -10.296243      -280.1750
  11   2.0000     -10.293513      -280.1007
  12   2.0000     -10.291569      -280.0478
  13   2.0000     -10.281407      -279.7713
  14   2.0000     -10.280385      -279.7435
  15   2.0000     -10.278377      -279.6889
  16   2.0000      -8.085771      -220.0250
  17   2.0000      -8.077683      -219.8049
  18   2.0000      -6.044159      -164.4699
  19   2.0000      -6.040343      -164.3661
  20   2.0000      -6.036492      -164.2613
  21   2.0000      -6.036306      -164.2562
  22   2.0000      -6.032475      -164.1520
  23   2.0000      -6.028198      -164.0356
  24   2.0000      -1.014072       -27.5943
  25   2.0000      -0.978613       -26.6294
  26   2.0000      -0.915508       -24.9123
  27   2.0000      -0.893420       -24.3112
  28   2.0000      -0.871723       -23.7208
  29   2.0000      -0.855835       -23.2885
  30   2.0000      -0.837809       -22.7979
  31   2.0000      -0.807451       -21.9719
  32   2.0000      -0.785993       -21.3880
  33   2.0000      -0.775024       -21.0895
  34   2.0000      -0.709265       -19.3001
  35   2.0000      -0.700140       -19.0518
  36   2.0000      -0.691511       -18.8170
  37   2.0000      -0.654209       -17.8019
  38   2.0000      -0.636597       -17.3227
  39   2.0000      -0.628406       -17.0998
  40   2.0000      -0.588990       -16.0272
  41   2.0000      -0.570815       -15.5327
  42   2.0000      -0.558564       -15.1993
  43   2.0000      -0.550102       -14.9690
  44   2.0000      -0.530712       -14.4414
  45   2.0000      -0.527358       -14.3501
  46   2.0000      -0.519934       -14.1481
  47   2.0000      -0.506386       -13.7795
  48   2.0000      -0.500138       -13.6095
  49   2.0000      -0.492004       -13.3881
  50   2.0000      -0.489482       -13.3195
  51   2.0000      -0.479824       -13.0567
  52   2.0000      -0.469439       -12.7741
  53   2.0000      -0.464295       -12.6341
  54   2.0000      -0.456814       -12.4305
  55   2.0000      -0.449395       -12.2287
  56   2.0000      -0.446286       -12.1441
  57   2.0000      -0.438786       -11.9400
  58   2.0000      -0.433937       -11.8080
  59   2.0000      -0.427978       -11.6459
  60   2.0000      -0.423495       -11.5239
  61   2.0000      -0.417529       -11.3615
  62   2.0000      -0.412198       -11.2165
  63   2.0000      -0.348326        -9.4784
  64   2.0000      -0.337444        -9.1823
  65   2.0000      -0.328792        -8.9469
  66   2.0000      -0.285875        -7.7791
  67   0.0000       0.029588         0.8051
  68   0.0000       0.068300         1.8585
  69   0.0000       0.104293         2.8380
  70   0.0000       0.124230         3.3805
  71   0.0000       0.132516         3.6060

MULLIKEN ATOMIC CHARGES
-----------------------
   0 S :    0.124019
   1 C :   -0.135184
   2 C :   -0.041400
   3 C :    0.018440
   4 C :   -0.137307
   5 H :   -0.021816
   6 C :    0.104575
   7 H :    0.006887
   8 H :    0.025625
   9 C :   -0.125318
  10 H :    0.038283
  11 H :    0.027806
  12 C :   -0.033384
  13 H :    0.032011
  14 H :    0.030192
  15 H :    0.034332
  16 S :    0.090417
  17 C :   -0.103363
  18 C :   -0.064334
  19 C :   -0.087133
  20 C :   -0.133652
  21 H :    0.058336
  22 C :    0.068983
  23 H :    0.035518
  24 H :    0.037059
  25 C :   -0.072556
  26 H :    0.036478
  27 H :    0.027951
  28 C :   -0.056357
  29 H :    0.044315
  30 H :    0.023946
  31 H :    0.043263
  32 H :    0.041074
  33 H :    0.062294
Sum of atomic charges:   -0.0000000

LOEWDIN ATOMIC CHARGES
----------------------
   0 S :    0.432227
   1 C :   -0.201418
   2 C :   -0.064984
   3 C :   -0.051406
   4 C :   -0.206602
   5 H :    0.017059
   6 C :   -0.027859
   7 H :    0.024647
   8 H :    0.035116
   9 C :   -0.050075
  10 H :    0.028852
  11 H :    0.021159
  12 C :   -0.060211
  13 H :    0.028970
  14 H :    0.024443
  15 H :    0.024082
  16 S :    0.367991
  17 C :   -0.181448
  18 C :   -0.082421
  19 C :   -0.056856
  20 C :   -0.182923
  21 H :    0.046387
  22 C :   -0.028439
  23 H :    0.030546
  24 H :    0.025962
  25 C :   -0.037857
  26 H :    0.022598
  27 H :    0.027001
  28 C :   -0.066116
  29 H :    0.027272
  30 H :    0.022307
  31 H :    0.031920
  32 H :    0.032995
  33 H :    0.027082

  Mayer bond orders larger than 0.100000
B(  0-S ,  1-C ) :   1.1396 B(  0-S ,  4-C ) :   1.1633 B(  1-C ,  2-C ) :   1.6177
B(  1-C , 32-H ) :   0.9568 B(  2-C ,  3-C ) :   1.2932 B(  2-C ,  6-C ) :   1.0064
B(  3-C ,  4-C ) :   1.5101 B(  3-C ,  5-H ) :   1.0033 B(  4-C , 20-C ) :   1.0601
B(  6-C ,  7-H ) :   0.9436 B(  6-C ,  8-H ) :   0.9290 B(  6-C ,  9-C ) :   1.0640
B(  9-C , 10-H ) :   0.9550 B(  9-C , 11-H ) :   0.9460 B(  9-C , 12-C ) :   1.0947
B( 12-C , 13-H ) :   0.9741 B( 12-C , 14-H ) :   0.9720 B( 12-C , 15-H ) :   0.9732
B( 16-S , 17-C ) :   1.1403 B( 16-S , 20-C ) :   1.1122 B( 17-C , 18-C ) :   1.6328
B( 17-C , 33-H ) :   0.9675 B( 18-C , 19-C ) :   1.2108 B( 18-C , 21-H ) :   0.9677
B( 19-C , 20-C ) :   1.6586 B( 19-C , 22-C ) :   1.0092 B( 22-C , 23-H ) :   0.9418
B( 22-C , 24-H ) :   0.9351 B( 22-C , 25-C ) :   1.0522 B( 25-C , 26-H ) :   0.9643
B( 25-C , 27-H ) :   0.9555 B( 25-C , 28-C ) :   1.0618 B( 28-C , 29-H ) :   0.9806
B( 28-C , 30-H ) :   0.9743 B( 28-C , 31-H ) :   0.9756

Dispersion correction           -0.014177629
FINAL SINGLE POINT ENERGY     -1339.865842870869

DIPOLE MOMENT
-------------
                                X             Y             Z
Electronic contribution:     -4.24234     -27.94551       4.48996
Nuclear contribution   :      4.07870      28.73097      -4.54606
                        -----------------------------------------
Total Dipole Moment    :     -0.16364       0.78546      -0.05610
                        -----------------------------------------
Magnitude (a.u.)       :      0.80428
Magnitude (Debye)      :      2.04433

Rotational constants in cm-1:     0.017340     0.008915     0.006802
Rotational constants in MHz :   519.849540   267.277306   203.904424

                             ****ORCA TERMINATED NORMALLY****
TOTAL RUN TIME: 0 days 0 hours 0 minutes 20 seconds 490 msec
