                         Program Version 4.2.1 -  RELEASE  -
|  1> ! wB97X-D3 SP def2-SVP
|  2> %pal
|  3> nprocs 24
|  4> end
|  5>
|  6> * xyz 0 1
|  7> S 	 -16.762 	 -24.6066 	 -94.3834
|  8> C 	 -15.5687 	 -25.3316 	 -93.3171
|  9> C 	 -15.4085 	 -26.7205 	 -93.5521
| 10> C 	 -16.3554 	 -27.2008 	 -94.5218
| 11> C 	 -17.1446 	 -26.1569 	 -95.0742
| 12> H 	 -16.5248 	 -28.3252 	 -94.7041
| 13> C 	 -14.4819 	 -27.6598 	 -92.855
| 14> H 	 -15.2144 	 -28.4744 	 -92.7455
| 15> H 	 -14.1699 	 -27.3366 	 -91.8582
| 16> C 	 -13.2094 	 -27.9769 	 -93.6329
| 17> H 	 -12.6662 	 -28.8461 	 -93.3101
| 18> H 	 -13.5656 	 -28.3701 	 -94.5924
| 19> C 	 -12.3089 	 -26.7839 	 -93.7779
| 20> H 	 -11.8577 	 -26.5758 	 -92.8334
| 21> H 	 -11.4431 	 -27.0781 	 -94.366
| 22> H 	 -12.8231 	 -25.9327 	 -94.3234
| 23> S 	 -19.753 	 -25.5942 	 -95.7915
| 24> C 	 -20.3892 	 -26.3493 	 -97.2224
| 25> C 	 -19.4192 	 -27.0341 	 -97.9276
| 26> C 	 -18.136 	 -27.0327 	 -97.2454
| 27> C 	 -18.1502 	 -26.3889 	 -96.06
| 28> H 	 -19.6824 	 -27.5446 	 -98.8373
| 29> C 	 -16.9665 	 -27.7298 	 -97.8625
| 30> H 	 -17.3432 	 -28.7533 	 -98.035
| 31> H 	 -16.1608 	 -27.7774 	 -97.0728
| 32> C 	 -16.3824 	 -27.0113 	 -99.162
| 33> H 	 -17.1031 	 -26.849 	 -99.9481
| 34> H 	 -15.7053 	 -27.6482 	 -99.7335
| 35> C 	 -15.8117 	 -25.6369 	 -98.8074
| 36> H 	 -15.3662 	 -25.3696 	 -99.7289
| 37> H 	 -15.1236 	 -25.6847 	 -98.0168
| 38> H 	 -16.632 	 -24.9549 	 -98.5566
| 39> H 	 -14.8965 	 -24.7531 	 -92.695
| 40> H 	 -21.4691 	 -26.3833 	 -97.4691
| 41> *
| 42>
| 43>                          ****END OF INPUT****

CARTESIAN COORDINATES (ANGSTROEM)
---------------------------------
  S    -16.762000  -24.606600  -94.383400
  C    -15.568700  -25.331600  -93.317100
  C    -15.408500  -26.720500  -93.552100
  C    -16.355400  -27.200800  -94.521800
  C    -17.144600  -26.156900  -95.074200
  H    -16.524800  -28.325200  -94.704100
  C    -14.481900  -27.659800  -92.855000
  H    -15.214400  -28.474400  -92.745500
  H    -14.169900  -27.336600  -91.858200
  C    -13.209400  -27.976900  -93.632900
  H    -12.666200  -28.846100  -93.310100
  H    -13.565600  -28.370100  -94.592400
  C    -12.308900  -26.783900  -93.777900
  H    -11.857700  -26.575800  -92.833400
  H    -11.443100  -27.078100  -94.366000
  H    -12.823100  -25.932700  -94.323400
  S    -19.753000  -25.594200  -95.791500
  C    -20.389200  -26.349300  -97.222400
  C    -19.419200  -27.034100  -97.927600
  C    -18.136000  -27.032700  -97.245400
  C    -18.150200  -26.388900  -96.060000
  H    -19.682400  -27.544600  -98.837300
  C    -16.966500  -27.729800  -97.862500
  H    -17.343200  -28.753300  -98.035000
  H    -16.160800  -27.777400  -97.072800
  C    -16.382400  -27.011300  -99.162000
  H    -17.103100  -26.849000  -99.948100
  H    -15.705300  -27.648200  -99.733500
  C    -15.811700  -25.636900  -98.807400
  H    -15.366200  -25.369600  -99.728900
  H    -15.123600  -25.684700  -98.016800
  H    -16.632000  -24.954900  -98.556600
  H    -14.896500  -24.753100  -92.695000
  H    -21.469100  -26.383300  -97.469100

 Total Charge           Charge          ....    0
 Multiplicity           Mult            ....    1
 Number of Electrons    NEL             ....  134
 Basis Dimension        Dim             ....  322

ORBITAL ENERGIES
----------------

  NO   OCC          E(Eh)            E(eV)
   0   2.0000     -88.972979     -2421.0778
   1   2.0000     -88.959923     -2420.7226
   2   2.0000     -10.332300      -281.1562
   3   2.0000     -10.323246      -280.9098
   4   2.0000     -10.320403      -280.8324
   5   2.0000     -10.316693      -280.7315
   6   2.0000     -10.304905      -280.4107
   7   2.0000     -10.304234      -280.3925
   8   2.0000     -10.301093      -280.3070
   9   2.0000     -10.295686      -280.1599
  10   2.0000     -10.293965      -280.1130
  11   2.0000     -10.291285      -280.0401
  12   2.0000     -10.286651      -279.9140
  13   2.0000     -10.283091      -279.8171
  14   2.0000     -10.277422      -279.6629
  15   2.0000     -10.265323      -279.3336
  16   2.0000      -8.087211      -220.0642
  17   2.0000      -8.074618      -219.7215
  18   2.0000      -6.045700      -164.5118
  19   2.0000      -6.041722      -164.4036
  20   2.0000      -6.038110      -164.3053
  21   2.0000      -6.033226      -164.1724
  22   2.0000      -6.029261      -164.0645
  23   2.0000      -6.025146      -163.9525
  24   2.0000      -1.004573       -27.3358
  25   2.0000      -0.979915       -26.6648
  26   2.0000      -0.919226       -25.0134
  27   2.0000      -0.903504       -24.5856
  28   2.0000      -0.869771       -23.6677
  29   2.0000      -0.854850       -23.2617
  30   2.0000      -0.846028       -23.0216
  31   2.0000      -0.806909       -21.9571
  32   2.0000      -0.782209       -21.2850
  33   2.0000      -0.771271       -20.9874
  34   2.0000      -0.709016       -19.2933
  35   2.0000      -0.700300       -19.0561
  36   2.0000      -0.695650       -18.9296
  37   2.0000      -0.660054       -17.9610
  38   2.0000      -0.632785       -17.2190
  39   2.0000      -0.619466       -16.8565
  40   2.0000      -0.588713       -16.0197
  41   2.0000      -0.569745       -15.5036
  42   2.0000      -0.557991       -15.1837
  43   2.0000      -0.555757       -15.1229
  44   2.0000      -0.541938       -14.7469
  45   2.0000      -0.531721       -14.4689
  46   2.0000      -0.519395       -14.1335
  47   2.0000      -0.510107       -13.8807
  48   2.0000      -0.500666       -13.6238
  49   2.0000      -0.494424       -13.4540
  50   2.0000      -0.489333       -13.3154
  51   2.0000      -0.477302       -12.9881
  52   2.0000      -0.465919       -12.6783
  53   2.0000      -0.462397       -12.5825
  54   2.0000      -0.460239       -12.5237
  55   2.0000      -0.451608       -12.2889
  56   2.0000      -0.445121       -12.1124
  57   2.0000      -0.439458       -11.9583
  58   2.0000      -0.426022       -11.5926
  59   2.0000      -0.425091       -11.5673
  60   2.0000      -0.418078       -11.3765
  61   2.0000      -0.414515       -11.2795
  62   2.0000      -0.410352       -11.1662
  63   2.0000      -0.349821        -9.5191
  64   2.0000      -0.332002        -9.0342
  65   2.0000      -0.326645        -8.8885
  66   2.0000      -0.287038        -7.8107
  67   0.0000       0.028010         0.7622
  68   0.0000       0.067399         1.8340
  69   0.0000       0.108776         2.9600
  70   0.0000       0.114070         3.1040
  71   0.0000       0.128129         3.4866

MULLIKEN ATOMIC CHARGES
-----------------------
   0 S :    0.127924
   1 C :   -0.118646
   2 C :   -0.113686
   3 C :   -0.018271
   4 C :   -0.153090
   5 H :    0.057313
   6 C :    0.064249
   7 H :    0.032358
   8 H :    0.019376
   9 C :   -0.050164
  10 H :    0.021464
  11 H :    0.006971
  12 C :   -0.042090
  13 H :    0.021249
  14 H :    0.026293
  15 H :    0.061895
  16 S :    0.082975
  17 C :   -0.097555
  18 C :   -0.029755
  19 C :   -0.043509
  20 C :   -0.154466
  21 H :    0.016308
  22 C :    0.047925
  23 H :    0.035532
  24 H :    0.030875
  25 C :   -0.077504
  26 H :    0.014916
  27 H :    0.023218
  28 C :   -0.013072
  29 H :    0.022880
  30 H :    0.027323
  31 H :    0.048803
  32 H :    0.048805
  33 H :    0.073154
Sum of atomic charges:   -0.0000000

LOEWDIN ATOMIC CHARGES
----------------------
   0 S :    0.417960
   1 C :   -0.205775
   2 C :   -0.059120
   3 C :   -0.075696
   4 C :   -0.199838
   5 H :    0.047771
   6 C :   -0.035017
   7 H :    0.037492
   8 H :    0.027035
   9 C :   -0.044870
  10 H :    0.022526
  11 H :    0.020451
  12 C :   -0.066573
  13 H :    0.021575
  14 H :    0.028362
  15 H :    0.038719
  16 S :    0.368200
  17 C :   -0.182430
  18 C :   -0.071179
  19 C :   -0.055968
  20 C :   -0.182649
  21 H :    0.030001
  22 C :   -0.035667
  23 H :    0.033017
  24 H :    0.032782
  25 C :   -0.038007
  26 H :    0.019580
  27 H :    0.021700
  28 C :   -0.051243
  29 H :    0.023675
  30 H :    0.017250
  31 H :    0.032348
  32 H :    0.025594
  33 H :    0.037994

  Mayer bond orders larger than 0.100000
B(  0-S ,  1-C ) :   1.1316 B(  0-S ,  4-C ) :   1.1667 B(  1-C ,  2-C ) :   1.5822
B(  1-C ,  4-C ) :   0.1010 B(  1-C , 32-H ) :   0.9680 B(  2-C ,  3-C ) :   1.2702
B(  2-C ,  6-C ) :   1.0108 B(  3-C ,  4-C ) :   1.5358 B(  3-C ,  5-H ) :   0.9679
B(  4-C , 20-C ) :   1.0736 B(  6-C ,  7-H ) :   0.9399 B(  6-C ,  8-H ) :   0.9466
B(  6-C ,  9-C ) :   1.0624 B(  9-C , 10-H ) :   0.9536 B(  9-C , 11-H ) :   0.9497
B(  9-C , 12-C ) :   1.0856 B( 12-C , 13-H ) :   0.9710 B( 12-C , 14-H ) :   0.9677
B( 12-C , 15-H ) :   0.9702 B( 16-S , 17-C ) :   1.1467 B( 16-S , 20-C ) :   1.0931
B( 17-C , 18-C ) :   1.6406 B( 17-C , 33-H ) :   0.9612 B( 18-C , 19-C ) :   1.1835
B( 18-C , 21-H ) :   0.9943 B( 19-C , 20-C ) :   1.6446 B( 19-C , 22-C ) :   1.0402
B( 22-C , 23-H ) :   0.9322 B( 22-C , 24-H ) :   0.9381 B( 22-C , 25-C ) :   1.0562
B( 25-C , 26-H ) :   0.9579 B( 25-C , 27-H ) :   0.9612 B( 25-C , 28-C ) :   1.0625
B( 28-C , 29-H ) :   0.9718 B( 28-C , 30-H ) :   0.9808 B( 28-C , 31-H ) :   0.9753

Dispersion correction           -0.015432132
FINAL SINGLE POINT ENERGY     -1339.877194478402

DIPOLE MOMENT
-------------
                                X             Y             Z
Electronic contribution:    -23.00503      10.73962       6.83458
Nuclear contribution   :     23.41055     -11.27841      -7.11114
                        -----------------------------------------
Total Dipole Moment    :      0.40552      -0.53879      -0.27656
                        -----------------------------------------
Magnitude (a.u.)       :      0.72885
Magnitude (Debye)      :      1.85259

Rotational constants in cm-1:     0.020838     0.009025     0.007451
Rotational constants in MHz :   624.714979   270.556028   223.364230

                             ****ORCA TERMINATED NORMALLY****
TOTAL RUN TIME: 0 days 0 hours 0 minutes 22 seconds 522 msec
