                         Program Version 4.2.1 -  RELEASE  -
|  1> ! wB97X-D3 SP def2-SVP
|  2> %pal
|  3> nprocs 24
|  4> end
|  5>
|  6> * xyz 0 1
|  7> S 	 14.8632 	 -13.0577 	 -122.034
|  8> C 	 14.8468 	 -12.0285 	 -123.377
|  9> C 	 14.8697 	 -10.6646 	 -122.956
| 10> C 	 15.0161 	 -10.4997 	 -121.5
| 11> C 	 15.1371 	 -11.7604 	 -120.869
| 12> H 	 15.0661 	 -9.59275 	 -120.852
| 13> C 	 14.7668 	 -9.44349 	 -123.871
| 14> H 	 15.686 	 -9.41607 	 -124.465
| 15> H 	 14.6599 	 -8.50685 	 -123.291
| 16> C 	 13.6012 	 -9.4527 	 -124.802
| 17> H 	 13.7353 	 -10.3987 	 -125.347
| 18> H 	 12.6505 	 -9.42411 	 -124.306
| 19> C 	 13.6546 	 -8.17988 	 -125.694
| 20> H 	 13.4638 	 -7.21283 	 -125.257
| 21> H 	 14.5937 	 -8.15511 	 -126.343
| 22> H 	 12.8612 	 -8.46993 	 -126.401
| 23> S 	 14.2706 	 -12.9133 	 -118.561
| 24> C 	 15.1298 	 -12.7462 	 -117.074
| 25> C 	 16.2442 	 -11.8951 	 -117.256
| 26> C 	 16.517 	 -11.5404 	 -118.59
| 27> C 	 15.5082 	 -11.9782 	 -119.44
| 28> H 	 16.764 	 -11.4663 	 -116.506
| 29> C 	 17.6751 	 -10.6187 	 -118.841
| 30> H 	 17.9451 	 -9.98695 	 -118.013
| 31> H 	 17.2702 	 -9.97192 	 -119.611
| 32> C 	 18.9596 	 -11.1604 	 -119.373
| 33> H 	 19.7221 	 -10.3478 	 -119.536
| 34> H 	 18.7547 	 -11.6316 	 -120.376
| 35> C 	 19.5332 	 -12.1085 	 -118.363
| 36> H 	 20.1332 	 -11.594 	 -117.506
| 37> H 	 20.2668 	 -12.7949 	 -118.786
| 38> H 	 18.7926 	 -12.7413 	 -117.929
| 39> H 	 14.8371 	 -12.3488 	 -124.374
| 40> H 	 14.6935 	 -13.0387 	 -116.151
| 41> *
| 42>
| 43>                          ****END OF INPUT****

CARTESIAN COORDINATES (ANGSTROEM)
---------------------------------
  S     14.863200  -13.057700  -122.034000
  C     14.846800  -12.028500  -123.377000
  C     14.869700  -10.664600  -122.956000
  C     15.016100  -10.499700  -121.500000
  C     15.137100  -11.760400  -120.869000
  H     15.066100   -9.592750  -120.852000
  C     14.766800   -9.443490  -123.871000
  H     15.686000   -9.416070  -124.465000
  H     14.659900   -8.506850  -123.291000
  C     13.601200   -9.452700  -124.802000
  H     13.735300  -10.398700  -125.347000
  H     12.650500   -9.424110  -124.306000
  C     13.654600   -8.179880  -125.694000
  H     13.463800   -7.212830  -125.257000
  H     14.593700   -8.155110  -126.343000
  H     12.861200   -8.469930  -126.401000
  S     14.270600  -12.913300  -118.561000
  C     15.129800  -12.746200  -117.074000
  C     16.244200  -11.895100  -117.256000
  C     16.517000  -11.540400  -118.590000
  C     15.508200  -11.978200  -119.440000
  H     16.764000  -11.466300  -116.506000
  C     17.675100  -10.618700  -118.841000
  H     17.945100   -9.986950  -118.013000
  H     17.270200   -9.971920  -119.611000
  C     18.959600  -11.160400  -119.373000
  H     19.722100  -10.347800  -119.536000
  H     18.754700  -11.631600  -120.376000
  C     19.533200  -12.108500  -118.363000
  H     20.133200  -11.594000  -117.506000
  H     20.266800  -12.794900  -118.786000
  H     18.792600  -12.741300  -117.929000
  H     14.837100  -12.348800  -124.374000
  H     14.693500  -13.038700  -116.151000

 Total Charge           Charge          ....    0
 Multiplicity           Mult            ....    1
 Number of Electrons    NEL             ....  134
 Basis Dimension        Dim             ....  322

ORBITAL ENERGIES
----------------

  NO   OCC          E(Eh)            E(eV)
   0   2.0000     -88.968358     -2420.9521
   1   2.0000     -88.965987     -2420.8876
   2   2.0000     -10.334556      -281.2176
   3   2.0000     -10.333544      -281.1900
   4   2.0000     -10.317418      -280.7512
   5   2.0000     -10.314088      -280.6606
   6   2.0000     -10.310080      -280.5516
   7   2.0000     -10.305258      -280.4203
   8   2.0000     -10.304019      -280.3866
   9   2.0000     -10.287638      -279.9409
  10   2.0000     -10.286475      -279.9092
  11   2.0000     -10.286204      -279.9018
  12   2.0000     -10.284472      -279.8547
  13   2.0000     -10.284450      -279.8541
  14   2.0000     -10.284275      -279.8493
  15   2.0000     -10.273156      -279.5468
  16   2.0000      -8.083531      -219.9640
  17   2.0000      -8.080755      -219.8885
  18   2.0000      -6.041999      -164.4112
  19   2.0000      -6.039121      -164.3328
  20   2.0000      -6.037769      -164.2961
  21   2.0000      -6.035170      -164.2253
  22   2.0000      -6.034512      -164.2074
  23   2.0000      -6.031754      -164.1324
  24   2.0000      -1.002830       -27.2884
  25   2.0000      -0.983115       -26.7519
  26   2.0000      -0.919335       -25.0164
  27   2.0000      -0.914928       -24.8965
  28   2.0000      -0.864850       -23.5338
  29   2.0000      -0.853662       -23.2293
  30   2.0000      -0.844965       -22.9927
  31   2.0000      -0.808373       -21.9970
  32   2.0000      -0.783057       -21.3081
  33   2.0000      -0.768082       -20.9006
  34   2.0000      -0.703673       -19.1479
  35   2.0000      -0.696353       -18.9487
  36   2.0000      -0.682164       -18.5626
  37   2.0000      -0.674600       -18.3568
  38   2.0000      -0.647309       -17.6142
  39   2.0000      -0.608176       -16.5493
  40   2.0000      -0.596077       -16.2201
  41   2.0000      -0.577810       -15.7230
  42   2.0000      -0.566289       -15.4095
  43   2.0000      -0.559329       -15.2201
  44   2.0000      -0.553209       -15.0536
  45   2.0000      -0.522843       -14.2273
  46   2.0000      -0.513501       -13.9731
  47   2.0000      -0.509857       -13.8739
  48   2.0000      -0.502508       -13.6739
  49   2.0000      -0.496794       -13.5185
  50   2.0000      -0.487572       -13.2675
  51   2.0000      -0.485174       -13.2023
  52   2.0000      -0.477769       -13.0007
  53   2.0000      -0.468834       -12.7576
  54   2.0000      -0.455128       -12.3847
  55   2.0000      -0.447997       -12.1906
  56   2.0000      -0.439361       -11.9556
  57   2.0000      -0.436376       -11.8744
  58   2.0000      -0.431291       -11.7360
  59   2.0000      -0.421005       -11.4561
  60   2.0000      -0.419231       -11.4079
  61   2.0000      -0.410546       -11.1715
  62   2.0000      -0.402921       -10.9640
  63   2.0000      -0.342447        -9.3185
  64   2.0000      -0.333585        -9.0773
  65   2.0000      -0.324724        -8.8362
  66   2.0000      -0.290723        -7.9110
  67   0.0000       0.030402         0.8273
  68   0.0000       0.056885         1.5479
  69   0.0000       0.104280         2.8376
  70   0.0000       0.124552         3.3892
  71   0.0000       0.129941         3.5359

MULLIKEN ATOMIC CHARGES
-----------------------
   0 S :    0.131797
   1 C :   -0.102733
   2 C :   -0.100070
   3 C :    0.028221
   4 C :   -0.164582
   5 H :    0.043662
   6 C :    0.062110
   7 H :    0.035885
   8 H :    0.018781
   9 C :   -0.092191
  10 H :    0.025809
  11 H :    0.034041
  12 C :   -0.068189
  13 H :    0.048624
  14 H :    0.035027
  15 H :    0.034665
  16 S :    0.101601
  17 C :   -0.072201
  18 C :   -0.006481
  19 C :   -0.029164
  20 C :   -0.182269
  21 H :   -0.024372
  22 C :    0.087006
  23 H :    0.018459
  24 H :    0.008319
  25 C :   -0.064149
  26 H :    0.038435
  27 H :    0.043362
  28 C :   -0.078061
  29 H :    0.034363
  30 H :    0.028412
  31 H :    0.034156
  32 H :    0.038417
  33 H :    0.053312
Sum of atomic charges:   -0.0000000

LOEWDIN ATOMIC CHARGES
----------------------
   0 S :    0.432691
   1 C :   -0.217521
   2 C :   -0.057067
   3 C :   -0.067070
   4 C :   -0.206276
   5 H :    0.042497
   6 C :   -0.041363
   7 H :    0.032906
   8 H :    0.029084
   9 C :   -0.038575
  10 H :    0.023413
  11 H :    0.024389
  12 C :   -0.071506
  13 H :    0.024426
  14 H :    0.030328
  15 H :    0.031763
  16 S :    0.412648
  17 C :   -0.187070
  18 C :   -0.055531
  19 C :   -0.054579
  20 C :   -0.185811
  21 H :    0.009938
  22 C :   -0.033612
  23 H :    0.029702
  24 H :    0.030438
  25 C :   -0.044983
  26 H :    0.031939
  27 H :    0.031653
  28 C :   -0.076501
  29 H :    0.033402
  30 H :    0.024782
  31 H :    0.020488
  32 H :    0.019167
  33 H :    0.021811

  Mayer bond orders larger than 0.100000
B(  0-S ,  1-C ) :   1.1593 B(  0-S ,  4-C ) :   1.1712 B(  1-C ,  2-C ) :   1.5610
B(  1-C ,  4-C ) :   0.1008 B(  1-C , 32-H ) :   0.9795 B(  2-C ,  3-C ) :   1.2549
B(  2-C ,  6-C ) :   1.0170 B(  3-C ,  4-C ) :   1.5534 B(  3-C ,  5-H ) :   0.9824
B(  4-C , 20-C ) :   1.0034 B(  6-C ,  7-H ) :   0.9385 B(  6-C ,  8-H ) :   0.9486
B(  6-C ,  9-C ) :   1.0712 B(  9-C , 10-H ) :   0.9551 B(  9-C , 11-H ) :   0.9570
B(  9-C , 12-C ) :   1.0753 B( 12-C , 13-H ) :   0.9761 B( 12-C , 14-H ) :   0.9733
B( 12-C , 15-H ) :   0.9753 B( 16-S , 17-C ) :   1.1746 B( 16-S , 20-C ) :   1.1656
B( 17-C , 18-C ) :   1.5512 B( 17-C , 20-C ) :   0.1112 B( 17-C , 33-H ) :   0.9747
B( 18-C , 19-C ) :   1.2637 B( 18-C , 21-H ) :   1.0031 B( 19-C , 20-C ) :   1.5880
B( 19-C , 22-C ) :   1.0273 B( 22-C , 23-H ) :   0.9371 B( 22-C , 24-H ) :   0.9214
B( 22-C , 25-C ) :   1.0899 B( 25-C , 26-H ) :   0.9522 B( 25-C , 27-H ) :   0.9533
B( 25-C , 28-C ) :   1.0724 B( 28-C , 29-H ) :   0.9716 B( 28-C , 30-H ) :   0.9716
B( 28-C , 31-H ) :   0.9753

Dispersion correction           -0.013765508
FINAL SINGLE POINT ENERGY     -1339.855460813879

DIPOLE MOMENT
-------------
                                X             Y             Z
Electronic contribution:    -11.54477     -17.62432      10.70144
Nuclear contribution   :     11.70024      18.22171     -10.81397
                        -----------------------------------------
Total Dipole Moment    :      0.15547       0.59739      -0.11253
                        -----------------------------------------
Magnitude (a.u.)       :      0.62746
Magnitude (Debye)      :      1.59488

Rotational constants in cm-1:     0.022212     0.007108     0.006209
Rotational constants in MHz :   665.893009   213.083521   186.132533

                             ****ORCA TERMINATED NORMALLY****
TOTAL RUN TIME: 0 days 0 hours 0 minutes 21 seconds 239 msec
