                         Program Version 4.2.1 -  RELEASE  -
|  1> ! wB97X-D3 SP def2-SVP
|  2> %pal
|  3> nprocs 24
|  4> end
|  5>
|  6> * xyz 0 1
|  7> S 	 36.9686 	 -7.89369 	 -116.899
|  8> C 	 38.2729 	 -9.13527 	 -116.858
|  9> C 	 39.1036 	 -8.89428 	 -115.753
| 10> C 	 38.7172 	 -7.72278 	 -115.032
| 11> C 	 37.5893 	 -7.06521 	 -115.495
| 12> H 	 39.1506 	 -7.22339 	 -114.099
| 13> C 	 40.1953 	 -9.71137 	 -115.197
| 14> H 	 39.8861 	 -10.7473 	 -115.401
| 15> H 	 40.2016 	 -9.64407 	 -114.051
| 16> C 	 41.6243 	 -9.45565 	 -115.542
| 17> H 	 41.6296 	 -9.52743 	 -116.601
| 18> H 	 41.9008 	 -8.51302 	 -115.257
| 19> C 	 42.6731 	 -10.4576 	 -115.033
| 20> H 	 42.649 	 -10.7309 	 -113.972
| 21> H 	 42.5242 	 -11.407 	 -115.61
| 22> H 	 43.662 	 -10.1451 	 -115.433
| 23> S 	 36.1441 	 -4.5815 	 -115.604
| 24> C 	 35.7566 	 -3.84287 	 -114.104
| 25> C 	 35.7962 	 -4.77536 	 -113.044
| 26> C 	 36.5008 	 -5.94 	 -113.437
| 27> C 	 36.7969 	 -6.02172 	 -114.814
| 28> H 	 35.4449 	 -4.37767 	 -112.053
| 29> C 	 36.8829 	 -6.89432 	 -112.39
| 30> H 	 36.9057 	 -6.47455 	 -111.366
| 31> H 	 37.8298 	 -7.26604 	 -112.607
| 32> C 	 35.8827 	 -8.04356 	 -112.191
| 33> H 	 36.2154 	 -8.7955 	 -111.516
| 34> H 	 35.6448 	 -8.63661 	 -113.12
| 35> C 	 34.4183 	 -7.69657 	 -111.822
| 36> H 	 34.5216 	 -7.2271 	 -110.88
| 37> H 	 33.746 	 -8.48966 	 -111.745
| 38> H 	 33.9721 	 -6.8661 	 -112.472
| 39> H 	 38.3541 	 -10.064 	 -117.436
| 40> H 	 35.1563 	 -2.91824 	 -114.148
| 41> *
| 42>
| 43>                          ****END OF INPUT****

CARTESIAN COORDINATES (ANGSTROEM)
---------------------------------
  S     36.968600   -7.893690  -116.899000
  C     38.272900   -9.135270  -116.858000
  C     39.103600   -8.894280  -115.753000
  C     38.717200   -7.722780  -115.032000
  C     37.589300   -7.065210  -115.495000
  H     39.150600   -7.223390  -114.099000
  C     40.195300   -9.711370  -115.197000
  H     39.886100  -10.747300  -115.401000
  H     40.201600   -9.644070  -114.051000
  C     41.624300   -9.455650  -115.542000
  H     41.629600   -9.527430  -116.601000
  H     41.900800   -8.513020  -115.257000
  C     42.673100  -10.457600  -115.033000
  H     42.649000  -10.730900  -113.972000
  H     42.524200  -11.407000  -115.610000
  H     43.662000  -10.145100  -115.433000
  S     36.144100   -4.581500  -115.604000
  C     35.756600   -3.842870  -114.104000
  C     35.796200   -4.775360  -113.044000
  C     36.500800   -5.940000  -113.437000
  C     36.796900   -6.021720  -114.814000
  H     35.444900   -4.377670  -112.053000
  C     36.882900   -6.894320  -112.390000
  H     36.905700   -6.474550  -111.366000
  H     37.829800   -7.266040  -112.607000
  C     35.882700   -8.043560  -112.191000
  H     36.215400   -8.795500  -111.516000
  H     35.644800   -8.636610  -113.120000
  C     34.418300   -7.696570  -111.822000
  H     34.521600   -7.227100  -110.880000
  H     33.746000   -8.489660  -111.745000
  H     33.972100   -6.866100  -112.472000
  H     38.354100  -10.064000  -117.436000
  H     35.156300   -2.918240  -114.148000

 Total Charge           Charge          ....    0
 Multiplicity           Mult            ....    1
 Number of Electrons    NEL             ....  134
 Basis Dimension        Dim             ....  322

ORBITAL ENERGIES
----------------

  NO   OCC          E(Eh)            E(eV)
   0   2.0000     -88.969141     -2420.9734
   1   2.0000     -88.968053     -2420.9438
   2   2.0000     -10.334244      -281.2091
   3   2.0000     -10.332838      -281.1708
   4   2.0000     -10.324581      -280.9461
   5   2.0000     -10.321988      -280.8756
   6   2.0000     -10.307454      -280.4801
   7   2.0000     -10.306327      -280.4494
   8   2.0000     -10.303423      -280.3704
   9   2.0000     -10.298724      -280.2425
  10   2.0000     -10.292914      -280.0844
  11   2.0000     -10.287189      -279.9286
  12   2.0000     -10.286068      -279.8981
  13   2.0000     -10.282321      -279.7962
  14   2.0000     -10.275600      -279.6133
  15   2.0000     -10.269867      -279.4573
  16   2.0000      -8.084155      -219.9810
  17   2.0000      -8.081949      -219.9210
  18   2.0000      -6.042531      -164.4256
  19   2.0000      -6.040640      -164.3742
  20   2.0000      -6.038529      -164.3167
  21   2.0000      -6.036439      -164.2598
  22   2.0000      -6.035136      -164.2244
  23   2.0000      -6.032686      -164.1577
  24   2.0000      -1.006238       -27.3811
  25   2.0000      -0.984501       -26.7896
  26   2.0000      -0.919948       -25.0331
  27   2.0000      -0.914029       -24.8720
  28   2.0000      -0.869256       -23.6537
  29   2.0000      -0.852243       -23.1907
  30   2.0000      -0.845050       -22.9950
  31   2.0000      -0.811910       -22.0932
  32   2.0000      -0.788021       -21.4431
  33   2.0000      -0.775028       -21.0896
  34   2.0000      -0.707277       -19.2460
  35   2.0000      -0.703662       -19.1476
  36   2.0000      -0.689167       -18.7532
  37   2.0000      -0.660439       -17.9715
  38   2.0000      -0.639580       -17.4039
  39   2.0000      -0.618790       -16.8381
  40   2.0000      -0.596061       -16.2196
  41   2.0000      -0.578510       -15.7421
  42   2.0000      -0.568091       -15.4585
  43   2.0000      -0.557324       -15.1656
  44   2.0000      -0.542440       -14.7605
  45   2.0000      -0.527628       -14.3575
  46   2.0000      -0.516296       -14.0491
  47   2.0000      -0.510692       -13.8966
  48   2.0000      -0.504487       -13.7278
  49   2.0000      -0.500687       -13.6244
  50   2.0000      -0.488899       -13.3036
  51   2.0000      -0.481165       -13.0932
  52   2.0000      -0.473186       -12.8760
  53   2.0000      -0.465199       -12.6587
  54   2.0000      -0.463186       -12.6039
  55   2.0000      -0.449368       -12.2279
  56   2.0000      -0.443962       -12.0808
  57   2.0000      -0.436886       -11.8883
  58   2.0000      -0.428494       -11.6599
  59   2.0000      -0.424252       -11.5445
  60   2.0000      -0.420401       -11.4397
  61   2.0000      -0.412149       -11.2151
  62   2.0000      -0.394249       -10.7280
  63   2.0000      -0.347432        -9.4541
  64   2.0000      -0.332715        -9.0536
  65   2.0000      -0.330613        -8.9964
  66   2.0000      -0.291393        -7.9292
  67   0.0000       0.023300         0.6340
  68   0.0000       0.059983         1.6322
  69   0.0000       0.099457         2.7064
  70   0.0000       0.118987         3.2378
  71   0.0000       0.131384         3.5751

MULLIKEN ATOMIC CHARGES
-----------------------
   0 S :    0.099224
   1 C :   -0.116324
   2 C :   -0.068266
   3 C :   -0.021679
   4 C :   -0.134076
   5 H :    0.050384
   6 C :    0.007265
   7 H :    0.016960
   8 H :    0.028226
   9 C :    0.009689
  10 H :    0.011463
  11 H :    0.005828
  12 C :   -0.067371
  13 H :    0.044165
  14 H :    0.023817
  15 H :    0.040452
  16 S :    0.115848
  17 C :   -0.122178
  18 C :   -0.057318
  19 C :   -0.054132
  20 C :   -0.133974
  21 H :    0.049247
  22 C :    0.146195
  23 H :    0.024775
  24 H :   -0.014049
  25 C :   -0.099202
  26 H :    0.022312
  27 H :    0.032419
  28 C :   -0.050849
  29 H :    0.000306
  30 H :    0.031423
  31 H :    0.046417
  32 H :    0.056913
  33 H :    0.076089
Sum of atomic charges:    0.0000000

LOEWDIN ATOMIC CHARGES
----------------------
   0 S :    0.392540
   1 C :   -0.190616
   2 C :   -0.062483
   3 C :   -0.075446
   4 C :   -0.191521
   5 H :    0.044324
   6 C :   -0.041788
   7 H :    0.029686
   8 H :    0.036594
   9 C :   -0.033103
  10 H :    0.022454
  11 H :    0.011554
  12 C :   -0.067691
  13 H :    0.025202
  14 H :    0.028298
  15 H :    0.033830
  16 S :    0.421522
  17 C :   -0.198523
  18 C :   -0.077379
  19 C :   -0.048205
  20 C :   -0.206455
  21 H :    0.044879
  22 C :   -0.025915
  23 H :    0.036504
  24 H :    0.018735
  25 C :   -0.040146
  26 H :    0.017831
  27 H :    0.028450
  28 C :   -0.065626
  29 H :    0.011019
  30 H :    0.018422
  31 H :    0.034710
  32 H :    0.036108
  33 H :    0.032236

  Mayer bond orders larger than 0.100000
B(  0-S ,  1-C ) :   1.1245 B(  0-S ,  4-C ) :   1.1491 B(  1-C ,  2-C ) :   1.6057
B(  1-C ,  4-C ) :   0.1007 B(  1-C , 32-H ) :   0.9668 B(  2-C ,  3-C ) :   1.2280
B(  2-C ,  6-C ) :   1.0316 B(  3-C ,  4-C ) :   1.6001 B(  3-C ,  5-H ) :   0.9739
B(  4-C , 20-C ) :   1.0315 B(  6-C ,  7-H ) :   0.9364 B(  6-C ,  8-H ) :   0.9388
B(  6-C ,  9-C ) :   1.0712 B(  9-C , 10-H ) :   0.9478 B(  9-C , 11-H ) :   0.9513
B(  9-C , 12-C ) :   1.0853 B( 12-C , 13-H ) :   0.9764 B( 12-C , 14-H ) :   0.9736
B( 12-C , 15-H ) :   0.9720 B( 16-S , 17-C ) :   1.1999 B( 16-S , 20-C ) :   1.1397
B( 17-C , 18-C ) :   1.5605 B( 17-C , 20-C ) :   0.1086 B( 17-C , 33-H ) :   0.9584
B( 18-C , 19-C ) :   1.2668 B( 18-C , 21-H ) :   0.9857 B( 19-C , 20-C ) :   1.5456
B( 19-C , 22-C ) :   1.0546 B( 22-C , 23-H ) :   0.9354 B( 22-C , 24-H ) :   0.9155
B( 22-C , 25-C ) :   1.0641 B( 25-C , 26-H ) :   0.9596 B( 25-C , 27-H ) :   0.9592
B( 25-C , 28-C ) :   1.0692 B( 28-C , 29-H ) :   0.9732 B( 28-C , 30-H ) :   0.9762
B( 28-C , 31-H ) :   0.9705

Dispersion correction           -0.014454033
FINAL SINGLE POINT ENERGY     -1339.846402212471

DIPOLE MOMENT
-------------
                                X             Y             Z
Electronic contribution:    -12.23857      16.93369     -16.72973
Nuclear contribution   :     12.44496     -17.21584      17.32051
                        -----------------------------------------
Total Dipole Moment    :      0.20639      -0.28214       0.59077
                        -----------------------------------------
Magnitude (a.u.)       :      0.68645
Magnitude (Debye)      :      1.74482

Rotational constants in cm-1:     0.020541     0.007700     0.006729
Rotational constants in MHz :   615.790751   230.828734   201.728096

                             ****ORCA TERMINATED NORMALLY****
TOTAL RUN TIME: 0 days 0 hours 0 minutes 21 seconds 632 msec
