                         Program Version 4.2.1 -  RELEASE  -
|  1> ! wB97X-D3 SP def2-SVP
|  2> %pal
|  3> nprocs 24
|  4> end
|  5>
|  6> * xyz 0 1
|  7> S 	 -132.157 	 26.123 	 -17.7809
|  8> C 	 -130.805 	 25.2892 	 -18.5965
|  9> C 	 -129.776 	 26.1438 	 -18.8339
| 10> C 	 -130.091 	 27.4654 	 -18.3825
| 11> C 	 -131.422 	 27.6938 	 -18.0056
| 12> H 	 -129.445 	 28.3519 	 -18.4501
| 13> C 	 -128.367 	 25.8091 	 -19.3178
| 14> H 	 -128.095 	 26.5672 	 -20.0684
| 15> H 	 -128.483 	 24.8908 	 -19.9022
| 16> C 	 -127.259 	 25.6393 	 -18.2625
| 17> H 	 -126.377 	 25.6279 	 -18.8621
| 18> H 	 -127.284 	 26.4804 	 -17.5167
| 19> C 	 -127.243 	 24.3484 	 -17.47
| 20> H 	 -128.124 	 24.3016 	 -16.9174
| 21> H 	 -127.283 	 23.4701 	 -18.1972
| 22> H 	 -126.32 	 24.3056 	 -16.8155
| 23> S 	 -131.512 	 29.4154 	 -15.8403
| 24> C 	 -132.621 	 30.7522 	 -15.9221
| 25> C 	 -133.213 	 30.7823 	 -17.1445
| 26> C 	 -132.714 	 29.845 	 -18.1007
| 27> C 	 -131.944 	 28.8583 	 -17.455
| 28> H 	 -133.944 	 31.5607 	 -17.3328
| 29> C 	 -133.309 	 29.8042 	 -19.4808
| 30> H 	 -132.672 	 29.103 	 -20.027
| 31> H 	 -133.312 	 30.8522 	 -19.9125
| 32> C 	 -134.747 	 29.2448 	 -19.5594
| 33> H 	 -135.437 	 29.9789 	 -18.9859
| 34> H 	 -134.858 	 28.345 	 -18.9792
| 35> C 	 -135.298 	 29.0873 	 -20.9833
| 36> H 	 -134.783 	 28.2833 	 -21.4722
| 37> H 	 -135.144 	 29.9645 	 -21.5956
| 38> H 	 -136.315 	 28.7757 	 -20.9547
| 39> H 	 -130.7 	 24.223 	 -18.8098
| 40> H 	 -132.873 	 31.4007 	 -15.081
| 41> *
| 42>
| 43>                          ****END OF INPUT****

CARTESIAN COORDINATES (ANGSTROEM)
---------------------------------
  S    -132.157000   26.123000  -17.780900
  C    -130.805000   25.289200  -18.596500
  C    -129.776000   26.143800  -18.833900
  C    -130.091000   27.465400  -18.382500
  C    -131.422000   27.693800  -18.005600
  H    -129.445000   28.351900  -18.450100
  C    -128.367000   25.809100  -19.317800
  H    -128.095000   26.567200  -20.068400
  H    -128.483000   24.890800  -19.902200
  C    -127.259000   25.639300  -18.262500
  H    -126.377000   25.627900  -18.862100
  H    -127.284000   26.480400  -17.516700
  C    -127.243000   24.348400  -17.470000
  H    -128.124000   24.301600  -16.917400
  H    -127.283000   23.470100  -18.197200
  H    -126.320000   24.305600  -16.815500
  S    -131.512000   29.415400  -15.840300
  C    -132.621000   30.752200  -15.922100
  C    -133.213000   30.782300  -17.144500
  C    -132.714000   29.845000  -18.100700
  C    -131.944000   28.858300  -17.455000
  H    -133.944000   31.560700  -17.332800
  C    -133.309000   29.804200  -19.480800
  H    -132.672000   29.103000  -20.027000
  H    -133.312000   30.852200  -19.912500
  C    -134.747000   29.244800  -19.559400
  H    -135.437000   29.978900  -18.985900
  H    -134.858000   28.345000  -18.979200
  C    -135.298000   29.087300  -20.983300
  H    -134.783000   28.283300  -21.472200
  H    -135.144000   29.964500  -21.595600
  H    -136.315000   28.775700  -20.954700
  H    -130.700000   24.223000  -18.809800
  H    -132.873000   31.400700  -15.081000

 Total Charge           Charge          ....    0
 Multiplicity           Mult            ....    1
 Number of Electrons    NEL             ....  134
 Basis Dimension        Dim             ....  322

ORBITAL ENERGIES
----------------

  NO   OCC          E(Eh)            E(eV)
   0   2.0000     -88.965784     -2420.8821
   1   2.0000     -88.963119     -2420.8095
   2   2.0000     -10.323674      -280.9215
   3   2.0000     -10.322327      -280.8848
   4   2.0000     -10.317576      -280.7555
   5   2.0000     -10.314357      -280.6679
   6   2.0000     -10.303158      -280.3632
   7   2.0000     -10.299652      -280.2678
   8   2.0000     -10.296531      -280.1829
   9   2.0000     -10.296067      -280.1702
  10   2.0000     -10.293981      -280.1135
  11   2.0000     -10.288586      -279.9667
  12   2.0000     -10.288339      -279.9599
  13   2.0000     -10.288109      -279.9537
  14   2.0000     -10.280682      -279.7516
  15   2.0000     -10.270925      -279.4861
  16   2.0000      -8.079894      -219.8651
  17   2.0000      -8.077960      -219.8125
  18   2.0000      -6.038545      -164.3172
  19   2.0000      -6.036490      -164.2613
  20   2.0000      -6.034503      -164.2072
  21   2.0000      -6.032378      -164.1494
  22   2.0000      -6.030494      -164.0981
  23   2.0000      -6.028760      -164.0509
  24   2.0000      -1.008238       -27.4355
  25   2.0000      -0.983627       -26.7659
  26   2.0000      -0.913776       -24.8651
  27   2.0000      -0.905384       -24.6368
  28   2.0000      -0.877429       -23.8761
  29   2.0000      -0.848522       -23.0895
  30   2.0000      -0.844826       -22.9889
  31   2.0000      -0.810417       -22.0526
  32   2.0000      -0.785662       -21.3790
  33   2.0000      -0.772968       -21.0335
  34   2.0000      -0.712966       -19.4008
  35   2.0000      -0.693664       -18.8755
  36   2.0000      -0.692437       -18.8422
  37   2.0000      -0.656709       -17.8700
  38   2.0000      -0.636968       -17.3328
  39   2.0000      -0.615104       -16.7378
  40   2.0000      -0.595596       -16.2070
  41   2.0000      -0.572558       -15.5801
  42   2.0000      -0.560786       -15.2598
  43   2.0000      -0.550716       -14.9857
  44   2.0000      -0.541073       -14.7233
  45   2.0000      -0.525456       -14.2984
  46   2.0000      -0.519661       -14.1407
  47   2.0000      -0.515094       -14.0164
  48   2.0000      -0.504941       -13.7401
  49   2.0000      -0.499413       -13.5897
  50   2.0000      -0.485700       -13.2166
  51   2.0000      -0.480294       -13.0695
  52   2.0000      -0.470928       -12.8146
  53   2.0000      -0.464335       -12.6352
  54   2.0000      -0.458044       -12.4640
  55   2.0000      -0.444498       -12.0954
  56   2.0000      -0.441155       -12.0044
  57   2.0000      -0.438673       -11.9369
  58   2.0000      -0.436632       -11.8814
  59   2.0000      -0.423355       -11.5201
  60   2.0000      -0.420991       -11.4557
  61   2.0000      -0.413888       -11.2625
  62   2.0000      -0.407540       -11.0897
  63   2.0000      -0.334111        -9.0916
  64   2.0000      -0.325625        -8.8607
  65   2.0000      -0.319715        -8.6999
  66   2.0000      -0.312128        -8.4934
  67   0.0000       0.038015         1.0344
  68   0.0000       0.047691         1.2977
  69   0.0000       0.110555         3.0084
  70   0.0000       0.120016         3.2658
  71   0.0000       0.128926         3.5083

MULLIKEN ATOMIC CHARGES
-----------------------
   0 S :    0.105303
   1 C :   -0.120030
   2 C :   -0.088116
   3 C :    0.007938
   4 C :   -0.180801
   5 H :    0.023202
   6 C :    0.057183
   7 H :    0.035781
   8 H :    0.012113
   9 C :   -0.053081
  10 H :    0.026979
  11 H :    0.040722
  12 C :   -0.058782
  13 H :    0.026091
  14 H :    0.026496
  15 H :    0.054077
  16 S :    0.119325
  17 C :   -0.096581
  18 C :   -0.030833
  19 C :   -0.013854
  20 C :   -0.170211
  21 H :    0.017337
  22 C :    0.056194
  23 H :    0.030703
  24 H :    0.040748
  25 C :   -0.110281
  26 H :    0.025541
  27 H :    0.025951
  28 C :   -0.000591
  29 H :    0.022509
  30 H :    0.027475
  31 H :    0.030206
  32 H :    0.047213
  33 H :    0.064073
Sum of atomic charges:    0.0000000

LOEWDIN ATOMIC CHARGES
----------------------
   0 S :    0.395450
   1 C :   -0.185948
   2 C :   -0.073889
   3 C :   -0.052942
   4 C :   -0.208878
   5 H :    0.032113
   6 C :   -0.032398
   7 H :    0.035627
   8 H :    0.028131
   9 C :   -0.039955
  10 H :    0.022647
  11 H :    0.031008
  12 C :   -0.065132
  13 H :    0.014304
  14 H :    0.027755
  15 H :    0.037344
  16 S :    0.404966
  17 C :   -0.188593
  18 C :   -0.074116
  19 C :   -0.045159
  20 C :   -0.211526
  21 H :    0.030002
  22 C :   -0.036669
  23 H :    0.030635
  24 H :    0.040032
  25 C :   -0.041908
  26 H :    0.024974
  27 H :    0.020523
  28 C :   -0.060206
  29 H :    0.023601
  30 H :    0.024441
  31 H :    0.025783
  32 H :    0.032935
  33 H :    0.035048

  Mayer bond orders larger than 0.100000
B(  0-S ,  1-C ) :   1.1353 B(  0-S ,  4-C ) :   1.1308 B(  1-C ,  2-C ) :   1.6249
B(  1-C , 32-H ) :   0.9632 B(  2-C ,  3-C ) :   1.2328 B(  2-C ,  6-C ) :   1.0226
B(  3-C ,  4-C ) :   1.5821 B(  3-C ,  5-H ) :   0.9915 B(  4-C , 20-C ) :   1.0816
B(  6-C ,  7-H ) :   0.9397 B(  6-C ,  8-H ) :   0.9355 B(  6-C ,  9-C ) :   1.0664
B(  9-C , 10-H ) :   0.9533 B(  9-C , 11-H ) :   0.9553 B(  9-C , 12-C ) :   1.0786
B( 12-C , 13-H ) :   0.9783 B( 12-C , 14-H ) :   0.9727 B( 12-C , 15-H ) :   0.9723
B( 16-S , 17-C ) :   1.1463 B( 16-S , 20-C ) :   1.1379 B( 17-C , 18-C ) :   1.6243
B( 17-C , 20-C ) :   0.1007 B( 17-C , 33-H ) :   0.9656 B( 18-C , 19-C ) :   1.2260
B( 18-C , 21-H ) :   0.9888 B( 19-C , 20-C ) :   1.5623 B( 19-C , 22-C ) :   1.0741
B( 22-C , 23-H ) :   0.9271 B( 22-C , 24-H ) :   0.9268 B( 22-C , 25-C ) :   1.0657
B( 25-C , 26-H ) :   0.9526 B( 25-C , 27-H ) :   0.9537 B( 25-C , 28-C ) :   1.0844
B( 28-C , 29-H ) :   0.9732 B( 28-C , 30-H ) :   0.9733 B( 28-C , 31-H ) :   0.9711

Dispersion correction           -0.014318872
FINAL SINGLE POINT ENERGY     -1339.876168729988

DIPOLE MOMENT
-------------
                                X             Y             Z
Electronic contribution:     -4.33450       4.61936      14.25140
Nuclear contribution   :      4.52400      -4.53715     -14.56558
                        -----------------------------------------
Total Dipole Moment    :      0.18950       0.08221      -0.31418
                        -----------------------------------------
Magnitude (a.u.)       :      0.37600
Magnitude (Debye)      :      0.95572

Rotational constants in cm-1:     0.021031     0.007909     0.006529
Rotational constants in MHz :   630.481061   237.105981   195.735121

                             ****ORCA TERMINATED NORMALLY****
TOTAL RUN TIME: 0 days 0 hours 0 minutes 20 seconds 99 msec
