                         Program Version 4.2.1 -  RELEASE  -
|  1> ! wB97X-D3 SP def2-SVP
|  2> %pal
|  3> nprocs 24
|  4> end
|  5>
|  6> * xyz 0 1
|  7> S 	 -43.9989 	 -1.48242 	 -20.8283
|  8> C 	 -44.8736 	 -2.92082 	 -21.2792
|  9> C 	 -43.955 	 -4.00081 	 -21.2007
| 10> C 	 -42.6586 	 -3.66189 	 -20.7181
| 11> C 	 -42.4696 	 -2.28931 	 -20.6694
| 12> H 	 -41.8995 	 -4.33717 	 -20.4764
| 13> C 	 -44.3667 	 -5.46634 	 -21.4936
| 14> H 	 -45.1438 	 -5.75128 	 -20.7636
| 15> H 	 -43.5545 	 -6.12297 	 -21.1702
| 16> C 	 -44.8321 	 -5.78931 	 -22.8772
| 17> H 	 -44.9942 	 -6.84934 	 -22.9654
| 18> H 	 -45.8206 	 -5.31093 	 -22.8768
| 19> C 	 -43.9388 	 -5.14675 	 -23.9139
| 20> H 	 -42.99 	 -5.63876 	 -23.8504
| 21> H 	 -44.4552 	 -5.30526 	 -24.8513
| 22> H 	 -43.9831 	 -4.08989 	 -23.8254
| 23> S 	 -40.0026 	 -1.36727 	 -21.3895
| 24> C 	 -38.9536 	 -0.626747 	 -20.2375
| 25> C 	 -39.5889 	 -0.489812 	 -19.0453
| 26> C 	 -40.9617 	 -1.03398 	 -19.0042
| 27> C 	 -41.2343 	 -1.6735 	 -20.2245
| 28> H 	 -39.0275 	 -0.105706 	 -18.2186
| 29> C 	 -41.7599 	 -1.22692 	 -17.6512
| 30> H 	 -42.6597 	 -0.625969 	 -17.7879
| 31> H 	 -41.1547 	 -0.730832 	 -16.9001
| 32> C 	 -42.1737 	 -2.64951 	 -17.235
| 33> H 	 -41.3505 	 -3.23301 	 -16.9889
| 34> H 	 -42.6345 	 -3.05723 	 -18.0483
| 35> C 	 -43.3508 	 -2.73543 	 -16.1804
| 36> H 	 -44.209 	 -2.1565 	 -16.597
| 37> H 	 -43.1261 	 -2.30303 	 -15.2061
| 38> H 	 -43.8234 	 -3.72578 	 -16.0153
| 39> H 	 -45.8426 	 -3.12988 	 -21.6867
| 40> H 	 -37.905 	 -0.270496 	 -20.345
| 41> *
| 42>
| 43>                          ****END OF INPUT****

CARTESIAN COORDINATES (ANGSTROEM)
---------------------------------
  S    -43.998900   -1.482420  -20.828300
  C    -44.873600   -2.920820  -21.279200
  C    -43.955000   -4.000810  -21.200700
  C    -42.658600   -3.661890  -20.718100
  C    -42.469600   -2.289310  -20.669400
  H    -41.899500   -4.337170  -20.476400
  C    -44.366700   -5.466340  -21.493600
  H    -45.143800   -5.751280  -20.763600
  H    -43.554500   -6.122970  -21.170200
  C    -44.832100   -5.789310  -22.877200
  H    -44.994200   -6.849340  -22.965400
  H    -45.820600   -5.310930  -22.876800
  C    -43.938800   -5.146750  -23.913900
  H    -42.990000   -5.638760  -23.850400
  H    -44.455200   -5.305260  -24.851300
  H    -43.983100   -4.089890  -23.825400
  S    -40.002600   -1.367270  -21.389500
  C    -38.953600   -0.626747  -20.237500
  C    -39.588900   -0.489812  -19.045300
  C    -40.961700   -1.033980  -19.004200
  C    -41.234300   -1.673500  -20.224500
  H    -39.027500   -0.105706  -18.218600
  C    -41.759900   -1.226920  -17.651200
  H    -42.659700   -0.625969  -17.787900
  H    -41.154700   -0.730832  -16.900100
  C    -42.173700   -2.649510  -17.235000
  H    -41.350500   -3.233010  -16.988900
  H    -42.634500   -3.057230  -18.048300
  C    -43.350800   -2.735430  -16.180400
  H    -44.209000   -2.156500  -16.597000
  H    -43.126100   -2.303030  -15.206100
  H    -43.823400   -3.725780  -16.015300
  H    -45.842600   -3.129880  -21.686700
  H    -37.905000   -0.270496  -20.345000

 Total Charge           Charge          ....    0
 Multiplicity           Mult            ....    1
 Number of Electrons    NEL             ....  134
 Basis Dimension        Dim             ....  322

ORBITAL ENERGIES
----------------

  NO   OCC          E(Eh)            E(eV)
   0   2.0000     -88.973253     -2421.0853
   1   2.0000     -88.965357     -2420.8704
   2   2.0000     -10.328408      -281.0503
   3   2.0000     -10.325386      -280.9680
   4   2.0000     -10.317182      -280.7448
   5   2.0000     -10.315293      -280.6934
   6   2.0000     -10.311565      -280.5919
   7   2.0000     -10.304123      -280.3894
   8   2.0000     -10.295226      -280.1473
   9   2.0000     -10.292510      -280.0734
  10   2.0000     -10.291715      -280.0518
  11   2.0000     -10.286670      -279.9145
  12   2.0000     -10.281672      -279.7785
  13   2.0000     -10.280099      -279.7357
  14   2.0000     -10.274685      -279.5884
  15   2.0000     -10.266669      -279.3703
  16   2.0000      -8.087247      -220.0652
  17   2.0000      -8.080920      -219.8930
  18   2.0000      -6.045859      -164.5162
  19   2.0000      -6.041610      -164.4006
  20   2.0000      -6.039458      -164.3420
  21   2.0000      -6.038163      -164.3068
  22   2.0000      -6.035155      -164.2249
  23   2.0000      -6.031740      -164.1320
  24   2.0000      -1.009424       -27.4678
  25   2.0000      -0.986174       -26.8351
  26   2.0000      -0.917828       -24.9754
  27   2.0000      -0.900037       -24.4913
  28   2.0000      -0.871693       -23.7200
  29   2.0000      -0.848611       -23.0919
  30   2.0000      -0.841635       -22.9021
  31   2.0000      -0.815489       -22.1906
  32   2.0000      -0.784009       -21.3340
  33   2.0000      -0.770669       -20.9710
  34   2.0000      -0.712579       -19.3903
  35   2.0000      -0.699510       -19.0346
  36   2.0000      -0.693739       -18.8776
  37   2.0000      -0.655269       -17.8308
  38   2.0000      -0.641983       -17.4693
  39   2.0000      -0.609847       -16.5948
  40   2.0000      -0.587678       -15.9915
  41   2.0000      -0.581160       -15.8142
  42   2.0000      -0.568248       -15.4628
  43   2.0000      -0.557737       -15.1768
  44   2.0000      -0.550372       -14.9764
  45   2.0000      -0.519247       -14.1294
  46   2.0000      -0.515521       -14.0280
  47   2.0000      -0.505856       -13.7650
  48   2.0000      -0.501616       -13.6497
  49   2.0000      -0.499610       -13.5951
  50   2.0000      -0.487089       -13.2544
  51   2.0000      -0.482011       -13.1162
  52   2.0000      -0.476558       -12.9678
  53   2.0000      -0.468133       -12.7385
  54   2.0000      -0.461213       -12.5503
  55   2.0000      -0.447066       -12.1653
  56   2.0000      -0.439682       -11.9644
  57   2.0000      -0.433182       -11.7875
  58   2.0000      -0.430692       -11.7197
  59   2.0000      -0.425637       -11.5822
  60   2.0000      -0.420440       -11.4408
  61   2.0000      -0.409980       -11.1561
  62   2.0000      -0.407864       -11.0986
  63   2.0000      -0.337279        -9.1778
  64   2.0000      -0.333386        -9.0719
  65   2.0000      -0.321273        -8.7423
  66   2.0000      -0.307783        -8.3752
  67   0.0000       0.035380         0.9627
  68   0.0000       0.057424         1.5626
  69   0.0000       0.112366         3.0576
  70   0.0000       0.124636         3.3915
  71   0.0000       0.130100         3.5402

MULLIKEN ATOMIC CHARGES
-----------------------
   0 S :    0.137231
   1 C :   -0.099470
   2 C :   -0.136812
   3 C :    0.052768
   4 C :   -0.150771
   5 H :    0.001816
   6 C :    0.047942
   7 H :    0.033960
   8 H :    0.009096
   9 C :   -0.081569
  10 H :    0.030625
  11 H :    0.011727
  12 C :    0.008712
  13 H :    0.036870
  14 H :    0.021170
  15 H :    0.037326
  16 S :    0.125682
  17 C :   -0.099838
  18 C :   -0.045878
  19 C :   -0.031481
  20 C :   -0.205844
  21 H :    0.012734
  22 C :    0.079829
  23 H :    0.024162
  24 H :    0.016326
  25 C :    0.009129
  26 H :    0.020598
  27 H :    0.013367
  28 C :   -0.092739
  29 H :    0.028334
  30 H :    0.033220
  31 H :    0.039882
  32 H :    0.042494
  33 H :    0.069403
Sum of atomic charges:    0.0000000

LOEWDIN ATOMIC CHARGES
----------------------
   0 S :    0.433169
   1 C :   -0.214385
   2 C :   -0.056644
   3 C :   -0.051835
   4 C :   -0.206928
   5 H :    0.024413
   6 C :   -0.041799
   7 H :    0.032513
   8 H :    0.022236
   9 C :   -0.043187
  10 H :    0.024157
  11 H :    0.020131
  12 C :   -0.054548
  13 H :    0.026122
  14 H :    0.026400
  15 H :    0.026283
  16 S :    0.432058
  17 C :   -0.206234
  18 C :   -0.074553
  19 C :   -0.051340
  20 C :   -0.216150
  21 H :    0.026651
  22 C :   -0.023407
  23 H :    0.031243
  24 H :    0.025643
  25 C :   -0.026327
  26 H :    0.015678
  27 H :    0.017146
  28 C :   -0.069207
  29 H :    0.028773
  30 H :    0.018597
  31 H :    0.030320
  32 H :    0.030597
  33 H :    0.044414

  Mayer bond orders larger than 0.100000
B(  0-S ,  1-C ) :   1.1457 B(  0-S ,  4-C ) :   1.1648 B(  1-C ,  2-C ) :   1.5639
B(  1-C ,  4-C ) :   0.1059 B(  1-C , 32-H ) :   0.9732 B(  2-C ,  3-C ) :   1.2810
B(  2-C ,  6-C ) :   1.0080 B(  3-C ,  4-C ) :   1.5322 B(  3-C ,  5-H ) :   1.0003
B(  4-C , 20-C ) :   1.0285 B(  6-C ,  7-H ) :   0.9432 B(  6-C ,  8-H ) :   0.9432
B(  6-C ,  9-C ) :   1.0706 B(  9-C , 10-H ) :   0.9538 B(  9-C , 11-H ) :   0.9511
B(  9-C , 12-C ) :   1.0897 B( 12-C , 13-H ) :   0.9788 B( 12-C , 14-H ) :   0.9700
B( 12-C , 15-H ) :   0.9605 B( 16-S , 17-C ) :   1.1469 B( 16-S , 20-C ) :   1.1655
B( 17-C , 18-C ) :   1.6423 B( 17-C , 33-H ) :   0.9593 B( 18-C , 19-C ) :   1.2270
B( 18-C , 21-H ) :   0.9859 B( 19-C , 20-C ) :   1.5818 B( 19-C , 22-C ) :   1.0331
B( 22-C , 23-H ) :   0.9253 B( 22-C , 24-H ) :   0.9421 B( 22-C , 25-C ) :   1.0679
B( 25-C , 26-H ) :   0.9605 B( 25-C , 27-H ) :   0.9472 B( 25-C , 28-C ) :   1.0706
B( 28-C , 29-H ) :   0.9741 B( 28-C , 30-H ) :   0.9816 B( 28-C , 31-H ) :   0.9776

Dispersion correction           -0.015479444
FINAL SINGLE POINT ENERGY     -1339.857707041476

DIPOLE MOMENT
-------------
                                X             Y             Z
Electronic contribution:     10.36060      15.90858      -7.23306
Nuclear contribution   :    -10.41902     -16.33748       7.48101
                        -----------------------------------------
Total Dipole Moment    :     -0.05842      -0.42889       0.24795
                        -----------------------------------------
Magnitude (a.u.)       :      0.49884
Magnitude (Debye)      :      1.26795

Rotational constants in cm-1:     0.019098     0.009285     0.007305
Rotational constants in MHz :   572.531393   278.353965   218.988169

                             ****ORCA TERMINATED NORMALLY****
TOTAL RUN TIME: 0 days 0 hours 0 minutes 21 seconds 128 msec
