                         Program Version 4.2.1 -  RELEASE  -
|  1> ! wB97X-D3 SP def2-SVP
|  2> %pal
|  3> nprocs 24
|  4> end
|  5>
|  6> * xyz 0 1
|  7> S 	 -110.127 	 28.9555 	 -20.5476
|  8> C 	 -110.192 	 29.8943 	 -22.0667
|  9> C 	 -111.465 	 30.3775 	 -22.2051
| 10> C 	 -112.406 	 29.852 	 -21.2599
| 11> C 	 -111.936 	 28.9352 	 -20.3939
| 12> H 	 -113.497 	 30.0838 	 -21.1082
| 13> C 	 -111.973 	 31.1809 	 -23.3809
| 14> H 	 -111.199 	 31.0459 	 -24.1202
| 15> H 	 -111.911 	 32.1892 	 -23.1192
| 16> C 	 -113.349 	 30.8152 	 -23.9492
| 17> H 	 -113.224 	 29.8302 	 -24.3429
| 18> H 	 -114.03 	 30.7383 	 -23.1683
| 19> C 	 -113.849 	 31.7642 	 -25.0349
| 20> H 	 -113.775 	 32.8579 	 -25.0146
| 21> H 	 -113.556 	 31.4867 	 -26.101
| 22> H 	 -114.96 	 31.6517 	 -25.0074
| 23> S 	 -112.135 	 28.9394 	 -17.6753
| 24> C 	 -113.529 	 28.2954 	 -16.8369
| 25> C 	 -114.238 	 27.487 	 -17.7352
| 26> C 	 -113.739 	 27.5545 	 -19.1268
| 27> C 	 -112.655 	 28.4031 	 -19.2426
| 28> H 	 -115.078 	 26.9607 	 -17.3954
| 29> C 	 -114.428 	 26.6836 	 -20.2039
| 30> H 	 -114.874 	 27.4953 	 -20.9004
| 31> H 	 -115.181 	 26.0899 	 -19.7566
| 32> C 	 -113.527 	 25.7166 	 -21.0369
| 33> H 	 -113.068 	 25.0937 	 -20.24
| 34> H 	 -112.747 	 26.3738 	 -21.5049
| 35> C 	 -114.258 	 25.0192 	 -22.22
| 36> H 	 -115.122 	 24.4487 	 -21.8501
| 37> H 	 -113.485 	 24.3703 	 -22.6872
| 38> H 	 -114.59 	 25.7447 	 -22.9698
| 39> H 	 -109.297 	 30.0251 	 -22.644
| 40> H 	 -113.747 	 28.4373 	 -15.8355
| 41> *
| 42>
| 43>                          ****END OF INPUT****

CARTESIAN COORDINATES (ANGSTROEM)
---------------------------------
  S    -110.127000   28.955500  -20.547600
  C    -110.192000   29.894300  -22.066700
  C    -111.465000   30.377500  -22.205100
  C    -112.406000   29.852000  -21.259900
  C    -111.936000   28.935200  -20.393900
  H    -113.497000   30.083800  -21.108200
  C    -111.973000   31.180900  -23.380900
  H    -111.199000   31.045900  -24.120200
  H    -111.911000   32.189200  -23.119200
  C    -113.349000   30.815200  -23.949200
  H    -113.224000   29.830200  -24.342900
  H    -114.030000   30.738300  -23.168300
  C    -113.849000   31.764200  -25.034900
  H    -113.775000   32.857900  -25.014600
  H    -113.556000   31.486700  -26.101000
  H    -114.960000   31.651700  -25.007400
  S    -112.135000   28.939400  -17.675300
  C    -113.529000   28.295400  -16.836900
  C    -114.238000   27.487000  -17.735200
  C    -113.739000   27.554500  -19.126800
  C    -112.655000   28.403100  -19.242600
  H    -115.078000   26.960700  -17.395400
  C    -114.428000   26.683600  -20.203900
  H    -114.874000   27.495300  -20.900400
  H    -115.181000   26.089900  -19.756600
  C    -113.527000   25.716600  -21.036900
  H    -113.068000   25.093700  -20.240000
  H    -112.747000   26.373800  -21.504900
  C    -114.258000   25.019200  -22.220000
  H    -115.122000   24.448700  -21.850100
  H    -113.485000   24.370300  -22.687200
  H    -114.590000   25.744700  -22.969800
  H    -109.297000   30.025100  -22.644000
  H    -113.747000   28.437300  -15.835500

 Total Charge           Charge          ....    0
 Multiplicity           Mult            ....    1
 Number of Electrons    NEL             ....  134
 Basis Dimension        Dim             ....  322

ORBITAL ENERGIES
----------------

  NO   OCC          E(Eh)            E(eV)
   0   2.0000     -88.962243     -2420.7857
   1   2.0000     -88.958812     -2420.6923
   2   2.0000     -10.331470      -281.1336
   3   2.0000     -10.327825      -281.0344
   4   2.0000     -10.319491      -280.8076
   5   2.0000     -10.316595      -280.7288
   6   2.0000     -10.310705      -280.5685
   7   2.0000     -10.303365      -280.3688
   8   2.0000     -10.297034      -280.1965
   9   2.0000     -10.296399      -280.1793
  10   2.0000     -10.295944      -280.1669
  11   2.0000     -10.290379      -280.0155
  12   2.0000     -10.287714      -279.9429
  13   2.0000     -10.284831      -279.8645
  14   2.0000     -10.284367      -279.8519
  15   2.0000     -10.282227      -279.7936
  16   2.0000      -8.077416      -219.7977
  17   2.0000      -8.072608      -219.6668
  18   2.0000      -6.036099      -164.2506
  19   2.0000      -6.031712      -164.1312
  20   2.0000      -6.031338      -164.1210
  21   2.0000      -6.028094      -164.0328
  22   2.0000      -6.027402      -164.0139
  23   2.0000      -6.023004      -163.8943
  24   2.0000      -1.004385       -27.3307
  25   2.0000      -0.981236       -26.7008
  26   2.0000      -0.913141       -24.8478
  27   2.0000      -0.899312       -24.4715
  28   2.0000      -0.874027       -23.7835
  29   2.0000      -0.845051       -22.9950
  30   2.0000      -0.840223       -22.8636
  31   2.0000      -0.820434       -22.3252
  32   2.0000      -0.777931       -21.1686
  33   2.0000      -0.771057       -20.9815
  34   2.0000      -0.716472       -19.4962
  35   2.0000      -0.701180       -19.0801
  36   2.0000      -0.685568       -18.6553
  37   2.0000      -0.667982       -18.1767
  38   2.0000      -0.647812       -17.6279
  39   2.0000      -0.617686       -16.8081
  40   2.0000      -0.586194       -15.9511
  41   2.0000      -0.570395       -15.5212
  42   2.0000      -0.567608       -15.4454
  43   2.0000      -0.562562       -15.3081
  44   2.0000      -0.532045       -14.4777
  45   2.0000      -0.522306       -14.2127
  46   2.0000      -0.518631       -14.1127
  47   2.0000      -0.511964       -13.9313
  48   2.0000      -0.505256       -13.7487
  49   2.0000      -0.499696       -13.5974
  50   2.0000      -0.493316       -13.4238
  51   2.0000      -0.488453       -13.2915
  52   2.0000      -0.477036       -12.9808
  53   2.0000      -0.468183       -12.7399
  54   2.0000      -0.458453       -12.4752
  55   2.0000      -0.446048       -12.1376
  56   2.0000      -0.434882       -11.8338
  57   2.0000      -0.430300       -11.7091
  58   2.0000      -0.424506       -11.5514
  59   2.0000      -0.421810       -11.4780
  60   2.0000      -0.417942       -11.3728
  61   2.0000      -0.415142       -11.2966
  62   2.0000      -0.407793       -11.0966
  63   2.0000      -0.348580        -9.4854
  64   2.0000      -0.324280        -8.8241
  65   2.0000      -0.323289        -8.7971
  66   2.0000      -0.299694        -8.1551
  67   0.0000       0.034746         0.9455
  68   0.0000       0.055250         1.5034
  69   0.0000       0.112200         3.0531
  70   0.0000       0.120532         3.2798
  71   0.0000       0.128574         3.4987

MULLIKEN ATOMIC CHARGES
-----------------------
   0 S :    0.062395
   1 C :   -0.130212
   2 C :   -0.058538
   3 C :    0.002125
   4 C :   -0.147059
   5 H :    0.043909
   6 C :    0.103212
   7 H :    0.008314
   8 H :    0.019342
   9 C :   -0.028562
  10 H :    0.028615
  11 H :    0.016407
  12 C :   -0.086425
  13 H :    0.037685
  14 H :    0.042979
  15 H :    0.027921
  16 S :    0.106382
  17 C :   -0.073276
  18 C :   -0.022100
  19 C :   -0.048152
  20 C :   -0.164505
  21 H :    0.003259
  22 C :    0.062074
  23 H :    0.038938
  24 H :    0.009303
  25 C :   -0.116779
  26 H :    0.045194
  27 H :    0.048466
  28 C :   -0.046349
  29 H :    0.037177
  30 H :    0.048902
  31 H :    0.037614
  32 H :    0.054495
  33 H :    0.037244
Sum of atomic charges:   -0.0000000

LOEWDIN ATOMIC CHARGES
----------------------
   0 S :    0.345269
   1 C :   -0.170550
   2 C :   -0.063338
   3 C :   -0.068057
   4 C :   -0.173238
   5 H :    0.044266
   6 C :   -0.027306
   7 H :    0.028206
   8 H :    0.023807
   9 C :   -0.031288
  10 H :    0.030511
  11 H :    0.012932
  12 C :   -0.079699
  13 H :    0.026926
  14 H :    0.032974
  15 H :    0.032789
  16 S :    0.412886
  17 C :   -0.172949
  18 C :   -0.064240
  19 C :   -0.055691
  20 C :   -0.206127
  21 H :    0.020146
  22 C :   -0.035429
  23 H :    0.039077
  24 H :    0.018791
  25 C :   -0.047575
  26 H :    0.028875
  27 H :    0.030659
  28 C :   -0.066634
  29 H :    0.024417
  30 H :    0.034992
  31 H :    0.028234
  32 H :    0.029181
  33 H :    0.017185

  Mayer bond orders larger than 0.100000
B(  0-S ,  1-C ) :   1.1178 B(  0-S ,  4-C ) :   1.1079 B(  1-C ,  2-C ) :   1.6250
B(  1-C , 32-H ) :   0.9794 B(  2-C ,  3-C ) :   1.1958 B(  2-C ,  6-C ) :   1.0159
B(  3-C ,  4-C ) :   1.6471 B(  3-C ,  5-H ) :   0.9736 B(  4-C , 20-C ) :   1.0289
B(  6-C ,  7-H ) :   0.9450 B(  6-C ,  8-H ) :   0.9241 B(  6-C ,  9-C ) :   1.0736
B(  9-C , 10-H ) :   0.9515 B(  9-C , 11-H ) :   0.9547 B(  9-C , 12-C ) :   1.0734
B( 12-C , 13-H ) :   0.9787 B( 12-C , 14-H ) :   0.9771 B( 12-C , 15-H ) :   0.9743
B( 16-S , 17-C ) :   1.1566 B( 16-S , 20-C ) :   1.1409 B( 17-C , 18-C ) :   1.6006
B( 17-C , 33-H ) :   0.9818 B( 18-C , 19-C ) :   1.2274 B( 18-C , 21-H ) :   0.9975
B( 19-C , 20-C ) :   1.6075 B( 19-C , 22-C ) :   1.0334 B( 22-C , 23-H ) :   0.9309
B( 22-C , 24-H ) :   0.9404 B( 22-C , 25-C ) :   1.0564 B( 25-C , 26-H ) :   0.9591
B( 25-C , 27-H ) :   0.9548 B( 25-C , 28-C ) :   1.0737 B( 28-C , 29-H ) :   0.9766
B( 28-C , 30-H ) :   0.9746 B( 28-C , 31-H ) :   0.9733

Dispersion correction           -0.013930497
FINAL SINGLE POINT ENERGY     -1339.855265134402

DIPOLE MOMENT
-------------
                                X             Y             Z
Electronic contribution:     16.07676       2.74314      24.45165
Nuclear contribution   :    -16.66085      -2.68442     -24.89286
                        -----------------------------------------
Total Dipole Moment    :     -0.58409       0.05872      -0.44120
                        -----------------------------------------
Magnitude (a.u.)       :      0.73435
Magnitude (Debye)      :      1.86657

Rotational constants in cm-1:     0.016100     0.008877     0.007244
Rotational constants in MHz :   482.669357   266.135985   217.172401

                             ****ORCA TERMINATED NORMALLY****
TOTAL RUN TIME: 0 days 0 hours 0 minutes 20 seconds 228 msec
