                         Program Version 4.2.1 -  RELEASE  -
|  1> ! wB97X-D3 SP def2-SVP
|  2> %pal
|  3> nprocs 24
|  4> end
|  5>
|  6> * xyz 0 1
|  7> S 	 18.3668 	 -6.12213 	 -115.869
|  8> C 	 18.5289 	 -6.28887 	 -114.133
|  9> C 	 17.2366 	 -6.34155 	 -113.582
| 10> C 	 16.1727 	 -6.34956 	 -114.531
| 11> C 	 16.598 	 -6.10722 	 -115.873
| 12> H 	 15.1994 	 -6.49915 	 -114.188
| 13> C 	 17.0009 	 -6.6811 	 -112.088
| 14> H 	 15.9939 	 -6.43847 	 -111.857
| 15> H 	 17.4984 	 -6.02912 	 -111.321
| 16> C 	 17.2058 	 -8.06136 	 -111.621
| 17> H 	 18.2774 	 -8.40181 	 -111.697
| 18> H 	 16.9627 	 -8.20998 	 -110.556
| 19> C 	 16.4615 	 -9.16008 	 -112.366
| 20> H 	 16.7331 	 -10.1043 	 -111.945
| 21> H 	 15.349 	 -8.99558 	 -112.44
| 22> H 	 16.6895 	 -9.13734 	 -113.432
| 23> S 	 16.2114 	 -7.39526 	 -118.301
| 24> C 	 15.0458 	 -6.7422 	 -119.434
| 25> C 	 14.1866 	 -5.98393 	 -118.826
| 26> C 	 14.6575 	 -5.55096 	 -117.53
| 27> C 	 15.8162 	 -6.21636 	 -117.115
| 28> H 	 13.2757 	 -5.65502 	 -119.419
| 29> C 	 13.8952 	 -4.42119 	 -116.854
| 30> H 	 14.713 	 -3.71338 	 -116.769
| 31> H 	 13.5787 	 -4.64896 	 -115.803
| 32> C 	 12.721 	 -3.74072 	 -117.504
| 33> H 	 13.0319 	 -3.49856 	 -118.566
| 34> H 	 12.5087 	 -2.86046 	 -116.828
| 35> C 	 11.4812 	 -4.66606 	 -117.377
| 36> H 	 11.2183 	 -4.67462 	 -116.299
| 37> H 	 11.758 	 -5.66258 	 -117.579
| 38> H 	 10.6497 	 -4.31881 	 -118.052
| 39> H 	 19.3936 	 -6.25419 	 -113.496
| 40> H 	 14.864 	 -7.01969 	 -120.493
| 41> *
| 42>
| 43>                          ****END OF INPUT****

CARTESIAN COORDINATES (ANGSTROEM)
---------------------------------
  S     18.366800   -6.122130  -115.869000
  C     18.528900   -6.288870  -114.133000
  C     17.236600   -6.341550  -113.582000
  C     16.172700   -6.349560  -114.531000
  C     16.598000   -6.107220  -115.873000
  H     15.199400   -6.499150  -114.188000
  C     17.000900   -6.681100  -112.088000
  H     15.993900   -6.438470  -111.857000
  H     17.498400   -6.029120  -111.321000
  C     17.205800   -8.061360  -111.621000
  H     18.277400   -8.401810  -111.697000
  H     16.962700   -8.209980  -110.556000
  C     16.461500   -9.160080  -112.366000
  H     16.733100  -10.104300  -111.945000
  H     15.349000   -8.995580  -112.440000
  H     16.689500   -9.137340  -113.432000
  S     16.211400   -7.395260  -118.301000
  C     15.045800   -6.742200  -119.434000
  C     14.186600   -5.983930  -118.826000
  C     14.657500   -5.550960  -117.530000
  C     15.816200   -6.216360  -117.115000
  H     13.275700   -5.655020  -119.419000
  C     13.895200   -4.421190  -116.854000
  H     14.713000   -3.713380  -116.769000
  H     13.578700   -4.648960  -115.803000
  C     12.721000   -3.740720  -117.504000
  H     13.031900   -3.498560  -118.566000
  H     12.508700   -2.860460  -116.828000
  C     11.481200   -4.666060  -117.377000
  H     11.218300   -4.674620  -116.299000
  H     11.758000   -5.662580  -117.579000
  H     10.649700   -4.318810  -118.052000
  H     19.393600   -6.254190  -113.496000
  H     14.864000   -7.019690  -120.493000

 Total Charge           Charge          ....    0
 Multiplicity           Mult            ....    1
 Number of Electrons    NEL             ....  134
 Basis Dimension        Dim             ....  322

ORBITAL ENERGIES
----------------

  NO   OCC          E(Eh)            E(eV)
   0   2.0000     -88.972667     -2421.0693
   1   2.0000     -88.961850     -2420.7750
   2   2.0000     -10.341897      -281.4173
   3   2.0000     -10.328740      -281.0593
   4   2.0000     -10.320783      -280.8428
   5   2.0000     -10.310210      -280.5551
   6   2.0000     -10.307406      -280.4788
   7   2.0000     -10.306021      -280.4411
   8   2.0000     -10.300414      -280.2885
   9   2.0000     -10.295572      -280.1568
  10   2.0000     -10.290883      -280.0292
  11   2.0000     -10.289651      -279.9956
  12   2.0000     -10.288878      -279.9746
  13   2.0000     -10.285127      -279.8725
  14   2.0000     -10.281259      -279.7673
  15   2.0000     -10.271913      -279.5130
  16   2.0000      -8.086400      -220.0421
  17   2.0000      -8.077479      -219.7994
  18   2.0000      -6.044939      -164.4911
  19   2.0000      -6.040762      -164.3775
  20   2.0000      -6.037441      -164.2871
  21   2.0000      -6.036153      -164.2521
  22   2.0000      -6.032022      -164.1397
  23   2.0000      -6.027814      -164.0252
  24   2.0000      -1.010835       -27.5062
  25   2.0000      -0.986739       -26.8505
  26   2.0000      -0.916094       -24.9282
  27   2.0000      -0.913789       -24.8655
  28   2.0000      -0.875290       -23.8179
  29   2.0000      -0.847076       -23.0501
  30   2.0000      -0.841064       -22.8865
  31   2.0000      -0.820521       -22.3275
  32   2.0000      -0.786307       -21.3965
  33   2.0000      -0.773245       -21.0411
  34   2.0000      -0.710716       -19.3396
  35   2.0000      -0.693976       -18.8840
  36   2.0000      -0.687995       -18.7213
  37   2.0000      -0.651551       -17.7296
  38   2.0000      -0.638575       -17.3765
  39   2.0000      -0.621105       -16.9011
  40   2.0000      -0.600303       -16.3351
  41   2.0000      -0.578954       -15.7541
  42   2.0000      -0.556721       -15.1491
  43   2.0000      -0.554196       -15.0804
  44   2.0000      -0.544580       -14.8188
  45   2.0000      -0.535212       -14.5639
  46   2.0000      -0.515923       -14.0390
  47   2.0000      -0.513117       -13.9626
  48   2.0000      -0.505672       -13.7600
  49   2.0000      -0.501604       -13.6493
  50   2.0000      -0.491054       -13.3623
  51   2.0000      -0.477617       -12.9966
  52   2.0000      -0.471800       -12.8383
  53   2.0000      -0.466315       -12.6891
  54   2.0000      -0.464090       -12.6285
  55   2.0000      -0.448843       -12.2136
  56   2.0000      -0.440802       -11.9948
  57   2.0000      -0.431554       -11.7432
  58   2.0000      -0.430695       -11.7198
  59   2.0000      -0.423281       -11.5180
  60   2.0000      -0.418484       -11.3875
  61   2.0000      -0.407992       -11.1020
  62   2.0000      -0.400280       -10.8922
  63   2.0000      -0.351464        -9.5638
  64   2.0000      -0.333376        -9.0716
  65   2.0000      -0.325705        -8.8629
  66   2.0000      -0.294333        -8.0092
  67   0.0000       0.021517         0.5855
  68   0.0000       0.070104         1.9076
  69   0.0000       0.111603         3.0369
  70   0.0000       0.122303         3.3280
  71   0.0000       0.130692         3.5563

MULLIKEN ATOMIC CHARGES
-----------------------
   0 S :    0.120674
   1 C :   -0.097252
   2 C :   -0.116771
   3 C :    0.070031
   4 C :   -0.160803
   5 H :   -0.008357
   6 C :    0.077863
   7 H :   -0.001332
   8 H :    0.032610
   9 C :   -0.081363
  10 H :    0.024666
  11 H :    0.031242
  12 C :   -0.064853
  13 H :    0.033802
  14 H :    0.021888
  15 H :    0.035898
  16 S :    0.106687
  17 C :   -0.092414
  18 C :   -0.068772
  19 C :   -0.044070
  20 C :   -0.132694
  21 H :    0.049024
  22 C :    0.024514
  23 H :    0.038893
  24 H :    0.027448
  25 C :   -0.084643
  26 H :    0.042550
  27 H :    0.047528
  28 C :   -0.048882
  29 H :    0.028636
  30 H :    0.024097
  31 H :    0.051660
  32 H :    0.052584
  33 H :    0.059911
Sum of atomic charges:   -0.0000000

LOEWDIN ATOMIC CHARGES
----------------------
   0 S :    0.420002
   1 C :   -0.193308
   2 C :   -0.065482
   3 C :   -0.046306
   4 C :   -0.193838
   5 H :    0.020528
   6 C :   -0.041684
   7 H :    0.022946
   8 H :    0.039542
   9 C :   -0.050112
  10 H :    0.025600
  11 H :    0.027889
  12 C :   -0.070713
  13 H :    0.023348
  14 H :    0.023640
  15 H :    0.025371
  16 S :    0.407733
  17 C :   -0.184371
  18 C :   -0.092217
  19 C :   -0.051252
  20 C :   -0.218990
  21 H :    0.047862
  22 C :   -0.046949
  23 H :    0.038549
  24 H :    0.031445
  25 C :   -0.048777
  26 H :    0.027401
  27 H :    0.038238
  28 C :   -0.068109
  29 H :    0.030261
  30 H :    0.014386
  31 H :    0.032838
  32 H :    0.033527
  33 H :    0.041000

  Mayer bond orders larger than 0.100000
B(  0-S ,  1-C ) :   1.1614 B(  0-S ,  4-C ) :   1.1684 B(  1-C ,  2-C ) :   1.5528
B(  1-C ,  4-C ) :   0.1121 B(  1-C , 32-H ) :   0.9724 B(  2-C ,  3-C ) :   1.3040
B(  2-C ,  6-C ) :   1.0233 B(  3-C ,  4-C ) :   1.4965 B(  3-C ,  5-H ) :   0.9985
B(  4-C , 20-C ) :   1.0517 B(  6-C ,  7-H ) :   0.9332 B(  6-C ,  8-H ) :   0.9375
B(  6-C ,  9-C ) :   1.0884 B(  9-C , 10-H ) :   0.9510 B(  9-C , 11-H ) :   0.9505
B(  9-C , 12-C ) :   1.0803 B( 12-C , 13-H ) :   0.9738 B( 12-C , 14-H ) :   0.9732
B( 12-C , 15-H ) :   0.9709 B( 16-S , 17-C ) :   1.1368 B( 16-S , 20-C ) :   1.1319
B( 17-C , 18-C ) :   1.6770 B( 17-C , 33-H ) :   0.9517 B( 18-C , 19-C ) :   1.2171
B( 18-C , 21-H ) :   0.9673 B( 19-C , 20-C ) :   1.6116 B( 19-C , 22-C ) :   1.0218
B( 22-C , 23-H ) :   0.9227 B( 22-C , 24-H ) :   0.9295 B( 22-C , 25-C ) :   1.0968
B( 25-C , 26-H ) :   0.9450 B( 25-C , 27-H ) :   0.9519 B( 25-C , 28-C ) :   1.0606
B( 28-C , 29-H ) :   0.9694 B( 28-C , 30-H ) :   0.9805 B( 28-C , 31-H ) :   0.9746

Dispersion correction           -0.014212636
FINAL SINGLE POINT ENERGY     -1339.848534358313

DIPOLE MOMENT
-------------
                                X             Y             Z
Electronic contribution:     17.20365      -1.45400     -15.26396
Nuclear contribution   :    -17.65975       1.59088      15.59198
                        -----------------------------------------
Total Dipole Moment    :     -0.45610       0.13689       0.32802
                        -----------------------------------------
Magnitude (a.u.)       :      0.57825
Magnitude (Debye)      :      1.46979

Rotational constants in cm-1:     0.020593     0.007735     0.006697
Rotational constants in MHz :   617.368148   231.888491   200.760065

                             ****ORCA TERMINATED NORMALLY****
TOTAL RUN TIME: 0 days 0 hours 0 minutes 21 seconds 508 msec
