                         Program Version 4.2.1 -  RELEASE  -
|  1> ! wB97X-D3 SP def2-SVP
|  2> %pal
|  3> nprocs 24
|  4> end
|  5>
|  6> * xyz 0 1
|  7> S 	 -101.28 	 -2.17605 	 -123.137
|  8> C 	 -102.411 	 -2.54228 	 -124.386
|  9> C 	 -103.598 	 -1.7894 	 -124.115
| 10> C 	 -103.606 	 -1.1405 	 -122.817
| 11> C 	 -102.415 	 -1.23421 	 -122.163
| 12> H 	 -104.399 	 -0.469911 	 -122.378
| 13> C 	 -104.713 	 -1.5195 	 -125.121
| 14> H 	 -104.266 	 -1.78619 	 -126.118
| 15> H 	 -104.831 	 -0.424697 	 -125.346
| 16> C 	 -106.027 	 -2.1813 	 -124.833
| 17> H 	 -106.01 	 -3.28896 	 -124.866
| 18> H 	 -106.308 	 -2.03178 	 -123.877
| 19> C 	 -107.119 	 -1.93128 	 -125.892
| 20> H 	 -106.667 	 -2.19905 	 -126.89
| 21> H 	 -108.035 	 -2.52615 	 -125.65
| 22> H 	 -107.378 	 -0.844089 	 -125.871
| 23> S 	 -102.953 	 -0.902176 	 -119.466
| 24> C 	 -102.057 	 0.391878 	 -118.634
| 25> C 	 -101.058 	 0.978932 	 -119.409
| 26> C 	 -100.998 	 0.328061 	 -120.634
| 27> C 	 -102.079 	 -0.478812 	 -120.993
| 28> H 	 -100.515 	 1.81604 	 -119.056
| 29> C 	 -100.018 	 0.751405 	 -121.612
| 30> H 	 -99.6916 	 -0.0908084 	 -122.238
| 31> H 	 -99.0276 	 1.03843 	 -121.204
| 32> C 	 -100.401 	 2.02534 	 -122.431
| 33> H 	 -100.823 	 2.89172 	 -121.919
| 34> H 	 -101.082 	 1.70899 	 -123.28
| 35> C 	 -99.1694 	 2.66531 	 -123.156
| 36> H 	 -98.6771 	 1.96839 	 -123.744
| 37> H 	 -98.4391 	 3.01948 	 -122.448
| 38> H 	 -99.4436 	 3.5761 	 -123.618
| 39> H 	 -102.198 	 -3.07431 	 -125.255
| 40> H 	 -102.397 	 0.602535 	 -117.625
| 41> *
| 42>
| 43>                          ****END OF INPUT****

CARTESIAN COORDINATES (ANGSTROEM)
---------------------------------
  S    -101.280000   -2.176050  -123.137000
  C    -102.411000   -2.542280  -124.386000
  C    -103.598000   -1.789400  -124.115000
  C    -103.606000   -1.140500  -122.817000
  C    -102.415000   -1.234210  -122.163000
  H    -104.399000   -0.469911  -122.378000
  C    -104.713000   -1.519500  -125.121000
  H    -104.266000   -1.786190  -126.118000
  H    -104.831000   -0.424697  -125.346000
  C    -106.027000   -2.181300  -124.833000
  H    -106.010000   -3.288960  -124.866000
  H    -106.308000   -2.031780  -123.877000
  C    -107.119000   -1.931280  -125.892000
  H    -106.667000   -2.199050  -126.890000
  H    -108.035000   -2.526150  -125.650000
  H    -107.378000   -0.844089  -125.871000
  S    -102.953000   -0.902176  -119.466000
  C    -102.057000    0.391878  -118.634000
  C    -101.058000    0.978932  -119.409000
  C    -100.998000    0.328061  -120.634000
  C    -102.079000   -0.478812  -120.993000
  H    -100.515000    1.816040  -119.056000
  C    -100.018000    0.751405  -121.612000
  H    -99.691600   -0.090808  -122.238000
  H    -99.027600    1.038430  -121.204000
  C    -100.401000    2.025340  -122.431000
  H    -100.823000    2.891720  -121.919000
  H    -101.082000    1.708990  -123.280000
  C    -99.169400    2.665310  -123.156000
  H    -98.677100    1.968390  -123.744000
  H    -98.439100    3.019480  -122.448000
  H    -99.443600    3.576100  -123.618000
  H    -102.198000   -3.074310  -125.255000
  H    -102.397000    0.602535  -117.625000

 Total Charge           Charge          ....    0
 Multiplicity           Mult            ....    1
 Number of Electrons    NEL             ....  134
 Basis Dimension        Dim             ....  322

ORBITAL ENERGIES
----------------

  NO   OCC          E(Eh)            E(eV)
   0   2.0000     -88.966853     -2420.9111
   1   2.0000     -88.963821     -2420.8286
   2   2.0000     -10.328317      -281.0478
   3   2.0000     -10.327668      -281.0301
   4   2.0000     -10.322955      -280.9019
   5   2.0000     -10.318794      -280.7887
   6   2.0000     -10.310277      -280.5569
   7   2.0000     -10.299234      -280.2564
   8   2.0000     -10.298964      -280.2491
   9   2.0000     -10.296650      -280.1861
  10   2.0000     -10.294552      -280.1290
  11   2.0000     -10.290390      -280.0157
  12   2.0000     -10.287517      -279.9376
  13   2.0000     -10.286804      -279.9182
  14   2.0000     -10.276008      -279.6244
  15   2.0000     -10.265846      -279.3479
  16   2.0000      -8.081324      -219.9040
  17   2.0000      -8.077506      -219.8001
  18   2.0000      -6.039881      -164.3535
  19   2.0000      -6.035954      -164.2467
  20   2.0000      -6.035727      -164.2405
  21   2.0000      -6.032281      -164.1467
  22   2.0000      -6.032169      -164.1437
  23   2.0000      -6.028272      -164.0376
  24   2.0000      -1.005749       -27.3678
  25   2.0000      -0.982916       -26.7465
  26   2.0000      -0.911426       -24.8012
  27   2.0000      -0.905450       -24.6385
  28   2.0000      -0.875513       -23.8239
  29   2.0000      -0.852527       -23.1984
  30   2.0000      -0.845221       -22.9996
  31   2.0000      -0.815926       -22.2025
  32   2.0000      -0.778466       -21.1831
  33   2.0000      -0.764078       -20.7916
  34   2.0000      -0.708393       -19.2763
  35   2.0000      -0.701118       -19.0784
  36   2.0000      -0.692107       -18.8332
  37   2.0000      -0.672384       -18.2965
  38   2.0000      -0.643441       -17.5089
  39   2.0000      -0.617181       -16.7944
  40   2.0000      -0.603443       -16.4205
  41   2.0000      -0.571271       -15.5451
  42   2.0000      -0.559045       -15.2124
  43   2.0000      -0.555670       -15.1206
  44   2.0000      -0.539144       -14.6708
  45   2.0000      -0.531847       -14.4723
  46   2.0000      -0.523303       -14.2398
  47   2.0000      -0.511892       -13.9293
  48   2.0000      -0.506482       -13.7821
  49   2.0000      -0.499778       -13.5996
  50   2.0000      -0.490185       -13.3386
  51   2.0000      -0.478325       -13.0159
  52   2.0000      -0.464518       -12.6402
  53   2.0000      -0.459336       -12.4992
  54   2.0000      -0.455989       -12.4081
  55   2.0000      -0.448370       -12.2008
  56   2.0000      -0.446126       -12.1397
  57   2.0000      -0.439588       -11.9618
  58   2.0000      -0.432867       -11.7789
  59   2.0000      -0.420039       -11.4299
  60   2.0000      -0.419153       -11.4057
  61   2.0000      -0.406557       -11.0630
  62   2.0000      -0.400612       -10.9012
  63   2.0000      -0.348501        -9.4832
  64   2.0000      -0.332806        -9.0561
  65   2.0000      -0.322854        -8.7853
  66   2.0000      -0.289616        -7.8808
  67   0.0000       0.023690         0.6446
  68   0.0000       0.064388         1.7521
  69   0.0000       0.097350         2.6490
  70   0.0000       0.110995         3.0203
  71   0.0000       0.132371         3.6020

MULLIKEN ATOMIC CHARGES
-----------------------
   0 S :    0.106236
   1 C :   -0.082213
   2 C :   -0.102422
   3 C :    0.007020
   4 C :   -0.117796
   5 H :    0.045592
   6 C :    0.032123
   7 H :    0.007330
   8 H :    0.039316
   9 C :   -0.025446
  10 H :    0.022190
  11 H :   -0.002154
  12 C :   -0.077996
  13 H :    0.040914
  14 H :    0.048638
  15 H :    0.034341
  16 S :    0.083370
  17 C :   -0.100410
  18 C :   -0.005433
  19 C :   -0.001275
  20 C :   -0.151247
  21 H :    0.015852
  22 C :    0.033665
  23 H :    0.021965
  24 H :    0.010136
  25 C :   -0.091883
  26 H :    0.034397
  27 H :    0.044612
  28 C :   -0.021926
  29 H :    0.021207
  30 H :    0.011580
  31 H :    0.023819
  32 H :    0.035119
  33 H :    0.060778
Sum of atomic charges:    0.0000000

LOEWDIN ATOMIC CHARGES
----------------------
   0 S :    0.416600
   1 C :   -0.195897
   2 C :   -0.057279
   3 C :   -0.065113
   4 C :   -0.198399
   5 H :    0.045707
   6 C :   -0.043046
   7 H :    0.029724
   8 H :    0.037487
   9 C :   -0.044229
  10 H :    0.031226
  11 H :    0.006439
  12 C :   -0.067079
  13 H :    0.030443
  14 H :    0.031871
  15 H :    0.022874
  16 S :    0.370693
  17 C :   -0.158759
  18 C :   -0.059028
  19 C :   -0.058322
  20 C :   -0.177935
  21 H :    0.033303
  22 C :   -0.046708
  23 H :    0.024145
  24 H :    0.030571
  25 C :   -0.034192
  26 H :    0.025045
  27 H :    0.031330
  28 C :   -0.059582
  29 H :    0.014098
  30 H :    0.019557
  31 H :    0.022509
  32 H :    0.019204
  33 H :    0.022740

  Mayer bond orders larger than 0.100000
B(  0-S ,  1-C ) :   1.1499 B(  0-S ,  4-C ) :   1.1332 B(  1-C ,  2-C ) :   1.5795
B(  1-C , 32-H ) :   0.9818 B(  2-C ,  3-C ) :   1.2423 B(  2-C ,  6-C ) :   1.0296
B(  3-C ,  4-C ) :   1.5648 B(  3-C ,  5-H ) :   0.9826 B(  4-C , 20-C ) :   1.0719
B(  6-C ,  7-H ) :   0.9373 B(  6-C ,  8-H ) :   0.9450 B(  6-C ,  9-C ) :   1.0528
B(  9-C , 10-H ) :   0.9508 B(  9-C , 11-H ) :   0.9580 B(  9-C , 12-C ) :   1.0735
B( 12-C , 13-H ) :   0.9750 B( 12-C , 14-H ) :   0.9759 B( 12-C , 15-H ) :   0.9764
B( 16-S , 17-C ) :   1.1705 B( 16-S , 20-C ) :   1.1147 B( 17-C , 18-C ) :   1.5763
B( 17-C , 20-C ) :   0.1140 B( 17-C , 33-H ) :   0.9676 B( 18-C , 19-C ) :   1.2256
B( 18-C , 21-H ) :   1.0082 B( 19-C , 20-C ) :   1.5644 B( 19-C , 22-C ) :   1.0915
B( 22-C , 23-H ) :   0.9211 B( 22-C , 24-H ) :   0.9339 B( 22-C , 25-C ) :   1.0421
B( 25-C , 26-H ) :   0.9640 B( 25-C , 27-H ) :   0.9562 B( 25-C , 28-C ) :   1.0821
B( 28-C , 29-H ) :   0.9777 B( 28-C , 30-H ) :   0.9706 B( 28-C , 31-H ) :   0.9739

Dispersion correction           -0.013996527
FINAL SINGLE POINT ENERGY     -1339.845510241366

DIPOLE MOMENT
-------------
                                X             Y             Z
Electronic contribution:      5.62999     -10.72241      18.26803
Nuclear contribution   :     -5.65024      11.20389     -18.52884
                        -----------------------------------------
Total Dipole Moment    :     -0.02026       0.48148      -0.26082
                        -----------------------------------------
Magnitude (a.u.)       :      0.54796
Magnitude (Debye)      :      1.39280

Rotational constants in cm-1:     0.018896     0.007814     0.006648
Rotational constants in MHz :   566.490520   234.260363   199.305308

                             ****ORCA TERMINATED NORMALLY****
TOTAL RUN TIME: 0 days 0 hours 0 minutes 22 seconds 34 msec
