                         Program Version 4.2.1 -  RELEASE  -
|  1> ! wB97X-D3 SP def2-SVP
|  2> %pal
|  3> nprocs 24
|  4> end
|  5>
|  6> * xyz 0 1
|  7> S 	 -88.272 	 4.00933 	 -115.459
|  8> C 	 -87.2045 	 2.68784 	 -115.566
|  9> C 	 -87.3486 	 1.97682 	 -116.716
| 10> C 	 -88.2715 	 2.56349 	 -117.627
| 11> C 	 -88.7942 	 3.73109 	 -117.097
| 12> H 	 -88.6256 	 2.30567 	 -118.571
| 13> C 	 -86.5281 	 0.732212 	 -117.066
| 14> H 	 -85.488 	 1.08127 	 -117.28
| 15> H 	 -86.9966 	 0.18047 	 -117.976
| 16> C 	 -86.4697 	 -0.400188 	 -116.01
| 17> H 	 -85.7474 	 -1.13429 	 -116.397
| 18> H 	 -85.8373 	 -0.109578 	 -115.126
| 19> C 	 -87.7964 	 -1.05898 	 -115.559
| 20> H 	 -88.1303 	 -0.633337 	 -114.614
| 21> H 	 -88.5782 	 -1.06791 	 -116.357
| 22> H 	 -87.5948 	 -2.04775 	 -115.282
| 23> S 	 -88.6228 	 6.02717 	 -118.626
| 24> C 	 -89.9687 	 6.49882 	 -119.613
| 25> C 	 -91.1349 	 5.83664 	 -119.127
| 26> C 	 -90.8211 	 4.65117 	 -118.341
| 27> C 	 -89.5314 	 4.69247 	 -117.884
| 28> H 	 -92.0569 	 6.08607 	 -119.639
| 29> C 	 -91.8687 	 3.65649 	 -117.95
| 30> H 	 -91.4618 	 2.98558 	 -117.194
| 31> H 	 -91.9596 	 3.06238 	 -118.895
| 32> C 	 -93.2565 	 4.16053 	 -117.435
| 33> H 	 -93.6815 	 4.77554 	 -118.243
| 34> H 	 -93.1428 	 4.74013 	 -116.568
| 35> C 	 -94.2354 	 3.00669 	 -117.225
| 36> H 	 -95.0363 	 3.27548 	 -116.513
| 37> H 	 -93.6706 	 2.16856 	 -116.814
| 38> H 	 -94.6725 	 2.62185 	 -118.181
| 39> H 	 -86.5494 	 2.48199 	 -114.752
| 40> H 	 -89.958 	 7.24046 	 -120.374
| 41> *
| 42>
| 43>                          ****END OF INPUT****

CARTESIAN COORDINATES (ANGSTROEM)
---------------------------------
  S    -88.272000    4.009330  -115.459000
  C    -87.204500    2.687840  -115.566000
  C    -87.348600    1.976820  -116.716000
  C    -88.271500    2.563490  -117.627000
  C    -88.794200    3.731090  -117.097000
  H    -88.625600    2.305670  -118.571000
  C    -86.528100    0.732212  -117.066000
  H    -85.488000    1.081270  -117.280000
  H    -86.996600    0.180470  -117.976000
  C    -86.469700   -0.400188  -116.010000
  H    -85.747400   -1.134290  -116.397000
  H    -85.837300   -0.109578  -115.126000
  C    -87.796400   -1.058980  -115.559000
  H    -88.130300   -0.633337  -114.614000
  H    -88.578200   -1.067910  -116.357000
  H    -87.594800   -2.047750  -115.282000
  S    -88.622800    6.027170  -118.626000
  C    -89.968700    6.498820  -119.613000
  C    -91.134900    5.836640  -119.127000
  C    -90.821100    4.651170  -118.341000
  C    -89.531400    4.692470  -117.884000
  H    -92.056900    6.086070  -119.639000
  C    -91.868700    3.656490  -117.950000
  H    -91.461800    2.985580  -117.194000
  H    -91.959600    3.062380  -118.895000
  C    -93.256500    4.160530  -117.435000
  H    -93.681500    4.775540  -118.243000
  H    -93.142800    4.740130  -116.568000
  C    -94.235400    3.006690  -117.225000
  H    -95.036300    3.275480  -116.513000
  H    -93.670600    2.168560  -116.814000
  H    -94.672500    2.621850  -118.181000
  H    -86.549400    2.481990  -114.752000
  H    -89.958000    7.240460  -120.374000

 Total Charge           Charge          ....    0
 Multiplicity           Mult            ....    1
 Number of Electrons    NEL             ....  134
 Basis Dimension        Dim             ....  322

ORBITAL ENERGIES
----------------

  NO   OCC          E(Eh)            E(eV)
   0   2.0000     -88.963890     -2420.8305
   1   2.0000     -88.960514     -2420.7386
   2   2.0000     -10.320117      -280.8247
   3   2.0000     -10.319161      -280.7986
   4   2.0000     -10.318955      -280.7930
   5   2.0000     -10.304774      -280.4072
   6   2.0000     -10.303244      -280.3655
   7   2.0000     -10.302322      -280.3404
   8   2.0000     -10.297740      -280.2157
   9   2.0000     -10.296242      -280.1750
  10   2.0000     -10.292879      -280.0835
  11   2.0000     -10.290961      -280.0313
  12   2.0000     -10.288187      -279.9558
  13   2.0000     -10.285871      -279.8928
  14   2.0000     -10.281577      -279.7759
  15   2.0000     -10.277084      -279.6537
  16   2.0000      -8.079834      -219.8635
  17   2.0000      -8.075258      -219.7389
  18   2.0000      -6.038057      -164.3039
  19   2.0000      -6.034173      -164.1982
  20   2.0000      -6.033761      -164.1870
  21   2.0000      -6.030847      -164.1077
  22   2.0000      -6.029732      -164.0773
  23   2.0000      -6.026039      -163.9769
  24   2.0000      -1.008750       -27.4495
  25   2.0000      -0.983008       -26.7490
  26   2.0000      -0.906963       -24.6797
  27   2.0000      -0.902503       -24.5584
  28   2.0000      -0.869263       -23.6539
  29   2.0000      -0.850550       -23.1446
  30   2.0000      -0.848643       -23.0927
  31   2.0000      -0.808715       -22.0062
  32   2.0000      -0.780633       -21.2421
  33   2.0000      -0.769478       -20.9386
  34   2.0000      -0.703819       -19.1519
  35   2.0000      -0.699625       -19.0378
  36   2.0000      -0.695318       -18.9206
  37   2.0000      -0.657065       -17.8797
  38   2.0000      -0.651523       -17.7289
  39   2.0000      -0.602424       -16.3928
  40   2.0000      -0.590215       -16.0606
  41   2.0000      -0.568523       -15.4703
  42   2.0000      -0.567206       -15.4345
  43   2.0000      -0.554869       -15.0987
  44   2.0000      -0.532502       -14.4901
  45   2.0000      -0.525486       -14.2992
  46   2.0000      -0.520823       -14.1723
  47   2.0000      -0.516373       -14.0512
  48   2.0000      -0.499531       -13.5929
  49   2.0000      -0.495388       -13.4802
  50   2.0000      -0.484732       -13.1902
  51   2.0000      -0.479303       -13.0425
  52   2.0000      -0.473084       -12.8733
  53   2.0000      -0.460311       -12.5257
  54   2.0000      -0.459526       -12.5043
  55   2.0000      -0.447986       -12.1903
  56   2.0000      -0.442868       -12.0510
  57   2.0000      -0.437263       -11.8985
  58   2.0000      -0.434236       -11.8162
  59   2.0000      -0.425451       -11.5771
  60   2.0000      -0.417683       -11.3657
  61   2.0000      -0.415938       -11.3183
  62   2.0000      -0.402883       -10.9630
  63   2.0000      -0.337907        -9.1949
  64   2.0000      -0.323129        -8.7928
  65   2.0000      -0.320974        -8.7342
  66   2.0000      -0.301940        -8.2162
  67   0.0000       0.046429         1.2634
  68   0.0000       0.052693         1.4338
  69   0.0000       0.114637         3.1194
  70   0.0000       0.127084         3.4581
  71   0.0000       0.128680         3.5016

MULLIKEN ATOMIC CHARGES
-----------------------
   0 S :    0.126193
   1 C :   -0.129181
   2 C :   -0.023709
   3 C :    0.073864
   4 C :   -0.213605
   5 H :   -0.015250
   6 C :    0.018987
   7 H :    0.052622
   8 H :    0.041055
   9 C :   -0.117044
  10 H :    0.023462
  11 H :    0.020098
  12 C :   -0.005058
  13 H :    0.034009
  14 H :    0.040294
  15 H :    0.015175
  16 S :    0.112372
  17 C :   -0.102572
  18 C :   -0.034736
  19 C :   -0.028263
  20 C :   -0.158810
  21 H :    0.023911
  22 C :    0.024776
  23 H :    0.030227
  24 H :    0.040075
  25 C :   -0.053108
  26 H :    0.031985
  27 H :    0.032397
  28 C :   -0.056358
  29 H :    0.043750
  30 H :    0.023906
  31 H :    0.037395
  32 H :    0.037866
  33 H :    0.053277
Sum of atomic charges:   -0.0000000

LOEWDIN ATOMIC CHARGES
----------------------
   0 S :    0.428774
   1 C :   -0.203036
   2 C :   -0.070479
   3 C :   -0.042224
   4 C :   -0.204131
   5 H :    0.024143
   6 C :   -0.037216
   7 H :    0.040510
   8 H :    0.038070
   9 C :   -0.057492
  10 H :    0.024024
  11 H :    0.022894
  12 C :   -0.063770
  13 H :    0.029963
  14 H :    0.031458
  15 H :    0.020684
  16 S :    0.399824
  17 C :   -0.179672
  18 C :   -0.075575
  19 C :   -0.052904
  20 C :   -0.203933
  21 H :    0.026069
  22 C :   -0.036848
  23 H :    0.027982
  24 H :    0.040376
  25 C :   -0.033355
  26 H :    0.025253
  27 H :    0.020475
  28 C :   -0.067609
  29 H :    0.030720
  30 H :    0.022807
  31 H :    0.029746
  32 H :    0.021097
  33 H :    0.023373

  Mayer bond orders larger than 0.100000
B(  0-S ,  1-C ) :   1.1540 B(  0-S ,  4-C ) :   1.1648 B(  1-C ,  2-C ) :   1.5954
B(  1-C , 32-H ) :   0.9779 B(  2-C ,  3-C ) :   1.2252 B(  2-C ,  6-C ) :   1.0042
B(  3-C ,  4-C ) :   1.5737 B(  3-C ,  5-H ) :   1.0116 B(  4-C , 20-C ) :   1.0214
B(  6-C ,  7-H ) :   0.9398 B(  6-C ,  8-H ) :   0.9508 B(  6-C ,  9-C ) :   1.0858
B(  9-C , 10-H ) :   0.9586 B(  9-C , 11-H ) :   0.9498 B(  9-C , 12-C ) :   1.0592
B( 12-C , 13-H ) :   0.9741 B( 12-C , 14-H ) :   0.9785 B( 12-C , 15-H ) :   0.9722
B( 16-S , 17-C ) :   1.1739 B( 16-S , 20-C ) :   1.1196 B( 17-C , 18-C ) :   1.6062
B( 17-C , 33-H ) :   0.9729 B( 18-C , 19-C ) :   1.2129 B( 18-C , 21-H ) :   0.9826
B( 19-C , 20-C ) :   1.6283 B( 19-C , 22-C ) :   1.0476 B( 22-C , 23-H ) :   0.9323
B( 22-C , 24-H ) :   0.9254 B( 22-C , 25-C ) :   1.0667 B( 25-C , 26-H ) :   0.9511
B( 25-C , 27-H ) :   0.9603 B( 25-C , 28-C ) :   1.0819 B( 28-C , 29-H ) :   0.9744
B( 28-C , 30-H ) :   0.9747 B( 28-C , 31-H ) :   0.9753

Dispersion correction           -0.013982338
FINAL SINGLE POINT ENERGY     -1339.868955097156

DIPOLE MOMENT
-------------
                                X             Y             Z
Electronic contribution:     11.34664      22.82128      -2.13115
Nuclear contribution   :    -11.53813     -23.32319       1.97961
                        -----------------------------------------
Total Dipole Moment    :     -0.19149      -0.50191      -0.15154
                        -----------------------------------------
Magnitude (a.u.)       :      0.55816
Magnitude (Debye)      :      1.41873

Rotational constants in cm-1:     0.018344     0.008155     0.006480
Rotational constants in MHz :   549.924757   244.471496   194.277477

                             ****ORCA TERMINATED NORMALLY****
TOTAL RUN TIME: 0 days 0 hours 0 minutes 21 seconds 26 msec
