                         Program Version 4.2.1 -  RELEASE  -
|  1> ! wB97X-D3 SP def2-SVP
|  2> %pal
|  3> nprocs 24
|  4> end
|  5>
|  6> * xyz 0 1
|  7> S 	 -113.805 	 14.3743 	 -113.291
|  8> C 	 -112.425 	 14.9115 	 -114.185
|  9> C 	 -112.793 	 15.5533 	 -115.369
| 10> C 	 -114.19 	 15.4125 	 -115.591
| 11> C 	 -114.884 	 14.7635 	 -114.588
| 12> H 	 -114.651 	 15.6952 	 -116.511
| 13> C 	 -111.876 	 16.4054 	 -116.175
| 14> H 	 -111.724 	 15.8502 	 -117.154
| 15> H 	 -110.911 	 16.5274 	 -115.585
| 16> C 	 -112.458 	 17.8777 	 -116.407
| 17> H 	 -113.394 	 17.7729 	 -116.982
| 18> H 	 -112.831 	 18.2978 	 -115.473
| 19> C 	 -111.683 	 18.9545 	 -117.113
| 20> H 	 -111.131 	 18.478 	 -117.956
| 21> H 	 -112.215 	 19.8745 	 -117.346
| 22> H 	 -110.803 	 19.0545 	 -116.473
| 23> S 	 -117.153 	 13.1897 	 -114.509
| 24> C 	 -118.768 	 13.8901 	 -114.43
| 25> C 	 -118.621 	 15.2248 	 -114.527
| 26> C 	 -117.263 	 15.7179 	 -114.622
| 27> C 	 -116.336 	 14.6927 	 -114.488
| 28> H 	 -119.432 	 15.8535 	 -114.679
| 29> C 	 -116.999 	 17.2038 	 -114.71
| 30> H 	 -115.905 	 17.328 	 -114.826
| 31> H 	 -117.248 	 17.7955 	 -113.811
| 32> C 	 -117.671 	 17.9597 	 -115.865
| 33> H 	 -117.694 	 19.0143 	 -115.733
| 34> H 	 -118.639 	 17.5517 	 -116.022
| 35> C 	 -116.922 	 17.6697 	 -117.205
| 36> H 	 -117.604 	 17.9709 	 -118
| 37> H 	 -116.719 	 16.5716 	 -117.37
| 38> H 	 -115.978 	 18.2383 	 -117.198
| 39> H 	 -111.505 	 15.1133 	 -113.679
| 40> H 	 -119.69 	 13.3754 	 -114.413
| 41> *
| 42>
| 43>                          ****END OF INPUT****

CARTESIAN COORDINATES (ANGSTROEM)
---------------------------------
  S    -113.805000   14.374300  -113.291000
  C    -112.425000   14.911500  -114.185000
  C    -112.793000   15.553300  -115.369000
  C    -114.190000   15.412500  -115.591000
  C    -114.884000   14.763500  -114.588000
  H    -114.651000   15.695200  -116.511000
  C    -111.876000   16.405400  -116.175000
  H    -111.724000   15.850200  -117.154000
  H    -110.911000   16.527400  -115.585000
  C    -112.458000   17.877700  -116.407000
  H    -113.394000   17.772900  -116.982000
  H    -112.831000   18.297800  -115.473000
  C    -111.683000   18.954500  -117.113000
  H    -111.131000   18.478000  -117.956000
  H    -112.215000   19.874500  -117.346000
  H    -110.803000   19.054500  -116.473000
  S    -117.153000   13.189700  -114.509000
  C    -118.768000   13.890100  -114.430000
  C    -118.621000   15.224800  -114.527000
  C    -117.263000   15.717900  -114.622000
  C    -116.336000   14.692700  -114.488000
  H    -119.432000   15.853500  -114.679000
  C    -116.999000   17.203800  -114.710000
  H    -115.905000   17.328000  -114.826000
  H    -117.248000   17.795500  -113.811000
  C    -117.671000   17.959700  -115.865000
  H    -117.694000   19.014300  -115.733000
  H    -118.639000   17.551700  -116.022000
  C    -116.922000   17.669700  -117.205000
  H    -117.604000   17.970900  -118.000000
  H    -116.719000   16.571600  -117.370000
  H    -115.978000   18.238300  -117.198000
  H    -111.505000   15.113300  -113.679000
  H    -119.690000   13.375400  -114.413000

 Total Charge           Charge          ....    0
 Multiplicity           Mult            ....    1
 Number of Electrons    NEL             ....  134
 Basis Dimension        Dim             ....  322

ORBITAL ENERGIES
----------------

  NO   OCC          E(Eh)            E(eV)
   0   2.0000     -88.967176     -2420.9199
   1   2.0000     -88.961547     -2420.7668
   2   2.0000     -10.328833      -281.0618
   3   2.0000     -10.326301      -280.9929
   4   2.0000     -10.314767      -280.6791
   5   2.0000     -10.311417      -280.5879
   6   2.0000     -10.310342      -280.5587
   7   2.0000     -10.303300      -280.3671
   8   2.0000     -10.301895      -280.3288
   9   2.0000     -10.292419      -280.0710
  10   2.0000     -10.291512      -280.0463
  11   2.0000     -10.289506      -279.9917
  12   2.0000     -10.286250      -279.9031
  13   2.0000     -10.282465      -279.8001
  14   2.0000     -10.282301      -279.7956
  15   2.0000     -10.281357      -279.7700
  16   2.0000      -8.082562      -219.9377
  17   2.0000      -8.077124      -219.7897
  18   2.0000      -6.040908      -164.3815
  19   2.0000      -6.036982      -164.2746
  20   2.0000      -6.035766      -164.2415
  21   2.0000      -6.033440      -164.1782
  22   2.0000      -6.031404      -164.1228
  23   2.0000      -6.027767      -164.0239
  24   2.0000      -1.012471       -27.5507
  25   2.0000      -0.990660       -26.9572
  26   2.0000      -0.910952       -24.7883
  27   2.0000      -0.908718       -24.7275
  28   2.0000      -0.876341       -23.8465
  29   2.0000      -0.855732       -23.2857
  30   2.0000      -0.843248       -22.9460
  31   2.0000      -0.821527       -22.3549
  32   2.0000      -0.780227       -21.2310
  33   2.0000      -0.769676       -20.9440
  34   2.0000      -0.711423       -19.3588
  35   2.0000      -0.698662       -19.0116
  36   2.0000      -0.692729       -18.8501
  37   2.0000      -0.658260       -17.9122
  38   2.0000      -0.644137       -17.5279
  39   2.0000      -0.625219       -17.0131
  40   2.0000      -0.605675       -16.4813
  41   2.0000      -0.572383       -15.5753
  42   2.0000      -0.560443       -15.2504
  43   2.0000      -0.552676       -15.0391
  44   2.0000      -0.544582       -14.8188
  45   2.0000      -0.535934       -14.5835
  46   2.0000      -0.526917       -14.3382
  47   2.0000      -0.511632       -13.9222
  48   2.0000      -0.504222       -13.7206
  49   2.0000      -0.501331       -13.6419
  50   2.0000      -0.491527       -13.3751
  51   2.0000      -0.490141       -13.3374
  52   2.0000      -0.470259       -12.7964
  53   2.0000      -0.464619       -12.6429
  54   2.0000      -0.459936       -12.5155
  55   2.0000      -0.453633       -12.3440
  56   2.0000      -0.447427       -12.1751
  57   2.0000      -0.429625       -11.6907
  58   2.0000      -0.427488       -11.6325
  59   2.0000      -0.425701       -11.5839
  60   2.0000      -0.420160       -11.4331
  61   2.0000      -0.412207       -11.2167
  62   2.0000      -0.405012       -11.0209
  63   2.0000      -0.345517        -9.4020
  64   2.0000      -0.331109        -9.0099
  65   2.0000      -0.325342        -8.8530
  66   2.0000      -0.302363        -8.2277
  67   0.0000       0.034811         0.9472
  68   0.0000       0.064906         1.7662
  69   0.0000       0.115737         3.1494
  70   0.0000       0.119070         3.2401
  71   0.0000       0.130119         3.5407

MULLIKEN ATOMIC CHARGES
-----------------------
   0 S :    0.119327
   1 C :   -0.104104
   2 C :   -0.114022
   3 C :    0.037079
   4 C :   -0.149168
   5 H :   -0.003454
   6 C :    0.057084
   7 H :    0.057805
   8 H :    0.033650
   9 C :   -0.140265
  10 H :    0.025776
  11 H :    0.031720
  12 C :   -0.010179
  13 H :    0.020165
  14 H :    0.059064
  15 H :    0.014638
  16 S :    0.098214
  17 C :   -0.066940
  18 C :   -0.002719
  19 C :   -0.041997
  20 C :   -0.142217
  21 H :   -0.005760
  22 C :    0.052245
  23 H :    0.018652
  24 H :    0.040925
  25 C :   -0.051413
  26 H :    0.028967
  27 H :    0.018322
  28 C :   -0.105844
  29 H :    0.033870
  30 H :    0.054068
  31 H :    0.042426
  32 H :    0.048201
  33 H :    0.045887
Sum of atomic charges:    0.0000000

LOEWDIN ATOMIC CHARGES
----------------------
   0 S :    0.431452
   1 C :   -0.204885
   2 C :   -0.066473
   3 C :   -0.054927
   4 C :   -0.202324
   5 H :    0.024954
   6 C :   -0.032340
   7 H :    0.043401
   8 H :    0.035473
   9 C :   -0.051622
  10 H :    0.018556
  11 H :    0.022739
  12 C :   -0.071440
  13 H :    0.030316
  14 H :    0.034095
  15 H :    0.025164
  16 S :    0.415011
  17 C :   -0.170996
  18 C :   -0.063795
  19 C :   -0.056436
  20 C :   -0.211937
  21 H :    0.017664
  22 C :   -0.038686
  23 H :    0.030074
  24 H :    0.034895
  25 C :   -0.031791
  26 H :    0.021947
  27 H :    0.015853
  28 C :   -0.070033
  29 H :    0.024287
  30 H :    0.029033
  31 H :    0.022718
  32 H :    0.022506
  33 H :    0.027548

  Mayer bond orders larger than 0.100000
B(  0-S ,  1-C ) :   1.1598 B(  0-S ,  4-C ) :   1.1754 B(  1-C ,  2-C ) :   1.5899
B(  1-C , 32-H ) :   0.9623 B(  2-C ,  3-C ) :   1.2654 B(  2-C ,  6-C ) :   1.0362
B(  3-C ,  4-C ) :   1.5497 B(  3-C ,  5-H ) :   1.0021 B(  4-C , 20-C ) :   1.0065
B(  6-C ,  7-H ) :   0.9285 B(  6-C ,  8-H ) :   0.9446 B(  6-C ,  9-C ) :   1.0484
B(  9-C , 10-H ) :   0.9470 B(  9-C , 11-H ) :   0.9587 B(  9-C , 12-C ) :   1.0922
B( 12-C , 13-H ) :   0.9660 B( 12-C , 14-H ) :   0.9711 B( 12-C , 15-H ) :   0.9687
B( 16-S , 17-C ) :   1.1421 B( 16-S , 20-C ) :   1.1581 B( 17-C , 18-C ) :   1.6090
B( 17-C , 33-H ) :   0.9777 B( 18-C , 19-C ) :   1.2406 B( 18-C , 21-H ) :   0.9965
B( 19-C , 20-C ) :   1.5810 B( 19-C , 22-C ) :   1.0506 B( 22-C , 23-H ) :   0.9320
B( 22-C , 24-H ) :   0.9396 B( 22-C , 25-C ) :   1.0639 B( 25-C , 26-H ) :   0.9557
B( 25-C , 27-H ) :   0.9617 B( 25-C , 28-C ) :   1.0738 B( 28-C , 29-H ) :   0.9725
B( 28-C , 30-H ) :   0.9726 B( 28-C , 31-H ) :   0.9740

Dispersion correction           -0.015664266
FINAL SINGLE POINT ENERGY     -1339.872885385365

DIPOLE MOMENT
-------------
                                X             Y             Z
Electronic contribution:     -6.17751     -26.56707      16.93940
Nuclear contribution   :      6.10027      27.34589     -17.26772
                        -----------------------------------------
Total Dipole Moment    :     -0.07724       0.77882      -0.32832
                        -----------------------------------------
Magnitude (a.u.)       :      0.84872
Magnitude (Debye)      :      2.15727

Rotational constants in cm-1:     0.018604     0.009957     0.007047
Rotational constants in MHz :   557.726442   298.516320   211.267831

                             ****ORCA TERMINATED NORMALLY****
TOTAL RUN TIME: 0 days 0 hours 0 minutes 22 seconds 954 msec
