                         Program Version 4.2.1 -  RELEASE  -
|  1> ! wB97X-D3 SP def2-SVP
|  2> %pal
|  3> nprocs 24
|  4> end
|  5>
|  6> * xyz 0 1
|  7> S 	 -118.303 	 63.4143 	 -63.4642
|  8> C 	 -119.382 	 62.8758 	 -64.7084
|  9> C 	 -120.596 	 62.4616 	 -64.203
| 10> C 	 -120.756 	 62.8037 	 -62.8531
| 11> C 	 -119.576 	 63.1762 	 -62.2472
| 12> H 	 -121.583 	 62.6309 	 -62.1151
| 13> C 	 -121.688 	 61.6809 	 -65.0037
| 14> H 	 -121.09 	 61.019 	 -65.5796
| 15> H 	 -122.203 	 62.3402 	 -65.6913
| 16> C 	 -122.71 	 60.9698 	 -64.1584
| 17> H 	 -122.22 	 60.2842 	 -63.4628
| 18> H 	 -123.28 	 61.796 	 -63.7068
| 19> C 	 -123.622 	 60.1349 	 -65.08
| 20> H 	 -124.33 	 60.7794 	 -65.5957
| 21> H 	 -123.046 	 59.5981 	 -65.755
| 22> H 	 -124.219 	 59.4138 	 -64.5365
| 23> S 	 -120.429 	 64.8522 	 -60.2674
| 24> C 	 -119.638 	 64.8269 	 -58.6536
| 25> C 	 -118.624 	 63.9059 	 -58.6919
| 26> C 	 -118.46 	 63.2131 	 -59.9158
| 27> C 	 -119.374 	 63.6224 	 -60.8807
| 28> H 	 -118.101 	 63.7501 	 -57.7525
| 29> C 	 -117.484 	 62.0727 	 -60.0815
| 30> H 	 -117.896 	 61.2047 	 -60.6877
| 31> H 	 -117.447 	 61.5334 	 -59.1363
| 32> C 	 -116.06 	 62.4287 	 -60.5468
| 33> H 	 -115.974 	 63.171 	 -61.3892
| 34> H 	 -115.687 	 61.4703 	 -60.9832
| 35> C 	 -115.237 	 62.9612 	 -59.4179
| 36> H 	 -115.732 	 63.7519 	 -58.8228
| 37> H 	 -114.369 	 63.4386 	 -59.8687
| 38> H 	 -114.934 	 62.1724 	 -58.7472
| 39> H 	 -119.014 	 62.5052 	 -65.6913
| 40> H 	 -120.06 	 65.4679 	 -57.8952
| 41> *
| 42>
| 43>                          ****END OF INPUT****

CARTESIAN COORDINATES (ANGSTROEM)
---------------------------------
  S    -118.303000   63.414300  -63.464200
  C    -119.382000   62.875800  -64.708400
  C    -120.596000   62.461600  -64.203000
  C    -120.756000   62.803700  -62.853100
  C    -119.576000   63.176200  -62.247200
  H    -121.583000   62.630900  -62.115100
  C    -121.688000   61.680900  -65.003700
  H    -121.090000   61.019000  -65.579600
  H    -122.203000   62.340200  -65.691300
  C    -122.710000   60.969800  -64.158400
  H    -122.220000   60.284200  -63.462800
  H    -123.280000   61.796000  -63.706800
  C    -123.622000   60.134900  -65.080000
  H    -124.330000   60.779400  -65.595700
  H    -123.046000   59.598100  -65.755000
  H    -124.219000   59.413800  -64.536500
  S    -120.429000   64.852200  -60.267400
  C    -119.638000   64.826900  -58.653600
  C    -118.624000   63.905900  -58.691900
  C    -118.460000   63.213100  -59.915800
  C    -119.374000   63.622400  -60.880700
  H    -118.101000   63.750100  -57.752500
  C    -117.484000   62.072700  -60.081500
  H    -117.896000   61.204700  -60.687700
  H    -117.447000   61.533400  -59.136300
  C    -116.060000   62.428700  -60.546800
  H    -115.974000   63.171000  -61.389200
  H    -115.687000   61.470300  -60.983200
  C    -115.237000   62.961200  -59.417900
  H    -115.732000   63.751900  -58.822800
  H    -114.369000   63.438600  -59.868700
  H    -114.934000   62.172400  -58.747200
  H    -119.014000   62.505200  -65.691300
  H    -120.060000   65.467900  -57.895200

 Total Charge           Charge          ....    0
 Multiplicity           Mult            ....    1
 Number of Electrons    NEL             ....  134
 Basis Dimension        Dim             ....  322

ORBITAL ENERGIES
----------------

  NO   OCC          E(Eh)            E(eV)
   0   2.0000     -88.965107     -2420.8636
   1   2.0000     -88.961317     -2420.7605
   2   2.0000     -10.326816      -281.0069
   3   2.0000     -10.323659      -280.9210
   4   2.0000     -10.320035      -280.8224
   5   2.0000     -10.311248      -280.5833
   6   2.0000     -10.301386      -280.3150
   7   2.0000     -10.300541      -280.2920
   8   2.0000     -10.295680      -280.1597
   9   2.0000     -10.293890      -280.1110
  10   2.0000     -10.291465      -280.0450
  11   2.0000     -10.288272      -279.9581
  12   2.0000     -10.287126      -279.9269
  13   2.0000     -10.286676      -279.9147
  14   2.0000     -10.272467      -279.5280
  15   2.0000     -10.271420      -279.4995
  16   2.0000      -8.079437      -219.8527
  17   2.0000      -8.075929      -219.7572
  18   2.0000      -6.037955      -164.3011
  19   2.0000      -6.034372      -164.2036
  20   2.0000      -6.033972      -164.1927
  21   2.0000      -6.030354      -164.0943
  22   2.0000      -6.030237      -164.0911
  23   2.0000      -6.026858      -163.9991
  24   2.0000      -1.006640       -27.3921
  25   2.0000      -0.984087       -26.7784
  26   2.0000      -0.915263       -24.9056
  27   2.0000      -0.907446       -24.6928
  28   2.0000      -0.872266       -23.7356
  29   2.0000      -0.850072       -23.1316
  30   2.0000      -0.844777       -22.9876
  31   2.0000      -0.815164       -22.1817
  32   2.0000      -0.782581       -21.2951
  33   2.0000      -0.770337       -20.9619
  34   2.0000      -0.711879       -19.3712
  35   2.0000      -0.691761       -18.8238
  36   2.0000      -0.683465       -18.5980
  37   2.0000      -0.667739       -18.1701
  38   2.0000      -0.635279       -17.2868
  39   2.0000      -0.613343       -16.6899
  40   2.0000      -0.599574       -16.3152
  41   2.0000      -0.585531       -15.9331
  42   2.0000      -0.561617       -15.2824
  43   2.0000      -0.546254       -14.8643
  44   2.0000      -0.541821       -14.7437
  45   2.0000      -0.523028       -14.2323
  46   2.0000      -0.520369       -14.1600
  47   2.0000      -0.507612       -13.8128
  48   2.0000      -0.498652       -13.5690
  49   2.0000      -0.497351       -13.5336
  50   2.0000      -0.486897       -13.2491
  51   2.0000      -0.485340       -13.2068
  52   2.0000      -0.475584       -12.9413
  53   2.0000      -0.469043       -12.7633
  54   2.0000      -0.458827       -12.4853
  55   2.0000      -0.441643       -12.0177
  56   2.0000      -0.435825       -11.8594
  57   2.0000      -0.433694       -11.8014
  58   2.0000      -0.429800       -11.6954
  59   2.0000      -0.427575       -11.6349
  60   2.0000      -0.418889       -11.3985
  61   2.0000      -0.415833       -11.3154
  62   2.0000      -0.405231       -11.0269
  63   2.0000      -0.343055        -9.3350
  64   2.0000      -0.336831        -9.1656
  65   2.0000      -0.326672        -8.8892
  66   2.0000      -0.293893        -7.9972
  67   0.0000       0.028425         0.7735
  68   0.0000       0.070524         1.9190
  69   0.0000       0.108490         2.9522
  70   0.0000       0.117765         3.2045
  71   0.0000       0.138138         3.7589

MULLIKEN ATOMIC CHARGES
-----------------------
   0 S :    0.109997
   1 C :   -0.127848
   2 C :   -0.096910
   3 C :   -0.015129
   4 C :   -0.149521
   5 H :    0.040722
   6 C :    0.082405
   7 H :    0.009066
   8 H :    0.036030
   9 C :   -0.110908
  10 H :    0.039666
  11 H :    0.046105
  12 C :    0.006660
  13 H :    0.026336
  14 H :    0.010807
  15 H :    0.025768
  16 S :    0.092003
  17 C :   -0.116598
  18 C :   -0.022652
  19 C :   -0.000266
  20 C :   -0.159849
  21 H :    0.025504
  22 C :    0.020182
  23 H :    0.037020
  24 H :    0.015363
  25 C :   -0.070661
  26 H :    0.037650
  27 H :    0.032506
  28 C :   -0.040106
  29 H :    0.034735
  30 H :    0.029418
  31 H :    0.027822
  32 H :    0.060401
  33 H :    0.064284
Sum of atomic charges:   -0.0000000

LOEWDIN ATOMIC CHARGES
----------------------
   0 S :    0.409852
   1 C :   -0.215136
   2 C :   -0.062263
   3 C :   -0.075390
   4 C :   -0.183046
   5 H :    0.043142
   6 C :   -0.025017
   7 H :    0.021797
   8 H :    0.031881
   9 C :   -0.040916
  10 H :    0.026843
  11 H :    0.029959
  12 C :   -0.052793
  13 H :    0.025845
  14 H :    0.014314
  15 H :    0.025098
  16 S :    0.394890
  17 C :   -0.168897
  18 C :   -0.071744
  19 C :   -0.063579
  20 C :   -0.202324
  21 H :    0.033825
  22 C :   -0.043495
  23 H :    0.038332
  24 H :    0.030742
  25 C :   -0.047589
  26 H :    0.024929
  27 H :    0.029585
  28 C :   -0.068278
  29 H :    0.028269
  30 H :    0.027053
  31 H :    0.022022
  32 H :    0.033620
  33 H :    0.028469

  Mayer bond orders larger than 0.100000
B(  0-S ,  1-C ) :   1.1460 B(  0-S ,  4-C ) :   1.1524 B(  1-C ,  2-C ) :   1.6283
B(  1-C ,  4-C ) :   0.1062 B(  1-C , 32-H ) :   0.9566 B(  2-C ,  3-C ) :   1.2461
B(  2-C ,  6-C ) :   0.9832 B(  3-C ,  4-C ) :   1.5790 B(  3-C ,  5-H ) :   0.9779
B(  4-C , 20-C ) :   1.0341 B(  6-C ,  7-H ) :   0.9387 B(  6-C ,  8-H ) :   0.9393
B(  6-C ,  9-C ) :   1.0914 B(  9-C , 10-H ) :   0.9565 B(  9-C , 11-H ) :   0.9456
B(  9-C , 12-C ) :   1.0861 B( 12-C , 13-H ) :   0.9740 B( 12-C , 14-H ) :   0.9745
B( 12-C , 15-H ) :   0.9739 B( 16-S , 17-C ) :   1.1469 B( 16-S , 20-C ) :   1.1555
B( 17-C , 18-C ) :   1.5851 B( 17-C , 20-C ) :   0.1015 B( 17-C , 33-H ) :   0.9760
B( 18-C , 19-C ) :   1.2471 B( 18-C , 21-H ) :   0.9886 B( 19-C , 20-C ) :   1.5733
B( 19-C , 22-C ) :   1.0440 B( 22-C , 23-H ) :   0.9365 B( 22-C , 24-H ) :   0.9354
B( 22-C , 25-C ) :   1.0558 B( 25-C , 26-H ) :   0.9597 B( 25-C , 27-H ) :   0.9530
B( 25-C , 28-C ) :   1.0776 B( 28-C , 29-H ) :   0.9727 B( 28-C , 30-H ) :   0.9728
B( 28-C , 31-H ) :   0.9735

Dispersion correction           -0.014300964
FINAL SINGLE POINT ENERGY     -1339.881382236299

DIPOLE MOMENT
-------------
                                X             Y             Z
Electronic contribution:      0.45856      15.86297       3.17132
Nuclear contribution   :     -0.57913     -16.40409      -3.07699
                        -----------------------------------------
Total Dipole Moment    :     -0.12057      -0.54112       0.09433
                        -----------------------------------------
Magnitude (a.u.)       :      0.56236
Magnitude (Debye)      :      1.42940

Rotational constants in cm-1:     0.021891     0.007649     0.006592
Rotational constants in MHz :   656.288776   229.316458   197.629823

                             ****ORCA TERMINATED NORMALLY****
TOTAL RUN TIME: 0 days 0 hours 0 minutes 20 seconds 484 msec
