                         Program Version 4.2.1 -  RELEASE  -
|  1> ! wB97X-D3 SP def2-SVP
|  2> %pal
|  3> nprocs 24
|  4> end
|  5>
|  6> * xyz 0 1
|  7> S 	 41.0168 	 -19.4477 	 -112.343
|  8> C 	 40.6354 	 -20.6858 	 -113.487
|  9> C 	 39.4278 	 -21.3421 	 -113.116
| 10> C 	 38.7567 	 -20.653 	 -112.063
| 11> C 	 39.5681 	 -19.6752 	 -111.494
| 12> H 	 37.7515 	 -20.9091 	 -111.704
| 13> C 	 38.9259 	 -22.6514 	 -113.823
| 14> H 	 39.7618 	 -23.3556 	 -113.868
| 15> H 	 38.6042 	 -22.3136 	 -114.836
| 16> C 	 37.7697 	 -23.4214 	 -113.218
| 17> H 	 37.8672 	 -23.4171 	 -112.135
| 18> H 	 36.8774 	 -22.8648 	 -113.456
| 19> C 	 37.5057 	 -24.7819 	 -113.86
| 20> H 	 38.2708 	 -25.4677 	 -113.626
| 21> H 	 36.6503 	 -25.1203 	 -113.335
| 22> H 	 37.416 	 -24.7661 	 -114.922
| 23> S 	 38.8465 	 -17.3738 	 -110.269
| 24> C 	 39.1304 	 -17.147 	 -108.543
| 25> C 	 39.9431 	 -18.1641 	 -108.093
| 26> C 	 40.1324 	 -19.1983 	 -109.014
| 27> C 	 39.433 	 -19.0002 	 -110.188
| 28> H 	 40.2846 	 -18.0844 	 -107.062
| 29> C 	 41.2192 	 -20.3617 	 -108.751
| 30> H 	 42.1131 	 -19.8767 	 -108.438
| 31> H 	 41.511 	 -20.9012 	 -109.733
| 32> C 	 40.8858 	 -21.4997 	 -107.734
| 33> H 	 41.7079 	 -22.1499 	 -107.366
| 34> H 	 40.3039 	 -22.144 	 -108.366
| 35> C 	 40.0933 	 -21.0929 	 -106.447
| 36> H 	 39.0471 	 -20.8743 	 -106.687
| 37> H 	 40.6994 	 -20.2365 	 -106.071
| 38> H 	 39.9822 	 -21.8635 	 -105.722
| 39> H 	 41.1865 	 -21.1132 	 -114.259
| 40> H 	 38.9353 	 -16.2557 	 -108.003
| 41> *
| 42>
| 43>                          ****END OF INPUT****

CARTESIAN COORDINATES (ANGSTROEM)
---------------------------------
  S     41.016800  -19.447700  -112.343000
  C     40.635400  -20.685800  -113.487000
  C     39.427800  -21.342100  -113.116000
  C     38.756700  -20.653000  -112.063000
  C     39.568100  -19.675200  -111.494000
  H     37.751500  -20.909100  -111.704000
  C     38.925900  -22.651400  -113.823000
  H     39.761800  -23.355600  -113.868000
  H     38.604200  -22.313600  -114.836000
  C     37.769700  -23.421400  -113.218000
  H     37.867200  -23.417100  -112.135000
  H     36.877400  -22.864800  -113.456000
  C     37.505700  -24.781900  -113.860000
  H     38.270800  -25.467700  -113.626000
  H     36.650300  -25.120300  -113.335000
  H     37.416000  -24.766100  -114.922000
  S     38.846500  -17.373800  -110.269000
  C     39.130400  -17.147000  -108.543000
  C     39.943100  -18.164100  -108.093000
  C     40.132400  -19.198300  -109.014000
  C     39.433000  -19.000200  -110.188000
  H     40.284600  -18.084400  -107.062000
  C     41.219200  -20.361700  -108.751000
  H     42.113100  -19.876700  -108.438000
  H     41.511000  -20.901200  -109.733000
  C     40.885800  -21.499700  -107.734000
  H     41.707900  -22.149900  -107.366000
  H     40.303900  -22.144000  -108.366000
  C     40.093300  -21.092900  -106.447000
  H     39.047100  -20.874300  -106.687000
  H     40.699400  -20.236500  -106.071000
  H     39.982200  -21.863500  -105.722000
  H     41.186500  -21.113200  -114.259000
  H     38.935300  -16.255700  -108.003000

 Total Charge           Charge          ....    0
 Multiplicity           Mult            ....    1
 Number of Electrons    NEL             ....  134
 Basis Dimension        Dim             ....  322

ORBITAL ENERGIES
----------------

  NO   OCC          E(Eh)            E(eV)
   0   2.0000     -88.970541     -2421.0115
   1   2.0000     -88.962824     -2420.8015
   2   2.0000     -10.324137      -280.9341
   3   2.0000     -10.323981      -280.9298
   4   2.0000     -10.314269      -280.6655
   5   2.0000     -10.308864      -280.5185
   6   2.0000     -10.307302      -280.4759
   7   2.0000     -10.304850      -280.4092
   8   2.0000     -10.301904      -280.3291
   9   2.0000     -10.296211      -280.1742
  10   2.0000     -10.295510      -280.1551
  11   2.0000     -10.291668      -280.0505
  12   2.0000     -10.285290      -279.8770
  13   2.0000     -10.282962      -279.8136
  14   2.0000     -10.276488      -279.6375
  15   2.0000     -10.271757      -279.5087
  16   2.0000      -8.085645      -220.0216
  17   2.0000      -8.077859      -219.8097
  18   2.0000      -6.043958      -164.4645
  19   2.0000      -6.039920      -164.3546
  20   2.0000      -6.036760      -164.2686
  21   2.0000      -6.036266      -164.2551
  22   2.0000      -6.032464      -164.1517
  23   2.0000      -6.028552      -164.0452
  24   2.0000      -1.011711       -27.5300
  25   2.0000      -0.987092       -26.8601
  26   2.0000      -0.913014       -24.8444
  27   2.0000      -0.893426       -24.3114
  28   2.0000      -0.869957       -23.6727
  29   2.0000      -0.849175       -23.1072
  30   2.0000      -0.841366       -22.8947
  31   2.0000      -0.815246       -22.1840
  32   2.0000      -0.784195       -21.3390
  33   2.0000      -0.775073       -21.0908
  34   2.0000      -0.709783       -19.3142
  35   2.0000      -0.692206       -18.8359
  36   2.0000      -0.683921       -18.6104
  37   2.0000      -0.661259       -17.9938
  38   2.0000      -0.637243       -17.3403
  39   2.0000      -0.618199       -16.8220
  40   2.0000      -0.585432       -15.9304
  41   2.0000      -0.576886       -15.6979
  42   2.0000      -0.570308       -15.5189
  43   2.0000      -0.557695       -15.1757
  44   2.0000      -0.537262       -14.6197
  45   2.0000      -0.529970       -14.4212
  46   2.0000      -0.520491       -14.1633
  47   2.0000      -0.506648       -13.7866
  48   2.0000      -0.504102       -13.7173
  49   2.0000      -0.494819       -13.4647
  50   2.0000      -0.487287       -13.2597
  51   2.0000      -0.478539       -13.0217
  52   2.0000      -0.473499       -12.8846
  53   2.0000      -0.469985       -12.7890
  54   2.0000      -0.456637       -12.4257
  55   2.0000      -0.453606       -12.3432
  56   2.0000      -0.436686       -11.8828
  57   2.0000      -0.434707       -11.8290
  58   2.0000      -0.430098       -11.7036
  59   2.0000      -0.420716       -11.4483
  60   2.0000      -0.418970       -11.4007
  61   2.0000      -0.410226       -11.1628
  62   2.0000      -0.408348       -11.1117
  63   2.0000      -0.336636        -9.1603
  64   2.0000      -0.331888        -9.0311
  65   2.0000      -0.316951        -8.6247
  66   2.0000      -0.308320        -8.3898
  67   0.0000       0.042001         1.1429
  68   0.0000       0.051998         1.4149
  69   0.0000       0.108067         2.9406
  70   0.0000       0.127272         3.4632
  71   0.0000       0.136435         3.7126

MULLIKEN ATOMIC CHARGES
-----------------------
   0 S :    0.151259
   1 C :   -0.082579
   2 C :   -0.137904
   3 C :    0.039429
   4 C :   -0.172094
   5 H :    0.021957
   6 C :    0.044660
   7 H :    0.032383
   8 H :    0.044685
   9 C :   -0.112091
  10 H :    0.033338
  11 H :    0.023472
  12 C :    0.012009
  13 H :    0.016033
  14 H :    0.026184
  15 H :    0.030607
  16 S :    0.101240
  17 C :   -0.081566
  18 C :   -0.050925
  19 C :    0.001666
  20 C :   -0.170719
  21 H :    0.026620
  22 C :    0.043706
  23 H :    0.028023
  24 H :    0.049002
  25 C :   -0.087676
  26 H :    0.037176
  27 H :    0.019044
  28 C :   -0.056174
  29 H :    0.041482
  30 H :    0.036977
  31 H :    0.026870
  32 H :    0.017766
  33 H :    0.046141
Sum of atomic charges:   -0.0000000

LOEWDIN ATOMIC CHARGES
----------------------
   0 S :    0.462047
   1 C :   -0.212858
   2 C :   -0.056395
   3 C :   -0.066332
   4 C :   -0.224033
   5 H :    0.036069
   6 C :   -0.036474
   7 H :    0.028644
   8 H :    0.037730
   9 C :   -0.046280
  10 H :    0.023097
  11 H :    0.022128
  12 C :   -0.049095
  13 H :    0.018017
  14 H :    0.028172
  15 H :    0.024894
  16 S :    0.413060
  17 C :   -0.174660
  18 C :   -0.072151
  19 C :   -0.054515
  20 C :   -0.211472
  21 H :    0.034013
  22 C :   -0.028668
  23 H :    0.022128
  24 H :    0.039558
  25 C :   -0.048765
  26 H :    0.029276
  27 H :    0.017266
  28 C :   -0.069772
  29 H :    0.028556
  30 H :    0.027558
  31 H :    0.020175
  32 H :    0.015948
  33 H :    0.023135

  Mayer bond orders larger than 0.100000
B(  0-S ,  1-C ) :   1.1537 B(  0-S ,  4-C ) :   1.1988 B(  1-C ,  2-C ) :   1.5867
B(  1-C ,  4-C ) :   0.1070 B(  1-C , 32-H ) :   0.9780 B(  2-C ,  3-C ) :   1.2947
B(  2-C ,  6-C ) :   0.9940 B(  3-C ,  4-C ) :   1.5362 B(  3-C ,  5-H ) :   0.9897
B(  4-C , 20-C ) :   0.9727 B(  6-C ,  7-H ) :   0.9522 B(  6-C ,  8-H ) :   0.9373
B(  6-C ,  9-C ) :   1.0882 B(  9-C , 10-H ) :   0.9546 B(  9-C , 11-H ) :   0.9478
B(  9-C , 12-C ) :   1.0879 B( 12-C , 13-H ) :   0.9730 B( 12-C , 14-H ) :   0.9704
B( 12-C , 15-H ) :   0.9732 B( 16-S , 17-C ) :   1.1588 B( 16-S , 20-C ) :   1.1703
B( 17-C , 18-C ) :   1.6055 B( 17-C , 20-C ) :   0.1058 B( 17-C , 33-H ) :   0.9731
B( 18-C , 19-C ) :   1.2539 B( 18-C , 21-H ) :   0.9886 B( 19-C , 20-C ) :   1.5968
B( 19-C , 22-C ) :   1.0034 B( 22-C , 23-H ) :   0.9468 B( 22-C , 24-H ) :   0.9475
B( 22-C , 25-C ) :   1.0532 B( 25-C , 26-H ) :   0.9603 B( 25-C , 27-H ) :   0.9610
B( 25-C , 28-C ) :   1.0804 B( 28-C , 29-H ) :   0.9711 B( 28-C , 30-H ) :   0.9758
B( 28-C , 31-H ) :   0.9748

Dispersion correction           -0.014117013
FINAL SINGLE POINT ENERGY     -1339.849655367851

DIPOLE MOMENT
-------------
                                X             Y             Z
Electronic contribution:      4.06719      26.19012      -5.14060
Nuclear contribution   :     -3.99612     -26.73566       5.29234
                        -----------------------------------------
Total Dipole Moment    :      0.07107      -0.54554       0.15174
                        -----------------------------------------
Magnitude (a.u.)       :      0.57069
Magnitude (Debye)      :      1.45058

Rotational constants in cm-1:     0.018771     0.007981     0.006769
Rotational constants in MHz :   562.745377   239.277974   202.933744

                             ****ORCA TERMINATED NORMALLY****
TOTAL RUN TIME: 0 days 0 hours 0 minutes 20 seconds 31 msec
