                         Program Version 4.2.1 -  RELEASE  -
|  1> ! wB97X-D3 SP def2-SVP
|  2> %pal
|  3> nprocs 24
|  4> end
|  5>
|  6> * xyz 0 1
|  7> S 	 -52.0268 	 20.597 	 -88.6511
|  8> C 	 -52.1604 	 22.2084 	 -87.98
|  9> C 	 -52.8326 	 23.1385 	 -88.758
| 10> C 	 -53.1615 	 22.5074 	 -89.9887
| 11> C 	 -52.5704 	 21.2478 	 -90.1829
| 12> H 	 -53.7157 	 22.9527 	 -90.7895
| 13> C 	 -53.0802 	 24.5929 	 -88.366
| 14> H 	 -52.6093 	 24.7571 	 -87.4651
| 15> H 	 -54.1737 	 24.6491 	 -88.1278
| 16> C 	 -52.8537 	 25.656 	 -89.4359
| 17> H 	 -53.5157 	 25.4452 	 -90.3045
| 18> H 	 -53.2657 	 26.5861 	 -88.9771
| 19> C 	 -51.4323 	 25.9481 	 -89.7667
| 20> H 	 -50.8968 	 26.57 	 -89.0841
| 21> H 	 -50.9071 	 25.0102 	 -89.8429
| 22> H 	 -51.3503 	 26.3745 	 -90.743
| 23> S 	 -52.6276 	 18.7015 	 -91.2545
| 24> C 	 -52.0665 	 18.5358 	 -92.8963
| 25> C 	 -51.9813 	 19.7545 	 -93.5437
| 26> C 	 -52.3969 	 20.827 	 -92.6763
| 27> C 	 -52.5524 	 20.4085 	 -91.353
| 28> H 	 -51.8054 	 19.7948 	 -94.5941
| 29> C 	 -52.4049 	 22.315 	 -93.2596
| 30> H 	 -51.7962 	 22.8691 	 -92.4983
| 31> H 	 -53.3744 	 22.8219 	 -93.1594
| 32> C 	 -51.9522 	 22.7327 	 -94.6173
| 33> H 	 -52.4024 	 22.1011 	 -95.4277
| 34> H 	 -50.8596 	 22.5418 	 -94.6451
| 35> C 	 -52.2592 	 24.1863 	 -94.9058
| 36> H 	 -51.8735 	 24.3594 	 -95.9822
| 37> H 	 -51.598 	 24.771 	 -94.2357
| 38> H 	 -53.2799 	 24.5357 	 -94.7343
| 39> H 	 -51.8226 	 22.5285 	 -87.0377
| 40> H 	 -51.9427 	 17.6449 	 -93.46
| 41> *
| 42>
| 43>                          ****END OF INPUT****

CARTESIAN COORDINATES (ANGSTROEM)
---------------------------------
  S    -52.026800   20.597000  -88.651100
  C    -52.160400   22.208400  -87.980000
  C    -52.832600   23.138500  -88.758000
  C    -53.161500   22.507400  -89.988700
  C    -52.570400   21.247800  -90.182900
  H    -53.715700   22.952700  -90.789500
  C    -53.080200   24.592900  -88.366000
  H    -52.609300   24.757100  -87.465100
  H    -54.173700   24.649100  -88.127800
  C    -52.853700   25.656000  -89.435900
  H    -53.515700   25.445200  -90.304500
  H    -53.265700   26.586100  -88.977100
  C    -51.432300   25.948100  -89.766700
  H    -50.896800   26.570000  -89.084100
  H    -50.907100   25.010200  -89.842900
  H    -51.350300   26.374500  -90.743000
  S    -52.627600   18.701500  -91.254500
  C    -52.066500   18.535800  -92.896300
  C    -51.981300   19.754500  -93.543700
  C    -52.396900   20.827000  -92.676300
  C    -52.552400   20.408500  -91.353000
  H    -51.805400   19.794800  -94.594100
  C    -52.404900   22.315000  -93.259600
  H    -51.796200   22.869100  -92.498300
  H    -53.374400   22.821900  -93.159400
  C    -51.952200   22.732700  -94.617300
  H    -52.402400   22.101100  -95.427700
  H    -50.859600   22.541800  -94.645100
  C    -52.259200   24.186300  -94.905800
  H    -51.873500   24.359400  -95.982200
  H    -51.598000   24.771000  -94.235700
  H    -53.279900   24.535700  -94.734300
  H    -51.822600   22.528500  -87.037700
  H    -51.942700   17.644900  -93.460000

 Total Charge           Charge          ....    0
 Multiplicity           Mult            ....    1
 Number of Electrons    NEL             ....  134
 Basis Dimension        Dim             ....  322

ORBITAL ENERGIES
----------------

  NO   OCC          E(Eh)            E(eV)
   0   2.0000     -88.969325     -2420.9784
   1   2.0000     -88.967045     -2420.9164
   2   2.0000     -10.329751      -281.0868
   3   2.0000     -10.324754      -280.9508
   4   2.0000     -10.313620      -280.6479
   5   2.0000     -10.310422      -280.5609
   6   2.0000     -10.306429      -280.4522
   7   2.0000     -10.299894      -280.2744
   8   2.0000     -10.296133      -280.1720
   9   2.0000     -10.292686      -280.0782
  10   2.0000     -10.292372      -280.0697
  11   2.0000     -10.292127      -280.0630
  12   2.0000     -10.291504      -280.0461
  13   2.0000     -10.290978      -280.0318
  14   2.0000     -10.290722      -280.0248
  15   2.0000     -10.268015      -279.4069
  16   2.0000      -8.084654      -219.9946
  17   2.0000      -8.081734      -219.9152
  18   2.0000      -6.043162      -164.4428
  19   2.0000      -6.040209      -164.3624
  20   2.0000      -6.039207      -164.3352
  21   2.0000      -6.036566      -164.2633
  22   2.0000      -6.035261      -164.2278
  23   2.0000      -6.032226      -164.1452
  24   2.0000      -1.010269       -27.4908
  25   2.0000      -0.984745       -26.7963
  26   2.0000      -0.917571       -24.9684
  27   2.0000      -0.913650       -24.8617
  28   2.0000      -0.872805       -23.7502
  29   2.0000      -0.853485       -23.2245
  30   2.0000      -0.845680       -23.0121
  31   2.0000      -0.814436       -22.1619
  32   2.0000      -0.788830       -21.4651
  33   2.0000      -0.774036       -21.0626
  34   2.0000      -0.712387       -19.3850
  35   2.0000      -0.696303       -18.9474
  36   2.0000      -0.692132       -18.8339
  37   2.0000      -0.655007       -17.8237
  38   2.0000      -0.637676       -17.3520
  39   2.0000      -0.624091       -16.9824
  40   2.0000      -0.598816       -16.2946
  41   2.0000      -0.571573       -15.5533
  42   2.0000      -0.569334       -15.4924
  43   2.0000      -0.554050       -15.0765
  44   2.0000      -0.545261       -14.8373
  45   2.0000      -0.527630       -14.3575
  46   2.0000      -0.521770       -14.1981
  47   2.0000      -0.513203       -13.9650
  48   2.0000      -0.505163       -13.7462
  49   2.0000      -0.494898       -13.4668
  50   2.0000      -0.488907       -13.3038
  51   2.0000      -0.479562       -13.0495
  52   2.0000      -0.473332       -12.8800
  53   2.0000      -0.465205       -12.6589
  54   2.0000      -0.460941       -12.5429
  55   2.0000      -0.455527       -12.3955
  56   2.0000      -0.445358       -12.1188
  57   2.0000      -0.439374       -11.9560
  58   2.0000      -0.433185       -11.7876
  59   2.0000      -0.426826       -11.6145
  60   2.0000      -0.423156       -11.5147
  61   2.0000      -0.412526       -11.2254
  62   2.0000      -0.411940       -11.2095
  63   2.0000      -0.353028        -9.6064
  64   2.0000      -0.332223        -9.0402
  65   2.0000      -0.329781        -8.9738
  66   2.0000      -0.277633        -7.5548
  67   0.0000       0.019512         0.5309
  68   0.0000       0.077532         2.1098
  69   0.0000       0.102960         2.8017
  70   0.0000       0.120804         3.2873
  71   0.0000       0.127605         3.4723

MULLIKEN ATOMIC CHARGES
-----------------------
   0 S :    0.111157
   1 C :   -0.086572
   2 C :   -0.103402
   3 C :    0.007530
   4 C :   -0.153337
   5 H :   -0.002810
   6 C :    0.117123
   7 H :   -0.010155
   8 H :    0.041035
   9 C :   -0.097976
  10 H :    0.036149
  11 H :    0.028016
  12 C :    0.000221
  13 H :    0.027444
  14 H :    0.026175
  15 H :    0.021841
  16 S :    0.122575
  17 C :   -0.071058
  18 C :   -0.045743
  19 C :   -0.005779
  20 C :   -0.136568
  21 H :    0.015365
  22 C :   -0.022901
  23 H :    0.038127
  24 H :    0.029532
  25 C :   -0.067586
  26 H :    0.035604
  27 H :    0.035376
  28 C :   -0.071014
  29 H :    0.051739
  30 H :    0.031538
  31 H :    0.045249
  32 H :    0.011504
  33 H :    0.041599
Sum of atomic charges:   -0.0000000

LOEWDIN ATOMIC CHARGES
----------------------
   0 S :    0.400695
   1 C :   -0.191521
   2 C :   -0.059855
   3 C :   -0.063079
   4 C :   -0.180959
   5 H :    0.022767
   6 C :   -0.024737
   7 H :    0.017124
   8 H :    0.044461
   9 C :   -0.045911
  10 H :    0.028183
  11 H :    0.030355
  12 C :   -0.063831
  13 H :    0.024038
  14 H :    0.026226
  15 H :    0.025878
  16 S :    0.423157
  17 C :   -0.184622
  18 C :   -0.068550
  19 C :   -0.046697
  20 C :   -0.218671
  21 H :    0.028447
  22 C :   -0.047922
  23 H :    0.036549
  24 H :    0.025560
  25 C :   -0.054640
  26 H :    0.024097
  27 H :    0.028992
  28 C :   -0.066841
  29 H :    0.041475
  30 H :    0.027363
  31 H :    0.025401
  32 H :    0.012756
  33 H :    0.024313

  Mayer bond orders larger than 0.100000
B(  0-S ,  1-C ) :   1.1336 B(  0-S ,  4-C ) :   1.1388 B(  1-C ,  2-C ) :   1.6220
B(  1-C , 32-H ) :   0.9630 B(  2-C ,  3-C ) :   1.2314 B(  2-C ,  6-C ) :   1.0195
B(  3-C ,  4-C ) :   1.5473 B(  3-C ,  5-H ) :   0.9949 B(  4-C , 20-C ) :   1.1049
B(  6-C ,  7-H ) :   0.9349 B(  6-C ,  8-H ) :   0.9274 B(  6-C ,  9-C ) :   1.0833
B(  9-C , 10-H ) :   0.9529 B(  9-C , 11-H ) :   0.9509 B(  9-C , 12-C ) :   1.0780
B( 12-C , 13-H ) :   0.9721 B( 12-C , 14-H ) :   0.9749 B( 12-C , 15-H ) :   0.9696
B( 16-S , 17-C ) :   1.1466 B( 16-S , 20-C ) :   1.1412 B( 17-C , 18-C ) :   1.6072
B( 17-C , 33-H ) :   0.9680 B( 18-C , 19-C ) :   1.2662 B( 18-C , 21-H ) :   0.9881
B( 19-C , 20-C ) :   1.5614 B( 19-C , 22-C ) :   1.0075 B( 22-C , 23-H ) :   0.9291
B( 22-C , 24-H ) :   0.9417 B( 22-C , 25-C ) :   1.0820 B( 25-C , 26-H ) :   0.9441
B( 25-C , 27-H ) :   0.9454 B( 25-C , 28-C ) :   1.0798 B( 28-C , 29-H ) :   0.9699
B( 28-C , 30-H ) :   0.9744 B( 28-C , 31-H ) :   0.9739

Dispersion correction           -0.014211133
FINAL SINGLE POINT ENERGY     -1339.860591770366

DIPOLE MOMENT
-------------
                                X             Y             Z
Electronic contribution:     -1.56371     -31.07081      12.59784
Nuclear contribution   :      1.51687      31.76071     -12.97227
                        -----------------------------------------
Total Dipole Moment    :     -0.04684       0.68991      -0.37444
                        -----------------------------------------
Magnitude (a.u.)       :      0.78636
Magnitude (Debye)      :      1.99878

Rotational constants in cm-1:     0.015503     0.010786     0.006652
Rotational constants in MHz :   464.756389   323.362300   199.423756

                             ****ORCA TERMINATED NORMALLY****
TOTAL RUN TIME: 0 days 0 hours 0 minutes 22 seconds 296 msec
