                         Program Version 4.2.1 -  RELEASE  -
|  1> ! wB97X-D3 SP def2-SVP
|  2> %pal
|  3> nprocs 24
|  4> end
|  5>
|  6> * xyz 0 1
|  7> S 	 -63.708 	 -48.3302 	 -88.1482
|  8> C 	 -62.3954 	 -49.4007 	 -88.476
|  9> C 	 -62.7923 	 -50.7643 	 -88.2407
| 10> C 	 -64.1137 	 -50.8048 	 -87.7448
| 11> C 	 -64.7988 	 -49.5862 	 -87.6395
| 12> H 	 -64.6825 	 -51.6422 	 -87.4681
| 13> C 	 -61.9096 	 -51.9575 	 -88.5396
| 14> H 	 -60.9416 	 -51.7075 	 -88.0894
| 15> H 	 -61.5939 	 -52.1501 	 -89.5564
| 16> C 	 -62.5168 	 -53.2935 	 -87.9107
| 17> H 	 -62.9977 	 -53.2342 	 -86.8915
| 18> H 	 -63.3638 	 -53.7531 	 -88.5031
| 19> C 	 -61.5955 	 -54.5515 	 -87.9644
| 20> H 	 -62.172 	 -55.4277 	 -87.6176
| 21> H 	 -61.1545 	 -54.8853 	 -88.8915
| 22> H 	 -60.7102 	 -54.3356 	 -87.2571
| 23> S 	 -65.9745 	 -48.8398 	 -85.3375
| 24> C 	 -67.7733 	 -49.0686 	 -85.2797
| 25> C 	 -68.2868 	 -49.5835 	 -86.4144
| 26> C 	 -67.3486 	 -49.7464 	 -87.4729
| 27> C 	 -66.0769 	 -49.3982 	 -87.0306
| 28> H 	 -69.3171 	 -49.9039 	 -86.4969
| 29> C 	 -67.6105 	 -50.3963 	 -88.7747
| 30> H 	 -66.8328 	 -50.1063 	 -89.5281
| 31> H 	 -68.5584 	 -50.0618 	 -89.0463
| 32> C 	 -67.5458 	 -51.9212 	 -88.9449
| 33> H 	 -68.3264 	 -52.3154 	 -88.3059
| 34> H 	 -66.5877 	 -52.3097 	 -88.5078
| 35> C 	 -68.0336 	 -52.493 	 -90.3643
| 36> H 	 -68.9798 	 -52.1043 	 -90.7302
| 37> H 	 -68.2476 	 -53.5233 	 -90.2598
| 38> H 	 -67.3245 	 -52.2828 	 -91.1218
| 39> H 	 -61.4252 	 -49.1295 	 -88.8512
| 40> H 	 -68.257 	 -48.8558 	 -84.3309
| 41> *
| 42>
| 43>                          ****END OF INPUT****

CARTESIAN COORDINATES (ANGSTROEM)
---------------------------------
  S    -63.708000  -48.330200  -88.148200
  C    -62.395400  -49.400700  -88.476000
  C    -62.792300  -50.764300  -88.240700
  C    -64.113700  -50.804800  -87.744800
  C    -64.798800  -49.586200  -87.639500
  H    -64.682500  -51.642200  -87.468100
  C    -61.909600  -51.957500  -88.539600
  H    -60.941600  -51.707500  -88.089400
  H    -61.593900  -52.150100  -89.556400
  C    -62.516800  -53.293500  -87.910700
  H    -62.997700  -53.234200  -86.891500
  H    -63.363800  -53.753100  -88.503100
  C    -61.595500  -54.551500  -87.964400
  H    -62.172000  -55.427700  -87.617600
  H    -61.154500  -54.885300  -88.891500
  H    -60.710200  -54.335600  -87.257100
  S    -65.974500  -48.839800  -85.337500
  C    -67.773300  -49.068600  -85.279700
  C    -68.286800  -49.583500  -86.414400
  C    -67.348600  -49.746400  -87.472900
  C    -66.076900  -49.398200  -87.030600
  H    -69.317100  -49.903900  -86.496900
  C    -67.610500  -50.396300  -88.774700
  H    -66.832800  -50.106300  -89.528100
  H    -68.558400  -50.061800  -89.046300
  C    -67.545800  -51.921200  -88.944900
  H    -68.326400  -52.315400  -88.305900
  H    -66.587700  -52.309700  -88.507800
  C    -68.033600  -52.493000  -90.364300
  H    -68.979800  -52.104300  -90.730200
  H    -68.247600  -53.523300  -90.259800
  H    -67.324500  -52.282800  -91.121800
  H    -61.425200  -49.129500  -88.851200
  H    -68.257000  -48.855800  -84.330900

 Total Charge           Charge          ....    0
 Multiplicity           Mult            ....    1
 Number of Electrons    NEL             ....  134
 Basis Dimension        Dim             ....  322

ORBITAL ENERGIES
----------------

  NO   OCC          E(Eh)            E(eV)
   0   2.0000     -88.967853     -2420.9384
   1   2.0000     -88.963548     -2420.8212
   2   2.0000     -10.324669      -280.9485
   3   2.0000     -10.321815      -280.8709
   4   2.0000     -10.320283      -280.8292
   5   2.0000     -10.315773      -280.7065
   6   2.0000     -10.306071      -280.4425
   7   2.0000     -10.302985      -280.3585
   8   2.0000     -10.301897      -280.3289
   9   2.0000     -10.301372      -280.3146
  10   2.0000     -10.294417      -280.1253
  11   2.0000     -10.293827      -280.1093
  12   2.0000     -10.288412      -279.9619
  13   2.0000     -10.286383      -279.9067
  14   2.0000     -10.286103      -279.8991
  15   2.0000     -10.279529      -279.7202
  16   2.0000      -8.082491      -219.9358
  17   2.0000      -8.077336      -219.7955
  18   2.0000      -6.040856      -164.3801
  19   2.0000      -6.036661      -164.2659
  20   2.0000      -6.035787      -164.2421
  21   2.0000      -6.033761      -164.1870
  22   2.0000      -6.032306      -164.1474
  23   2.0000      -6.027875      -164.0268
  24   2.0000      -1.004432       -27.3320
  25   2.0000      -0.979936       -26.6654
  26   2.0000      -0.906225       -24.6596
  27   2.0000      -0.902207       -24.5503
  28   2.0000      -0.870402       -23.6848
  29   2.0000      -0.848500       -23.0889
  30   2.0000      -0.845337       -23.0028
  31   2.0000      -0.814806       -22.1720
  32   2.0000      -0.785716       -21.3804
  33   2.0000      -0.768951       -20.9242
  34   2.0000      -0.712447       -19.3867
  35   2.0000      -0.700547       -19.0629
  36   2.0000      -0.687655       -18.7120
  37   2.0000      -0.664166       -18.0729
  38   2.0000      -0.648051       -17.6344
  39   2.0000      -0.615248       -16.7418
  40   2.0000      -0.600485       -16.3400
  41   2.0000      -0.570389       -15.5211
  42   2.0000      -0.562110       -15.2958
  43   2.0000      -0.551401       -15.0044
  44   2.0000      -0.526840       -14.3360
  45   2.0000      -0.525071       -14.2879
  46   2.0000      -0.515099       -14.0165
  47   2.0000      -0.512300       -13.9404
  48   2.0000      -0.499461       -13.5910
  49   2.0000      -0.496093       -13.4994
  50   2.0000      -0.490296       -13.3416
  51   2.0000      -0.480516       -13.0755
  52   2.0000      -0.473986       -12.8978
  53   2.0000      -0.469580       -12.7779
  54   2.0000      -0.460664       -12.5353
  55   2.0000      -0.454707       -12.3732
  56   2.0000      -0.444336       -12.0910
  57   2.0000      -0.436136       -11.8679
  58   2.0000      -0.435008       -11.8372
  59   2.0000      -0.429539       -11.6884
  60   2.0000      -0.417623       -11.3641
  61   2.0000      -0.407287       -11.0828
  62   2.0000      -0.399837       -10.8801
  63   2.0000      -0.342519        -9.3204
  64   2.0000      -0.328304        -8.9336
  65   2.0000      -0.317000        -8.6260
  66   2.0000      -0.300707        -8.1826
  67   0.0000       0.035492         0.9658
  68   0.0000       0.053690         1.4610
  69   0.0000       0.103256         2.8097
  70   0.0000       0.123679         3.3655
  71   0.0000       0.131806         3.5866

MULLIKEN ATOMIC CHARGES
-----------------------
   0 S :    0.136953
   1 C :   -0.122353
   2 C :   -0.075112
   3 C :    0.048612
   4 C :   -0.188949
   5 H :   -0.011719
   6 C :    0.103424
   7 H :    0.028068
   8 H :    0.039559
   9 C :   -0.151725
  10 H :    0.054860
  11 H :    0.037558
  12 C :   -0.072611
  13 H :    0.036183
  14 H :    0.032878
  15 H :    0.036733
  16 S :    0.095288
  17 C :   -0.092051
  18 C :   -0.013870
  19 C :    0.000530
  20 C :   -0.187946
  21 H :    0.017530
  22 C :    0.084532
  23 H :    0.039171
  24 H :   -0.000230
  25 C :   -0.087272
  26 H :    0.012094
  27 H :    0.034130
  28 C :   -0.025218
  29 H :    0.022684
  30 H :    0.030579
  31 H :    0.034176
  32 H :    0.043759
  33 H :    0.059756
Sum of atomic charges:    0.0000000

LOEWDIN ATOMIC CHARGES
----------------------
   0 S :    0.438533
   1 C :   -0.209193
   2 C :   -0.063099
   3 C :   -0.057028
   4 C :   -0.220787
   5 H :    0.018344
   6 C :   -0.031063
   7 H :    0.035741
   8 H :    0.034720
   9 C :   -0.055902
  10 H :    0.033863
  11 H :    0.029949
  12 C :   -0.076370
  13 H :    0.029151
  14 H :    0.019826
  15 H :    0.027558
  16 S :    0.363910
  17 C :   -0.154117
  18 C :   -0.067594
  19 C :   -0.049920
  20 C :   -0.182430
  21 H :    0.034305
  22 C :   -0.035320
  23 H :    0.041482
  24 H :    0.020746
  25 C :   -0.037600
  26 H :    0.016821
  27 H :    0.027147
  28 C :   -0.055822
  29 H :    0.027580
  30 H :    0.024943
  31 H :    0.019578
  32 H :    0.025548
  33 H :    0.026501

  Mayer bond orders larger than 0.100000
B(  0-S ,  1-C ) :   1.1868 B(  0-S ,  4-C ) :   1.1656 B(  1-C ,  2-C ) :   1.5263
B(  1-C ,  4-C ) :   0.1178 B(  1-C , 32-H ) :   0.9757 B(  2-C ,  3-C ) :   1.3063
B(  2-C ,  6-C ) :   1.0084 B(  3-C ,  4-C ) :   1.5162 B(  3-C ,  5-H ) :   0.9937
B(  4-C , 20-C ) :   1.0432 B(  6-C ,  7-H ) :   0.9393 B(  6-C ,  8-H ) :   0.9397
B(  6-C ,  9-C ) :   1.0566 B(  9-C , 10-H ) :   0.9564 B(  9-C , 11-H ) :   0.9563
B(  9-C , 12-C ) :   1.0723 B( 12-C , 13-H ) :   0.9748 B( 12-C , 14-H ) :   0.9771
B( 12-C , 15-H ) :   0.9760 B( 16-S , 17-C ) :   1.1244 B( 16-S , 20-C ) :   1.1380
B( 17-C , 18-C ) :   1.6400 B( 17-C , 33-H ) :   0.9700 B( 18-C , 19-C ) :   1.2026
B( 18-C , 21-H ) :   0.9884 B( 19-C , 20-C ) :   1.6150 B( 19-C , 22-C ) :   1.0709
B( 22-C , 23-H ) :   0.9241 B( 22-C , 24-H ) :   0.9192 B( 22-C , 25-C ) :   1.0684
B( 25-C , 26-H ) :   0.9546 B( 25-C , 27-H ) :   0.9522 B( 25-C , 28-C ) :   1.0666
B( 28-C , 29-H ) :   0.9733 B( 28-C , 30-H ) :   0.9767 B( 28-C , 31-H ) :   0.9805

Dispersion correction           -0.014305110
FINAL SINGLE POINT ENERGY     -1339.852719487045

DIPOLE MOMENT
-------------
                                X             Y             Z
Electronic contribution:     -0.45705      27.86393      12.69665
Nuclear contribution   :      0.28305     -28.55371     -12.94882
                        -----------------------------------------
Total Dipole Moment    :     -0.17400      -0.68977      -0.25217
                        -----------------------------------------
Magnitude (a.u.)       :      0.75475
Magnitude (Debye)      :      1.91843

Rotational constants in cm-1:     0.015450     0.009306     0.007307
Rotational constants in MHz :   463.179730   278.995434   219.054392

                             ****ORCA TERMINATED NORMALLY****
TOTAL RUN TIME: 0 days 0 hours 0 minutes 20 seconds 459 msec
