                         Program Version 4.2.1 -  RELEASE  -
|  1> ! wB97X-D3 SP def2-SVP
|  2> %pal
|  3> nprocs 24
|  4> end
|  5>
|  6> * xyz 0 1
|  7> S 	 -115.487 	 24.1162 	 -117.571
|  8> C 	 -117.025 	 23.7806 	 -118.115
|  9> C 	 -117.856 	 24.9028 	 -118.259
| 10> C 	 -117.141 	 26.0623 	 -117.899
| 11> C 	 -115.865 	 25.8449 	 -117.423
| 12> H 	 -117.652 	 27.0197 	 -117.87
| 13> C 	 -119.343 	 24.7699 	 -118.628
| 14> H 	 -119.617 	 24.3449 	 -117.743
| 15> H 	 -119.511 	 23.972 	 -119.356
| 16> C 	 -120.133 	 26.0555 	 -118.9
| 17> H 	 -119.505 	 26.7812 	 -119.507
| 18> H 	 -121.035 	 25.8091 	 -119.505
| 19> C 	 -120.779 	 26.6322 	 -117.587
| 20> H 	 -121.652 	 26.0918 	 -117.265
| 21> H 	 -120.158 	 26.5928 	 -116.754
| 22> H 	 -121.192 	 27.628 	 -117.72
| 23> S 	 -114.122 	 26.6348 	 -115.527
| 24> C 	 -113.217 	 28.0809 	 -115.808
| 25> C 	 -113.231 	 28.4492 	 -117.152
| 26> C 	 -114.115 	 27.6591 	 -117.881
| 27> C 	 -114.813 	 26.7584 	 -117.108
| 28> H 	 -112.587 	 29.2416 	 -117.54
| 29> C 	 -114.273 	 28.0089 	 -119.373
| 30> H 	 -115.023 	 27.4086 	 -119.885
| 31> H 	 -113.288 	 27.797 	 -119.779
| 32> C 	 -114.734 	 29.4372 	 -119.757
| 33> H 	 -114.836 	 29.4289 	 -120.803
| 34> H 	 -113.868 	 30.0085 	 -119.544
| 35> C 	 -115.966 	 30.0106 	 -119.042
| 36> H 	 -116.501 	 30.6614 	 -119.744
| 37> H 	 -115.884 	 30.4379 	 -118.038
| 38> H 	 -116.444 	 29.073 	 -118.844
| 39> H 	 -117.425 	 22.7731 	 -118.297
| 40> H 	 -112.784 	 28.6969 	 -115.038
| 41> *
| 42>
| 43>                          ****END OF INPUT****

CARTESIAN COORDINATES (ANGSTROEM)
---------------------------------
  S    -115.487000   24.116200  -117.571000
  C    -117.025000   23.780600  -118.115000
  C    -117.856000   24.902800  -118.259000
  C    -117.141000   26.062300  -117.899000
  C    -115.865000   25.844900  -117.423000
  H    -117.652000   27.019700  -117.870000
  C    -119.343000   24.769900  -118.628000
  H    -119.617000   24.344900  -117.743000
  H    -119.511000   23.972000  -119.356000
  C    -120.133000   26.055500  -118.900000
  H    -119.505000   26.781200  -119.507000
  H    -121.035000   25.809100  -119.505000
  C    -120.779000   26.632200  -117.587000
  H    -121.652000   26.091800  -117.265000
  H    -120.158000   26.592800  -116.754000
  H    -121.192000   27.628000  -117.720000
  S    -114.122000   26.634800  -115.527000
  C    -113.217000   28.080900  -115.808000
  C    -113.231000   28.449200  -117.152000
  C    -114.115000   27.659100  -117.881000
  C    -114.813000   26.758400  -117.108000
  H    -112.587000   29.241600  -117.540000
  C    -114.273000   28.008900  -119.373000
  H    -115.023000   27.408600  -119.885000
  H    -113.288000   27.797000  -119.779000
  C    -114.734000   29.437200  -119.757000
  H    -114.836000   29.428900  -120.803000
  H    -113.868000   30.008500  -119.544000
  C    -115.966000   30.010600  -119.042000
  H    -116.501000   30.661400  -119.744000
  H    -115.884000   30.437900  -118.038000
  H    -116.444000   29.073000  -118.844000
  H    -117.425000   22.773100  -118.297000
  H    -112.784000   28.696900  -115.038000

 Total Charge           Charge          ....    0
 Multiplicity           Mult            ....    1
 Number of Electrons    NEL             ....  134
 Basis Dimension        Dim             ....  322

ORBITAL ENERGIES
----------------

  NO   OCC          E(Eh)            E(eV)
   0   2.0000     -88.964438     -2420.8454
   1   2.0000     -88.963586     -2420.8223
   2   2.0000     -10.322624      -280.8929
   3   2.0000     -10.318224      -280.7731
   4   2.0000     -10.314389      -280.6688
   5   2.0000     -10.304804      -280.4080
   6   2.0000     -10.300018      -280.2777
   7   2.0000     -10.298481      -280.2359
   8   2.0000     -10.297496      -280.2091
   9   2.0000     -10.291628      -280.0494
  10   2.0000     -10.290507      -280.0189
  11   2.0000     -10.287874      -279.9473
  12   2.0000     -10.287558      -279.9387
  13   2.0000     -10.277166      -279.6559
  14   2.0000     -10.274620      -279.5866
  15   2.0000     -10.274335      -279.5789
  16   2.0000      -8.080149      -219.8720
  17   2.0000      -8.079445      -219.8529
  18   2.0000      -6.038414      -164.3136
  19   2.0000      -6.037624      -164.2921
  20   2.0000      -6.034655      -164.2113
  21   2.0000      -6.033756      -164.1868
  22   2.0000      -6.030975      -164.1112
  23   2.0000      -6.030531      -164.0991
  24   2.0000      -1.012728       -27.5577
  25   2.0000      -0.990281       -26.9469
  26   2.0000      -0.911189       -24.7947
  27   2.0000      -0.908607       -24.7244
  28   2.0000      -0.870466       -23.6866
  29   2.0000      -0.851680       -23.1754
  30   2.0000      -0.847652       -23.0658
  31   2.0000      -0.815671       -22.1955
  32   2.0000      -0.786232       -21.3944
  33   2.0000      -0.772045       -21.0084
  34   2.0000      -0.716331       -19.4924
  35   2.0000      -0.697785       -18.9877
  36   2.0000      -0.688319       -18.7301
  37   2.0000      -0.661970       -18.0131
  38   2.0000      -0.638516       -17.3749
  39   2.0000      -0.626175       -17.0391
  40   2.0000      -0.595342       -16.2001
  41   2.0000      -0.561995       -15.2927
  42   2.0000      -0.556380       -15.1399
  43   2.0000      -0.552167       -15.0252
  44   2.0000      -0.548315       -14.9204
  45   2.0000      -0.535266       -14.5653
  46   2.0000      -0.518149       -14.0996
  47   2.0000      -0.517012       -14.0686
  48   2.0000      -0.501452       -13.6452
  49   2.0000      -0.490028       -13.3344
  50   2.0000      -0.489012       -13.3067
  51   2.0000      -0.484636       -13.1876
  52   2.0000      -0.470222       -12.7954
  53   2.0000      -0.469193       -12.7674
  54   2.0000      -0.458843       -12.4858
  55   2.0000      -0.449623       -12.2349
  56   2.0000      -0.443493       -12.0681
  57   2.0000      -0.441231       -12.0065
  58   2.0000      -0.438025       -11.9193
  59   2.0000      -0.426599       -11.6084
  60   2.0000      -0.421968       -11.4823
  61   2.0000      -0.415515       -11.3067
  62   2.0000      -0.398129       -10.8336
  63   2.0000      -0.342598        -9.3226
  64   2.0000      -0.331572        -9.0225
  65   2.0000      -0.325107        -8.8466
  66   2.0000      -0.288250        -7.8437
  67   0.0000       0.038580         1.0498
  68   0.0000       0.057141         1.5549
  69   0.0000       0.115926         3.1545
  70   0.0000       0.128129         3.4866
  71   0.0000       0.137204         3.7335

MULLIKEN ATOMIC CHARGES
-----------------------
   0 S :    0.132453
   1 C :   -0.128778
   2 C :   -0.123783
   3 C :    0.011466
   4 C :   -0.148122
   5 H :    0.024217
   6 C :    0.103753
   7 H :    0.014655
   8 H :    0.031198
   9 C :   -0.101170
  10 H :    0.052292
  11 H :    0.039622
  12 C :   -0.034920
  13 H :    0.020914
  14 H :    0.021983
  15 H :    0.031238
  16 S :    0.120068
  17 C :   -0.088675
  18 C :   -0.058894
  19 C :    0.007726
  20 C :   -0.201858
  21 H :    0.029082
  22 C :    0.039866
  23 H :    0.027031
  24 H :    0.035251
  25 C :   -0.054967
  26 H :    0.022613
  27 H :    0.004989
  28 C :   -0.018468
  29 H :    0.044827
  30 H :    0.042446
  31 H :    0.001008
  32 H :    0.044803
  33 H :    0.056136
Sum of atomic charges:    0.0000000

LOEWDIN ATOMIC CHARGES
----------------------
   0 S :    0.437058
   1 C :   -0.232105
   2 C :   -0.062494
   3 C :   -0.066369
   4 C :   -0.197560
   5 H :    0.031924
   6 C :   -0.030487
   7 H :    0.025585
   8 H :    0.034632
   9 C :   -0.045415
  10 H :    0.031376
  11 H :    0.034013
  12 C :   -0.063594
  13 H :    0.025967
  14 H :    0.013370
  15 H :    0.027873
  16 S :    0.426714
  17 C :   -0.185527
  18 C :   -0.072716
  19 C :   -0.055110
  20 C :   -0.217564
  21 H :    0.035786
  22 C :   -0.029233
  23 H :    0.025951
  24 H :    0.035653
  25 C :   -0.033921
  26 H :    0.021824
  27 H :    0.009842
  28 C :   -0.068289
  29 H :    0.031717
  30 H :    0.032114
  31 H :    0.023560
  32 H :    0.028695
  33 H :    0.026730

  Mayer bond orders larger than 0.100000
B(  0-S ,  1-C ) :   1.1822 B(  0-S ,  4-C ) :   1.1628 B(  1-C ,  2-C ) :   1.5749
B(  1-C ,  4-C ) :   0.1117 B(  1-C , 32-H ) :   0.9632 B(  2-C ,  3-C ) :   1.3050
B(  2-C ,  6-C ) :   0.9784 B(  3-C ,  4-C ) :   1.5509 B(  3-C ,  5-H ) :   0.9891
B(  4-C , 20-C ) :   1.0260 B(  6-C ,  7-H ) :   0.9391 B(  6-C ,  8-H ) :   0.9409
B(  6-C ,  9-C ) :   1.0599 B(  9-C , 10-H ) :   0.9631 B(  9-C , 11-H ) :   0.9566
B(  9-C , 12-C ) :   1.0642 B( 12-C , 13-H ) :   0.9729 B( 12-C , 14-H ) :   0.9821
B( 12-C , 15-H ) :   0.9743 B( 16-S , 17-C ) :   1.1757 B( 16-S , 20-C ) :   1.1492
B( 17-C , 18-C ) :   1.5805 B( 17-C , 20-C ) :   0.1100 B( 17-C , 33-H ) :   0.9692
B( 18-C , 19-C ) :   1.2473 B( 18-C , 21-H ) :   0.9936 B( 19-C , 20-C ) :   1.5771
B( 19-C , 22-C ) :   1.0382 B( 22-C , 23-H ) :   0.9372 B( 22-C , 24-H ) :   0.9355
B( 22-C , 25-C ) :   1.0825 B( 25-C , 26-H ) :   0.9560 B( 25-C , 27-H ) :   0.9494
B( 25-C , 28-C ) :   1.0640 B( 28-C , 29-H ) :   0.9737 B( 28-C , 30-H ) :   0.9682
B( 28-C , 31-H ) :   0.9771

Dispersion correction           -0.014937164
FINAL SINGLE POINT ENERGY     -1339.851604407581

DIPOLE MOMENT
-------------
                                X             Y             Z
Electronic contribution:     19.43074     -14.81111      13.30747
Nuclear contribution   :    -19.84175      15.10357     -13.62015
                        -----------------------------------------
Total Dipole Moment    :     -0.41101       0.29246      -0.31268
                        -----------------------------------------
Magnitude (a.u.)       :      0.59349
Magnitude (Debye)      :      1.50854

Rotational constants in cm-1:     0.017802     0.009420     0.007450
Rotational constants in MHz :   533.691233   282.401509   223.339550

                             ****ORCA TERMINATED NORMALLY****
TOTAL RUN TIME: 0 days 0 hours 0 minutes 21 seconds 157 msec
