                         Program Version 4.2.1 -  RELEASE  -
|  1> ! wB97X-D3 SP def2-SVP
|  2> %pal
|  3> nprocs 24
|  4> end
|  5>
|  6> * xyz 0 1
|  7> S 	 46.0077 	 -17.9798 	 -104.855
|  8> C 	 44.6857 	 -17.6957 	 -105.967
|  9> C 	 45.1894 	 -17.2239 	 -107.162
| 10> C 	 46.5957 	 -17.0694 	 -107.238
| 11> C 	 47.242 	 -17.5019 	 -106.063
| 12> H 	 47.1809 	 -16.7136 	 -108.065
| 13> C 	 44.3383 	 -16.6347 	 -108.302
| 14> H 	 43.4394 	 -17.283 	 -108.436
| 15> H 	 44.9084 	 -16.6894 	 -109.249
| 16> C 	 43.8803 	 -15.1864 	 -108.039
| 17> H 	 43.3098 	 -15.1174 	 -107.1
| 18> H 	 44.7328 	 -14.4588 	 -107.991
| 19> C 	 42.9273 	 -14.5621 	 -109.077
| 20> H 	 42.391 	 -13.6334 	 -108.791
| 21> H 	 43.4103 	 -14.4846 	 -110.101
| 22> H 	 42.1403 	 -15.2127 	 -109.335
| 23> S 	 49.0022 	 -16.2425 	 -104.168
| 24> C 	 50.7384 	 -16.5873 	 -104.362
| 25> C 	 50.9119 	 -17.2178 	 -105.6
| 26> C 	 49.7587 	 -17.4939 	 -106.305
| 27> C 	 48.5647 	 -17.236 	 -105.618
| 28> H 	 51.9128 	 -17.4277 	 -105.88
| 29> C 	 49.9159 	 -18.2337 	 -107.639
| 30> H 	 50.627 	 -17.6148 	 -108.217
| 31> H 	 48.9996 	 -18.1122 	 -108.204
| 32> C 	 50.2734 	 -19.6832 	 -107.684
| 33> H 	 51.2829 	 -19.7693 	 -107.186
| 34> H 	 50.3787 	 -20.0432 	 -108.698
| 35> C 	 49.3428 	 -20.5901 	 -106.922
| 36> H 	 48.3193 	 -20.443 	 -107.142
| 37> H 	 49.4961 	 -20.3004 	 -105.868
| 38> H 	 49.5617 	 -21.7141 	 -107.094
| 39> H 	 43.6121 	 -17.7471 	 -105.703
| 40> H 	 51.4694 	 -16.1699 	 -103.717
| 41> *
| 42>
| 43>                          ****END OF INPUT****

CARTESIAN COORDINATES (ANGSTROEM)
---------------------------------
  S     46.007700  -17.979800  -104.855000
  C     44.685700  -17.695700  -105.967000
  C     45.189400  -17.223900  -107.162000
  C     46.595700  -17.069400  -107.238000
  C     47.242000  -17.501900  -106.063000
  H     47.180900  -16.713600  -108.065000
  C     44.338300  -16.634700  -108.302000
  H     43.439400  -17.283000  -108.436000
  H     44.908400  -16.689400  -109.249000
  C     43.880300  -15.186400  -108.039000
  H     43.309800  -15.117400  -107.100000
  H     44.732800  -14.458800  -107.991000
  C     42.927300  -14.562100  -109.077000
  H     42.391000  -13.633400  -108.791000
  H     43.410300  -14.484600  -110.101000
  H     42.140300  -15.212700  -109.335000
  S     49.002200  -16.242500  -104.168000
  C     50.738400  -16.587300  -104.362000
  C     50.911900  -17.217800  -105.600000
  C     49.758700  -17.493900  -106.305000
  C     48.564700  -17.236000  -105.618000
  H     51.912800  -17.427700  -105.880000
  C     49.915900  -18.233700  -107.639000
  H     50.627000  -17.614800  -108.217000
  H     48.999600  -18.112200  -108.204000
  C     50.273400  -19.683200  -107.684000
  H     51.282900  -19.769300  -107.186000
  H     50.378700  -20.043200  -108.698000
  C     49.342800  -20.590100  -106.922000
  H     48.319300  -20.443000  -107.142000
  H     49.496100  -20.300400  -105.868000
  H     49.561700  -21.714100  -107.094000
  H     43.612100  -17.747100  -105.703000
  H     51.469400  -16.169900  -103.717000

 Total Charge           Charge          ....    0
 Multiplicity           Mult            ....    1
 Number of Electrons    NEL             ....  134
 Basis Dimension        Dim             ....  322

ORBITAL ENERGIES
----------------

  NO   OCC          E(Eh)            E(eV)
   0   2.0000     -88.968296     -2420.9504
   1   2.0000     -88.967270     -2420.9225
   2   2.0000     -10.334803      -281.2243
   3   2.0000     -10.332507      -281.1618
   4   2.0000     -10.321850      -280.8718
   5   2.0000     -10.320973      -280.8480
   6   2.0000     -10.304203      -280.3916
   7   2.0000     -10.301764      -280.3252
   8   2.0000     -10.300673      -280.2956
   9   2.0000     -10.300609      -280.2938
  10   2.0000     -10.293020      -280.0873
  11   2.0000     -10.291211      -280.0381
  12   2.0000     -10.288847      -279.9737
  13   2.0000     -10.282883      -279.8115
  14   2.0000     -10.279773      -279.7268
  15   2.0000     -10.272292      -279.5233
  16   2.0000      -8.082328      -219.9313
  17   2.0000      -8.080437      -219.8799
  18   2.0000      -6.040922      -164.3819
  19   2.0000      -6.039031      -164.3304
  20   2.0000      -6.036772      -164.2689
  21   2.0000      -6.035134      -164.2243
  22   2.0000      -6.033168      -164.1708
  23   2.0000      -6.031204      -164.1174
  24   2.0000      -1.003546       -27.3079
  25   2.0000      -0.981367       -26.7044
  26   2.0000      -0.911608       -24.8061
  27   2.0000      -0.906637       -24.6708
  28   2.0000      -0.872268       -23.7356
  29   2.0000      -0.851262       -23.1640
  30   2.0000      -0.845195       -22.9989
  31   2.0000      -0.811522       -22.0826
  32   2.0000      -0.782768       -21.3002
  33   2.0000      -0.770831       -20.9754
  34   2.0000      -0.711660       -19.3653
  35   2.0000      -0.698049       -18.9949
  36   2.0000      -0.691183       -18.8080
  37   2.0000      -0.660524       -17.9738
  38   2.0000      -0.643671       -17.5152
  39   2.0000      -0.618405       -16.8277
  40   2.0000      -0.598975       -16.2989
  41   2.0000      -0.569635       -15.5006
  42   2.0000      -0.557368       -15.1668
  43   2.0000      -0.555781       -15.1236
  44   2.0000      -0.540482       -14.7073
  45   2.0000      -0.523501       -14.2452
  46   2.0000      -0.519788       -14.1442
  47   2.0000      -0.514376       -13.9969
  48   2.0000      -0.507501       -13.8098
  49   2.0000      -0.502941       -13.6857
  50   2.0000      -0.494201       -13.4479
  51   2.0000      -0.478194       -13.0123
  52   2.0000      -0.468793       -12.7565
  53   2.0000      -0.460911       -12.5420
  54   2.0000      -0.455501       -12.3948
  55   2.0000      -0.444740       -12.1020
  56   2.0000      -0.436869       -11.8878
  57   2.0000      -0.435791       -11.8585
  58   2.0000      -0.432954       -11.7813
  59   2.0000      -0.419559       -11.4168
  60   2.0000      -0.415835       -11.3155
  61   2.0000      -0.411299       -11.1920
  62   2.0000      -0.407498       -11.0886
  63   2.0000      -0.351219        -9.5572
  64   2.0000      -0.335450        -9.1281
  65   2.0000      -0.331265        -9.0142
  66   2.0000      -0.287330        -7.8186
  67   0.0000       0.014065         0.3827
  68   0.0000       0.062078         1.6892
  69   0.0000       0.109286         2.9738
  70   0.0000       0.119393         3.2489
  71   0.0000       0.123915         3.3719

MULLIKEN ATOMIC CHARGES
-----------------------
   0 S :    0.101911
   1 C :   -0.126845
   2 C :   -0.073892
   3 C :    0.045029
   4 C :   -0.192342
   5 H :    0.023072
   6 C :    0.039146
   7 H :    0.030678
   8 H :    0.027366
   9 C :   -0.073973
  10 H :    0.030217
  11 H :    0.041124
  12 C :   -0.055664
  13 H :    0.047220
  14 H :    0.026949
  15 H :    0.004595
  16 S :    0.099563
  17 C :   -0.096822
  18 C :   -0.022994
  19 C :   -0.041186
  20 C :   -0.118088
  21 H :    0.009555
  22 C :    0.069603
  23 H :    0.029432
  24 H :   -0.001552
  25 C :   -0.045299
  26 H :    0.022852
  27 H :    0.028060
  28 C :   -0.069820
  29 H :    0.027276
  30 H :    0.044113
  31 H :    0.046556
  32 H :    0.067431
  33 H :    0.056731
Sum of atomic charges:    0.0000000

LOEWDIN ATOMIC CHARGES
----------------------
   0 S :    0.399937
   1 C :   -0.199327
   2 C :   -0.068515
   3 C :   -0.049397
   4 C :   -0.180684
   5 H :    0.031700
   6 C :   -0.033025
   7 H :    0.032523
   8 H :    0.030250
   9 C :   -0.045230
  10 H :    0.026047
  11 H :    0.030242
  12 C :   -0.078151
  13 H :    0.033284
  14 H :    0.028631
  15 H :    0.013200
  16 S :    0.375391
  17 C :   -0.166854
  18 C :   -0.067028
  19 C :   -0.059435
  20 C :   -0.188398
  21 H :    0.026940
  22 C :   -0.034898
  23 H :    0.036110
  24 H :    0.022307
  25 C :   -0.043883
  26 H :    0.025545
  27 H :    0.023099
  28 C :   -0.069224
  29 H :    0.016528
  30 H :    0.031456
  31 H :    0.036579
  32 H :    0.039703
  33 H :    0.024579

  Mayer bond orders larger than 0.100000
B(  0-S ,  1-C ) :   1.1419 B(  0-S ,  4-C ) :   1.1481 B(  1-C ,  2-C ) :   1.5871
B(  1-C , 32-H ) :   0.9678 B(  2-C ,  3-C ) :   1.2681 B(  2-C ,  6-C ) :   1.0306
B(  3-C ,  4-C ) :   1.5292 B(  3-C ,  5-H ) :   0.9886 B(  4-C , 20-C ) :   1.1055
B(  6-C ,  7-H ) :   0.9400 B(  6-C ,  8-H ) :   0.9434 B(  6-C ,  9-C ) :   1.0619
B(  9-C , 10-H ) :   0.9566 B(  9-C , 11-H ) :   0.9573 B(  9-C , 12-C ) :   1.0784
B( 12-C , 13-H ) :   0.9749 B( 12-C , 14-H ) :   0.9723 B( 12-C , 15-H ) :   0.9707
B( 16-S , 17-C ) :   1.1559 B( 16-S , 20-C ) :   1.1289 B( 17-C , 18-C ) :   1.5601
B( 17-C , 20-C ) :   0.1147 B( 17-C , 33-H ) :   0.9746 B( 18-C , 19-C ) :   1.2761
B( 18-C , 21-H ) :   1.0020 B( 19-C , 20-C ) :   1.5329 B( 19-C , 22-C ) :   1.0404
B( 22-C , 23-H ) :   0.9304 B( 22-C , 24-H ) :   0.9241 B( 22-C , 25-C ) :   1.0866
B( 25-C , 26-H ) :   0.9531 B( 25-C , 27-H ) :   0.9502 B( 25-C , 28-C ) :   1.0725
B( 28-C , 29-H ) :   0.9766 B( 28-C , 30-H ) :   0.9729 B( 28-C , 31-H ) :   0.9729

Dispersion correction           -0.014682039
FINAL SINGLE POINT ENERGY     -1339.873042048057

DIPOLE MOMENT
-------------
                                X             Y             Z
Electronic contribution:      6.32444       1.74181      21.31441
Nuclear contribution   :     -6.32197      -1.58246     -21.88026
                        -----------------------------------------
Total Dipole Moment    :      0.00247       0.15935      -0.56585
                        -----------------------------------------
Magnitude (a.u.)       :      0.58786
Magnitude (Debye)      :      1.49423

Rotational constants in cm-1:     0.020531     0.007717     0.007021
Rotational constants in MHz :   615.515268   231.356678   210.497968

                             ****ORCA TERMINATED NORMALLY****
TOTAL RUN TIME: 0 days 0 hours 0 minutes 21 seconds 538 msec
