                         Program Version 4.2.1 -  RELEASE  -
|  1> ! wB97X-D3 SP def2-SVP
|  2> %pal
|  3> nprocs 24
|  4> end
|  5>
|  6> * xyz 0 1
|  7> S 	 40.4056 	 -20.2956 	 -126.749
|  8> C 	 40.9195 	 -18.8579 	 -127.693
|  9> C 	 41.3909 	 -17.9246 	 -126.765
| 10> C 	 41.6713 	 -18.4918 	 -125.496
| 11> C 	 41.2708 	 -19.7823 	 -125.307
| 12> H 	 41.9055 	 -17.8642 	 -124.654
| 13> C 	 41.4261 	 -16.4166 	 -126.969
| 14> H 	 41.7479 	 -16.1513 	 -127.938
| 15> H 	 42.3452 	 -16.0481 	 -126.551
| 16> C 	 40.2193 	 -15.6432 	 -126.376
| 17> H 	 40.0956 	 -15.6557 	 -125.314
| 18> H 	 40.4511 	 -14.5861 	 -126.684
| 19> C 	 38.9327 	 -16.1547 	 -127.039
| 20> H 	 37.9936 	 -15.6028 	 -126.719
| 21> H 	 38.9645 	 -16.1432 	 -128.112
| 22> H 	 38.6764 	 -17.0991 	 -126.76
| 23> S 	 41.3191 	 -22.4296 	 -124.393
| 24> C 	 41.478 	 -22.7586 	 -122.708
| 25> C 	 41.5422 	 -21.6141 	 -122
| 26> C 	 41.4712 	 -20.4012 	 -122.81
| 27> C 	 41.3001 	 -20.6812 	 -124.137
| 28> H 	 41.6381 	 -21.5927 	 -120.893
| 29> C 	 41.6864 	 -19.0779 	 -122.098
| 30> H 	 42.322 	 -18.4505 	 -122.577
| 31> H 	 42.0377 	 -19.3551 	 -121.132
| 32> C 	 40.4476 	 -18.2098 	 -121.925
| 33> H 	 39.6145 	 -18.5745 	 -121.382
| 34> H 	 40.1022 	 -17.8946 	 -122.93
| 35> C 	 40.8578 	 -16.8654 	 -121.323
| 36> H 	 41.5511 	 -16.274 	 -121.905
| 37> H 	 41.1694 	 -16.9831 	 -120.282
| 38> H 	 40.0146 	 -16.1778 	 -121.291
| 39> H 	 40.6343 	 -18.5856 	 -128.677
| 40> H 	 41.4848 	 -23.6921 	 -122.261
| 41> *
| 42>
| 43>                          ****END OF INPUT****

CARTESIAN COORDINATES (ANGSTROEM)
---------------------------------
  S     40.405600  -20.295600  -126.749000
  C     40.919500  -18.857900  -127.693000
  C     41.390900  -17.924600  -126.765000
  C     41.671300  -18.491800  -125.496000
  C     41.270800  -19.782300  -125.307000
  H     41.905500  -17.864200  -124.654000
  C     41.426100  -16.416600  -126.969000
  H     41.747900  -16.151300  -127.938000
  H     42.345200  -16.048100  -126.551000
  C     40.219300  -15.643200  -126.376000
  H     40.095600  -15.655700  -125.314000
  H     40.451100  -14.586100  -126.684000
  C     38.932700  -16.154700  -127.039000
  H     37.993600  -15.602800  -126.719000
  H     38.964500  -16.143200  -128.112000
  H     38.676400  -17.099100  -126.760000
  S     41.319100  -22.429600  -124.393000
  C     41.478000  -22.758600  -122.708000
  C     41.542200  -21.614100  -122.000000
  C     41.471200  -20.401200  -122.810000
  C     41.300100  -20.681200  -124.137000
  H     41.638100  -21.592700  -120.893000
  C     41.686400  -19.077900  -122.098000
  H     42.322000  -18.450500  -122.577000
  H     42.037700  -19.355100  -121.132000
  C     40.447600  -18.209800  -121.925000
  H     39.614500  -18.574500  -121.382000
  H     40.102200  -17.894600  -122.930000
  C     40.857800  -16.865400  -121.323000
  H     41.551100  -16.274000  -121.905000
  H     41.169400  -16.983100  -120.282000
  H     40.014600  -16.177800  -121.291000
  H     40.634300  -18.585600  -128.677000
  H     41.484800  -23.692100  -122.261000

 Total Charge           Charge          ....    0
 Multiplicity           Mult            ....    1
 Number of Electrons    NEL             ....  134
 Basis Dimension        Dim             ....  322

ORBITAL ENERGIES
----------------

  NO   OCC          E(Eh)            E(eV)
   0   2.0000     -88.965209     -2420.8664
   1   2.0000     -88.964453     -2420.8458
   2   2.0000     -10.334781      -281.2237
   3   2.0000     -10.330788      -281.1150
   4   2.0000     -10.315759      -280.7061
   5   2.0000     -10.311298      -280.5847
   6   2.0000     -10.304133      -280.3897
   7   2.0000     -10.301492      -280.3178
   8   2.0000     -10.296068      -280.1703
   9   2.0000     -10.295122      -280.1445
  10   2.0000     -10.289541      -279.9926
  11   2.0000     -10.289427      -279.9895
  12   2.0000     -10.285642      -279.8866
  13   2.0000     -10.284999      -279.8691
  14   2.0000     -10.277407      -279.6625
  15   2.0000     -10.270134      -279.4646
  16   2.0000      -8.080251      -219.8748
  17   2.0000      -8.078302      -219.8218
  18   2.0000      -6.038936      -164.3278
  19   2.0000      -6.037018      -164.2756
  20   2.0000      -6.034712      -164.2129
  21   2.0000      -6.033032      -164.1672
  22   2.0000      -6.030774      -164.1057
  23   2.0000      -6.028772      -164.0512
  24   2.0000      -1.008581       -27.4449
  25   2.0000      -0.985826       -26.8257
  26   2.0000      -0.920118       -25.0377
  27   2.0000      -0.912302       -24.8250
  28   2.0000      -0.869618       -23.6635
  29   2.0000      -0.854760       -23.2592
  30   2.0000      -0.840978       -22.8842
  31   2.0000      -0.819117       -22.2893
  32   2.0000      -0.788040       -21.4437
  33   2.0000      -0.781207       -21.2577
  34   2.0000      -0.713612       -19.4184
  35   2.0000      -0.705689       -19.2028
  36   2.0000      -0.697157       -18.9706
  37   2.0000      -0.665557       -18.1107
  38   2.0000      -0.644225       -17.5303
  39   2.0000      -0.625868       -17.0307
  40   2.0000      -0.608842       -16.5674
  41   2.0000      -0.576066       -15.6756
  42   2.0000      -0.571854       -15.5609
  43   2.0000      -0.552944       -15.0464
  44   2.0000      -0.539589       -14.6830
  45   2.0000      -0.524518       -14.2729
  46   2.0000      -0.518216       -14.1014
  47   2.0000      -0.515063       -14.0156
  48   2.0000      -0.505438       -13.7537
  49   2.0000      -0.504037       -13.7155
  50   2.0000      -0.493923       -13.4403
  51   2.0000      -0.486606       -13.2412
  52   2.0000      -0.472306       -12.8521
  53   2.0000      -0.464742       -12.6463
  54   2.0000      -0.460852       -12.5404
  55   2.0000      -0.450712       -12.2645
  56   2.0000      -0.448013       -12.1911
  57   2.0000      -0.442453       -12.0398
  58   2.0000      -0.436303       -11.8724
  59   2.0000      -0.426321       -11.6008
  60   2.0000      -0.419217       -11.4075
  61   2.0000      -0.412899       -11.2356
  62   2.0000      -0.409814       -11.1516
  63   2.0000      -0.358906        -9.7663
  64   2.0000      -0.330151        -8.9839
  65   2.0000      -0.326424        -8.8824
  66   2.0000      -0.291128        -7.9220
  67   0.0000       0.020127         0.5477
  68   0.0000       0.082543         2.2461
  69   0.0000       0.094500         2.5715
  70   0.0000       0.114418         3.1135
  71   0.0000       0.125062         3.4031

MULLIKEN ATOMIC CHARGES
-----------------------
   0 S :    0.080983
   1 C :   -0.084866
   2 C :   -0.138262
   3 C :    0.021875
   4 C :   -0.105222
   5 H :   -0.010139
   6 C :    0.082576
   7 H :    0.004444
   8 H :    0.003698
   9 C :   -0.043441
  10 H :    0.032386
  11 H :    0.039283
  12 C :   -0.034192
  13 H :    0.029123
  14 H :    0.021645
  15 H :    0.018734
  16 S :    0.105955
  17 C :   -0.042998
  18 C :   -0.048086
  19 C :   -0.065955
  20 C :   -0.106313
  21 H :    0.029254
  22 C :    0.142626
  23 H :   -0.004625
  24 H :    0.002871
  25 C :   -0.071988
  26 H :    0.026098
  27 H :    0.026416
  28 C :   -0.057313
  29 H :    0.024242
  30 H :    0.031027
  31 H :    0.022960
  32 H :    0.036900
  33 H :    0.030302
Sum of atomic charges:    0.0000000

LOEWDIN ATOMIC CHARGES
----------------------
   0 S :    0.381559
   1 C :   -0.180610
   2 C :   -0.057879
   3 C :   -0.077165
   4 C :   -0.171159
   5 H :    0.024962
   6 C :   -0.038244
   7 H :    0.027355
   8 H :    0.029249
   9 C :   -0.029401
  10 H :    0.021497
  11 H :    0.033528
  12 C :   -0.062518
  13 H :    0.032284
  14 H :    0.021218
  15 H :    0.011817
  16 S :    0.406644
  17 C :   -0.176496
  18 C :   -0.074416
  19 C :   -0.048603
  20 C :   -0.194955
  21 H :    0.035769
  22 C :   -0.015352
  23 H :    0.015078
  24 H :    0.027312
  25 C :   -0.031263
  26 H :    0.020201
  27 H :    0.025980
  28 C :   -0.067618
  29 H :    0.020561
  30 H :    0.022877
  31 H :    0.025691
  32 H :    0.021665
  33 H :    0.020433

  Mayer bond orders larger than 0.100000
B(  0-S ,  1-C ) :   1.1166 B(  0-S ,  4-C ) :   1.1536 B(  1-C ,  2-C ) :   1.6014
B(  1-C ,  4-C ) :   0.1051 B(  1-C , 32-H ) :   0.9739 B(  2-C ,  3-C ) :   1.2607
B(  2-C ,  6-C ) :   1.0298 B(  3-C ,  4-C ) :   1.5709 B(  3-C ,  5-H ) :   0.9880
B(  4-C , 20-C ) :   1.0446 B(  6-C ,  7-H ) :   0.9351 B(  6-C ,  8-H ) :   0.9268
B(  6-C ,  9-C ) :   1.0597 B(  9-C , 10-H ) :   0.9590 B(  9-C , 11-H ) :   0.9541
B(  9-C , 12-C ) :   1.0758 B( 12-C , 13-H ) :   0.9712 B( 12-C , 14-H ) :   0.9762
B( 12-C , 15-H ) :   0.9714 B( 16-S , 17-C ) :   1.1449 B( 16-S , 20-C ) :   1.1220
B( 17-C , 18-C ) :   1.6305 B( 17-C , 33-H ) :   0.9742 B( 18-C , 19-C ) :   1.2346
B( 18-C , 21-H ) :   0.9797 B( 19-C , 20-C ) :   1.6256 B( 19-C , 22-C ) :   1.0441
B( 22-C , 23-H ) :   0.9278 B( 22-C , 24-H ) :   0.9251 B( 22-C , 25-C ) :   1.0719
B( 25-C , 26-H ) :   0.9548 B( 25-C , 27-H ) :   0.9524 B( 25-C , 28-C ) :   1.0922
B( 28-C , 29-H ) :   0.9717 B( 28-C , 30-H ) :   0.9734 B( 28-C , 31-H ) :   0.9713

Dispersion correction           -0.015197569
FINAL SINGLE POINT ENERGY     -1339.855896373362

DIPOLE MOMENT
-------------
                                X             Y             Z
Electronic contribution:      4.41424     -29.12033      -8.18416
Nuclear contribution   :     -4.46550      29.79405       8.68958
                        -----------------------------------------
Total Dipole Moment    :     -0.05125       0.67372       0.50543
                        -----------------------------------------
Magnitude (a.u.)       :      0.84379
Magnitude (Debye)      :      2.14475

Rotational constants in cm-1:     0.018488     0.010172     0.007088
Rotational constants in MHz :   554.264672   304.960512   212.491804

                             ****ORCA TERMINATED NORMALLY****
TOTAL RUN TIME: 0 days 0 hours 0 minutes 22 seconds 833 msec
