                         Program Version 4.2.1 -  RELEASE  -
|  1> ! wB97X-D3 SP def2-SVP
|  2> %pal
|  3> nprocs 24
|  4> end
|  5>
|  6> * xyz 0 1
|  7> S 	 -40.4386 	 -8.99108 	 7.62025
|  8> C 	 -41.0409 	 -10.6499 	 7.47628
|  9> C 	 -40.1405 	 -11.4688 	 6.77916
| 10> C 	 -39.0691 	 -10.7196 	 6.14403
| 11> C 	 -39.1092 	 -9.38238 	 6.47802
| 12> H 	 -38.2403 	 -11.1187 	 5.61585
| 13> C 	 -40.3678 	 -12.9952 	 6.62884
| 14> H 	 -39.571 	 -13.3174 	 5.86828
| 15> H 	 -41.4276 	 -13.2545 	 6.28492
| 16> C 	 -40.1957 	 -13.8472 	 7.8992
| 17> H 	 -39.1497 	 -13.7144 	 8.19004
| 18> H 	 -40.8171 	 -13.4627 	 8.6992
| 19> C 	 -40.4926 	 -15.3315 	 7.62393
| 20> H 	 -40.4874 	 -15.9148 	 8.46652
| 21> H 	 -41.4264 	 -15.4967 	 7.02247
| 22> H 	 -39.6563 	 -15.7345 	 7.1119
| 23> S 	 -37.1339 	 -7.45773 	 7.03791
| 24> C 	 -36.578 	 -6.49938 	 5.72523
| 25> C 	 -37.0723 	 -6.96829 	 4.50857
| 26> C 	 -37.9307 	 -8.11132 	 4.56483
| 27> C 	 -38.2188 	 -8.35747 	 5.95488
| 28> H 	 -36.6857 	 -6.4172 	 3.66304
| 29> C 	 -38.6531 	 -8.55672 	 3.31664
| 30> H 	 -38.6444 	 -9.63492 	 3.42207
| 31> H 	 -38.1733 	 -8.33544 	 2.38881
| 32> C 	 -40.0667 	 -8.06586 	 3.18806
| 33> H 	 -40.11 	 -7.01237 	 3.34594
| 34> H 	 -40.5796 	 -8.56958 	 4.02103
| 35> C 	 -40.7153 	 -8.33168 	 1.79292
| 36> H 	 -41.6226 	 -7.74908 	 1.6062
| 37> H 	 -40.8691 	 -9.41959 	 1.71467
| 38> H 	 -40.0917 	 -8.00914 	 0.974787
| 39> H 	 -41.879 	 -11.1377 	 7.83304
| 40> H 	 -35.9253 	 -5.62547 	 5.78899
| 41> *
| 42>
| 43>                          ****END OF INPUT****

CARTESIAN COORDINATES (ANGSTROEM)
---------------------------------
  S    -40.438600   -8.991080    7.620250
  C    -41.040900  -10.649900    7.476280
  C    -40.140500  -11.468800    6.779160
  C    -39.069100  -10.719600    6.144030
  C    -39.109200   -9.382380    6.478020
  H    -38.240300  -11.118700    5.615850
  C    -40.367800  -12.995200    6.628840
  H    -39.571000  -13.317400    5.868280
  H    -41.427600  -13.254500    6.284920
  C    -40.195700  -13.847200    7.899200
  H    -39.149700  -13.714400    8.190040
  H    -40.817100  -13.462700    8.699200
  C    -40.492600  -15.331500    7.623930
  H    -40.487400  -15.914800    8.466520
  H    -41.426400  -15.496700    7.022470
  H    -39.656300  -15.734500    7.111900
  S    -37.133900   -7.457730    7.037910
  C    -36.578000   -6.499380    5.725230
  C    -37.072300   -6.968290    4.508570
  C    -37.930700   -8.111320    4.564830
  C    -38.218800   -8.357470    5.954880
  H    -36.685700   -6.417200    3.663040
  C    -38.653100   -8.556720    3.316640
  H    -38.644400   -9.634920    3.422070
  H    -38.173300   -8.335440    2.388810
  C    -40.066700   -8.065860    3.188060
  H    -40.110000   -7.012370    3.345940
  H    -40.579600   -8.569580    4.021030
  C    -40.715300   -8.331680    1.792920
  H    -41.622600   -7.749080    1.606200
  H    -40.869100   -9.419590    1.714670
  H    -40.091700   -8.009140    0.974787
  H    -41.879000  -11.137700    7.833040
  H    -35.925300   -5.625470    5.788990

 Total Charge           Charge          ....    0
 Multiplicity           Mult            ....    1
 Number of Electrons    NEL             ....  134
 Basis Dimension        Dim             ....  322

ORBITAL ENERGIES
----------------

  NO   OCC          E(Eh)            E(eV)
   0   2.0000     -88.971582     -2421.0398
   1   2.0000     -88.969473     -2420.9824
   2   2.0000     -10.332811      -281.1701
   3   2.0000     -10.332629      -281.1651
   4   2.0000     -10.314205      -280.6638
   5   2.0000     -10.312717      -280.6233
   6   2.0000     -10.310908      -280.5741
   7   2.0000     -10.306338      -280.4497
   8   2.0000     -10.305396      -280.4241
   9   2.0000     -10.297621      -280.2125
  10   2.0000     -10.290940      -280.0307
  11   2.0000     -10.286670      -279.9145
  12   2.0000     -10.285598      -279.8853
  13   2.0000     -10.278660      -279.6966
  14   2.0000     -10.278150      -279.6827
  15   2.0000     -10.273100      -279.5453
  16   2.0000      -8.084816      -219.9990
  17   2.0000      -8.084003      -219.9769
  18   2.0000      -6.043476      -164.4513
  19   2.0000      -6.042367      -164.4212
  20   2.0000      -6.039619      -164.3464
  21   2.0000      -6.038527      -164.3167
  22   2.0000      -6.035398      -164.2315
  23   2.0000      -6.034953      -164.2194
  24   2.0000      -0.999646       -27.2018
  25   2.0000      -0.976929       -26.5836
  26   2.0000      -0.912808       -24.8388
  27   2.0000      -0.907426       -24.6923
  28   2.0000      -0.866706       -23.5843
  29   2.0000      -0.850198       -23.1351
  30   2.0000      -0.845453       -23.0059
  31   2.0000      -0.811288       -22.0763
  32   2.0000      -0.783900       -21.3310
  33   2.0000      -0.770004       -20.9529
  34   2.0000      -0.709479       -19.3059
  35   2.0000      -0.699376       -19.0310
  36   2.0000      -0.690983       -18.8026
  37   2.0000      -0.654288       -17.8041
  38   2.0000      -0.639058       -17.3897
  39   2.0000      -0.617950       -16.8153
  40   2.0000      -0.595062       -16.1925
  41   2.0000      -0.571601       -15.5541
  42   2.0000      -0.568720       -15.4757
  43   2.0000      -0.561359       -15.2754
  44   2.0000      -0.525254       -14.2929
  45   2.0000      -0.523378       -14.2418
  46   2.0000      -0.515004       -14.0140
  47   2.0000      -0.506171       -13.7736
  48   2.0000      -0.502104       -13.6629
  49   2.0000      -0.497247       -13.5308
  50   2.0000      -0.493673       -13.4335
  51   2.0000      -0.476499       -12.9662
  52   2.0000      -0.469621       -12.7790
  53   2.0000      -0.460201       -12.5227
  54   2.0000      -0.455893       -12.4055
  55   2.0000      -0.453540       -12.3415
  56   2.0000      -0.447382       -12.1739
  57   2.0000      -0.436887       -11.8883
  58   2.0000      -0.434323       -11.8185
  59   2.0000      -0.428193       -11.6517
  60   2.0000      -0.422125       -11.4866
  61   2.0000      -0.416380       -11.3303
  62   2.0000      -0.408194       -11.1075
  63   2.0000      -0.342164        -9.3108
  64   2.0000      -0.332684        -9.0528
  65   2.0000      -0.328977        -8.9519
  66   2.0000      -0.289584        -7.8800
  67   0.0000       0.025153         0.6844
  68   0.0000       0.058814         1.6004
  69   0.0000       0.110796         3.0149
  70   0.0000       0.117078         3.1859
  71   0.0000       0.123615         3.3637

MULLIKEN ATOMIC CHARGES
-----------------------
   0 S :    0.122038
   1 C :   -0.065297
   2 C :   -0.094673
   3 C :    0.051065
   4 C :   -0.171856
   5 H :    0.014502
   6 C :   -0.013261
   7 H :    0.034820
   8 H :    0.044552
   9 C :   -0.074161
  10 H :    0.028400
  11 H :    0.027564
  12 C :   -0.003263
  13 H :    0.013295
  14 H :    0.037848
  15 H :    0.015564
  16 S :    0.124677
  17 C :   -0.103829
  18 C :   -0.047434
  19 C :   -0.007359
  20 C :   -0.179314
  21 H :    0.013864
  22 C :    0.094488
  23 H :    0.012303
  24 H :    0.006946
  25 C :   -0.066260
  26 H :    0.022466
  27 H :    0.041985
  28 C :   -0.048172
  29 H :    0.038194
  30 H :    0.037476
  31 H :    0.021218
  32 H :    0.011452
  33 H :    0.060164
Sum of atomic charges:    0.0000000

LOEWDIN ATOMIC CHARGES
----------------------
   0 S :    0.386255
   1 C :   -0.182826
   2 C :   -0.059552
   3 C :   -0.056514
   4 C :   -0.182861
   5 H :    0.029901
   6 C :   -0.041884
   7 H :    0.035430
   8 H :    0.035495
   9 C :   -0.040278
  10 H :    0.025693
  11 H :    0.018447
  12 C :   -0.060593
  13 H :    0.015882
  14 H :    0.031463
  15 H :    0.023832
  16 S :    0.415197
  17 C :   -0.205313
  18 C :   -0.072805
  19 C :   -0.042309
  20 C :   -0.199560
  21 H :    0.029434
  22 C :   -0.031423
  23 H :    0.029110
  24 H :    0.024822
  25 C :   -0.035066
  26 H :    0.019270
  27 H :    0.030274
  28 C :   -0.066297
  29 H :    0.029804
  30 H :    0.028214
  31 H :    0.020707
  32 H :    0.014973
  33 H :    0.033075

  Mayer bond orders larger than 0.100000
B(  0-S ,  1-C ) :   1.1221 B(  0-S ,  4-C ) :   1.1257 B(  1-C ,  2-C ) :   1.6354
B(  1-C , 32-H ) :   0.9724 B(  2-C ,  3-C ) :   1.2174 B(  2-C ,  6-C ) :   1.0126
B(  3-C ,  4-C ) :   1.5987 B(  3-C ,  5-H ) :   0.9926 B(  4-C , 20-C ) :   1.0502
B(  6-C ,  7-H ) :   0.9483 B(  6-C ,  8-H ) :   0.9452 B(  6-C ,  9-C ) :   1.0568
B(  9-C , 10-H ) :   0.9541 B(  9-C , 11-H ) :   0.9596 B(  9-C , 12-C ) :   1.0815
B( 12-C , 13-H ) :   0.9706 B( 12-C , 14-H ) :   0.9738 B( 12-C , 15-H ) :   0.9713
B( 16-S , 17-C ) :   1.1550 B( 16-S , 20-C ) :   1.1637 B( 17-C , 18-C ) :   1.6088
B( 17-C , 20-C ) :   0.1057 B( 17-C , 33-H ) :   0.9649 B( 18-C , 19-C ) :   1.2452
B( 18-C , 21-H ) :   0.9895 B( 19-C , 20-C ) :   1.5259 B( 19-C , 22-C ) :   1.0564
B( 22-C , 23-H ) :   0.9164 B( 22-C , 24-H ) :   0.9378 B( 22-C , 25-C ) :   1.0659
B( 25-C , 26-H ) :   0.9581 B( 25-C , 27-H ) :   0.9534 B( 25-C , 28-C ) :   1.0801
B( 28-C , 29-H ) :   0.9753 B( 28-C , 30-H ) :   0.9772 B( 28-C , 31-H ) :   0.9732

Dispersion correction           -0.014079787
FINAL SINGLE POINT ENERGY     -1339.862189239689

DIPOLE MOMENT
-------------
                                X             Y             Z
Electronic contribution:      9.64435      20.08133      14.52395
Nuclear contribution   :     -9.61258     -20.45113     -14.93754
                        -----------------------------------------
Total Dipole Moment    :      0.03176      -0.36980      -0.41359
                        -----------------------------------------
Magnitude (a.u.)       :      0.55572
Magnitude (Debye)      :      1.41252

Rotational constants in cm-1:     0.018993     0.007660     0.006427
Rotational constants in MHz :   569.384834   229.639376   192.663954

                             ****ORCA TERMINATED NORMALLY****
TOTAL RUN TIME: 0 days 0 hours 0 minutes 21 seconds 211 msec
