                         Program Version 4.2.1 -  RELEASE  -
|  1> ! wB97X-D3 SP def2-SVP
|  2> %pal
|  3> nprocs 24
|  4> end
|  5>
|  6> * xyz 0 1
|  7> S 	 -79.9315 	 -43.5892 	 -93.1838
|  8> C 	 -78.8777 	 -42.7362 	 -94.3824
|  9> C 	 -79.5133 	 -42.6104 	 -95.6413
| 10> C 	 -80.9228 	 -42.9797 	 -95.5111
| 11> C 	 -81.373 	 -43.3002 	 -94.2273
| 12> H 	 -81.6623 	 -42.8486 	 -96.3523
| 13> C 	 -78.8717 	 -42.1054 	 -96.883
| 14> H 	 -79.2941 	 -42.5442 	 -97.8002
| 15> H 	 -77.8045 	 -42.3171 	 -96.7843
| 16> C 	 -78.9234 	 -40.5565 	 -97.2359
| 17> H 	 -79.9443 	 -40.1998 	 -97.2092
| 18> H 	 -78.4781 	 -39.9793 	 -96.3793
| 19> C 	 -78.3078 	 -40.2009 	 -98.5574
| 20> H 	 -78.7794 	 -40.822 	 -99.333
| 21> H 	 -78.4242 	 -39.1905 	 -98.8949
| 22> H 	 -77.2141 	 -40.1673 	 -98.568
| 23> S 	 -83.1971 	 -45.3015 	 -93.5264
| 24> C 	 -84.873 	 -44.8668 	 -93.2595
| 25> C 	 -85.0629 	 -43.5009 	 -93.3877
| 26> C 	 -83.8517 	 -42.7976 	 -93.879
| 27> C 	 -82.7032 	 -43.5704 	 -93.8342
| 28> H 	 -86.021 	 -42.9975 	 -93.2848
| 29> C 	 -83.9248 	 -41.3241 	 -94.2448
| 30> H 	 -84.96 	 -41.1298 	 -94.5314
| 31> H 	 -83.3429 	 -41.1692 	 -95.1655
| 32> C 	 -83.3046 	 -40.4263 	 -93.1514
| 33> H 	 -83.5194 	 -39.408 	 -93.4382
| 34> H 	 -82.2343 	 -40.4557 	 -93.0803
| 35> C 	 -83.7539 	 -40.7527 	 -91.7121
| 36> H 	 -83.3993 	 -39.9316 	 -90.9914
| 37> H 	 -83.3125 	 -41.6992 	 -91.3834
| 38> H 	 -84.8429 	 -40.8506 	 -91.6941
| 39> H 	 -77.857 	 -42.6427 	 -94.1451
| 40> H 	 -85.5141 	 -45.6463 	 -92.8509
| 41> *
| 42>
| 43>                          ****END OF INPUT****

CARTESIAN COORDINATES (ANGSTROEM)
---------------------------------
  S    -79.931500  -43.589200  -93.183800
  C    -78.877700  -42.736200  -94.382400
  C    -79.513300  -42.610400  -95.641300
  C    -80.922800  -42.979700  -95.511100
  C    -81.373000  -43.300200  -94.227300
  H    -81.662300  -42.848600  -96.352300
  C    -78.871700  -42.105400  -96.883000
  H    -79.294100  -42.544200  -97.800200
  H    -77.804500  -42.317100  -96.784300
  C    -78.923400  -40.556500  -97.235900
  H    -79.944300  -40.199800  -97.209200
  H    -78.478100  -39.979300  -96.379300
  C    -78.307800  -40.200900  -98.557400
  H    -78.779400  -40.822000  -99.333000
  H    -78.424200  -39.190500  -98.894900
  H    -77.214100  -40.167300  -98.568000
  S    -83.197100  -45.301500  -93.526400
  C    -84.873000  -44.866800  -93.259500
  C    -85.062900  -43.500900  -93.387700
  C    -83.851700  -42.797600  -93.879000
  C    -82.703200  -43.570400  -93.834200
  H    -86.021000  -42.997500  -93.284800
  C    -83.924800  -41.324100  -94.244800
  H    -84.960000  -41.129800  -94.531400
  H    -83.342900  -41.169200  -95.165500
  C    -83.304600  -40.426300  -93.151400
  H    -83.519400  -39.408000  -93.438200
  H    -82.234300  -40.455700  -93.080300
  C    -83.753900  -40.752700  -91.712100
  H    -83.399300  -39.931600  -90.991400
  H    -83.312500  -41.699200  -91.383400
  H    -84.842900  -40.850600  -91.694100
  H    -77.857000  -42.642700  -94.145100
  H    -85.514100  -45.646300  -92.850900

 Total Charge           Charge          ....    0
 Multiplicity           Mult            ....    1
 Number of Electrons    NEL             ....  134
 Basis Dimension        Dim             ....  322

ORBITAL ENERGIES
----------------

  NO   OCC          E(Eh)            E(eV)
   0   2.0000     -88.965956     -2420.8867
   1   2.0000     -88.959274     -2420.7049
   2   2.0000     -10.334116      -281.2056
   3   2.0000     -10.327305      -281.0203
   4   2.0000     -10.323604      -280.9196
   5   2.0000     -10.323162      -280.9075
   6   2.0000     -10.313950      -280.6569
   7   2.0000     -10.309761      -280.5429
   8   2.0000     -10.306699      -280.4595
   9   2.0000     -10.301773      -280.3255
  10   2.0000     -10.299141      -280.2539
  11   2.0000     -10.294002      -280.1140
  12   2.0000     -10.292043      -280.0607
  13   2.0000     -10.281057      -279.7618
  14   2.0000     -10.280509      -279.7469
  15   2.0000     -10.277339      -279.6606
  16   2.0000      -8.079200      -219.8462
  17   2.0000      -8.073522      -219.6917
  18   2.0000      -6.037861      -164.2985
  19   2.0000      -6.034092      -164.1960
  20   2.0000      -6.032225      -164.1452
  21   2.0000      -6.029703      -164.0766
  22   2.0000      -6.028115      -164.0334
  23   2.0000      -6.024075      -163.9234
  24   2.0000      -0.995139       -27.0791
  25   2.0000      -0.970823       -26.4174
  26   2.0000      -0.910111       -24.7654
  27   2.0000      -0.905085       -24.6286
  28   2.0000      -0.871951       -23.7270
  29   2.0000      -0.847070       -23.0499
  30   2.0000      -0.837104       -22.7788
  31   2.0000      -0.809655       -22.0318
  32   2.0000      -0.782472       -21.2921
  33   2.0000      -0.770851       -20.9759
  34   2.0000      -0.709879       -19.3168
  35   2.0000      -0.702821       -19.1247
  36   2.0000      -0.688027       -18.7222
  37   2.0000      -0.662701       -18.0330
  38   2.0000      -0.643829       -17.5195
  39   2.0000      -0.613411       -16.6918
  40   2.0000      -0.589444       -16.0396
  41   2.0000      -0.576792       -15.6953
  42   2.0000      -0.557341       -15.1660
  43   2.0000      -0.552205       -15.0263
  44   2.0000      -0.541604       -14.7378
  45   2.0000      -0.524550       -14.2737
  46   2.0000      -0.517136       -14.0720
  47   2.0000      -0.510893       -13.9021
  48   2.0000      -0.504004       -13.7147
  49   2.0000      -0.496796       -13.5185
  50   2.0000      -0.485754       -13.2180
  51   2.0000      -0.475454       -12.9378
  52   2.0000      -0.473593       -12.8871
  53   2.0000      -0.462606       -12.5881
  54   2.0000      -0.454904       -12.3786
  55   2.0000      -0.449835       -12.2406
  56   2.0000      -0.440749       -11.9934
  57   2.0000      -0.434764       -11.8305
  58   2.0000      -0.430322       -11.7096
  59   2.0000      -0.420188       -11.4339
  60   2.0000      -0.418178       -11.3792
  61   2.0000      -0.416440       -11.3319
  62   2.0000      -0.406364       -11.0577
  63   2.0000      -0.337874        -9.1940
  64   2.0000      -0.326115        -8.8740
  65   2.0000      -0.324410        -8.8277
  66   2.0000      -0.297887        -8.1059
  67   0.0000       0.023811         0.6479
  68   0.0000       0.050529         1.3750
  69   0.0000       0.099639         2.7113
  70   0.0000       0.109422         2.9775
  71   0.0000       0.123809         3.3690

MULLIKEN ATOMIC CHARGES
-----------------------
   0 S :    0.088794
   1 C :   -0.110669
   2 C :   -0.067095
   3 C :    0.037216
   4 C :   -0.175422
   5 H :    0.037190
   6 C :    0.052575
   7 H :    0.028856
   8 H :    0.028585
   9 C :   -0.078491
  10 H :    0.021703
  11 H :    0.026558
  12 C :   -0.037023
  13 H :    0.035109
  14 H :    0.021931
  15 H :    0.030822
  16 S :    0.076135
  17 C :   -0.093553
  18 C :   -0.016532
  19 C :   -0.101275
  20 C :   -0.137513
  21 H :    0.027071
  22 C :    0.096017
  23 H :    0.022086
  24 H :    0.025296
  25 C :   -0.057024
  26 H :    0.022117
  27 H :    0.036968
  28 C :   -0.079591
  29 H :    0.047413
  30 H :    0.050375
  31 H :    0.024983
  32 H :    0.041271
  33 H :    0.075118
Sum of atomic charges:   -0.0000000

LOEWDIN ATOMIC CHARGES
----------------------
   0 S :    0.358206
   1 C :   -0.162644
   2 C :   -0.059304
   3 C :   -0.053441
   4 C :   -0.185448
   5 H :    0.038681
   6 C :   -0.035374
   7 H :    0.034091
   8 H :    0.034197
   9 C :   -0.044281
  10 H :    0.019792
  11 H :    0.025739
  12 C :   -0.073576
  13 H :    0.029390
  14 H :    0.027982
  15 H :    0.029106
  16 S :    0.365410
  17 C :   -0.174612
  18 C :   -0.075379
  19 C :   -0.041361
  20 C :   -0.189705
  21 H :    0.031069
  22 C :   -0.032134
  23 H :    0.030011
  24 H :    0.034816
  25 C :   -0.038364
  26 H :    0.020580
  27 H :    0.026702
  28 C :   -0.070322
  29 H :    0.035699
  30 H :    0.028169
  31 H :    0.018609
  32 H :    0.015515
  33 H :    0.032180

  Mayer bond orders larger than 0.100000
B(  0-S ,  1-C ) :   1.1324 B(  0-S ,  4-C ) :   1.1114 B(  1-C ,  2-C ) :   1.5959
B(  1-C ,  4-C ) :   0.1044 B(  1-C , 32-H ) :   0.9770 B(  2-C ,  3-C ) :   1.2132
B(  2-C ,  6-C ) :   1.0516 B(  3-C ,  4-C ) :   1.5963 B(  3-C ,  5-H ) :   0.9786
B(  4-C , 20-C ) :   1.0859 B(  6-C ,  7-H ) :   0.9392 B(  6-C ,  8-H ) :   0.9379
B(  6-C ,  9-C ) :   1.0491 B(  9-C , 10-H ) :   0.9567 B(  9-C , 11-H ) :   0.9523
B(  9-C , 12-C ) :   1.0874 B( 12-C , 13-H ) :   0.9712 B( 12-C , 14-H ) :   0.9675
B( 12-C , 15-H ) :   0.9724 B( 16-S , 17-C ) :   1.1577 B( 16-S , 20-C ) :   1.0998
B( 17-C , 18-C ) :   1.6136 B( 17-C , 33-H ) :   0.9656 B( 18-C , 19-C ) :   1.2044
B( 18-C , 21-H ) :   0.9857 B( 19-C , 20-C ) :   1.6289 B( 19-C , 22-C ) :   1.0515
B( 22-C , 23-H ) :   0.9336 B( 22-C , 24-H ) :   0.9285 B( 22-C , 25-C ) :   1.0667
B( 25-C , 26-H ) :   0.9575 B( 25-C , 27-H ) :   0.9555 B( 25-C , 28-C ) :   1.0770
B( 28-C , 29-H ) :   0.9731 B( 28-C , 30-H ) :   0.9683 B( 28-C , 31-H ) :   0.9792

Dispersion correction           -0.014893172
FINAL SINGLE POINT ENERGY     -1339.867831725407

DIPOLE MOMENT
-------------
                                X             Y             Z
Electronic contribution:     -3.31752     -23.52644      11.62207
Nuclear contribution   :      3.25967      24.13404     -12.12906
                        -----------------------------------------
Total Dipole Moment    :     -0.05785       0.60760      -0.50699
                        -----------------------------------------
Magnitude (a.u.)       :      0.79346
Magnitude (Debye)      :      2.01680

Rotational constants in cm-1:     0.020494     0.007835     0.006949
Rotational constants in MHz :   614.389701   234.897637   208.315094

                             ****ORCA TERMINATED NORMALLY****
TOTAL RUN TIME: 0 days 0 hours 0 minutes 20 seconds 734 msec
