                         Program Version 4.2.1 -  RELEASE  -
|  1> ! wB97X-D3 SP def2-SVP
|  2> %pal
|  3> nprocs 24
|  4> end
|  5>
|  6> * xyz 0 1
|  7> S 	 -41.2533 	 -50.9641 	 -68.1732
|  8> C 	 -39.5736 	 -51.2665 	 -68.1137
|  9> C 	 -39.0443 	 -51.5107 	 -69.4053
| 10> C 	 -40.0404 	 -51.6079 	 -70.3831
| 11> C 	 -41.3248 	 -51.4571 	 -69.9338
| 12> H 	 -39.9349 	 -51.9078 	 -71.4635
| 13> C 	 -37.6632 	 -51.8903 	 -69.7238
| 14> H 	 -37.2836 	 -51.8383 	 -70.7263
| 15> H 	 -37.597 	 -52.9061 	 -69.4507
| 16> C 	 -36.6116 	 -51.1223 	 -69.0389
| 17> H 	 -36.4028 	 -50.1947 	 -69.6594
| 18> H 	 -36.915 	 -50.6893 	 -68.0527
| 19> C 	 -35.2745 	 -51.9052 	 -68.8288
| 20> H 	 -34.8117 	 -52.4293 	 -69.6802
| 21> H 	 -34.5832 	 -51.0994 	 -68.4905
| 22> H 	 -35.3343 	 -52.6659 	 -68.0273
| 23> S 	 -43.6197 	 -50.0309 	 -70.7721
| 24> C 	 -44.7164 	 -50.7583 	 -71.8861
| 25> C 	 -44.268 	 -52.0006 	 -72.2395
| 26> C 	 -43.0926 	 -52.477 	 -71.6022
| 27> C 	 -42.6171 	 -51.4983 	 -70.7088
| 28> H 	 -44.8134 	 -52.6126 	 -72.8329
| 29> C 	 -42.4109 	 -53.6976 	 -71.96
| 30> H 	 -41.4479 	 -53.4522 	 -72.2972
| 31> H 	 -42.8877 	 -54.0763 	 -72.8525
| 32> C 	 -42.4941 	 -54.8878 	 -70.9925
| 33> H 	 -42.1149 	 -55.6975 	 -71.6042
| 34> H 	 -43.5624 	 -54.9184 	 -70.7118
| 35> C 	 -41.5489 	 -54.9039 	 -69.7246
| 36> H 	 -41.6361 	 -55.7119 	 -69.0129
| 37> H 	 -41.6339 	 -54.0732 	 -68.9582
| 38> H 	 -40.5307 	 -54.6817 	 -69.9715
| 39> H 	 -38.9109 	 -51.3001 	 -67.3151
| 40> H 	 -45.5636 	 -50.3454 	 -72.3327
| 41> *
| 42>
| 43>                          ****END OF INPUT****

CARTESIAN COORDINATES (ANGSTROEM)
---------------------------------
  S    -41.253300  -50.964100  -68.173200
  C    -39.573600  -51.266500  -68.113700
  C    -39.044300  -51.510700  -69.405300
  C    -40.040400  -51.607900  -70.383100
  C    -41.324800  -51.457100  -69.933800
  H    -39.934900  -51.907800  -71.463500
  C    -37.663200  -51.890300  -69.723800
  H    -37.283600  -51.838300  -70.726300
  H    -37.597000  -52.906100  -69.450700
  C    -36.611600  -51.122300  -69.038900
  H    -36.402800  -50.194700  -69.659400
  H    -36.915000  -50.689300  -68.052700
  C    -35.274500  -51.905200  -68.828800
  H    -34.811700  -52.429300  -69.680200
  H    -34.583200  -51.099400  -68.490500
  H    -35.334300  -52.665900  -68.027300
  S    -43.619700  -50.030900  -70.772100
  C    -44.716400  -50.758300  -71.886100
  C    -44.268000  -52.000600  -72.239500
  C    -43.092600  -52.477000  -71.602200
  C    -42.617100  -51.498300  -70.708800
  H    -44.813400  -52.612600  -72.832900
  C    -42.410900  -53.697600  -71.960000
  H    -41.447900  -53.452200  -72.297200
  H    -42.887700  -54.076300  -72.852500
  C    -42.494100  -54.887800  -70.992500
  H    -42.114900  -55.697500  -71.604200
  H    -43.562400  -54.918400  -70.711800
  C    -41.548900  -54.903900  -69.724600
  H    -41.636100  -55.711900  -69.012900
  H    -41.633900  -54.073200  -68.958200
  H    -40.530700  -54.681700  -69.971500
  H    -38.910900  -51.300100  -67.315100
  H    -45.563600  -50.345400  -72.332700

 Total Charge           Charge          ....    0
 Multiplicity           Mult            ....    1
 Number of Electrons    NEL             ....  134
 Basis Dimension        Dim             ....  322

ORBITAL ENERGIES
----------------

  NO   OCC          E(Eh)            E(eV)
   0   2.0000     -88.969000     -2420.9696
   1   2.0000     -88.966915     -2420.9128
   2   2.0000     -10.335522      -281.2438
   3   2.0000     -10.331794      -281.1424
   4   2.0000     -10.312033      -280.6047
   5   2.0000     -10.310631      -280.5665
   6   2.0000     -10.298940      -280.2484
   7   2.0000     -10.298428      -280.2345
   8   2.0000     -10.295118      -280.1444
   9   2.0000     -10.293449      -280.0990
  10   2.0000     -10.291469      -280.0451
  11   2.0000     -10.286440      -279.9083
  12   2.0000     -10.283466      -279.8273
  13   2.0000     -10.281890      -279.7844
  14   2.0000     -10.278640      -279.6960
  15   2.0000     -10.273033      -279.5435
  16   2.0000      -8.082692      -219.9412
  17   2.0000      -8.081434      -219.9070
  18   2.0000      -6.041177      -164.3888
  19   2.0000      -6.039969      -164.3559
  20   2.0000      -6.037346      -164.2845
  21   2.0000      -6.035851      -164.2439
  22   2.0000      -6.033525      -164.1806
  23   2.0000      -6.032303      -164.1473
  24   2.0000      -1.003508       -27.3069
  25   2.0000      -0.987355       -26.8673
  26   2.0000      -0.921084       -25.0640
  27   2.0000      -0.915034       -24.8994
  28   2.0000      -0.864710       -23.5300
  29   2.0000      -0.852142       -23.1880
  30   2.0000      -0.846077       -23.0229
  31   2.0000      -0.816563       -22.2198
  32   2.0000      -0.787137       -21.4191
  33   2.0000      -0.773175       -21.0392
  34   2.0000      -0.712208       -19.3802
  35   2.0000      -0.704945       -19.1825
  36   2.0000      -0.692273       -18.8377
  37   2.0000      -0.665915       -18.1205
  38   2.0000      -0.644168       -17.5287
  39   2.0000      -0.618029       -16.8174
  40   2.0000      -0.604325       -16.4445
  41   2.0000      -0.586788       -15.9673
  42   2.0000      -0.560111       -15.2414
  43   2.0000      -0.547616       -14.9014
  44   2.0000      -0.542692       -14.7674
  45   2.0000      -0.530067       -14.4239
  46   2.0000      -0.520171       -14.1546
  47   2.0000      -0.509229       -13.8568
  48   2.0000      -0.502901       -13.6846
  49   2.0000      -0.498399       -13.5621
  50   2.0000      -0.496659       -13.5148
  51   2.0000      -0.479760       -13.0549
  52   2.0000      -0.474487       -12.9114
  53   2.0000      -0.467331       -12.7167
  54   2.0000      -0.462189       -12.5768
  55   2.0000      -0.444863       -12.1053
  56   2.0000      -0.442347       -12.0369
  57   2.0000      -0.433345       -11.7919
  58   2.0000      -0.432099       -11.7580
  59   2.0000      -0.423434       -11.5222
  60   2.0000      -0.416750       -11.3403
  61   2.0000      -0.409035       -11.1304
  62   2.0000      -0.407645       -11.0926
  63   2.0000      -0.349949        -9.5226
  64   2.0000      -0.331620        -9.0238
  65   2.0000      -0.326605        -8.8874
  66   2.0000      -0.288891        -7.8611
  67   0.0000       0.029883         0.8131
  68   0.0000       0.059584         1.6214
  69   0.0000       0.112404         3.0587
  70   0.0000       0.120414         3.2766
  71   0.0000       0.131837         3.5875

MULLIKEN ATOMIC CHARGES
-----------------------
   0 S :    0.118134
   1 C :   -0.070699
   2 C :   -0.099174
   3 C :    0.029924
   4 C :   -0.183351
   5 H :    0.033324
   6 C :    0.122252
   7 H :    0.022058
   8 H :    0.024852
   9 C :   -0.141250
  10 H :    0.038779
  11 H :    0.027619
  12 C :   -0.078660
  13 H :    0.038573
  14 H :    0.039969
  15 H :    0.037778
  16 S :    0.113560
  17 C :   -0.049413
  18 C :   -0.005109
  19 C :   -0.041162
  20 C :   -0.156882
  21 H :   -0.029929
  22 C :    0.096224
  23 H :    0.003238
  24 H :    0.002830
  25 C :   -0.034155
  26 H :    0.035162
  27 H :    0.040231
  28 C :   -0.056073
  29 H :    0.032221
  30 H :    0.024438
  31 H :    0.013868
  32 H :    0.017809
  33 H :    0.033016
Sum of atomic charges:    0.0000000

LOEWDIN ATOMIC CHARGES
----------------------
   0 S :    0.398419
   1 C :   -0.200723
   2 C :   -0.062297
   3 C :   -0.065710
   4 C :   -0.170185
   5 H :    0.042404
   6 C :   -0.042443
   7 H :    0.034925
   8 H :    0.030953
   9 C :   -0.045186
  10 H :    0.029977
  11 H :    0.021905
  12 C :   -0.073738
  13 H :    0.024685
  14 H :    0.032890
  15 H :    0.025318
  16 S :    0.411702
  17 C :   -0.182975
  18 C :   -0.061117
  19 C :   -0.055218
  20 C :   -0.190209
  21 H :    0.010371
  22 C :   -0.033681
  23 H :    0.022883
  24 H :    0.034869
  25 C :   -0.024607
  26 H :    0.027940
  27 H :    0.031671
  28 C :   -0.086273
  29 H :    0.024952
  30 H :    0.031498
  31 H :    0.019669
  32 H :    0.015107
  33 H :    0.022222

  Mayer bond orders larger than 0.100000
B(  0-S ,  1-C ) :   1.1524 B(  0-S ,  4-C ) :   1.1330 B(  1-C ,  2-C ) :   1.5765
B(  1-C ,  4-C ) :   0.1100 B(  1-C , 32-H ) :   0.9701 B(  2-C ,  3-C ) :   1.2573
B(  2-C ,  6-C ) :   1.0217 B(  3-C ,  4-C ) :   1.5852 B(  3-C ,  5-H ) :   0.9826
B(  4-C , 20-C ) :   1.0165 B(  6-C ,  7-H ) :   0.9448 B(  6-C ,  8-H ) :   0.9358
B(  6-C ,  9-C ) :   1.0383 B(  9-C , 10-H ) :   0.9613 B(  9-C , 11-H ) :   0.9600
B(  9-C , 12-C ) :   1.0701 B( 12-C , 13-H ) :   0.9762 B( 12-C , 14-H ) :   0.9749
B( 12-C , 15-H ) :   0.9762 B( 16-S , 17-C ) :   1.1540 B( 16-S , 20-C ) :   1.1562
B( 17-C , 18-C ) :   1.5921 B( 17-C , 33-H ) :   0.9731 B( 18-C , 19-C ) :   1.2738
B( 18-C , 21-H ) :   0.9958 B( 19-C , 20-C ) :   1.5561 B( 19-C , 22-C ) :   1.0532
B( 22-C , 23-H ) :   0.9197 B( 22-C , 24-H ) :   0.9172 B( 22-C , 25-C ) :   1.0724
B( 25-C , 26-H ) :   0.9552 B( 25-C , 27-H ) :   0.9542 B( 25-C , 28-C ) :   1.0673
B( 28-C , 29-H ) :   0.9765 B( 28-C , 30-H ) :   0.9656 B( 28-C , 31-H ) :   0.9725

Dispersion correction           -0.015431790
FINAL SINGLE POINT ENERGY     -1339.844688122382

DIPOLE MOMENT
-------------
                                X             Y             Z
Electronic contribution:    -22.36760      16.42012       1.19533
Nuclear contribution   :     22.77461     -16.86167      -1.63136
                        -----------------------------------------
Total Dipole Moment    :      0.40700      -0.44156      -0.43603
                        -----------------------------------------
Magnitude (a.u.)       :      0.74212
Magnitude (Debye)      :      1.88632

Rotational constants in cm-1:     0.023022     0.007868     0.006809
Rotational constants in MHz :   690.187243   235.887967   204.119317

                             ****ORCA TERMINATED NORMALLY****
TOTAL RUN TIME: 0 days 0 hours 0 minutes 22 seconds 383 msec
