                         Program Version 4.2.1 -  RELEASE  -
|  1> ! wB97X-D3 SP def2-SVP
|  2> %pal
|  3> nprocs 24
|  4> end
|  5>
|  6> * xyz 0 1
|  7> S 	 -120.297 	 62.7765 	 -54.0296
|  8> C 	 -119.84 	 64.4714 	 -54.2552
|  9> C 	 -120.852 	 65.3345 	 -53.9508
| 10> C 	 -122.071 	 64.6923 	 -53.6071
| 11> C 	 -121.923 	 63.3132 	 -53.5978
| 12> H 	 -123.038 	 65.1583 	 -53.4481
| 13> C 	 -120.718 	 66.8395 	 -54.009
| 14> H 	 -119.81 	 67.0005 	 -53.5111
| 15> H 	 -121.431 	 67.2933 	 -53.2887
| 16> C 	 -120.707 	 67.5106 	 -55.4147
| 17> H 	 -120.454 	 68.6057 	 -55.2895
| 18> H 	 -119.769 	 67.1406 	 -55.8881
| 19> C 	 -121.999 	 67.2091 	 -56.1382
| 20> H 	 -122.203 	 68.0039 	 -56.7974
| 21> H 	 -122.094 	 66.2136 	 -56.5703
| 22> H 	 -122.867 	 67.3382 	 -55.527
| 23> S 	 -123.482 	 61.3295 	 -54.7799
| 24> C 	 -124.678 	 60.589 	 -53.8026
| 25> C 	 -124.619 	 61.0022 	 -52.4855
| 26> C 	 -123.612 	 61.9728 	 -52.2732
| 27> C 	 -122.987 	 62.3296 	 -53.4308
| 28> H 	 -125.267 	 60.5436 	 -51.8101
| 29> C 	 -123.415 	 62.5234 	 -50.8564
| 30> H 	 -124.324 	 62.4513 	 -50.3047
| 31> H 	 -123.301 	 63.6199 	 -50.9791
| 32> C 	 -122.192 	 62.0049 	 -50.0363
| 33> H 	 -122.085 	 62.5019 	 -49.0221
| 34> H 	 -121.291 	 62.1372 	 -50.6223
| 35> C 	 -122.361 	 60.5564 	 -49.5994
| 36> H 	 -121.468 	 60.0914 	 -49.0779
| 37> H 	 -122.45 	 60.0665 	 -50.5522
| 38> H 	 -123.251 	 60.3362 	 -49.0574
| 39> H 	 -118.855 	 64.8661 	 -54.5549
| 40> H 	 -125.371 	 59.8386 	 -54.2822
| 41> *
| 42>
| 43>                          ****END OF INPUT****

CARTESIAN COORDINATES (ANGSTROEM)
---------------------------------
  S    -120.297000   62.776500  -54.029600
  C    -119.840000   64.471400  -54.255200
  C    -120.852000   65.334500  -53.950800
  C    -122.071000   64.692300  -53.607100
  C    -121.923000   63.313200  -53.597800
  H    -123.038000   65.158300  -53.448100
  C    -120.718000   66.839500  -54.009000
  H    -119.810000   67.000500  -53.511100
  H    -121.431000   67.293300  -53.288700
  C    -120.707000   67.510600  -55.414700
  H    -120.454000   68.605700  -55.289500
  H    -119.769000   67.140600  -55.888100
  C    -121.999000   67.209100  -56.138200
  H    -122.203000   68.003900  -56.797400
  H    -122.094000   66.213600  -56.570300
  H    -122.867000   67.338200  -55.527000
  S    -123.482000   61.329500  -54.779900
  C    -124.678000   60.589000  -53.802600
  C    -124.619000   61.002200  -52.485500
  C    -123.612000   61.972800  -52.273200
  C    -122.987000   62.329600  -53.430800
  H    -125.267000   60.543600  -51.810100
  C    -123.415000   62.523400  -50.856400
  H    -124.324000   62.451300  -50.304700
  H    -123.301000   63.619900  -50.979100
  C    -122.192000   62.004900  -50.036300
  H    -122.085000   62.501900  -49.022100
  H    -121.291000   62.137200  -50.622300
  C    -122.361000   60.556400  -49.599400
  H    -121.468000   60.091400  -49.077900
  H    -122.450000   60.066500  -50.552200
  H    -123.251000   60.336200  -49.057400
  H    -118.855000   64.866100  -54.554900
  H    -125.371000   59.838600  -54.282200

 Total Charge           Charge          ....    0
 Multiplicity           Mult            ....    1
 Number of Electrons    NEL             ....  134
 Basis Dimension        Dim             ....  322

ORBITAL ENERGIES
----------------

  NO   OCC          E(Eh)            E(eV)
   0   2.0000     -88.969005     -2420.9697
   1   2.0000     -88.965203     -2420.8662
   2   2.0000     -10.328151      -281.0433
   3   2.0000     -10.320123      -280.8248
   4   2.0000     -10.318162      -280.7715
   5   2.0000     -10.312727      -280.6236
   6   2.0000     -10.300663      -280.2953
   7   2.0000     -10.295735      -280.1612
   8   2.0000     -10.295335      -280.1503
   9   2.0000     -10.293818      -280.1090
  10   2.0000     -10.291258      -280.0394
  11   2.0000     -10.287037      -279.9245
  12   2.0000     -10.286765      -279.9171
  13   2.0000     -10.285346      -279.8785
  14   2.0000     -10.269926      -279.4589
  15   2.0000     -10.268891      -279.4307
  16   2.0000      -8.082897      -219.9468
  17   2.0000      -8.080857      -219.8913
  18   2.0000      -6.041398      -164.3948
  19   2.0000      -6.039137      -164.3333
  20   2.0000      -6.037615      -164.2919
  21   2.0000      -6.035260      -164.2278
  22   2.0000      -6.033627      -164.1833
  23   2.0000      -6.031786      -164.1332
  24   2.0000      -1.009344       -27.4656
  25   2.0000      -0.985793       -26.8248
  26   2.0000      -0.910295       -24.7704
  27   2.0000      -0.904460       -24.6116
  28   2.0000      -0.867010       -23.5925
  29   2.0000      -0.852350       -23.1936
  30   2.0000      -0.846900       -23.0453
  31   2.0000      -0.814059       -22.1517
  32   2.0000      -0.785179       -21.3658
  33   2.0000      -0.771986       -21.0068
  34   2.0000      -0.706106       -19.2141
  35   2.0000      -0.702886       -19.1265
  36   2.0000      -0.685611       -18.6564
  37   2.0000      -0.663463       -18.0537
  38   2.0000      -0.636228       -17.3127
  39   2.0000      -0.612400       -16.6642
  40   2.0000      -0.594639       -16.1809
  41   2.0000      -0.570849       -15.5336
  42   2.0000      -0.551029       -14.9943
  43   2.0000      -0.549764       -14.9598
  44   2.0000      -0.545525       -14.8445
  45   2.0000      -0.534852       -14.5541
  46   2.0000      -0.517785       -14.0896
  47   2.0000      -0.506758       -13.7896
  48   2.0000      -0.500039       -13.6068
  49   2.0000      -0.490004       -13.3337
  50   2.0000      -0.488433       -13.2909
  51   2.0000      -0.480521       -13.0756
  52   2.0000      -0.472043       -12.8449
  53   2.0000      -0.465915       -12.6782
  54   2.0000      -0.463054       -12.6003
  55   2.0000      -0.446764       -12.1571
  56   2.0000      -0.443565       -12.0700
  57   2.0000      -0.432799       -11.7771
  58   2.0000      -0.430998       -11.7281
  59   2.0000      -0.429097       -11.6763
  60   2.0000      -0.421960       -11.4821
  61   2.0000      -0.415110       -11.2957
  62   2.0000      -0.398277       -10.8377
  63   2.0000      -0.339610        -9.2413
  64   2.0000      -0.334013        -9.0890
  65   2.0000      -0.328231        -8.9316
  66   2.0000      -0.300312        -8.1719
  67   0.0000       0.038773         1.0551
  68   0.0000       0.059873         1.6292
  69   0.0000       0.110354         3.0029
  70   0.0000       0.127772         3.4768
  71   0.0000       0.130390         3.5481

MULLIKEN ATOMIC CHARGES
-----------------------
   0 S :    0.117139
   1 C :   -0.129355
   2 C :   -0.093957
   3 C :    0.050108
   4 C :   -0.186001
   5 H :    0.019309
   6 C :    0.059139
   7 H :    0.006241
   8 H :    0.022876
   9 C :   -0.072101
  10 H :    0.037798
  11 H :    0.027281
  12 C :   -0.001501
  13 H :    0.015793
  14 H :    0.057561
  15 H :    0.007182
  16 S :    0.123804
  17 C :   -0.125831
  18 C :   -0.008842
  19 C :   -0.019050
  20 C :   -0.189644
  21 H :   -0.005254
  22 C :    0.090556
  23 H :    0.011550
  24 H :    0.026451
  25 C :   -0.063807
  26 H :    0.037028
  27 H :    0.037198
  28 C :   -0.066803
  29 H :    0.046008
  30 H :    0.022647
  31 H :    0.022090
  32 H :    0.046367
  33 H :    0.078020
Sum of atomic charges:    0.0000000

LOEWDIN ATOMIC CHARGES
----------------------
   0 S :    0.392058
   1 C :   -0.196912
   2 C :   -0.065817
   3 C :   -0.056548
   4 C :   -0.184826
   5 H :    0.035480
   6 C :   -0.036463
   7 H :    0.022136
   8 H :    0.030192
   9 C :   -0.040000
  10 H :    0.031344
  11 H :    0.026169
  12 C :   -0.067667
  13 H :    0.024278
  14 H :    0.035596
  15 H :    0.024002
  16 S :    0.421536
  17 C :   -0.197011
  18 C :   -0.070234
  19 C :   -0.053849
  20 C :   -0.212181
  21 H :    0.022369
  22 C :   -0.028241
  23 H :    0.024287
  24 H :    0.036425
  25 C :   -0.037477
  26 H :    0.029775
  27 H :    0.024401
  28 C :   -0.074983
  29 H :    0.033283
  30 H :    0.021582
  31 H :    0.017049
  32 H :    0.031744
  33 H :    0.038503

  Mayer bond orders larger than 0.100000
B(  0-S ,  1-C ) :   1.1182 B(  0-S ,  4-C ) :   1.1499 B(  1-C ,  2-C ) :   1.6460
B(  1-C , 32-H ) :   0.9612 B(  2-C ,  3-C ) :   1.2233 B(  2-C ,  6-C ) :   1.0068
B(  3-C ,  4-C ) :   1.5980 B(  3-C ,  5-H ) :   0.9919 B(  4-C , 20-C ) :   1.0180
B(  6-C ,  7-H ) :   0.9329 B(  6-C ,  8-H ) :   0.9449 B(  6-C ,  9-C ) :   1.0754
B(  9-C , 10-H ) :   0.9563 B(  9-C , 11-H ) :   0.9548 B(  9-C , 12-C ) :   1.0659
B( 12-C , 13-H ) :   0.9678 B( 12-C , 14-H ) :   0.9722 B( 12-C , 15-H ) :   0.9701
B( 16-S , 17-C ) :   1.1763 B( 16-S , 20-C ) :   1.1489 B( 17-C , 18-C ) :   1.5877
B( 17-C , 33-H ) :   0.9600 B( 18-C , 19-C ) :   1.2344 B( 18-C , 21-H ) :   1.0086
B( 19-C , 20-C ) :   1.6096 B( 19-C , 22-C ) :   1.0285 B( 22-C , 23-H ) :   0.9405
B( 22-C , 24-H ) :   0.9272 B( 22-C , 25-C ) :   1.0670 B( 25-C , 26-H ) :   0.9584
B( 25-C , 27-H ) :   0.9580 B( 25-C , 28-C ) :   1.0669 B( 28-C , 29-H ) :   0.9733
B( 28-C , 30-H ) :   0.9776 B( 28-C , 31-H ) :   0.9750

Dispersion correction           -0.015180171
FINAL SINGLE POINT ENERGY     -1339.878080865114

DIPOLE MOMENT
-------------
                                X             Y             Z
Electronic contribution:     -0.03226     -13.71059     -10.10522
Nuclear contribution   :     -0.17244      14.11466      10.28491
                        -----------------------------------------
Total Dipole Moment    :     -0.20470       0.40408       0.17969
                        -----------------------------------------
Magnitude (a.u.)       :      0.48730
Magnitude (Debye)      :      1.23863

Rotational constants in cm-1:     0.021687     0.008175     0.007234
Rotational constants in MHz :   650.174334   245.068330   216.858120

                             ****ORCA TERMINATED NORMALLY****
TOTAL RUN TIME: 0 days 0 hours 0 minutes 21 seconds 918 msec
