                         Program Version 4.2.1 -  RELEASE  -
|  1> ! wB97X-D3 SP def2-SVP
|  2> %pal
|  3> nprocs 24
|  4> end
|  5>
|  6> * xyz 0 1
|  7> S 	 -46.337 	 18.5425 	 31.6407
|  8> C 	 -45.6698 	 17.5215 	 32.9186
|  9> C 	 -45.3417 	 18.2136 	 34.0584
| 10> C 	 -45.7587 	 19.5762 	 33.9663
| 11> C 	 -46.2822 	 19.9112 	 32.7699
| 12> H 	 -45.5764 	 20.3553 	 34.709
| 13> C 	 -44.7474 	 17.5692 	 35.3011
| 14> H 	 -45.491 	 16.9697 	 35.7865
| 15> H 	 -44.5878 	 18.4513 	 35.8985
| 16> C 	 -43.4457 	 16.7312 	 35.0788
| 17> H 	 -43.1415 	 16.4324 	 36.0547
| 18> H 	 -43.4535 	 15.7484 	 34.4921
| 19> C 	 -42.3876 	 17.6796 	 34.4337
| 20> H 	 -42.0562 	 18.5407 	 35.0152
| 21> H 	 -41.3794 	 17.2402 	 34.2428
| 22> H 	 -42.6494 	 17.9776 	 33.4046
| 23> S 	 -47.841 	 22.1767 	 33.0798
| 24> C 	 -47.7495 	 23.3916 	 31.8728
| 25> C 	 -47.0465 	 22.9768 	 30.8317
| 26> C 	 -46.3721 	 21.7172 	 31.0411
| 27> C 	 -46.5923 	 21.1918 	 32.3191
| 28> H 	 -46.8691 	 23.6866 	 30.0233
| 29> C 	 -45.5873 	 21.1408 	 29.873
| 30> H 	 -45.9105 	 21.6429 	 28.9013
| 31> H 	 -45.7786 	 20.1174 	 29.7305
| 32> C 	 -44.0976 	 21.2803 	 30.0846
| 33> H 	 -43.8605 	 21.0618 	 31.1136
| 34> H 	 -43.8659 	 22.3249 	 29.8713
| 35> C 	 -43.2447 	 20.2966 	 29.2376
| 36> H 	 -43.5812 	 20.3463 	 28.2497
| 37> H 	 -43.3475 	 19.3087 	 29.5979
| 38> H 	 -42.2564 	 20.6439 	 29.3421
| 39> H 	 -45.255 	 16.5043 	 32.8114
| 40> H 	 -48.405 	 24.3063 	 31.8541
| 41> *
| 42>
| 43>                          ****END OF INPUT****

CARTESIAN COORDINATES (ANGSTROEM)
---------------------------------
  S    -46.337000   18.542500   31.640700
  C    -45.669800   17.521500   32.918600
  C    -45.341700   18.213600   34.058400
  C    -45.758700   19.576200   33.966300
  C    -46.282200   19.911200   32.769900
  H    -45.576400   20.355300   34.709000
  C    -44.747400   17.569200   35.301100
  H    -45.491000   16.969700   35.786500
  H    -44.587800   18.451300   35.898500
  C    -43.445700   16.731200   35.078800
  H    -43.141500   16.432400   36.054700
  H    -43.453500   15.748400   34.492100
  C    -42.387600   17.679600   34.433700
  H    -42.056200   18.540700   35.015200
  H    -41.379400   17.240200   34.242800
  H    -42.649400   17.977600   33.404600
  S    -47.841000   22.176700   33.079800
  C    -47.749500   23.391600   31.872800
  C    -47.046500   22.976800   30.831700
  C    -46.372100   21.717200   31.041100
  C    -46.592300   21.191800   32.319100
  H    -46.869100   23.686600   30.023300
  C    -45.587300   21.140800   29.873000
  H    -45.910500   21.642900   28.901300
  H    -45.778600   20.117400   29.730500
  C    -44.097600   21.280300   30.084600
  H    -43.860500   21.061800   31.113600
  H    -43.865900   22.324900   29.871300
  C    -43.244700   20.296600   29.237600
  H    -43.581200   20.346300   28.249700
  H    -43.347500   19.308700   29.597900
  H    -42.256400   20.643900   29.342100
  H    -45.255000   16.504300   32.811400
  H    -48.405000   24.306300   31.854100

 Total Charge           Charge          ....    0
 Multiplicity           Mult            ....    1
 Number of Electrons    NEL             ....  134
 Basis Dimension        Dim             ....  322

ORBITAL ENERGIES
----------------

  NO   OCC          E(Eh)            E(eV)
   0   2.0000     -88.967871     -2420.9388
   1   2.0000     -88.960557     -2420.7398
   2   2.0000     -10.322117      -280.8791
   3   2.0000     -10.320438      -280.8334
   4   2.0000     -10.311905      -280.6012
   5   2.0000     -10.311832      -280.5992
   6   2.0000     -10.302362      -280.3415
   7   2.0000     -10.300569      -280.2927
   8   2.0000     -10.297705      -280.2148
   9   2.0000     -10.294603      -280.1304
  10   2.0000     -10.292036      -280.0605
  11   2.0000     -10.285540      -279.8838
  12   2.0000     -10.284664      -279.8599
  13   2.0000     -10.280639      -279.7504
  14   2.0000     -10.275642      -279.6144
  15   2.0000     -10.262325      -279.2521
  16   2.0000      -8.081579      -219.9109
  17   2.0000      -8.076051      -219.7605
  18   2.0000      -6.040211      -164.3625
  19   2.0000      -6.036341      -164.2572
  20   2.0000      -6.034623      -164.2104
  21   2.0000      -6.032150      -164.1431
  22   2.0000      -6.030452      -164.0969
  23   2.0000      -6.026692      -163.9946
  24   2.0000      -1.012237       -27.5444
  25   2.0000      -0.986329       -26.8394
  26   2.0000      -0.913597       -24.8602
  27   2.0000      -0.908301       -24.7161
  28   2.0000      -0.874694       -23.8016
  29   2.0000      -0.850364       -23.1396
  30   2.0000      -0.842918       -22.9370
  31   2.0000      -0.815362       -22.1871
  32   2.0000      -0.784984       -21.3605
  33   2.0000      -0.771635       -20.9973
  34   2.0000      -0.713031       -19.4026
  35   2.0000      -0.709128       -19.2964
  36   2.0000      -0.688668       -18.7396
  37   2.0000      -0.658877       -17.9289
  38   2.0000      -0.631143       -17.1743
  39   2.0000      -0.615031       -16.7358
  40   2.0000      -0.596504       -16.2317
  41   2.0000      -0.571619       -15.5545
  42   2.0000      -0.566492       -15.4150
  43   2.0000      -0.553904       -15.0725
  44   2.0000      -0.539341       -14.6762
  45   2.0000      -0.525393       -14.2967
  46   2.0000      -0.514630       -14.0038
  47   2.0000      -0.510186       -13.8829
  48   2.0000      -0.506667       -13.7871
  49   2.0000      -0.494374       -13.4526
  50   2.0000      -0.491940       -13.3864
  51   2.0000      -0.481904       -13.1133
  52   2.0000      -0.469734       -12.7821
  53   2.0000      -0.463417       -12.6102
  54   2.0000      -0.461394       -12.5552
  55   2.0000      -0.446542       -12.1510
  56   2.0000      -0.440135       -11.9767
  57   2.0000      -0.434607       -11.8263
  58   2.0000      -0.431158       -11.7324
  59   2.0000      -0.428667       -11.6646
  60   2.0000      -0.422350       -11.4927
  61   2.0000      -0.413569       -11.2538
  62   2.0000      -0.410303       -11.1649
  63   2.0000      -0.352455        -9.5908
  64   2.0000      -0.333520        -9.0755
  65   2.0000      -0.324637        -8.8338
  66   2.0000      -0.290611        -7.9079
  67   0.0000       0.024589         0.6691
  68   0.0000       0.076639         2.0855
  69   0.0000       0.106466         2.8971
  70   0.0000       0.114675         3.1205
  71   0.0000       0.131947         3.5905

MULLIKEN ATOMIC CHARGES
-----------------------
   0 S :    0.101997
   1 C :   -0.111809
   2 C :   -0.126485
   3 C :    0.007600
   4 C :   -0.129839
   5 H :    0.019790
   6 C :    0.100934
   7 H :    0.045420
   8 H :    0.015044
   9 C :   -0.062517
  10 H :    0.024023
  11 H :    0.051074
  12 C :   -0.091210
  13 H :    0.032920
  14 H :    0.022051
  15 H :    0.045975
  16 S :    0.098319
  17 C :   -0.099965
  18 C :   -0.034424
  19 C :   -0.080107
  20 C :   -0.126637
  21 H :    0.023473
  22 C :    0.069935
  23 H :    0.029575
  24 H :    0.008440
  25 C :   -0.093863
  26 H :    0.031802
  27 H :    0.020884
  28 C :    0.017380
  29 H :    0.014138
  30 H :    0.025000
  31 H :    0.025144
  32 H :    0.050736
  33 H :    0.075204
Sum of atomic charges:   -0.0000000

LOEWDIN ATOMIC CHARGES
----------------------
   0 S :    0.404684
   1 C :   -0.196262
   2 C :   -0.064589
   3 C :   -0.059369
   4 C :   -0.182517
   5 H :    0.035857
   6 C :   -0.024012
   7 H :    0.032801
   8 H :    0.031169
   9 C :   -0.039926
  10 H :    0.021257
  11 H :    0.035780
  12 C :   -0.081116
  13 H :    0.025293
  14 H :    0.026460
  15 H :    0.028534
  16 S :    0.408467
  17 C :   -0.197998
  18 C :   -0.082304
  19 C :   -0.048143
  20 C :   -0.205189
  21 H :    0.034230
  22 C :   -0.040139
  23 H :    0.036212
  24 H :    0.003032
  25 C :   -0.033658
  26 H :    0.022629
  27 H :    0.020992
  28 C :   -0.047735
  29 H :    0.015533
  30 H :    0.020322
  31 H :    0.023184
  32 H :    0.032117
  33 H :    0.044402

  Mayer bond orders larger than 0.100000
B(  0-S ,  1-C ) :   1.1222 B(  0-S ,  4-C ) :   1.1166 B(  1-C ,  2-C ) :   1.6492
B(  1-C , 32-H ) :   0.9569 B(  2-C ,  3-C ) :   1.2230 B(  2-C ,  6-C ) :   0.9987
B(  3-C ,  4-C ) :   1.5879 B(  3-C ,  5-H ) :   0.9906 B(  4-C , 20-C ) :   1.1068
B(  6-C ,  7-H ) :   0.9399 B(  6-C ,  8-H ) :   0.9403 B(  6-C ,  9-C ) :   1.0644
B(  9-C , 10-H ) :   0.9556 B(  9-C , 11-H ) :   0.9575 B(  9-C , 12-C ) :   1.0645
B( 12-C , 13-H ) :   0.9779 B( 12-C , 14-H ) :   0.9738 B( 12-C , 15-H ) :   0.9732
B( 16-S , 17-C ) :   1.1535 B( 16-S , 20-C ) :   1.1236 B( 17-C , 18-C ) :   1.6362
B( 17-C , 33-H ) :   0.9538 B( 18-C , 19-C ) :   1.2435 B( 18-C , 21-H ) :   0.9853
B( 19-C , 20-C ) :   1.5597 B( 19-C , 22-C ) :   1.0427 B( 22-C , 23-H ) :   0.9310
B( 22-C , 24-H ) :   0.9304 B( 22-C , 25-C ) :   1.0566 B( 25-C , 26-H ) :   0.9627
B( 25-C , 27-H ) :   0.9556 B( 25-C , 28-C ) :   1.0802 B( 28-C , 29-H ) :   0.9742
B( 28-C , 30-H ) :   0.9743 B( 28-C , 31-H ) :   0.9735

Dispersion correction           -0.015179873
FINAL SINGLE POINT ENERGY     -1339.864961718922

DIPOLE MOMENT
-------------
                                X             Y             Z
Electronic contribution:    -23.06121       8.13379       1.81750
Nuclear contribution   :     23.52337      -8.18325      -1.80624
                        -----------------------------------------
Total Dipole Moment    :      0.46216      -0.04946       0.01125
                        -----------------------------------------
Magnitude (a.u.)       :      0.46494
Magnitude (Debye)      :      1.18178

Rotational constants in cm-1:     0.020134     0.009200     0.007381
Rotational constants in MHz :   603.594856   275.798396   221.264176

                             ****ORCA TERMINATED NORMALLY****
TOTAL RUN TIME: 0 days 0 hours 0 minutes 22 seconds 284 msec
