                         Program Version 4.2.1 -  RELEASE  -
|  1> ! wB97X-D3 SP def2-SVP
|  2> %pal
|  3> nprocs 24
|  4> end
|  5>
|  6> * xyz 0 1
|  7> S 	 -63.3981 	 8.54352 	 -105.358
|  8> C 	 -63.9551 	 9.71625 	 -106.558
|  9> C 	 -63.3911 	 10.9994 	 -106.323
| 10> C 	 -62.6386 	 10.9267 	 -105.112
| 11> C 	 -62.5749 	 9.75961 	 -104.466
| 12> H 	 -62.1714 	 11.8539 	 -104.697
| 13> C 	 -63.5575 	 12.1579 	 -107.261
| 14> H 	 -63.6327 	 11.7651 	 -108.284
| 15> H 	 -62.5594 	 12.6361 	 -107.338
| 16> C 	 -64.6028 	 13.1852 	 -106.859
| 17> H 	 -65.6175 	 12.7959 	 -106.769
| 18> H 	 -64.3073 	 13.375 	 -105.85
| 19> C 	 -64.6603 	 14.4733 	 -107.654
| 20> H 	 -65.2259 	 15.2686 	 -107.157
| 21> H 	 -63.6534 	 14.7529 	 -107.784
| 22> H 	 -65.0203 	 14.541 	 -108.735
| 23> S 	 -62.7103 	 8.53696 	 -102.081
| 24> C 	 -61.5336 	 8.87736 	 -100.817
| 25> C 	 -60.6097 	 9.80095 	 -101.232
| 26> C 	 -60.7818 	 10.2078 	 -102.652
| 27> C 	 -61.9088 	 9.55811 	 -103.186
| 28> H 	 -59.8779 	 10.1668 	 -100.599
| 29> C 	 -59.8539 	 11.2879 	 -103.258
| 30> H 	 -59.9127 	 11.3635 	 -104.274
| 31> H 	 -58.8336 	 11.0427 	 -103.098
| 32> C 	 -60.0682 	 12.5843 	 -102.602
| 33> H 	 -59.8116 	 12.7149 	 -101.609
| 34> H 	 -61.0589 	 12.7336 	 -102.728
| 35> C 	 -59.3169 	 13.7114 	 -103.337
| 36> H 	 -59.4887 	 14.5811 	 -102.717
| 37> H 	 -59.7447 	 14.0097 	 -104.349
| 38> H 	 -58.2061 	 13.4498 	 -103.366
| 39> H 	 -64.4722 	 9.46609 	 -107.473
| 40> H 	 -61.7181 	 8.57329 	 -99.7458
| 41> *
| 42>
| 43>                          ****END OF INPUT****

CARTESIAN COORDINATES (ANGSTROEM)
---------------------------------
  S    -63.398100    8.543520  -105.358000
  C    -63.955100    9.716250  -106.558000
  C    -63.391100   10.999400  -106.323000
  C    -62.638600   10.926700  -105.112000
  C    -62.574900    9.759610  -104.466000
  H    -62.171400   11.853900  -104.697000
  C    -63.557500   12.157900  -107.261000
  H    -63.632700   11.765100  -108.284000
  H    -62.559400   12.636100  -107.338000
  C    -64.602800   13.185200  -106.859000
  H    -65.617500   12.795900  -106.769000
  H    -64.307300   13.375000  -105.850000
  C    -64.660300   14.473300  -107.654000
  H    -65.225900   15.268600  -107.157000
  H    -63.653400   14.752900  -107.784000
  H    -65.020300   14.541000  -108.735000
  S    -62.710300    8.536960  -102.081000
  C    -61.533600    8.877360  -100.817000
  C    -60.609700    9.800950  -101.232000
  C    -60.781800   10.207800  -102.652000
  C    -61.908800    9.558110  -103.186000
  H    -59.877900   10.166800  -100.599000
  C    -59.853900   11.287900  -103.258000
  H    -59.912700   11.363500  -104.274000
  H    -58.833600   11.042700  -103.098000
  C    -60.068200   12.584300  -102.602000
  H    -59.811600   12.714900  -101.609000
  H    -61.058900   12.733600  -102.728000
  C    -59.316900   13.711400  -103.337000
  H    -59.488700   14.581100  -102.717000
  H    -59.744700   14.009700  -104.349000
  H    -58.206100   13.449800  -103.366000
  H    -64.472200    9.466090  -107.473000
  H    -61.718100    8.573290  -99.745800

 Total Charge           Charge          ....    0
 Multiplicity           Mult            ....    1
 Number of Electrons    NEL             ....  134
 Basis Dimension        Dim             ....  322

ORBITAL ENERGIES
----------------

  NO   OCC          E(Eh)            E(eV)
   0   2.0000     -88.968197     -2420.9477
   1   2.0000     -88.964309     -2420.8419
   2   2.0000     -10.327843      -281.0349
   3   2.0000     -10.323326      -280.9120
   4   2.0000     -10.320606      -280.8380
   5   2.0000     -10.317173      -280.7445
   6   2.0000     -10.310566      -280.5648
   7   2.0000     -10.304688      -280.4048
   8   2.0000     -10.297195      -280.2009
   9   2.0000     -10.294769      -280.1349
  10   2.0000     -10.290776      -280.0263
  11   2.0000     -10.287957      -279.9496
  12   2.0000     -10.286149      -279.9003
  13   2.0000     -10.281574      -279.7759
  14   2.0000     -10.279954      -279.7318
  15   2.0000     -10.269122      -279.4370
  16   2.0000      -8.083013      -219.9500
  17   2.0000      -8.079988      -219.8676
  18   2.0000      -6.041504      -164.3977
  19   2.0000      -6.038587      -164.3183
  20   2.0000      -6.037520      -164.2893
  21   2.0000      -6.034288      -164.2013
  22   2.0000      -6.033768      -164.1872
  23   2.0000      -6.030670      -164.1029
  24   2.0000      -1.011723       -27.5304
  25   2.0000      -0.984375       -26.7862
  26   2.0000      -0.926852       -25.2209
  27   2.0000      -0.917652       -24.9706
  28   2.0000      -0.871411       -23.7123
  29   2.0000      -0.852648       -23.2017
  30   2.0000      -0.845681       -23.0121
  31   2.0000      -0.817241       -22.2382
  32   2.0000      -0.785612       -21.3776
  33   2.0000      -0.773392       -21.0451
  34   2.0000      -0.709698       -19.3119
  35   2.0000      -0.705471       -19.1968
  36   2.0000      -0.694726       -18.9045
  37   2.0000      -0.667510       -18.1639
  38   2.0000      -0.638527       -17.3752
  39   2.0000      -0.624526       -16.9942
  40   2.0000      -0.602166       -16.3858
  41   2.0000      -0.585643       -15.9362
  42   2.0000      -0.570570       -15.5260
  43   2.0000      -0.556204       -15.1351
  44   2.0000      -0.533335       -14.5128
  45   2.0000      -0.530275       -14.4295
  46   2.0000      -0.525878       -14.3099
  47   2.0000      -0.517132       -14.0719
  48   2.0000      -0.502717       -13.6796
  49   2.0000      -0.495559       -13.4848
  50   2.0000      -0.490935       -13.3590
  51   2.0000      -0.480600       -13.0778
  52   2.0000      -0.475210       -12.9311
  53   2.0000      -0.462887       -12.5958
  54   2.0000      -0.455670       -12.3994
  55   2.0000      -0.448301       -12.1989
  56   2.0000      -0.446886       -12.1604
  57   2.0000      -0.443587       -12.0706
  58   2.0000      -0.441640       -12.0176
  59   2.0000      -0.428965       -11.6727
  60   2.0000      -0.425407       -11.5759
  61   2.0000      -0.418355       -11.3840
  62   2.0000      -0.406173       -11.0525
  63   2.0000      -0.356982        -9.7140
  64   2.0000      -0.333451        -9.0737
  65   2.0000      -0.327286        -8.9059
  66   2.0000      -0.289089        -7.8665
  67   0.0000       0.031194         0.8488
  68   0.0000       0.078322         2.1313
  69   0.0000       0.105668         2.8754
  70   0.0000       0.113907         3.0996
  71   0.0000       0.122730         3.3397

MULLIKEN ATOMIC CHARGES
-----------------------
   0 S :    0.114898
   1 C :   -0.122234
   2 C :   -0.108062
   3 C :   -0.020813
   4 C :   -0.100012
   5 H :    0.007681
   6 C :    0.061834
   7 H :    0.020196
   8 H :    0.021307
   9 C :   -0.028320
  10 H :    0.030612
  11 H :    0.015644
  12 C :   -0.044175
  13 H :    0.039830
  14 H :    0.005391
  15 H :    0.037830
  16 S :    0.100770
  17 C :   -0.107919
  18 C :   -0.007068
  19 C :   -0.069790
  20 C :   -0.135671
  21 H :   -0.004859
  22 C :    0.149744
  23 H :   -0.005271
  24 H :    0.003486
  25 C :   -0.031522
  26 H :    0.016519
  27 H :   -0.002089
  28 C :   -0.084482
  29 H :    0.030033
  30 H :    0.041702
  31 H :    0.044325
  32 H :    0.048368
  33 H :    0.082117
Sum of atomic charges:    0.0000000

LOEWDIN ATOMIC CHARGES
----------------------
   0 S :    0.411425
   1 C :   -0.190986
   2 C :   -0.058420
   3 C :   -0.076301
   4 C :   -0.206769
   5 H :    0.033116
   6 C :   -0.035872
   7 H :    0.030120
   8 H :    0.034480
   9 C :   -0.039603
  10 H :    0.026443
  11 H :    0.026102
  12 C :   -0.073389
  13 H :    0.030435
  14 H :    0.015747
  15 H :    0.034095
  16 S :    0.415108
  17 C :   -0.194300
  18 C :   -0.055814
  19 C :   -0.045739
  20 C :   -0.206139
  21 H :    0.018479
  22 C :   -0.019809
  23 H :    0.017324
  24 H :    0.026762
  25 C :   -0.029940
  26 H :    0.017893
  27 H :    0.009486
  28 C :   -0.066990
  29 H :    0.023728
  30 H :    0.029018
  31 H :    0.031743
  32 H :    0.025863
  33 H :    0.042702

  Mayer bond orders larger than 0.100000
B(  0-S ,  1-C ) :   1.1437 B(  0-S ,  4-C ) :   1.1425 B(  1-C ,  2-C ) :   1.5904
B(  1-C , 32-H ) :   0.9678 B(  2-C ,  3-C ) :   1.2616 B(  2-C ,  6-C ) :   1.0319
B(  3-C ,  4-C ) :   1.5878 B(  3-C ,  5-H ) :   0.9823 B(  4-C , 20-C ) :   1.0258
B(  6-C ,  7-H ) :   0.9360 B(  6-C ,  8-H ) :   0.9331 B(  6-C ,  9-C ) :   1.0553
B(  9-C , 10-H ) :   0.9557 B(  9-C , 11-H ) :   0.9492 B(  9-C , 12-C ) :   1.0795
B( 12-C , 13-H ) :   0.9737 B( 12-C , 14-H ) :   0.9705 B( 12-C , 15-H ) :   0.9744
B( 16-S , 17-C ) :   1.1343 B( 16-S , 20-C ) :   1.1561 B( 17-C , 18-C ) :   1.6310
B( 17-C , 33-H ) :   0.9605 B( 18-C , 19-C ) :   1.2115 B( 18-C , 21-H ) :   0.9996
B( 19-C , 20-C ) :   1.6013 B( 19-C , 22-C ) :   1.0503 B( 22-C , 23-H ) :   0.9298
B( 22-C , 24-H ) :   0.9164 B( 22-C , 25-C ) :   1.0708 B( 25-C , 26-H ) :   0.9509
B( 25-C , 27-H ) :   0.9464 B( 25-C , 28-C ) :   1.0928 B( 28-C , 29-H ) :   0.9757
B( 28-C , 30-H ) :   0.9733 B( 28-C , 31-H ) :   0.9715

Dispersion correction           -0.013861628
FINAL SINGLE POINT ENERGY     -1339.856266300622

DIPOLE MOMENT
-------------
                                X             Y             Z
Electronic contribution:     -6.11962     -30.91868       9.58773
Nuclear contribution   :      6.37529      31.70167      -9.61776
                        -----------------------------------------
Total Dipole Moment    :      0.25567       0.78299      -0.03003
                        -----------------------------------------
Magnitude (a.u.)       :      0.82422
Magnitude (Debye)      :      2.09501

Rotational constants in cm-1:     0.016790     0.009206     0.006467
Rotational constants in MHz :   503.348915   275.983962   193.883974

                             ****ORCA TERMINATED NORMALLY****
TOTAL RUN TIME: 0 days 0 hours 0 minutes 20 seconds 408 msec
