                         Program Version 4.2.1 -  RELEASE  -
|  1> ! wB97X-D3 SP def2-SVP
|  2> %pal
|  3> nprocs 24
|  4> end
|  5>
|  6> * xyz 0 1
|  7> S 	 -98.9449 	 -25.6638 	 -63.9273
|  8> C 	 -99.8551 	 -24.4893 	 -64.8559
|  9> C 	 -101.018 	 -24.1271 	 -64.2299
| 10> C 	 -101.214 	 -24.8334 	 -62.9699
| 11> C 	 -100.149 	 -25.6063 	 -62.6871
| 12> H 	 -101.88 	 -24.6806 	 -62.1989
| 13> C 	 -101.949 	 -23.0279 	 -64.6647
| 14> H 	 -102.864 	 -23.4086 	 -65.0915
| 15> H 	 -101.51 	 -22.4967 	 -65.4555
| 16> C 	 -102.262 	 -21.9278 	 -63.6349
| 17> H 	 -102.371 	 -22.3506 	 -62.6874
| 18> H 	 -101.423 	 -21.2909 	 -63.4445
| 19> C 	 -103.463 	 -21.1049 	 -64.045
| 20> H 	 -104.397 	 -21.5045 	 -63.7201
| 21> H 	 -103.436 	 -20.0733 	 -63.6897
| 22> H 	 -103.499 	 -21.0022 	 -65.121
| 23> S 	 -99.6869 	 -28.0708 	 -61.6274
| 24> C 	 -99.5758 	 -28.2553 	 -59.8762
| 25> C 	 -99.7022 	 -27.0512 	 -59.1938
| 26> C 	 -99.8381 	 -25.959 	 -60.1556
| 27> C 	 -99.9514 	 -26.3924 	 -61.4707
| 28> H 	 -99.7926 	 -26.971 	 -58.0748
| 29> C 	 -99.9936 	 -24.5459 	 -59.6196
| 30> H 	 -100.285 	 -24.6115 	 -58.5889
| 31> H 	 -100.739 	 -24.1727 	 -60.3322
| 32> C 	 -98.7449 	 -23.7212 	 -59.6754
| 33> H 	 -98.3536 	 -23.946 	 -60.6776
| 34> H 	 -98.173 	 -24.1747 	 -58.8982
| 35> C 	 -98.7978 	 -22.2403 	 -59.6017
| 36> H 	 -98.8029 	 -21.8981 	 -58.5263
| 37> H 	 -99.6408 	 -21.7132 	 -60.05
| 38> H 	 -97.9247 	 -21.9023 	 -60.073
| 39> H 	 -99.5062 	 -24.0463 	 -65.7495
| 40> H 	 -99.395 	 -29.2075 	 -59.3995
| 41> *
| 42>
| 43>                          ****END OF INPUT****

CARTESIAN COORDINATES (ANGSTROEM)
---------------------------------
  S    -98.944900  -25.663800  -63.927300
  C    -99.855100  -24.489300  -64.855900
  C    -101.018000  -24.127100  -64.229900
  C    -101.214000  -24.833400  -62.969900
  C    -100.149000  -25.606300  -62.687100
  H    -101.880000  -24.680600  -62.198900
  C    -101.949000  -23.027900  -64.664700
  H    -102.864000  -23.408600  -65.091500
  H    -101.510000  -22.496700  -65.455500
  C    -102.262000  -21.927800  -63.634900
  H    -102.371000  -22.350600  -62.687400
  H    -101.423000  -21.290900  -63.444500
  C    -103.463000  -21.104900  -64.045000
  H    -104.397000  -21.504500  -63.720100
  H    -103.436000  -20.073300  -63.689700
  H    -103.499000  -21.002200  -65.121000
  S    -99.686900  -28.070800  -61.627400
  C    -99.575800  -28.255300  -59.876200
  C    -99.702200  -27.051200  -59.193800
  C    -99.838100  -25.959000  -60.155600
  C    -99.951400  -26.392400  -61.470700
  H    -99.792600  -26.971000  -58.074800
  C    -99.993600  -24.545900  -59.619600
  H    -100.285000  -24.611500  -58.588900
  H    -100.739000  -24.172700  -60.332200
  C    -98.744900  -23.721200  -59.675400
  H    -98.353600  -23.946000  -60.677600
  H    -98.173000  -24.174700  -58.898200
  C    -98.797800  -22.240300  -59.601700
  H    -98.802900  -21.898100  -58.526300
  H    -99.640800  -21.713200  -60.050000
  H    -97.924700  -21.902300  -60.073000
  H    -99.506200  -24.046300  -65.749500
  H    -99.395000  -29.207500  -59.399500

 Total Charge           Charge          ....    0
 Multiplicity           Mult            ....    1
 Number of Electrons    NEL             ....  134
 Basis Dimension        Dim             ....  322

ORBITAL ENERGIES
----------------

  NO   OCC          E(Eh)            E(eV)
   0   2.0000     -88.966258     -2420.8950
   1   2.0000     -88.965351     -2420.8703
   2   2.0000     -10.324112      -280.9334
   3   2.0000     -10.320734      -280.8414
   4   2.0000     -10.318440      -280.7790
   5   2.0000     -10.310882      -280.5734
   6   2.0000     -10.303528      -280.3733
   7   2.0000     -10.302346      -280.3411
   8   2.0000     -10.301513      -280.3184
   9   2.0000     -10.287372      -279.9336
  10   2.0000     -10.285282      -279.8768
  11   2.0000     -10.283017      -279.8151
  12   2.0000     -10.278544      -279.6934
  13   2.0000     -10.274647      -279.5874
  14   2.0000     -10.273345      -279.5519
  15   2.0000     -10.272292      -279.5233
  16   2.0000      -8.081573      -219.9108
  17   2.0000      -8.080663      -219.8860
  18   2.0000      -6.040066      -164.3585
  19   2.0000      -6.039138      -164.3333
  20   2.0000      -6.035993      -164.2477
  21   2.0000      -6.035124      -164.2241
  22   2.0000      -6.032326      -164.1479
  23   2.0000      -6.031394      -164.1226
  24   2.0000      -1.012032       -27.5388
  25   2.0000      -0.985436       -26.8151
  26   2.0000      -0.917653       -24.9706
  27   2.0000      -0.916080       -24.9278
  28   2.0000      -0.872580       -23.7441
  29   2.0000      -0.855613       -23.2824
  30   2.0000      -0.849427       -23.1141
  31   2.0000      -0.820565       -22.3287
  32   2.0000      -0.785268       -21.3682
  33   2.0000      -0.773430       -21.0461
  34   2.0000      -0.714972       -19.4554
  35   2.0000      -0.698187       -18.9986
  36   2.0000      -0.686392       -18.6777
  37   2.0000      -0.665314       -18.1041
  38   2.0000      -0.653452       -17.7813
  39   2.0000      -0.624245       -16.9866
  40   2.0000      -0.589196       -16.0328
  41   2.0000      -0.580479       -15.7956
  42   2.0000      -0.568808       -15.4780
  43   2.0000      -0.560301       -15.2466
  44   2.0000      -0.527900       -14.3649
  45   2.0000      -0.525342       -14.2953
  46   2.0000      -0.519345       -14.1321
  47   2.0000      -0.514968       -14.0130
  48   2.0000      -0.507004       -13.7963
  49   2.0000      -0.502820       -13.6824
  50   2.0000      -0.496887       -13.5210
  51   2.0000      -0.491562       -13.3761
  52   2.0000      -0.475994       -12.9525
  53   2.0000      -0.467479       -12.7207
  54   2.0000      -0.462779       -12.5929
  55   2.0000      -0.456213       -12.4142
  56   2.0000      -0.443716       -12.0741
  57   2.0000      -0.439066       -11.9476
  58   2.0000      -0.427128       -11.6227
  59   2.0000      -0.424066       -11.5394
  60   2.0000      -0.420412       -11.4400
  61   2.0000      -0.415925       -11.3179
  62   2.0000      -0.406425       -11.0594
  63   2.0000      -0.344867        -9.3843
  64   2.0000      -0.331019        -9.0075
  65   2.0000      -0.329713        -8.9719
  66   2.0000      -0.298144        -8.1129
  67   0.0000       0.041109         1.1186
  68   0.0000       0.068029         1.8512
  69   0.0000       0.110988         3.0201
  70   0.0000       0.115401         3.1402
  71   0.0000       0.132909         3.6166

MULLIKEN ATOMIC CHARGES
-----------------------
   0 S :    0.113651
   1 C :   -0.104606
   2 C :   -0.075694
   3 C :    0.067779
   4 C :   -0.169834
   5 H :   -0.007031
   6 C :    0.098951
   7 H :    0.033018
   8 H :   -0.002008
   9 C :   -0.047450
  10 H :    0.003673
  11 H :    0.017721
  12 C :   -0.037344
  13 H :    0.029625
  14 H :    0.027551
  15 H :    0.022268
  16 S :    0.116371
  17 C :   -0.098202
  18 C :   -0.042249
  19 C :   -0.088612
  20 C :   -0.167267
  21 H :    0.046766
  22 C :    0.133697
  23 H :    0.007792
  24 H :   -0.001741
  25 C :   -0.081053
  26 H :    0.027457
  27 H :    0.018124
  28 C :   -0.003499
  29 H :    0.026787
  30 H :    0.026142
  31 H :    0.026214
  32 H :    0.027946
  33 H :    0.055058
Sum of atomic charges:    0.0000000

LOEWDIN ATOMIC CHARGES
----------------------
   0 S :    0.404257
   1 C :   -0.188139
   2 C :   -0.051945
   3 C :   -0.054994
   4 C :   -0.189895
   5 H :    0.019620
   6 C :   -0.027507
   7 H :    0.031712
   8 H :    0.022874
   9 C :   -0.035054
  10 H :    0.011882
  11 H :    0.023725
  12 C :   -0.059927
  13 H :    0.022602
  14 H :    0.028573
  15 H :    0.023603
  16 S :    0.420808
  17 C :   -0.181044
  18 C :   -0.076391
  19 C :   -0.052159
  20 C :   -0.224681
  21 H :    0.043453
  22 C :   -0.028904
  23 H :    0.022937
  24 H :    0.026988
  25 C :   -0.044961
  26 H :    0.027664
  27 H :    0.023364
  28 C :   -0.062841
  29 H :    0.028994
  30 H :    0.025502
  31 H :    0.024066
  32 H :    0.020057
  33 H :    0.025760

  Mayer bond orders larger than 0.100000
B(  0-S ,  1-C ) :   1.1169 B(  0-S ,  4-C ) :   1.1457 B(  1-C ,  2-C ) :   1.6615
B(  1-C , 32-H ) :   0.9721 B(  2-C ,  3-C ) :   1.1716 B(  2-C ,  6-C ) :   1.0306
B(  3-C ,  4-C ) :   1.6441 B(  3-C ,  5-H ) :   0.9961 B(  4-C , 20-C ) :   0.9969
B(  6-C ,  7-H ) :   0.9386 B(  6-C ,  8-H ) :   0.9313 B(  6-C ,  9-C ) :   1.0537
B(  9-C , 10-H ) :   0.9598 B(  9-C , 11-H ) :   0.9543 B(  9-C , 12-C ) :   1.0789
B( 12-C , 13-H ) :   0.9760 B( 12-C , 14-H ) :   0.9733 B( 12-C , 15-H ) :   0.9747
B( 16-S , 17-C ) :   1.1583 B( 16-S , 20-C ) :   1.1475 B( 17-C , 18-C ) :   1.6128
B( 17-C , 33-H ) :   0.9680 B( 18-C , 19-C ) :   1.2384 B( 18-C , 21-H ) :   0.9780
B( 19-C , 20-C ) :   1.6091 B( 19-C , 22-C ) :   1.0405 B( 22-C , 23-H ) :   0.9309
B( 22-C , 24-H ) :   0.9183 B( 22-C , 25-C ) :   1.0732 B( 25-C , 26-H ) :   0.9601
B( 25-C , 27-H ) :   0.9522 B( 25-C , 28-C ) :   1.0872 B( 28-C , 29-H ) :   0.9713
B( 28-C , 30-H ) :   0.9721 B( 28-C , 31-H ) :   0.9730

Dispersion correction           -0.014439730
FINAL SINGLE POINT ENERGY     -1339.868848718349

DIPOLE MOMENT
-------------
                                X             Y             Z
Electronic contribution:      9.68179     -28.74826      -5.74362
Nuclear contribution   :     -9.90932      29.32303       6.00401
                        -----------------------------------------
Total Dipole Moment    :     -0.22754       0.57477       0.26040
                        -----------------------------------------
Magnitude (a.u.)       :      0.67078
Magnitude (Debye)      :      1.70499

Rotational constants in cm-1:     0.018176     0.009129     0.007253
Rotational constants in MHz :   544.896537   273.683533   217.440102

                             ****ORCA TERMINATED NORMALLY****
TOTAL RUN TIME: 0 days 0 hours 0 minutes 22 seconds 255 msec
