                         Program Version 4.2.1 -  RELEASE  -
|  1> ! wB97X-D3 SP def2-SVP
|  2> %pal
|  3> nprocs 24
|  4> end
|  5>
|  6> * xyz 0 1
|  7> S 	 -141.49 	 7.67123 	 9.83286
|  8> C 	 -142.397 	 7.74717 	 8.3428
|  9> C 	 -143.594 	 8.37438 	 8.49891
| 10> C 	 -143.908 	 8.80687 	 9.85996
| 11> C 	 -142.816 	 8.48806 	 10.7047
| 12> H 	 -144.794 	 9.23566 	 10.3039
| 13> C 	 -144.637 	 8.39508 	 7.41904
| 14> H 	 -144.153 	 8.57706 	 6.48645
| 15> H 	 -145.249 	 9.32684 	 7.53045
| 16> C 	 -145.601 	 7.2671 	 7.28629
| 17> H 	 -145.132 	 6.35046 	 7.06961
| 18> H 	 -146.086 	 6.97241 	 8.20303
| 19> C 	 -146.772 	 7.54773 	 6.32035
| 20> H 	 -147.376 	 8.39848 	 6.51274
| 21> H 	 -146.474 	 7.60231 	 5.28472
| 22> H 	 -147.473 	 6.6987 	 6.37689
| 23> S 	 -143.061 	 7.05104 	 12.9454
| 24> C 	 -142.815 	 7.81822 	 14.4992
| 25> C 	 -142.681 	 9.17735 	 14.3795
| 26> C 	 -142.65 	 9.60729 	 13.0159
| 27> C 	 -142.863 	 8.58887 	 12.1717
| 28> H 	 -142.558 	 9.70137 	 15.3008
| 29> C 	 -142.423 	 11.0071 	 12.6086
| 30> H 	 -143.183 	 11.6519 	 13.0708
| 31> H 	 -142.649 	 11.071 	 11.4775
| 32> C 	 -141.048 	 11.6557 	 12.9406
| 33> H 	 -140.251 	 11.0365 	 12.5439
| 34> H 	 -141.014 	 11.7756 	 14.0187
| 35> C 	 -140.933 	 13.052 	 12.3414
| 36> H 	 -140.593 	 13.6862 	 13.1062
| 37> H 	 -141.845 	 13.6134 	 11.9364
| 38> H 	 -140.233 	 13.1162 	 11.516
| 39> H 	 -142.156 	 7.30047 	 7.3737
| 40> H 	 -142.838 	 7.29813 	 15.4552
| 41> *
| 42>
| 43>                          ****END OF INPUT****

CARTESIAN COORDINATES (ANGSTROEM)
---------------------------------
  S    -141.490000    7.671230    9.832860
  C    -142.397000    7.747170    8.342800
  C    -143.594000    8.374380    8.498910
  C    -143.908000    8.806870    9.859960
  C    -142.816000    8.488060   10.704700
  H    -144.794000    9.235660   10.303900
  C    -144.637000    8.395080    7.419040
  H    -144.153000    8.577060    6.486450
  H    -145.249000    9.326840    7.530450
  C    -145.601000    7.267100    7.286290
  H    -145.132000    6.350460    7.069610
  H    -146.086000    6.972410    8.203030
  C    -146.772000    7.547730    6.320350
  H    -147.376000    8.398480    6.512740
  H    -146.474000    7.602310    5.284720
  H    -147.473000    6.698700    6.376890
  S    -143.061000    7.051040   12.945400
  C    -142.815000    7.818220   14.499200
  C    -142.681000    9.177350   14.379500
  C    -142.650000    9.607290   13.015900
  C    -142.863000    8.588870   12.171700
  H    -142.558000    9.701370   15.300800
  C    -142.423000   11.007100   12.608600
  H    -143.183000   11.651900   13.070800
  H    -142.649000   11.071000   11.477500
  C    -141.048000   11.655700   12.940600
  H    -140.251000   11.036500   12.543900
  H    -141.014000   11.775600   14.018700
  C    -140.933000   13.052000   12.341400
  H    -140.593000   13.686200   13.106200
  H    -141.845000   13.613400   11.936400
  H    -140.233000   13.116200   11.516000
  H    -142.156000    7.300470    7.373700
  H    -142.838000    7.298130   15.455200

 Total Charge           Charge          ....    0
 Multiplicity           Mult            ....    1
 Number of Electrons    NEL             ....  134
 Basis Dimension        Dim             ....  322

ORBITAL ENERGIES
----------------

  NO   OCC          E(Eh)            E(eV)
   0   2.0000     -88.968417     -2420.9537
   1   2.0000     -88.960611     -2420.7413
   2   2.0000     -10.332738      -281.1681
   3   2.0000     -10.316681      -280.7311
   4   2.0000     -10.314031      -280.6591
   5   2.0000     -10.312324      -280.6126
   6   2.0000     -10.300802      -280.2991
   7   2.0000     -10.299439      -280.2620
   8   2.0000     -10.295702      -280.1603
   9   2.0000     -10.290822      -280.0275
  10   2.0000     -10.289066      -279.9797
  11   2.0000     -10.285974      -279.8956
  12   2.0000     -10.285046      -279.8703
  13   2.0000     -10.278287      -279.6864
  14   2.0000     -10.274854      -279.5930
  15   2.0000     -10.273865      -279.5661
  16   2.0000      -8.082391      -219.9331
  17   2.0000      -8.076126      -219.7626
  18   2.0000      -6.041024      -164.3846
  19   2.0000      -6.037029      -164.2759
  20   2.0000      -6.034621      -164.2104
  21   2.0000      -6.033033      -164.1672
  22   2.0000      -6.030604      -164.1011
  23   2.0000      -6.026769      -163.9967
  24   2.0000      -1.008021       -27.4296
  25   2.0000      -0.982013       -26.7219
  26   2.0000      -0.913347       -24.8534
  27   2.0000      -0.906939       -24.6791
  28   2.0000      -0.869896       -23.6711
  29   2.0000      -0.853833       -23.2340
  30   2.0000      -0.846657       -23.0387
  31   2.0000      -0.815470       -22.1901
  32   2.0000      -0.779668       -21.2158
  33   2.0000      -0.770041       -20.9539
  34   2.0000      -0.709235       -19.2993
  35   2.0000      -0.702321       -19.1111
  36   2.0000      -0.694247       -18.8914
  37   2.0000      -0.661792       -18.0083
  38   2.0000      -0.642403       -17.4807
  39   2.0000      -0.612914       -16.6782
  40   2.0000      -0.593207       -16.1420
  41   2.0000      -0.572958       -15.5910
  42   2.0000      -0.568545       -15.4709
  43   2.0000      -0.555781       -15.1236
  44   2.0000      -0.527753       -14.3609
  45   2.0000      -0.518488       -14.1088
  46   2.0000      -0.516947       -14.0668
  47   2.0000      -0.508439       -13.8353
  48   2.0000      -0.507387       -13.8067
  49   2.0000      -0.498996       -13.5784
  50   2.0000      -0.490651       -13.3513
  51   2.0000      -0.474324       -12.9070
  52   2.0000      -0.470593       -12.8055
  53   2.0000      -0.464117       -12.6293
  54   2.0000      -0.457590       -12.4517
  55   2.0000      -0.448952       -12.2166
  56   2.0000      -0.444860       -12.1053
  57   2.0000      -0.440674       -11.9913
  58   2.0000      -0.430492       -11.7143
  59   2.0000      -0.421827       -11.4785
  60   2.0000      -0.419205       -11.4071
  61   2.0000      -0.416591       -11.3360
  62   2.0000      -0.409242       -11.1360
  63   2.0000      -0.337960        -9.1964
  64   2.0000      -0.328143        -8.9292
  65   2.0000      -0.324409        -8.8276
  66   2.0000      -0.307094        -8.3564
  67   0.0000       0.042361         1.1527
  68   0.0000       0.062993         1.7141
  69   0.0000       0.117972         3.2102
  70   0.0000       0.123165         3.3515
  71   0.0000       0.128114         3.4862

MULLIKEN ATOMIC CHARGES
-----------------------
   0 S :    0.121874
   1 C :   -0.114040
   2 C :   -0.077283
   3 C :    0.052072
   4 C :   -0.178624
   5 H :    0.024715
   6 C :    0.064217
   7 H :    0.008858
   8 H :    0.014751
   9 C :   -0.009601
  10 H :    0.003276
  11 H :    0.011817
  12 C :   -0.050903
  13 H :    0.024924
  14 H :    0.025455
  15 H :    0.027841
  16 S :    0.109655
  17 C :   -0.101254
  18 C :   -0.029182
  19 C :    0.030538
  20 C :   -0.203560
  21 H :    0.008596
  22 C :    0.009322
  23 H :    0.027835
  24 H :    0.040031
  25 C :   -0.049988
  26 H :    0.041589
  27 H :    0.030996
  28 C :   -0.054661
  29 H :    0.018079
  30 H :    0.034513
  31 H :    0.033155
  32 H :    0.049148
  33 H :    0.055840
Sum of atomic charges:    0.0000000

LOEWDIN ATOMIC CHARGES
----------------------
   0 S :    0.394263
   1 C :   -0.201716
   2 C :   -0.065224
   3 C :   -0.050102
   4 C :   -0.186412
   5 H :    0.035930
   6 C :   -0.038950
   7 H :    0.024922
   8 H :    0.033385
   9 C :   -0.038097
  10 H :    0.017990
  11 H :    0.024684
  12 C :   -0.060628
  13 H :    0.019506
  14 H :    0.020819
  15 H :    0.030408
  16 S :    0.407192
  17 C :   -0.178879
  18 C :   -0.069106
  19 C :   -0.061945
  20 C :   -0.207301
  21 H :    0.029013
  22 C :   -0.040221
  23 H :    0.031387
  24 H :    0.038221
  25 C :   -0.032883
  26 H :    0.029192
  27 H :    0.023475
  28 C :   -0.072736
  29 H :    0.019393
  30 H :    0.033629
  31 H :    0.025967
  32 H :    0.035308
  33 H :    0.029520

  Mayer bond orders larger than 0.100000
B(  0-S ,  1-C ) :   1.1159 B(  0-S ,  4-C ) :   1.1492 B(  1-C ,  2-C ) :   1.6551
B(  1-C , 32-H ) :   0.9628 B(  2-C ,  3-C ) :   1.1951 B(  2-C ,  6-C ) :   1.0391
B(  3-C ,  4-C ) :   1.5913 B(  3-C ,  5-H ) :   0.9934 B(  4-C , 20-C ) :   1.0026
B(  6-C ,  7-H ) :   0.9330 B(  6-C ,  8-H ) :   0.9362 B(  6-C ,  9-C ) :   1.0701
B(  9-C , 10-H ) :   0.9459 B(  9-C , 11-H ) :   0.9505 B(  9-C , 12-C ) :   1.0817
B( 12-C , 13-H ) :   0.9758 B( 12-C , 14-H ) :   0.9774 B( 12-C , 15-H ) :   0.9739
B( 16-S , 17-C ) :   1.1457 B( 16-S , 20-C ) :   1.1407 B( 17-C , 18-C ) :   1.6488
B( 17-C , 33-H ) :   0.9649 B( 18-C , 19-C ) :   1.1790 B( 18-C , 21-H ) :   0.9992
B( 19-C , 20-C ) :   1.6551 B( 19-C , 22-C ) :   1.0560 B( 22-C , 23-H ) :   0.9276
B( 22-C , 24-H ) :   0.9328 B( 22-C , 25-C ) :   1.0655 B( 25-C , 26-H ) :   0.9585
B( 25-C , 27-H ) :   0.9617 B( 25-C , 28-C ) :   1.0676 B( 28-C , 29-H ) :   0.9776
B( 28-C , 30-H ) :   0.9747 B( 28-C , 31-H ) :   0.9791

Dispersion correction           -0.013615755
FINAL SINGLE POINT ENERGY     -1339.875299393442

DIPOLE MOMENT
-------------
                                X             Y             Z
Electronic contribution:      9.11287     -15.55320      11.35079
Nuclear contribution   :     -9.38491      15.85366     -11.34751
                        -----------------------------------------
Total Dipole Moment    :     -0.27204       0.30046       0.00328
                        -----------------------------------------
Magnitude (a.u.)       :      0.40533
Magnitude (Debye)      :      1.03026

Rotational constants in cm-1:     0.019641     0.007409     0.006474
Rotational constants in MHz :   588.835017   222.103049   194.096313

                             ****ORCA TERMINATED NORMALLY****
TOTAL RUN TIME: 0 days 0 hours 0 minutes 20 seconds 934 msec
