                         Program Version 4.2.1 -  RELEASE  -
|  1> ! wB97X-D3 SP def2-SVP
|  2> %pal
|  3> nprocs 24
|  4> end
|  5>
|  6> * xyz 0 1
|  7> S 	 -98.1769 	 38.2057 	 -82.02
|  8> C 	 -97.7587 	 36.5452 	 -81.9065
|  9> C 	 -97.859 	 35.9009 	 -83.1579
| 10> C 	 -98.3882 	 36.8128 	 -84.1609
| 11> C 	 -98.6356 	 38.0682 	 -83.6683
| 12> H 	 -98.6603 	 36.6252 	 -85.1995
| 13> C 	 -97.4073 	 34.4495 	 -83.4314
| 14> H 	 -98.2503 	 33.8672 	 -82.99
| 15> H 	 -96.4337 	 34.1837 	 -82.9672
| 16> C 	 -97.3117 	 33.862 	 -84.8729
| 17> H 	 -98.3293 	 33.8373 	 -85.2836
| 18> H 	 -96.7868 	 34.6355 	 -85.4347
| 19> C 	 -96.464 	 32.5465 	 -85.0012
| 20> H 	 -95.4193 	 32.782 	 -84.7153
| 21> H 	 -96.8146 	 31.7075 	 -84.3239
| 22> H 	 -96.5077 	 32.1326 	 -86.0421
| 23> S 	 -100.265 	 40.2373 	 -83.2687
| 24> C 	 -100.678 	 41.1484 	 -84.6302
| 25> C 	 -100.037 	 40.7404 	 -85.7925
| 26> C 	 -99.1056 	 39.7145 	 -85.6079
| 27> C 	 -99.299 	 39.2055 	 -84.3043
| 28> H 	 -100.423 	 41.3311 	 -86.5794
| 29> C 	 -98.2372 	 39.1667 	 -86.7132
| 30> H 	 -97.4857 	 38.5219 	 -86.4009
| 31> H 	 -97.7269 	 40.016 	 -87.1466
| 32> C 	 -98.9302 	 38.5442 	 -87.9771
| 33> H 	 -99.5014 	 39.2685 	 -88.6295
| 34> H 	 -99.6517 	 37.9003 	 -87.6348
| 35> C 	 -98.0104 	 37.7366 	 -88.8782
| 36> H 	 -97.6294 	 36.8015 	 -88.3596
| 37> H 	 -97.2743 	 38.2731 	 -89.4154
| 38> H 	 -98.6028 	 37.3248 	 -89.7887
| 39> H 	 -97.4146 	 36.0867 	 -81.0556
| 40> H 	 -101.275 	 42.0417 	 -84.4782
| 41> *
| 42>
| 43>                          ****END OF INPUT****

CARTESIAN COORDINATES (ANGSTROEM)
---------------------------------
  S    -98.176900   38.205700  -82.020000
  C    -97.758700   36.545200  -81.906500
  C    -97.859000   35.900900  -83.157900
  C    -98.388200   36.812800  -84.160900
  C    -98.635600   38.068200  -83.668300
  H    -98.660300   36.625200  -85.199500
  C    -97.407300   34.449500  -83.431400
  H    -98.250300   33.867200  -82.990000
  H    -96.433700   34.183700  -82.967200
  C    -97.311700   33.862000  -84.872900
  H    -98.329300   33.837300  -85.283600
  H    -96.786800   34.635500  -85.434700
  C    -96.464000   32.546500  -85.001200
  H    -95.419300   32.782000  -84.715300
  H    -96.814600   31.707500  -84.323900
  H    -96.507700   32.132600  -86.042100
  S    -100.265000   40.237300  -83.268700
  C    -100.678000   41.148400  -84.630200
  C    -100.037000   40.740400  -85.792500
  C    -99.105600   39.714500  -85.607900
  C    -99.299000   39.205500  -84.304300
  H    -100.423000   41.331100  -86.579400
  C    -98.237200   39.166700  -86.713200
  H    -97.485700   38.521900  -86.400900
  H    -97.726900   40.016000  -87.146600
  C    -98.930200   38.544200  -87.977100
  H    -99.501400   39.268500  -88.629500
  H    -99.651700   37.900300  -87.634800
  C    -98.010400   37.736600  -88.878200
  H    -97.629400   36.801500  -88.359600
  H    -97.274300   38.273100  -89.415400
  H    -98.602800   37.324800  -89.788700
  H    -97.414600   36.086700  -81.055600
  H    -101.275000   42.041700  -84.478200

 Total Charge           Charge          ....    0
 Multiplicity           Mult            ....    1
 Number of Electrons    NEL             ....  134
 Basis Dimension        Dim             ....  322

ORBITAL ENERGIES
----------------

  NO   OCC          E(Eh)            E(eV)
   0   2.0000     -88.966637     -2420.9053
   1   2.0000     -88.963606     -2420.8228
   2   2.0000     -10.327126      -281.0154
   3   2.0000     -10.321799      -280.8704
   4   2.0000     -10.310119      -280.5526
   5   2.0000     -10.309146      -280.5261
   6   2.0000     -10.308525      -280.5092
   7   2.0000     -10.305698      -280.4323
   8   2.0000     -10.298494      -280.2363
   9   2.0000     -10.295557      -280.1564
  10   2.0000     -10.293379      -280.0971
  11   2.0000     -10.292855      -280.0828
  12   2.0000     -10.289752      -279.9984
  13   2.0000     -10.288699      -279.9697
  14   2.0000     -10.287943      -279.9492
  15   2.0000     -10.287377      -279.9338
  16   2.0000      -8.082656      -219.9402
  17   2.0000      -8.079564      -219.8561
  18   2.0000      -6.040754      -164.3773
  19   2.0000      -6.037959      -164.3012
  20   2.0000      -6.037058      -164.2767
  21   2.0000      -6.033864      -164.1898
  22   2.0000      -6.033697      -164.1852
  23   2.0000      -6.030421      -164.0961
  24   2.0000      -1.012933       -27.5633
  25   2.0000      -0.988274       -26.8923
  26   2.0000      -0.911836       -24.8123
  27   2.0000      -0.902808       -24.5666
  28   2.0000      -0.867403       -23.6032
  29   2.0000      -0.860723       -23.4215
  30   2.0000      -0.842928       -22.9372
  31   2.0000      -0.813782       -22.1441
  32   2.0000      -0.786943       -21.4138
  33   2.0000      -0.770465       -20.9654
  34   2.0000      -0.708914       -19.2905
  35   2.0000      -0.701091       -19.0777
  36   2.0000      -0.690501       -18.7895
  37   2.0000      -0.659644       -17.9498
  38   2.0000      -0.640834       -17.4380
  39   2.0000      -0.620327       -16.8800
  40   2.0000      -0.603239       -16.4150
  41   2.0000      -0.571800       -15.5595
  42   2.0000      -0.568408       -15.4672
  43   2.0000      -0.560349       -15.2479
  44   2.0000      -0.524962       -14.2849
  45   2.0000      -0.520608       -14.1665
  46   2.0000      -0.511695       -13.9239
  47   2.0000      -0.505021       -13.7423
  48   2.0000      -0.503106       -13.6902
  49   2.0000      -0.497418       -13.5354
  50   2.0000      -0.493421       -13.4267
  51   2.0000      -0.481771       -13.1097
  52   2.0000      -0.472098       -12.8464
  53   2.0000      -0.470505       -12.8031
  54   2.0000      -0.461768       -12.5653
  55   2.0000      -0.454157       -12.3582
  56   2.0000      -0.448860       -12.2141
  57   2.0000      -0.439410       -11.9570
  58   2.0000      -0.432032       -11.7562
  59   2.0000      -0.426515       -11.6061
  60   2.0000      -0.420651       -11.4465
  61   2.0000      -0.419896       -11.4260
  62   2.0000      -0.409109       -11.1324
  63   2.0000      -0.349824        -9.5192
  64   2.0000      -0.334994        -9.1157
  65   2.0000      -0.326097        -8.8735
  66   2.0000      -0.282163        -7.6780
  67   0.0000       0.027295         0.7427
  68   0.0000       0.079182         2.1546
  69   0.0000       0.106570         2.8999
  70   0.0000       0.119758         3.2588
  71   0.0000       0.126287         3.4364

MULLIKEN ATOMIC CHARGES
-----------------------
   0 S :    0.111367
   1 C :   -0.089778
   2 C :   -0.073310
   3 C :   -0.001560
   4 C :   -0.134936
   5 H :    0.010006
   6 C :    0.012281
   7 H :    0.049363
   8 H :    0.040243
   9 C :   -0.089941
  10 H :    0.036391
  11 H :    0.028441
  12 C :   -0.080963
  13 H :    0.044639
  14 H :    0.043927
  15 H :    0.051498
  16 S :    0.120951
  17 C :   -0.121520
  18 C :   -0.023028
  19 C :    0.001834
  20 C :   -0.161304
  21 H :    0.003816
  22 C :    0.110178
  23 H :    0.006695
  24 H :    0.024792
  25 C :   -0.056303
  26 H :    0.033741
  27 H :    0.009983
  28 C :   -0.089322
  29 H :    0.046339
  30 H :    0.030172
  31 H :    0.034813
  32 H :    0.011543
  33 H :    0.058953
Sum of atomic charges:   -0.0000000

LOEWDIN ATOMIC CHARGES
----------------------
   0 S :    0.430023
   1 C :   -0.200440
   2 C :   -0.054105
   3 C :   -0.077983
   4 C :   -0.201286
   5 H :    0.031372
   6 C :   -0.043972
   7 H :    0.041039
   8 H :    0.032414
   9 C :   -0.048672
  10 H :    0.022664
  11 H :    0.020827
  12 C :   -0.072059
  13 H :    0.029248
  14 H :    0.030103
  15 H :    0.034906
  16 S :    0.431128
  17 C :   -0.205163
  18 C :   -0.069474
  19 C :   -0.047081
  20 C :   -0.196343
  21 H :    0.029031
  22 C :   -0.025808
  23 H :    0.020989
  24 H :    0.037694
  25 C :   -0.038198
  26 H :    0.030355
  27 H :    0.010570
  28 C :   -0.073685
  29 H :    0.031588
  30 H :    0.016794
  31 H :    0.038084
  32 H :    0.009682
  33 H :    0.025759

  Mayer bond orders larger than 0.100000
B(  0-S ,  1-C ) :   1.1467 B(  0-S ,  4-C ) :   1.1659 B(  1-C ,  2-C ) :   1.5956
B(  1-C , 32-H ) :   0.9869 B(  2-C ,  3-C ) :   1.2380 B(  2-C ,  6-C ) :   0.9996
B(  3-C ,  4-C ) :   1.5738 B(  3-C ,  5-H ) :   0.9923 B(  4-C , 20-C ) :   1.0523
B(  6-C ,  7-H ) :   0.9349 B(  6-C ,  8-H ) :   0.9553 B(  6-C ,  9-C ) :   1.0724
B(  9-C , 10-H ) :   0.9534 B(  9-C , 11-H ) :   0.9565 B(  9-C , 12-C ) :   1.0726
B( 12-C , 13-H ) :   0.9729 B( 12-C , 14-H ) :   0.9777 B( 12-C , 15-H ) :   0.9738
B( 16-S , 17-C ) :   1.1766 B( 16-S , 20-C ) :   1.1656 B( 17-C , 18-C ) :   1.5905
B( 17-C , 20-C ) :   0.1019 B( 17-C , 33-H ) :   0.9669 B( 18-C , 19-C ) :   1.2199
B( 18-C , 21-H ) :   1.0048 B( 19-C , 20-C ) :   1.5352 B( 19-C , 22-C ) :   1.0726
B( 22-C , 23-H ) :   0.9329 B( 22-C , 24-H ) :   0.9175 B( 22-C , 25-C ) :   1.0477
B( 25-C , 26-H ) :   0.9512 B( 25-C , 27-H ) :   0.9555 B( 25-C , 28-C ) :   1.0943
B( 28-C , 29-H ) :   0.9724 B( 28-C , 30-H ) :   0.9769 B( 28-C , 31-H ) :   0.9697

Dispersion correction           -0.013715828
FINAL SINGLE POINT ENERGY     -1339.859438583485

DIPOLE MOMENT
-------------
                                X             Y             Z
Electronic contribution:    -10.00570      22.20394      23.95805
Nuclear contribution   :     10.11095     -22.44183     -24.51883
                        -----------------------------------------
Total Dipole Moment    :      0.10524      -0.23789      -0.56078
                        -----------------------------------------
Magnitude (a.u.)       :      0.61817
Magnitude (Debye)      :      1.57127

Rotational constants in cm-1:     0.016489     0.009365     0.006212
Rotational constants in MHz :   494.319920   280.741734   186.223334

                             ****ORCA TERMINATED NORMALLY****
TOTAL RUN TIME: 0 days 0 hours 0 minutes 20 seconds 81 msec
