                         Program Version 4.2.1 -  RELEASE  -
|  1> ! wB97X-D3 SP def2-SVP
|  2> %pal
|  3> nprocs 24
|  4> end
|  5>
|  6> * xyz 0 1
|  7> S 	 -53.1547 	 -1.24389 	 -25.5663
|  8> C 	 -54.1545 	 0.130164 	 -25.02
|  9> C 	 -53.8188 	 1.27823 	 -25.6801
| 10> C 	 -52.798 	 1.05118 	 -26.6193
| 11> C 	 -52.317 	 -0.20694 	 -26.6875
| 12> H 	 -52.3436 	 1.84787 	 -27.2409
| 13> C 	 -54.465 	 2.68792 	 -25.5798
| 14> H 	 -55.1242 	 2.7314 	 -26.4445
| 15> H 	 -53.7105 	 3.48823 	 -25.618
| 16> C 	 -55.1765 	 3.06773 	 -24.2857
| 17> H 	 -56.1061 	 2.58197 	 -24.239
| 18> H 	 -54.578 	 2.69314 	 -23.5028
| 19> C 	 -55.4853 	 4.54245 	 -24.076
| 20> H 	 -55.978 	 4.56582 	 -23.0749
| 21> H 	 -54.5412 	 4.93213 	 -24.0548
| 22> H 	 -56.2332 	 4.85096 	 -24.851
| 23> S 	 -49.9399 	 -1.31314 	 -27.2338
| 24> C 	 -49.5087 	 -1.58446 	 -28.9114
| 25> C 	 -50.4114 	 -1.12977 	 -29.8215
| 26> C 	 -51.5659 	 -0.542282 	 -29.1487
| 27> C 	 -51.4673 	 -0.702286 	 -27.7085
| 28> H 	 -50.113 	 -1.14894 	 -30.8519
| 29> C 	 -52.7174 	 0.0184413 	 -29.9649
| 30> H 	 -52.3248 	 0.464853 	 -30.8316
| 31> H 	 -53.2238 	 0.822792 	 -29.4085
| 32> C 	 -53.7766 	 -0.995056 	 -30.4171
| 33> H 	 -54.7204 	 -0.621987 	 -30.842
| 34> H 	 -54.1073 	 -1.43043 	 -29.491
| 35> C 	 -53.3144 	 -2.20935 	 -31.2502
| 36> H 	 -54.1384 	 -2.87236 	 -31.4473
| 37> H 	 -52.656 	 -2.71121 	 -30.5567
| 38> H 	 -52.7928 	 -1.98892 	 -32.169
| 39> H 	 -54.9277 	 -0.0753771 	 -24.2601
| 40> H 	 -48.5758 	 -2.05283 	 -29.2522
| 41> *
| 42>
| 43>                          ****END OF INPUT****

CARTESIAN COORDINATES (ANGSTROEM)
---------------------------------
  S    -53.154700   -1.243890  -25.566300
  C    -54.154500    0.130164  -25.020000
  C    -53.818800    1.278230  -25.680100
  C    -52.798000    1.051180  -26.619300
  C    -52.317000   -0.206940  -26.687500
  H    -52.343600    1.847870  -27.240900
  C    -54.465000    2.687920  -25.579800
  H    -55.124200    2.731400  -26.444500
  H    -53.710500    3.488230  -25.618000
  C    -55.176500    3.067730  -24.285700
  H    -56.106100    2.581970  -24.239000
  H    -54.578000    2.693140  -23.502800
  C    -55.485300    4.542450  -24.076000
  H    -55.978000    4.565820  -23.074900
  H    -54.541200    4.932130  -24.054800
  H    -56.233200    4.850960  -24.851000
  S    -49.939900   -1.313140  -27.233800
  C    -49.508700   -1.584460  -28.911400
  C    -50.411400   -1.129770  -29.821500
  C    -51.565900   -0.542282  -29.148700
  C    -51.467300   -0.702286  -27.708500
  H    -50.113000   -1.148940  -30.851900
  C    -52.717400    0.018441  -29.964900
  H    -52.324800    0.464853  -30.831600
  H    -53.223800    0.822792  -29.408500
  C    -53.776600   -0.995056  -30.417100
  H    -54.720400   -0.621987  -30.842000
  H    -54.107300   -1.430430  -29.491000
  C    -53.314400   -2.209350  -31.250200
  H    -54.138400   -2.872360  -31.447300
  H    -52.656000   -2.711210  -30.556700
  H    -52.792800   -1.988920  -32.169000
  H    -54.927700   -0.075377  -24.260100
  H    -48.575800   -2.052830  -29.252200

 Total Charge           Charge          ....    0
 Multiplicity           Mult            ....    1
 Number of Electrons    NEL             ....  134
 Basis Dimension        Dim             ....  322

ORBITAL ENERGIES
----------------

  NO   OCC          E(Eh)            E(eV)
   0   2.0000     -88.967462     -2420.9277
   1   2.0000     -88.962610     -2420.7957
   2   2.0000     -10.326173      -280.9895
   3   2.0000     -10.319613      -280.8109
   4   2.0000     -10.318941      -280.7927
   5   2.0000     -10.314647      -280.6758
   6   2.0000     -10.313816      -280.6532
   7   2.0000     -10.302586      -280.3476
   8   2.0000     -10.295635      -280.1585
   9   2.0000     -10.294203      -280.1195
  10   2.0000     -10.288267      -279.9580
  11   2.0000     -10.287765      -279.9443
  12   2.0000     -10.279235      -279.7122
  13   2.0000     -10.279046      -279.7071
  14   2.0000     -10.273353      -279.5522
  15   2.0000     -10.267791      -279.4008
  16   2.0000      -8.082834      -219.9451
  17   2.0000      -8.077469      -219.7991
  18   2.0000      -6.041216      -164.3899
  19   2.0000      -6.037245      -164.2818
  20   2.0000      -6.035921      -164.2458
  21   2.0000      -6.033707      -164.1855
  22   2.0000      -6.032037      -164.1401
  23   2.0000      -6.028197      -164.0356
  24   2.0000      -1.010334       -27.4926
  25   2.0000      -0.984137       -26.7797
  26   2.0000      -0.916767       -24.9465
  27   2.0000      -0.906579       -24.6693
  28   2.0000      -0.877561       -23.8797
  29   2.0000      -0.851472       -23.1697
  30   2.0000      -0.845130       -22.9971
  31   2.0000      -0.814965       -22.1763
  32   2.0000      -0.787020       -21.4159
  33   2.0000      -0.770691       -20.9716
  34   2.0000      -0.709884       -19.3169
  35   2.0000      -0.699113       -19.0238
  36   2.0000      -0.683420       -18.5968
  37   2.0000      -0.659509       -17.9462
  38   2.0000      -0.641451       -17.4548
  39   2.0000      -0.616186       -16.7673
  40   2.0000      -0.591716       -16.1014
  41   2.0000      -0.589921       -16.0526
  42   2.0000      -0.567543       -15.4436
  43   2.0000      -0.547950       -14.9105
  44   2.0000      -0.544466       -14.8157
  45   2.0000      -0.525259       -14.2930
  46   2.0000      -0.515273       -14.0213
  47   2.0000      -0.514035       -13.9876
  48   2.0000      -0.511987       -13.9319
  49   2.0000      -0.498163       -13.5557
  50   2.0000      -0.489306       -13.3147
  51   2.0000      -0.479212       -13.0400
  52   2.0000      -0.471015       -12.8170
  53   2.0000      -0.466260       -12.6876
  54   2.0000      -0.458585       -12.4787
  55   2.0000      -0.447127       -12.1669
  56   2.0000      -0.445843       -12.1320
  57   2.0000      -0.436823       -11.8866
  58   2.0000      -0.432388       -11.7659
  59   2.0000      -0.424122       -11.5409
  60   2.0000      -0.416040       -11.3210
  61   2.0000      -0.413316       -11.2469
  62   2.0000      -0.407581       -11.0908
  63   2.0000      -0.344674        -9.3791
  64   2.0000      -0.334291        -9.0965
  65   2.0000      -0.327986        -8.9250
  66   2.0000      -0.295414        -8.0386
  67   0.0000       0.033346         0.9074
  68   0.0000       0.068343         1.8597
  69   0.0000       0.111180         3.0254
  70   0.0000       0.116367         3.1665
  71   0.0000       0.132321         3.6006

MULLIKEN ATOMIC CHARGES
-----------------------
   0 S :    0.096517
   1 C :   -0.168259
   2 C :   -0.047535
   3 C :   -0.000688
   4 C :   -0.130785
   5 H :    0.026789
   6 C :    0.060104
   7 H :    0.042298
   8 H :    0.021619
   9 C :   -0.092148
  10 H :    0.009163
  11 H :    0.019394
  12 C :   -0.021657
  13 H :    0.042530
  14 H :    0.022918
  15 H :    0.048097
  16 S :    0.123588
  17 C :   -0.095156
  18 C :   -0.031580
  19 C :   -0.064406
  20 C :   -0.167824
  21 H :    0.021632
  22 C :    0.129662
  23 H :    0.006447
  24 H :    0.021881
  25 C :   -0.079577
  26 H :    0.026763
  27 H :    0.015446
  28 C :   -0.046384
  29 H :    0.030121
  30 H :    0.035183
  31 H :    0.026188
  32 H :    0.063915
  33 H :    0.055745
Sum of atomic charges:    0.0000000

LOEWDIN ATOMIC CHARGES
----------------------
   0 S :    0.388696
   1 C :   -0.185228
   2 C :   -0.065521
   3 C :   -0.063133
   4 C :   -0.207755
   5 H :    0.038556
   6 C :   -0.027234
   7 H :    0.033915
   8 H :    0.029841
   9 C :   -0.043839
  10 H :    0.011850
  11 H :    0.017973
  12 C :   -0.052729
  13 H :    0.036923
  14 H :    0.011514
  15 H :    0.034507
  16 S :    0.427362
  17 C :   -0.187695
  18 C :   -0.069681
  19 C :   -0.042838
  20 C :   -0.218171
  21 H :    0.034927
  22 C :   -0.030126
  23 H :    0.021591
  24 H :    0.033955
  25 C :   -0.041688
  26 H :    0.022423
  27 H :    0.023504
  28 C :   -0.064406
  29 H :    0.026020
  30 H :    0.026380
  31 H :    0.017264
  32 H :    0.031918
  33 H :    0.030926

  Mayer bond orders larger than 0.100000
B(  0-S ,  1-C ) :   1.1299 B(  0-S ,  4-C ) :   1.1377 B(  1-C ,  2-C ) :   1.6125
B(  1-C , 32-H ) :   0.9718 B(  2-C ,  3-C ) :   1.2409 B(  2-C ,  6-C ) :   0.9998
B(  3-C ,  4-C ) :   1.6017 B(  3-C ,  5-H ) :   0.9951 B(  4-C , 20-C ) :   1.0283
B(  6-C ,  7-H ) :   0.9353 B(  6-C ,  8-H ) :   0.9509 B(  6-C ,  9-C ) :   1.0711
B(  9-C , 10-H ) :   0.9447 B(  9-C , 11-H ) :   0.9595 B(  9-C , 12-C ) :   1.0865
B( 12-C , 13-H ) :   0.9713 B( 12-C , 14-H ) :   0.9779 B( 12-C , 15-H ) :   0.9755
B( 16-S , 17-C ) :   1.1500 B( 16-S , 20-C ) :   1.1692 B( 17-C , 18-C ) :   1.6398
B( 17-C , 33-H ) :   0.9602 B( 18-C , 19-C ) :   1.2228 B( 18-C , 21-H ) :   0.9908
B( 19-C , 20-C ) :   1.5567 B( 19-C , 22-C ) :   1.0514 B( 22-C , 23-H ) :   0.9284
B( 22-C , 24-H ) :   0.9291 B( 22-C , 25-C ) :   1.0643 B( 25-C , 26-H ) :   0.9601
B( 25-C , 27-H ) :   0.9531 B( 25-C , 28-C ) :   1.0818 B( 28-C , 29-H ) :   0.9716
B( 28-C , 30-H ) :   0.9726 B( 28-C , 31-H ) :   0.9777

Dispersion correction           -0.014294846
FINAL SINGLE POINT ENERGY     -1339.864170760273

DIPOLE MOMENT
-------------
                                X             Y             Z
Electronic contribution:     17.49382     -14.75234       7.13290
Nuclear contribution   :    -17.78473      15.21375      -7.39562
                        -----------------------------------------
Total Dipole Moment    :     -0.29091       0.46140      -0.26272
                        -----------------------------------------
Magnitude (a.u.)       :      0.60543
Magnitude (Debye)      :      1.53888

Rotational constants in cm-1:     0.022117     0.007265     0.006437
Rotational constants in MHz :   663.048716   217.801215   192.977053

                             ****ORCA TERMINATED NORMALLY****
TOTAL RUN TIME: 0 days 0 hours 0 minutes 21 seconds 285 msec
