                         Program Version 4.2.1 -  RELEASE  -
|  1> ! wB97X-D3 SP def2-SVP
|  2> %pal
|  3> nprocs 24
|  4> end
|  5>
|  6> * xyz 0 1
|  7> S 	 -144.845 	 31.225 	 -16.7456
|  8> C 	 -144.299 	 29.5873 	 -17.0671
|  9> C 	 -144.883 	 28.7686 	 -16.0742
| 10> C 	 -145.441 	 29.4831 	 -14.98
| 11> C 	 -145.41 	 30.8518 	 -15.145
| 12> H 	 -145.94 	 29.0466 	 -14.1864
| 13> C 	 -144.72 	 27.3278 	 -16.1566
| 14> H 	 -144.185 	 27.0369 	 -15.2673
| 15> H 	 -144.015 	 27.0709 	 -16.9042
| 16> C 	 -146.04 	 26.6176 	 -16.3782
| 17> H 	 -146.764 	 27.0057 	 -15.6522
| 18> H 	 -146.44 	 26.9153 	 -17.352
| 19> C 	 -145.818 	 25.1031 	 -16.2282
| 20> H 	 -146.746 	 24.6085 	 -16.476
| 21> H 	 -145.057 	 24.9028 	 -16.9705
| 22> H 	 -145.406 	 24.8513 	 -15.2806
| 23> S 	 -147.251 	 32.7438 	 -14.4592
| 24> C 	 -147.166 	 33.4443 	 -12.8606
| 25> C 	 -146.145 	 32.9562 	 -12.1268
| 26> C 	 -145.336 	 32.0659 	 -12.8702
| 27> C 	 -145.799 	 31.8247 	 -14.1408
| 28> H 	 -146.022 	 33.2909 	 -11.0879
| 29> C 	 -144.09 	 31.4636 	 -12.3217
| 30> H 	 -143.72 	 30.7823 	 -13.076
| 31> H 	 -144.257 	 30.9234 	 -11.4305
| 32> C 	 -142.962 	 32.4217 	 -11.9375
| 33> H 	 -142.275 	 31.7987 	 -11.3943
| 34> H 	 -143.272 	 33.2758 	 -11.2645
| 35> C 	 -142.236 	 33.0717 	 -13.1604
| 36> H 	 -141.664 	 32.2829 	 -13.7028
| 37> H 	 -141.465 	 33.7974 	 -12.8769
| 38> H 	 -142.906 	 33.5504 	 -13.8724
| 39> H 	 -143.816 	 29.1861 	 -17.9771
| 40> H 	 -147.886 	 34.1297 	 -12.4289
| 41> *
| 42>
| 43>                          ****END OF INPUT****

CARTESIAN COORDINATES (ANGSTROEM)
---------------------------------
  S    -144.845000   31.225000  -16.745600
  C    -144.299000   29.587300  -17.067100
  C    -144.883000   28.768600  -16.074200
  C    -145.441000   29.483100  -14.980000
  C    -145.410000   30.851800  -15.145000
  H    -145.940000   29.046600  -14.186400
  C    -144.720000   27.327800  -16.156600
  H    -144.185000   27.036900  -15.267300
  H    -144.015000   27.070900  -16.904200
  C    -146.040000   26.617600  -16.378200
  H    -146.764000   27.005700  -15.652200
  H    -146.440000   26.915300  -17.352000
  C    -145.818000   25.103100  -16.228200
  H    -146.746000   24.608500  -16.476000
  H    -145.057000   24.902800  -16.970500
  H    -145.406000   24.851300  -15.280600
  S    -147.251000   32.743800  -14.459200
  C    -147.166000   33.444300  -12.860600
  C    -146.145000   32.956200  -12.126800
  C    -145.336000   32.065900  -12.870200
  C    -145.799000   31.824700  -14.140800
  H    -146.022000   33.290900  -11.087900
  C    -144.090000   31.463600  -12.321700
  H    -143.720000   30.782300  -13.076000
  H    -144.257000   30.923400  -11.430500
  C    -142.962000   32.421700  -11.937500
  H    -142.275000   31.798700  -11.394300
  H    -143.272000   33.275800  -11.264500
  C    -142.236000   33.071700  -13.160400
  H    -141.664000   32.282900  -13.702800
  H    -141.465000   33.797400  -12.876900
  H    -142.906000   33.550400  -13.872400
  H    -143.816000   29.186100  -17.977100
  H    -147.886000   34.129700  -12.428900

 Total Charge           Charge          ....    0
 Multiplicity           Mult            ....    1
 Number of Electrons    NEL             ....  134
 Basis Dimension        Dim             ....  322

ORBITAL ENERGIES
----------------

  NO   OCC          E(Eh)            E(eV)
   0   2.0000     -88.963866     -2420.8299
   1   2.0000     -88.962940     -2420.8047
   2   2.0000     -10.327905      -281.0366
   3   2.0000     -10.322614      -280.8926
   4   2.0000     -10.317135      -280.7435
   5   2.0000     -10.313425      -280.6426
   6   2.0000     -10.298365      -280.2327
   7   2.0000     -10.296333      -280.1775
   8   2.0000     -10.289737      -279.9980
   9   2.0000     -10.288213      -279.9565
  10   2.0000     -10.287216      -279.9294
  11   2.0000     -10.285113      -279.8722
  12   2.0000     -10.280099      -279.7357
  13   2.0000     -10.278017      -279.6791
  14   2.0000     -10.274757      -279.5903
  15   2.0000     -10.273427      -279.5542
  16   2.0000      -8.078566      -219.8289
  17   2.0000      -8.078155      -219.8178
  18   2.0000      -6.037047      -164.2764
  19   2.0000      -6.036602      -164.2643
  20   2.0000      -6.033003      -164.1664
  21   2.0000      -6.032699      -164.1581
  22   2.0000      -6.029420      -164.0689
  23   2.0000      -6.028851      -164.0534
  24   2.0000      -1.010759       -27.5042
  25   2.0000      -0.988478       -26.8979
  26   2.0000      -0.922225       -25.0950
  27   2.0000      -0.907940       -24.7063
  28   2.0000      -0.872783       -23.7496
  29   2.0000      -0.849927       -23.1277
  30   2.0000      -0.843820       -22.9615
  31   2.0000      -0.819920       -22.3112
  32   2.0000      -0.781643       -21.2696
  33   2.0000      -0.768876       -20.9222
  34   2.0000      -0.712434       -19.3863
  35   2.0000      -0.698224       -18.9996
  36   2.0000      -0.693277       -18.8650
  37   2.0000      -0.656654       -17.8685
  38   2.0000      -0.644970       -17.5505
  39   2.0000      -0.625750       -17.0275
  40   2.0000      -0.598415       -16.2837
  41   2.0000      -0.572657       -15.5828
  42   2.0000      -0.563511       -15.3339
  43   2.0000      -0.551111       -14.9965
  44   2.0000      -0.539743       -14.6872
  45   2.0000      -0.531551       -14.4642
  46   2.0000      -0.519333       -14.1318
  47   2.0000      -0.513160       -13.9638
  48   2.0000      -0.507315       -13.8047
  49   2.0000      -0.502349       -13.6696
  50   2.0000      -0.493187       -13.4203
  51   2.0000      -0.479148       -13.0383
  52   2.0000      -0.466389       -12.6911
  53   2.0000      -0.462657       -12.5895
  54   2.0000      -0.456860       -12.4318
  55   2.0000      -0.448665       -12.2088
  56   2.0000      -0.446498       -12.1498
  57   2.0000      -0.445459       -12.1216
  58   2.0000      -0.433288       -11.7904
  59   2.0000      -0.423255       -11.5173
  60   2.0000      -0.420306       -11.4371
  61   2.0000      -0.414731       -11.2854
  62   2.0000      -0.405221       -11.0266
  63   2.0000      -0.342334        -9.3154
  64   2.0000      -0.328257        -8.9323
  65   2.0000      -0.325783        -8.8650
  66   2.0000      -0.298580        -8.1248
  67   0.0000       0.036909         1.0043
  68   0.0000       0.062091         1.6896
  69   0.0000       0.114915         3.1270
  70   0.0000       0.127900         3.4803
  71   0.0000       0.129699         3.5293

MULLIKEN ATOMIC CHARGES
-----------------------
   0 S :    0.114485
   1 C :   -0.127806
   2 C :   -0.118013
   3 C :    0.078626
   4 C :   -0.161516
   5 H :   -0.012692
   6 C :    0.080592
   7 H :    0.019445
   8 H :   -0.007124
   9 C :   -0.098589
  10 H :    0.026769
  11 H :    0.027398
  12 C :    0.014849
  13 H :    0.037923
  14 H :    0.017812
  15 H :    0.025664
  16 S :    0.104254
  17 C :   -0.080664
  18 C :   -0.046077
  19 C :   -0.022482
  20 C :   -0.167894
  21 H :    0.027424
  22 C :    0.111114
  23 H :    0.021717
  24 H :    0.014238
  25 C :   -0.092418
  26 H :    0.024452
  27 H :    0.037302
  28 C :   -0.070394
  29 H :    0.028544
  30 H :    0.032531
  31 H :    0.044988
  32 H :    0.064049
  33 H :    0.051495
Sum of atomic charges:    0.0000000

LOEWDIN ATOMIC CHARGES
----------------------
   0 S :    0.408734
   1 C :   -0.207669
   2 C :   -0.059274
   3 C :   -0.053194
   4 C :   -0.199484
   5 H :    0.021056
   6 C :   -0.037837
   7 H :    0.029734
   8 H :    0.022174
   9 C :   -0.034257
  10 H :    0.020931
  11 H :    0.025842
  12 C :   -0.053972
  13 H :    0.026214
  14 H :    0.024603
  15 H :    0.021251
  16 S :    0.402641
  17 C :   -0.177862
  18 C :   -0.074803
  19 C :   -0.053824
  20 C :   -0.201510
  21 H :    0.038609
  22 C :   -0.029211
  23 H :    0.031581
  24 H :    0.027020
  25 C :   -0.038200
  26 H :    0.021601
  27 H :    0.026231
  28 C :   -0.072446
  29 H :    0.026882
  30 H :    0.024972
  31 H :    0.025907
  32 H :    0.037557
  33 H :    0.030003

  Mayer bond orders larger than 0.100000
B(  0-S ,  1-C ) :   1.1375 B(  0-S ,  4-C ) :   1.1686 B(  1-C ,  2-C ) :   1.5699
B(  1-C ,  4-C ) :   0.1052 B(  1-C , 32-H ) :   0.9665 B(  2-C ,  3-C ) :   1.2502
B(  2-C ,  6-C ) :   1.0502 B(  3-C ,  4-C ) :   1.5390 B(  3-C ,  5-H ) :   1.0123
B(  4-C , 20-C ) :   1.0149 B(  6-C ,  7-H ) :   0.9359 B(  6-C ,  8-H ) :   0.9297
B(  6-C ,  9-C ) :   1.0479 B(  9-C , 10-H ) :   0.9615 B(  9-C , 11-H ) :   0.9521
B(  9-C , 12-C ) :   1.0744 B( 12-C , 13-H ) :   0.9737 B( 12-C , 14-H ) :   0.9713
B( 12-C , 15-H ) :   0.9763 B( 16-S , 17-C ) :   1.1477 B( 16-S , 20-C ) :   1.1374
B( 17-C , 18-C ) :   1.6410 B( 17-C , 33-H ) :   0.9635 B( 18-C , 19-C ) :   1.2126
B( 18-C , 21-H ) :   0.9902 B( 19-C , 20-C ) :   1.6221 B( 19-C , 22-C ) :   1.0594
B( 22-C , 23-H ) :   0.9279 B( 22-C , 24-H ) :   0.9238 B( 22-C , 25-C ) :   1.0737
B( 25-C , 26-H ) :   0.9557 B( 25-C , 27-H ) :   0.9585 B( 25-C , 28-C ) :   1.0688
B( 28-C , 29-H ) :   0.9743 B( 28-C , 30-H ) :   0.9758 B( 28-C , 31-H ) :   0.9795

Dispersion correction           -0.014465670
FINAL SINGLE POINT ENERGY     -1339.882577417354

DIPOLE MOMENT
-------------
                                X             Y             Z
Electronic contribution:    -11.82041      17.00658      -6.46189
Nuclear contribution   :     11.96139     -17.51785       6.86813
                        -----------------------------------------
Total Dipole Moment    :      0.14098      -0.51127       0.40625
                        -----------------------------------------
Magnitude (a.u.)       :      0.66807
Magnitude (Debye)      :      1.69809

Rotational constants in cm-1:     0.020599     0.007702     0.007150
Rotational constants in MHz :   617.555752   230.910846   214.347380

                             ****ORCA TERMINATED NORMALLY****
TOTAL RUN TIME: 0 days 0 hours 0 minutes 21 seconds 876 msec
