                         Program Version 4.2.1 -  RELEASE  -
|  1> ! wB97X-D3 SP def2-SVP
|  2> %pal
|  3> nprocs 24
|  4> end
|  5>
|  6> * xyz 0 1
|  7> S 	 -121.591 	 65.4638 	 -42.9161
|  8> C 	 -121.949 	 66.767 	 -41.7648
|  9> C 	 -120.907 	 67.7603 	 -41.9279
| 10> C 	 -119.959 	 67.4386 	 -42.9351
| 11> C 	 -120.28 	 66.3294 	 -43.666
| 12> H 	 -119.063 	 67.9518 	 -43.3242
| 13> C 	 -120.816 	 69.0547 	 -41.1217
| 14> H 	 -119.872 	 69.5254 	 -41.4097
| 15> H 	 -120.69 	 68.8099 	 -40.0975
| 16> C 	 -121.833 	 70.0646 	 -41.4456
| 17> H 	 -121.916 	 70.1474 	 -42.5759
| 18> H 	 -122.773 	 69.714 	 -41.0171
| 19> C 	 -121.481 	 71.4118 	 -40.8816
| 20> H 	 -122.216 	 72.1806 	 -41.2049
| 21> H 	 -121.591 	 71.47 	 -39.8374
| 22> H 	 -120.515 	 71.8232 	 -41.3008
| 23> S 	 -119.116 	 63.952 	 -44.1353
| 24> C 	 -118.211 	 63.664 	 -45.5692
| 25> C 	 -118.195 	 64.7544 	 -46.3873
| 26> C 	 -118.746 	 65.8937 	 -45.7109
| 27> C 	 -119.439 	 65.5648 	 -44.5671
| 28> H 	 -117.792 	 64.7737 	 -47.3319
| 29> C 	 -118.592 	 67.2512 	 -46.3473
| 30> H 	 -118.906 	 68 	 -45.6192
| 31> H 	 -119.309 	 67.3651 	 -47.2401
| 32> C 	 -117.201 	 67.6596 	 -46.8777
| 33> H 	 -117.321 	 68.56 	 -47.4304
| 34> H 	 -116.69 	 67.0139 	 -47.5787
| 35> C 	 -116.134 	 67.9694 	 -45.8478
| 36> H 	 -115.995 	 67.1232 	 -45.2201
| 37> H 	 -116.365 	 68.8745 	 -45.2735
| 38> H 	 -115.233 	 68.1677 	 -46.2892
| 39> H 	 -122.769 	 66.7235 	 -41.0449
| 40> H 	 -117.785 	 62.7601 	 -45.897
| 41> *
| 42>
| 43>                          ****END OF INPUT****

CARTESIAN COORDINATES (ANGSTROEM)
---------------------------------
  S    -121.591000   65.463800  -42.916100
  C    -121.949000   66.767000  -41.764800
  C    -120.907000   67.760300  -41.927900
  C    -119.959000   67.438600  -42.935100
  C    -120.280000   66.329400  -43.666000
  H    -119.063000   67.951800  -43.324200
  C    -120.816000   69.054700  -41.121700
  H    -119.872000   69.525400  -41.409700
  H    -120.690000   68.809900  -40.097500
  C    -121.833000   70.064600  -41.445600
  H    -121.916000   70.147400  -42.575900
  H    -122.773000   69.714000  -41.017100
  C    -121.481000   71.411800  -40.881600
  H    -122.216000   72.180600  -41.204900
  H    -121.591000   71.470000  -39.837400
  H    -120.515000   71.823200  -41.300800
  S    -119.116000   63.952000  -44.135300
  C    -118.211000   63.664000  -45.569200
  C    -118.195000   64.754400  -46.387300
  C    -118.746000   65.893700  -45.710900
  C    -119.439000   65.564800  -44.567100
  H    -117.792000   64.773700  -47.331900
  C    -118.592000   67.251200  -46.347300
  H    -118.906000   68.000000  -45.619200
  H    -119.309000   67.365100  -47.240100
  C    -117.201000   67.659600  -46.877700
  H    -117.321000   68.560000  -47.430400
  H    -116.690000   67.013900  -47.578700
  C    -116.134000   67.969400  -45.847800
  H    -115.995000   67.123200  -45.220100
  H    -116.365000   68.874500  -45.273500
  H    -115.233000   68.167700  -46.289200
  H    -122.769000   66.723500  -41.044900
  H    -117.785000   62.760100  -45.897000

 Total Charge           Charge          ....    0
 Multiplicity           Mult            ....    1
 Number of Electrons    NEL             ....  134
 Basis Dimension        Dim             ....  322

ORBITAL ENERGIES
----------------

  NO   OCC          E(Eh)            E(eV)
   0   2.0000     -88.965663     -2420.8788
   1   2.0000     -88.963677     -2420.8247
   2   2.0000     -10.325562      -280.9728
   3   2.0000     -10.324907      -280.9550
   4   2.0000     -10.320568      -280.8369
   5   2.0000     -10.310710      -280.5687
   6   2.0000     -10.307224      -280.4738
   7   2.0000     -10.298223      -280.2289
   8   2.0000     -10.297282      -280.2033
   9   2.0000     -10.295112      -280.1442
  10   2.0000     -10.284696      -279.8608
  11   2.0000     -10.283828      -279.8372
  12   2.0000     -10.281886      -279.7843
  13   2.0000     -10.281670      -279.7785
  14   2.0000     -10.278353      -279.6882
  15   2.0000     -10.263852      -279.2936
  16   2.0000      -8.080086      -219.8703
  17   2.0000      -8.079790      -219.8623
  18   2.0000      -6.038500      -164.3159
  19   2.0000      -6.038280      -164.3100
  20   2.0000      -6.034482      -164.2066
  21   2.0000      -6.034043      -164.1946
  22   2.0000      -6.031091      -164.1143
  23   2.0000      -6.030514      -164.0986
  24   2.0000      -1.016135       -27.6504
  25   2.0000      -0.985342       -26.8125
  26   2.0000      -0.922183       -25.0939
  27   2.0000      -0.910646       -24.7799
  28   2.0000      -0.872963       -23.7545
  29   2.0000      -0.856277       -23.3005
  30   2.0000      -0.846434       -23.0326
  31   2.0000      -0.818855       -22.2822
  32   2.0000      -0.784514       -21.3477
  33   2.0000      -0.772942       -21.0328
  34   2.0000      -0.705458       -19.1965
  35   2.0000      -0.700752       -19.0684
  36   2.0000      -0.694024       -18.8854
  37   2.0000      -0.665089       -18.0980
  38   2.0000      -0.647740       -17.6259
  39   2.0000      -0.615402       -16.7459
  40   2.0000      -0.599372       -16.3097
  41   2.0000      -0.578085       -15.7305
  42   2.0000      -0.568755       -15.4766
  43   2.0000      -0.555698       -15.1213
  44   2.0000      -0.542946       -14.7743
  45   2.0000      -0.528061       -14.3693
  46   2.0000      -0.522162       -14.2088
  47   2.0000      -0.512774       -13.9533
  48   2.0000      -0.510406       -13.8889
  49   2.0000      -0.505740       -13.7619
  50   2.0000      -0.499190       -13.5837
  51   2.0000      -0.475987       -12.9523
  52   2.0000      -0.471070       -12.8185
  53   2.0000      -0.466347       -12.6899
  54   2.0000      -0.457827       -12.4581
  55   2.0000      -0.449033       -12.2188
  56   2.0000      -0.444243       -12.0885
  57   2.0000      -0.438415       -11.9299
  58   2.0000      -0.427948       -11.6450
  59   2.0000      -0.421827       -11.4785
  60   2.0000      -0.418655       -11.3922
  61   2.0000      -0.417065       -11.3489
  62   2.0000      -0.409718       -11.1490
  63   2.0000      -0.351981        -9.5779
  64   2.0000      -0.330067        -8.9816
  65   2.0000      -0.326132        -8.8745
  66   2.0000      -0.289093        -7.8666
  67   0.0000       0.029615         0.8059
  68   0.0000       0.069139         1.8814
  69   0.0000       0.116092         3.1590
  70   0.0000       0.117225         3.1899
  71   0.0000       0.134387         3.6568

MULLIKEN ATOMIC CHARGES
-----------------------
   0 S :    0.088485
   1 C :   -0.126471
   2 C :   -0.096630
   3 C :    0.029573
   4 C :   -0.143138
   5 H :    0.028073
   6 C :    0.091554
   7 H :   -0.001348
   8 H :    0.026245
   9 C :   -0.068425
  10 H :    0.041530
  11 H :    0.021303
  12 C :   -0.049069
  13 H :    0.027423
  14 H :    0.024442
  15 H :    0.039880
  16 S :    0.121640
  17 C :   -0.060743
  18 C :   -0.000970
  19 C :   -0.064355
  20 C :   -0.141156
  21 H :   -0.012196
  22 C :    0.060194
  23 H :    0.007742
  24 H :    0.051835
  25 C :   -0.077135
  26 H :    0.014746
  27 H :    0.020672
  28 C :   -0.009154
  29 H :    0.030700
  30 H :    0.020318
  31 H :    0.006544
  32 H :    0.064305
  33 H :    0.033585
Sum of atomic charges:   -0.0000000

LOEWDIN ATOMIC CHARGES
----------------------
   0 S :    0.406430
   1 C :   -0.199711
   2 C :   -0.050755
   3 C :   -0.071534
   4 C :   -0.193525
   5 H :    0.039055
   6 C :   -0.035611
   7 H :    0.026846
   8 H :    0.026248
   9 C :   -0.044288
  10 H :    0.035538
  11 H :    0.021963
  12 C :   -0.069557
  13 H :    0.030638
  14 H :    0.018731
  15 H :    0.031619
  16 S :    0.438260
  17 C :   -0.187364
  18 C :   -0.054487
  19 C :   -0.064164
  20 C :   -0.218257
  21 H :    0.017809
  22 C :   -0.035288
  23 H :    0.025985
  24 H :    0.045225
  25 C :   -0.042180
  26 H :    0.022233
  27 H :    0.021479
  28 C :   -0.055218
  29 H :    0.022786
  30 H :    0.023459
  31 H :    0.014536
  32 H :    0.032216
  33 H :    0.020883

  Mayer bond orders larger than 0.100000
B(  0-S ,  1-C ) :   1.1484 B(  0-S ,  4-C ) :   1.1624 B(  1-C ,  2-C ) :   1.5385
B(  1-C ,  4-C ) :   0.1112 B(  1-C , 32-H ) :   0.9789 B(  2-C ,  3-C ) :   1.2748
B(  2-C ,  6-C ) :   1.0211 B(  3-C ,  4-C ) :   1.5559 B(  3-C ,  5-H ) :   0.9805
B(  4-C , 20-C ) :   1.0235 B(  6-C ,  7-H ) :   0.9403 B(  6-C ,  8-H ) :   0.9331
B(  6-C ,  9-C ) :   1.0709 B(  9-C , 10-H ) :   0.9525 B(  9-C , 11-H ) :   0.9475
B(  9-C , 12-C ) :   1.1005 B( 12-C , 13-H ) :   0.9699 B( 12-C , 14-H ) :   0.9713
B( 12-C , 15-H ) :   0.9710 B( 16-S , 17-C ) :   1.1555 B( 16-S , 20-C ) :   1.1508
B( 17-C , 18-C ) :   1.6065 B( 17-C , 33-H ) :   0.9722 B( 18-C , 19-C ) :   1.2373
B( 18-C , 21-H ) :   1.0040 B( 19-C , 20-C ) :   1.5981 B( 19-C , 22-C ) :   1.0566
B( 22-C , 23-H ) :   0.9338 B( 22-C , 24-H ) :   0.9308 B( 22-C , 25-C ) :   1.0684
B( 25-C , 26-H ) :   0.9505 B( 25-C , 27-H ) :   0.9565 B( 25-C , 28-C ) :   1.0888
B( 28-C , 29-H ) :   0.9758 B( 28-C , 30-H ) :   0.9724 B( 28-C , 31-H ) :   0.9693

Dispersion correction           -0.013787489
FINAL SINGLE POINT ENERGY     -1339.860682511621

DIPOLE MOMENT
-------------
                                X             Y             Z
Electronic contribution:     -7.70680     -28.31109       0.72284
Nuclear contribution   :      7.98199      28.86409      -0.82961
                        -----------------------------------------
Total Dipole Moment    :      0.27519       0.55300      -0.10677
                        -----------------------------------------
Magnitude (a.u.)       :      0.62685
Magnitude (Debye)      :      1.59332

Rotational constants in cm-1:     0.019493     0.008332     0.006204
Rotational constants in MHz :   584.394569   249.774745   185.986321

                             ****ORCA TERMINATED NORMALLY****
TOTAL RUN TIME: 0 days 0 hours 0 minutes 20 seconds 97 msec
