                         Program Version 4.2.1 -  RELEASE  -
|  1> ! wB97X-D3 SP def2-SVP
|  2> %pal
|  3> nprocs 24
|  4> end
|  5>
|  6> * xyz 0 1
|  7> S 	 -70.3107 	 17.7486 	 -72.776
|  8> C 	 -68.8689 	 17.45 	 -71.8355
|  9> C 	 -67.7147 	 17.652 	 -72.5513
| 10> C 	 -68.0214 	 17.594 	 -73.9296
| 11> C 	 -69.3871 	 17.5962 	 -74.2221
| 12> H 	 -67.2702 	 17.5227 	 -74.7644
| 13> C 	 -66.2986 	 17.6526 	 -72.0359
| 14> H 	 -65.9098 	 16.6797 	 -72.1841
| 15> H 	 -66.2877 	 17.9252 	 -70.9808
| 16> C 	 -65.3653 	 18.5939 	 -72.8249
| 17> H 	 -64.397 	 18.3434 	 -72.5013
| 18> H 	 -65.4062 	 18.4685 	 -73.9406
| 19> C 	 -65.675 	 20.1159 	 -72.673
| 20> H 	 -65.0744 	 20.508 	 -71.8834
| 21> H 	 -65.4155 	 20.604 	 -73.6082
| 22> H 	 -66.7324 	 20.2184 	 -72.4103
| 23> S 	 -70.6576 	 15.8404 	 -75.8794
| 24> C 	 -71.1286 	 16.4607 	 -77.4268
| 25> C 	 -70.7029 	 17.7091 	 -77.6892
| 26> C 	 -69.98 	 18.2735 	 -76.5706
| 27> C 	 -69.8887 	 17.3626 	 -75.5398
| 28> H 	 -70.9806 	 18.1232 	 -78.6531
| 29> C 	 -69.3973 	 19.6542 	 -76.5701
| 30> H 	 -69.1092 	 19.8324 	 -75.4883
| 31> H 	 -70.1591 	 20.3987 	 -76.8763
| 32> C 	 -68.1415 	 19.7145 	 -77.4672
| 33> H 	 -68.6221 	 19.6019 	 -78.478
| 34> H 	 -67.5266 	 18.8035 	 -77.2603
| 35> C 	 -67.334 	 20.9646 	 -77.3597
| 36> H 	 -67.8144 	 21.7996 	 -77.953
| 37> H 	 -66.3525 	 20.7035 	 -77.8388
| 38> H 	 -67.0436 	 21.2234 	 -76.3693
| 39> H 	 -68.7769 	 17.3837 	 -70.7938
| 40> H 	 -71.6865 	 15.963 	 -78.1657
| 41> *
| 42>
| 43>                          ****END OF INPUT****

CARTESIAN COORDINATES (ANGSTROEM)
---------------------------------
  S    -70.310700   17.748600  -72.776000
  C    -68.868900   17.450000  -71.835500
  C    -67.714700   17.652000  -72.551300
  C    -68.021400   17.594000  -73.929600
  C    -69.387100   17.596200  -74.222100
  H    -67.270200   17.522700  -74.764400
  C    -66.298600   17.652600  -72.035900
  H    -65.909800   16.679700  -72.184100
  H    -66.287700   17.925200  -70.980800
  C    -65.365300   18.593900  -72.824900
  H    -64.397000   18.343400  -72.501300
  H    -65.406200   18.468500  -73.940600
  C    -65.675000   20.115900  -72.673000
  H    -65.074400   20.508000  -71.883400
  H    -65.415500   20.604000  -73.608200
  H    -66.732400   20.218400  -72.410300
  S    -70.657600   15.840400  -75.879400
  C    -71.128600   16.460700  -77.426800
  C    -70.702900   17.709100  -77.689200
  C    -69.980000   18.273500  -76.570600
  C    -69.888700   17.362600  -75.539800
  H    -70.980600   18.123200  -78.653100
  C    -69.397300   19.654200  -76.570100
  H    -69.109200   19.832400  -75.488300
  H    -70.159100   20.398700  -76.876300
  C    -68.141500   19.714500  -77.467200
  H    -68.622100   19.601900  -78.478000
  H    -67.526600   18.803500  -77.260300
  C    -67.334000   20.964600  -77.359700
  H    -67.814400   21.799600  -77.953000
  H    -66.352500   20.703500  -77.838800
  H    -67.043600   21.223400  -76.369300
  H    -68.776900   17.383700  -70.793800
  H    -71.686500   15.963000  -78.165700

 Total Charge           Charge          ....    0
 Multiplicity           Mult            ....    1
 Number of Electrons    NEL             ....  134
 Basis Dimension        Dim             ....  322

ORBITAL ENERGIES
----------------

  NO   OCC          E(Eh)            E(eV)
   0   2.0000     -88.967567     -2420.9306
   1   2.0000     -88.962611     -2420.7957
   2   2.0000     -10.319292      -280.8022
   3   2.0000     -10.315748      -280.7058
   4   2.0000     -10.306265      -280.4477
   5   2.0000     -10.305477      -280.4263
   6   2.0000     -10.299178      -280.2549
   7   2.0000     -10.295233      -280.1475
   8   2.0000     -10.292974      -280.0860
   9   2.0000     -10.291506      -280.0461
  10   2.0000     -10.289587      -279.9939
  11   2.0000     -10.289264      -279.9851
  12   2.0000     -10.287330      -279.9325
  13   2.0000     -10.286850      -279.9194
  14   2.0000     -10.281281      -279.7679
  15   2.0000     -10.274574      -279.5854
  16   2.0000      -8.082521      -219.9366
  17   2.0000      -8.078059      -219.8152
  18   2.0000      -6.040991      -164.3837
  19   2.0000      -6.037193      -164.2804
  20   2.0000      -6.036459      -164.2604
  21   2.0000      -6.033115      -164.1694
  22   2.0000      -6.032623      -164.1560
  23   2.0000      -6.028738      -164.0503
  24   2.0000      -1.011218       -27.5166
  25   2.0000      -0.988214       -26.8907
  26   2.0000      -0.914622       -24.8881
  27   2.0000      -0.910159       -24.7667
  28   2.0000      -0.872711       -23.7477
  29   2.0000      -0.851928       -23.1821
  30   2.0000      -0.845866       -23.0172
  31   2.0000      -0.814284       -22.1578
  32   2.0000      -0.787623       -21.4323
  33   2.0000      -0.771547       -20.9949
  34   2.0000      -0.709348       -19.3023
  35   2.0000      -0.694277       -18.8922
  36   2.0000      -0.688326       -18.7303
  37   2.0000      -0.655023       -17.8241
  38   2.0000      -0.634441       -17.2640
  39   2.0000      -0.620848       -16.8941
  40   2.0000      -0.591111       -16.0850
  41   2.0000      -0.573654       -15.6099
  42   2.0000      -0.567070       -15.4308
  43   2.0000      -0.559490       -15.2245
  44   2.0000      -0.538757       -14.6603
  45   2.0000      -0.523905       -14.2562
  46   2.0000      -0.521100       -14.1799
  47   2.0000      -0.513747       -13.9798
  48   2.0000      -0.505266       -13.7490
  49   2.0000      -0.493573       -13.4308
  50   2.0000      -0.485043       -13.1987
  51   2.0000      -0.482316       -13.1245
  52   2.0000      -0.476995       -12.9797
  53   2.0000      -0.465119       -12.6565
  54   2.0000      -0.460126       -12.5207
  55   2.0000      -0.449029       -12.2187
  56   2.0000      -0.444299       -12.0900
  57   2.0000      -0.434711       -11.8291
  58   2.0000      -0.427585       -11.6352
  59   2.0000      -0.425426       -11.5764
  60   2.0000      -0.422170       -11.4878
  61   2.0000      -0.416608       -11.3365
  62   2.0000      -0.412006       -11.2113
  63   2.0000      -0.337565        -9.1856
  64   2.0000      -0.326110        -8.8739
  65   2.0000      -0.322583        -8.7779
  66   2.0000      -0.302433        -8.2296
  67   0.0000       0.039150         1.0653
  68   0.0000       0.068024         1.8510
  69   0.0000       0.108976         2.9654
  70   0.0000       0.118019         3.2115
  71   0.0000       0.128065         3.4848

MULLIKEN ATOMIC CHARGES
-----------------------
   0 S :    0.140445
   1 C :   -0.102632
   2 C :   -0.092541
   3 C :   -0.008227
   4 C :   -0.174477
   5 H :    0.032021
   6 C :    0.105778
   7 H :    0.036532
   8 H :    0.023669
   9 C :   -0.108801
  10 H :    0.017825
  11 H :    0.031067
  12 C :   -0.040216
  13 H :    0.026456
  14 H :    0.036035
  15 H :    0.044746
  16 S :    0.125522
  17 C :   -0.064251
  18 C :   -0.039725
  19 C :   -0.022813
  20 C :   -0.191391
  21 H :    0.015047
  22 C :    0.059738
  23 H :    0.032108
  24 H :    0.035343
  25 C :   -0.124404
  26 H :    0.032224
  27 H :    0.037250
  28 C :   -0.013381
  29 H :    0.047007
  30 H :    0.032777
  31 H :    0.026344
  32 H :    0.017243
  33 H :    0.027684
Sum of atomic charges:    0.0000000

LOEWDIN ATOMIC CHARGES
----------------------
   0 S :    0.420662
   1 C :   -0.190191
   2 C :   -0.068068
   3 C :   -0.061127
   4 C :   -0.214323
   5 H :    0.035410
   6 C :   -0.024081
   7 H :    0.033188
   8 H :    0.030680
   9 C :   -0.038217
  10 H :    0.015462
  11 H :    0.026057
  12 C :   -0.061884
  13 H :    0.020772
  14 H :    0.026109
  15 H :    0.029750
  16 S :    0.413197
  17 C :   -0.178383
  18 C :   -0.074669
  19 C :   -0.046283
  20 C :   -0.211899
  21 H :    0.032797
  22 C :   -0.040377
  23 H :    0.031535
  24 H :    0.032124
  25 C :   -0.048417
  26 H :    0.028799
  27 H :    0.026733
  28 C :   -0.069663
  29 H :    0.035653
  30 H :    0.034544
  31 H :    0.019761
  32 H :    0.014769
  33 H :    0.019583

  Mayer bond orders larger than 0.100000
B(  0-S ,  1-C ) :   1.1435 B(  0-S ,  4-C ) :   1.1478 B(  1-C ,  2-C ) :   1.6128
B(  1-C , 32-H ) :   0.9674 B(  2-C ,  3-C ) :   1.2304 B(  2-C ,  6-C ) :   1.0265
B(  3-C ,  4-C ) :   1.5743 B(  3-C ,  5-H ) :   0.9816 B(  4-C , 20-C ) :   1.0471
B(  6-C ,  7-H ) :   0.9339 B(  6-C ,  8-H ) :   0.9398 B(  6-C ,  9-C ) :   1.0800
B(  9-C , 10-H ) :   0.9590 B(  9-C , 11-H ) :   0.9628 B(  9-C , 12-C ) :   1.0560
B( 12-C , 13-H ) :   0.9768 B( 12-C , 14-H ) :   0.9807 B( 12-C , 15-H ) :   0.9798
B( 16-S , 17-C ) :   1.1421 B( 16-S , 20-C ) :   1.1320 B( 17-C , 18-C ) :   1.6711
B( 17-C , 33-H ) :   0.9642 B( 18-C , 19-C ) :   1.1872 B( 18-C , 21-H ) :   0.9898
B( 19-C , 20-C ) :   1.6359 B( 19-C , 22-C ) :   1.0544 B( 22-C , 23-H ) :   0.9220
B( 22-C , 24-H ) :   0.9334 B( 22-C , 25-C ) :   1.0514 B( 25-C , 26-H ) :   0.9543
B( 25-C , 27-H ) :   0.9557 B( 25-C , 28-C ) :   1.0934 B( 28-C , 29-H ) :   0.9691
B( 28-C , 30-H ) :   0.9714 B( 28-C , 31-H ) :   0.9715

Dispersion correction           -0.015240242
FINAL SINGLE POINT ENERGY     -1339.872695074333

DIPOLE MOMENT
-------------
                                X             Y             Z
Electronic contribution:    -23.29116     -18.60940       3.95378
Nuclear contribution   :     23.82694      18.89312      -4.11911
                        -----------------------------------------
Total Dipole Moment    :      0.53578       0.28372      -0.16533
                        -----------------------------------------
Magnitude (a.u.)       :      0.62840
Magnitude (Debye)      :      1.59728

Rotational constants in cm-1:     0.017099     0.010602     0.007426
Rotational constants in MHz :   512.613636   317.843752   222.616569

                             ****ORCA TERMINATED NORMALLY****
TOTAL RUN TIME: 0 days 0 hours 0 minutes 22 seconds 862 msec
