                         Program Version 4.2.1 -  RELEASE  -
|  1> ! wB97X-D3 SP def2-SVP
|  2> %pal
|  3> nprocs 24
|  4> end
|  5>
|  6> * xyz 0 1
|  7> S 	 -38.9819 	 3.0169 	 -3.53423
|  8> C 	 -40.6369 	 2.63083 	 -3.06093
|  9> C 	 -40.693 	 3.00797 	 -1.68948
| 10> C 	 -39.5946 	 3.81126 	 -1.23766
| 11> C 	 -38.6174 	 4.09002 	 -2.17043
| 12> H 	 -39.4206 	 4.06895 	 -0.182324
| 13> C 	 -41.7417 	 2.61186 	 -0.803555
| 14> H 	 -42.673 	 2.66869 	 -1.31295
| 15> H 	 -41.764 	 3.57681 	 -0.218784
| 16> C 	 -41.6239 	 1.2433 	 -0.0793797
| 17> H 	 -40.9013 	 1.35634 	 0.720688
| 18> H 	 -42.5123 	 1.04936 	 0.463601
| 19> C 	 -41.3951 	 0.154906 	 -1.11125
| 20> H 	 -41.2546 	 -0.792578 	 -0.548012
| 21> H 	 -42.2633 	 0.013383 	 -1.81374
| 22> H 	 -40.4651 	 0.46396 	 -1.64302
| 23> S 	 -35.9251 	 3.77014 	 -2.17733
| 24> C 	 -34.8788 	 5.06017 	 -1.54155
| 25> C 	 -35.6585 	 6.03454 	 -0.898878
| 26> C 	 -37.028 	 5.84233 	 -1.15013
| 27> C 	 -37.3722 	 4.65287 	 -1.8578
| 28> H 	 -35.2082 	 6.87475 	 -0.353596
| 29> C 	 -37.9758 	 6.88661 	 -0.610047
| 30> H 	 -38.9173 	 6.53786 	 -0.958916
| 31> H 	 -37.7369 	 7.84997 	 -1.0964
| 32> C 	 -38.0018 	 7.07341 	 0.926093
| 33> H 	 -38.2438 	 8.12039 	 1.18205
| 34> H 	 -36.9719 	 6.8087 	 1.33791
| 35> C 	 -39.1365 	 6.19489 	 1.59399
| 36> H 	 -38.8318 	 5.15515 	 1.42198
| 37> H 	 -40.0914 	 6.46448 	 1.14615
| 38> H 	 -39.2821 	 6.28743 	 2.66352
| 39> H 	 -41.2653 	 1.80464 	 -3.50754
| 40> H 	 -33.7616 	 5.15505 	 -1.48483
| 41> *
| 42>
| 43>                          ****END OF INPUT****

CARTESIAN COORDINATES (ANGSTROEM)
---------------------------------
  S    -38.981900    3.016900   -3.534230
  C    -40.636900    2.630830   -3.060930
  C    -40.693000    3.007970   -1.689480
  C    -39.594600    3.811260   -1.237660
  C    -38.617400    4.090020   -2.170430
  H    -39.420600    4.068950   -0.182324
  C    -41.741700    2.611860   -0.803555
  H    -42.673000    2.668690   -1.312950
  H    -41.764000    3.576810   -0.218784
  C    -41.623900    1.243300   -0.079380
  H    -40.901300    1.356340    0.720688
  H    -42.512300    1.049360    0.463601
  C    -41.395100    0.154906   -1.111250
  H    -41.254600   -0.792578   -0.548012
  H    -42.263300    0.013383   -1.813740
  H    -40.465100    0.463960   -1.643020
  S    -35.925100    3.770140   -2.177330
  C    -34.878800    5.060170   -1.541550
  C    -35.658500    6.034540   -0.898878
  C    -37.028000    5.842330   -1.150130
  C    -37.372200    4.652870   -1.857800
  H    -35.208200    6.874750   -0.353596
  C    -37.975800    6.886610   -0.610047
  H    -38.917300    6.537860   -0.958916
  H    -37.736900    7.849970   -1.096400
  C    -38.001800    7.073410    0.926093
  H    -38.243800    8.120390    1.182050
  H    -36.971900    6.808700    1.337910
  C    -39.136500    6.194890    1.593990
  H    -38.831800    5.155150    1.421980
  H    -40.091400    6.464480    1.146150
  H    -39.282100    6.287430    2.663520
  H    -41.265300    1.804640   -3.507540
  H    -33.761600    5.155050   -1.484830

 Total Charge           Charge          ....    0
 Multiplicity           Mult            ....    1
 Number of Electrons    NEL             ....  134
 Basis Dimension        Dim             ....  322

ORBITAL ENERGIES
----------------

  NO   OCC          E(Eh)            E(eV)
   0   2.0000     -88.971305     -2421.0323
   1   2.0000     -88.964467     -2420.8462
   2   2.0000     -10.330987      -281.1205
   3   2.0000     -10.328721      -281.0588
   4   2.0000     -10.326008      -280.9850
   5   2.0000     -10.324059      -280.9319
   6   2.0000     -10.302962      -280.3579
   7   2.0000     -10.300413      -280.2885
   8   2.0000     -10.298647      -280.2404
   9   2.0000     -10.295648      -280.1588
  10   2.0000     -10.294813      -280.1361
  11   2.0000     -10.287046      -279.9247
  12   2.0000     -10.286572      -279.9119
  13   2.0000     -10.286355      -279.9060
  14   2.0000     -10.283392      -279.8253
  15   2.0000     -10.281933      -279.7856
  16   2.0000      -8.085518      -220.0181
  17   2.0000      -8.078414      -219.8248
  18   2.0000      -6.044167      -164.4702
  19   2.0000      -6.040006      -164.3569
  20   2.0000      -6.037046      -164.2764
  21   2.0000      -6.036230      -164.2542
  22   2.0000      -6.033082      -164.1685
  23   2.0000      -6.028969      -164.0566
  24   2.0000      -1.010237       -27.4899
  25   2.0000      -0.984215       -26.7818
  26   2.0000      -0.921300       -25.0698
  27   2.0000      -0.906001       -24.6535
  28   2.0000      -0.875767       -23.8308
  29   2.0000      -0.849951       -23.1283
  30   2.0000      -0.845924       -23.0188
  31   2.0000      -0.814894       -22.1744
  32   2.0000      -0.777150       -21.1473
  33   2.0000      -0.768027       -20.8991
  34   2.0000      -0.716013       -19.4837
  35   2.0000      -0.701354       -19.0848
  36   2.0000      -0.697350       -18.9759
  37   2.0000      -0.656977       -17.8772
  38   2.0000      -0.635735       -17.2992
  39   2.0000      -0.622188       -16.9306
  40   2.0000      -0.590672       -16.0730
  41   2.0000      -0.574528       -15.6337
  42   2.0000      -0.559525       -15.2255
  43   2.0000      -0.551900       -15.0180
  44   2.0000      -0.542047       -14.7499
  45   2.0000      -0.532328       -14.4854
  46   2.0000      -0.518966       -14.1218
  47   2.0000      -0.516641       -14.0585
  48   2.0000      -0.511055       -13.9065
  49   2.0000      -0.499449       -13.5907
  50   2.0000      -0.487457       -13.2644
  51   2.0000      -0.481598       -13.1049
  52   2.0000      -0.472693       -12.8626
  53   2.0000      -0.462345       -12.5811
  54   2.0000      -0.460200       -12.5227
  55   2.0000      -0.447030       -12.1643
  56   2.0000      -0.443675       -12.0730
  57   2.0000      -0.438040       -11.9197
  58   2.0000      -0.432257       -11.7623
  59   2.0000      -0.423099       -11.5131
  60   2.0000      -0.418983       -11.4011
  61   2.0000      -0.414120       -11.2688
  62   2.0000      -0.402664       -10.9570
  63   2.0000      -0.353690        -9.6244
  64   2.0000      -0.332551        -9.0492
  65   2.0000      -0.316993        -8.6258
  66   2.0000      -0.285793        -7.7768
  67   0.0000       0.012391         0.3372
  68   0.0000       0.064294         1.7495
  69   0.0000       0.100557         2.7363
  70   0.0000       0.120719         3.2849
  71   0.0000       0.123978         3.3736

MULLIKEN ATOMIC CHARGES
-----------------------
   0 S :    0.083880
   1 C :   -0.110355
   2 C :   -0.156743
   3 C :    0.028948
   4 C :   -0.129813
   5 H :    0.000508
   6 C :    0.024338
   7 H :    0.013219
   8 H :    0.030022
   9 C :   -0.003089
  10 H :    0.025172
  11 H :    0.018543
  12 C :   -0.098658
  13 H :    0.044185
  14 H :    0.043606
  15 H :    0.066275
  16 S :    0.119006
  17 C :   -0.109073
  18 C :   -0.048897
  19 C :   -0.075899
  20 C :   -0.132367
  21 H :    0.034807
  22 C :    0.083924
  23 H :    0.007224
  24 H :    0.042655
  25 C :   -0.094018
  26 H :    0.035360
  27 H :    0.043858
  28 C :   -0.077239
  29 H :    0.055591
  30 H :    0.038312
  31 H :    0.035206
  32 H :    0.087749
  33 H :    0.073762
Sum of atomic charges:   -0.0000000

LOEWDIN ATOMIC CHARGES
----------------------
   0 S :    0.391695
   1 C :   -0.206687
   2 C :   -0.070991
   3 C :   -0.064064
   4 C :   -0.193063
   5 H :    0.032106
   6 C :   -0.051341
   7 H :    0.027037
   8 H :    0.041339
   9 C :   -0.032197
  10 H :    0.024337
  11 H :    0.019673
  12 C :   -0.071893
  13 H :    0.031537
  14 H :    0.029936
  15 H :    0.033674
  16 S :    0.419209
  17 C :   -0.191012
  18 C :   -0.074015
  19 C :   -0.059923
  20 C :   -0.211494
  21 H :    0.037378
  22 C :   -0.033354
  23 H :    0.021323
  24 H :    0.037724
  25 C :   -0.038911
  26 H :    0.024409
  27 H :    0.028411
  28 C :   -0.066637
  29 H :    0.024430
  30 H :    0.025725
  31 H :    0.024484
  32 H :    0.047627
  33 H :    0.043525

  Mayer bond orders larger than 0.100000
B(  0-S ,  1-C ) :   1.1325 B(  0-S ,  4-C ) :   1.1436 B(  1-C ,  2-C ) :   1.5343
B(  1-C ,  4-C ) :   0.1044 B(  1-C , 32-H ) :   0.9599 B(  2-C ,  3-C ) :   1.2983
B(  2-C ,  6-C ) :   1.0353 B(  3-C ,  4-C ) :   1.5031 B(  3-C ,  5-H ) :   0.9771
B(  4-C , 20-C ) :   1.1147 B(  6-C ,  7-H ) :   0.9367 B(  6-C ,  8-H ) :   0.9446
B(  6-C ,  9-C ) :   1.0477 B(  9-C , 10-H ) :   0.9567 B(  9-C , 11-H ) :   0.9527
B(  9-C , 12-C ) :   1.0737 B( 12-C , 13-H ) :   0.9698 B( 12-C , 14-H ) :   0.9716
B( 12-C , 15-H ) :   0.9684 B( 16-S , 17-C ) :   1.1576 B( 16-S , 20-C ) :   1.1422
B( 17-C , 18-C ) :   1.5826 B( 17-C , 20-C ) :   0.1065 B( 17-C , 33-H ) :   0.9605
B( 18-C , 19-C ) :   1.2828 B( 18-C , 21-H ) :   0.9822 B( 19-C , 20-C ) :   1.5306
B( 19-C , 22-C ) :   1.0513 B( 22-C , 23-H ) :   0.9322 B( 22-C , 24-H ) :   0.9355
B( 22-C , 25-C ) :   1.0433 B( 25-C , 26-H ) :   0.9582 B( 25-C , 27-H ) :   0.9621
B( 25-C , 28-C ) :   1.0713 B( 28-C , 29-H ) :   0.9666 B( 28-C , 30-H ) :   0.9766
B( 28-C , 31-H ) :   0.9715

Dispersion correction           -0.015333874
FINAL SINGLE POINT ENERGY     -1339.840137228461

DIPOLE MOMENT
-------------
                                X             Y             Z
Electronic contribution:     16.15929      -1.20609     -19.10870
Nuclear contribution   :    -16.40742       1.26259      19.88063
                        -----------------------------------------
Total Dipole Moment    :     -0.24813       0.05650       0.77192
                        -----------------------------------------
Magnitude (a.u.)       :      0.81279
Magnitude (Debye)      :      2.06595

Rotational constants in cm-1:     0.019818     0.009351     0.007255
Rotational constants in MHz :   594.138850   280.327869   217.512355

                             ****ORCA TERMINATED NORMALLY****
TOTAL RUN TIME: 0 days 0 hours 0 minutes 24 seconds 797 msec
