                         Program Version 4.2.1 -  RELEASE  -
|  1> ! wB97X-D3 SP def2-SVP
|  2> %pal
|  3> nprocs 24
|  4> end
|  5>
|  6> * xyz 0 1
|  7> S 	 -45.7618 	 9.33872 	 -23.9269
|  8> C 	 -46.7016 	 9.2016 	 -22.4817
|  9> C 	 -47.4592 	 10.3104 	 -22.4235
| 10> C 	 -47.1973 	 11.2962 	 -23.4111
| 11> C 	 -46.2474 	 10.9711 	 -24.353
| 12> H 	 -47.6601 	 12.2706 	 -23.4774
| 13> C 	 -48.6085 	 10.4443 	 -21.4345
| 14> H 	 -49.2254 	 9.48932 	 -21.4597
| 15> H 	 -49.1979 	 11.2128 	 -21.8498
| 16> C 	 -48.1935 	 10.8729 	 -19.9846
| 17> H 	 -47.4779 	 10.0728 	 -19.5457
| 18> H 	 -47.7155 	 11.8654 	 -19.9917
| 19> C 	 -49.5188 	 10.8764 	 -19.1166
| 20> H 	 -49.4781 	 11.7693 	 -18.4178
| 21> H 	 -50.4124 	 11.1333 	 -19.6937
| 22> H 	 -49.6103 	 9.8797 	 -18.6475
| 23> S 	 -45.5937 	 11.137 	 -27.0142
| 24> C 	 -44.9757 	 12.5884 	 -27.7056
| 25> C 	 -45.1323 	 13.6035 	 -26.8284
| 26> C 	 -45.4602 	 13.1539 	 -25.4906
| 27> C 	 -45.6964 	 11.7766 	 -25.4019
| 28> H 	 -44.9969 	 14.6191 	 -27.1413
| 29> C 	 -45.5428 	 14.2155 	 -24.3811
| 30> H 	 -46.4085 	 14.0248 	 -23.809
| 31> H 	 -45.4541 	 15.2042 	 -24.8824
| 32> C 	 -44.37 	 14.1045 	 -23.3559
| 33> H 	 -43.4724 	 14.0115 	 -23.8286
| 34> H 	 -44.5743 	 13.0925 	 -22.8955
| 35> C 	 -44.3273 	 15.1984 	 -22.2891
| 36> H 	 -45.0926 	 15.0964 	 -21.4951
| 37> H 	 -44.5746 	 16.1475 	 -22.7362
| 38> H 	 -43.2903 	 15.3644 	 -21.9744
| 39> H 	 -46.8802 	 8.2657 	 -21.8899
| 40> H 	 -44.7376 	 12.7914 	 -28.735
| 41> *
| 42>
| 43>                          ****END OF INPUT****

CARTESIAN COORDINATES (ANGSTROEM)
---------------------------------
  S    -45.761800    9.338720  -23.926900
  C    -46.701600    9.201600  -22.481700
  C    -47.459200   10.310400  -22.423500
  C    -47.197300   11.296200  -23.411100
  C    -46.247400   10.971100  -24.353000
  H    -47.660100   12.270600  -23.477400
  C    -48.608500   10.444300  -21.434500
  H    -49.225400    9.489320  -21.459700
  H    -49.197900   11.212800  -21.849800
  C    -48.193500   10.872900  -19.984600
  H    -47.477900   10.072800  -19.545700
  H    -47.715500   11.865400  -19.991700
  C    -49.518800   10.876400  -19.116600
  H    -49.478100   11.769300  -18.417800
  H    -50.412400   11.133300  -19.693700
  H    -49.610300    9.879700  -18.647500
  S    -45.593700   11.137000  -27.014200
  C    -44.975700   12.588400  -27.705600
  C    -45.132300   13.603500  -26.828400
  C    -45.460200   13.153900  -25.490600
  C    -45.696400   11.776600  -25.401900
  H    -44.996900   14.619100  -27.141300
  C    -45.542800   14.215500  -24.381100
  H    -46.408500   14.024800  -23.809000
  H    -45.454100   15.204200  -24.882400
  C    -44.370000   14.104500  -23.355900
  H    -43.472400   14.011500  -23.828600
  H    -44.574300   13.092500  -22.895500
  C    -44.327300   15.198400  -22.289100
  H    -45.092600   15.096400  -21.495100
  H    -44.574600   16.147500  -22.736200
  H    -43.290300   15.364400  -21.974400
  H    -46.880200    8.265700  -21.889900
  H    -44.737600   12.791400  -28.735000

 Total Charge           Charge          ....    0
 Multiplicity           Mult            ....    1
 Number of Electrons    NEL             ....  134
 Basis Dimension        Dim             ....  322

ORBITAL ENERGIES
----------------

  NO   OCC          E(Eh)            E(eV)
   0   2.0000     -88.964009     -2420.8338
   1   2.0000     -88.960496     -2420.7382
   2   2.0000     -10.331713      -281.1402
   3   2.0000     -10.329698      -281.0854
   4   2.0000     -10.314361      -280.6680
   5   2.0000     -10.314033      -280.6591
   6   2.0000     -10.308251      -280.5018
   7   2.0000     -10.300973      -280.3037
   8   2.0000     -10.294092      -280.1165
   9   2.0000     -10.293028      -280.0875
  10   2.0000     -10.292833      -280.0822
  11   2.0000     -10.292578      -280.0753
  12   2.0000     -10.291589      -280.0484
  13   2.0000     -10.287740      -279.9436
  14   2.0000     -10.278801      -279.7004
  15   2.0000     -10.277991      -279.6783
  16   2.0000      -8.079643      -219.8583
  17   2.0000      -8.075725      -219.7517
  18   2.0000      -6.038251      -164.3092
  19   2.0000      -6.034296      -164.2015
  20   2.0000      -6.033967      -164.1926
  21   2.0000      -6.030270      -164.0920
  22   2.0000      -6.029935      -164.0829
  23   2.0000      -6.026548      -163.9907
  24   2.0000      -1.014538       -27.6070
  25   2.0000      -0.994174       -27.0528
  26   2.0000      -0.907537       -24.6953
  27   2.0000      -0.906059       -24.6551
  28   2.0000      -0.877473       -23.8773
  29   2.0000      -0.849101       -23.1052
  30   2.0000      -0.840782       -22.8788
  31   2.0000      -0.822250       -22.3746
  32   2.0000      -0.778893       -21.1948
  33   2.0000      -0.767594       -20.8873
  34   2.0000      -0.713265       -19.4089
  35   2.0000      -0.696463       -18.9517
  36   2.0000      -0.693886       -18.8816
  37   2.0000      -0.665592       -18.1117
  38   2.0000      -0.640580       -17.4311
  39   2.0000      -0.621973       -16.9248
  40   2.0000      -0.595765       -16.2116
  41   2.0000      -0.571783       -15.5590
  42   2.0000      -0.566980       -15.4283
  43   2.0000      -0.561242       -15.2722
  44   2.0000      -0.527167       -14.3449
  45   2.0000      -0.524408       -14.2699
  46   2.0000      -0.516208       -14.0467
  47   2.0000      -0.514355       -13.9963
  48   2.0000      -0.508383       -13.8338
  49   2.0000      -0.505065       -13.7435
  50   2.0000      -0.488878       -13.3030
  51   2.0000      -0.484413       -13.1816
  52   2.0000      -0.477999       -13.0070
  53   2.0000      -0.467195       -12.7130
  54   2.0000      -0.465552       -12.6683
  55   2.0000      -0.447067       -12.1653
  56   2.0000      -0.441240       -12.0068
  57   2.0000      -0.437599       -11.9077
  58   2.0000      -0.432846       -11.7783
  59   2.0000      -0.422936       -11.5087
  60   2.0000      -0.414160       -11.2699
  61   2.0000      -0.409356       -11.1391
  62   2.0000      -0.401661       -10.9298
  63   2.0000      -0.357326        -9.7233
  64   2.0000      -0.328034        -8.9263
  65   2.0000      -0.325663        -8.8617
  66   2.0000      -0.295841        -8.0502
  67   0.0000       0.022902         0.6232
  68   0.0000       0.077830         2.1179
  69   0.0000       0.109084         2.9683
  70   0.0000       0.122584         3.3357
  71   0.0000       0.134611         3.6630

MULLIKEN ATOMIC CHARGES
-----------------------
   0 S :    0.096060
   1 C :   -0.125470
   2 C :   -0.088040
   3 C :    0.008326
   4 C :   -0.136982
   5 H :    0.008688
   6 C :    0.036277
   7 H :    0.045451
   8 H :    0.008155
   9 C :   -0.101664
  10 H :    0.048654
  11 H :    0.040789
  12 C :   -0.067007
  13 H :    0.039927
  14 H :    0.031686
  15 H :    0.052907
  16 S :    0.106251
  17 C :   -0.065941
  18 C :   -0.043891
  19 C :   -0.079020
  20 C :   -0.122500
  21 H :    0.013949
  22 C :    0.100601
  23 H :    0.006332
  24 H :    0.022617
  25 C :   -0.078606
  26 H :    0.006551
  27 H :    0.042329
  28 C :   -0.018193
  29 H :    0.037798
  30 H :    0.006365
  31 H :    0.038511
  32 H :    0.074402
  33 H :    0.054686
Sum of atomic charges:   -0.0000000

LOEWDIN ATOMIC CHARGES
----------------------
   0 S :    0.410038
   1 C :   -0.205038
   2 C :   -0.078829
   3 C :   -0.070093
   4 C :   -0.194074
   5 H :    0.027680
   6 C :   -0.034827
   7 H :    0.037543
   8 H :    0.020012
   9 C :   -0.041621
  10 H :    0.032059
  11 H :    0.025403
  12 C :   -0.076349
  13 H :    0.032738
  14 H :    0.022971
  15 H :    0.031381
  16 S :    0.424826
  17 C :   -0.187586
  18 C :   -0.073193
  19 C :   -0.048223
  20 C :   -0.209543
  21 H :    0.028631
  22 C :   -0.023679
  23 H :    0.018881
  24 H :    0.030340
  25 C :   -0.035411
  26 H :    0.008702
  27 H :    0.032927
  28 C :   -0.068637
  29 H :    0.029770
  30 H :    0.019555
  31 H :    0.032897
  32 H :    0.047350
  33 H :    0.033396

  Mayer bond orders larger than 0.100000
B(  0-S ,  1-C ) :   1.1398 B(  0-S ,  4-C ) :   1.1548 B(  1-C ,  2-C ) :   1.5961
B(  1-C , 32-H ) :   0.9656 B(  2-C ,  3-C ) :   1.2714 B(  2-C ,  6-C ) :   1.0061
B(  3-C ,  4-C ) :   1.5477 B(  3-C ,  5-H ) :   0.9940 B(  4-C , 20-C ) :   1.0643
B(  6-C ,  7-H ) :   0.9508 B(  6-C ,  8-H ) :   0.9384 B(  6-C ,  9-C ) :   1.0590
B(  9-C , 10-H ) :   0.9646 B(  9-C , 11-H ) :   0.9602 B(  9-C , 12-C ) :   1.0529
B( 12-C , 13-H ) :   0.9784 B( 12-C , 14-H ) :   0.9759 B( 12-C , 15-H ) :   0.9795
B( 16-S , 17-C ) :   1.1617 B( 16-S , 20-C ) :   1.1433 B( 17-C , 18-C ) :   1.6059
B( 17-C , 33-H ) :   0.9661 B( 18-C , 19-C ) :   1.2592 B( 18-C , 21-H ) :   0.9924
B( 19-C , 20-C ) :   1.5617 B( 19-C , 22-C ) :   1.0485 B( 22-C , 23-H ) :   0.9303
B( 22-C , 24-H ) :   0.9331 B( 22-C , 25-C ) :   1.0668 B( 25-C , 26-H ) :   0.9589
B( 25-C , 27-H ) :   0.9562 B( 25-C , 28-C ) :   1.0815 B( 28-C , 29-H ) :   0.9737
B( 28-C , 30-H ) :   0.9705 B( 28-C , 31-H ) :   0.9749

Dispersion correction           -0.013838964
FINAL SINGLE POINT ENERGY     -1339.861023223217

DIPOLE MOMENT
-------------
                                X             Y             Z
Electronic contribution:      7.35191     -15.57719     -25.92101
Nuclear contribution   :     -7.69414      16.17481      26.19854
                        -----------------------------------------
Total Dipole Moment    :     -0.34224       0.59762       0.27753
                        -----------------------------------------
Magnitude (a.u.)       :      0.74250
Magnitude (Debye)      :      1.88728

Rotational constants in cm-1:     0.018676     0.008379     0.006427
Rotational constants in MHz :   559.890355   251.186995   192.666472

                             ****ORCA TERMINATED NORMALLY****
TOTAL RUN TIME: 0 days 0 hours 0 minutes 21 seconds 512 msec
