                         Program Version 4.2.1 -  RELEASE  -
|  1> ! wB97X-D3 SP def2-SVP
|  2> %pal
|  3> nprocs 24
|  4> end
|  5>
|  6> * xyz 0 1
|  7> S 	 -83.8592 	 -11.2183 	 -56.2837
|  8> C 	 -82.9728 	 -9.75986 	 -56.74
|  9> C 	 -82.5083 	 -9.89483 	 -58.0786
| 10> C 	 -82.8612 	 -11.1375 	 -58.6503
| 11> C 	 -83.6366 	 -11.9383 	 -57.8771
| 12> H 	 -82.538 	 -11.3919 	 -59.6757
| 13> C 	 -81.6566 	 -8.89908 	 -58.8293
| 14> H 	 -81.8648 	 -8.01583 	 -58.2409
| 15> H 	 -82.1678 	 -8.72603 	 -59.7925
| 16> C 	 -80.1594 	 -9.16525 	 -58.7298
| 17> H 	 -79.8135 	 -8.97529 	 -57.7222
| 18> H 	 -79.9862 	 -10.2597 	 -58.9032
| 19> C 	 -79.351 	 -8.34645 	 -59.687
| 20> H 	 -79.7015 	 -8.67132 	 -60.7235
| 21> H 	 -79.6005 	 -7.23721 	 -59.5716
| 22> H 	 -78.3216 	 -8.59073 	 -59.5136
| 23> S 	 -83.2525 	 -14.4782 	 -56.8488
| 24> C 	 -83.7792 	 -15.8071 	 -57.7635
| 25> C 	 -84.2358 	 -15.3588 	 -58.9804
| 26> C 	 -84.1206 	 -13.9636 	 -59.2225
| 27> C 	 -83.7766 	 -13.3588 	 -58.0827
| 28> H 	 -84.6938 	 -16.0706 	 -59.6536
| 29> C 	 -84.632 	 -13.29 	 -60.4498
| 30> H 	 -84.7428 	 -12.1655 	 -60.4543
| 31> H 	 -85.673 	 -13.6393 	 -60.6374
| 32> C 	 -83.8693 	 -13.6791 	 -61.7274
| 33> H 	 -84.3533 	 -13.4013 	 -62.6769
| 34> H 	 -83.87 	 -14.7395 	 -61.7513
| 35> C 	 -82.3625 	 -13.3394 	 -61.8395
| 36> H 	 -81.6785 	 -13.6469 	 -60.9705
| 37> H 	 -82.1802 	 -12.248 	 -61.9889
| 38> H 	 -81.9703 	 -13.8795 	 -62.7024
| 39> H 	 -82.7459 	 -8.91803 	 -56.0789
| 40> H 	 -84.0773 	 -16.6796 	 -57.336
| 41> *
| 42>
| 43>                          ****END OF INPUT****

CARTESIAN COORDINATES (ANGSTROEM)
---------------------------------
  S    -83.859200  -11.218300  -56.283700
  C    -82.972800   -9.759860  -56.740000
  C    -82.508300   -9.894830  -58.078600
  C    -82.861200  -11.137500  -58.650300
  C    -83.636600  -11.938300  -57.877100
  H    -82.538000  -11.391900  -59.675700
  C    -81.656600   -8.899080  -58.829300
  H    -81.864800   -8.015830  -58.240900
  H    -82.167800   -8.726030  -59.792500
  C    -80.159400   -9.165250  -58.729800
  H    -79.813500   -8.975290  -57.722200
  H    -79.986200  -10.259700  -58.903200
  C    -79.351000   -8.346450  -59.687000
  H    -79.701500   -8.671320  -60.723500
  H    -79.600500   -7.237210  -59.571600
  H    -78.321600   -8.590730  -59.513600
  S    -83.252500  -14.478200  -56.848800
  C    -83.779200  -15.807100  -57.763500
  C    -84.235800  -15.358800  -58.980400
  C    -84.120600  -13.963600  -59.222500
  C    -83.776600  -13.358800  -58.082700
  H    -84.693800  -16.070600  -59.653600
  C    -84.632000  -13.290000  -60.449800
  H    -84.742800  -12.165500  -60.454300
  H    -85.673000  -13.639300  -60.637400
  C    -83.869300  -13.679100  -61.727400
  H    -84.353300  -13.401300  -62.676900
  H    -83.870000  -14.739500  -61.751300
  C    -82.362500  -13.339400  -61.839500
  H    -81.678500  -13.646900  -60.970500
  H    -82.180200  -12.248000  -61.988900
  H    -81.970300  -13.879500  -62.702400
  H    -82.745900   -8.918030  -56.078900
  H    -84.077300  -16.679600  -57.336000

 Total Charge           Charge          ....    0
 Multiplicity           Mult            ....    1
 Number of Electrons    NEL             ....  134
 Basis Dimension        Dim             ....  322

ORBITAL ENERGIES
----------------

  NO   OCC          E(Eh)            E(eV)
   0   2.0000     -88.967674     -2420.9335
   1   2.0000     -88.960089     -2420.7271
   2   2.0000     -10.323004      -280.9032
   3   2.0000     -10.322112      -280.8789
   4   2.0000     -10.318346      -280.7765
   5   2.0000     -10.301168      -280.3090
   6   2.0000     -10.301127      -280.3079
   7   2.0000     -10.297383      -280.2060
   8   2.0000     -10.293902      -280.1113
   9   2.0000     -10.290978      -280.0317
  10   2.0000     -10.290719      -280.0247
  11   2.0000     -10.290438      -280.0170
  12   2.0000     -10.287248      -279.9302
  13   2.0000     -10.286805      -279.9182
  14   2.0000     -10.286019      -279.8968
  15   2.0000     -10.285956      -279.8951
  16   2.0000      -8.081722      -219.9148
  17   2.0000      -8.076245      -219.7658
  18   2.0000      -6.040274      -164.3642
  19   2.0000      -6.036243      -164.2545
  20   2.0000      -6.034747      -164.2138
  21   2.0000      -6.032562      -164.1544
  22   2.0000      -6.030594      -164.1008
  23   2.0000      -6.026865      -163.9993
  24   2.0000      -1.016221       -27.6528
  25   2.0000      -0.987114       -26.8607
  26   2.0000      -0.917376       -24.9631
  27   2.0000      -0.911751       -24.8100
  28   2.0000      -0.873266       -23.7628
  29   2.0000      -0.854911       -23.2633
  30   2.0000      -0.846175       -23.0256
  31   2.0000      -0.815008       -22.1775
  32   2.0000      -0.785261       -21.3680
  33   2.0000      -0.770774       -20.9738
  34   2.0000      -0.704829       -19.1794
  35   2.0000      -0.699290       -19.0286
  36   2.0000      -0.694695       -18.9036
  37   2.0000      -0.659718       -17.9519
  38   2.0000      -0.638424       -17.3724
  39   2.0000      -0.624450       -16.9921
  40   2.0000      -0.605534       -16.4774
  41   2.0000      -0.568320       -15.4648
  42   2.0000      -0.558877       -15.2078
  43   2.0000      -0.551492       -15.0069
  44   2.0000      -0.541059       -14.7230
  45   2.0000      -0.533523       -14.5179
  46   2.0000      -0.523069       -14.2334
  47   2.0000      -0.516994       -14.0681
  48   2.0000      -0.502368       -13.6701
  49   2.0000      -0.499828       -13.6010
  50   2.0000      -0.489004       -13.3065
  51   2.0000      -0.480649       -13.0791
  52   2.0000      -0.472301       -12.8520
  53   2.0000      -0.461807       -12.5664
  54   2.0000      -0.455354       -12.3908
  55   2.0000      -0.450200       -12.2506
  56   2.0000      -0.442035       -12.0284
  57   2.0000      -0.438589       -11.9346
  58   2.0000      -0.435681       -11.8555
  59   2.0000      -0.423262       -11.5176
  60   2.0000      -0.417736       -11.3672
  61   2.0000      -0.412446       -11.2232
  62   2.0000      -0.410515       -11.1707
  63   2.0000      -0.351511        -9.5651
  64   2.0000      -0.331552        -9.0220
  65   2.0000      -0.327243        -8.9047
  66   2.0000      -0.290807        -7.9133
  67   0.0000       0.025795         0.7019
  68   0.0000       0.076912         2.0929
  69   0.0000       0.111127         3.0239
  70   0.0000       0.117909         3.2085
  71   0.0000       0.130703         3.5566

MULLIKEN ATOMIC CHARGES
-----------------------
   0 S :    0.100061
   1 C :   -0.128705
   2 C :   -0.135325
   3 C :    0.031036
   4 C :   -0.138944
   5 H :    0.006712
   6 C :    0.069132
   7 H :    0.006131
   8 H :    0.038396
   9 C :   -0.068037
  10 H :    0.022163
  11 H :    0.033943
  12 C :   -0.043150
  13 H :    0.034761
  14 H :    0.042464
  15 H :    0.041928
  16 S :    0.106508
  17 C :   -0.046818
  18 C :   -0.056644
  19 C :   -0.009557
  20 C :   -0.131608
  21 H :    0.015936
  22 C :    0.038286
  23 H :    0.045066
  24 H :    0.036588
  25 C :   -0.071081
  26 H :    0.032118
  27 H :    0.011274
  28 C :   -0.100312
  29 H :    0.054953
  30 H :    0.039254
  31 H :    0.035545
  32 H :    0.057167
  33 H :    0.030761
Sum of atomic charges:   -0.0000000

LOEWDIN ATOMIC CHARGES
----------------------
   0 S :    0.399029
   1 C :   -0.198696
   2 C :   -0.062194
   3 C :   -0.057501
   4 C :   -0.192873
   5 H :    0.035076
   6 C :   -0.039494
   7 H :    0.029560
   8 H :    0.035149
   9 C :   -0.043340
  10 H :    0.023450
  11 H :    0.027340
  12 C :   -0.067139
  13 H :    0.030602
  14 H :    0.032431
  15 H :    0.024840
  16 S :    0.418030
  17 C :   -0.197044
  18 C :   -0.057217
  19 C :   -0.070244
  20 C :   -0.184950
  21 H :    0.026930
  22 C :   -0.036247
  23 H :    0.036181
  24 H :    0.039802
  25 C :   -0.044020
  26 H :    0.028353
  27 H :    0.017120
  28 C :   -0.080518
  29 H :    0.035159
  30 H :    0.020294
  31 H :    0.028215
  32 H :    0.032256
  33 H :    0.011658

  Mayer bond orders larger than 0.100000
B(  0-S ,  1-C ) :   1.1460 B(  0-S ,  4-C ) :   1.1432 B(  1-C ,  2-C ) :   1.5727
B(  1-C , 32-H ) :   0.9667 B(  2-C ,  3-C ) :   1.2905 B(  2-C ,  6-C ) :   1.0222
B(  3-C ,  4-C ) :   1.5388 B(  3-C ,  5-H ) :   0.9788 B(  4-C , 20-C ) :   1.0413
B(  6-C ,  7-H ) :   0.9267 B(  6-C ,  8-H ) :   0.9454 B(  6-C ,  9-C ) :   1.0534
B(  9-C , 10-H ) :   0.9482 B(  9-C , 11-H ) :   0.9608 B(  9-C , 12-C ) :   1.0834
B( 12-C , 13-H ) :   0.9762 B( 12-C , 14-H ) :   0.9708 B( 12-C , 15-H ) :   0.9723
B( 16-S , 17-C ) :   1.1436 B( 16-S , 20-C ) :   1.1469 B( 17-C , 18-C ) :   1.6291
B( 17-C , 33-H ) :   0.9721 B( 18-C , 19-C ) :   1.2172 B( 18-C , 21-H ) :   0.9864
B( 19-C , 20-C ) :   1.6135 B( 19-C , 22-C ) :   1.0468 B( 22-C , 23-H ) :   0.9424
B( 22-C , 24-H ) :   0.9327 B( 22-C , 25-C ) :   1.0650 B( 25-C , 26-H ) :   0.9545
B( 25-C , 27-H ) :   0.9559 B( 25-C , 28-C ) :   1.0796 B( 28-C , 29-H ) :   0.9696
B( 28-C , 30-H ) :   0.9685 B( 28-C , 31-H ) :   0.9709

Dispersion correction           -0.014766311
FINAL SINGLE POINT ENERGY     -1339.869583511599

DIPOLE MOMENT
-------------
                                X             Y             Z
Electronic contribution:    -12.82285     -11.06937      23.82814
Nuclear contribution   :     12.95436      11.26524     -24.36667
                        -----------------------------------------
Total Dipole Moment    :      0.13150       0.19587      -0.53853
                        -----------------------------------------
Magnitude (a.u.)       :      0.58794
Magnitude (Debye)      :      1.49442

Rotational constants in cm-1:     0.018135     0.009493     0.007192
Rotational constants in MHz :   543.668479   284.592853   215.602541

                             ****ORCA TERMINATED NORMALLY****
TOTAL RUN TIME: 0 days 0 hours 0 minutes 22 seconds 786 msec
