                         Program Version 4.2.1 -  RELEASE  -
|  1> ! wB97X-D3 SP def2-SVP
|  2> %pal
|  3> nprocs 24
|  4> end
|  5>
|  6> * xyz 0 1
|  7> S 	 -57.8669 	 1.39056 	 -16.6446
|  8> C 	 -56.8342 	 1.46096 	 -15.2451
|  9> C 	 -56.5232 	 2.75731 	 -14.8522
| 10> C 	 -57.166 	 3.7128 	 -15.706
| 11> C 	 -57.8054 	 3.13296 	 -16.8161
| 12> H 	 -57.2613 	 4.78043 	 -15.7603
| 13> C 	 -55.7923 	 3.13896 	 -13.5616
| 14> H 	 -55.0156 	 3.85429 	 -13.8948
| 15> H 	 -55.3818 	 2.22257 	 -13.2287
| 16> C 	 -56.7609 	 3.6455 	 -12.5068
| 17> H 	 -57.0541 	 4.62945 	 -12.7176
| 18> H 	 -57.5219 	 2.90568 	 -12.4184
| 19> C 	 -56.0435 	 3.62704 	 -11.1756
| 20> H 	 -55.1305 	 4.19835 	 -11.1063
| 21> H 	 -56.6759 	 4.04506 	 -10.3804
| 22> H 	 -55.6534 	 2.6349 	 -10.8361
| 23> S 	 -57.878 	 5.26877 	 -18.615
| 24> C 	 -59.0422 	 5.37927 	 -19.8746
| 25> C 	 -59.9701 	 4.36171 	 -19.7574
| 26> C 	 -59.7998 	 3.53567 	 -18.6198
| 27> C 	 -58.6446 	 3.83168 	 -17.8688
| 28> H 	 -60.7683 	 4.35484 	 -20.5139
| 29> C 	 -60.6078 	 2.31888 	 -18.407
| 30> H 	 -61.6508 	 2.65086 	 -18.53
| 31> H 	 -60.4725 	 2.11351 	 -17.3815
| 32> C 	 -60.3522 	 1.03921 	 -19.2753
| 33> H 	 -60.9062 	 0.176731 	 -18.8563
| 34> H 	 -59.3099 	 0.759086 	 -19.19
| 35> C 	 -60.7167 	 1.20337 	 -20.7118
| 36> H 	 -61.7576 	 1.5268 	 -20.8698
| 37> H 	 -60.4595 	 0.372874 	 -21.3399
| 38> H 	 -60.2192 	 2.05154 	 -21.1429
| 39> H 	 -56.6616 	 0.587644 	 -14.6116
| 40> H 	 -59.1278 	 6.18163 	 -20.6429
| 41> *
| 42>
| 43>                          ****END OF INPUT****

CARTESIAN COORDINATES (ANGSTROEM)
---------------------------------
  S    -57.866900    1.390560  -16.644600
  C    -56.834200    1.460960  -15.245100
  C    -56.523200    2.757310  -14.852200
  C    -57.166000    3.712800  -15.706000
  C    -57.805400    3.132960  -16.816100
  H    -57.261300    4.780430  -15.760300
  C    -55.792300    3.138960  -13.561600
  H    -55.015600    3.854290  -13.894800
  H    -55.381800    2.222570  -13.228700
  C    -56.760900    3.645500  -12.506800
  H    -57.054100    4.629450  -12.717600
  H    -57.521900    2.905680  -12.418400
  C    -56.043500    3.627040  -11.175600
  H    -55.130500    4.198350  -11.106300
  H    -56.675900    4.045060  -10.380400
  H    -55.653400    2.634900  -10.836100
  S    -57.878000    5.268770  -18.615000
  C    -59.042200    5.379270  -19.874600
  C    -59.970100    4.361710  -19.757400
  C    -59.799800    3.535670  -18.619800
  C    -58.644600    3.831680  -17.868800
  H    -60.768300    4.354840  -20.513900
  C    -60.607800    2.318880  -18.407000
  H    -61.650800    2.650860  -18.530000
  H    -60.472500    2.113510  -17.381500
  C    -60.352200    1.039210  -19.275300
  H    -60.906200    0.176731  -18.856300
  H    -59.309900    0.759086  -19.190000
  C    -60.716700    1.203370  -20.711800
  H    -61.757600    1.526800  -20.869800
  H    -60.459500    0.372874  -21.339900
  H    -60.219200    2.051540  -21.142900
  H    -56.661600    0.587644  -14.611600
  H    -59.127800    6.181630  -20.642900

 Total Charge           Charge          ....    0
 Multiplicity           Mult            ....    1
 Number of Electrons    NEL             ....  134
 Basis Dimension        Dim             ....  322

ORBITAL ENERGIES
----------------

  NO   OCC          E(Eh)            E(eV)
   0   2.0000     -88.969417     -2420.9809
   1   2.0000     -88.964590     -2420.8496
   2   2.0000     -10.337490      -281.2974
   3   2.0000     -10.336411      -281.2681
   4   2.0000     -10.319811      -280.8163
   5   2.0000     -10.315768      -280.7063
   6   2.0000     -10.306028      -280.4413
   7   2.0000     -10.304062      -280.3878
   8   2.0000     -10.297635      -280.2129
   9   2.0000     -10.293875      -280.1106
  10   2.0000     -10.291456      -280.0448
  11   2.0000     -10.285257      -279.8761
  12   2.0000     -10.283913      -279.8395
  13   2.0000     -10.281933      -279.7856
  14   2.0000     -10.277549      -279.6663
  15   2.0000     -10.268382      -279.4169
  16   2.0000      -8.083601      -219.9660
  17   2.0000      -8.079140      -219.8446
  18   2.0000      -6.042028      -164.4120
  19   2.0000      -6.038163      -164.3068
  20   2.0000      -6.037614      -164.2918
  21   2.0000      -6.034522      -164.2077
  22   2.0000      -6.033472      -164.1791
  23   2.0000      -6.030150      -164.0887
  24   2.0000      -1.003487       -27.3063
  25   2.0000      -0.985340       -26.8125
  26   2.0000      -0.920492       -25.0478
  27   2.0000      -0.910447       -24.7745
  28   2.0000      -0.866424       -23.5766
  29   2.0000      -0.853587       -23.2273
  30   2.0000      -0.849041       -23.1036
  31   2.0000      -0.814665       -22.1681
  32   2.0000      -0.782739       -21.2994
  33   2.0000      -0.771189       -20.9851
  34   2.0000      -0.710166       -19.3246
  35   2.0000      -0.702538       -19.1170
  36   2.0000      -0.688422       -18.7329
  37   2.0000      -0.666203       -18.1283
  38   2.0000      -0.639786       -17.4095
  39   2.0000      -0.615037       -16.7360
  40   2.0000      -0.588402       -16.0112
  41   2.0000      -0.583088       -15.8666
  42   2.0000      -0.565829       -15.3970
  43   2.0000      -0.554612       -15.0918
  44   2.0000      -0.544826       -14.8255
  45   2.0000      -0.527298       -14.3485
  46   2.0000      -0.517530       -14.0827
  47   2.0000      -0.511499       -13.9186
  48   2.0000      -0.506035       -13.7699
  49   2.0000      -0.492290       -13.3959
  50   2.0000      -0.486226       -13.2309
  51   2.0000      -0.483490       -13.1564
  52   2.0000      -0.474299       -12.9063
  53   2.0000      -0.464803       -12.6479
  54   2.0000      -0.460483       -12.5304
  55   2.0000      -0.444024       -12.0825
  56   2.0000      -0.440367       -11.9830
  57   2.0000      -0.437212       -11.8972
  58   2.0000      -0.436443       -11.8762
  59   2.0000      -0.431785       -11.7495
  60   2.0000      -0.423860       -11.5338
  61   2.0000      -0.415873       -11.3165
  62   2.0000      -0.408154       -11.1064
  63   2.0000      -0.351165        -9.5557
  64   2.0000      -0.331796        -9.0286
  65   2.0000      -0.329635        -8.9698
  66   2.0000      -0.289324        -7.8729
  67   0.0000       0.022979         0.6253
  68   0.0000       0.075215         2.0467
  69   0.0000       0.108161         2.9432
  70   0.0000       0.120711         3.2847
  71   0.0000       0.129715         3.5297

MULLIKEN ATOMIC CHARGES
-----------------------
   0 S :    0.097698
   1 C :   -0.119068
   2 C :   -0.095986
   3 C :    0.018826
   4 C :   -0.132071
   5 H :    0.008079
   6 C :    0.082809
   7 H :    0.046325
   8 H :   -0.000554
   9 C :    0.002969
  10 H :    0.027396
  11 H :    0.028668
  12 C :   -0.071079
  13 H :    0.016492
  14 H :    0.034270
  15 H :    0.026258
  16 S :    0.088358
  17 C :   -0.100152
  18 C :   -0.056720
  19 C :   -0.057108
  20 C :   -0.144616
  21 H :    0.026427
  22 C :    0.045019
  23 H :    0.024716
  24 H :    0.013474
  25 C :   -0.023364
  26 H :    0.033900
  27 H :    0.023287
  28 C :   -0.039770
  29 H :    0.017021
  30 H :    0.034305
  31 H :    0.016230
  32 H :    0.055400
  33 H :    0.072563
Sum of atomic charges:   -0.0000000

LOEWDIN ATOMIC CHARGES
----------------------
   0 S :    0.421478
   1 C :   -0.208492
   2 C :   -0.059002
   3 C :   -0.065556
   4 C :   -0.189876
   5 H :    0.027232
   6 C :   -0.021346
   7 H :    0.038033
   8 H :    0.021863
   9 C :   -0.024849
  10 H :    0.021989
  11 H :    0.028463
  12 C :   -0.071713
  13 H :    0.020324
  14 H :    0.026192
  15 H :    0.026292
  16 S :    0.404417
  17 C :   -0.199328
  18 C :   -0.081873
  19 C :   -0.063259
  20 C :   -0.185770
  21 H :    0.034701
  22 C :   -0.038355
  23 H :    0.033943
  24 H :    0.017816
  25 C :   -0.034188
  26 H :    0.029293
  27 H :    0.018062
  28 C :   -0.070361
  29 H :    0.024501
  30 H :    0.026205
  31 H :    0.022076
  32 H :    0.029610
  33 H :    0.041478

  Mayer bond orders larger than 0.100000
B(  0-S ,  1-C ) :   1.1471 B(  0-S ,  4-C ) :   1.1540 B(  1-C ,  2-C ) :   1.6069
B(  1-C , 32-H ) :   0.9622 B(  2-C ,  3-C ) :   1.2219 B(  2-C ,  6-C ) :   1.0250
B(  3-C ,  4-C ) :   1.5757 B(  3-C ,  5-H ) :   0.9923 B(  4-C , 20-C ) :   1.0150
B(  6-C ,  7-H ) :   0.9323 B(  6-C ,  8-H ) :   0.9389 B(  6-C ,  9-C ) :   1.0778
B(  9-C , 10-H ) :   0.9496 B(  9-C , 11-H ) :   0.9526 B(  9-C , 12-C ) :   1.0936
B( 12-C , 13-H ) :   0.9701 B( 12-C , 14-H ) :   0.9736 B( 12-C , 15-H ) :   0.9739
B( 16-S , 17-C ) :   1.1713 B( 16-S , 20-C ) :   1.1411 B( 17-C , 18-C ) :   1.5913
B( 17-C , 33-H ) :   0.9589 B( 18-C , 19-C ) :   1.2553 B( 18-C , 21-H ) :   0.9858
B( 19-C , 20-C ) :   1.5603 B( 19-C , 22-C ) :   1.0569 B( 22-C , 23-H ) :   0.9288
B( 22-C , 24-H ) :   0.9280 B( 22-C , 25-C ) :   1.0625 B( 25-C , 26-H ) :   0.9530
B( 25-C , 27-H ) :   0.9488 B( 25-C , 28-C ) :   1.0904 B( 28-C , 29-H ) :   0.9714
B( 28-C , 30-H ) :   0.9692 B( 28-C , 31-H ) :   0.9659

Dispersion correction           -0.014283784
FINAL SINGLE POINT ENERGY     -1339.875361368122

DIPOLE MOMENT
-------------
                                X             Y             Z
Electronic contribution:      3.24178       5.80299     -10.52576
Nuclear contribution   :     -3.39801      -5.80565      10.77564
                        -----------------------------------------
Total Dipole Moment    :     -0.15624      -0.00266       0.24987
                        -----------------------------------------
Magnitude (a.u.)       :      0.29471
Magnitude (Debye)      :      0.74909

Rotational constants in cm-1:     0.025297     0.007242     0.006049
Rotational constants in MHz :   758.398849   217.114370   181.342207

                             ****ORCA TERMINATED NORMALLY****
TOTAL RUN TIME: 0 days 0 hours 0 minutes 21 seconds 346 msec
