                         Program Version 4.2.1 -  RELEASE  -
|  1> ! wB97X-D3 SP def2-SVP
|  2> %pal
|  3> nprocs 24
|  4> end
|  5>
|  6> * xyz 0 1
|  7> S 	 -136.702 	 68.7597 	 -53.3467
|  8> C 	 -136.032 	 68.9677 	 -54.988
|  9> C 	 -135.143 	 70.0355 	 -55.0937
| 10> C 	 -134.961 	 70.6609 	 -53.8106
| 11> C 	 -135.749 	 70.14 	 -52.7647
| 12> H 	 -134.315 	 71.5166 	 -53.531
| 13> C 	 -134.156 	 70.179 	 -56.2605
| 14> H 	 -133.933 	 71.1547 	 -56.6592
| 15> H 	 -134.635 	 69.5066 	 -57.061
| 16> C 	 -132.742 	 69.5293 	 -55.9607
| 17> H 	 -132.837 	 68.5695 	 -55.2957
| 18> H 	 -132.151 	 69.1825 	 -56.8013
| 19> C 	 -131.792 	 70.495 	 -55.2314
| 20> H 	 -130.862 	 70.0036 	 -55.2676
| 21> H 	 -131.797 	 71.4461 	 -55.7856
| 22> H 	 -132.208 	 70.6415 	 -54.2249
| 23> S 	 -133.961 	 70.9746 	 -50.8284
| 24> C 	 -134.553 	 71.2655 	 -49.2518
| 25> C 	 -135.923 	 71.0358 	 -49.1199
| 26> C 	 -136.603 	 70.6688 	 -50.3158
| 27> C 	 -135.65 	 70.554 	 -51.3446
| 28> H 	 -136.362 	 71.2058 	 -48.1478
| 29> C 	 -138.081 	 70.5451 	 -50.4807
| 30> H 	 -138.47 	 70.6645 	 -49.4595
| 31> H 	 -138.353 	 69.5431 	 -50.8249
| 32> C 	 -138.782 	 71.607 	 -51.3154
| 33> H 	 -138.545 	 71.6952 	 -52.3915
| 34> H 	 -138.675 	 72.6119 	 -50.8123
| 35> C 	 -140.34 	 71.4908 	 -51.4051
| 36> H 	 -140.615 	 70.5874 	 -51.91
| 37> H 	 -140.794 	 72.2829 	 -52.0224
| 38> H 	 -140.91 	 71.4996 	 -50.4475
| 39> H 	 -136.198 	 68.2295 	 -55.7326
| 40> H 	 -133.9 	 71.6878 	 -48.4804
| 41> *
| 42>
| 43>                          ****END OF INPUT****

CARTESIAN COORDINATES (ANGSTROEM)
---------------------------------
  S    -136.702000   68.759700  -53.346700
  C    -136.032000   68.967700  -54.988000
  C    -135.143000   70.035500  -55.093700
  C    -134.961000   70.660900  -53.810600
  C    -135.749000   70.140000  -52.764700
  H    -134.315000   71.516600  -53.531000
  C    -134.156000   70.179000  -56.260500
  H    -133.933000   71.154700  -56.659200
  H    -134.635000   69.506600  -57.061000
  C    -132.742000   69.529300  -55.960700
  H    -132.837000   68.569500  -55.295700
  H    -132.151000   69.182500  -56.801300
  C    -131.792000   70.495000  -55.231400
  H    -130.862000   70.003600  -55.267600
  H    -131.797000   71.446100  -55.785600
  H    -132.208000   70.641500  -54.224900
  S    -133.961000   70.974600  -50.828400
  C    -134.553000   71.265500  -49.251800
  C    -135.923000   71.035800  -49.119900
  C    -136.603000   70.668800  -50.315800
  C    -135.650000   70.554000  -51.344600
  H    -136.362000   71.205800  -48.147800
  C    -138.081000   70.545100  -50.480700
  H    -138.470000   70.664500  -49.459500
  H    -138.353000   69.543100  -50.824900
  C    -138.782000   71.607000  -51.315400
  H    -138.545000   71.695200  -52.391500
  H    -138.675000   72.611900  -50.812300
  C    -140.340000   71.490800  -51.405100
  H    -140.615000   70.587400  -51.910000
  H    -140.794000   72.282900  -52.022400
  H    -140.910000   71.499600  -50.447500
  H    -136.198000   68.229500  -55.732600
  H    -133.900000   71.687800  -48.480400

 Total Charge           Charge          ....    0
 Multiplicity           Mult            ....    1
 Number of Electrons    NEL             ....  134
 Basis Dimension        Dim             ....  322

ORBITAL ENERGIES
----------------

  NO   OCC          E(Eh)            E(eV)
   0   2.0000     -88.971064     -2421.0257
   1   2.0000     -88.970248     -2421.0035
   2   2.0000     -10.335981      -281.2563
   3   2.0000     -10.334490      -281.2158
   4   2.0000     -10.318703      -280.7862
   5   2.0000     -10.317703      -280.7590
   6   2.0000     -10.310613      -280.5661
   7   2.0000     -10.308971      -280.5214
   8   2.0000     -10.304880      -280.4100
   9   2.0000     -10.299576      -280.2657
  10   2.0000     -10.297471      -280.2084
  11   2.0000     -10.296459      -280.1809
  12   2.0000     -10.291909      -280.0571
  13   2.0000     -10.291822      -280.0547
  14   2.0000     -10.276925      -279.6493
  15   2.0000     -10.272515      -279.5293
  16   2.0000      -8.084533      -219.9913
  17   2.0000      -8.084415      -219.9881
  18   2.0000      -6.042985      -164.4380
  19   2.0000      -6.042860      -164.4346
  20   2.0000      -6.039208      -164.3352
  21   2.0000      -6.039158      -164.3338
  22   2.0000      -6.035421      -164.2321
  23   2.0000      -6.035180      -164.2256
  24   2.0000      -0.999896       -27.2085
  25   2.0000      -0.978468       -26.6255
  26   2.0000      -0.910657       -24.7802
  27   2.0000      -0.903610       -24.5885
  28   2.0000      -0.863892       -23.5077
  29   2.0000      -0.854672       -23.2568
  30   2.0000      -0.843402       -22.9501
  31   2.0000      -0.807386       -21.9701
  32   2.0000      -0.786620       -21.4050
  33   2.0000      -0.768961       -20.9245
  34   2.0000      -0.703476       -19.1426
  35   2.0000      -0.688213       -18.7272
  36   2.0000      -0.686710       -18.6863
  37   2.0000      -0.667108       -18.1529
  38   2.0000      -0.636466       -17.3191
  39   2.0000      -0.611409       -16.6373
  40   2.0000      -0.596621       -16.2349
  41   2.0000      -0.570790       -15.5320
  42   2.0000      -0.566975       -15.4282
  43   2.0000      -0.551521       -15.0076
  44   2.0000      -0.532947       -14.5022
  45   2.0000      -0.519477       -14.1357
  46   2.0000      -0.515271       -14.0212
  47   2.0000      -0.510503       -13.8915
  48   2.0000      -0.509868       -13.8742
  49   2.0000      -0.496678       -13.5153
  50   2.0000      -0.481401       -13.0996
  51   2.0000      -0.477114       -12.9829
  52   2.0000      -0.473296       -12.8790
  53   2.0000      -0.459464       -12.5027
  54   2.0000      -0.458835       -12.4855
  55   2.0000      -0.449333       -12.2270
  56   2.0000      -0.443160       -12.0590
  57   2.0000      -0.437219       -11.8973
  58   2.0000      -0.431858       -11.7515
  59   2.0000      -0.422145       -11.4872
  60   2.0000      -0.417074       -11.3492
  61   2.0000      -0.415082       -11.2949
  62   2.0000      -0.406833       -11.0705
  63   2.0000      -0.348230        -9.4758
  64   2.0000      -0.337486        -9.1835
  65   2.0000      -0.333553        -9.0764
  66   2.0000      -0.283893        -7.7251
  67   0.0000       0.018972         0.5162
  68   0.0000       0.069931         1.9029
  69   0.0000       0.096013         2.6126
  70   0.0000       0.108639         2.9562
  71   0.0000       0.126139         3.4324

MULLIKEN ATOMIC CHARGES
-----------------------
   0 S :    0.100556
   1 C :   -0.125879
   2 C :   -0.026537
   3 C :   -0.033809
   4 C :   -0.130188
   5 H :    0.036818
   6 C :    0.043882
   7 H :    0.032747
   8 H :    0.037446
   9 C :   -0.133931
  10 H :    0.043489
  11 H :    0.030423
  12 C :   -0.036068
  13 H :    0.032137
  14 H :    0.028500
  15 H :    0.036929
  16 S :    0.105626
  17 C :   -0.101813
  18 C :   -0.041694
  19 C :   -0.017346
  20 C :   -0.165127
  21 H :    0.013517
  22 C :    0.098263
  23 H :    0.016233
  24 H :    0.034422
  25 C :   -0.090169
  26 H :    0.051745
  27 H :    0.037882
  28 C :   -0.077279
  29 H :    0.021634
  30 H :    0.036347
  31 H :    0.029760
  32 H :    0.045621
  33 H :    0.065864
Sum of atomic charges:   -0.0000000

LOEWDIN ATOMIC CHARGES
----------------------
   0 S :    0.384089
   1 C :   -0.176862
   2 C :   -0.060627
   3 C :   -0.078342
   4 C :   -0.187800
   5 H :    0.030151
   6 C :   -0.030500
   7 H :    0.025646
   8 H :    0.040228
   9 C :   -0.048186
  10 H :    0.033143
  11 H :    0.019634
  12 C :   -0.063196
  13 H :    0.021597
  14 H :    0.023151
  15 H :    0.024506
  16 S :    0.408670
  17 C :   -0.201004
  18 C :   -0.071843
  19 C :   -0.054497
  20 C :   -0.170513
  21 H :    0.029523
  22 C :   -0.035461
  23 H :    0.037412
  24 H :    0.031044
  25 C :   -0.042701
  26 H :    0.032254
  27 H :    0.031830
  28 C :   -0.073300
  29 H :    0.017177
  30 H :    0.029695
  31 H :    0.022899
  32 H :    0.020094
  33 H :    0.032091

  Mayer bond orders larger than 0.100000
B(  0-S ,  1-C ) :   1.1388 B(  0-S ,  4-C ) :   1.1327 B(  1-C ,  2-C ) :   1.6068
B(  1-C , 32-H ) :   0.9678 B(  2-C ,  3-C ) :   1.2243 B(  2-C ,  6-C ) :   1.0402
B(  3-C ,  4-C ) :   1.5755 B(  3-C ,  5-H ) :   0.9753 B(  4-C , 20-C ) :   1.0684
B(  6-C ,  7-H ) :   0.9477 B(  6-C ,  8-H ) :   0.9434 B(  6-C ,  9-C ) :   1.0369
B(  9-C , 10-H ) :   0.9575 B(  9-C , 11-H ) :   0.9644 B(  9-C , 12-C ) :   1.0732
B( 12-C , 13-H ) :   0.9739 B( 12-C , 14-H ) :   0.9760 B( 12-C , 15-H ) :   0.9723
B( 16-S , 17-C ) :   1.1638 B( 16-S , 20-C ) :   1.1435 B( 17-C , 18-C ) :   1.5968
B( 17-C , 33-H ) :   0.9639 B( 18-C , 19-C ) :   1.2505 B( 18-C , 21-H ) :   0.9891
B( 19-C , 20-C ) :   1.5527 B( 19-C , 22-C ) :   1.0501 B( 22-C , 23-H ) :   0.9246
B( 22-C , 24-H ) :   0.9264 B( 22-C , 25-C ) :   1.0659 B( 25-C , 26-H ) :   0.9562
B( 25-C , 27-H ) :   0.9563 B( 25-C , 28-C ) :   1.0769 B( 28-C , 29-H ) :   0.9752
B( 28-C , 30-H ) :   0.9761 B( 28-C , 31-H ) :   0.9756

Dispersion correction           -0.014641079
FINAL SINGLE POINT ENERGY     -1339.872395931127

DIPOLE MOMENT
-------------
                                X             Y             Z
Electronic contribution:      3.65795      -5.14840       8.45201
Nuclear contribution   :     -3.61506       5.25929      -8.48832
                        -----------------------------------------
Total Dipole Moment    :      0.04289       0.11089      -0.03631
                        -----------------------------------------
Magnitude (a.u.)       :      0.12432
Magnitude (Debye)      :      0.31599

Rotational constants in cm-1:     0.019254     0.009171     0.006843
Rotational constants in MHz :   577.233663   274.928357   205.141081

                             ****ORCA TERMINATED NORMALLY****
TOTAL RUN TIME: 0 days 0 hours 0 minutes 20 seconds 363 msec
