                         Program Version 4.2.1 -  RELEASE  -
|  1> ! wB97X-D3 SP def2-SVP
|  2> %pal
|  3> nprocs 24
|  4> end
|  5>
|  6> * xyz 0 1
|  7> S 	 -141.085 	 4.21001 	 14.7239
|  8> C 	 -141.128 	 3.52034 	 13.0937
|  9> C 	 -142.25 	 3.94051 	 12.3454
| 10> C 	 -143.154 	 4.65836 	 13.1544
| 11> C 	 -142.769 	 4.74164 	 14.4613
| 12> H 	 -144.11 	 5.02959 	 12.8229
| 13> C 	 -142.473 	 3.76521 	 10.8666
| 14> H 	 -143.594 	 3.75466 	 10.718
| 15> H 	 -141.987 	 2.85571 	 10.4877
| 16> C 	 -141.948 	 4.95704 	 9.97533
| 17> H 	 -142.432 	 5.84717 	 10.4016
| 18> H 	 -140.898 	 5.01622 	 10.1464
| 19> C 	 -142.32 	 4.70904 	 8.5348
| 20> H 	 -141.898 	 5.5403 	 7.93653
| 21> H 	 -141.705 	 3.84742 	 8.12902
| 22> H 	 -143.417 	 4.6193 	 8.43434
| 23> S 	 -142.89 	 6.70528 	 16.3006
| 24> C 	 -144.34 	 7.03434 	 17.1984
| 25> C 	 -145.255 	 6.07493 	 16.9129
| 26> C 	 -144.913 	 5.24938 	 15.7707
| 27> C 	 -143.611 	 5.37055 	 15.4845
| 28> H 	 -146.196 	 6.07946 	 17.4273
| 29> C 	 -145.775 	 4.17959 	 15.1442
| 30> H 	 -146.347 	 3.69262 	 15.8856
| 31> H 	 -145.105 	 3.47235 	 14.7139
| 32> C 	 -146.671 	 4.70338 	 14.0555
| 33> H 	 -146.13 	 5.12919 	 13.1896
| 34> H 	 -147.375 	 5.49184 	 14.3833
| 35> C 	 -147.622 	 3.60264 	 13.5499
| 36> H 	 -147.945 	 3.05229 	 14.4084
| 37> H 	 -147.109 	 3.00415 	 12.7964
| 38> H 	 -148.453 	 3.98739 	 12.9893
| 39> H 	 -140.367 	 2.96556 	 12.6439
| 40> H 	 -144.485 	 7.75679 	 18.0082
| 41> *
| 42>
| 43>                          ****END OF INPUT****

CARTESIAN COORDINATES (ANGSTROEM)
---------------------------------
  S    -141.085000    4.210010   14.723900
  C    -141.128000    3.520340   13.093700
  C    -142.250000    3.940510   12.345400
  C    -143.154000    4.658360   13.154400
  C    -142.769000    4.741640   14.461300
  H    -144.110000    5.029590   12.822900
  C    -142.473000    3.765210   10.866600
  H    -143.594000    3.754660   10.718000
  H    -141.987000    2.855710   10.487700
  C    -141.948000    4.957040    9.975330
  H    -142.432000    5.847170   10.401600
  H    -140.898000    5.016220   10.146400
  C    -142.320000    4.709040    8.534800
  H    -141.898000    5.540300    7.936530
  H    -141.705000    3.847420    8.129020
  H    -143.417000    4.619300    8.434340
  S    -142.890000    6.705280   16.300600
  C    -144.340000    7.034340   17.198400
  C    -145.255000    6.074930   16.912900
  C    -144.913000    5.249380   15.770700
  C    -143.611000    5.370550   15.484500
  H    -146.196000    6.079460   17.427300
  C    -145.775000    4.179590   15.144200
  H    -146.347000    3.692620   15.885600
  H    -145.105000    3.472350   14.713900
  C    -146.671000    4.703380   14.055500
  H    -146.130000    5.129190   13.189600
  H    -147.375000    5.491840   14.383300
  C    -147.622000    3.602640   13.549900
  H    -147.945000    3.052290   14.408400
  H    -147.109000    3.004150   12.796400
  H    -148.453000    3.987390   12.989300
  H    -140.367000    2.965560   12.643900
  H    -144.485000    7.756790   18.008200

 Total Charge           Charge          ....    0
 Multiplicity           Mult            ....    1
 Number of Electrons    NEL             ....  134
 Basis Dimension        Dim             ....  322

ORBITAL ENERGIES
----------------

  NO   OCC          E(Eh)            E(eV)
   0   2.0000     -88.972971     -2421.0776
   1   2.0000     -88.957599     -2420.6593
   2   2.0000     -10.329554      -281.0815
   3   2.0000     -10.317058      -280.7414
   4   2.0000     -10.314117      -280.6614
   5   2.0000     -10.311985      -280.6034
   6   2.0000     -10.301545      -280.3193
   7   2.0000     -10.297858      -280.2190
   8   2.0000     -10.295681      -280.1597
   9   2.0000     -10.290551      -280.0201
  10   2.0000     -10.289675      -279.9963
  11   2.0000     -10.287925      -279.9487
  12   2.0000     -10.286355      -279.9060
  13   2.0000     -10.286154      -279.9005
  14   2.0000     -10.282873      -279.8112
  15   2.0000     -10.272648      -279.5330
  16   2.0000      -8.086425      -220.0428
  17   2.0000      -8.073601      -219.6939
  18   2.0000      -6.044993      -164.4926
  19   2.0000      -6.041385      -164.3945
  20   2.0000      -6.036942      -164.2735
  21   2.0000      -6.032200      -164.1445
  22   2.0000      -6.027920      -164.0280
  23   2.0000      -6.024192      -163.9266
  24   2.0000      -1.012309       -27.5463
  25   2.0000      -0.984991       -26.8030
  26   2.0000      -0.916378       -24.9359
  27   2.0000      -0.911291       -24.7975
  28   2.0000      -0.870940       -23.6995
  29   2.0000      -0.856089       -23.2954
  30   2.0000      -0.848066       -23.0770
  31   2.0000      -0.816169       -22.2091
  32   2.0000      -0.780847       -21.2479
  33   2.0000      -0.769521       -20.9397
  34   2.0000      -0.703394       -19.1403
  35   2.0000      -0.697140       -18.9702
  36   2.0000      -0.695937       -18.9374
  37   2.0000      -0.665231       -18.1019
  38   2.0000      -0.640396       -17.4260
  39   2.0000      -0.623358       -16.9624
  40   2.0000      -0.597151       -16.2493
  41   2.0000      -0.577906       -15.7256
  42   2.0000      -0.573567       -15.6076
  43   2.0000      -0.559115       -15.2143
  44   2.0000      -0.529583       -14.4107
  45   2.0000      -0.521984       -14.2039
  46   2.0000      -0.517742       -14.0885
  47   2.0000      -0.512244       -13.9389
  48   2.0000      -0.509660       -13.8685
  49   2.0000      -0.501466       -13.6456
  50   2.0000      -0.494230       -13.4487
  51   2.0000      -0.476138       -12.9564
  52   2.0000      -0.473604       -12.8874
  53   2.0000      -0.464249       -12.6329
  54   2.0000      -0.460129       -12.5208
  55   2.0000      -0.449573       -12.2335
  56   2.0000      -0.447144       -12.1674
  57   2.0000      -0.440267       -11.9803
  58   2.0000      -0.435194       -11.8422
  59   2.0000      -0.431883       -11.7521
  60   2.0000      -0.419241       -11.4081
  61   2.0000      -0.416438       -11.3318
  62   2.0000      -0.412070       -11.2130
  63   2.0000      -0.349274        -9.5042
  64   2.0000      -0.332118        -9.0374
  65   2.0000      -0.326395        -8.8817
  66   2.0000      -0.292095        -7.9483
  67   0.0000       0.031470         0.8564
  68   0.0000       0.069236         1.8840
  69   0.0000       0.107488         2.9249
  70   0.0000       0.121141         3.2964
  71   0.0000       0.126949         3.4545

MULLIKEN ATOMIC CHARGES
-----------------------
   0 S :    0.121415
   1 C :   -0.093491
   2 C :   -0.061023
   3 C :    0.033726
   4 C :   -0.135140
   5 H :   -0.013178
   6 C :    0.017677
   7 H :    0.026749
   8 H :    0.024587
   9 C :   -0.067292
  10 H :    0.029078
  11 H :    0.023176
  12 C :   -0.045029
  13 H :    0.039273
  14 H :    0.037528
  15 H :    0.045921
  16 S :    0.089825
  17 C :   -0.086856
  18 C :   -0.022136
  19 C :   -0.060406
  20 C :   -0.135679
  21 H :    0.009235
  22 C :    0.104105
  23 H :    0.008385
  24 H :    0.027527
  25 C :   -0.117700
  26 H :    0.030620
  27 H :    0.029596
  28 C :   -0.020120
  29 H :    0.027450
  30 H :    0.026682
  31 H :    0.025372
  32 H :    0.019306
  33 H :    0.060819
Sum of atomic charges:   -0.0000000

LOEWDIN ATOMIC CHARGES
----------------------
   0 S :    0.388271
   1 C :   -0.183733
   2 C :   -0.059318
   3 C :   -0.056813
   4 C :   -0.179984
   5 H :    0.027387
   6 C :   -0.034939
   7 H :    0.031509
   8 H :    0.028082
   9 C :   -0.036875
  10 H :    0.024260
  11 H :    0.018972
  12 C :   -0.071646
  13 H :    0.031046
  14 H :    0.033426
  15 H :    0.030102
  16 S :    0.405539
  17 C :   -0.192031
  18 C :   -0.067657
  19 C :   -0.059248
  20 C :   -0.197109
  21 H :    0.026723
  22 C :   -0.022779
  23 H :    0.025420
  24 H :    0.031033
  25 C :   -0.042033
  26 H :    0.020163
  27 H :    0.025160
  28 C :   -0.060289
  29 H :    0.021472
  30 H :    0.024001
  31 H :    0.022643
  32 H :    0.013190
  33 H :    0.036057

  Mayer bond orders larger than 0.100000
B(  0-S ,  1-C ) :   1.1272 B(  0-S ,  4-C ) :   1.1363 B(  1-C ,  2-C ) :   1.6054
B(  1-C , 32-H ) :   0.9733 B(  2-C ,  3-C ) :   1.2380 B(  2-C ,  6-C ) :   1.0362
B(  3-C ,  4-C ) :   1.5731 B(  3-C ,  5-H ) :   0.9924 B(  4-C , 20-C ) :   1.0150
B(  6-C ,  7-H ) :   0.9410 B(  6-C ,  8-H ) :   0.9403 B(  6-C ,  9-C ) :   1.0552
B(  9-C , 10-H ) :   0.9551 B(  9-C , 11-H ) :   0.9544 B(  9-C , 12-C ) :   1.0882
B( 12-C , 13-H ) :   0.9707 B( 12-C , 14-H ) :   0.9702 B( 12-C , 15-H ) :   0.9722
B( 16-S , 17-C ) :   1.1352 B( 16-S , 20-C ) :   1.1363 B( 17-C , 18-C ) :   1.6517
B( 17-C , 33-H ) :   0.9641 B( 18-C , 19-C ) :   1.1946 B( 18-C , 21-H ) :   0.9891
B( 19-C , 20-C ) :   1.6566 B( 19-C , 22-C ) :   1.0480 B( 22-C , 23-H ) :   0.9298
B( 22-C , 24-H ) :   0.9327 B( 22-C , 25-C ) :   1.0659 B( 25-C , 26-H ) :   0.9488
B( 25-C , 27-H ) :   0.9564 B( 25-C , 28-C ) :   1.0813 B( 28-C , 29-H ) :   0.9734
B( 28-C , 30-H ) :   0.9757 B( 28-C , 31-H ) :   0.9751

Dispersion correction           -0.014195016
FINAL SINGLE POINT ENERGY     -1339.877204174430

DIPOLE MOMENT
-------------
                                X             Y             Z
Electronic contribution:     16.34362       6.79660      24.76418
Nuclear contribution   :    -16.79265      -6.88929     -25.24998
                        -----------------------------------------
Total Dipole Moment    :     -0.44904      -0.09269      -0.48580
                        -----------------------------------------
Magnitude (a.u.)       :      0.66800
Magnitude (Debye)      :      1.69793

Rotational constants in cm-1:     0.017237     0.009054     0.006851
Rotational constants in MHz :   516.743617   271.444936   205.388236

                             ****ORCA TERMINATED NORMALLY****
TOTAL RUN TIME: 0 days 0 hours 0 minutes 20 seconds 914 msec
