                         Program Version 4.2.1 -  RELEASE  -
|  1> ! wB97X-D3 SP def2-SVP
|  2> %pal
|  3> nprocs 24
|  4> end
|  5>
|  6> * xyz 0 1
|  7> S 	 -57.572 	 -1.46976 	 -29.835
|  8> C 	 -57.9632 	 -2.44862 	 -28.3613
|  9> C 	 -57.2305 	 -2.08249 	 -27.2363
| 10> C 	 -56.5552 	 -0.836032 	 -27.4714
| 11> C 	 -56.6965 	 -0.332396 	 -28.759
| 12> H 	 -56.1113 	 -0.277842 	 -26.6649
| 13> C 	 -57.2147 	 -2.75876 	 -25.8072
| 14> H 	 -57.5654 	 -3.80018 	 -25.7797
| 15> H 	 -57.9859 	 -2.26294 	 -25.2171
| 16> C 	 -55.8929 	 -2.63504 	 -25.0106
| 17> H 	 -55.0887 	 -3.15348 	 -25.5261
| 18> H 	 -55.5551 	 -1.61483 	 -25.1535
| 19> C 	 -55.9736 	 -3.06768 	 -23.5047
| 20> H 	 -54.9616 	 -3.20977 	 -23.104
| 21> H 	 -56.5841 	 -2.33723 	 -23.0086
| 22> H 	 -56.4398 	 -4.09834 	 -23.3594
| 23> S 	 -55.4337 	 0.891587 	 -30.9436
| 24> C 	 -55.1246 	 2.53667 	 -30.9356
| 25> C 	 -55.534 	 3.16382 	 -29.7994
| 26> C 	 -56.0794 	 2.22602 	 -28.8476
| 27> C 	 -56.091 	 0.886678 	 -29.3245
| 28> H 	 -55.2055 	 4.1773 	 -29.6177
| 29> C 	 -56.515 	 2.56833 	 -27.4137
| 30> H 	 -56.0491 	 3.5086 	 -27.1204
| 31> H 	 -56.1258 	 1.83956 	 -26.7587
| 32> C 	 -58.0605 	 2.68927 	 -27.0932
| 33> H 	 -58.1984 	 3.00758 	 -26.0519
| 34> H 	 -58.4769 	 1.66948 	 -27.1498
| 35> C 	 -58.7165 	 3.6844 	 -28.1009
| 36> H 	 -58.1626 	 4.57858 	 -28.1023
| 37> H 	 -59.7315 	 3.94093 	 -27.8381
| 38> H 	 -58.7194 	 3.31897 	 -29.1324
| 39> H 	 -58.5663 	 -3.29465 	 -28.343
| 40> H 	 -54.3934 	 3.01168 	 -31.5717
| 41> *
| 42>
| 43>                          ****END OF INPUT****

CARTESIAN COORDINATES (ANGSTROEM)
---------------------------------
  S    -57.572000   -1.469760  -29.835000
  C    -57.963200   -2.448620  -28.361300
  C    -57.230500   -2.082490  -27.236300
  C    -56.555200   -0.836032  -27.471400
  C    -56.696500   -0.332396  -28.759000
  H    -56.111300   -0.277842  -26.664900
  C    -57.214700   -2.758760  -25.807200
  H    -57.565400   -3.800180  -25.779700
  H    -57.985900   -2.262940  -25.217100
  C    -55.892900   -2.635040  -25.010600
  H    -55.088700   -3.153480  -25.526100
  H    -55.555100   -1.614830  -25.153500
  C    -55.973600   -3.067680  -23.504700
  H    -54.961600   -3.209770  -23.104000
  H    -56.584100   -2.337230  -23.008600
  H    -56.439800   -4.098340  -23.359400
  S    -55.433700    0.891587  -30.943600
  C    -55.124600    2.536670  -30.935600
  C    -55.534000    3.163820  -29.799400
  C    -56.079400    2.226020  -28.847600
  C    -56.091000    0.886678  -29.324500
  H    -55.205500    4.177300  -29.617700
  C    -56.515000    2.568330  -27.413700
  H    -56.049100    3.508600  -27.120400
  H    -56.125800    1.839560  -26.758700
  C    -58.060500    2.689270  -27.093200
  H    -58.198400    3.007580  -26.051900
  H    -58.476900    1.669480  -27.149800
  C    -58.716500    3.684400  -28.100900
  H    -58.162600    4.578580  -28.102300
  H    -59.731500    3.940930  -27.838100
  H    -58.719400    3.318970  -29.132400
  H    -58.566300   -3.294650  -28.343000
  H    -54.393400    3.011680  -31.571700

 Total Charge           Charge          ....    0
 Multiplicity           Mult            ....    1
 Number of Electrons    NEL             ....  134
 Basis Dimension        Dim             ....  322

ORBITAL ENERGIES
----------------

  NO   OCC          E(Eh)            E(eV)
   0   2.0000     -88.971214     -2421.0298
   1   2.0000     -88.966375     -2420.8981
   2   2.0000     -10.339245      -281.3452
   3   2.0000     -10.330269      -281.1009
   4   2.0000     -10.315726      -280.7052
   5   2.0000     -10.311000      -280.5766
   6   2.0000     -10.309817      -280.5444
   7   2.0000     -10.309649      -280.5398
   8   2.0000     -10.302557      -280.3468
   9   2.0000     -10.297637      -280.2129
  10   2.0000     -10.293802      -280.1086
  11   2.0000     -10.291621      -280.0493
  12   2.0000     -10.291240      -280.0389
  13   2.0000     -10.288900      -279.9752
  14   2.0000     -10.288661      -279.9687
  15   2.0000     -10.267868      -279.4029
  16   2.0000      -8.084166      -219.9813
  17   2.0000      -8.082587      -219.9384
  18   2.0000      -6.042859      -164.4345
  19   2.0000      -6.040956      -164.3828
  20   2.0000      -6.039203      -164.3351
  21   2.0000      -6.036734      -164.2679
  22   2.0000      -6.034553      -164.2085
  23   2.0000      -6.033558      -164.1815
  24   2.0000      -1.007425       -27.4134
  25   2.0000      -0.979434       -26.6518
  26   2.0000      -0.904915       -24.6240
  27   2.0000      -0.900459       -24.5027
  28   2.0000      -0.867869       -23.6159
  29   2.0000      -0.846087       -23.0232
  30   2.0000      -0.840712       -22.8769
  31   2.0000      -0.813507       -22.1367
  32   2.0000      -0.784475       -21.3466
  33   2.0000      -0.774059       -21.0632
  34   2.0000      -0.713748       -19.4221
  35   2.0000      -0.700373       -19.0581
  36   2.0000      -0.690093       -18.7784
  37   2.0000      -0.658143       -17.9090
  38   2.0000      -0.638945       -17.3866
  39   2.0000      -0.626848       -17.0574
  40   2.0000      -0.589605       -16.0440
  41   2.0000      -0.568241       -15.4626
  42   2.0000      -0.562405       -15.3038
  43   2.0000      -0.549628       -14.9561
  44   2.0000      -0.540080       -14.6963
  45   2.0000      -0.518764       -14.1163
  46   2.0000      -0.510807       -13.8998
  47   2.0000      -0.506320       -13.7777
  48   2.0000      -0.503884       -13.7114
  49   2.0000      -0.495940       -13.4952
  50   2.0000      -0.483254       -13.1500
  51   2.0000      -0.478981       -13.0337
  52   2.0000      -0.472943       -12.8694
  53   2.0000      -0.469921       -12.7872
  54   2.0000      -0.462124       -12.5750
  55   2.0000      -0.456495       -12.4219
  56   2.0000      -0.438522       -11.9328
  57   2.0000      -0.438179       -11.9234
  58   2.0000      -0.430378       -11.7112
  59   2.0000      -0.428527       -11.6608
  60   2.0000      -0.425425       -11.5764
  61   2.0000      -0.415930       -11.3180
  62   2.0000      -0.412317       -11.2197
  63   2.0000      -0.353534        -9.6201
  64   2.0000      -0.334976        -9.1152
  65   2.0000      -0.331528        -9.0213
  66   2.0000      -0.285172        -7.7599
  67   0.0000       0.024837         0.6758
  68   0.0000       0.062911         1.7119
  69   0.0000       0.101058         2.7499
  70   0.0000       0.115528         3.1437
  71   0.0000       0.134866         3.6699

MULLIKEN ATOMIC CHARGES
-----------------------
   0 S :    0.102516
   1 C :   -0.098001
   2 C :   -0.052262
   3 C :   -0.012455
   4 C :   -0.110195
   5 H :    0.019339
   6 C :    0.055669
   7 H :    0.024055
   8 H :    0.034559
   9 C :   -0.093385
  10 H :    0.029950
  11 H :    0.017876
  12 C :   -0.058651
  13 H :    0.045803
  14 H :    0.041059
  15 H :    0.040603
  16 S :    0.112783
  17 C :   -0.087208
  18 C :   -0.031214
  19 C :   -0.065861
  20 C :   -0.153204
  21 H :    0.021790
  22 C :    0.067040
  23 H :    0.014233
  24 H :    0.006441
  25 C :   -0.075689
  26 H :    0.030870
  27 H :    0.041343
  28 C :   -0.032092
  29 H :    0.009590
  30 H :    0.027678
  31 H :    0.048221
  32 H :    0.016536
  33 H :    0.062264
Sum of atomic charges:    0.0000000

LOEWDIN ATOMIC CHARGES
----------------------
   0 S :    0.364285
   1 C :   -0.169262
   2 C :   -0.050555
   3 C :   -0.067033
   4 C :   -0.167704
   5 H :    0.026126
   6 C :   -0.031462
   7 H :    0.029090
   8 H :    0.031904
   9 C :   -0.045701
  10 H :    0.023999
  11 H :    0.019568
  12 C :   -0.064916
  13 H :    0.032142
  14 H :    0.023578
  15 H :    0.033537
  16 S :    0.438643
  17 C :   -0.210317
  18 C :   -0.075688
  19 C :   -0.051121
  20 C :   -0.204961
  21 H :    0.032929
  22 C :   -0.030419
  23 H :    0.026587
  24 H :    0.018947
  25 C :   -0.033329
  26 H :    0.023800
  27 H :    0.024880
  28 C :   -0.062787
  29 H :    0.015526
  30 H :    0.022612
  31 H :    0.031618
  32 H :    0.012301
  33 H :    0.033186

  Mayer bond orders larger than 0.100000
B(  0-S ,  1-C ) :   1.1119 B(  0-S ,  4-C ) :   1.1265 B(  1-C ,  2-C ) :   1.6590
B(  1-C , 32-H ) :   0.9723 B(  2-C ,  3-C ) :   1.2165 B(  2-C ,  6-C ) :   1.0049
B(  3-C ,  4-C ) :   1.5966 B(  3-C ,  5-H ) :   0.9840 B(  4-C , 20-C ) :   1.0612
B(  6-C ,  7-H ) :   0.9468 B(  6-C ,  8-H ) :   0.9443 B(  6-C ,  9-C ) :   1.0523
B(  9-C , 10-H ) :   0.9577 B(  9-C , 11-H ) :   0.9538 B(  9-C , 12-C ) :   1.0736
B( 12-C , 13-H ) :   0.9749 B( 12-C , 14-H ) :   0.9771 B( 12-C , 15-H ) :   0.9764
B( 16-S , 17-C ) :   1.1883 B( 16-S , 20-C ) :   1.1499 B( 17-C , 18-C ) :   1.5908
B( 17-C , 33-H ) :   0.9588 B( 18-C , 19-C ) :   1.2736 B( 18-C , 21-H ) :   0.9872
B( 19-C , 20-C ) :   1.5514 B( 19-C , 22-C ) :   1.0322 B( 22-C , 23-H ) :   0.9351
B( 22-C , 24-H ) :   0.9434 B( 22-C , 25-C ) :   1.0670 B( 25-C , 26-H ) :   0.9578
B( 25-C , 27-H ) :   0.9577 B( 25-C , 28-C ) :   1.0698 B( 28-C , 29-H ) :   0.9770
B( 28-C , 30-H ) :   0.9759 B( 28-C , 31-H ) :   0.9729

Dispersion correction           -0.014537502
FINAL SINGLE POINT ENERGY     -1339.873229694783

DIPOLE MOMENT
-------------
                                X             Y             Z
Electronic contribution:      4.02921      -2.59214     -27.51830
Nuclear contribution   :     -3.87452       2.71641      28.26160
                        -----------------------------------------
Total Dipole Moment    :      0.15469       0.12426       0.74330
                        -----------------------------------------
Magnitude (a.u.)       :      0.76933
Magnitude (Debye)      :      1.95549

Rotational constants in cm-1:     0.018842     0.008245     0.007017
Rotational constants in MHz :   564.868597   247.171653   210.351966

                             ****ORCA TERMINATED NORMALLY****
TOTAL RUN TIME: 0 days 0 hours 0 minutes 21 seconds 830 msec
