                         Program Version 4.2.1 -  RELEASE  -
|  1> ! wB97X-D3 SP def2-SVP
|  2> %pal
|  3> nprocs 24
|  4> end
|  5>
|  6> * xyz 0 1
|  7> S 	 -94.9675 	 46.0339 	 -91.4668
|  8> C 	 -94.2126 	 44.5441 	 -90.8471
|  9> C 	 -95.1588 	 43.5921 	 -90.6014
| 10> C 	 -96.4921 	 44.0617 	 -90.6173
| 11> C 	 -96.5322 	 45.3968 	 -91.0137
| 12> H 	 -97.4164 	 43.5124 	 -90.4955
| 13> C 	 -94.8418 	 42.2518 	 -90.0981
| 14> H 	 -95.3845 	 41.9142 	 -89.1474
| 15> H 	 -93.8009 	 42.3187 	 -89.7871
| 16> C 	 -94.8191 	 41.0967 	 -91.2361
| 17> H 	 -94.0364 	 41.3497 	 -91.9662
| 18> H 	 -94.522 	 40.2053 	 -90.7675
| 19> C 	 -96.1871 	 40.7204 	 -91.8237
| 20> H 	 -96.0226 	 40.0344 	 -92.6362
| 21> H 	 -96.85 	 40.1438 	 -91.1656
| 22> H 	 -96.6904 	 41.5833 	 -92.1575
| 23> S 	 -98.2781 	 47.1016 	 -90.0319
| 24> C 	 -99.5023 	 47.917 	 -91.0241
| 25> C 	 -99.3328 	 47.6158 	 -92.3735
| 26> C 	 -98.2375 	 46.7232 	 -92.5499
| 27> C 	 -97.6714 	 46.2454 	 -91.3525
| 28> H 	 -99.9372 	 48.0993 	 -93.1108
| 29> C 	 -97.8433 	 46.3032 	 -93.9443
| 30> H 	 -96.7733 	 46.1908 	 -94.0468
| 31> H 	 -98.0834 	 47.1511 	 -94.5941
| 32> C 	 -98.6552 	 45.1093 	 -94.5731
| 33> H 	 -99.6916 	 45.3017 	 -94.659
| 34> H 	 -98.5192 	 44.2096 	 -93.9358
| 35> C 	 -98.0494 	 44.7464 	 -95.9638
| 36> H 	 -98.3275 	 45.6121 	 -96.5994
| 37> H 	 -98.3883 	 43.7941 	 -96.3831
| 38> H 	 -96.9517 	 44.6746 	 -95.8909
| 39> H 	 -93.1156 	 44.3931 	 -90.8272
| 40> H 	 -100.281 	 48.6208 	 -90.6546
| 41> *
| 42>
| 43>                          ****END OF INPUT****

CARTESIAN COORDINATES (ANGSTROEM)
---------------------------------
  S    -94.967500   46.033900  -91.466800
  C    -94.212600   44.544100  -90.847100
  C    -95.158800   43.592100  -90.601400
  C    -96.492100   44.061700  -90.617300
  C    -96.532200   45.396800  -91.013700
  H    -97.416400   43.512400  -90.495500
  C    -94.841800   42.251800  -90.098100
  H    -95.384500   41.914200  -89.147400
  H    -93.800900   42.318700  -89.787100
  C    -94.819100   41.096700  -91.236100
  H    -94.036400   41.349700  -91.966200
  H    -94.522000   40.205300  -90.767500
  C    -96.187100   40.720400  -91.823700
  H    -96.022600   40.034400  -92.636200
  H    -96.850000   40.143800  -91.165600
  H    -96.690400   41.583300  -92.157500
  S    -98.278100   47.101600  -90.031900
  C    -99.502300   47.917000  -91.024100
  C    -99.332800   47.615800  -92.373500
  C    -98.237500   46.723200  -92.549900
  C    -97.671400   46.245400  -91.352500
  H    -99.937200   48.099300  -93.110800
  C    -97.843300   46.303200  -93.944300
  H    -96.773300   46.190800  -94.046800
  H    -98.083400   47.151100  -94.594100
  C    -98.655200   45.109300  -94.573100
  H    -99.691600   45.301700  -94.659000
  H    -98.519200   44.209600  -93.935800
  C    -98.049400   44.746400  -95.963800
  H    -98.327500   45.612100  -96.599400
  H    -98.388300   43.794100  -96.383100
  H    -96.951700   44.674600  -95.890900
  H    -93.115600   44.393100  -90.827200
  H    -100.281000   48.620800  -90.654600

 Total Charge           Charge          ....    0
 Multiplicity           Mult            ....    1
 Number of Electrons    NEL             ....  134
 Basis Dimension        Dim             ....  322

ORBITAL ENERGIES
----------------

  NO   OCC          E(Eh)            E(eV)
   0   2.0000     -88.966737     -2420.9080
   1   2.0000     -88.963990     -2420.8332
   2   2.0000     -10.330588      -281.1096
   3   2.0000     -10.320248      -280.8282
   4   2.0000     -10.319101      -280.7970
   5   2.0000     -10.317600      -280.7562
   6   2.0000     -10.302491      -280.3450
   7   2.0000     -10.297472      -280.2085
   8   2.0000     -10.296415      -280.1797
   9   2.0000     -10.294988      -280.1409
  10   2.0000     -10.293115      -280.0899
  11   2.0000     -10.288588      -279.9667
  12   2.0000     -10.287816      -279.9457
  13   2.0000     -10.285160      -279.8734
  14   2.0000     -10.279698      -279.7248
  15   2.0000     -10.272759      -279.5360
  16   2.0000      -8.080972      -219.8944
  17   2.0000      -8.079369      -219.8508
  18   2.0000      -6.039440      -164.3415
  19   2.0000      -6.037800      -164.2969
  20   2.0000      -6.035607      -164.2372
  21   2.0000      -6.033582      -164.1821
  22   2.0000      -6.031741      -164.1320
  23   2.0000      -6.030365      -164.0946
  24   2.0000      -1.009649       -27.4740
  25   2.0000      -0.985369       -26.8132
  26   2.0000      -0.907507       -24.6945
  27   2.0000      -0.900968       -24.5166
  28   2.0000      -0.869614       -23.6634
  29   2.0000      -0.851011       -23.1572
  30   2.0000      -0.842444       -22.9241
  31   2.0000      -0.818167       -22.2635
  32   2.0000      -0.779637       -21.2150
  33   2.0000      -0.761087       -20.7102
  34   2.0000      -0.704463       -19.1694
  35   2.0000      -0.701311       -19.0837
  36   2.0000      -0.690805       -18.7977
  37   2.0000      -0.663675       -18.0595
  38   2.0000      -0.642420       -17.4811
  39   2.0000      -0.616420       -16.7736
  40   2.0000      -0.590857       -16.0780
  41   2.0000      -0.572401       -15.5758
  42   2.0000      -0.561295       -15.2736
  43   2.0000      -0.546598       -14.8737
  44   2.0000      -0.537467       -14.6252
  45   2.0000      -0.521000       -14.1771
  46   2.0000      -0.517198       -14.0737
  47   2.0000      -0.514593       -14.0028
  48   2.0000      -0.502039       -13.6612
  49   2.0000      -0.493282       -13.4229
  50   2.0000      -0.485232       -13.2038
  51   2.0000      -0.483677       -13.1615
  52   2.0000      -0.473750       -12.8914
  53   2.0000      -0.463491       -12.6122
  54   2.0000      -0.458747       -12.4831
  55   2.0000      -0.449284       -12.2256
  56   2.0000      -0.440381       -11.9834
  57   2.0000      -0.435256       -11.8439
  58   2.0000      -0.429873       -11.6974
  59   2.0000      -0.424026       -11.5383
  60   2.0000      -0.420905       -11.4534
  61   2.0000      -0.417854       -11.3704
  62   2.0000      -0.409931       -11.1548
  63   2.0000      -0.337117        -9.1734
  64   2.0000      -0.333781        -9.0826
  65   2.0000      -0.319492        -8.6938
  66   2.0000      -0.302410        -8.2290
  67   0.0000       0.039510         1.0751
  68   0.0000       0.055298         1.5047
  69   0.0000       0.105761         2.8779
  70   0.0000       0.119005         3.2383
  71   0.0000       0.123668         3.3652

MULLIKEN ATOMIC CHARGES
-----------------------
   0 S :    0.113441
   1 C :   -0.130248
   2 C :   -0.050958
   3 C :    0.057545
   4 C :   -0.162791
   5 H :    0.021188
   6 C :    0.005550
   7 H :    0.049943
   8 H :    0.011491
   9 C :   -0.056137
  10 H :    0.033960
  11 H :    0.016188
  12 C :   -0.036395
  13 H :    0.027629
  14 H :    0.028456
  15 H :    0.026899
  16 S :    0.119169
  17 C :   -0.113550
  18 C :   -0.027205
  19 C :   -0.027780
  20 C :   -0.176571
  21 H :    0.016025
  22 C :    0.062478
  23 H :    0.015309
  24 H :    0.009736
  25 C :   -0.060793
  26 H :    0.024731
  27 H :    0.031340
  28 C :   -0.063975
  29 H :    0.033495
  30 H :    0.039734
  31 H :    0.034552
  32 H :    0.059650
  33 H :    0.067892
Sum of atomic charges:   -0.0000000

LOEWDIN ATOMIC CHARGES
----------------------
   0 S :    0.399900
   1 C :   -0.187814
   2 C :   -0.073133
   3 C :   -0.053391
   4 C :   -0.193276
   5 H :    0.037433
   6 C :   -0.038925
   7 H :    0.039498
   8 H :    0.028674
   9 C :   -0.029498
  10 H :    0.026801
  11 H :    0.016754
  12 C :   -0.064570
  13 H :    0.027123
  14 H :    0.027327
  15 H :    0.015466
  16 S :    0.438150
  17 C :   -0.190163
  18 C :   -0.067280
  19 C :   -0.060554
  20 C :   -0.233966
  21 H :    0.031452
  22 C :   -0.033886
  23 H :    0.022693
  24 H :    0.029253
  25 C :   -0.032625
  26 H :    0.016458
  27 H :    0.023410
  28 C :   -0.068869
  29 H :    0.026308
  30 H :    0.025106
  31 H :    0.026070
  32 H :    0.034119
  33 H :    0.035951

  Mayer bond orders larger than 0.100000
B(  0-S ,  1-C ) :   1.1252 B(  0-S ,  4-C ) :   1.1647 B(  1-C ,  2-C ) :   1.6277
B(  1-C , 32-H ) :   0.9619 B(  2-C ,  3-C ) :   1.2123 B(  2-C ,  6-C ) :   1.0287
B(  3-C ,  4-C ) :   1.5882 B(  3-C ,  5-H ) :   0.9966 B(  4-C , 20-C ) :   0.9922
B(  6-C ,  7-H ) :   0.9521 B(  6-C ,  8-H ) :   0.9375 B(  6-C ,  9-C ) :   1.0639
B(  9-C , 10-H ) :   0.9589 B(  9-C , 11-H ) :   0.9565 B(  9-C , 12-C ) :   1.0770
B( 12-C , 13-H ) :   0.9706 B( 12-C , 14-H ) :   0.9751 B( 12-C , 15-H ) :   0.9771
B( 16-S , 17-C ) :   1.1677 B( 16-S , 20-C ) :   1.1798 B( 17-C , 18-C ) :   1.5857
B( 17-C , 20-C ) :   0.1054 B( 17-C , 33-H ) :   0.9633 B( 18-C , 19-C ) :   1.2619
B( 18-C , 21-H ) :   0.9953 B( 19-C , 20-C ) :   1.5596 B( 19-C , 22-C ) :   1.0571
B( 22-C , 23-H ) :   0.9349 B( 22-C , 24-H ) :   0.9296 B( 22-C , 25-C ) :   1.0558
B( 25-C , 26-H ) :   0.9591 B( 25-C , 27-H ) :   0.9588 B( 25-C , 28-C ) :   1.0725
B( 28-C , 29-H ) :   0.9777 B( 28-C , 30-H ) :   0.9754 B( 28-C , 31-H ) :   0.9767

Dispersion correction           -0.014422840
FINAL SINGLE POINT ENERGY     -1339.872553013560

DIPOLE MOMENT
-------------
                                X             Y             Z
Electronic contribution:      0.94725      21.64799      16.32175
Nuclear contribution   :     -0.97064     -22.06337     -16.60971
                        -----------------------------------------
Total Dipole Moment    :     -0.02339      -0.41538      -0.28796
                        -----------------------------------------
Magnitude (a.u.)       :      0.50597
Magnitude (Debye)      :      1.28608

Rotational constants in cm-1:     0.017336     0.009336     0.007407
Rotational constants in MHz :   519.729641   279.890661   222.056797

                             ****ORCA TERMINATED NORMALLY****
TOTAL RUN TIME: 0 days 0 hours 0 minutes 21 seconds 775 msec
