                         Program Version 4.2.1 -  RELEASE  -
|  1> ! wB97X-D3 SP def2-SVP
|  2> %pal
|  3> nprocs 24
|  4> end
|  5>
|  6> * xyz 0 1
|  7> S 	 -131.508 	 7.36449 	 -8.55974
|  8> C 	 -130.56 	 6.66581 	 -9.81575
|  9> C 	 -129.855 	 7.53775 	 -10.5638
| 10> C 	 -130.086 	 8.86617 	 -10.1382
| 11> C 	 -131.012 	 8.94949 	 -9.0761
| 12> H 	 -129.606 	 9.71374 	 -10.5251
| 13> C 	 -129.085 	 7.22502 	 -11.8858
| 14> H 	 -128.984 	 8.07021 	 -12.4912
| 15> H 	 -129.768 	 6.62203 	 -12.6226
| 16> C 	 -127.691 	 6.57984 	 -11.8628
| 17> H 	 -127.418 	 6.43158 	 -12.8995
| 18> H 	 -127.024 	 7.29316 	 -11.4204
| 19> C 	 -127.832 	 5.23606 	 -11.0939
| 20> H 	 -126.848 	 4.77972 	 -11.0655
| 21> H 	 -128.015 	 5.18414 	 -10.045
| 22> H 	 -128.481 	 4.62105 	 -11.7506
| 23> S 	 -130.929 	 10.1951 	 -6.6089
| 24> C 	 -131.387 	 11.8881 	 -6.45666
| 25> C 	 -131.808 	 12.3801 	 -7.63229
| 26> C 	 -131.766 	 11.3903 	 -8.66295
| 27> C 	 -131.278 	 10.1553 	 -8.28333
| 28> H 	 -132.057 	 13.4576 	 -7.78905
| 29> C 	 -132.179 	 11.7829 	 -10.0724
| 30> H 	 -131.268 	 11.8066 	 -10.633
| 31> H 	 -132.644 	 12.7636 	 -10.208
| 32> C 	 -133.159 	 10.7289 	 -10.6943
| 33> H 	 -132.776 	 9.66497 	 -10.7262
| 34> H 	 -133.418 	 11.0323 	 -11.6956
| 35> C 	 -134.506 	 10.7494 	 -9.86706
| 36> H 	 -134.597 	 10.0342 	 -9.08584
| 37> H 	 -135.329 	 10.4632 	 -10.5505
| 38> H 	 -134.84 	 11.7199 	 -9.39048
| 39> H 	 -130.651 	 5.57299 	 -10.0591
| 40> H 	 -131.363 	 12.3673 	 -5.4308
| 41> *
| 42>
| 43>                          ****END OF INPUT****

CARTESIAN COORDINATES (ANGSTROEM)
---------------------------------
  S    -131.508000    7.364490   -8.559740
  C    -130.560000    6.665810   -9.815750
  C    -129.855000    7.537750  -10.563800
  C    -130.086000    8.866170  -10.138200
  C    -131.012000    8.949490   -9.076100
  H    -129.606000    9.713740  -10.525100
  C    -129.085000    7.225020  -11.885800
  H    -128.984000    8.070210  -12.491200
  H    -129.768000    6.622030  -12.622600
  C    -127.691000    6.579840  -11.862800
  H    -127.418000    6.431580  -12.899500
  H    -127.024000    7.293160  -11.420400
  C    -127.832000    5.236060  -11.093900
  H    -126.848000    4.779720  -11.065500
  H    -128.015000    5.184140  -10.045000
  H    -128.481000    4.621050  -11.750600
  S    -130.929000   10.195100   -6.608900
  C    -131.387000   11.888100   -6.456660
  C    -131.808000   12.380100   -7.632290
  C    -131.766000   11.390300   -8.662950
  C    -131.278000   10.155300   -8.283330
  H    -132.057000   13.457600   -7.789050
  C    -132.179000   11.782900  -10.072400
  H    -131.268000   11.806600  -10.633000
  H    -132.644000   12.763600  -10.208000
  C    -133.159000   10.728900  -10.694300
  H    -132.776000    9.664970  -10.726200
  H    -133.418000   11.032300  -11.695600
  C    -134.506000   10.749400   -9.867060
  H    -134.597000   10.034200   -9.085840
  H    -135.329000   10.463200  -10.550500
  H    -134.840000   11.719900   -9.390480
  H    -130.651000    5.572990  -10.059100
  H    -131.363000   12.367300   -5.430800

 Total Charge           Charge          ....    0
 Multiplicity           Mult            ....    1
 Number of Electrons    NEL             ....  134
 Basis Dimension        Dim             ....  322

ORBITAL ENERGIES
----------------

  NO   OCC          E(Eh)            E(eV)
   0   2.0000     -88.971244     -2421.0306
   1   2.0000     -88.959511     -2420.7114
   2   2.0000     -10.331297      -281.1289
   3   2.0000     -10.320702      -280.8406
   4   2.0000     -10.317503      -280.7535
   5   2.0000     -10.313199      -280.6364
   6   2.0000     -10.300230      -280.2835
   7   2.0000     -10.297460      -280.2081
   8   2.0000     -10.296495      -280.1819
   9   2.0000     -10.293163      -280.0912
  10   2.0000     -10.292147      -280.0636
  11   2.0000     -10.288792      -279.9723
  12   2.0000     -10.287073      -279.9255
  13   2.0000     -10.286132      -279.8999
  14   2.0000     -10.276996      -279.6513
  15   2.0000     -10.271477      -279.5011
  16   2.0000      -8.086459      -220.0437
  17   2.0000      -8.075187      -219.7370
  18   2.0000      -6.044790      -164.4871
  19   2.0000      -6.040881      -164.3807
  20   2.0000      -6.037407      -164.2862
  21   2.0000      -6.033649      -164.1839
  22   2.0000      -6.029574      -164.0730
  23   2.0000      -6.025921      -163.9736
  24   2.0000      -1.012060       -27.5396
  25   2.0000      -0.991023       -26.9671
  26   2.0000      -0.909919       -24.7602
  27   2.0000      -0.897647       -24.4262
  28   2.0000      -0.870757       -23.6945
  29   2.0000      -0.852431       -23.1958
  30   2.0000      -0.835399       -22.7324
  31   2.0000      -0.809608       -22.0305
  32   2.0000      -0.786139       -21.3919
  33   2.0000      -0.769110       -20.9285
  34   2.0000      -0.706441       -19.2233
  35   2.0000      -0.699131       -19.0243
  36   2.0000      -0.683038       -18.5864
  37   2.0000      -0.661475       -17.9997
  38   2.0000      -0.641176       -17.4473
  39   2.0000      -0.616906       -16.7869
  40   2.0000      -0.591481       -16.0950
  41   2.0000      -0.571140       -15.5415
  42   2.0000      -0.562194       -15.2981
  43   2.0000      -0.548482       -14.9250
  44   2.0000      -0.540722       -14.7138
  45   2.0000      -0.534684       -14.5495
  46   2.0000      -0.509561       -13.8659
  47   2.0000      -0.500660       -13.6237
  48   2.0000      -0.498564       -13.5666
  49   2.0000      -0.490280       -13.3412
  50   2.0000      -0.484508       -13.1841
  51   2.0000      -0.475246       -12.9321
  52   2.0000      -0.470637       -12.8067
  53   2.0000      -0.465305       -12.6616
  54   2.0000      -0.463741       -12.6190
  55   2.0000      -0.453016       -12.3272
  56   2.0000      -0.435052       -11.8384
  57   2.0000      -0.430934       -11.7263
  58   2.0000      -0.430337       -11.7101
  59   2.0000      -0.421478       -11.4690
  60   2.0000      -0.418816       -11.3966
  61   2.0000      -0.411274       -11.1913
  62   2.0000      -0.407698       -11.0940
  63   2.0000      -0.348307        -9.4779
  64   2.0000      -0.337097        -9.1729
  65   2.0000      -0.325164        -8.8482
  66   2.0000      -0.293281        -7.9806
  67   0.0000       0.034838         0.9480
  68   0.0000       0.070959         1.9309
  69   0.0000       0.114197         3.1075
  70   0.0000       0.118768         3.2318
  71   0.0000       0.139395         3.7931

MULLIKEN ATOMIC CHARGES
-----------------------
   0 S :    0.131926
   1 C :   -0.150460
   2 C :   -0.022753
   3 C :    0.049088
   4 C :   -0.192009
   5 H :   -0.005676
   6 C :    0.002065
   7 H :   -0.000717
   8 H :    0.038817
   9 C :   -0.028435
  10 H :    0.031959
  11 H :    0.028430
  12 C :   -0.057164
  13 H :    0.018944
  14 H :    0.044579
  15 H :    0.031768
  16 S :    0.096524
  17 C :   -0.124926
  18 C :   -0.022772
  19 C :   -0.063425
  20 C :   -0.132112
  21 H :    0.037092
  22 C :    0.078505
  23 H :    0.024874
  24 H :    0.022254
  25 C :   -0.084046
  26 H :    0.068082
  27 H :    0.023446
  28 C :   -0.074227
  29 H :    0.027453
  30 H :    0.024737
  31 H :    0.030593
  32 H :    0.066434
  33 H :    0.081151
Sum of atomic charges:   -0.0000000

LOEWDIN ATOMIC CHARGES
----------------------
   0 S :    0.428841
   1 C :   -0.203072
   2 C :   -0.069655
   3 C :   -0.043259
   4 C :   -0.200199
   5 H :    0.022657
   6 C :   -0.036034
   7 H :    0.016333
   8 H :    0.038172
   9 C :   -0.029474
  10 H :    0.027910
  11 H :    0.020220
  12 C :   -0.072246
  13 H :    0.024759
  14 H :    0.026243
  15 H :    0.029355
  16 S :    0.410165
  17 C :   -0.186727
  18 C :   -0.080973
  19 C :   -0.059460
  20 C :   -0.218542
  21 H :    0.042677
  22 C :   -0.030347
  23 H :    0.025069
  24 H :    0.029883
  25 C :   -0.038317
  26 H :    0.035711
  27 H :    0.017819
  28 C :   -0.077318
  29 H :    0.018121
  30 H :    0.025765
  31 H :    0.027499
  32 H :    0.036682
  33 H :    0.041740

  Mayer bond orders larger than 0.100000
B(  0-S ,  1-C ) :   1.1546 B(  0-S ,  4-C ) :   1.1608 B(  1-C ,  2-C ) :   1.6159
B(  1-C , 32-H ) :   0.9523 B(  2-C ,  3-C ) :   1.2743 B(  2-C ,  6-C ) :   0.9906
B(  3-C ,  4-C ) :   1.5459 B(  3-C ,  5-H ) :   1.0006 B(  4-C , 20-C ) :   1.0268
B(  6-C ,  7-H ) :   0.9436 B(  6-C ,  8-H ) :   0.9504 B(  6-C ,  9-C ) :   1.0805
B(  9-C , 10-H ) :   0.9521 B(  9-C , 11-H ) :   0.9545 B(  9-C , 12-C ) :   1.0804
B( 12-C , 13-H ) :   0.9703 B( 12-C , 14-H ) :   0.9719 B( 12-C , 15-H ) :   0.9749
B( 16-S , 17-C ) :   1.1601 B( 16-S , 20-C ) :   1.1423 B( 17-C , 18-C ) :   1.5951
B( 17-C , 33-H ) :   0.9600 B( 18-C , 19-C ) :   1.2582 B( 18-C , 21-H ) :   0.9883
B( 19-C , 20-C ) :   1.5996 B( 19-C , 22-C ) :   1.0290 B( 22-C , 23-H ) :   0.9319
B( 22-C , 24-H ) :   0.9464 B( 22-C , 25-C ) :   1.0749 B( 25-C , 26-H ) :   0.9510
B( 25-C , 27-H ) :   0.9625 B( 25-C , 28-C ) :   1.0506 B( 28-C , 29-H ) :   0.9777
B( 28-C , 30-H ) :   0.9781 B( 28-C , 31-H ) :   0.9798

Dispersion correction           -0.015453144
FINAL SINGLE POINT ENERGY     -1339.868421669935

DIPOLE MOMENT
-------------
                                X             Y             Z
Electronic contribution:     -1.80647       2.86626      20.42474
Nuclear contribution   :      2.04005      -2.72588     -20.99480
                        -----------------------------------------
Total Dipole Moment    :      0.23358       0.14038      -0.57006
                        -----------------------------------------
Magnitude (a.u.)       :      0.63185
Magnitude (Debye)      :      1.60603

Rotational constants in cm-1:     0.023418     0.008031     0.007243
Rotational constants in MHz :   702.065549   240.759522   217.145876

                             ****ORCA TERMINATED NORMALLY****
TOTAL RUN TIME: 0 days 0 hours 0 minutes 22 seconds 313 msec
