                         Program Version 4.2.1 -  RELEASE  -
|  1> ! wB97X-D3 SP def2-SVP
|  2> %pal
|  3> nprocs 24
|  4> end
|  5>
|  6> * xyz 0 1
|  7> S 	 -106.526 	 54.3887 	 -111.71
|  8> C 	 -106.285 	 56.0714 	 -111.274
|  9> C 	 -107.178 	 56.5042 	 -110.337
| 10> C 	 -108.1 	 55.4448 	 -109.948
| 11> C 	 -107.935 	 54.2821 	 -110.698
| 12> H 	 -108.959 	 55.559 	 -109.201
| 13> C 	 -107.428 	 57.919 	 -109.806
| 14> H 	 -108.333 	 57.8891 	 -109.17
| 15> H 	 -107.73 	 58.5969 	 -110.631
| 16> C 	 -106.247 	 58.5631 	 -109.056
| 17> H 	 -105.561 	 58.893 	 -109.784
| 18> H 	 -106.614 	 59.5428 	 -108.626
| 19> C 	 -105.526 	 57.75 	 -107.895
| 20> H 	 -104.776 	 58.2379 	 -107.377
| 21> H 	 -106.224 	 57.4294 	 -107.185
| 22> H 	 -105.131 	 56.8327 	 -108.318
| 23> S 	 -107.803 	 51.6316 	 -110.256
| 24> C 	 -109.287 	 50.6437 	 -110.16
| 25> C 	 -110.347 	 51.4397 	 -110.047
| 26> C 	 -110.05 	 52.805 	 -110.386
| 27> C 	 -108.693 	 53.0496 	 -110.532
| 28> H 	 -111.294 	 50.9977 	 -109.757
| 29> C 	 -111.196 	 53.845 	 -110.411
| 30> H 	 -111.204 	 54.4145 	 -111.334
| 31> H 	 -110.883 	 54.6023 	 -109.712
| 32> C 	 -112.67 	 53.2805 	 -110.199
| 33> H 	 -112.748 	 52.5479 	 -109.465
| 34> H 	 -112.803 	 52.6475 	 -111.08
| 35> C 	 -113.799 	 54.3215 	 -110.04
| 36> H 	 -114.015 	 54.8089 	 -110.966
| 37> H 	 -113.583 	 55.0902 	 -109.318
| 38> H 	 -114.689 	 53.8929 	 -109.649
| 39> H 	 -105.559 	 56.7418 	 -111.725
| 40> H 	 -109.293 	 49.6275 	 -109.997
| 41> *
| 42>
| 43>                          ****END OF INPUT****

CARTESIAN COORDINATES (ANGSTROEM)
---------------------------------
  S    -106.526000   54.388700  -111.710000
  C    -106.285000   56.071400  -111.274000
  C    -107.178000   56.504200  -110.337000
  C    -108.100000   55.444800  -109.948000
  C    -107.935000   54.282100  -110.698000
  H    -108.959000   55.559000  -109.201000
  C    -107.428000   57.919000  -109.806000
  H    -108.333000   57.889100  -109.170000
  H    -107.730000   58.596900  -110.631000
  C    -106.247000   58.563100  -109.056000
  H    -105.561000   58.893000  -109.784000
  H    -106.614000   59.542800  -108.626000
  C    -105.526000   57.750000  -107.895000
  H    -104.776000   58.237900  -107.377000
  H    -106.224000   57.429400  -107.185000
  H    -105.131000   56.832700  -108.318000
  S    -107.803000   51.631600  -110.256000
  C    -109.287000   50.643700  -110.160000
  C    -110.347000   51.439700  -110.047000
  C    -110.050000   52.805000  -110.386000
  C    -108.693000   53.049600  -110.532000
  H    -111.294000   50.997700  -109.757000
  C    -111.196000   53.845000  -110.411000
  H    -111.204000   54.414500  -111.334000
  H    -110.883000   54.602300  -109.712000
  C    -112.670000   53.280500  -110.199000
  H    -112.748000   52.547900  -109.465000
  H    -112.803000   52.647500  -111.080000
  C    -113.799000   54.321500  -110.040000
  H    -114.015000   54.808900  -110.966000
  H    -113.583000   55.090200  -109.318000
  H    -114.689000   53.892900  -109.649000
  H    -105.559000   56.741800  -111.725000
  H    -109.293000   49.627500  -109.997000

 Total Charge           Charge          ....    0
 Multiplicity           Mult            ....    1
 Number of Electrons    NEL             ....  134
 Basis Dimension        Dim             ....  322

ORBITAL ENERGIES
----------------

  NO   OCC          E(Eh)            E(eV)
   0   2.0000     -88.969105     -2420.9724
   1   2.0000     -88.959720     -2420.7170
   2   2.0000     -10.330426      -281.1052
   3   2.0000     -10.321929      -280.8740
   4   2.0000     -10.314884      -280.6823
   5   2.0000     -10.306851      -280.4637
   6   2.0000     -10.304074      -280.3881
   7   2.0000     -10.303397      -280.3697
   8   2.0000     -10.302313      -280.3402
   9   2.0000     -10.299872      -280.2738
  10   2.0000     -10.293689      -280.1055
  11   2.0000     -10.290681      -280.0237
  12   2.0000     -10.289260      -279.9850
  13   2.0000     -10.288142      -279.9546
  14   2.0000     -10.275396      -279.6077
  15   2.0000     -10.268046      -279.4077
  16   2.0000      -8.083811      -219.9717
  17   2.0000      -8.075362      -219.7418
  18   2.0000      -6.042374      -164.4214
  19   2.0000      -6.038314      -164.3109
  20   2.0000      -6.034514      -164.2075
  21   2.0000      -6.033940      -164.1919
  22   2.0000      -6.029825      -164.0799
  23   2.0000      -6.025893      -163.9729
  24   2.0000      -1.010931       -27.5088
  25   2.0000      -0.986360       -26.8402
  26   2.0000      -0.906610       -24.6701
  27   2.0000      -0.899616       -24.4798
  28   2.0000      -0.873330       -23.7645
  29   2.0000      -0.848887       -23.0994
  30   2.0000      -0.841574       -22.9004
  31   2.0000      -0.816895       -22.2288
  32   2.0000      -0.787810       -21.4374
  33   2.0000      -0.774760       -21.0823
  34   2.0000      -0.717084       -19.5129
  35   2.0000      -0.708675       -19.2840
  36   2.0000      -0.701183       -19.0802
  37   2.0000      -0.656329       -17.8596
  38   2.0000      -0.635126       -17.2827
  39   2.0000      -0.610916       -16.6239
  40   2.0000      -0.598789       -16.2939
  41   2.0000      -0.572230       -15.5712
  42   2.0000      -0.559588       -15.2272
  43   2.0000      -0.549651       -14.9568
  44   2.0000      -0.540293       -14.7021
  45   2.0000      -0.525958       -14.3120
  46   2.0000      -0.511487       -13.9183
  47   2.0000      -0.509236       -13.8570
  48   2.0000      -0.502656       -13.6780
  49   2.0000      -0.500834       -13.6284
  50   2.0000      -0.487922       -13.2770
  51   2.0000      -0.480753       -13.0820
  52   2.0000      -0.474226       -12.9043
  53   2.0000      -0.470194       -12.7946
  54   2.0000      -0.465290       -12.6612
  55   2.0000      -0.457070       -12.4375
  56   2.0000      -0.446993       -12.1633
  57   2.0000      -0.439923       -11.9709
  58   2.0000      -0.430845       -11.7239
  59   2.0000      -0.424069       -11.5395
  60   2.0000      -0.420305       -11.4371
  61   2.0000      -0.415494       -11.3062
  62   2.0000      -0.412544       -11.2259
  63   2.0000      -0.352253        -9.5853
  64   2.0000      -0.331194        -9.0122
  65   2.0000      -0.326263        -8.8781
  66   2.0000      -0.292579        -7.9615
  67   0.0000       0.030154         0.8205
  68   0.0000       0.075809         2.0629
  69   0.0000       0.105812         2.8793
  70   0.0000       0.115302         3.1375
  71   0.0000       0.143460         3.9037

MULLIKEN ATOMIC CHARGES
-----------------------
   0 S :    0.121852
   1 C :   -0.124538
   2 C :   -0.080635
   3 C :   -0.011591
   4 C :   -0.160541
   5 H :    0.048726
   6 C :    0.057359
   7 H :    0.021207
   8 H :    0.047241
   9 C :   -0.095006
  10 H :    0.018722
  11 H :    0.029113
  12 C :   -0.002220
  13 H :    0.023225
  14 H :    0.014236
  15 H :    0.034701
  16 S :    0.089845
  17 C :   -0.049461
  18 C :   -0.048467
  19 C :   -0.060545
  20 C :   -0.127540
  21 H :    0.023363
  22 C :    0.086413
  23 H :    0.030811
  24 H :    0.008979
  25 C :   -0.086596
  26 H :    0.013988
  27 H :    0.027033
  28 C :    0.007247
  29 H :    0.029550
  30 H :    0.022853
  31 H :    0.020581
  32 H :    0.047964
  33 H :    0.022131
Sum of atomic charges:   -0.0000000

LOEWDIN ATOMIC CHARGES
----------------------
   0 S :    0.412598
   1 C :   -0.196421
   2 C :   -0.065435
   3 C :   -0.067833
   4 C :   -0.201471
   5 H :    0.041807
   6 C :   -0.032907
   7 H :    0.029245
   8 H :    0.040884
   9 C :   -0.040335
  10 H :    0.013586
  11 H :    0.028250
  12 C :   -0.055228
  13 H :    0.017995
  14 H :    0.019270
  15 H :    0.028263
  16 S :    0.406052
  17 C :   -0.158168
  18 C :   -0.070032
  19 C :   -0.057074
  20 C :   -0.215804
  21 H :    0.035126
  22 C :   -0.029782
  23 H :    0.033879
  24 H :    0.021705
  25 C :   -0.037824
  26 H :    0.009869
  27 H :    0.028606
  28 C :   -0.056424
  29 H :    0.024012
  30 H :    0.025053
  31 H :    0.025170
  32 H :    0.030566
  33 H :    0.012802

  Mayer bond orders larger than 0.100000
B(  0-S ,  1-C ) :   1.1281 B(  0-S ,  4-C ) :   1.1546 B(  1-C ,  2-C ) :   1.6329
B(  1-C , 32-H ) :   0.9671 B(  2-C ,  3-C ) :   1.2361 B(  2-C ,  6-C ) :   1.0080
B(  3-C ,  4-C ) :   1.5822 B(  3-C ,  5-H ) :   0.9710 B(  4-C , 20-C ) :   1.0366
B(  6-C ,  7-H ) :   0.9452 B(  6-C ,  8-H ) :   0.9420 B(  6-C ,  9-C ) :   1.0701
B(  9-C , 10-H ) :   0.9600 B(  9-C , 11-H ) :   0.9569 B(  9-C , 12-C ) :   1.0659
B( 12-C , 13-H ) :   0.9775 B( 12-C , 14-H ) :   0.9765 B( 12-C , 15-H ) :   0.9719
B( 16-S , 17-C ) :   1.1338 B( 16-S , 20-C ) :   1.1546 B( 17-C , 18-C ) :   1.6364
B( 17-C , 33-H ) :   0.9722 B( 18-C , 19-C ) :   1.2315 B( 18-C , 21-H ) :   0.9852
B( 19-C , 20-C ) :   1.6127 B( 19-C , 22-C ) :   1.0197 B( 22-C , 23-H ) :   0.9326
B( 22-C , 24-H ) :   0.9311 B( 22-C , 25-C ) :   1.0635 B( 25-C , 26-H ) :   0.9545
B( 25-C , 27-H ) :   0.9544 B( 25-C , 28-C ) :   1.0793 B( 28-C , 29-H ) :   0.9761
B( 28-C , 30-H ) :   0.9747 B( 28-C , 31-H ) :   0.9723

Dispersion correction           -0.013696207
FINAL SINGLE POINT ENERGY     -1339.865684195565

DIPOLE MOMENT
-------------
                                X             Y             Z
Electronic contribution:     14.92912     -18.82082     -10.46682
Nuclear contribution   :    -15.47235      19.25336      10.76596
                        -----------------------------------------
Total Dipole Moment    :     -0.54323       0.43254       0.29915
                        -----------------------------------------
Magnitude (a.u.)       :      0.75609
Magnitude (Debye)      :      1.92184

Rotational constants in cm-1:     0.018148     0.007990     0.006241
Rotational constants in MHz :   544.056039   239.534389   187.092488

                             ****ORCA TERMINATED NORMALLY****
TOTAL RUN TIME: 0 days 0 hours 0 minutes 21 seconds 215 msec
