                         Program Version 4.2.1 -  RELEASE  -
|  1> ! wB97X-D3 SP def2-SVP
|  2> %pal
|  3> nprocs 24
|  4> end
|  5>
|  6> * xyz 0 1
|  7> S 	 -136.051 	 14.7182 	 -14.2345
|  8> C 	 -136.5 	 13.4644 	 -13.0728
|  9> C 	 -136.544 	 12.246 	 -13.6889
| 10> C 	 -135.966 	 12.2481 	 -15.0018
| 11> C 	 -135.526 	 13.4864 	 -15.3942
| 12> H 	 -135.813 	 11.4565 	 -15.6925
| 13> C 	 -137.262 	 11.0475 	 -13.0096
| 14> H 	 -137.354 	 11.3452 	 -11.9309
| 15> H 	 -136.649 	 10.1468 	 -13.2199
| 16> C 	 -138.764 	 10.8099 	 -13.4646
| 17> H 	 -139.279 	 10.104 	 -12.8295
| 18> H 	 -139.326 	 11.751 	 -13.4617
| 19> C 	 -138.805 	 10.1638 	 -14.7729
| 20> H 	 -139.818 	 10.0101 	 -15.1471
| 21> H 	 -138.29 	 10.7498 	 -15.5077
| 22> H 	 -138.325 	 9.19359 	 -14.7194
| 23> S 	 -133.75 	 14.9616 	 -16.8572
| 24> C 	 -133.95 	 15.0304 	 -18.6582
| 25> C 	 -134.957 	 14.2168 	 -19.053
| 26> C 	 -135.621 	 13.5838 	 -17.9594
| 27> C 	 -135.146 	 13.9561 	 -16.7301
| 28> H 	 -135.161 	 14.2406 	 -20.0906
| 29> C 	 -136.888 	 12.7605 	 -18.3453
| 30> H 	 -137.508 	 13.368 	 -18.9946
| 31> H 	 -137.44 	 12.4923 	 -17.4448
| 32> C 	 -136.545 	 11.4317 	 -19.0623
| 33> H 	 -135.834 	 10.9821 	 -18.4406
| 34> H 	 -136.034 	 11.6116 	 -20.0344
| 35> C 	 -137.702 	 10.4339 	 -19.1372
| 36> H 	 -137.446 	 9.47404 	 -19.6701
| 37> H 	 -138.478 	 10.8509 	 -19.7952
| 38> H 	 -138.047 	 10.2884 	 -18.1056
| 39> H 	 -136.724 	 13.6903 	 -12.0389
| 40> H 	 -133.357 	 15.53 	 -19.3198
| 41> *
| 42>
| 43>                          ****END OF INPUT****

CARTESIAN COORDINATES (ANGSTROEM)
---------------------------------
  S    -136.051000   14.718200  -14.234500
  C    -136.500000   13.464400  -13.072800
  C    -136.544000   12.246000  -13.688900
  C    -135.966000   12.248100  -15.001800
  C    -135.526000   13.486400  -15.394200
  H    -135.813000   11.456500  -15.692500
  C    -137.262000   11.047500  -13.009600
  H    -137.354000   11.345200  -11.930900
  H    -136.649000   10.146800  -13.219900
  C    -138.764000   10.809900  -13.464600
  H    -139.279000   10.104000  -12.829500
  H    -139.326000   11.751000  -13.461700
  C    -138.805000   10.163800  -14.772900
  H    -139.818000   10.010100  -15.147100
  H    -138.290000   10.749800  -15.507700
  H    -138.325000    9.193590  -14.719400
  S    -133.750000   14.961600  -16.857200
  C    -133.950000   15.030400  -18.658200
  C    -134.957000   14.216800  -19.053000
  C    -135.621000   13.583800  -17.959400
  C    -135.146000   13.956100  -16.730100
  H    -135.161000   14.240600  -20.090600
  C    -136.888000   12.760500  -18.345300
  H    -137.508000   13.368000  -18.994600
  H    -137.440000   12.492300  -17.444800
  C    -136.545000   11.431700  -19.062300
  H    -135.834000   10.982100  -18.440600
  H    -136.034000   11.611600  -20.034400
  C    -137.702000   10.433900  -19.137200
  H    -137.446000    9.474040  -19.670100
  H    -138.478000   10.850900  -19.795200
  H    -138.047000   10.288400  -18.105600
  H    -136.724000   13.690300  -12.038900
  H    -133.357000   15.530000  -19.319800

 Total Charge           Charge          ....    0
 Multiplicity           Mult            ....    1
 Number of Electrons    NEL             ....  134
 Basis Dimension        Dim             ....  322

ORBITAL ENERGIES
----------------

  NO   OCC          E(Eh)            E(eV)
   0   2.0000     -88.964375     -2420.8437
   1   2.0000     -88.961699     -2420.7709
   2   2.0000     -10.330071      -281.0955
   3   2.0000     -10.326517      -280.9988
   4   2.0000     -10.315266      -280.6927
   5   2.0000     -10.313419      -280.6424
   6   2.0000     -10.305489      -280.4266
   7   2.0000     -10.304857      -280.4094
   8   2.0000     -10.303818      -280.3811
   9   2.0000     -10.296391      -280.1790
  10   2.0000     -10.294285      -280.1217
  11   2.0000     -10.290039      -280.0062
  12   2.0000     -10.285149      -279.8731
  13   2.0000     -10.285128      -279.8726
  14   2.0000     -10.283475      -279.8276
  15   2.0000     -10.270105      -279.4638
  16   2.0000      -8.078838      -219.8364
  17   2.0000      -8.076357      -219.7688
  18   2.0000      -6.037442      -164.2871
  19   2.0000      -6.034882      -164.2175
  20   2.0000      -6.033433      -164.1781
  21   2.0000      -6.031047      -164.1131
  22   2.0000      -6.029443      -164.0695
  23   2.0000      -6.026904      -164.0004
  24   2.0000      -1.008104       -27.4319
  25   2.0000      -0.984536       -26.7906
  26   2.0000      -0.913353       -24.8536
  27   2.0000      -0.907019       -24.6813
  28   2.0000      -0.877460       -23.8769
  29   2.0000      -0.849431       -23.1142
  30   2.0000      -0.845024       -22.9943
  31   2.0000      -0.824479       -22.4352
  32   2.0000      -0.779284       -21.2054
  33   2.0000      -0.769156       -20.9298
  34   2.0000      -0.705562       -19.1993
  35   2.0000      -0.698000       -18.9935
  36   2.0000      -0.694638       -18.9021
  37   2.0000      -0.667281       -18.1576
  38   2.0000      -0.648209       -17.6387
  39   2.0000      -0.616776       -16.7833
  40   2.0000      -0.595258       -16.1978
  41   2.0000      -0.578180       -15.7331
  42   2.0000      -0.572515       -15.5789
  43   2.0000      -0.553003       -15.0480
  44   2.0000      -0.547156       -14.8889
  45   2.0000      -0.525919       -14.3110
  46   2.0000      -0.519630       -14.1398
  47   2.0000      -0.513640       -13.9769
  48   2.0000      -0.511354       -13.9147
  49   2.0000      -0.497555       -13.5392
  50   2.0000      -0.490869       -13.3572
  51   2.0000      -0.483095       -13.1457
  52   2.0000      -0.471203       -12.8221
  53   2.0000      -0.469652       -12.7799
  54   2.0000      -0.456755       -12.4289
  55   2.0000      -0.446929       -12.1616
  56   2.0000      -0.443630       -12.0718
  57   2.0000      -0.435187       -11.8420
  58   2.0000      -0.431102       -11.7309
  59   2.0000      -0.421722       -11.4756
  60   2.0000      -0.420917       -11.4537
  61   2.0000      -0.417407       -11.3582
  62   2.0000      -0.415458       -11.3052
  63   2.0000      -0.348895        -9.4939
  64   2.0000      -0.331004        -9.0071
  65   2.0000      -0.329299        -8.9607
  66   2.0000      -0.299775        -8.1573
  67   0.0000       0.027815         0.7569
  68   0.0000       0.071705         1.9512
  69   0.0000       0.107148         2.9157
  70   0.0000       0.112739         3.0678
  71   0.0000       0.120532         3.2799

MULLIKEN ATOMIC CHARGES
-----------------------
   0 S :    0.088629
   1 C :   -0.123560
   2 C :   -0.074589
   3 C :    0.022694
   4 C :   -0.118706
   5 H :    0.001838
   6 C :    0.031028
   7 H :    0.033607
   8 H :    0.036859
   9 C :   -0.037919
  10 H :    0.028483
  11 H :    0.032092
  12 C :   -0.047497
  13 H :    0.031303
  14 H :    0.016403
  15 H :    0.020390
  16 S :    0.098191
  17 C :   -0.052861
  18 C :   -0.024129
  19 C :   -0.019653
  20 C :   -0.159463
  21 H :    0.012171
  22 C :    0.064748
  23 H :    0.032364
  24 H :    0.016720
  25 C :   -0.082611
  26 H :    0.012197
  27 H :    0.031442
  28 C :   -0.052466
  29 H :    0.045182
  30 H :    0.029861
  31 H :    0.037299
  32 H :    0.053850
  33 H :    0.016102
Sum of atomic charges:   -0.0000000

LOEWDIN ATOMIC CHARGES
----------------------
   0 S :    0.384227
   1 C :   -0.184193
   2 C :   -0.064736
   3 C :   -0.063604
   4 C :   -0.178167
   5 H :    0.027219
   6 C :   -0.026924
   7 H :    0.036159
   8 H :    0.030671
   9 C :   -0.038932
  10 H :    0.024566
  11 H :    0.027040
  12 C :   -0.066157
  13 H :    0.026715
  14 H :    0.014678
  15 H :    0.023594
  16 S :    0.388462
  17 C :   -0.142807
  18 C :   -0.061520
  19 C :   -0.053951
  20 C :   -0.212114
  21 H :    0.030454
  22 C :   -0.021809
  23 H :    0.027867
  24 H :    0.024339
  25 C :   -0.044155
  26 H :    0.013519
  27 H :    0.023764
  28 C :   -0.067998
  29 H :    0.034114
  30 H :    0.024282
  31 H :    0.026969
  32 H :    0.028522
  33 H :    0.009909

  Mayer bond orders larger than 0.100000
B(  0-S ,  1-C ) :   1.1292 B(  0-S ,  4-C ) :   1.1541 B(  1-C ,  2-C ) :   1.6252
B(  1-C , 32-H ) :   0.9726 B(  2-C ,  3-C ) :   1.2009 B(  2-C ,  6-C ) :   1.0214
B(  3-C ,  4-C ) :   1.5990 B(  3-C ,  5-H ) :   1.0100 B(  4-C , 20-C ) :   0.9986
B(  6-C ,  7-H ) :   0.9406 B(  6-C ,  8-H ) :   0.9451 B(  6-C ,  9-C ) :   1.0584
B(  9-C , 10-H ) :   0.9547 B(  9-C , 11-H ) :   0.9503 B(  9-C , 12-C ) :   1.0968
B( 12-C , 13-H ) :   0.9665 B( 12-C , 14-H ) :   0.9721 B( 12-C , 15-H ) :   0.9685
B( 16-S , 17-C ) :   1.1260 B( 16-S , 20-C ) :   1.1332 B( 17-C , 18-C ) :   1.6627
B( 17-C , 33-H ) :   0.9767 B( 18-C , 19-C ) :   1.1909 B( 18-C , 21-H ) :   0.9959
B( 19-C , 20-C ) :   1.6393 B( 19-C , 22-C ) :   1.0339 B( 22-C , 23-H ) :   0.9425
B( 22-C , 24-H ) :   0.9373 B( 22-C , 25-C ) :   1.0549 B( 25-C , 26-H ) :   0.9538
B( 25-C , 27-H ) :   0.9534 B( 25-C , 28-C ) :   1.0881 B( 28-C , 29-H ) :   0.9727
B( 28-C , 30-H ) :   0.9743 B( 28-C , 31-H ) :   0.9722

Dispersion correction           -0.015292220
FINAL SINGLE POINT ENERGY     -1339.872734629465

DIPOLE MOMENT
-------------
                                X             Y             Z
Electronic contribution:     19.26904      25.03306       6.30866
Nuclear contribution   :    -19.73449     -25.54061      -6.62829
                        -----------------------------------------
Total Dipole Moment    :     -0.46545      -0.50755      -0.31963
                        -----------------------------------------
Magnitude (a.u.)       :      0.75922
Magnitude (Debye)      :      1.92978

Rotational constants in cm-1:     0.016948     0.010706     0.006939
Rotational constants in MHz :   508.092471   320.961246   208.017116

                             ****ORCA TERMINATED NORMALLY****
TOTAL RUN TIME: 0 days 0 hours 0 minutes 23 seconds 882 msec
