                         Program Version 4.2.1 -  RELEASE  -
|  1> ! wB97X-D3 SP def2-SVP
|  2> %pal
|  3> nprocs 24
|  4> end
|  5>
|  6> * xyz 0 1
|  7> S 	 47.3318 	 -21.2667 	 -114.599
|  8> C 	 46.4764 	 -22.7881 	 -114.466
|  9> C 	 47.2923 	 -23.8523 	 -114.263
| 10> C 	 48.6677 	 -23.5077 	 -114.359
| 11> C 	 48.8702 	 -22.1637 	 -114.493
| 12> H 	 49.4889 	 -24.1966 	 -114.207
| 13> C 	 46.8346 	 -25.2854 	 -114.077
| 14> H 	 47.6895 	 -25.9848 	 -113.729
| 15> H 	 46.4565 	 -25.5721 	 -115.142
| 16> C 	 45.6071 	 -25.4278 	 -113.127
| 17> H 	 44.7339 	 -24.9545 	 -113.656
| 18> H 	 45.2629 	 -26.4896 	 -113.055
| 19> C 	 45.8401 	 -24.8552 	 -111.723
| 20> H 	 44.9749 	 -25.0884 	 -111.088
| 21> H 	 46.7836 	 -25.3483 	 -111.384
| 22> H 	 45.9779 	 -23.7685 	 -111.755
| 23> S 	 50.6493 	 -20.6167 	 -115.881
| 24> C 	 52.3908 	 -20.724 	 -115.35
| 25> C 	 52.4765 	 -21.2708 	 -114.097
| 26> C 	 51.2484 	 -21.7187 	 -113.591
| 27> C 	 50.1617 	 -21.5174 	 -114.449
| 28> H 	 53.4069 	 -21.5322 	 -113.706
| 29> C 	 51.1456 	 -22.5011 	 -112.299
| 30> H 	 50.1426 	 -23.0059 	 -112.191
| 31> H 	 51.1356 	 -21.8002 	 -111.461
| 32> C 	 52.2519 	 -23.5153 	 -112.013
| 33> H 	 53.2638 	 -23.1029 	 -111.8
| 34> H 	 52.4715 	 -23.9473 	 -112.983
| 35> C 	 51.9429 	 -24.5622 	 -110.973
| 36> H 	 51.0776 	 -25.2475 	 -111.131
| 37> H 	 51.749 	 -24.1033 	 -109.982
| 38> H 	 52.8325 	 -25.1629 	 -110.756
| 39> H 	 45.3926 	 -22.9738 	 -114.486
| 40> H 	 53.2347 	 -20.4743 	 -116.039
| 41> *
| 42>
| 43>                          ****END OF INPUT****

CARTESIAN COORDINATES (ANGSTROEM)
---------------------------------
  S     47.331800  -21.266700  -114.599000
  C     46.476400  -22.788100  -114.466000
  C     47.292300  -23.852300  -114.263000
  C     48.667700  -23.507700  -114.359000
  C     48.870200  -22.163700  -114.493000
  H     49.488900  -24.196600  -114.207000
  C     46.834600  -25.285400  -114.077000
  H     47.689500  -25.984800  -113.729000
  H     46.456500  -25.572100  -115.142000
  C     45.607100  -25.427800  -113.127000
  H     44.733900  -24.954500  -113.656000
  H     45.262900  -26.489600  -113.055000
  C     45.840100  -24.855200  -111.723000
  H     44.974900  -25.088400  -111.088000
  H     46.783600  -25.348300  -111.384000
  H     45.977900  -23.768500  -111.755000
  S     50.649300  -20.616700  -115.881000
  C     52.390800  -20.724000  -115.350000
  C     52.476500  -21.270800  -114.097000
  C     51.248400  -21.718700  -113.591000
  C     50.161700  -21.517400  -114.449000
  H     53.406900  -21.532200  -113.706000
  C     51.145600  -22.501100  -112.299000
  H     50.142600  -23.005900  -112.191000
  H     51.135600  -21.800200  -111.461000
  C     52.251900  -23.515300  -112.013000
  H     53.263800  -23.102900  -111.800000
  H     52.471500  -23.947300  -112.983000
  C     51.942900  -24.562200  -110.973000
  H     51.077600  -25.247500  -111.131000
  H     51.749000  -24.103300  -109.982000
  H     52.832500  -25.162900  -110.756000
  H     45.392600  -22.973800  -114.486000
  H     53.234700  -20.474300  -116.039000

 Total Charge           Charge          ....    0
 Multiplicity           Mult            ....    1
 Number of Electrons    NEL             ....  134
 Basis Dimension        Dim             ....  322

ORBITAL ENERGIES
----------------

  NO   OCC          E(Eh)            E(eV)
   0   2.0000     -88.968186     -2420.9474
   1   2.0000     -88.963923     -2420.8314
   2   2.0000     -10.328178      -281.0440
   3   2.0000     -10.327805      -281.0339
   4   2.0000     -10.325585      -280.9735
   5   2.0000     -10.310136      -280.5531
   6   2.0000     -10.308854      -280.5182
   7   2.0000     -10.304772      -280.4071
   8   2.0000     -10.295744      -280.1614
   9   2.0000     -10.295261      -280.1483
  10   2.0000     -10.292590      -280.0756
  11   2.0000     -10.291747      -280.0527
  12   2.0000     -10.291008      -280.0326
  13   2.0000     -10.289120      -279.9812
  14   2.0000     -10.284999      -279.8691
  15   2.0000     -10.281639      -279.7776
  16   2.0000      -8.082280      -219.9300
  17   2.0000      -8.077779      -219.8075
  18   2.0000      -6.040924      -164.3819
  19   2.0000      -6.037056      -164.2766
  20   2.0000      -6.036337      -164.2571
  21   2.0000      -6.032762      -164.1598
  22   2.0000      -6.032452      -164.1514
  23   2.0000      -6.028487      -164.0435
  24   2.0000      -1.005665       -27.3655
  25   2.0000      -0.982777       -26.7427
  26   2.0000      -0.910460       -24.7749
  27   2.0000      -0.907335       -24.6898
  28   2.0000      -0.870375       -23.6841
  29   2.0000      -0.852270       -23.1915
  30   2.0000      -0.846328       -23.0298
  31   2.0000      -0.814776       -22.1712
  32   2.0000      -0.779418       -21.2091
  33   2.0000      -0.768493       -20.9117
  34   2.0000      -0.707863       -19.2619
  35   2.0000      -0.702483       -19.1155
  36   2.0000      -0.693474       -18.8704
  37   2.0000      -0.661122       -17.9900
  38   2.0000      -0.633970       -17.2512
  39   2.0000      -0.611277       -16.6337
  40   2.0000      -0.597741       -16.2654
  41   2.0000      -0.574102       -15.6221
  42   2.0000      -0.562056       -15.2943
  43   2.0000      -0.551197       -14.9988
  44   2.0000      -0.541631       -14.7385
  45   2.0000      -0.525281       -14.2936
  46   2.0000      -0.512751       -13.9527
  47   2.0000      -0.508177       -13.8282
  48   2.0000      -0.501717       -13.6524
  49   2.0000      -0.494268       -13.4497
  50   2.0000      -0.487328       -13.2609
  51   2.0000      -0.482525       -13.1302
  52   2.0000      -0.475713       -12.9448
  53   2.0000      -0.467465       -12.7204
  54   2.0000      -0.459638       -12.5074
  55   2.0000      -0.451290       -12.2802
  56   2.0000      -0.440799       -11.9947
  57   2.0000      -0.434504       -11.8235
  58   2.0000      -0.431130       -11.7316
  59   2.0000      -0.424852       -11.5608
  60   2.0000      -0.423920       -11.5355
  61   2.0000      -0.416006       -11.3201
  62   2.0000      -0.407945       -11.1008
  63   2.0000      -0.347779        -9.4636
  64   2.0000      -0.333524        -9.0756
  65   2.0000      -0.325887        -8.8678
  66   2.0000      -0.291913        -7.9434
  67   0.0000       0.029407         0.8002
  68   0.0000       0.060816         1.6549
  69   0.0000       0.104412         2.8412
  70   0.0000       0.117306         3.1921
  71   0.0000       0.123898         3.3714

MULLIKEN ATOMIC CHARGES
-----------------------
   0 S :    0.115940
   1 C :   -0.114670
   2 C :   -0.092015
   3 C :    0.029552
   4 C :   -0.146732
   5 H :    0.014940
   6 C :    0.000648
   7 H :    0.046344
   8 H :    0.064905
   9 C :   -0.117275
  10 H :    0.024317
  11 H :    0.036192
  12 C :   -0.043954
  13 H :    0.044360
  14 H :    0.033228
  15 H :    0.048968
  16 S :    0.086263
  17 C :   -0.121597
  18 C :    0.011233
  19 C :   -0.032210
  20 C :   -0.148069
  21 H :    0.002045
  22 C :    0.065804
  23 H :    0.035547
  24 H :    0.032389
  25 C :   -0.095018
  26 H :    0.029326
  27 H :    0.019304
  28 C :   -0.051774
  29 H :    0.039488
  30 H :    0.026242
  31 H :    0.032519
  32 H :    0.043512
  33 H :    0.080251
Sum of atomic charges:    0.0000000

LOEWDIN ATOMIC CHARGES
----------------------
   0 S :    0.389966
   1 C :   -0.202828
   2 C :   -0.073131
   3 C :   -0.056774
   4 C :   -0.182149
   5 H :    0.033034
   6 C :   -0.043408
   7 H :    0.036494
   8 H :    0.050129
   9 C :   -0.055186
  10 H :    0.020409
  11 H :    0.027759
  12 C :   -0.068475
  13 H :    0.029209
  14 H :    0.029628
  15 H :    0.027756
  16 S :    0.371082
  17 C :   -0.157831
  18 C :   -0.065416
  19 C :   -0.051345
  20 C :   -0.196658
  21 H :    0.024893
  22 C :   -0.037468
  23 H :    0.038019
  24 H :    0.033108
  25 C :   -0.054111
  26 H :    0.027411
  27 H :    0.019830
  28 C :   -0.071153
  29 H :    0.027764
  30 H :    0.027744
  31 H :    0.029865
  32 H :    0.031861
  33 H :    0.039969

  Mayer bond orders larger than 0.100000
B(  0-S ,  1-C ) :   1.1168 B(  0-S ,  4-C ) :   1.1344 B(  1-C ,  2-C ) :   1.6503
B(  1-C , 32-H ) :   0.9586 B(  2-C ,  3-C ) :   1.2263 B(  2-C ,  6-C ) :   0.9994
B(  3-C ,  4-C ) :   1.5941 B(  3-C ,  5-H ) :   0.9968 B(  4-C , 20-C ) :   1.0256
B(  6-C ,  7-H ) :   0.9497 B(  6-C ,  8-H ) :   0.9390 B(  6-C ,  9-C ) :   1.0708
B(  9-C , 10-H ) :   0.9487 B(  9-C , 11-H ) :   0.9564 B(  9-C , 12-C ) :   1.0686
B( 12-C , 13-H ) :   0.9741 B( 12-C , 14-H ) :   0.9746 B( 12-C , 15-H ) :   0.9712
B( 16-S , 17-C ) :   1.1461 B( 16-S , 20-C ) :   1.1330 B( 17-C , 18-C ) :   1.6067
B( 17-C , 20-C ) :   0.1012 B( 17-C , 33-H ) :   0.9623 B( 18-C , 19-C ) :   1.2395
B( 18-C , 21-H ) :   0.9972 B( 19-C , 20-C ) :   1.5978 B( 19-C , 22-C ) :   1.0441
B( 22-C , 23-H ) :   0.9422 B( 22-C , 24-H ) :   0.9188 B( 22-C , 25-C ) :   1.0490
B( 25-C , 26-H ) :   0.9416 B( 25-C , 27-H ) :   0.9598 B( 25-C , 28-C ) :   1.0955
B( 28-C , 29-H ) :   0.9737 B( 28-C , 30-H ) :   0.9708 B( 28-C , 31-H ) :   0.9712

Dispersion correction           -0.014727003
FINAL SINGLE POINT ENERGY     -1339.879241948677

DIPOLE MOMENT
-------------
                                X             Y             Z
Electronic contribution:      0.87591      23.22822     -20.02406
Nuclear contribution   :     -0.61422     -23.94815      20.40161
                        -----------------------------------------
Total Dipole Moment    :      0.26169      -0.71993       0.37755
                        -----------------------------------------
Magnitude (a.u.)       :      0.85400
Magnitude (Debye)      :      2.17070

Rotational constants in cm-1:     0.017856     0.009541     0.006759
Rotational constants in MHz :   535.317360   286.038096   202.620127

                             ****ORCA TERMINATED NORMALLY****
TOTAL RUN TIME: 0 days 0 hours 0 minutes 22 seconds 155 msec
