                         Program Version 4.2.1 -  RELEASE  -
|  1> ! wB97X-D3 SP def2-SVP
|  2> %pal
|  3> nprocs 24
|  4> end
|  5>
|  6> * xyz 0 1
|  7> S 	 -121.155 	 61.2282 	 -50.3419
|  8> C 	 -120.769 	 61.5349 	 -48.6637
|  9> C 	 -121.827 	 62.3282 	 -48.1421
| 10> C 	 -122.92 	 62.6349 	 -49.0329
| 11> C 	 -122.681 	 62.0641 	 -50.2524
| 12> H 	 -123.875 	 63.0387 	 -48.8917
| 13> C 	 -121.856 	 62.698 	 -46.6734
| 14> H 	 -120.874 	 62.3388 	 -46.3965
| 15> H 	 -122.603 	 62.0707 	 -46.1344
| 16> C 	 -122.01 	 64.1614 	 -46.2427
| 17> H 	 -122.019 	 64.2438 	 -45.1732
| 18> H 	 -121.152 	 64.7235 	 -46.5244
| 19> C 	 -123.302 	 64.7654 	 -46.7934
| 20> H 	 -123.296 	 64.9914 	 -47.8849
| 21> H 	 -124.155 	 63.9848 	 -46.7088
| 22> H 	 -123.626 	 65.6879 	 -46.3713
| 23> S 	 -122.996 	 63.179 	 -52.8276
| 24> C 	 -124.564 	 63.0048 	 -53.5836
| 25> C 	 -125.533 	 62.4297 	 -52.7167
| 26> C 	 -124.918 	 61.9553 	 -51.5735
| 27> C 	 -123.566 	 62.2188 	 -51.4343
| 28> H 	 -126.519 	 62.2787 	 -52.9662
| 29> C 	 -125.712 	 61.236 	 -50.5264
| 30> H 	 -124.966 	 60.6647 	 -49.9449
| 31> H 	 -126.37 	 60.4409 	 -50.9199
| 32> C 	 -126.577 	 62.2723 	 -49.6936
| 33> H 	 -127.34 	 62.8714 	 -50.2212
| 34> H 	 -125.884 	 63.0191 	 -49.2818
| 35> C 	 -127.305 	 61.48 	 -48.5967
| 36> H 	 -128.054 	 60.787 	 -49.021
| 37> H 	 -127.847 	 62.1902 	 -47.9963
| 38> H 	 -126.625 	 60.8364 	 -48.0096
| 39> H 	 -119.829 	 61.1821 	 -48.2604
| 40> H 	 -124.809 	 63.4927 	 -54.4824
| 41> *
| 42>
| 43>                          ****END OF INPUT****

CARTESIAN COORDINATES (ANGSTROEM)
---------------------------------
  S    -121.155000   61.228200  -50.341900
  C    -120.769000   61.534900  -48.663700
  C    -121.827000   62.328200  -48.142100
  C    -122.920000   62.634900  -49.032900
  C    -122.681000   62.064100  -50.252400
  H    -123.875000   63.038700  -48.891700
  C    -121.856000   62.698000  -46.673400
  H    -120.874000   62.338800  -46.396500
  H    -122.603000   62.070700  -46.134400
  C    -122.010000   64.161400  -46.242700
  H    -122.019000   64.243800  -45.173200
  H    -121.152000   64.723500  -46.524400
  C    -123.302000   64.765400  -46.793400
  H    -123.296000   64.991400  -47.884900
  H    -124.155000   63.984800  -46.708800
  H    -123.626000   65.687900  -46.371300
  S    -122.996000   63.179000  -52.827600
  C    -124.564000   63.004800  -53.583600
  C    -125.533000   62.429700  -52.716700
  C    -124.918000   61.955300  -51.573500
  C    -123.566000   62.218800  -51.434300
  H    -126.519000   62.278700  -52.966200
  C    -125.712000   61.236000  -50.526400
  H    -124.966000   60.664700  -49.944900
  H    -126.370000   60.440900  -50.919900
  C    -126.577000   62.272300  -49.693600
  H    -127.340000   62.871400  -50.221200
  H    -125.884000   63.019100  -49.281800
  C    -127.305000   61.480000  -48.596700
  H    -128.054000   60.787000  -49.021000
  H    -127.847000   62.190200  -47.996300
  H    -126.625000   60.836400  -48.009600
  H    -119.829000   61.182100  -48.260400
  H    -124.809000   63.492700  -54.482400

 Total Charge           Charge          ....    0
 Multiplicity           Mult            ....    1
 Number of Electrons    NEL             ....  134
 Basis Dimension        Dim             ....  322

ORBITAL ENERGIES
----------------

  NO   OCC          E(Eh)            E(eV)
   0   2.0000     -88.967579     -2420.9309
   1   2.0000     -88.963660     -2420.8243
   2   2.0000     -10.328278      -281.0467
   3   2.0000     -10.324810      -280.9524
   4   2.0000     -10.320996      -280.8486
   5   2.0000     -10.318191      -280.7723
   6   2.0000     -10.309196      -280.5275
   7   2.0000     -10.295790      -280.1627
   8   2.0000     -10.294915      -280.1389
   9   2.0000     -10.293339      -280.0960
  10   2.0000     -10.290461      -280.0177
  11   2.0000     -10.288823      -279.9731
  12   2.0000     -10.287898      -279.9479
  13   2.0000     -10.282994      -279.8145
  14   2.0000     -10.282110      -279.7904
  15   2.0000     -10.280109      -279.7360
  16   2.0000      -8.081590      -219.9113
  17   2.0000      -8.078732      -219.8335
  18   2.0000      -6.039940      -164.3551
  19   2.0000      -6.037132      -164.2787
  20   2.0000      -6.036230      -164.2542
  21   2.0000      -6.033042      -164.1674
  22   2.0000      -6.032546      -164.1539
  23   2.0000      -6.029731      -164.0773
  24   2.0000      -1.004288       -27.3281
  25   2.0000      -0.982740       -26.7417
  26   2.0000      -0.909903       -24.7597
  27   2.0000      -0.906240       -24.6600
  28   2.0000      -0.867325       -23.6011
  29   2.0000      -0.854201       -23.2440
  30   2.0000      -0.844192       -22.9716
  31   2.0000      -0.816594       -22.2207
  32   2.0000      -0.778586       -21.1864
  33   2.0000      -0.764062       -20.7912
  34   2.0000      -0.705116       -19.1872
  35   2.0000      -0.702567       -19.1178
  36   2.0000      -0.695916       -18.9368
  37   2.0000      -0.667896       -18.1744
  38   2.0000      -0.653556       -17.7842
  39   2.0000      -0.611610       -16.6428
  40   2.0000      -0.595775       -16.2119
  41   2.0000      -0.573328       -15.6011
  42   2.0000      -0.562297       -15.3009
  43   2.0000      -0.546726       -14.8772
  44   2.0000      -0.540436       -14.7060
  45   2.0000      -0.533827       -14.5262
  46   2.0000      -0.521497       -14.1907
  47   2.0000      -0.513494       -13.9729
  48   2.0000      -0.504589       -13.7306
  49   2.0000      -0.494750       -13.4628
  50   2.0000      -0.487809       -13.2740
  51   2.0000      -0.480000       -13.0615
  52   2.0000      -0.467601       -12.7241
  53   2.0000      -0.463762       -12.6196
  54   2.0000      -0.458401       -12.4737
  55   2.0000      -0.450535       -12.2597
  56   2.0000      -0.445902       -12.1336
  57   2.0000      -0.439002       -11.9459
  58   2.0000      -0.427893       -11.6436
  59   2.0000      -0.426970       -11.6184
  60   2.0000      -0.421663       -11.4740
  61   2.0000      -0.411752       -11.2043
  62   2.0000      -0.410673       -11.1750
  63   2.0000      -0.341671        -9.2973
  64   2.0000      -0.332248        -9.0409
  65   2.0000      -0.324794        -8.8381
  66   2.0000      -0.295965        -8.0536
  67   0.0000       0.032997         0.8979
  68   0.0000       0.060937         1.6582
  69   0.0000       0.113256         3.0819
  70   0.0000       0.118505         3.2247
  71   0.0000       0.130763         3.5582

MULLIKEN ATOMIC CHARGES
-----------------------
   0 S :    0.107185
   1 C :   -0.130792
   2 C :   -0.089492
   3 C :    0.100295
   4 C :   -0.180881
   5 H :   -0.046768
   6 C :    0.043292
   7 H :    0.000584
   8 H :    0.047673
   9 C :   -0.001450
  10 H :    0.024226
  11 H :    0.020402
  12 C :   -0.094295
  13 H :    0.045629
  14 H :    0.032313
  15 H :    0.027128
  16 S :    0.110072
  17 C :   -0.074811
  18 C :   -0.001189
  19 C :   -0.021557
  20 C :   -0.147522
  21 H :   -0.012231
  22 C :    0.027385
  23 H :    0.040434
  24 H :    0.028590
  25 C :   -0.095846
  26 H :    0.038241
  27 H :    0.031299
  28 C :   -0.029420
  29 H :    0.030318
  30 H :    0.030576
  31 H :    0.034053
  32 H :    0.062450
  33 H :    0.044110
Sum of atomic charges:   -0.0000000

LOEWDIN ATOMIC CHARGES
----------------------
   0 S :    0.409694
   1 C :   -0.203569
   2 C :   -0.053668
   3 C :   -0.057879
   4 C :   -0.191971
   5 H :    0.022137
   6 C :   -0.036583
   7 H :    0.025968
   8 H :    0.035185
   9 C :   -0.035589
  10 H :    0.025246
  11 H :    0.022126
  12 C :   -0.074146
  13 H :    0.029524
  14 H :    0.028829
  15 H :    0.018978
  16 S :    0.401502
  17 C :   -0.169210
  18 C :   -0.056779
  19 C :   -0.060199
  20 C :   -0.200116
  21 H :    0.019399
  22 C :   -0.033324
  23 H :    0.035061
  24 H :    0.030674
  25 C :   -0.036470
  26 H :    0.028736
  27 H :    0.019943
  28 C :   -0.066373
  29 H :    0.026797
  30 H :    0.022065
  31 H :    0.026753
  32 H :    0.031111
  33 H :    0.016146

  Mayer bond orders larger than 0.100000
B(  0-S ,  1-C ) :   1.1388 B(  0-S ,  4-C ) :   1.1721 B(  1-C ,  2-C ) :   1.5823
B(  1-C , 32-H ) :   0.9749 B(  2-C ,  3-C ) :   1.2132 B(  2-C ,  6-C ) :   1.0279
B(  3-C ,  4-C ) :   1.5717 B(  3-C ,  5-H ) :   0.9978 B(  4-C , 20-C ) :   1.0025
B(  6-C ,  7-H ) :   0.9347 B(  6-C ,  8-H ) :   0.9407 B(  6-C ,  9-C ) :   1.0809
B(  9-C , 10-H ) :   0.9526 B(  9-C , 11-H ) :   0.9507 B(  9-C , 12-C ) :   1.0797
B( 12-C , 13-H ) :   0.9654 B( 12-C , 14-H ) :   0.9709 B( 12-C , 15-H ) :   0.9702
B( 16-S , 17-C ) :   1.1847 B( 16-S , 20-C ) :   1.1375 B( 17-C , 18-C ) :   1.5512
B( 17-C , 20-C ) :   0.1078 B( 17-C , 33-H ) :   0.9716 B( 18-C , 19-C ) :   1.2776
B( 18-C , 21-H ) :   1.0058 B( 19-C , 20-C ) :   1.5844 B( 19-C , 22-C ) :   1.0504
B( 22-C , 23-H ) :   0.9368 B( 22-C , 24-H ) :   0.9406 B( 22-C , 25-C ) :   1.0400
B( 25-C , 26-H ) :   0.9544 B( 25-C , 27-H ) :   0.9540 B( 25-C , 28-C ) :   1.0833
B( 28-C , 29-H ) :   0.9732 B( 28-C , 30-H ) :   0.9735 B( 28-C , 31-H ) :   0.9742

Dispersion correction           -0.015296232
FINAL SINGLE POINT ENERGY     -1339.871115989273

DIPOLE MOMENT
-------------
                                X             Y             Z
Electronic contribution:     16.73718      -4.67582     -23.15667
Nuclear contribution   :    -17.21694       4.81382      23.61374
                        -----------------------------------------
Total Dipole Moment    :     -0.47975       0.13800       0.45707
                        -----------------------------------------
Magnitude (a.u.)       :      0.67685
Magnitude (Debye)      :      1.72041

Rotational constants in cm-1:     0.016461     0.010313     0.007768
Rotational constants in MHz :   493.476853   309.166423   232.878627

                             ****ORCA TERMINATED NORMALLY****
TOTAL RUN TIME: 0 days 0 hours 0 minutes 21 seconds 599 msec
