                         Program Version 4.2.1 -  RELEASE  -
|  1> ! wB97X-D3 SP def2-SVP
|  2> %pal
|  3> nprocs 24
|  4> end
|  5>
|  6> * xyz 0 1
|  7> S 	 -39.6278 	 7.76378 	 27.0679
|  8> C 	 -41.3246 	 7.65288 	 26.8821
|  9> C 	 -41.9663 	 8.52608 	 27.794
| 10> C 	 -41.0875 	 9.36662 	 28.5433
| 11> C 	 -39.7557 	 8.965 	 28.4185
| 12> H 	 -41.2805 	 9.96609 	 29.3609
| 13> C 	 -43.5016 	 8.6486 	 27.9333
| 14> H 	 -43.7539 	 8.8207 	 26.8571
| 15> H 	 -43.734 	 9.43162 	 28.5578
| 16> C 	 -44.2511 	 7.35459 	 28.3107
| 17> H 	 -44.0327 	 6.51539 	 27.6096
| 18> H 	 -43.8836 	 6.93545 	 29.2491
| 19> C 	 -45.7405 	 7.6526 	 28.4704
| 20> H 	 -46.2739 	 6.96512 	 27.7961
| 21> H 	 -46.186 	 7.7152 	 29.4226
| 22> H 	 -46.0191 	 8.61921 	 27.9953
| 23> S 	 -37.5785 	 10.7752 	 28.9257
| 24> C 	 -36.9593 	 10.8452 	 30.5458
| 25> C 	 -37.6695 	 10.0407 	 31.3814
| 26> C 	 -38.5885 	 9.13621 	 30.7115
| 27> C 	 -38.6868 	 9.4392 	 29.3705
| 28> H 	 -37.4212 	 10.1019 	 32.4404
| 29> C 	 -39.2706 	 8.0644 	 31.5522
| 30> H 	 -38.4091 	 7.45294 	 31.9212
| 31> H 	 -39.7458 	 7.2659 	 30.8864
| 32> C 	 -40.1892 	 8.54373 	 32.7683
| 33> H 	 -39.771 	 9.39564 	 33.2286
| 34> H 	 -40.3331 	 7.8764 	 33.5898
| 35> C 	 -41.586 	 8.87553 	 32.1086
| 36> H 	 -42.0284 	 8.05048 	 31.5667
| 37> H 	 -41.5235 	 9.73838 	 31.4787
| 38> H 	 -42.2524 	 9.16047 	 32.8656
| 39> H 	 -41.8929 	 7.08289 	 26.1267
| 40> H 	 -36.3079 	 11.6214 	 30.9646
| 41> *
| 42>
| 43>                          ****END OF INPUT****

CARTESIAN COORDINATES (ANGSTROEM)
---------------------------------
  S    -39.627800    7.763780   27.067900
  C    -41.324600    7.652880   26.882100
  C    -41.966300    8.526080   27.794000
  C    -41.087500    9.366620   28.543300
  C    -39.755700    8.965000   28.418500
  H    -41.280500    9.966090   29.360900
  C    -43.501600    8.648600   27.933300
  H    -43.753900    8.820700   26.857100
  H    -43.734000    9.431620   28.557800
  C    -44.251100    7.354590   28.310700
  H    -44.032700    6.515390   27.609600
  H    -43.883600    6.935450   29.249100
  C    -45.740500    7.652600   28.470400
  H    -46.273900    6.965120   27.796100
  H    -46.186000    7.715200   29.422600
  H    -46.019100    8.619210   27.995300
  S    -37.578500   10.775200   28.925700
  C    -36.959300   10.845200   30.545800
  C    -37.669500   10.040700   31.381400
  C    -38.588500    9.136210   30.711500
  C    -38.686800    9.439200   29.370500
  H    -37.421200   10.101900   32.440400
  C    -39.270600    8.064400   31.552200
  H    -38.409100    7.452940   31.921200
  H    -39.745800    7.265900   30.886400
  C    -40.189200    8.543730   32.768300
  H    -39.771000    9.395640   33.228600
  H    -40.333100    7.876400   33.589800
  C    -41.586000    8.875530   32.108600
  H    -42.028400    8.050480   31.566700
  H    -41.523500    9.738380   31.478700
  H    -42.252400    9.160470   32.865600
  H    -41.892900    7.082890   26.126700
  H    -36.307900   11.621400   30.964600

 Total Charge           Charge          ....    0
 Multiplicity           Mult            ....    1
 Number of Electrons    NEL             ....  134
 Basis Dimension        Dim             ....  322

ORBITAL ENERGIES
----------------

  NO   OCC          E(Eh)            E(eV)
   0   2.0000     -88.967672     -2420.9334
   1   2.0000     -88.963966     -2420.8326
   2   2.0000     -10.334943      -281.2281
   3   2.0000     -10.332966      -281.1743
   4   2.0000     -10.316287      -280.7204
   5   2.0000     -10.315925      -280.7106
   6   2.0000     -10.310215      -280.5552
   7   2.0000     -10.304340      -280.3953
   8   2.0000     -10.302697      -280.3506
   9   2.0000     -10.293710      -280.1061
  10   2.0000     -10.291827      -280.0549
  11   2.0000     -10.290088      -280.0075
  12   2.0000     -10.289799      -279.9997
  13   2.0000     -10.289550      -279.9929
  14   2.0000     -10.276201      -279.6296
  15   2.0000     -10.272909      -279.5401
  16   2.0000      -8.081552      -219.9102
  17   2.0000      -8.078452      -219.8259
  18   2.0000      -6.040045      -164.3580
  19   2.0000      -6.037032      -164.2760
  20   2.0000      -6.035999      -164.2479
  21   2.0000      -6.033116      -164.1694
  22   2.0000      -6.032547      -164.1540
  23   2.0000      -6.029007      -164.0576
  24   2.0000      -0.998545       -27.1718
  25   2.0000      -0.980589       -26.6832
  26   2.0000      -0.907246       -24.6874
  27   2.0000      -0.900284       -24.4980
  28   2.0000      -0.866570       -23.5806
  29   2.0000      -0.848431       -23.0870
  30   2.0000      -0.846148       -23.0249
  31   2.0000      -0.814440       -22.1620
  32   2.0000      -0.777947       -21.1690
  33   2.0000      -0.765620       -20.8336
  34   2.0000      -0.715360       -19.4659
  35   2.0000      -0.705387       -19.1946
  36   2.0000      -0.692120       -18.8335
  37   2.0000      -0.651775       -17.7357
  38   2.0000      -0.646487       -17.5918
  39   2.0000      -0.610414       -16.6102
  40   2.0000      -0.592601       -16.1255
  41   2.0000      -0.574538       -15.6340
  42   2.0000      -0.559554       -15.2262
  43   2.0000      -0.551548       -15.0084
  44   2.0000      -0.535317       -14.5667
  45   2.0000      -0.522953       -14.2303
  46   2.0000      -0.514177       -13.9915
  47   2.0000      -0.510814       -13.9000
  48   2.0000      -0.503676       -13.7057
  49   2.0000      -0.493250       -13.4220
  50   2.0000      -0.487734       -13.2719
  51   2.0000      -0.479429       -13.0459
  52   2.0000      -0.476056       -12.9541
  53   2.0000      -0.464648       -12.6437
  54   2.0000      -0.456422       -12.4199
  55   2.0000      -0.451950       -12.2982
  56   2.0000      -0.449094       -12.2205
  57   2.0000      -0.437152       -11.8955
  58   2.0000      -0.428568       -11.6619
  59   2.0000      -0.423796       -11.5321
  60   2.0000      -0.421409       -11.4671
  61   2.0000      -0.417391       -11.3578
  62   2.0000      -0.405849       -11.0437
  63   2.0000      -0.338416        -9.2088
  64   2.0000      -0.326668        -8.8891
  65   2.0000      -0.322538        -8.7767
  66   2.0000      -0.302259        -8.2249
  67   0.0000       0.039277         1.0688
  68   0.0000       0.054790         1.4909
  69   0.0000       0.116938         3.1821
  70   0.0000       0.121406         3.3036
  71   0.0000       0.127489         3.4692

MULLIKEN ATOMIC CHARGES
-----------------------
   0 S :    0.119533
   1 C :   -0.124147
   2 C :   -0.129439
   3 C :    0.114993
   4 C :   -0.191120
   5 H :   -0.025020
   6 C :    0.087679
   7 H :    0.042537
   8 H :    0.005165
   9 C :   -0.084931
  10 H :    0.030850
  11 H :    0.026532
  12 C :   -0.040685
  13 H :    0.029965
  14 H :    0.038254
  15 H :    0.020344
  16 S :    0.101285
  17 C :   -0.087431
  18 C :   -0.057692
  19 C :   -0.012806
  20 C :   -0.175275
  21 H :    0.025379
  22 C :    0.011014
  23 H :    0.042726
  24 H :    0.042614
  25 C :   -0.029101
  26 H :    0.018229
  27 H :    0.029822
  28 C :   -0.035423
  29 H :    0.038606
  30 H :    0.027459
  31 H :    0.012920
  32 H :    0.062015
  33 H :    0.065147
Sum of atomic charges:    0.0000000

LOEWDIN ATOMIC CHARGES
----------------------
   0 S :    0.404705
   1 C :   -0.225015
   2 C :   -0.062248
   3 C :   -0.046983
   4 C :   -0.180504
   5 H :    0.017846
   6 C :   -0.025115
   7 H :    0.041392
   8 H :    0.016023
   9 C :   -0.044508
  10 H :    0.026287
  11 H :    0.022384
  12 C :   -0.070716
  13 H :    0.032198
  14 H :    0.020821
  15 H :    0.028503
  16 S :    0.388448
  17 C :   -0.189527
  18 C :   -0.077454
  19 C :   -0.050961
  20 C :   -0.192141
  21 H :    0.031795
  22 C :   -0.040130
  23 H :    0.037945
  24 H :    0.039189
  25 C :   -0.023775
  26 H :    0.018069
  27 H :    0.023046
  28 C :   -0.055961
  29 H :    0.025830
  30 H :    0.019890
  31 H :    0.016230
  32 H :    0.037189
  33 H :    0.037249

  Mayer bond orders larger than 0.100000
B(  0-S ,  1-C ) :   1.1542 B(  0-S ,  4-C ) :   1.1488 B(  1-C ,  2-C ) :   1.5736
B(  1-C ,  4-C ) :   0.1023 B(  1-C , 32-H ) :   0.9657 B(  2-C ,  3-C ) :   1.2651
B(  2-C ,  6-C ) :   1.0144 B(  3-C ,  4-C ) :   1.5650 B(  3-C ,  5-H ) :   0.9952
B(  4-C , 20-C ) :   1.0145 B(  6-C ,  7-H ) :   0.9365 B(  6-C ,  8-H ) :   0.9507
B(  6-C ,  9-C ) :   1.0671 B(  9-C , 10-H ) :   0.9604 B(  9-C , 11-H ) :   0.9595
B(  9-C , 12-C ) :   1.0576 B( 12-C , 13-H ) :   0.9744 B( 12-C , 14-H ) :   0.9799
B( 12-C , 15-H ) :   0.9743 B( 16-S , 17-C ) :   1.1438 B( 16-S , 20-C ) :   1.1232
B( 17-C , 18-C ) :   1.6687 B( 17-C , 33-H ) :   0.9587 B( 18-C , 19-C ) :   1.1989
B( 18-C , 21-H ) :   0.9830 B( 19-C , 20-C ) :   1.6324 B( 19-C , 22-C ) :   1.0347
B( 22-C , 23-H ) :   0.9364 B( 22-C , 24-H ) :   0.9441 B( 22-C , 25-C ) :   1.0459
B( 25-C , 26-H ) :   0.9598 B( 25-C , 27-H ) :   0.9617 B( 25-C , 28-C ) :   1.0719
B( 28-C , 29-H ) :   0.9781 B( 28-C , 30-H ) :   0.9767 B( 28-C , 31-H ) :   0.9670

Dispersion correction           -0.015507911
FINAL SINGLE POINT ENERGY     -1339.849459019262

DIPOLE MOMENT
-------------
                                X             Y             Z
Electronic contribution:     27.31593       6.88107     -13.93081
Nuclear contribution   :    -27.89602      -6.92699      14.62191
                        -----------------------------------------
Total Dipole Moment    :     -0.58009      -0.04592       0.69110
                        -----------------------------------------
Magnitude (a.u.)       :      0.90345
Magnitude (Debye)      :      2.29640

Rotational constants in cm-1:     0.019982     0.008648     0.006776
Rotational constants in MHz :   599.030717   259.258991   203.150265

                             ****ORCA TERMINATED NORMALLY****
TOTAL RUN TIME: 0 days 0 hours 0 minutes 22 seconds 225 msec
