                         Program Version 4.2.1 -  RELEASE  -
|  1> ! wB97X-D3 SP def2-SVP
|  2> %pal
|  3> nprocs 24
|  4> end
|  5>
|  6> * xyz 0 1
|  7> S 	 -116.336 	 54.3257 	 -37.4925
|  8> C 	 -116.102 	 52.8546 	 -38.3417
|  9> C 	 -116.898 	 52.6776 	 -39.4394
| 10> C 	 -117.653 	 53.8547 	 -39.6838
| 11> C 	 -117.474 	 54.8364 	 -38.6924
| 12> H 	 -118.2 	 54.0507 	 -40.5774
| 13> C 	 -116.784 	 51.5303 	 -40.5091
| 14> H 	 -117.54 	 50.7773 	 -40.2996
| 15> H 	 -115.799 	 51.1639 	 -40.3071
| 16> C 	 -117.059 	 51.9337 	 -41.9603
| 17> H 	 -116.76 	 51.1432 	 -42.5988
| 18> H 	 -118.103 	 52.1212 	 -42.1128
| 19> C 	 -116.103 	 53.0289 	 -42.5042
| 20> H 	 -116.222 	 53.933 	 -41.9765
| 21> H 	 -115.087 	 52.8077 	 -42.5046
| 22> H 	 -116.381 	 53.208 	 -43.5225
| 23> S 	 -119.645 	 56.2409 	 -37.7976
| 24> C 	 -119.651 	 57.9911 	 -37.8712
| 25> C 	 -118.432 	 58.4472 	 -38.335
| 26> C 	 -117.58 	 57.4317 	 -38.8356
| 27> C 	 -118.083 	 56.1766 	 -38.5838
| 28> H 	 -118.275 	 59.5368 	 -38.3309
| 29> C 	 -116.156 	 57.7689 	 -39.2952
| 30> H 	 -116.389 	 58.6883 	 -39.9511
| 31> H 	 -115.664 	 56.9972 	 -39.8205
| 32> C 	 -115.144 	 57.9886 	 -38.1182
| 33> H 	 -114.981 	 57.013 	 -37.6274
| 34> H 	 -115.645 	 58.4628 	 -37.2721
| 35> C 	 -113.796 	 58.6328 	 -38.4227
| 36> H 	 -113.219 	 58.7755 	 -37.5372
| 37> H 	 -113.962 	 59.6767 	 -38.7947
| 38> H 	 -113.216 	 57.9856 	 -39.1656
| 39> H 	 -115.351 	 52.0677 	 -38.109
| 40> H 	 -120.399 	 58.6715 	 -37.4134
| 41> *
| 42>
| 43>                          ****END OF INPUT****

CARTESIAN COORDINATES (ANGSTROEM)
---------------------------------
  S    -116.336000   54.325700  -37.492500
  C    -116.102000   52.854600  -38.341700
  C    -116.898000   52.677600  -39.439400
  C    -117.653000   53.854700  -39.683800
  C    -117.474000   54.836400  -38.692400
  H    -118.200000   54.050700  -40.577400
  C    -116.784000   51.530300  -40.509100
  H    -117.540000   50.777300  -40.299600
  H    -115.799000   51.163900  -40.307100
  C    -117.059000   51.933700  -41.960300
  H    -116.760000   51.143200  -42.598800
  H    -118.103000   52.121200  -42.112800
  C    -116.103000   53.028900  -42.504200
  H    -116.222000   53.933000  -41.976500
  H    -115.087000   52.807700  -42.504600
  H    -116.381000   53.208000  -43.522500
  S    -119.645000   56.240900  -37.797600
  C    -119.651000   57.991100  -37.871200
  C    -118.432000   58.447200  -38.335000
  C    -117.580000   57.431700  -38.835600
  C    -118.083000   56.176600  -38.583800
  H    -118.275000   59.536800  -38.330900
  C    -116.156000   57.768900  -39.295200
  H    -116.389000   58.688300  -39.951100
  H    -115.664000   56.997200  -39.820500
  C    -115.144000   57.988600  -38.118200
  H    -114.981000   57.013000  -37.627400
  H    -115.645000   58.462800  -37.272100
  C    -113.796000   58.632800  -38.422700
  H    -113.219000   58.775500  -37.537200
  H    -113.962000   59.676700  -38.794700
  H    -113.216000   57.985600  -39.165600
  H    -115.351000   52.067700  -38.109000
  H    -120.399000   58.671500  -37.413400

 Total Charge           Charge          ....    0
 Multiplicity           Mult            ....    1
 Number of Electrons    NEL             ....  134
 Basis Dimension        Dim             ....  322

ORBITAL ENERGIES
----------------

  NO   OCC          E(Eh)            E(eV)
   0   2.0000     -88.970726     -2421.0165
   1   2.0000     -88.962732     -2420.7990
   2   2.0000     -10.327374      -281.0221
   3   2.0000     -10.322830      -280.8985
   4   2.0000     -10.317804      -280.7617
   5   2.0000     -10.311052      -280.5780
   6   2.0000     -10.301668      -280.3226
   7   2.0000     -10.297575      -280.2113
   8   2.0000     -10.295769      -280.1621
   9   2.0000     -10.294732      -280.1339
  10   2.0000     -10.292643      -280.0770
  11   2.0000     -10.292636      -280.0769
  12   2.0000     -10.285448      -279.8813
  13   2.0000     -10.284632      -279.8591
  14   2.0000     -10.283772      -279.8357
  15   2.0000     -10.264847      -279.3207
  16   2.0000      -8.085750      -220.0244
  17   2.0000      -8.077558      -219.8015
  18   2.0000      -6.044114      -164.4687
  19   2.0000      -6.040180      -164.3616
  20   2.0000      -6.036686      -164.2666
  21   2.0000      -6.036041      -164.2490
  22   2.0000      -6.032034      -164.1400
  23   2.0000      -6.028347      -164.0397
  24   2.0000      -1.008273       -27.4365
  25   2.0000      -0.986887       -26.8546
  26   2.0000      -0.911717       -24.8091
  27   2.0000      -0.900791       -24.5118
  28   2.0000      -0.866619       -23.5819
  29   2.0000      -0.848516       -23.0893
  30   2.0000      -0.847021       -23.0486
  31   2.0000      -0.812899       -22.1201
  32   2.0000      -0.787506       -21.4291
  33   2.0000      -0.771898       -21.0044
  34   2.0000      -0.710802       -19.3419
  35   2.0000      -0.694275       -18.8922
  36   2.0000      -0.688082       -18.7237
  37   2.0000      -0.658315       -17.9137
  38   2.0000      -0.638483       -17.3740
  39   2.0000      -0.620144       -16.8750
  40   2.0000      -0.596855       -16.2412
  41   2.0000      -0.563850       -15.3431
  42   2.0000      -0.560156       -15.2426
  43   2.0000      -0.549309       -14.9475
  44   2.0000      -0.541880       -14.7453
  45   2.0000      -0.520541       -14.1646
  46   2.0000      -0.518941       -14.1211
  47   2.0000      -0.513867       -13.9830
  48   2.0000      -0.502527       -13.6744
  49   2.0000      -0.489616       -13.3231
  50   2.0000      -0.487997       -13.2791
  51   2.0000      -0.479148       -13.0383
  52   2.0000      -0.470444       -12.8014
  53   2.0000      -0.467836       -12.7305
  54   2.0000      -0.459694       -12.5089
  55   2.0000      -0.449481       -12.2310
  56   2.0000      -0.447985       -12.1903
  57   2.0000      -0.443670       -12.0729
  58   2.0000      -0.433091       -11.7850
  59   2.0000      -0.427831       -11.6419
  60   2.0000      -0.419732       -11.4215
  61   2.0000      -0.411596       -11.2001
  62   2.0000      -0.404713       -11.0128
  63   2.0000      -0.337532        -9.1847
  64   2.0000      -0.328692        -8.9442
  65   2.0000      -0.318281        -8.6609
  66   2.0000      -0.311388        -8.4733
  67   0.0000       0.044788         1.2187
  68   0.0000       0.057665         1.5691
  69   0.0000       0.117506         3.1975
  70   0.0000       0.122197         3.3252
  71   0.0000       0.131283         3.5724

MULLIKEN ATOMIC CHARGES
-----------------------
   0 S :    0.147310
   1 C :   -0.143987
   2 C :   -0.110855
   3 C :    0.055196
   4 C :   -0.191353
   5 H :    0.007422
   6 C :    0.114799
   7 H :    0.040811
   8 H :    0.011792
   9 C :   -0.091843
  10 H :    0.026271
  11 H :    0.037231
  12 C :   -0.015206
  13 H :    0.019795
  14 H :    0.018290
  15 H :    0.022099
  16 S :    0.115136
  17 C :   -0.108129
  18 C :   -0.065058
  19 C :   -0.005290
  20 C :   -0.188589
  21 H :    0.028581
  22 C :    0.075923
  23 H :    0.042906
  24 H :    0.022009
  25 C :   -0.091125
  26 H :    0.016226
  27 H :    0.014833
  28 C :   -0.039498
  29 H :    0.032244
  30 H :    0.035489
  31 H :    0.045596
  32 H :    0.050884
  33 H :    0.070093
Sum of atomic charges:    0.0000000

LOEWDIN ATOMIC CHARGES
----------------------
   0 S :    0.444675
   1 C :   -0.217982
   2 C :   -0.068921
   3 C :   -0.053655
   4 C :   -0.210194
   5 H :    0.027525
   6 C :   -0.020690
   7 H :    0.035188
   8 H :    0.024896
   9 C :   -0.037788
  10 H :    0.027708
  11 H :    0.023815
  12 C :   -0.053663
  13 H :    0.016439
  14 H :    0.018389
  15 H :    0.025230
  16 S :    0.408602
  17 C :   -0.193642
  18 C :   -0.076590
  19 C :   -0.060574
  20 C :   -0.207809
  21 H :    0.035318
  22 C :   -0.028157
  23 H :    0.040809
  24 H :    0.023883
  25 C :   -0.051937
  26 H :    0.018818
  27 H :    0.019631
  28 C :   -0.068396
  29 H :    0.024469
  30 H :    0.029096
  31 H :    0.033609
  32 H :    0.033345
  33 H :    0.038552

  Mayer bond orders larger than 0.100000
B(  0-S ,  1-C ) :   1.1571 B(  0-S ,  4-C ) :   1.1736 B(  1-C ,  2-C ) :   1.6326
B(  1-C , 32-H ) :   0.9532 B(  2-C ,  3-C ) :   1.2613 B(  2-C ,  6-C ) :   0.9909
B(  3-C ,  4-C ) :   1.5736 B(  3-C ,  5-H ) :   0.9917 B(  4-C , 20-C ) :   0.9926
B(  6-C ,  7-H ) :   0.9320 B(  6-C ,  8-H ) :   0.9453 B(  6-C ,  9-C ) :   1.0957
B(  9-C , 10-H ) :   0.9518 B(  9-C , 11-H ) :   0.9494 B(  9-C , 12-C ) :   1.0739
B( 12-C , 13-H ) :   0.9751 B( 12-C , 14-H ) :   0.9745 B( 12-C , 15-H ) :   0.9727
B( 16-S , 17-C ) :   1.1517 B( 16-S , 20-C ) :   1.1591 B( 17-C , 18-C ) :   1.6260
B( 17-C , 33-H ) :   0.9620 B( 18-C , 19-C ) :   1.2293 B( 18-C , 21-H ) :   0.9829
B( 19-C , 20-C ) :   1.6056 B( 19-C , 22-C ) :   1.0492 B( 22-C , 23-H ) :   0.9379
B( 22-C , 24-H ) :   0.9346 B( 22-C , 25-C ) :   1.0453 B( 25-C , 26-H ) :   0.9437
B( 25-C , 27-H ) :   0.9573 B( 25-C , 28-C ) :   1.0857 B( 28-C , 29-H ) :   0.9707
B( 28-C , 30-H ) :   0.9746 B( 28-C , 31-H ) :   0.9730

Dispersion correction           -0.014895294
FINAL SINGLE POINT ENERGY     -1339.872234596867

DIPOLE MOMENT
-------------
                                X             Y             Z
Electronic contribution:    -15.99244      -0.78097      15.74750
Nuclear contribution   :     16.33829       0.76601     -16.06838
                        -----------------------------------------
Total Dipole Moment    :      0.34585      -0.01496      -0.32088
                        -----------------------------------------
Magnitude (a.u.)       :      0.47202
Magnitude (Debye)      :      1.19977

Rotational constants in cm-1:     0.017886     0.008924     0.007602
Rotational constants in MHz :   536.217058   267.529983   227.889941

                             ****ORCA TERMINATED NORMALLY****
TOTAL RUN TIME: 0 days 0 hours 0 minutes 21 seconds 876 msec
