                         Program Version 4.2.1 -  RELEASE  -
|  1> ! wB97X-D3 SP def2-SVP
|  2> %pal
|  3> nprocs 24
|  4> end
|  5>
|  6> * xyz 0 1
|  7> S 	 -65.5567 	 8.36345 	 -76.8337
|  8> C 	 -65.5675 	 7.07808 	 -75.6085
|  9> C 	 -66.8361 	 6.85895 	 -75.0941
| 10> C 	 -67.8165 	 7.73147 	 -75.6755
| 11> C 	 -67.2744 	 8.54457 	 -76.6935
| 12> H 	 -68.8396 	 7.65083 	 -75.4824
| 13> C 	 -67.1307 	 5.77378 	 -74.0131
| 14> H 	 -67.24 	 6.41235 	 -73.1626
| 15> H 	 -66.1885 	 5.26149 	 -73.8657
| 16> C 	 -68.2071 	 4.76383 	 -74.2876
| 17> H 	 -68.1611 	 4.0863 	 -73.4501
| 18> H 	 -69.235 	 5.22375 	 -74.294
| 19> C 	 -67.8895 	 3.87687 	 -75.5288
| 20> H 	 -68.66 	 3.11783 	 -75.6582
| 21> H 	 -67.7795 	 4.45692 	 -76.4343
| 22> H 	 -66.9086 	 3.43013 	 -75.3395
| 23> S 	 -68.0389 	 11.2288 	 -77.0926
| 24> C 	 -69.382 	 11.5281 	 -78.1758
| 25> C 	 -69.865 	 10.3203 	 -78.6914
| 26> C 	 -69.2384 	 9.18207 	 -78.238
| 27> C 	 -68.1059 	 9.46556 	 -77.3971
| 28> H 	 -70.726 	 10.3265 	 -79.366
| 29> C 	 -69.7465 	 7.82324 	 -78.6806
| 30> H 	 -68.9692 	 7.16012 	 -78.4052
| 31> H 	 -69.7175 	 7.74207 	 -79.8073
| 32> C 	 -71.1218 	 7.50299 	 -77.9784
| 33> H 	 -71.8007 	 8.2648 	 -78.0604
| 34> H 	 -71.0043 	 7.27866 	 -76.911
| 35> C 	 -71.6538 	 6.25421 	 -78.6843
| 36> H 	 -70.8322 	 5.59339 	 -78.9547
| 37> H 	 -72.2325 	 6.51054 	 -79.5827
| 38> H 	 -72.2913 	 5.73518 	 -77.9954
| 39> H 	 -64.6614 	 6.54942 	 -75.3079
| 40> H 	 -69.7458 	 12.5396 	 -78.4667
| 41> *
| 42>
| 43>                          ****END OF INPUT****

CARTESIAN COORDINATES (ANGSTROEM)
---------------------------------
  S    -65.556700    8.363450  -76.833700
  C    -65.567500    7.078080  -75.608500
  C    -66.836100    6.858950  -75.094100
  C    -67.816500    7.731470  -75.675500
  C    -67.274400    8.544570  -76.693500
  H    -68.839600    7.650830  -75.482400
  C    -67.130700    5.773780  -74.013100
  H    -67.240000    6.412350  -73.162600
  H    -66.188500    5.261490  -73.865700
  C    -68.207100    4.763830  -74.287600
  H    -68.161100    4.086300  -73.450100
  H    -69.235000    5.223750  -74.294000
  C    -67.889500    3.876870  -75.528800
  H    -68.660000    3.117830  -75.658200
  H    -67.779500    4.456920  -76.434300
  H    -66.908600    3.430130  -75.339500
  S    -68.038900   11.228800  -77.092600
  C    -69.382000   11.528100  -78.175800
  C    -69.865000   10.320300  -78.691400
  C    -69.238400    9.182070  -78.238000
  C    -68.105900    9.465560  -77.397100
  H    -70.726000   10.326500  -79.366000
  C    -69.746500    7.823240  -78.680600
  H    -68.969200    7.160120  -78.405200
  H    -69.717500    7.742070  -79.807300
  C    -71.121800    7.502990  -77.978400
  H    -71.800700    8.264800  -78.060400
  H    -71.004300    7.278660  -76.911000
  C    -71.653800    6.254210  -78.684300
  H    -70.832200    5.593390  -78.954700
  H    -72.232500    6.510540  -79.582700
  H    -72.291300    5.735180  -77.995400
  H    -64.661400    6.549420  -75.307900
  H    -69.745800   12.539600  -78.466700

 Total Charge           Charge          ....    0
 Multiplicity           Mult            ....    1
 Number of Electrons    NEL             ....  134
 Basis Dimension        Dim             ....  322

ORBITAL ENERGIES
----------------

  NO   OCC          E(Eh)            E(eV)
   0   2.0000     -88.968363     -2420.9522
   1   2.0000     -88.965574     -2420.8764
   2   2.0000     -10.327307      -281.0203
   3   2.0000     -10.326212      -280.9905
   4   2.0000     -10.320101      -280.8242
   5   2.0000     -10.315543      -280.7002
   6   2.0000     -10.302354      -280.3413
   7   2.0000     -10.298356      -280.2325
   8   2.0000     -10.292615      -280.0763
   9   2.0000     -10.292355      -280.0692
  10   2.0000     -10.292033      -280.0605
  11   2.0000     -10.291569      -280.0478
  12   2.0000     -10.287352      -279.9331
  13   2.0000     -10.284634      -279.8591
  14   2.0000     -10.279976      -279.7324
  15   2.0000     -10.274366      -279.5797
  16   2.0000      -8.082783      -219.9437
  17   2.0000      -8.079366      -219.8507
  18   2.0000      -6.041218      -164.3899
  19   2.0000      -6.037797      -164.2968
  20   2.0000      -6.037297      -164.2832
  21   2.0000      -6.033892      -164.1906
  22   2.0000      -6.033691      -164.1851
  23   2.0000      -6.030387      -164.0952
  24   2.0000      -1.000075       -27.2134
  25   2.0000      -0.977269       -26.5928
  26   2.0000      -0.913710       -24.8633
  27   2.0000      -0.907709       -24.7000
  28   2.0000      -0.866862       -23.5885
  29   2.0000      -0.851951       -23.1828
  30   2.0000      -0.845253       -23.0005
  31   2.0000      -0.806148       -21.9364
  32   2.0000      -0.783806       -21.3284
  33   2.0000      -0.765760       -20.8374
  34   2.0000      -0.710056       -19.3216
  35   2.0000      -0.704985       -19.1836
  36   2.0000      -0.694168       -18.8893
  37   2.0000      -0.652997       -17.7689
  38   2.0000      -0.638440       -17.3728
  39   2.0000      -0.617839       -16.8123
  40   2.0000      -0.593504       -16.1501
  41   2.0000      -0.563115       -15.3232
  42   2.0000      -0.561185       -15.2706
  43   2.0000      -0.558893       -15.2083
  44   2.0000      -0.544752       -14.8235
  45   2.0000      -0.530257       -14.4290
  46   2.0000      -0.516614       -14.0578
  47   2.0000      -0.506473       -13.7818
  48   2.0000      -0.504419       -13.7259
  49   2.0000      -0.495841       -13.4925
  50   2.0000      -0.487705       -13.2711
  51   2.0000      -0.476669       -12.9708
  52   2.0000      -0.463803       -12.6207
  53   2.0000      -0.461268       -12.5517
  54   2.0000      -0.458612       -12.4795
  55   2.0000      -0.450313       -12.2536
  56   2.0000      -0.448063       -12.1924
  57   2.0000      -0.445044       -12.1103
  58   2.0000      -0.437955       -11.9174
  59   2.0000      -0.428212       -11.6522
  60   2.0000      -0.426928       -11.6173
  61   2.0000      -0.412704       -11.2302
  62   2.0000      -0.410219       -11.1626
  63   2.0000      -0.336186        -9.1481
  64   2.0000      -0.329880        -8.9765
  65   2.0000      -0.325683        -8.8623
  66   2.0000      -0.292362        -7.9556
  67   0.0000       0.031603         0.8600
  68   0.0000       0.060464         1.6453
  69   0.0000       0.121129         3.2961
  70   0.0000       0.123483         3.3601
  71   0.0000       0.126632         3.4458

MULLIKEN ATOMIC CHARGES
-----------------------
   0 S :    0.122709
   1 C :   -0.142909
   2 C :   -0.112864
   3 C :    0.060269
   4 C :   -0.181942
   5 H :   -0.014307
   6 C :    0.095144
   7 H :    0.038151
   8 H :    0.002464
   9 C :   -0.069338
  10 H :    0.028917
  11 H :    0.039003
  12 C :   -0.051023
  13 H :    0.041306
  14 H :    0.042918
  15 H :    0.025303
  16 S :    0.111224
  17 C :   -0.117139
  18 C :   -0.034666
  19 C :   -0.036958
  20 C :   -0.163246
  21 H :    0.018974
  22 C :    0.055299
  23 H :    0.015666
  24 H :    0.046304
  25 C :   -0.044769
  26 H :    0.013317
  27 H :    0.032664
  28 C :   -0.035946
  29 H :    0.031750
  30 H :    0.038614
  31 H :    0.021326
  32 H :    0.051489
  33 H :    0.072296
Sum of atomic charges:    0.0000000

LOEWDIN ATOMIC CHARGES
----------------------
   0 S :    0.408519
   1 C :   -0.199133
   2 C :   -0.060065
   3 C :   -0.048603
   4 C :   -0.207806
   5 H :    0.019286
   6 C :   -0.028557
   7 H :    0.033714
   8 H :    0.026462
   9 C :   -0.043755
  10 H :    0.026719
  11 H :    0.026443
  12 C :   -0.059178
  13 H :    0.026871
  14 H :    0.024347
  15 H :    0.026641
  16 S :    0.398470
  17 C :   -0.194043
  18 C :   -0.078747
  19 C :   -0.054262
  20 C :   -0.201631
  21 H :    0.032094
  22 C :   -0.030207
  23 H :    0.023926
  24 H :    0.040181
  25 C :   -0.022403
  26 H :    0.010306
  27 H :    0.027267
  28 C :   -0.061158
  29 H :    0.025093
  30 H :    0.027388
  31 H :    0.020002
  32 H :    0.027956
  33 H :    0.037862

  Mayer bond orders larger than 0.100000
B(  0-S ,  1-C ) :   1.1330 B(  0-S ,  4-C ) :   1.1610 B(  1-C ,  2-C ) :   1.6106
B(  1-C , 32-H ) :   0.9651 B(  2-C ,  3-C ) :   1.2520 B(  2-C ,  6-C ) :   0.9964
B(  3-C ,  4-C ) :   1.5345 B(  3-C ,  5-H ) :   1.0037 B(  4-C , 20-C ) :   1.0684
B(  6-C ,  7-H ) :   0.9361 B(  6-C ,  8-H ) :   0.9380 B(  6-C ,  9-C ) :   1.0793
B(  9-C , 10-H ) :   0.9524 B(  9-C , 11-H ) :   0.9543 B(  9-C , 12-C ) :   1.0656
B( 12-C , 13-H ) :   0.9759 B( 12-C , 14-H ) :   0.9780 B( 12-C , 15-H ) :   0.9733
B( 16-S , 17-C ) :   1.1748 B( 16-S , 20-C ) :   1.1466 B( 17-C , 18-C ) :   1.5546
B( 17-C , 20-C ) :   0.1206 B( 17-C , 33-H ) :   0.9628 B( 18-C , 19-C ) :   1.3027
B( 18-C , 21-H ) :   0.9872 B( 19-C , 20-C ) :   1.5295 B( 19-C , 22-C ) :   1.0408
B( 22-C , 23-H ) :   0.9182 B( 22-C , 24-H ) :   0.9486 B( 22-C , 25-C ) :   1.0480
B( 25-C , 26-H ) :   0.9647 B( 25-C , 27-H ) :   0.9541 B( 25-C , 28-C ) :   1.0795
B( 28-C , 29-H ) :   0.9725 B( 28-C , 30-H ) :   0.9781 B( 28-C , 31-H ) :   0.9747

Dispersion correction           -0.015046372
FINAL SINGLE POINT ENERGY     -1339.877509808536

DIPOLE MOMENT
-------------
                                X             Y             Z
Electronic contribution:     16.71864      26.19091      -1.81973
Nuclear contribution   :    -17.19874     -26.77478       1.96202
                        -----------------------------------------
Total Dipole Moment    :     -0.48010      -0.58387       0.14229
                        -----------------------------------------
Magnitude (a.u.)       :      0.76919
Magnitude (Debye)      :      1.95511

Rotational constants in cm-1:     0.016625     0.010272     0.007101
Rotational constants in MHz :   498.417693   307.956936   212.890900

                             ****ORCA TERMINATED NORMALLY****
TOTAL RUN TIME: 0 days 0 hours 0 minutes 22 seconds 186 msec
