                         Program Version 4.2.1 -  RELEASE  -
|  1> ! wB97X-D3 SP def2-SVP
|  2> %pal
|  3> nprocs 24
|  4> end
|  5>
|  6> * xyz 0 1
|  7> S 	 -69.0847 	 20.1224 	 -73.3532
|  8> C 	 -67.9878 	 19.1648 	 -74.4232
|  9> C 	 -67.4747 	 18.0028 	 -73.7322
| 10> C 	 -68.178 	 17.887 	 -72.4625
| 11> C 	 -69.2011 	 18.7952 	 -72.202
| 12> H 	 -68.232 	 16.9591 	 -71.8402
| 13> C 	 -66.4951 	 16.9317 	 -74.2999
| 14> H 	 -65.8901 	 16.7069 	 -73.3356
| 15> H 	 -65.8529 	 17.4242 	 -74.955
| 16> C 	 -67.1294 	 15.6693 	 -74.9441
| 17> H 	 -67.877 	 15.2478 	 -74.2893
| 18> H 	 -67.8127 	 16.0563 	 -75.6872
| 19> C 	 -66.229 	 14.5617 	 -75.5392
| 20> H 	 -65.6991 	 14.9571 	 -76.4251
| 21> H 	 -65.4776 	 14.1967 	 -74.7995
| 22> H 	 -66.8374 	 13.7023 	 -75.7986
| 23> S 	 -69.8586 	 20.0863 	 -69.9101
| 24> C 	 -70.8348 	 19.2965 	 -68.6606
| 25> C 	 -71.3642 	 18.1346 	 -69.1257
| 26> C 	 -70.7618 	 17.7596 	 -70.3712
| 27> C 	 -69.9409 	 18.7261 	 -70.9761
| 28> H 	 -72.1836 	 17.6714 	 -68.5955
| 29> C 	 -71.2072 	 16.3951 	 -71.0162
| 30> H 	 -70.713 	 16.3367 	 -72.0369
| 31> H 	 -72.2738 	 16.4743 	 -71.3211
| 32> C 	 -70.7522 	 15.1284 	 -70.2327
| 33> H 	 -70.9438 	 14.2021 	 -70.7512
| 34> H 	 -71.3668 	 14.9908 	 -69.358
| 35> C 	 -69.3333 	 14.9767 	 -69.7537
| 36> H 	 -69.1023 	 15.7204 	 -69.0271
| 37> H 	 -68.7027 	 14.9317 	 -70.5625
| 38> H 	 -69.1224 	 13.9663 	 -69.4283
| 39> H 	 -67.5052 	 19.5642 	 -75.3184
| 40> H 	 -71.2111 	 19.8622 	 -67.8134
| 41> *
| 42>
| 43>                          ****END OF INPUT****

CARTESIAN COORDINATES (ANGSTROEM)
---------------------------------
  S    -69.084700   20.122400  -73.353200
  C    -67.987800   19.164800  -74.423200
  C    -67.474700   18.002800  -73.732200
  C    -68.178000   17.887000  -72.462500
  C    -69.201100   18.795200  -72.202000
  H    -68.232000   16.959100  -71.840200
  C    -66.495100   16.931700  -74.299900
  H    -65.890100   16.706900  -73.335600
  H    -65.852900   17.424200  -74.955000
  C    -67.129400   15.669300  -74.944100
  H    -67.877000   15.247800  -74.289300
  H    -67.812700   16.056300  -75.687200
  C    -66.229000   14.561700  -75.539200
  H    -65.699100   14.957100  -76.425100
  H    -65.477600   14.196700  -74.799500
  H    -66.837400   13.702300  -75.798600
  S    -69.858600   20.086300  -69.910100
  C    -70.834800   19.296500  -68.660600
  C    -71.364200   18.134600  -69.125700
  C    -70.761800   17.759600  -70.371200
  C    -69.940900   18.726100  -70.976100
  H    -72.183600   17.671400  -68.595500
  C    -71.207200   16.395100  -71.016200
  H    -70.713000   16.336700  -72.036900
  H    -72.273800   16.474300  -71.321100
  C    -70.752200   15.128400  -70.232700
  H    -70.943800   14.202100  -70.751200
  H    -71.366800   14.990800  -69.358000
  C    -69.333300   14.976700  -69.753700
  H    -69.102300   15.720400  -69.027100
  H    -68.702700   14.931700  -70.562500
  H    -69.122400   13.966300  -69.428300
  H    -67.505200   19.564200  -75.318400
  H    -71.211100   19.862200  -67.813400

 Total Charge           Charge          ....    0
 Multiplicity           Mult            ....    1
 Number of Electrons    NEL             ....  134
 Basis Dimension        Dim             ....  322

ORBITAL ENERGIES
----------------

  NO   OCC          E(Eh)            E(eV)
   0   2.0000     -88.972231     -2421.0575
   1   2.0000     -88.961685     -2420.7705
   2   2.0000     -10.332324      -281.1568
   3   2.0000     -10.329854      -281.0896
   4   2.0000     -10.328179      -281.0440
   5   2.0000     -10.317520      -280.7540
   6   2.0000     -10.316864      -280.7362
   7   2.0000     -10.309736      -280.5422
   8   2.0000     -10.304071      -280.3880
   9   2.0000     -10.301213      -280.3103
  10   2.0000     -10.298831      -280.2455
  11   2.0000     -10.295255      -280.1481
  12   2.0000     -10.289654      -279.9957
  13   2.0000     -10.288288      -279.9585
  14   2.0000     -10.281952      -279.7861
  15   2.0000     -10.265486      -279.3381
  16   2.0000      -8.085438      -220.0160
  17   2.0000      -8.076914      -219.7840
  18   2.0000      -6.044116      -164.4688
  19   2.0000      -6.040177      -164.3616
  20   2.0000      -6.036070      -164.2498
  21   2.0000      -6.035463      -164.2333
  22   2.0000      -6.031313      -164.1204
  23   2.0000      -6.027625      -164.0200
  24   2.0000      -1.005083       -27.3497
  25   2.0000      -0.976054       -26.5598
  26   2.0000      -0.905933       -24.6517
  27   2.0000      -0.902817       -24.5669
  28   2.0000      -0.872928       -23.7536
  29   2.0000      -0.848530       -23.0897
  30   2.0000      -0.843843       -22.9621
  31   2.0000      -0.814008       -22.1503
  32   2.0000      -0.782888       -21.3035
  33   2.0000      -0.772940       -21.0328
  34   2.0000      -0.709380       -19.3032
  35   2.0000      -0.703859       -19.1530
  36   2.0000      -0.693716       -18.8770
  37   2.0000      -0.659122       -17.9356
  38   2.0000      -0.637252       -17.3405
  39   2.0000      -0.613137       -16.6843
  40   2.0000      -0.591855       -16.1052
  41   2.0000      -0.564940       -15.3728
  42   2.0000      -0.559205       -15.2168
  43   2.0000      -0.554614       -15.0918
  44   2.0000      -0.544047       -14.8043
  45   2.0000      -0.528240       -14.3742
  46   2.0000      -0.518799       -14.1172
  47   2.0000      -0.507630       -13.8133
  48   2.0000      -0.501605       -13.6494
  49   2.0000      -0.499185       -13.5835
  50   2.0000      -0.490498       -13.3471
  51   2.0000      -0.478951       -13.0329
  52   2.0000      -0.470004       -12.7895
  53   2.0000      -0.462234       -12.5780
  54   2.0000      -0.460160       -12.5216
  55   2.0000      -0.447934       -12.1889
  56   2.0000      -0.443298       -12.0628
  57   2.0000      -0.442238       -12.0339
  58   2.0000      -0.439276       -11.9533
  59   2.0000      -0.424404       -11.5486
  60   2.0000      -0.412683       -11.2297
  61   2.0000      -0.407126       -11.0785
  62   2.0000      -0.403797       -10.9879
  63   2.0000      -0.348915        -9.4945
  64   2.0000      -0.330377        -8.9900
  65   2.0000      -0.326740        -8.8911
  66   2.0000      -0.294066        -8.0019
  67   0.0000       0.024080         0.6553
  68   0.0000       0.061738         1.6800
  69   0.0000       0.104301         2.8382
  70   0.0000       0.115051         3.1307
  71   0.0000       0.121414         3.3038

MULLIKEN ATOMIC CHARGES
-----------------------
   0 S :    0.109737
   1 C :   -0.120478
   2 C :   -0.118904
   3 C :    0.016423
   4 C :   -0.149202
   5 H :    0.027200
   6 C :    0.072525
   7 H :    0.045872
   8 H :    0.008594
   9 C :   -0.058166
  10 H :    0.013940
  11 H :    0.019308
  12 C :   -0.045536
  13 H :    0.041860
  14 H :    0.039465
  15 H :    0.040745
  16 S :    0.088964
  17 C :   -0.096954
  18 C :   -0.016684
  19 C :   -0.078525
  20 C :   -0.139437
  21 H :    0.030254
  22 C :    0.043853
  23 H :    0.026343
  24 H :    0.050495
  25 C :   -0.078516
  26 H :    0.016756
  27 H :    0.016042
  28 C :    0.002916
  29 H :    0.047461
  30 H :    0.003905
  31 H :    0.015436
  32 H :    0.060838
  33 H :    0.063471
Sum of atomic charges:    0.0000000

LOEWDIN ATOMIC CHARGES
----------------------
   0 S :    0.384334
   1 C :   -0.188372
   2 C :   -0.055063
   3 C :   -0.065084
   4 C :   -0.199535
   5 H :    0.035301
   6 C :   -0.027925
   7 H :    0.043497
   8 H :    0.017695
   9 C :   -0.048176
  10 H :    0.021935
  11 H :    0.025941
  12 C :   -0.064898
  13 H :    0.028847
  14 H :    0.029993
  15 H :    0.030144
  16 S :    0.402114
  17 C :   -0.177068
  18 C :   -0.069168
  19 C :   -0.061430
  20 C :   -0.200603
  21 H :    0.037291
  22 C :   -0.038807
  23 H :    0.031831
  24 H :    0.039127
  25 C :   -0.046603
  26 H :    0.024036
  27 H :    0.017756
  28 C :   -0.057128
  29 H :    0.026151
  30 H :    0.011815
  31 H :    0.032891
  32 H :    0.029840
  33 H :    0.029323

  Mayer bond orders larger than 0.100000
B(  0-S ,  1-C ) :   1.1349 B(  0-S ,  4-C ) :   1.1268 B(  1-C ,  2-C ) :   1.5916
B(  1-C ,  4-C ) :   0.1015 B(  1-C , 32-H ) :   0.9642 B(  2-C ,  3-C ) :   1.2444
B(  2-C ,  6-C ) :   1.0218 B(  3-C ,  4-C ) :   1.5782 B(  3-C ,  5-H ) :   0.9743
B(  4-C , 20-C ) :   1.0696 B(  6-C ,  7-H ) :   0.9407 B(  6-C ,  8-H ) :   0.9402
B(  6-C ,  9-C ) :   1.0525 B(  9-C , 10-H ) :   0.9555 B(  9-C , 11-H ) :   0.9490
B(  9-C , 12-C ) :   1.0789 B( 12-C , 13-H ) :   0.9762 B( 12-C , 14-H ) :   0.9763
B( 12-C , 15-H ) :   0.9732 B( 16-S , 17-C ) :   1.1531 B( 16-S , 20-C ) :   1.1417
B( 17-C , 18-C ) :   1.6150 B( 17-C , 33-H ) :   0.9638 B( 18-C , 19-C ) :   1.2296
B( 18-C , 21-H ) :   0.9942 B( 19-C , 20-C ) :   1.5953 B( 19-C , 22-C ) :   1.0333
B( 22-C , 23-H ) :   0.9386 B( 22-C , 24-H ) :   0.9480 B( 22-C , 25-C ) :   1.0485
B( 25-C , 26-H ) :   0.9564 B( 25-C , 27-H ) :   0.9560 B( 25-C , 28-C ) :   1.1012
B( 28-C , 29-H ) :   0.9721 B( 28-C , 30-H ) :   0.9596 B( 28-C , 31-H ) :   0.9593

Dispersion correction           -0.014635749
FINAL SINGLE POINT ENERGY     -1339.847517680499

DIPOLE MOMENT
-------------
                                X             Y             Z
Electronic contribution:     -7.32019      30.41565       6.35294
Nuclear contribution   :      7.30094     -31.14824      -6.46969
                        -----------------------------------------
Total Dipole Moment    :     -0.01926      -0.73259      -0.11675
                        -----------------------------------------
Magnitude (a.u.)       :      0.74208
Magnitude (Debye)      :      1.88622

Rotational constants in cm-1:     0.018058     0.009068     0.006522
Rotational constants in MHz :   541.351648   271.840910   195.532044

                             ****ORCA TERMINATED NORMALLY****
TOTAL RUN TIME: 0 days 0 hours 0 minutes 21 seconds 530 msec
