                         Program Version 4.2.1 -  RELEASE  -
|  1> ! wB97X-D3 SP def2-SVP
|  2> %pal
|  3> nprocs 24
|  4> end
|  5>
|  6> * xyz 0 1
|  7> S 	 -84.155 	 -37.8636 	 -71.6874
|  8> C 	 -83.9771 	 -37.6085 	 -73.3918
|  9> C 	 -83.478 	 -38.7013 	 -74.033
| 10> C 	 -83.1403 	 -39.7497 	 -73.1512
| 11> C 	 -83.5359 	 -39.4828 	 -71.8921
| 12> H 	 -82.747 	 -40.7348 	 -73.4554
| 13> C 	 -83.5853 	 -38.8921 	 -75.5416
| 14> H 	 -84.6054 	 -39.2099 	 -75.7196
| 15> H 	 -82.9528 	 -39.6953 	 -75.8205
| 16> C 	 -83.0288 	 -37.669 	 -76.3735
| 17> H 	 -83.429 	 -37.6424 	 -77.3625
| 18> H 	 -83.3932 	 -36.7199 	 -76.0399
| 19> C 	 -81.5572 	 -37.4684 	 -76.4103
| 20> H 	 -81.3571 	 -37.4157 	 -75.3513
| 21> H 	 -81.1157 	 -38.1755 	 -77.0288
| 22> H 	 -81.2519 	 -36.5036 	 -76.8077
| 23> S 	 -81.8932 	 -39.826 	 -69.6251
| 24> C 	 -82.1925 	 -41.2216 	 -68.6264
| 25> C 	 -82.934 	 -42.2015 	 -69.2943
| 26> C 	 -83.5029 	 -41.6887 	 -70.5142
| 27> C 	 -83.1961 	 -40.3545 	 -70.7578
| 28> H 	 -83.0719 	 -43.2122 	 -68.8538
| 29> C 	 -84.3157 	 -42.6104 	 -71.4762
| 30> H 	 -84.173 	 -42.1145 	 -72.4596
| 31> H 	 -85.4043 	 -42.5563 	 -71.2529
| 32> C 	 -83.8479 	 -44.1426 	 -71.5857
| 33> H 	 -84.3807 	 -44.584 	 -72.415
| 34> H 	 -84.2051 	 -44.7076 	 -70.7438
| 35> C 	 -82.3337 	 -44.3309 	 -71.8394
| 36> H 	 -81.992 	 -45.3316 	 -71.9992
| 37> H 	 -81.8159 	 -43.7291 	 -71.0713
| 38> H 	 -82.0465 	 -43.8739 	 -72.7704
| 39> H 	 -84.3395 	 -36.7396 	 -73.9499
| 40> H 	 -81.6551 	 -41.5346 	 -67.7528
| 41> *
| 42>
| 43>                          ****END OF INPUT****

CARTESIAN COORDINATES (ANGSTROEM)
---------------------------------
  S    -84.155000  -37.863600  -71.687400
  C    -83.977100  -37.608500  -73.391800
  C    -83.478000  -38.701300  -74.033000
  C    -83.140300  -39.749700  -73.151200
  C    -83.535900  -39.482800  -71.892100
  H    -82.747000  -40.734800  -73.455400
  C    -83.585300  -38.892100  -75.541600
  H    -84.605400  -39.209900  -75.719600
  H    -82.952800  -39.695300  -75.820500
  C    -83.028800  -37.669000  -76.373500
  H    -83.429000  -37.642400  -77.362500
  H    -83.393200  -36.719900  -76.039900
  C    -81.557200  -37.468400  -76.410300
  H    -81.357100  -37.415700  -75.351300
  H    -81.115700  -38.175500  -77.028800
  H    -81.251900  -36.503600  -76.807700
  S    -81.893200  -39.826000  -69.625100
  C    -82.192500  -41.221600  -68.626400
  C    -82.934000  -42.201500  -69.294300
  C    -83.502900  -41.688700  -70.514200
  C    -83.196100  -40.354500  -70.757800
  H    -83.071900  -43.212200  -68.853800
  C    -84.315700  -42.610400  -71.476200
  H    -84.173000  -42.114500  -72.459600
  H    -85.404300  -42.556300  -71.252900
  C    -83.847900  -44.142600  -71.585700
  H    -84.380700  -44.584000  -72.415000
  H    -84.205100  -44.707600  -70.743800
  C    -82.333700  -44.330900  -71.839400
  H    -81.992000  -45.331600  -71.999200
  H    -81.815900  -43.729100  -71.071300
  H    -82.046500  -43.873900  -72.770400
  H    -84.339500  -36.739600  -73.949900
  H    -81.655100  -41.534600  -67.752800

 Total Charge           Charge          ....    0
 Multiplicity           Mult            ....    1
 Number of Electrons    NEL             ....  134
 Basis Dimension        Dim             ....  322

ORBITAL ENERGIES
----------------

  NO   OCC          E(Eh)            E(eV)
   0   2.0000     -88.969439     -2420.9815
   1   2.0000     -88.965259     -2420.8678
   2   2.0000     -10.327663      -281.0300
   3   2.0000     -10.325140      -280.9613
   4   2.0000     -10.315436      -280.6973
   5   2.0000     -10.310664      -280.5674
   6   2.0000     -10.307069      -280.4696
   7   2.0000     -10.301832      -280.3271
   8   2.0000     -10.297231      -280.2019
   9   2.0000     -10.295349      -280.1507
  10   2.0000     -10.293908      -280.1115
  11   2.0000     -10.292223      -280.0656
  12   2.0000     -10.291797      -280.0540
  13   2.0000     -10.279331      -279.7148
  14   2.0000     -10.275004      -279.5971
  15   2.0000     -10.266616      -279.3688
  16   2.0000      -8.084503      -219.9905
  17   2.0000      -8.079171      -219.8454
  18   2.0000      -6.042948      -164.4370
  19   2.0000      -6.039045      -164.3308
  20   2.0000      -6.037709      -164.2944
  21   2.0000      -6.035221      -164.2267
  22   2.0000      -6.034067      -164.1953
  23   2.0000      -6.029671      -164.0757
  24   2.0000      -1.010616       -27.5003
  25   2.0000      -0.981500       -26.7080
  26   2.0000      -0.914143       -24.8751
  27   2.0000      -0.896467       -24.3941
  28   2.0000      -0.869788       -23.6681
  29   2.0000      -0.859099       -23.3773
  30   2.0000      -0.841276       -22.8923
  31   2.0000      -0.814362       -22.1599
  32   2.0000      -0.784240       -21.3402
  33   2.0000      -0.771663       -20.9980
  34   2.0000      -0.709242       -19.2994
  35   2.0000      -0.704731       -19.1767
  36   2.0000      -0.693022       -18.8581
  37   2.0000      -0.653881       -17.7930
  38   2.0000      -0.640278       -17.4229
  39   2.0000      -0.612948       -16.6792
  40   2.0000      -0.586368       -15.9559
  41   2.0000      -0.577268       -15.7083
  42   2.0000      -0.565801       -15.3962
  43   2.0000      -0.550168       -14.9708
  44   2.0000      -0.547143       -14.8885
  45   2.0000      -0.537009       -14.6128
  46   2.0000      -0.517200       -14.0737
  47   2.0000      -0.509516       -13.8646
  48   2.0000      -0.497383       -13.5345
  49   2.0000      -0.494212       -13.4482
  50   2.0000      -0.486390       -13.2353
  51   2.0000      -0.479115       -13.0374
  52   2.0000      -0.471995       -12.8436
  53   2.0000      -0.462532       -12.5861
  54   2.0000      -0.453502       -12.3404
  55   2.0000      -0.453076       -12.3288
  56   2.0000      -0.447682       -12.1820
  57   2.0000      -0.443411       -12.0658
  58   2.0000      -0.437810       -11.9134
  59   2.0000      -0.422819       -11.5055
  60   2.0000      -0.417248       -11.3539
  61   2.0000      -0.413575       -11.2540
  62   2.0000      -0.410040       -11.1578
  63   2.0000      -0.345469        -9.4007
  64   2.0000      -0.329713        -8.9720
  65   2.0000      -0.325245        -8.8504
  66   2.0000      -0.299070        -8.1381
  67   0.0000       0.033059         0.8996
  68   0.0000       0.060969         1.6590
  69   0.0000       0.102845         2.7985
  70   0.0000       0.117005         3.1839
  71   0.0000       0.132966         3.6182

MULLIKEN ATOMIC CHARGES
-----------------------
   0 S :    0.131011
   1 C :   -0.133329
   2 C :   -0.104518
   3 C :    0.033343
   4 C :   -0.181514
   5 H :    0.029289
   6 C :    0.105765
   7 H :    0.051105
   8 H :    0.005011
   9 C :   -0.073947
  10 H :    0.006267
  11 H :    0.000665
  12 C :   -0.008365
  13 H :    0.033160
  14 H :    0.021426
  15 H :    0.023831
  16 S :    0.106437
  17 C :   -0.071591
  18 C :   -0.072369
  19 C :   -0.059491
  20 C :   -0.150429
  21 H :    0.041615
  22 C :    0.057016
  23 H :    0.016017
  24 H :    0.054395
  25 C :   -0.076136
  26 H :    0.026388
  27 H :    0.029689
  28 C :   -0.036867
  29 H :    0.034009
  30 H :    0.045654
  31 H :    0.011233
  32 H :    0.054577
  33 H :    0.050652
Sum of atomic charges:    0.0000000

LOEWDIN ATOMIC CHARGES
----------------------
   0 S :    0.420815
   1 C :   -0.201706
   2 C :   -0.072202
   3 C :   -0.058433
   4 C :   -0.199548
   5 H :    0.037825
   6 C :   -0.018501
   7 H :    0.038277
   8 H :    0.022554
   9 C :   -0.042078
  10 H :    0.015614
  11 H :    0.015861
  12 C :   -0.055140
  13 H :    0.030930
  14 H :    0.014587
  15 H :    0.028809
  16 S :    0.386806
  17 C :   -0.186990
  18 C :   -0.079815
  19 C :   -0.058173
  20 C :   -0.186051
  21 H :    0.039206
  22 C :   -0.032076
  23 H :    0.028083
  24 H :    0.039149
  25 C :   -0.038494
  26 H :    0.024953
  27 H :    0.018244
  28 C :   -0.068604
  29 H :    0.024807
  30 H :    0.031773
  31 H :    0.021900
  32 H :    0.030638
  33 H :    0.026981

  Mayer bond orders larger than 0.100000
B(  0-S ,  1-C ) :   1.1383 B(  0-S ,  4-C ) :   1.1545 B(  1-C ,  2-C ) :   1.6201
B(  1-C , 32-H ) :   0.9631 B(  2-C ,  3-C ) :   1.2468 B(  2-C ,  6-C ) :   1.0086
B(  3-C ,  4-C ) :   1.5863 B(  3-C ,  5-H ) :   0.9829 B(  4-C , 20-C ) :   1.0193
B(  6-C ,  7-H ) :   0.9451 B(  6-C ,  8-H ) :   0.9403 B(  6-C ,  9-C ) :   1.0504
B(  9-C , 10-H ) :   0.9529 B(  9-C , 11-H ) :   0.9598 B(  9-C , 12-C ) :   1.0836
B( 12-C , 13-H ) :   0.9747 B( 12-C , 14-H ) :   0.9755 B( 12-C , 15-H ) :   0.9694
B( 16-S , 17-C ) :   1.1558 B( 16-S , 20-C ) :   1.1292 B( 17-C , 18-C ) :   1.6195
B( 17-C , 33-H ) :   0.9632 B( 18-C , 19-C ) :   1.2345 B( 18-C , 21-H ) :   0.9804
B( 19-C , 20-C ) :   1.6259 B( 19-C , 22-C ) :   1.0199 B( 22-C , 23-H ) :   0.9381
B( 22-C , 24-H ) :   0.9385 B( 22-C , 25-C ) :   1.0653 B( 25-C , 26-H ) :   0.9566
B( 25-C , 27-H ) :   0.9554 B( 25-C , 28-C ) :   1.0721 B( 28-C , 29-H ) :   0.9741
B( 28-C , 30-H ) :   0.9728 B( 28-C , 31-H ) :   0.9711

Dispersion correction           -0.014606951
FINAL SINGLE POINT ENERGY     -1339.857261531115

DIPOLE MOMENT
-------------
                                X             Y             Z
Electronic contribution:     -2.37276      12.24265      21.33354
Nuclear contribution   :      2.28008     -12.70750     -21.94280
                        -----------------------------------------
Total Dipole Moment    :     -0.09268      -0.46485      -0.60926
                        -----------------------------------------
Magnitude (a.u.)       :      0.77193
Magnitude (Debye)      :      1.96208

Rotational constants in cm-1:     0.020522     0.007997     0.006655
Rotational constants in MHz :   615.221828   239.745788   199.523291

                             ****ORCA TERMINATED NORMALLY****
TOTAL RUN TIME: 0 days 0 hours 0 minutes 21 seconds 810 msec
