                         Program Version 4.2.1 -  RELEASE  -
|  1> ! wB97X-D3 SP def2-SVP
|  2> %pal
|  3> nprocs 24
|  4> end
|  5>
|  6> * xyz 0 1
|  7> S 	 -82.6883 	 -38.0424 	 -74.7945
|  8> C 	 -83.5523 	 -37.8746 	 -76.3011
|  9> C 	 -84.0045 	 -39.1077 	 -76.7776
| 10> C 	 -83.6021 	 -40.1977 	 -75.9607
| 11> C 	 -82.794 	 -39.817 	 -74.8807
| 12> H 	 -83.9091 	 -41.2639 	 -76.0401
| 13> C 	 -84.6819 	 -39.3473 	 -78.0727
| 14> H 	 -85.3863 	 -38.5102 	 -78.1021
| 15> H 	 -85.1272 	 -40.292 	 -78.2512
| 16> C 	 -83.8338 	 -39.1778 	 -79.358
| 17> H 	 -84.4663 	 -39.3461 	 -80.1857
| 18> H 	 -83.4275 	 -38.1186 	 -79.3751
| 19> C 	 -82.657 	 -40.1672 	 -79.4169
| 20> H 	 -82.0727 	 -39.9413 	 -78.5413
| 21> H 	 -83.0299 	 -41.189 	 -79.333
| 22> H 	 -82.1279 	 -39.9253 	 -80.3435
| 23> S 	 -80.3352 	 -40.4634 	 -73.7644
| 24> C 	 -80.1655 	 -42.0478 	 -73.2186
| 25> C 	 -81.3652 	 -42.7069 	 -73.0013
| 26> C 	 -82.5173 	 -41.917 	 -73.38
| 27> C 	 -82.1362 	 -40.6958 	 -73.9085
| 28> H 	 -81.2838 	 -43.7571 	 -72.5992
| 29> C 	 -83.9192 	 -42.3485 	 -73.1835
| 30> H 	 -84.6016 	 -41.6952 	 -73.7294
| 31> H 	 -84.09 	 -42.185 	 -72.1675
| 32> C 	 -84.2075 	 -43.872 	 -73.5454
| 33> H 	 -85.2197 	 -44.1062 	 -73.2264
| 34> H 	 -83.5614 	 -44.6026 	 -73.0534
| 35> C 	 -84.0124 	 -44.2461 	 -75.0072
| 36> H 	 -83.0507 	 -43.8674 	 -75.2898
| 37> H 	 -84.7024 	 -43.8581 	 -75.7111
| 38> H 	 -83.9752 	 -45.3373 	 -75.0238
| 39> H 	 -83.6976 	 -36.9964 	 -76.8375
| 40> H 	 -79.1824 	 -42.3803 	 -72.8872
| 41> *
| 42>
| 43>                          ****END OF INPUT****

CARTESIAN COORDINATES (ANGSTROEM)
---------------------------------
  S    -82.688300  -38.042400  -74.794500
  C    -83.552300  -37.874600  -76.301100
  C    -84.004500  -39.107700  -76.777600
  C    -83.602100  -40.197700  -75.960700
  C    -82.794000  -39.817000  -74.880700
  H    -83.909100  -41.263900  -76.040100
  C    -84.681900  -39.347300  -78.072700
  H    -85.386300  -38.510200  -78.102100
  H    -85.127200  -40.292000  -78.251200
  C    -83.833800  -39.177800  -79.358000
  H    -84.466300  -39.346100  -80.185700
  H    -83.427500  -38.118600  -79.375100
  C    -82.657000  -40.167200  -79.416900
  H    -82.072700  -39.941300  -78.541300
  H    -83.029900  -41.189000  -79.333000
  H    -82.127900  -39.925300  -80.343500
  S    -80.335200  -40.463400  -73.764400
  C    -80.165500  -42.047800  -73.218600
  C    -81.365200  -42.706900  -73.001300
  C    -82.517300  -41.917000  -73.380000
  C    -82.136200  -40.695800  -73.908500
  H    -81.283800  -43.757100  -72.599200
  C    -83.919200  -42.348500  -73.183500
  H    -84.601600  -41.695200  -73.729400
  H    -84.090000  -42.185000  -72.167500
  C    -84.207500  -43.872000  -73.545400
  H    -85.219700  -44.106200  -73.226400
  H    -83.561400  -44.602600  -73.053400
  C    -84.012400  -44.246100  -75.007200
  H    -83.050700  -43.867400  -75.289800
  H    -84.702400  -43.858100  -75.711100
  H    -83.975200  -45.337300  -75.023800
  H    -83.697600  -36.996400  -76.837500
  H    -79.182400  -42.380300  -72.887200

 Total Charge           Charge          ....    0
 Multiplicity           Mult            ....    1
 Number of Electrons    NEL             ....  134
 Basis Dimension        Dim             ....  322

ORBITAL ENERGIES
----------------

  NO   OCC          E(Eh)            E(eV)
   0   2.0000     -88.967839     -2420.9380
   1   2.0000     -88.962417     -2420.7904
   2   2.0000     -10.333497      -281.1888
   3   2.0000     -10.328423      -281.0507
   4   2.0000     -10.317742      -280.7600
   5   2.0000     -10.309995      -280.5492
   6   2.0000     -10.309933      -280.5475
   7   2.0000     -10.301148      -280.3085
   8   2.0000     -10.299603      -280.2664
   9   2.0000     -10.296144      -280.1723
  10   2.0000     -10.291513      -280.0463
  11   2.0000     -10.291164      -280.0368
  12   2.0000     -10.284295      -279.8499
  13   2.0000     -10.283311      -279.8231
  14   2.0000     -10.272707      -279.5346
  15   2.0000     -10.270811      -279.4830
  16   2.0000      -8.081895      -219.9195
  17   2.0000      -8.078000      -219.8136
  18   2.0000      -6.040447      -164.3689
  19   2.0000      -6.036501      -164.2615
  20   2.0000      -6.036299      -164.2560
  21   2.0000      -6.032664      -164.1571
  22   2.0000      -6.032494      -164.1525
  23   2.0000      -6.028793      -164.0518
  24   2.0000      -1.003432       -27.3048
  25   2.0000      -0.983087       -26.7512
  26   2.0000      -0.913304       -24.8523
  27   2.0000      -0.913010       -24.8443
  28   2.0000      -0.868224       -23.6256
  29   2.0000      -0.854319       -23.2472
  30   2.0000      -0.844833       -22.9891
  31   2.0000      -0.811634       -22.0857
  32   2.0000      -0.789714       -21.4892
  33   2.0000      -0.772532       -21.0217
  34   2.0000      -0.708654       -19.2834
  35   2.0000      -0.699613       -19.0374
  36   2.0000      -0.691215       -18.8089
  37   2.0000      -0.654227       -17.8024
  38   2.0000      -0.637747       -17.3540
  39   2.0000      -0.613751       -16.7010
  40   2.0000      -0.597204       -16.2508
  41   2.0000      -0.582490       -15.8504
  42   2.0000      -0.559446       -15.2233
  43   2.0000      -0.550978       -14.9929
  44   2.0000      -0.545884       -14.8543
  45   2.0000      -0.540497       -14.7077
  46   2.0000      -0.523149       -14.2356
  47   2.0000      -0.511960       -13.9311
  48   2.0000      -0.505187       -13.7468
  49   2.0000      -0.493535       -13.4298
  50   2.0000      -0.488439       -13.2911
  51   2.0000      -0.478985       -13.0338
  52   2.0000      -0.474074       -12.9002
  53   2.0000      -0.466316       -12.6891
  54   2.0000      -0.459240       -12.4966
  55   2.0000      -0.444106       -12.0847
  56   2.0000      -0.442023       -12.0281
  57   2.0000      -0.439231       -11.9521
  58   2.0000      -0.432862       -11.7788
  59   2.0000      -0.427736       -11.6393
  60   2.0000      -0.421015       -11.4564
  61   2.0000      -0.418245       -11.3810
  62   2.0000      -0.411623       -11.2008
  63   2.0000      -0.346506        -9.4289
  64   2.0000      -0.331247        -9.0137
  65   2.0000      -0.328046        -8.9266
  66   2.0000      -0.285771        -7.7762
  67   0.0000       0.024745         0.6734
  68   0.0000       0.065938         1.7943
  69   0.0000       0.105973         2.8837
  70   0.0000       0.123685         3.3656
  71   0.0000       0.127711         3.4752

MULLIKEN ATOMIC CHARGES
-----------------------
   0 S :    0.111814
   1 C :   -0.090069
   2 C :   -0.089250
   3 C :    0.015807
   4 C :   -0.161012
   5 H :    0.018202
   6 C :    0.070599
   7 H :    0.028902
   8 H :    0.013722
   9 C :   -0.093635
  10 H :    0.022910
  11 H :    0.026006
  12 C :   -0.044625
  13 H :    0.046382
  14 H :    0.026118
  15 H :    0.043538
  16 S :    0.098427
  17 C :   -0.092740
  18 C :   -0.064535
  19 C :   -0.064995
  20 C :   -0.135592
  21 H :    0.042200
  22 C :    0.115149
  23 H :    0.026472
  24 H :    0.032889
  25 C :   -0.096699
  26 H :    0.026223
  27 H :    0.027542
  28 C :   -0.036346
  29 H :    0.029269
  30 H :    0.031256
  31 H :    0.033879
  32 H :    0.019529
  33 H :    0.062664
Sum of atomic charges:    0.0000000

LOEWDIN ATOMIC CHARGES
----------------------
   0 S :    0.398777
   1 C :   -0.194707
   2 C :   -0.062789
   3 C :   -0.070088
   4 C :   -0.184502
   5 H :    0.037013
   6 C :   -0.034610
   7 H :    0.035904
   8 H :    0.024446
   9 C :   -0.033164
  10 H :    0.013971
  11 H :    0.023156
  12 C :   -0.063730
  13 H :    0.027347
  14 H :    0.022377
  15 H :    0.029530
  16 S :    0.402012
  17 C :   -0.193402
  18 C :   -0.089540
  19 C :   -0.046496
  20 C :   -0.188594
  21 H :    0.042061
  22 C :   -0.024062
  23 H :    0.033591
  24 H :    0.033808
  25 C :   -0.035544
  26 H :    0.022011
  27 H :    0.023896
  28 C :   -0.061765
  29 H :    0.023095
  30 H :    0.015556
  31 H :    0.030783
  32 H :    0.014630
  33 H :    0.029030

  Mayer bond orders larger than 0.100000
B(  0-S ,  1-C ) :   1.1348 B(  0-S ,  4-C ) :   1.1544 B(  1-C ,  2-C ) :   1.5851
B(  1-C ,  4-C ) :   0.1014 B(  1-C , 32-H ) :   0.9765 B(  2-C ,  3-C ) :   1.2493
B(  2-C ,  6-C ) :   1.0339 B(  3-C ,  4-C ) :   1.5616 B(  3-C ,  5-H ) :   0.9833
B(  4-C , 20-C ) :   1.0278 B(  6-C ,  7-H ) :   0.9295 B(  6-C ,  8-H ) :   0.9486
B(  6-C ,  9-C ) :   1.0763 B(  9-C , 10-H ) :   0.9583 B(  9-C , 11-H ) :   0.9551
B(  9-C , 12-C ) :   1.0728 B( 12-C , 13-H ) :   0.9753 B( 12-C , 14-H ) :   0.9745
B( 12-C , 15-H ) :   0.9738 B( 16-S , 17-C ) :   1.1894 B( 16-S , 20-C ) :   1.1145
B( 17-C , 18-C ) :   1.6039 B( 17-C , 33-H ) :   0.9619 B( 18-C , 19-C ) :   1.2051
B( 18-C , 21-H ) :   0.9863 B( 19-C , 20-C ) :   1.6007 B( 19-C , 22-C ) :   1.0387
B( 22-C , 23-H ) :   0.9362 B( 22-C , 24-H ) :   0.9243 B( 22-C , 25-C ) :   1.0652
B( 25-C , 26-H ) :   0.9570 B( 25-C , 27-H ) :   0.9598 B( 25-C , 28-C ) :   1.0755
B( 28-C , 29-H ) :   0.9707 B( 28-C , 30-H ) :   0.9730 B( 28-C , 31-H ) :   0.9741

Dispersion correction           -0.015278260
FINAL SINGLE POINT ENERGY     -1339.872323633531

DIPOLE MOMENT
-------------
                                X             Y             Z
Electronic contribution:     12.79330      15.59617      16.13810
Nuclear contribution   :    -13.08679     -16.17212     -16.30930
                        -----------------------------------------
Total Dipole Moment    :     -0.29349      -0.57595      -0.17119
                        -----------------------------------------
Magnitude (a.u.)       :      0.66870
Magnitude (Debye)      :      1.69970

Rotational constants in cm-1:     0.017951     0.009408     0.007648
Rotational constants in MHz :   538.148548   282.037554   229.282948

                             ****ORCA TERMINATED NORMALLY****
TOTAL RUN TIME: 0 days 0 hours 0 minutes 22 seconds 538 msec
