                         Program Version 4.2.1 -  RELEASE  -
|  1> ! wB97X-D3 SP def2-SVP
|  2> %pal
|  3> nprocs 24
|  4> end
|  5>
|  6> * xyz 0 1
|  7> S 	 32.8852 	 2.89062 	 -118.378
|  8> C 	 31.4724 	 3.53965 	 -119.175
|  9> C 	 30.3171 	 2.90094 	 -118.911
| 10> C 	 30.5382 	 1.83319 	 -117.994
| 11> C 	 31.8985 	 1.64471 	 -117.679
| 12> H 	 29.8241 	 1.11611 	 -117.741
| 13> C 	 28.9552 	 3.17856 	 -119.473
| 14> H 	 28.2169 	 3.15472 	 -118.649
| 15> H 	 28.596 	 2.41301 	 -120.154
| 16> C 	 28.7247 	 4.42606 	 -120.329
| 17> H 	 28.8431 	 5.34619 	 -119.736
| 18> H 	 29.4214 	 4.4281 	 -121.132
| 19> C 	 27.3143 	 4.44351 	 -120.864
| 20> H 	 27.1345 	 5.25797 	 -121.609
| 21> H 	 27.0645 	 3.4912 	 -121.328
| 22> H 	 26.6682 	 4.53795 	 -120.011
| 23> S 	 34.0733 	 -0.0140043 	 -117.39
| 24> C 	 34.123 	 -1.08148 	 -116.024
| 25> C 	 33.0353 	 -0.83893 	 -115.136
| 26> C 	 31.9798 	 -0.0522076 	 -115.699
| 27> C 	 32.5347 	 0.619837 	 -116.817
| 28> H 	 32.9844 	 -1.39905 	 -114.206
| 29> C 	 30.6684 	 0.27729 	 -114.909
| 30> H 	 30.3258 	 1.27909 	 -115.167
| 31> H 	 30.9611 	 0.246545 	 -113.877
| 32> C 	 29.5038 	 -0.697334 	 -115.083
| 33> H 	 28.9516 	 -0.616318 	 -115.986
| 34> H 	 28.7846 	 -0.366115 	 -114.28
| 35> C 	 29.9248 	 -2.20731 	 -115.015
| 36> H 	 30.6066 	 -2.38213 	 -114.092
| 37> H 	 30.494 	 -2.5203 	 -115.827
| 38> H 	 29.0593 	 -2.92979 	 -115.021
| 39> H 	 31.4731 	 4.48026 	 -119.715
| 40> H 	 34.9173 	 -1.7102 	 -115.68
| 41> *
| 42>
| 43>                          ****END OF INPUT****

CARTESIAN COORDINATES (ANGSTROEM)
---------------------------------
  S     32.885200    2.890620  -118.378000
  C     31.472400    3.539650  -119.175000
  C     30.317100    2.900940  -118.911000
  C     30.538200    1.833190  -117.994000
  C     31.898500    1.644710  -117.679000
  H     29.824100    1.116110  -117.741000
  C     28.955200    3.178560  -119.473000
  H     28.216900    3.154720  -118.649000
  H     28.596000    2.413010  -120.154000
  C     28.724700    4.426060  -120.329000
  H     28.843100    5.346190  -119.736000
  H     29.421400    4.428100  -121.132000
  C     27.314300    4.443510  -120.864000
  H     27.134500    5.257970  -121.609000
  H     27.064500    3.491200  -121.328000
  H     26.668200    4.537950  -120.011000
  S     34.073300   -0.014004  -117.390000
  C     34.123000   -1.081480  -116.024000
  C     33.035300   -0.838930  -115.136000
  C     31.979800   -0.052208  -115.699000
  C     32.534700    0.619837  -116.817000
  H     32.984400   -1.399050  -114.206000
  C     30.668400    0.277290  -114.909000
  H     30.325800    1.279090  -115.167000
  H     30.961100    0.246545  -113.877000
  C     29.503800   -0.697334  -115.083000
  H     28.951600   -0.616318  -115.986000
  H     28.784600   -0.366115  -114.280000
  C     29.924800   -2.207310  -115.015000
  H     30.606600   -2.382130  -114.092000
  H     30.494000   -2.520300  -115.827000
  H     29.059300   -2.929790  -115.021000
  H     31.473100    4.480260  -119.715000
  H     34.917300   -1.710200  -115.680000

 Total Charge           Charge          ....    0
 Multiplicity           Mult            ....    1
 Number of Electrons    NEL             ....  134
 Basis Dimension        Dim             ....  322

ORBITAL ENERGIES
----------------

  NO   OCC          E(Eh)            E(eV)
   0   2.0000     -88.973273     -2421.0859
   1   2.0000     -88.966688     -2420.9066
   2   2.0000     -10.332748      -281.1684
   3   2.0000     -10.331136      -281.1245
   4   2.0000     -10.316539      -280.7273
   5   2.0000     -10.310038      -280.5504
   6   2.0000     -10.306242      -280.4471
   7   2.0000     -10.298313      -280.2313
   8   2.0000     -10.298063      -280.2245
   9   2.0000     -10.296495      -280.1819
  10   2.0000     -10.293647      -280.1044
  11   2.0000     -10.292707      -280.0788
  12   2.0000     -10.288797      -279.9724
  13   2.0000     -10.284793      -279.8634
  14   2.0000     -10.283770      -279.8356
  15   2.0000     -10.279623      -279.7228
  16   2.0000      -8.087494      -220.0719
  17   2.0000      -8.081772      -219.9162
  18   2.0000      -6.045950      -164.5187
  19   2.0000      -6.042065      -164.4129
  20   2.0000      -6.040220      -164.3627
  21   2.0000      -6.038358      -164.3121
  22   2.0000      -6.036331      -164.2569
  23   2.0000      -6.032492      -164.1525
  24   2.0000      -1.005898       -27.3719
  25   2.0000      -0.983124       -26.7522
  26   2.0000      -0.919407       -25.0183
  27   2.0000      -0.907446       -24.6929
  28   2.0000      -0.868636       -23.6368
  29   2.0000      -0.850785       -23.1510
  30   2.0000      -0.844857       -22.9897
  31   2.0000      -0.807282       -21.9672
  32   2.0000      -0.786571       -21.4037
  33   2.0000      -0.773890       -21.0586
  34   2.0000      -0.711329       -19.3562
  35   2.0000      -0.702866       -19.1260
  36   2.0000      -0.686532       -18.6815
  37   2.0000      -0.663124       -18.0445
  38   2.0000      -0.635835       -17.3020
  39   2.0000      -0.618225       -16.8228
  40   2.0000      -0.589447       -16.0397
  41   2.0000      -0.580154       -15.7868
  42   2.0000      -0.567586       -15.4448
  43   2.0000      -0.558266       -15.1912
  44   2.0000      -0.538627       -14.6568
  45   2.0000      -0.524125       -14.2622
  46   2.0000      -0.515692       -14.0327
  47   2.0000      -0.508503       -13.8371
  48   2.0000      -0.495082       -13.4719
  49   2.0000      -0.491710       -13.3801
  50   2.0000      -0.485649       -13.2152
  51   2.0000      -0.481992       -13.1157
  52   2.0000      -0.480808       -13.0834
  53   2.0000      -0.461205       -12.5500
  54   2.0000      -0.457027       -12.4363
  55   2.0000      -0.451296       -12.2804
  56   2.0000      -0.445197       -12.1144
  57   2.0000      -0.441055       -12.0017
  58   2.0000      -0.434102       -11.8125
  59   2.0000      -0.429589       -11.6897
  60   2.0000      -0.429062       -11.6754
  61   2.0000      -0.424065       -11.5394
  62   2.0000      -0.412991       -11.2381
  63   2.0000      -0.350193        -9.5292
  64   2.0000      -0.335546        -9.1307
  65   2.0000      -0.332209        -9.0399
  66   2.0000      -0.281924        -7.6715
  67   0.0000       0.025153         0.6845
  68   0.0000       0.073782         2.0077
  69   0.0000       0.110553         3.0083
  70   0.0000       0.114737         3.1222
  71   0.0000       0.127947         3.4816

MULLIKEN ATOMIC CHARGES
-----------------------
   0 S :    0.107445
   1 C :   -0.132631
   2 C :   -0.035797
   3 C :    0.023671
   4 C :   -0.129731
   5 H :   -0.020780
   6 C :    0.026563
   7 H :    0.026300
   8 H :    0.030210
   9 C :   -0.077422
  10 H :    0.033292
  11 H :    0.026592
  12 C :   -0.039785
  13 H :    0.046266
  14 H :    0.021116
  15 H :    0.023041
  16 S :    0.127475
  17 C :   -0.089401
  18 C :   -0.047105
  19 C :   -0.055382
  20 C :   -0.140485
  21 H :    0.022195
  22 C :    0.064260
  23 H :    0.035048
  24 H :    0.029102
  25 C :   -0.066148
  26 H :    0.027637
  27 H :    0.039920
  28 C :   -0.081253
  29 H :    0.032109
  30 H :    0.036320
  31 H :    0.043045
  32 H :    0.043562
  33 H :    0.050751
Sum of atomic charges:   -0.0000000

LOEWDIN ATOMIC CHARGES
----------------------
   0 S :    0.407531
   1 C :   -0.201190
   2 C :   -0.063260
   3 C :   -0.062978
   4 C :   -0.186703
   5 H :    0.018206
   6 C :   -0.034063
   7 H :    0.033090
   8 H :    0.034219
   9 C :   -0.041965
  10 H :    0.024897
  11 H :    0.017378
  12 C :   -0.060999
  13 H :    0.033235
  14 H :    0.020978
  15 H :    0.022693
  16 S :    0.417591
  17 C :   -0.203718
  18 C :   -0.064523
  19 C :   -0.054039
  20 C :   -0.194109
  21 H :    0.027197
  22 C :   -0.022641
  23 H :    0.032924
  24 H :    0.031734
  25 C :   -0.040236
  26 H :    0.015632
  27 H :    0.033039
  28 C :   -0.071355
  29 H :    0.029213
  30 H :    0.017512
  31 H :    0.032250
  32 H :    0.026218
  33 H :    0.026241

  Mayer bond orders larger than 0.100000
B(  0-S ,  1-C ) :   1.1173 B(  0-S ,  4-C ) :   1.1608 B(  1-C ,  2-C ) :   1.6606
B(  1-C , 32-H ) :   0.9521 B(  2-C ,  3-C ) :   1.2435 B(  2-C ,  6-C ) :   1.0080
B(  3-C ,  4-C ) :   1.5648 B(  3-C ,  5-H ) :   1.0031 B(  4-C , 20-C ) :   1.0326
B(  6-C ,  7-H ) :   0.9375 B(  6-C ,  8-H ) :   0.9367 B(  6-C ,  9-C ) :   1.0785
B(  9-C , 10-H ) :   0.9533 B(  9-C , 11-H ) :   0.9458 B(  9-C , 12-C ) :   1.0913
B( 12-C , 13-H ) :   0.9717 B( 12-C , 14-H ) :   0.9723 B( 12-C , 15-H ) :   0.9739
B( 16-S , 17-C ) :   1.1479 B( 16-S , 20-C ) :   1.1586 B( 17-C , 18-C ) :   1.6119
B( 17-C , 20-C ) :   0.1100 B( 17-C , 33-H ) :   0.9669 B( 18-C , 19-C ) :   1.2451
B( 18-C , 21-H ) :   0.9762 B( 19-C , 20-C ) :   1.5691 B( 19-C , 22-C ) :   1.0218
B( 22-C , 23-H ) :   0.9398 B( 22-C , 24-H ) :   0.9414 B( 22-C , 25-C ) :   1.0720
B( 25-C , 26-H ) :   0.9542 B( 25-C , 27-H ) :   0.9561 B( 25-C , 28-C ) :   1.0705
B( 28-C , 29-H ) :   0.9760 B( 28-C , 30-H ) :   0.9693 B( 28-C , 31-H ) :   0.9742

Dispersion correction           -0.013976689
FINAL SINGLE POINT ENERGY     -1339.875631054651

DIPOLE MOMENT
-------------
                                X             Y             Z
Electronic contribution:     28.37456      -0.00605      -0.68796
Nuclear contribution   :    -29.00377      -0.05977       0.83651
                        -----------------------------------------
Total Dipole Moment    :     -0.62921      -0.06581       0.14855
                        -----------------------------------------
Magnitude (a.u.)       :      0.64985
Magnitude (Debye)      :      1.65178

Rotational constants in cm-1:     0.020971     0.007749     0.005958
Rotational constants in MHz :   628.697082   232.294200   178.622048

                             ****ORCA TERMINATED NORMALLY****
TOTAL RUN TIME: 0 days 0 hours 0 minutes 21 seconds 267 msec
