                         Program Version 4.2.1 -  RELEASE  -
|  1> ! wB97X-D3 SP def2-SVP
|  2> %pal
|  3> nprocs 24
|  4> end
|  5>
|  6> * xyz 0 1
|  7> S 	 -119.487 	 19.5584 	 -113.437
|  8> C 	 -121.206 	 19.7038 	 -113.816
|  9> C 	 -121.684 	 18.7086 	 -114.706
| 10> C 	 -120.605 	 17.8924 	 -115.094
| 11> C 	 -119.45 	 18.2159 	 -114.495
| 12> H 	 -120.489 	 16.9847 	 -115.711
| 13> C 	 -122.995 	 18.6559 	 -115.416
| 14> H 	 -123.775 	 18.6955 	 -114.673
| 15> H 	 -122.957 	 17.6154 	 -115.732
| 16> C 	 -123.286 	 19.7515 	 -116.465
| 17> H 	 -124.305 	 19.6512 	 -116.746
| 18> H 	 -123.207 	 20.662 	 -115.935
| 19> C 	 -122.381 	 19.7872 	 -117.736
| 20> H 	 -121.399 	 20.2073 	 -117.47
| 21> H 	 -122.205 	 18.745 	 -118.03
| 22> H 	 -122.775 	 20.4322 	 -118.521
| 23> S 	 -117.164 	 17.097 	 -113.689
| 24> C 	 -116.092 	 16.2463 	 -114.807
| 25> C 	 -116.614 	 16.2952 	 -116.061
| 26> C 	 -117.826 	 17.0522 	 -116.203
| 27> C 	 -118.24 	 17.5109 	 -114.95
| 28> H 	 -116.082 	 15.6878 	 -116.787
| 29> C 	 -118.38 	 17.3235 	 -117.605
| 30> H 	 -119.38 	 16.9367 	 -117.826
| 31> H 	 -117.774 	 16.892 	 -118.359
| 32> C 	 -118.587 	 18.7819 	 -118.048
| 33> H 	 -117.675 	 19.3392 	 -117.71
| 34> H 	 -119.44 	 19.1293 	 -117.477
| 35> C 	 -118.931 	 18.9301 	 -119.533
| 36> H 	 -119.107 	 19.9823 	 -119.797
| 37> H 	 -119.773 	 18.3348 	 -119.786
| 38> H 	 -117.967 	 18.6006 	 -120.002
| 39> H 	 -121.907 	 20.4877 	 -113.586
| 40> H 	 -115.236 	 15.5907 	 -114.577
| 41> *
| 42>
| 43>                          ****END OF INPUT****

CARTESIAN COORDINATES (ANGSTROEM)
---------------------------------
  S    -119.487000   19.558400  -113.437000
  C    -121.206000   19.703800  -113.816000
  C    -121.684000   18.708600  -114.706000
  C    -120.605000   17.892400  -115.094000
  C    -119.450000   18.215900  -114.495000
  H    -120.489000   16.984700  -115.711000
  C    -122.995000   18.655900  -115.416000
  H    -123.775000   18.695500  -114.673000
  H    -122.957000   17.615400  -115.732000
  C    -123.286000   19.751500  -116.465000
  H    -124.305000   19.651200  -116.746000
  H    -123.207000   20.662000  -115.935000
  C    -122.381000   19.787200  -117.736000
  H    -121.399000   20.207300  -117.470000
  H    -122.205000   18.745000  -118.030000
  H    -122.775000   20.432200  -118.521000
  S    -117.164000   17.097000  -113.689000
  C    -116.092000   16.246300  -114.807000
  C    -116.614000   16.295200  -116.061000
  C    -117.826000   17.052200  -116.203000
  C    -118.240000   17.510900  -114.950000
  H    -116.082000   15.687800  -116.787000
  C    -118.380000   17.323500  -117.605000
  H    -119.380000   16.936700  -117.826000
  H    -117.774000   16.892000  -118.359000
  C    -118.587000   18.781900  -118.048000
  H    -117.675000   19.339200  -117.710000
  H    -119.440000   19.129300  -117.477000
  C    -118.931000   18.930100  -119.533000
  H    -119.107000   19.982300  -119.797000
  H    -119.773000   18.334800  -119.786000
  H    -117.967000   18.600600  -120.002000
  H    -121.907000   20.487700  -113.586000
  H    -115.236000   15.590700  -114.577000

 Total Charge           Charge          ....    0
 Multiplicity           Mult            ....    1
 Number of Electrons    NEL             ....  134
 Basis Dimension        Dim             ....  322

ORBITAL ENERGIES
----------------

  NO   OCC          E(Eh)            E(eV)
   0   2.0000     -88.976472     -2421.1729
   1   2.0000     -88.963787     -2420.8277
   2   2.0000     -10.327332      -281.0210
   3   2.0000     -10.318982      -280.7938
   4   2.0000     -10.315187      -280.6905
   5   2.0000     -10.313173      -280.6357
   6   2.0000     -10.307484      -280.4809
   7   2.0000     -10.300586      -280.2932
   8   2.0000     -10.291063      -280.0341
   9   2.0000     -10.290991      -280.0321
  10   2.0000     -10.288913      -279.9756
  11   2.0000     -10.287044      -279.9247
  12   2.0000     -10.284730      -279.8617
  13   2.0000     -10.283185      -279.8197
  14   2.0000     -10.280384      -279.7435
  15   2.0000     -10.280314      -279.7416
  16   2.0000      -8.090967      -220.1664
  17   2.0000      -8.079201      -219.8462
  18   2.0000      -6.049371      -164.6118
  19   2.0000      -6.045666      -164.5109
  20   2.0000      -6.041701      -164.4030
  21   2.0000      -6.037667      -164.2933
  22   2.0000      -6.033552      -164.1813
  23   2.0000      -6.030034      -164.0856
  24   2.0000      -1.014783       -27.6136
  25   2.0000      -0.987651       -26.8754
  26   2.0000      -0.915783       -24.9197
  27   2.0000      -0.908882       -24.7319
  28   2.0000      -0.869807       -23.6687
  29   2.0000      -0.858502       -23.3610
  30   2.0000      -0.847038       -23.0491
  31   2.0000      -0.816387       -22.2150
  32   2.0000      -0.784779       -21.3549
  33   2.0000      -0.773157       -21.0387
  34   2.0000      -0.716819       -19.5056
  35   2.0000      -0.701566       -19.0906
  36   2.0000      -0.684130       -18.6161
  37   2.0000      -0.661530       -18.0012
  38   2.0000      -0.635037       -17.2802
  39   2.0000      -0.613697       -16.6995
  40   2.0000      -0.596279       -16.2256
  41   2.0000      -0.574141       -15.6232
  42   2.0000      -0.570860       -15.5339
  43   2.0000      -0.552254       -15.0276
  44   2.0000      -0.543047       -14.7771
  45   2.0000      -0.516595       -14.0573
  46   2.0000      -0.516189       -14.0462
  47   2.0000      -0.513443       -13.9715
  48   2.0000      -0.506303       -13.7772
  49   2.0000      -0.495711       -13.4890
  50   2.0000      -0.493725       -13.4349
  51   2.0000      -0.477094       -12.9824
  52   2.0000      -0.471922       -12.8417
  53   2.0000      -0.466337       -12.6897
  54   2.0000      -0.460112       -12.5203
  55   2.0000      -0.451427       -12.2840
  56   2.0000      -0.448123       -12.1940
  57   2.0000      -0.440926       -11.9982
  58   2.0000      -0.430516       -11.7149
  59   2.0000      -0.427572       -11.6348
  60   2.0000      -0.422008       -11.4834
  61   2.0000      -0.419483       -11.4147
  62   2.0000      -0.408253       -11.1091
  63   2.0000      -0.351479        -9.5642
  64   2.0000      -0.338348        -9.2069
  65   2.0000      -0.328808        -8.9473
  66   2.0000      -0.288359        -7.8467
  67   0.0000       0.029682         0.8077
  68   0.0000       0.072729         1.9791
  69   0.0000       0.102091         2.7780
  70   0.0000       0.116841         3.1794
  71   0.0000       0.130146         3.5414

MULLIKEN ATOMIC CHARGES
-----------------------
   0 S :    0.145398
   1 C :   -0.115013
   2 C :   -0.094816
   3 C :   -0.035085
   4 C :   -0.104876
   5 H :    0.027307
   6 C :    0.073303
   7 H :    0.021587
   8 H :    0.020575
   9 C :   -0.017168
  10 H :    0.024879
  11 H :    0.010417
  12 C :   -0.067987
  13 H :    0.052685
  14 H :    0.032138
  15 H :    0.042876
  16 S :    0.097647
  17 C :   -0.098851
  18 C :   -0.054174
  19 C :   -0.005041
  20 C :   -0.177877
  21 H :    0.020692
  22 C :    0.076112
  23 H :    0.009786
  24 H :   -0.004815
  25 C :   -0.105238
  26 H :    0.038247
  27 H :    0.018574
  28 C :   -0.039829
  29 H :    0.044649
  30 H :    0.029882
  31 H :    0.037312
  32 H :    0.034245
  33 H :    0.062458
Sum of atomic charges:    0.0000000

LOEWDIN ATOMIC CHARGES
----------------------
   0 S :    0.425552
   1 C :   -0.199742
   2 C :   -0.058223
   3 C :   -0.073520
   4 C :   -0.211381
   5 H :    0.042634
   6 C :   -0.032903
   7 H :    0.032579
   8 H :    0.031431
   9 C :   -0.027312
  10 H :    0.021078
  11 H :    0.018711
  12 C :   -0.064892
  13 H :    0.028038
  14 H :    0.024572
  15 H :    0.029594
  16 S :    0.411429
  17 C :   -0.195883
  18 C :   -0.068709
  19 C :   -0.066843
  20 C :   -0.193207
  21 H :    0.033525
  22 C :   -0.033032
  23 H :    0.025371
  24 H :    0.020198
  25 C :   -0.043504
  26 H :    0.026022
  27 H :    0.014678
  28 C :   -0.060864
  29 H :    0.031579
  30 H :    0.019366
  31 H :    0.031846
  32 H :    0.023833
  33 H :    0.037979

  Mayer bond orders larger than 0.100000
B(  0-S ,  1-C ) :   1.1337 B(  0-S ,  4-C ) :   1.1461 B(  1-C ,  2-C ) :   1.6047
B(  1-C , 32-H ) :   0.9659 B(  2-C ,  3-C ) :   1.2200 B(  2-C ,  6-C ) :   1.0225
B(  3-C ,  4-C ) :   1.6105 B(  3-C ,  5-H ) :   0.9878 B(  4-C , 20-C ) :   1.0092
B(  6-C ,  7-H ) :   0.9245 B(  6-C ,  8-H ) :   0.9415 B(  6-C ,  9-C ) :   1.0720
B(  9-C , 10-H ) :   0.9551 B(  9-C , 11-H ) :   0.9519 B(  9-C , 12-C ) :   1.0719
B( 12-C , 13-H ) :   0.9676 B( 12-C , 14-H ) :   0.9785 B( 12-C , 15-H ) :   0.9709
B( 16-S , 17-C ) :   1.1274 B( 16-S , 20-C ) :   1.1654 B( 17-C , 18-C ) :   1.6531
B( 17-C , 33-H ) :   0.9621 B( 18-C , 19-C ) :   1.2265 B( 18-C , 21-H ) :   0.9847
B( 19-C , 20-C ) :   1.5797 B( 19-C , 22-C ) :   1.0432 B( 22-C , 23-H ) :   0.9291
B( 22-C , 24-H ) :   0.9362 B( 22-C , 25-C ) :   1.0540 B( 25-C , 26-H ) :   0.9555
B( 25-C , 27-H ) :   0.9482 B( 25-C , 28-C ) :   1.0827 B( 28-C , 29-H ) :   0.9728
B( 28-C , 30-H ) :   0.9717 B( 28-C , 31-H ) :   0.9761

Dispersion correction           -0.016407931
FINAL SINGLE POINT ENERGY     -1339.864643425332

DIPOLE MOMENT
-------------
                                X             Y             Z
Electronic contribution:     14.69161      -4.95436      27.32164
Nuclear contribution   :    -15.06432       4.94610     -27.92756
                        -----------------------------------------
Total Dipole Moment    :     -0.37271      -0.00826      -0.60592
                        -----------------------------------------
Magnitude (a.u.)       :      0.71142
Magnitude (Debye)      :      1.80828

Rotational constants in cm-1:     0.018290     0.010880     0.007590
Rotational constants in MHz :   548.328104   326.179837   227.547698

                             ****ORCA TERMINATED NORMALLY****
TOTAL RUN TIME: 0 days 0 hours 0 minutes 22 seconds 481 msec
