                         Program Version 4.2.1 -  RELEASE  -
|  1> ! wB97X-D3 SP def2-SVP
|  2> %pal
|  3> nprocs 24
|  4> end
|  5>
|  6> * xyz 0 1
|  7> S 	 -95.7693 	 46.184 	 -90.5753
|  8> C 	 -95.4709 	 44.4486 	 -90.1292
|  9> C 	 -95.4539 	 43.6018 	 -91.2549
| 10> C 	 -95.7911 	 44.4272 	 -92.4136
| 11> C 	 -96.2029 	 45.7424 	 -92.1835
| 12> H 	 -95.8771 	 44.0315 	 -93.3851
| 13> C 	 -95.2707 	 42.0726 	 -91.261
| 14> H 	 -95.631 	 41.8452 	 -92.3171
| 15> H 	 -95.8809 	 41.5599 	 -90.5329
| 16> C 	 -93.831 	 41.5584 	 -91.0294
| 17> H 	 -93.4699 	 41.875 	 -90.0789
| 18> H 	 -93.9446 	 40.4218 	 -91.0317
| 19> C 	 -92.7944 	 41.9069 	 -92.1022
| 20> H 	 -92.651 	 42.9298 	 -92.1153
| 21> H 	 -91.7783 	 41.4336 	 -91.9895
| 22> H 	 -92.9586 	 41.6985 	 -93.2245
| 23> S 	 -95.8824 	 47.7741 	 -93.9838
| 24> C 	 -97.0383 	 48.2143 	 -95.1781
| 25> C 	 -98.1231 	 47.3369 	 -95.0176
| 26> C 	 -98.0321 	 46.4253 	 -93.8711
| 27> C 	 -96.8186 	 46.572 	 -93.2097
| 28> H 	 -98.9782 	 47.3875 	 -95.6692
| 29> C 	 -98.9723 	 45.3297 	 -93.6021
| 30> H 	 -100.035 	 45.623 	 -93.5079
| 31> H 	 -98.7815 	 44.8599 	 -92.6524
| 32> C 	 -98.8894 	 44.0802 	 -94.4787
| 33> H 	 -97.8401 	 43.9158 	 -94.7203
| 34> H 	 -99.4127 	 44.2384 	 -95.4238
| 35> C 	 -99.4381 	 42.8024 	 -93.7557
| 36> H 	 -99.2254 	 41.9378 	 -94.3443
| 37> H 	 -100.472 	 42.8164 	 -93.4565
| 38> H 	 -98.9537 	 42.6739 	 -92.7958
| 39> H 	 -95.3618 	 44.1314 	 -89.1273
| 40> H 	 -96.9488 	 48.8018 	 -96.0817
| 41> *
| 42>
| 43>                          ****END OF INPUT****

CARTESIAN COORDINATES (ANGSTROEM)
---------------------------------
  S    -95.769300   46.184000  -90.575300
  C    -95.470900   44.448600  -90.129200
  C    -95.453900   43.601800  -91.254900
  C    -95.791100   44.427200  -92.413600
  C    -96.202900   45.742400  -92.183500
  H    -95.877100   44.031500  -93.385100
  C    -95.270700   42.072600  -91.261000
  H    -95.631000   41.845200  -92.317100
  H    -95.880900   41.559900  -90.532900
  C    -93.831000   41.558400  -91.029400
  H    -93.469900   41.875000  -90.078900
  H    -93.944600   40.421800  -91.031700
  C    -92.794400   41.906900  -92.102200
  H    -92.651000   42.929800  -92.115300
  H    -91.778300   41.433600  -91.989500
  H    -92.958600   41.698500  -93.224500
  S    -95.882400   47.774100  -93.983800
  C    -97.038300   48.214300  -95.178100
  C    -98.123100   47.336900  -95.017600
  C    -98.032100   46.425300  -93.871100
  C    -96.818600   46.572000  -93.209700
  H    -98.978200   47.387500  -95.669200
  C    -98.972300   45.329700  -93.602100
  H    -100.035000   45.623000  -93.507900
  H    -98.781500   44.859900  -92.652400
  C    -98.889400   44.080200  -94.478700
  H    -97.840100   43.915800  -94.720300
  H    -99.412700   44.238400  -95.423800
  C    -99.438100   42.802400  -93.755700
  H    -99.225400   41.937800  -94.344300
  H    -100.472000   42.816400  -93.456500
  H    -98.953700   42.673900  -92.795800
  H    -95.361800   44.131400  -89.127300
  H    -96.948800   48.801800  -96.081700

 Total Charge           Charge          ....    0
 Multiplicity           Mult            ....    1
 Number of Electrons    NEL             ....  134
 Basis Dimension        Dim             ....  322

ORBITAL ENERGIES
----------------

  NO   OCC          E(Eh)            E(eV)
   0   2.0000     -88.968918     -2420.9673
   1   2.0000     -88.963953     -2420.8322
   2   2.0000     -10.331638      -281.1382
   3   2.0000     -10.325555      -280.9726
   4   2.0000     -10.321905      -280.8733
   5   2.0000     -10.319370      -280.8043
   6   2.0000     -10.313015      -280.6314
   7   2.0000     -10.306889      -280.4647
   8   2.0000     -10.304543      -280.4009
   9   2.0000     -10.297531      -280.2101
  10   2.0000     -10.297351      -280.2052
  11   2.0000     -10.297168      -280.2002
  12   2.0000     -10.286484      -279.9095
  13   2.0000     -10.282683      -279.8060
  14   2.0000     -10.280071      -279.7350
  15   2.0000     -10.275412      -279.6082
  16   2.0000      -8.083008      -219.9498
  17   2.0000      -8.079832      -219.8634
  18   2.0000      -6.041569      -164.3994
  19   2.0000      -6.038316      -164.3109
  20   2.0000      -6.037654      -164.2929
  21   2.0000      -6.033855      -164.1896
  22   2.0000      -6.033682      -164.1848
  23   2.0000      -6.030830      -164.1072
  24   2.0000      -1.009126       -27.4597
  25   2.0000      -0.981363       -26.7043
  26   2.0000      -0.912256       -24.8237
  27   2.0000      -0.910638       -24.7797
  28   2.0000      -0.868659       -23.6374
  29   2.0000      -0.847959       -23.0741
  30   2.0000      -0.843332       -22.9482
  31   2.0000      -0.812104       -22.0985
  32   2.0000      -0.786090       -21.3906
  33   2.0000      -0.775022       -21.0894
  34   2.0000      -0.707476       -19.2514
  35   2.0000      -0.704373       -19.1670
  36   2.0000      -0.698162       -18.9979
  37   2.0000      -0.660372       -17.9696
  38   2.0000      -0.643659       -17.5148
  39   2.0000      -0.617573       -16.8050
  40   2.0000      -0.600140       -16.3306
  41   2.0000      -0.573540       -15.6068
  42   2.0000      -0.563384       -15.3305
  43   2.0000      -0.550441       -14.9783
  44   2.0000      -0.544005       -14.8031
  45   2.0000      -0.523792       -14.2531
  46   2.0000      -0.521031       -14.1780
  47   2.0000      -0.515067       -14.0157
  48   2.0000      -0.509286       -13.8584
  49   2.0000      -0.496517       -13.5109
  50   2.0000      -0.493304       -13.4235
  51   2.0000      -0.474217       -12.9041
  52   2.0000      -0.471820       -12.8389
  53   2.0000      -0.466222       -12.6866
  54   2.0000      -0.455996       -12.4083
  55   2.0000      -0.448832       -12.2133
  56   2.0000      -0.444100       -12.0846
  57   2.0000      -0.433071       -11.7845
  58   2.0000      -0.431896       -11.7525
  59   2.0000      -0.427640       -11.6367
  60   2.0000      -0.420670       -11.4470
  61   2.0000      -0.414311       -11.2740
  62   2.0000      -0.411847       -11.2069
  63   2.0000      -0.335720        -9.1354
  64   2.0000      -0.331872        -9.0307
  65   2.0000      -0.321651        -8.7526
  66   2.0000      -0.305937        -8.3250
  67   0.0000       0.034284         0.9329
  68   0.0000       0.053691         1.4610
  69   0.0000       0.111202         3.0260
  70   0.0000       0.114538         3.1167
  71   0.0000       0.120595         3.2816

MULLIKEN ATOMIC CHARGES
-----------------------
   0 S :    0.118524
   1 C :   -0.121141
   2 C :   -0.082911
   3 C :    0.050717
   4 C :   -0.163155
   5 H :   -0.008363
   6 C :    0.060929
   7 H :    0.032988
   8 H :    0.042136
   9 C :   -0.051877
  10 H :    0.029624
  11 H :    0.042297
  12 C :   -0.083652
  13 H :    0.024899
  14 H :    0.040416
  15 H :    0.031654
  16 S :    0.116584
  17 C :   -0.081209
  18 C :   -0.053457
  19 C :   -0.015943
  20 C :   -0.162187
  21 H :    0.016523
  22 C :    0.057141
  23 H :    0.029233
  24 H :    0.008876
  25 C :   -0.066834
  26 H :    0.019566
  27 H :    0.027487
  28 C :   -0.048854
  29 H :    0.032975
  30 H :    0.029520
  31 H :    0.023611
  32 H :    0.036410
  33 H :    0.067472
Sum of atomic charges:   -0.0000000

LOEWDIN ATOMIC CHARGES
----------------------
   0 S :    0.395616
   1 C :   -0.167850
   2 C :   -0.061031
   3 C :   -0.052732
   4 C :   -0.210303
   5 H :    0.016777
   6 C :   -0.029435
   7 H :    0.039108
   8 H :    0.034472
   9 C :   -0.035877
  10 H :    0.021910
  11 H :    0.033053
  12 C :   -0.081465
  13 H :    0.014148
  14 H :    0.033664
  15 H :    0.033387
  16 S :    0.442168
  17 C :   -0.205122
  18 C :   -0.067954
  19 C :   -0.054949
  20 C :   -0.214804
  21 H :    0.025230
  22 C :   -0.044366
  23 H :    0.033759
  24 H :    0.029955
  25 C :   -0.031221
  26 H :    0.020024
  27 H :    0.019858
  28 C :   -0.063648
  29 H :    0.024499
  30 H :    0.023884
  31 H :    0.023880
  32 H :    0.016765
  33 H :    0.038599

  Mayer bond orders larger than 0.100000
B(  0-S ,  1-C ) :   1.1413 B(  0-S ,  4-C ) :   1.1418 B(  1-C ,  2-C ) :   1.5998
B(  1-C , 32-H ) :   0.9765 B(  2-C ,  3-C ) :   1.2358 B(  2-C ,  6-C ) :   1.0016
B(  3-C ,  4-C ) :   1.5790 B(  3-C ,  5-H ) :   0.9924 B(  4-C , 20-C ) :   1.0184
B(  6-C ,  7-H ) :   0.9425 B(  6-C ,  8-H ) :   0.9460 B(  6-C ,  9-C ) :   1.0685
B(  9-C , 10-H ) :   0.9561 B(  9-C , 11-H ) :   0.9585 B(  9-C , 12-C ) :   1.0662
B( 12-C , 13-H ) :   0.9762 B( 12-C , 14-H ) :   0.9746 B( 12-C , 15-H ) :   0.9753
B( 16-S , 17-C ) :   1.1671 B( 16-S , 20-C ) :   1.1721 B( 17-C , 18-C ) :   1.5817
B( 17-C , 33-H ) :   0.9693 B( 18-C , 19-C ) :   1.2535 B( 18-C , 21-H ) :   0.9896
B( 19-C , 20-C ) :   1.5654 B( 19-C , 22-C ) :   1.0905 B( 22-C , 23-H ) :   0.9256
B( 22-C , 24-H ) :   0.9254 B( 22-C , 25-C ) :   1.0534 B( 25-C , 26-H ) :   0.9537
B( 25-C , 27-H ) :   0.9510 B( 25-C , 28-C ) :   1.0833 B( 28-C , 29-H ) :   0.9753
B( 28-C , 30-H ) :   0.9764 B( 28-C , 31-H ) :   0.9705

Dispersion correction           -0.015233474
FINAL SINGLE POINT ENERGY     -1339.860518261865

DIPOLE MOMENT
-------------
                                X             Y             Z
Electronic contribution:      2.89359      27.69153       3.63560
Nuclear contribution   :     -3.07955     -28.43259      -3.82938
                        -----------------------------------------
Total Dipole Moment    :     -0.18596      -0.74106      -0.19378
                        -----------------------------------------
Magnitude (a.u.)       :      0.78823
Magnitude (Debye)      :      2.00351

Rotational constants in cm-1:     0.018215     0.008975     0.007361
Rotational constants in MHz :   546.063958   269.049940   220.678416

                             ****ORCA TERMINATED NORMALLY****
TOTAL RUN TIME: 0 days 0 hours 0 minutes 22 seconds 200 msec
