                         Program Version 4.2.1 -  RELEASE  -
|  1> ! wB97X-D3 SP def2-SVP
|  2> %pal
|  3> nprocs 24
|  4> end
|  5>
|  6> * xyz 0 1
|  7> S 	 -146.679 	 5.16795 	 15.5381
|  8> C 	 -146.487 	 3.60655 	 14.8467
|  9> C 	 -146.563 	 3.63306 	 13.4659
| 10> C 	 -146.592 	 4.93754 	 12.9607
| 11> C 	 -146.654 	 5.86077 	 13.9503
| 12> H 	 -146.641 	 5.19677 	 11.8639
| 13> C 	 -146.579 	 2.41512 	 12.5987
| 14> H 	 -147.656 	 2.08536 	 12.5348
| 15> H 	 -146.021 	 1.7039 	 13.1447
| 16> C 	 -146.157 	 2.51768 	 11.138
| 17> H 	 -146.448 	 1.72368 	 10.4714
| 18> H 	 -146.647 	 3.3948 	 10.711
| 19> C 	 -144.637 	 2.74631 	 11.1128
| 20> H 	 -144.409 	 2.96509 	 10.0662
| 21> H 	 -144.345 	 3.5447 	 11.7814
| 22> H 	 -144.122 	 1.8495 	 11.3439
| 23> S 	 -146.386 	 8.22242 	 15.1813
| 24> C 	 -146.623 	 9.76103 	 14.3519
| 25> C 	 -146.861 	 9.50107 	 13.0351
| 26> C 	 -146.971 	 8.10594 	 12.6343
| 27> C 	 -146.64 	 7.27684 	 13.6929
| 28> H 	 -147.02 	 10.3847 	 12.4137
| 29> C 	 -147.417 	 7.65318 	 11.2391
| 30> H 	 -148.27 	 8.20054 	 10.9924
| 31> H 	 -147.866 	 6.69983 	 11.2944
| 32> C 	 -146.377 	 7.72049 	 10.2007
| 33> H 	 -145.733 	 6.91663 	 10.4942
| 34> H 	 -145.721 	 8.61723 	 10.2497
| 35> C 	 -146.903 	 7.43052 	 8.76571
| 36> H 	 -147.962 	 7.52374 	 8.64215
| 37> H 	 -146.6 	 6.50134 	 8.27039
| 38> H 	 -146.407 	 8.14389 	 8.07073
| 39> H 	 -146.686 	 2.71081 	 15.3473
| 40> H 	 -146.729 	 10.6927 	 14.8293
| 41> *
| 42>
| 43>                          ****END OF INPUT****

CARTESIAN COORDINATES (ANGSTROEM)
---------------------------------
  S    -146.679000    5.167950   15.538100
  C    -146.487000    3.606550   14.846700
  C    -146.563000    3.633060   13.465900
  C    -146.592000    4.937540   12.960700
  C    -146.654000    5.860770   13.950300
  H    -146.641000    5.196770   11.863900
  C    -146.579000    2.415120   12.598700
  H    -147.656000    2.085360   12.534800
  H    -146.021000    1.703900   13.144700
  C    -146.157000    2.517680   11.138000
  H    -146.448000    1.723680   10.471400
  H    -146.647000    3.394800   10.711000
  C    -144.637000    2.746310   11.112800
  H    -144.409000    2.965090   10.066200
  H    -144.345000    3.544700   11.781400
  H    -144.122000    1.849500   11.343900
  S    -146.386000    8.222420   15.181300
  C    -146.623000    9.761030   14.351900
  C    -146.861000    9.501070   13.035100
  C    -146.971000    8.105940   12.634300
  C    -146.640000    7.276840   13.692900
  H    -147.020000   10.384700   12.413700
  C    -147.417000    7.653180   11.239100
  H    -148.270000    8.200540   10.992400
  H    -147.866000    6.699830   11.294400
  C    -146.377000    7.720490   10.200700
  H    -145.733000    6.916630   10.494200
  H    -145.721000    8.617230   10.249700
  C    -146.903000    7.430520    8.765710
  H    -147.962000    7.523740    8.642150
  H    -146.600000    6.501340    8.270390
  H    -146.407000    8.143890    8.070730
  H    -146.686000    2.710810   15.347300
  H    -146.729000   10.692700   14.829300

 Total Charge           Charge          ....    0
 Multiplicity           Mult            ....    1
 Number of Electrons    NEL             ....  134
 Basis Dimension        Dim             ....  322

ORBITAL ENERGIES
----------------

  NO   OCC          E(Eh)            E(eV)
   0   2.0000     -88.970836     -2421.0195
   1   2.0000     -88.957704     -2420.6622
   2   2.0000     -10.328713      -281.0586
   3   2.0000     -10.325302      -280.9658
   4   2.0000     -10.313342      -280.6403
   5   2.0000     -10.308185      -280.5000
   6   2.0000     -10.303769      -280.3798
   7   2.0000     -10.296798      -280.1901
   8   2.0000     -10.295522      -280.1554
   9   2.0000     -10.290189      -280.0103
  10   2.0000     -10.288517      -279.9648
  11   2.0000     -10.286959      -279.9224
  12   2.0000     -10.286733      -279.9162
  13   2.0000     -10.284025      -279.8425
  14   2.0000     -10.282210      -279.7931
  15   2.0000     -10.270851      -279.4841
  16   2.0000      -8.086082      -220.0335
  17   2.0000      -8.072439      -219.6622
  18   2.0000      -6.044594      -164.4818
  19   2.0000      -6.040643      -164.3743
  20   2.0000      -6.036670      -164.2661
  21   2.0000      -6.031131      -164.1154
  22   2.0000      -6.027007      -164.0032
  23   2.0000      -6.022965      -163.8932
  24   2.0000      -1.015842       -27.6425
  25   2.0000      -0.984779       -26.7972
  26   2.0000      -0.920830       -25.0570
  27   2.0000      -0.917689       -24.9716
  28   2.0000      -0.875736       -23.8300
  29   2.0000      -0.856455       -23.3053
  30   2.0000      -0.841802       -22.9066
  31   2.0000      -0.819558       -22.3013
  32   2.0000      -0.786368       -21.3982
  33   2.0000      -0.775693       -21.1077
  34   2.0000      -0.716851       -19.5065
  35   2.0000      -0.707654       -19.2563
  36   2.0000      -0.699889       -19.0449
  37   2.0000      -0.663181       -18.0461
  38   2.0000      -0.634590       -17.2681
  39   2.0000      -0.632031       -17.1984
  40   2.0000      -0.602436       -16.3931
  41   2.0000      -0.566805       -15.4236
  42   2.0000      -0.561769       -15.2865
  43   2.0000      -0.556069       -15.1314
  44   2.0000      -0.541700       -14.7404
  45   2.0000      -0.533793       -14.5252
  46   2.0000      -0.522578       -14.2201
  47   2.0000      -0.521482       -14.1902
  48   2.0000      -0.506946       -13.7947
  49   2.0000      -0.498821       -13.5736
  50   2.0000      -0.492448       -13.4002
  51   2.0000      -0.489311       -13.3148
  52   2.0000      -0.470022       -12.7899
  53   2.0000      -0.468522       -12.7491
  54   2.0000      -0.460257       -12.5242
  55   2.0000      -0.451790       -12.2938
  56   2.0000      -0.449129       -12.2214
  57   2.0000      -0.448070       -12.1926
  58   2.0000      -0.438071       -11.9205
  59   2.0000      -0.427716       -11.6387
  60   2.0000      -0.413706       -11.2575
  61   2.0000      -0.409087       -11.1318
  62   2.0000      -0.405504       -11.0343
  63   2.0000      -0.365362        -9.9420
  64   2.0000      -0.336202        -9.1485
  65   2.0000      -0.325496        -8.8572
  66   2.0000      -0.281824        -7.6688
  67   0.0000       0.019251         0.5238
  68   0.0000       0.086363         2.3501
  69   0.0000       0.097492         2.6529
  70   0.0000       0.119263         3.2453
  71   0.0000       0.122073         3.3218

MULLIKEN ATOMIC CHARGES
-----------------------
   0 S :    0.128401
   1 C :   -0.088871
   2 C :   -0.119403
   3 C :   -0.058067
   4 C :   -0.072061
   5 H :    0.024226
   6 C :    0.089266
   7 H :    0.046482
   8 H :    0.011849
   9 C :   -0.072223
  10 H :    0.028509
  11 H :    0.016371
  12 C :   -0.039191
  13 H :    0.025795
  14 H :    0.046590
  15 H :    0.023778
  16 S :    0.050392
  17 C :   -0.068053
  18 C :   -0.034171
  19 C :   -0.084791
  20 C :   -0.119014
  21 H :    0.020288
  22 C :    0.106730
  23 H :   -0.001146
  24 H :    0.005614
  25 C :   -0.044989
  26 H :    0.014969
  27 H :    0.040039
  28 C :   -0.045366
  29 H :    0.031008
  30 H :    0.032065
  31 H :    0.030194
  32 H :    0.027997
  33 H :    0.046782
Sum of atomic charges:   -0.0000000

LOEWDIN ATOMIC CHARGES
----------------------
   0 S :    0.430199
   1 C :   -0.208436
   2 C :   -0.057250
   3 C :   -0.076372
   4 C :   -0.193969
   5 H :    0.040496
   6 C :   -0.034069
   7 H :    0.042395
   8 H :    0.023768
   9 C :   -0.040494
  10 H :    0.025722
  11 H :    0.019494
  12 C :   -0.058142
  13 H :    0.025002
  14 H :    0.027177
  15 H :    0.019496
  16 S :    0.364912
  17 C :   -0.173020
  18 C :   -0.069605
  19 C :   -0.055176
  20 C :   -0.166472
  21 H :    0.031981
  22 C :   -0.029377
  23 H :    0.021687
  24 H :    0.024212
  25 C :   -0.041781
  26 H :    0.022817
  27 H :    0.031657
  28 C :   -0.072236
  29 H :    0.021006
  30 H :    0.028037
  31 H :    0.034495
  32 H :    0.017177
  33 H :    0.024669

  Mayer bond orders larger than 0.100000
B(  0-S ,  1-C ) :   1.1313 B(  0-S ,  4-C ) :   1.1535 B(  1-C ,  2-C ) :   1.6123
B(  1-C , 32-H ) :   0.9649 B(  2-C ,  3-C ) :   1.2662 B(  2-C ,  6-C ) :   1.0135
B(  3-C ,  4-C ) :   1.5583 B(  3-C ,  5-H ) :   0.9755 B(  4-C , 20-C ) :   1.0881
B(  6-C ,  7-H ) :   0.9203 B(  6-C ,  8-H ) :   0.9393 B(  6-C ,  9-C ) :   1.0866
B(  9-C , 10-H ) :   0.9521 B(  9-C , 11-H ) :   0.9471 B(  9-C , 12-C ) :   1.0788
B( 12-C , 13-H ) :   0.9746 B( 12-C , 14-H ) :   0.9768 B( 12-C , 15-H ) :   0.9758
B( 16-S , 17-C ) :   1.1271 B( 16-S , 20-C ) :   1.1162 B( 17-C , 18-C ) :   1.6486
B( 17-C , 33-H ) :   0.9755 B( 18-C , 19-C ) :   1.2088 B( 18-C , 21-H ) :   0.9859
B( 19-C , 20-C ) :   1.6098 B( 19-C , 22-C ) :   1.0381 B( 22-C , 23-H ) :   0.9158
B( 22-C , 24-H ) :   0.9230 B( 22-C , 25-C ) :   1.0669 B( 25-C , 26-H ) :   0.9494
B( 25-C , 27-H ) :   0.9617 B( 25-C , 28-C ) :   1.0526 B( 28-C , 29-H ) :   0.9806
B( 28-C , 30-H ) :   0.9767 B( 28-C , 31-H ) :   0.9756

Dispersion correction           -0.014529459
FINAL SINGLE POINT ENERGY     -1339.864610172487

DIPOLE MOMENT
-------------
                                X             Y             Z
Electronic contribution:     -2.29978      10.13998      30.46829
Nuclear contribution   :      2.00858     -10.32273     -31.24149
                        -----------------------------------------
Total Dipole Moment    :     -0.29119      -0.18275      -0.77320
                        -----------------------------------------
Magnitude (a.u.)       :      0.84619
Magnitude (Debye)      :      2.15084

Rotational constants in cm-1:     0.016080     0.011178     0.006974
Rotational constants in MHz :   482.055262   335.115487   209.077934

                             ****ORCA TERMINATED NORMALLY****
TOTAL RUN TIME: 0 days 0 hours 0 minutes 21 seconds 499 msec
