                         Program Version 4.2.1 -  RELEASE  -
|  1> ! wB97X-D3 SP def2-SVP
|  2> %pal
|  3> nprocs 24
|  4> end
|  5>
|  6> * xyz 0 1
|  7> S 	 -38.9916 	 -10.0722 	 10.3175
|  8> C 	 -40.3349 	 -10.2123 	 9.29472
|  9> C 	 -40.0255 	 -10.2529 	 7.95375
| 10> C 	 -38.5873 	 -10.21 	 7.71873
| 11> C 	 -37.9282 	 -10.067 	 8.94987
| 12> H 	 -38.1094 	 -10.227 	 6.7789
| 13> C 	 -41.0391 	 -10.3765 	 6.91873
| 14> H 	 -42.0651 	 -10.6631 	 7.25827
| 15> H 	 -40.8826 	 -11.2324 	 6.32954
| 16> C 	 -41.4062 	 -9.1087 	 6.08038
| 17> H 	 -42.4 	 -9.27535 	 5.81353
| 18> H 	 -41.3781 	 -8.27576 	 6.80461
| 19> C 	 -40.5482 	 -9.03305 	 4.8276
| 20> H 	 -39.4917 	 -9.09038 	 4.99726
| 21> H 	 -40.9002 	 -9.91738 	 4.25059
| 22> H 	 -40.7357 	 -8.08076 	 4.28471
| 23> S 	 -35.5682 	 -10.4082 	 10.4081
| 24> C 	 -34.1044 	 -9.46322 	 9.95997
| 25> C 	 -34.3551 	 -8.74011 	 8.86052
| 26> C 	 -35.7637 	 -8.79385 	 8.40026
| 27> C 	 -36.5676 	 -9.68548 	 9.11145
| 28> H 	 -33.6063 	 -8.10592 	 8.34159
| 29> C 	 -36.2194 	 -7.82623 	 7.40239
| 30> H 	 -36.8999 	 -8.24819 	 6.62053
| 31> H 	 -35.3413 	 -7.60094 	 6.82601
| 32> C 	 -36.8266 	 -6.50349 	 8.02418
| 33> H 	 -36.0937 	 -6.12083 	 8.64238
| 34> H 	 -37.5935 	 -6.71898 	 8.65746
| 35> C 	 -37.3983 	 -5.4101 	 6.99231
| 36> H 	 -38.077 	 -4.70489 	 7.47564
| 37> H 	 -37.9422 	 -5.86136 	 6.14601
| 38> H 	 -36.5439 	 -4.88985 	 6.59654
| 39> H 	 -41.3636 	 -10.4339 	 9.71761
| 40> H 	 -33.2092 	 -9.40781 	 10.5517
| 41> *
| 42>
| 43>                          ****END OF INPUT****

CARTESIAN COORDINATES (ANGSTROEM)
---------------------------------
  S    -38.991600  -10.072200   10.317500
  C    -40.334900  -10.212300    9.294720
  C    -40.025500  -10.252900    7.953750
  C    -38.587300  -10.210000    7.718730
  C    -37.928200  -10.067000    8.949870
  H    -38.109400  -10.227000    6.778900
  C    -41.039100  -10.376500    6.918730
  H    -42.065100  -10.663100    7.258270
  H    -40.882600  -11.232400    6.329540
  C    -41.406200   -9.108700    6.080380
  H    -42.400000   -9.275350    5.813530
  H    -41.378100   -8.275760    6.804610
  C    -40.548200   -9.033050    4.827600
  H    -39.491700   -9.090380    4.997260
  H    -40.900200   -9.917380    4.250590
  H    -40.735700   -8.080760    4.284710
  S    -35.568200  -10.408200   10.408100
  C    -34.104400   -9.463220    9.959970
  C    -34.355100   -8.740110    8.860520
  C    -35.763700   -8.793850    8.400260
  C    -36.567600   -9.685480    9.111450
  H    -33.606300   -8.105920    8.341590
  C    -36.219400   -7.826230    7.402390
  H    -36.899900   -8.248190    6.620530
  H    -35.341300   -7.600940    6.826010
  C    -36.826600   -6.503490    8.024180
  H    -36.093700   -6.120830    8.642380
  H    -37.593500   -6.718980    8.657460
  C    -37.398300   -5.410100    6.992310
  H    -38.077000   -4.704890    7.475640
  H    -37.942200   -5.861360    6.146010
  H    -36.543900   -4.889850    6.596540
  H    -41.363600  -10.433900    9.717610
  H    -33.209200   -9.407810   10.551700

 Total Charge           Charge          ....    0
 Multiplicity           Mult            ....    1
 Number of Electrons    NEL             ....  134
 Basis Dimension        Dim             ....  322

ORBITAL ENERGIES
----------------

  NO   OCC          E(Eh)            E(eV)
   0   2.0000     -88.968168     -2420.9469
   1   2.0000     -88.958465     -2420.6829
   2   2.0000     -10.328628      -281.0563
   3   2.0000     -10.326774      -281.0058
   4   2.0000     -10.319040      -280.7954
   5   2.0000     -10.313678      -280.6494
   6   2.0000     -10.303043      -280.3600
   7   2.0000     -10.300513      -280.2912
   8   2.0000     -10.300094      -280.2798
   9   2.0000     -10.298041      -280.2240
  10   2.0000     -10.289205      -279.9835
  11   2.0000     -10.284109      -279.8448
  12   2.0000     -10.283375      -279.8249
  13   2.0000     -10.282255      -279.7944
  14   2.0000     -10.281057      -279.7618
  15   2.0000     -10.277002      -279.6514
  16   2.0000      -8.084357      -219.9865
  17   2.0000      -8.072380      -219.6606
  18   2.0000      -6.042676      -164.4296
  19   2.0000      -6.038649      -164.3200
  20   2.0000      -6.035239      -164.2272
  21   2.0000      -6.031245      -164.1185
  22   2.0000      -6.026961      -164.0019
  23   2.0000      -6.022852      -163.8901
  24   2.0000      -1.009735       -27.4763
  25   2.0000      -0.980281       -26.6748
  26   2.0000      -0.918343       -24.9894
  27   2.0000      -0.900638       -24.5076
  28   2.0000      -0.875417       -23.8213
  29   2.0000      -0.855096       -23.2684
  30   2.0000      -0.839041       -22.8315
  31   2.0000      -0.818463       -22.2715
  32   2.0000      -0.781735       -21.2721
  33   2.0000      -0.765631       -20.8339
  34   2.0000      -0.715384       -19.4666
  35   2.0000      -0.705546       -19.1989
  36   2.0000      -0.695924       -18.9370
  37   2.0000      -0.665510       -18.1094
  38   2.0000      -0.643190       -17.5021
  39   2.0000      -0.623550       -16.9677
  40   2.0000      -0.593851       -16.1595
  41   2.0000      -0.574077       -15.6214
  42   2.0000      -0.557432       -15.1685
  43   2.0000      -0.548654       -14.9296
  44   2.0000      -0.537204       -14.6181
  45   2.0000      -0.521676       -14.1955
  46   2.0000      -0.516550       -14.0560
  47   2.0000      -0.512888       -13.9564
  48   2.0000      -0.510995       -13.9049
  49   2.0000      -0.498194       -13.5565
  50   2.0000      -0.493217       -13.4211
  51   2.0000      -0.487982       -13.2787
  52   2.0000      -0.478080       -13.0092
  53   2.0000      -0.463675       -12.6172
  54   2.0000      -0.456622       -12.4253
  55   2.0000      -0.450368       -12.2551
  56   2.0000      -0.438826       -11.9411
  57   2.0000      -0.436985       -11.8910
  58   2.0000      -0.434184       -11.8148
  59   2.0000      -0.430978       -11.7275
  60   2.0000      -0.426067       -11.5939
  61   2.0000      -0.408551       -11.1172
  62   2.0000      -0.405499       -11.0342
  63   2.0000      -0.351637        -9.5685
  64   2.0000      -0.333032        -9.0623
  65   2.0000      -0.323577        -8.8050
  66   2.0000      -0.289237        -7.8705
  67   0.0000       0.022359         0.6084
  68   0.0000       0.079950         2.1756
  69   0.0000       0.106892         2.9087
  70   0.0000       0.116008         3.1567
  71   0.0000       0.123577         3.3627

MULLIKEN ATOMIC CHARGES
-----------------------
   0 S :    0.131351
   1 C :   -0.131614
   2 C :   -0.067842
   3 C :    0.048052
   4 C :   -0.140804
   5 H :    0.006312
   6 C :    0.012747
   7 H :    0.007184
   8 H :    0.009390
   9 C :   -0.033766
  10 H :    0.013117
  11 H :    0.032420
  12 C :   -0.050087
  13 H :    0.027125
  14 H :    0.035352
  15 H :    0.042024
  16 S :    0.065431
  17 C :   -0.079913
  18 C :   -0.021092
  19 C :   -0.079958
  20 C :   -0.123566
  21 H :    0.033812
  22 C :    0.050135
  23 H :    0.017197
  24 H :    0.006099
  25 C :   -0.000164
  26 H :    0.003535
  27 H :    0.009838
  28 C :   -0.059731
  29 H :    0.040950
  30 H :    0.034745
  31 H :    0.030986
  32 H :    0.071246
  33 H :    0.059489
Sum of atomic charges:    0.0000000

LOEWDIN ATOMIC CHARGES
----------------------
   0 S :    0.441671
   1 C :   -0.220179
   2 C :   -0.065066
   3 C :   -0.041394
   4 C :   -0.199621
   5 H :    0.025161
   6 C :   -0.042739
   7 H :    0.035020
   8 H :    0.022654
   9 C :   -0.029065
  10 H :    0.015750
  11 H :    0.026017
  12 C :   -0.066840
  13 H :    0.016991
  14 H :    0.032764
  15 H :    0.029166
  16 S :    0.350264
  17 C :   -0.162760
  18 C :   -0.072036
  19 C :   -0.058789
  20 C :   -0.185966
  21 H :    0.037610
  22 C :   -0.037740
  23 H :    0.028100
  24 H :    0.025284
  25 C :   -0.016873
  26 H :    0.014693
  27 H :    0.012570
  28 C :   -0.063314
  29 H :    0.028175
  30 H :    0.026399
  31 H :    0.021548
  32 H :    0.040366
  33 H :    0.032179

  Mayer bond orders larger than 0.100000
B(  0-S ,  1-C ) :   1.1478 B(  0-S ,  4-C ) :   1.1701 B(  1-C ,  2-C ) :   1.6028
B(  1-C , 32-H ) :   0.9568 B(  2-C ,  3-C ) :   1.2315 B(  2-C ,  6-C ) :   1.0538
B(  3-C ,  4-C ) :   1.5308 B(  3-C ,  5-H ) :   1.0065 B(  4-C , 20-C ) :   1.0712
B(  6-C ,  7-H ) :   0.9428 B(  6-C ,  8-H ) :   0.9303 B(  6-C ,  9-C ) :   1.0543
B(  9-C , 10-H ) :   0.9606 B(  9-C , 11-H ) :   0.9550 B(  9-C , 12-C ) :   1.0732
B( 12-C , 13-H ) :   0.9789 B( 12-C , 14-H ) :   0.9743 B( 12-C , 15-H ) :   0.9722
B( 16-S , 17-C ) :   1.1206 B( 16-S , 20-C ) :   1.1004 B( 17-C , 18-C ) :   1.6515
B( 17-C , 33-H ) :   0.9685 B( 18-C , 19-C ) :   1.2097 B( 18-C , 21-H ) :   0.9783
B( 19-C , 20-C ) :   1.6090 B( 19-C , 22-C ) :   1.0781 B( 22-C , 23-H ) :   0.9307
B( 22-C , 24-H ) :   0.9228 B( 22-C , 25-C ) :   1.0466 B( 25-C , 26-H ) :   0.9542
B( 25-C , 27-H ) :   0.9610 B( 25-C , 28-C ) :   1.0671 B( 28-C , 29-H ) :   0.9784
B( 28-C , 30-H ) :   0.9784 B( 28-C , 31-H ) :   0.9805

Dispersion correction           -0.014974752
FINAL SINGLE POINT ENERGY     -1339.862718353234

DIPOLE MOMENT
-------------
                                X             Y             Z
Electronic contribution:     11.13838     -16.21656      24.14912
Nuclear contribution   :    -11.38237      16.60213     -24.69053
                        -----------------------------------------
Total Dipole Moment    :     -0.24399       0.38557      -0.54140
                        -----------------------------------------
Magnitude (a.u.)       :      0.70804
Magnitude (Debye)      :      1.79969

Rotational constants in cm-1:     0.018143     0.009879     0.007334
Rotational constants in MHz :   543.923370   296.173183   219.853012

                             ****ORCA TERMINATED NORMALLY****
TOTAL RUN TIME: 0 days 0 hours 0 minutes 22 seconds 576 msec
