                         Program Version 4.2.1 -  RELEASE  -
|  1> ! wB97X-D3 SP def2-SVP
|  2> %pal
|  3> nprocs 24
|  4> end
|  5>
|  6> * xyz 0 1
|  7> S 	 -87.2651 	 -3.9511 	 -62.105
|  8> C 	 -88.7075 	 -4.29038 	 -63.1178
|  9> C 	 -88.4221 	 -5.18737 	 -64.11
| 10> C 	 -87.0922 	 -5.70471 	 -64.0186
| 11> C 	 -86.3009 	 -5.1286 	 -63.0355
| 12> H 	 -86.7746 	 -6.52579 	 -64.6619
| 13> C 	 -89.348 	 -5.7726 	 -65.1057
| 14> H 	 -88.8552 	 -5.54302 	 -66.037
| 15> H 	 -90.289 	 -5.25988 	 -65.1286
| 16> C 	 -89.573 	 -7.26768 	 -65.0202
| 17> H 	 -90.4249 	 -7.5016 	 -65.7032
| 18> H 	 -88.7453 	 -7.91667 	 -65.3404
| 19> C 	 -89.9465 	 -7.83836 	 -63.6103
| 20> H 	 -90.5691 	 -8.68618 	 -63.6254
| 21> H 	 -88.9137 	 -8.00323 	 -63.1015
| 22> H 	 -90.4817 	 -7.09216 	 -63.0712
| 23> S 	 -84.4287 	 -5.07639 	 -61.1076
| 24> C 	 -82.765 	 -5.11839 	 -61.5649
| 25> C 	 -82.6265 	 -5.43128 	 -62.8735
| 26> C 	 -83.8566 	 -5.44118 	 -63.6059
| 27> C 	 -84.9245 	 -5.42866 	 -62.7532
| 28> H 	 -81.6168 	 -5.35301 	 -63.303
| 29> C 	 -83.7463 	 -5.23168 	 -65.0839
| 30> H 	 -84.2952 	 -5.91715 	 -65.6888
| 31> H 	 -82.7144 	 -5.33745 	 -65.3681
| 32> C 	 -84.1187 	 -3.83985 	 -65.471
| 33> H 	 -83.5183 	 -3.23775 	 -64.8028
| 34> H 	 -85.0462 	 -3.57298 	 -65.0773
| 35> C 	 -84.0876 	 -3.53129 	 -66.969
| 36> H 	 -84.1981 	 -2.47359 	 -67.0504
| 37> H 	 -84.9593 	 -3.91897 	 -67.4945
| 38> H 	 -83.1218 	 -3.91686 	 -67.4558
| 39> H 	 -89.7349 	 -3.85698 	 -62.9806
| 40> H 	 -81.968 	 -5.01066 	 -60.8568
| 41> *
| 42>
| 43>                          ****END OF INPUT****

CARTESIAN COORDINATES (ANGSTROEM)
---------------------------------
  S    -87.265100   -3.951100  -62.105000
  C    -88.707500   -4.290380  -63.117800
  C    -88.422100   -5.187370  -64.110000
  C    -87.092200   -5.704710  -64.018600
  C    -86.300900   -5.128600  -63.035500
  H    -86.774600   -6.525790  -64.661900
  C    -89.348000   -5.772600  -65.105700
  H    -88.855200   -5.543020  -66.037000
  H    -90.289000   -5.259880  -65.128600
  C    -89.573000   -7.267680  -65.020200
  H    -90.424900   -7.501600  -65.703200
  H    -88.745300   -7.916670  -65.340400
  C    -89.946500   -7.838360  -63.610300
  H    -90.569100   -8.686180  -63.625400
  H    -88.913700   -8.003230  -63.101500
  H    -90.481700   -7.092160  -63.071200
  S    -84.428700   -5.076390  -61.107600
  C    -82.765000   -5.118390  -61.564900
  C    -82.626500   -5.431280  -62.873500
  C    -83.856600   -5.441180  -63.605900
  C    -84.924500   -5.428660  -62.753200
  H    -81.616800   -5.353010  -63.303000
  C    -83.746300   -5.231680  -65.083900
  H    -84.295200   -5.917150  -65.688800
  H    -82.714400   -5.337450  -65.368100
  C    -84.118700   -3.839850  -65.471000
  H    -83.518300   -3.237750  -64.802800
  H    -85.046200   -3.572980  -65.077300
  C    -84.087600   -3.531290  -66.969000
  H    -84.198100   -2.473590  -67.050400
  H    -84.959300   -3.918970  -67.494500
  H    -83.121800   -3.916860  -67.455800
  H    -89.734900   -3.856980  -62.980600
  H    -81.968000   -5.010660  -60.856800

 Total Charge           Charge          ....    0
 Multiplicity           Mult            ....    1
 Number of Electrons    NEL             ....  134
 Basis Dimension        Dim             ....  322

ORBITAL ENERGIES
----------------

  NO   OCC          E(Eh)            E(eV)
   0   2.0000     -88.966405     -2420.8989
   1   2.0000     -88.964613     -2420.8502
   2   2.0000     -10.331825      -281.1432
   3   2.0000     -10.324219      -280.9363
   4   2.0000     -10.316590      -280.7287
   5   2.0000     -10.314903      -280.6828
   6   2.0000     -10.304362      -280.3959
   7   2.0000     -10.295096      -280.1438
   8   2.0000     -10.292066      -280.0614
   9   2.0000     -10.290982      -280.0319
  10   2.0000     -10.289975      -280.0044
  11   2.0000     -10.287809      -279.9455
  12   2.0000     -10.283409      -279.8258
  13   2.0000     -10.281906      -279.7849
  14   2.0000     -10.274786      -279.5911
  15   2.0000     -10.271252      -279.4950
  16   2.0000      -8.080222      -219.8740
  17   2.0000      -8.079627      -219.8578
  18   2.0000      -6.038743      -164.3225
  19   2.0000      -6.038457      -164.3148
  20   2.0000      -6.034656      -164.2113
  21   2.0000      -6.034388      -164.2040
  22   2.0000      -6.030861      -164.1081
  23   2.0000      -6.030080      -164.0868
  24   2.0000      -1.013173       -27.5698
  25   2.0000      -0.983144       -26.7527
  26   2.0000      -0.920592       -25.0506
  27   2.0000      -0.915154       -24.9026
  28   2.0000      -0.871346       -23.7105
  29   2.0000      -0.854158       -23.2428
  30   2.0000      -0.839691       -22.8491
  31   2.0000      -0.813997       -22.1500
  32   2.0000      -0.786473       -21.4010
  33   2.0000      -0.778321       -21.1792
  34   2.0000      -0.712738       -19.3946
  35   2.0000      -0.699021       -19.0213
  36   2.0000      -0.693612       -18.8741
  37   2.0000      -0.666012       -18.1231
  38   2.0000      -0.631965       -17.1967
  39   2.0000      -0.624005       -16.9800
  40   2.0000      -0.606817       -16.5123
  41   2.0000      -0.567287       -15.4367
  42   2.0000      -0.560655       -15.2562
  43   2.0000      -0.556468       -15.1423
  44   2.0000      -0.538223       -14.6458
  45   2.0000      -0.525624       -14.3030
  46   2.0000      -0.522143       -14.2082
  47   2.0000      -0.512821       -13.9546
  48   2.0000      -0.503305       -13.6956
  49   2.0000      -0.497685       -13.5427
  50   2.0000      -0.492689       -13.4067
  51   2.0000      -0.485616       -13.2143
  52   2.0000      -0.470001       -12.7894
  53   2.0000      -0.468138       -12.7387
  54   2.0000      -0.454375       -12.3642
  55   2.0000      -0.452100       -12.3023
  56   2.0000      -0.443999       -12.0818
  57   2.0000      -0.440019       -11.9735
  58   2.0000      -0.432587       -11.7713
  59   2.0000      -0.426072       -11.5940
  60   2.0000      -0.419136       -11.4053
  61   2.0000      -0.407661       -11.0930
  62   2.0000      -0.407131       -11.0786
  63   2.0000      -0.356556        -9.7024
  64   2.0000      -0.333490        -9.0747
  65   2.0000      -0.328570        -8.9408
  66   2.0000      -0.288422        -7.8484
  67   0.0000       0.021957         0.5975
  68   0.0000       0.078536         2.1371
  69   0.0000       0.102303         2.7838
  70   0.0000       0.122261         3.3269
  71   0.0000       0.132990         3.6188

MULLIKEN ATOMIC CHARGES
-----------------------
   0 S :    0.094487
   1 C :   -0.150781
   2 C :   -0.085950
   3 C :   -0.008812
   4 C :   -0.120217
   5 H :    0.014194
   6 C :    0.123932
   7 H :    0.029144
   8 H :    0.010996
   9 C :   -0.129277
  10 H :    0.033739
  11 H :    0.035905
  12 C :   -0.039576
  13 H :    0.031724
  14 H :    0.053662
  15 H :    0.015859
  16 S :    0.087537
  17 C :   -0.092162
  18 C :   -0.017883
  19 C :   -0.082136
  20 C :   -0.122416
  21 H :    0.029882
  22 C :    0.124830
  23 H :    0.008943
  24 H :    0.004264
  25 C :   -0.073245
  26 H :    0.006477
  27 H :    0.015081
  28 C :   -0.018582
  29 H :    0.030474
  30 H :    0.033483
  31 H :    0.040702
  32 H :    0.060679
  33 H :    0.055042
Sum of atomic charges:   -0.0000000

LOEWDIN ATOMIC CHARGES
----------------------
   0 S :    0.364657
   1 C :   -0.197798
   2 C :   -0.066683
   3 C :   -0.069551
   4 C :   -0.176556
   5 H :    0.031139
   6 C :   -0.032110
   7 H :    0.037885
   8 H :    0.028076
   9 C :   -0.046887
  10 H :    0.028100
  11 H :    0.022632
  12 C :   -0.064947
  13 H :    0.018928
  14 H :    0.041662
  15 H :    0.017363
  16 S :    0.407398
  17 C :   -0.177629
  18 C :   -0.076879
  19 C :   -0.043131
  20 C :   -0.197570
  21 H :    0.035930
  22 C :   -0.023548
  23 H :    0.020782
  24 H :    0.027329
  25 C :   -0.041487
  26 H :    0.023287
  27 H :    0.018251
  28 C :   -0.061718
  29 H :    0.026782
  30 H :    0.027349
  31 H :    0.032300
  32 H :    0.039636
  33 H :    0.027008

  Mayer bond orders larger than 0.100000
B(  0-S ,  1-C ) :   1.1009 B(  0-S ,  4-C ) :   1.1208 B(  1-C ,  2-C ) :   1.6432
B(  1-C , 32-H ) :   0.9570 B(  2-C ,  3-C ) :   1.2194 B(  2-C ,  6-C ) :   1.0323
B(  3-C ,  4-C ) :   1.5824 B(  3-C ,  5-H ) :   0.9956 B(  4-C , 20-C ) :   1.0832
B(  6-C ,  7-H ) :   0.9260 B(  6-C ,  8-H ) :   0.9354 B(  6-C ,  9-C ) :   1.0780
B(  9-C , 10-H ) :   0.9571 B(  9-C , 11-H ) :   0.9584 B(  9-C , 12-C ) :   1.0678
B( 12-C , 13-H ) :   0.9767 B( 12-C , 14-H ) :   0.9726 B( 12-C , 15-H ) :   0.9782
B( 16-S , 17-C ) :   1.1634 B( 16-S , 20-C ) :   1.1171 B( 17-C , 18-C ) :   1.6281
B( 17-C , 33-H ) :   0.9663 B( 18-C , 19-C ) :   1.2419 B( 18-C , 21-H ) :   0.9805
B( 19-C , 20-C ) :   1.5967 B( 19-C , 22-C ) :   1.0511 B( 22-C , 23-H ) :   0.9266
B( 22-C , 24-H ) :   0.9266 B( 22-C , 25-C ) :   1.0640 B( 25-C , 26-H ) :   0.9475
B( 25-C , 27-H ) :   0.9477 B( 25-C , 28-C ) :   1.0799 B( 28-C , 29-H ) :   0.9706
B( 28-C , 30-H ) :   0.9705 B( 28-C , 31-H ) :   0.9740

Dispersion correction           -0.015240961
FINAL SINGLE POINT ENERGY     -1339.871217379810

DIPOLE MOMENT
-------------
                                X             Y             Z
Electronic contribution:      6.65805       5.83618      22.39899
Nuclear contribution   :     -6.60600      -5.85816     -23.01596
                        -----------------------------------------
Total Dipole Moment    :      0.05205      -0.02198      -0.61697
                        -----------------------------------------
Magnitude (a.u.)       :      0.61955
Magnitude (Debye)      :      1.57477

Rotational constants in cm-1:     0.018686     0.009429     0.007688
Rotational constants in MHz :   560.203748   282.682700   230.491805

                             ****ORCA TERMINATED NORMALLY****
TOTAL RUN TIME: 0 days 0 hours 0 minutes 21 seconds 494 msec
