                         Program Version 4.2.1 -  RELEASE  -
|  1> ! wB97X-D3 SP def2-SVP
|  2> %pal
|  3> nprocs 24
|  4> end
|  5>
|  6> * xyz 0 1
|  7> S 	 -115.045 	 37.1661 	 -117.699
|  8> C 	 -115.217 	 35.4586 	 -118.025
|  9> C 	 -114.859 	 34.6727 	 -116.941
| 10> C 	 -114.846 	 35.4417 	 -115.756
| 11> C 	 -115.027 	 36.7808 	 -115.985
| 12> H 	 -114.705 	 35.0631 	 -114.752
| 13> C 	 -114.674 	 33.1983 	 -116.926
| 14> H 	 -114.861 	 32.7997 	 -117.946
| 15> H 	 -115.418 	 32.6751 	 -116.313
| 16> C 	 -113.257 	 32.6867 	 -116.447
| 17> H 	 -112.348 	 32.8775 	 -117.094
| 18> H 	 -113.084 	 33.1117 	 -115.434
| 19> C 	 -113.352 	 31.127 	 -116.281
| 20> H 	 -113.24 	 30.67 	 -117.308
| 21> H 	 -112.628 	 30.6991 	 -115.657
| 22> H 	 -114.355 	 30.9246 	 -115.838
| 23> S 	 -113.618 	 38.5973 	 -114.336
| 24> C 	 -114.568 	 39.381 	 -113.086
| 25> C 	 -115.859 	 38.9905 	 -113.134
| 26> C 	 -116.152 	 37.9359 	 -114.044
| 27> C 	 -115.116 	 37.7426 	 -114.895
| 28> H 	 -116.564 	 39.4438 	 -112.443
| 29> C 	 -117.503 	 37.1856 	 -114.086
| 30> H 	 -117.928 	 37.1167 	 -113.118
| 31> H 	 -117.336 	 36.1452 	 -114.241
| 32> C 	 -118.622 	 37.7562 	 -115.067
| 33> H 	 -118.133 	 38.2807 	 -115.874
| 34> H 	 -119.149 	 38.5103 	 -114.455
| 35> C 	 -119.47 	 36.6293 	 -115.593
| 36> H 	 -120.536 	 36.9836 	 -115.772
| 37> H 	 -119.618 	 35.8647 	 -114.782
| 38> H 	 -119.034 	 36.0722 	 -116.406
| 39> H 	 -115.466 	 35.0497 	 -118.992
| 40> H 	 -114.118 	 40.1945 	 -112.41
| 41> *
| 42>
| 43>                          ****END OF INPUT****

CARTESIAN COORDINATES (ANGSTROEM)
---------------------------------
  S    -115.045000   37.166100  -117.699000
  C    -115.217000   35.458600  -118.025000
  C    -114.859000   34.672700  -116.941000
  C    -114.846000   35.441700  -115.756000
  C    -115.027000   36.780800  -115.985000
  H    -114.705000   35.063100  -114.752000
  C    -114.674000   33.198300  -116.926000
  H    -114.861000   32.799700  -117.946000
  H    -115.418000   32.675100  -116.313000
  C    -113.257000   32.686700  -116.447000
  H    -112.348000   32.877500  -117.094000
  H    -113.084000   33.111700  -115.434000
  C    -113.352000   31.127000  -116.281000
  H    -113.240000   30.670000  -117.308000
  H    -112.628000   30.699100  -115.657000
  H    -114.355000   30.924600  -115.838000
  S    -113.618000   38.597300  -114.336000
  C    -114.568000   39.381000  -113.086000
  C    -115.859000   38.990500  -113.134000
  C    -116.152000   37.935900  -114.044000
  C    -115.116000   37.742600  -114.895000
  H    -116.564000   39.443800  -112.443000
  C    -117.503000   37.185600  -114.086000
  H    -117.928000   37.116700  -113.118000
  H    -117.336000   36.145200  -114.241000
  C    -118.622000   37.756200  -115.067000
  H    -118.133000   38.280700  -115.874000
  H    -119.149000   38.510300  -114.455000
  C    -119.470000   36.629300  -115.593000
  H    -120.536000   36.983600  -115.772000
  H    -119.618000   35.864700  -114.782000
  H    -119.034000   36.072200  -116.406000
  H    -115.466000   35.049700  -118.992000
  H    -114.118000   40.194500  -112.410000

 Total Charge           Charge          ....    0
 Multiplicity           Mult            ....    1
 Number of Electrons    NEL             ....  134
 Basis Dimension        Dim             ....  322

ORBITAL ENERGIES
----------------

  NO   OCC          E(Eh)            E(eV)
   0   2.0000     -88.968633     -2420.9596
   1   2.0000     -88.959320     -2420.7062
   2   2.0000     -10.322941      -280.9015
   3   2.0000     -10.321879      -280.8726
   4   2.0000     -10.318434      -280.7789
   5   2.0000     -10.314175      -280.6630
   6   2.0000     -10.300544      -280.2921
   7   2.0000     -10.299490      -280.2634
   8   2.0000     -10.298348      -280.2323
   9   2.0000     -10.298193      -280.2281
  10   2.0000     -10.290138      -280.0089
  11   2.0000     -10.287951      -279.9494
  12   2.0000     -10.286917      -279.9212
  13   2.0000     -10.285492      -279.8825
  14   2.0000     -10.282557      -279.8026
  15   2.0000     -10.281214      -279.7661
  16   2.0000      -8.083229      -219.9558
  17   2.0000      -8.073559      -219.6927
  18   2.0000      -6.041653      -164.4017
  19   2.0000      -6.038047      -164.3036
  20   2.0000      -6.033791      -164.1878
  21   2.0000      -6.032125      -164.1425
  22   2.0000      -6.028331      -164.0392
  23   2.0000      -6.024101      -163.9241
  24   2.0000      -1.006063       -27.3764
  25   2.0000      -0.983934       -26.7742
  26   2.0000      -0.907442       -24.6927
  27   2.0000      -0.900828       -24.5128
  28   2.0000      -0.867535       -23.6068
  29   2.0000      -0.851028       -23.1576
  30   2.0000      -0.845729       -23.0135
  31   2.0000      -0.809927       -22.0392
  32   2.0000      -0.779576       -21.2133
  33   2.0000      -0.767345       -20.8805
  34   2.0000      -0.704224       -19.1629
  35   2.0000      -0.696768       -18.9600
  36   2.0000      -0.691481       -18.8161
  37   2.0000      -0.652735       -17.7618
  38   2.0000      -0.643291       -17.5048
  39   2.0000      -0.620586       -16.8870
  40   2.0000      -0.596535       -16.2325
  41   2.0000      -0.570947       -15.5363
  42   2.0000      -0.559741       -15.2313
  43   2.0000      -0.553539       -15.0626
  44   2.0000      -0.523432       -14.2433
  45   2.0000      -0.518777       -14.1167
  46   2.0000      -0.512623       -13.9492
  47   2.0000      -0.505876       -13.7656
  48   2.0000      -0.503066       -13.6891
  49   2.0000      -0.497759       -13.5447
  50   2.0000      -0.489312       -13.3149
  51   2.0000      -0.477501       -12.9935
  52   2.0000      -0.473670       -12.8892
  53   2.0000      -0.459858       -12.5134
  54   2.0000      -0.455214       -12.3870
  55   2.0000      -0.451993       -12.2993
  56   2.0000      -0.441436       -12.0121
  57   2.0000      -0.437057       -11.8929
  58   2.0000      -0.431097       -11.7307
  59   2.0000      -0.426666       -11.6102
  60   2.0000      -0.419337       -11.4107
  61   2.0000      -0.417251       -11.3540
  62   2.0000      -0.412868       -11.2347
  63   2.0000      -0.336087        -9.1454
  64   2.0000      -0.327618        -8.9149
  65   2.0000      -0.324288        -8.8243
  66   2.0000      -0.303285        -8.2528
  67   0.0000       0.042726         1.1626
  68   0.0000       0.053798         1.4639
  69   0.0000       0.106426         2.8960
  70   0.0000       0.119027         3.2389
  71   0.0000       0.128073         3.4851

MULLIKEN ATOMIC CHARGES
-----------------------
   0 S :    0.125650
   1 C :   -0.128398
   2 C :   -0.033618
   3 C :    0.037896
   4 C :   -0.170758
   5 H :    0.017570
   6 C :    0.043160
   7 H :    0.015397
   8 H :    0.033401
   9 C :   -0.117067
  10 H :    0.054143
  11 H :    0.037030
  12 C :   -0.054241
  13 H :    0.043330
  14 H :    0.028915
  15 H :    0.027442
  16 S :    0.086256
  17 C :   -0.121754
  18 C :   -0.020644
  19 C :   -0.029864
  20 C :   -0.180942
  21 H :    0.014886
  22 C :    0.085659
  23 H :    0.006536
  24 H :    0.007350
  25 C :   -0.038285
  26 H :    0.034862
  27 H :    0.031495
  28 C :   -0.077445
  29 H :    0.042062
  30 H :    0.024973
  31 H :    0.049927
  32 H :    0.039438
  33 H :    0.085638
Sum of atomic charges:    0.0000000

LOEWDIN ATOMIC CHARGES
----------------------
   0 S :    0.404266
   1 C :   -0.190514
   2 C :   -0.067296
   3 C :   -0.049386
   4 C :   -0.195837
   5 H :    0.033224
   6 C :   -0.035739
   7 H :    0.030415
   8 H :    0.031762
   9 C :   -0.041002
  10 H :    0.033435
  11 H :    0.023142
  12 C :   -0.066461
  13 H :    0.031640
  14 H :    0.015597
  15 H :    0.025167
  16 S :    0.361269
  17 C :   -0.190576
  18 C :   -0.077809
  19 C :   -0.050581
  20 C :   -0.178913
  21 H :    0.031502
  22 C :   -0.027233
  23 H :    0.024860
  24 H :    0.023921
  25 C :   -0.034845
  26 H :    0.022701
  27 H :    0.026258
  28 C :   -0.071705
  29 H :    0.033915
  30 H :    0.025559
  31 H :    0.028579
  32 H :    0.023680
  33 H :    0.047002

  Mayer bond orders larger than 0.100000
B(  0-S ,  1-C ) :   1.1412 B(  0-S ,  4-C ) :   1.1335 B(  1-C ,  2-C ) :   1.6086
B(  1-C , 32-H ) :   0.9695 B(  2-C ,  3-C ) :   1.2133 B(  2-C ,  6-C ) :   1.0417
B(  3-C ,  4-C ) :   1.6024 B(  3-C ,  5-H ) :   0.9955 B(  4-C , 20-C ) :   1.0247
B(  6-C ,  7-H ) :   0.9381 B(  6-C ,  8-H ) :   0.9415 B(  6-C ,  9-C ) :   1.0458
B(  9-C , 10-H ) :   0.9595 B(  9-C , 11-H ) :   0.9596 B(  9-C , 12-C ) :   1.0713
B( 12-C , 13-H ) :   0.9777 B( 12-C , 14-H ) :   0.9767 B( 12-C , 15-H ) :   0.9747
B( 16-S , 17-C ) :   1.1321 B( 16-S , 20-C ) :   1.1182 B( 17-C , 18-C ) :   1.6584
B( 17-C , 33-H ) :   0.9539 B( 18-C , 19-C ) :   1.2003 B( 18-C , 21-H ) :   0.9881
B( 19-C , 20-C ) :   1.6601 B( 19-C , 22-C ) :   1.0431 B( 22-C , 23-H ) :   0.9266
B( 22-C , 24-H ) :   0.9352 B( 22-C , 25-C ) :   1.0370 B( 25-C , 26-H ) :   0.9657
B( 25-C , 27-H ) :   0.9591 B( 25-C , 28-C ) :   1.0765 B( 28-C , 29-H ) :   0.9718
B( 28-C , 30-H ) :   0.9740 B( 28-C , 31-H ) :   0.9758

Dispersion correction           -0.014523050
FINAL SINGLE POINT ENERGY     -1339.868991559454

DIPOLE MOMENT
-------------
                                X             Y             Z
Electronic contribution:     11.83981      21.99566      -1.56155
Nuclear contribution   :    -12.16177     -22.52135       1.81110
                        -----------------------------------------
Total Dipole Moment    :     -0.32196      -0.52569       0.24954
                        -----------------------------------------
Magnitude (a.u.)       :      0.66504
Magnitude (Debye)      :      1.69040

Rotational constants in cm-1:     0.017333     0.008482     0.007269
Rotational constants in MHz :   519.643686   254.294134   217.931084

                             ****ORCA TERMINATED NORMALLY****
TOTAL RUN TIME: 0 days 0 hours 0 minutes 21 seconds 435 msec
