                         Program Version 4.2.1 -  RELEASE  -
|  1> ! wB97X-D3 SP def2-SVP
|  2> %pal
|  3> nprocs 24
|  4> end
|  5>
|  6> * xyz 0 1
|  7> S 	 -112.247 	 48.2527 	 -71.4685
|  8> C 	 -113.346 	 48.0895 	 -72.8621
|  9> C 	 -113.275 	 49.1961 	 -73.6859
| 10> C 	 -112.227 	 50.0805 	 -73.342
| 11> C 	 -111.748 	 49.8679 	 -72.065
| 12> H 	 -111.948 	 51.088 	 -73.7859
| 13> C 	 -114.24 	 49.4824 	 -74.824
| 14> H 	 -114.312 	 48.6478 	 -75.5735
| 15> H 	 -113.825 	 50.3536 	 -75.3362
| 16> C 	 -115.718 	 49.7824 	 -74.3925
| 17> H 	 -116.326 	 49.7841 	 -75.2868
| 18> H 	 -116.085 	 48.9847 	 -73.8253
| 19> C 	 -115.972 	 51.0783 	 -73.6382
| 20> H 	 -115.371 	 51.0457 	 -72.6731
| 21> H 	 -115.781 	 52.0077 	 -74.248
| 22> H 	 -117.07 	 51.0454 	 -73.4495
| 23> S 	 -109.118 	 49.8523 	 -71.2961
| 24> C 	 -108.44 	 51.3108 	 -70.6163
| 25> C 	 -109.397 	 52.2123 	 -70.2902
| 26> C 	 -110.748 	 51.8186 	 -70.6545
| 27> C 	 -110.719 	 50.6093 	 -71.3531
| 28> H 	 -109.072 	 53.1109 	 -69.7777
| 29> C 	 -111.908 	 52.7029 	 -70.5814
| 30> H 	 -111.767 	 53.1856 	 -69.6292
| 31> H 	 -112.811 	 52.1688 	 -70.3374
| 32> C 	 -112.135 	 53.6469 	 -71.8573
| 33> H 	 -112.164 	 52.9914 	 -72.7175
| 34> H 	 -111.292 	 54.3273 	 -71.7924
| 35> C 	 -113.462 	 54.4546 	 -71.8407
| 36> H 	 -113.692 	 55.0036 	 -72.7768
| 37> H 	 -113.482 	 55.1326 	 -70.9797
| 38> H 	 -114.347 	 53.8564 	 -71.6628
| 39> H 	 -114.221 	 47.4167 	 -73.0066
| 40> H 	 -107.423 	 51.589 	 -70.4355
| 41> *
| 42>
| 43>                          ****END OF INPUT****

CARTESIAN COORDINATES (ANGSTROEM)
---------------------------------
  S    -112.247000   48.252700  -71.468500
  C    -113.346000   48.089500  -72.862100
  C    -113.275000   49.196100  -73.685900
  C    -112.227000   50.080500  -73.342000
  C    -111.748000   49.867900  -72.065000
  H    -111.948000   51.088000  -73.785900
  C    -114.240000   49.482400  -74.824000
  H    -114.312000   48.647800  -75.573500
  H    -113.825000   50.353600  -75.336200
  C    -115.718000   49.782400  -74.392500
  H    -116.326000   49.784100  -75.286800
  H    -116.085000   48.984700  -73.825300
  C    -115.972000   51.078300  -73.638200
  H    -115.371000   51.045700  -72.673100
  H    -115.781000   52.007700  -74.248000
  H    -117.070000   51.045400  -73.449500
  S    -109.118000   49.852300  -71.296100
  C    -108.440000   51.310800  -70.616300
  C    -109.397000   52.212300  -70.290200
  C    -110.748000   51.818600  -70.654500
  C    -110.719000   50.609300  -71.353100
  H    -109.072000   53.110900  -69.777700
  C    -111.908000   52.702900  -70.581400
  H    -111.767000   53.185600  -69.629200
  H    -112.811000   52.168800  -70.337400
  C    -112.135000   53.646900  -71.857300
  H    -112.164000   52.991400  -72.717500
  H    -111.292000   54.327300  -71.792400
  C    -113.462000   54.454600  -71.840700
  H    -113.692000   55.003600  -72.776800
  H    -113.482000   55.132600  -70.979700
  H    -114.347000   53.856400  -71.662800
  H    -114.221000   47.416700  -73.006600
  H    -107.423000   51.589000  -70.435500

 Total Charge           Charge          ....    0
 Multiplicity           Mult            ....    1
 Number of Electrons    NEL             ....  134
 Basis Dimension        Dim             ....  322

ORBITAL ENERGIES
----------------

  NO   OCC          E(Eh)            E(eV)
   0   2.0000     -88.968378     -2420.9526
   1   2.0000     -88.963646     -2420.8239
   2   2.0000     -10.332234      -281.1544
   3   2.0000     -10.325841      -280.9804
   4   2.0000     -10.317152      -280.7440
   5   2.0000     -10.312286      -280.6116
   6   2.0000     -10.304686      -280.4048
   7   2.0000     -10.301307      -280.3128
   8   2.0000     -10.300532      -280.2917
   9   2.0000     -10.297084      -280.1979
  10   2.0000     -10.295932      -280.1666
  11   2.0000     -10.291387      -280.0429
  12   2.0000     -10.287817      -279.9457
  13   2.0000     -10.287150      -279.9276
  14   2.0000     -10.283651      -279.8324
  15   2.0000     -10.281840      -279.7831
  16   2.0000      -8.081758      -219.9158
  17   2.0000      -8.078310      -219.8220
  18   2.0000      -6.040364      -164.3667
  19   2.0000      -6.036958      -164.2740
  20   2.0000      -6.036499      -164.2615
  21   2.0000      -6.032871      -164.1628
  22   2.0000      -6.032423      -164.1506
  23   2.0000      -6.028860      -164.0536
  24   2.0000      -1.003893       -27.3173
  25   2.0000      -0.981425       -26.7059
  26   2.0000      -0.908341       -24.7172
  27   2.0000      -0.905912       -24.6511
  28   2.0000      -0.868942       -23.6451
  29   2.0000      -0.849912       -23.1273
  30   2.0000      -0.846068       -23.0227
  31   2.0000      -0.816787       -22.2259
  32   2.0000      -0.781692       -21.2709
  33   2.0000      -0.768505       -20.9121
  34   2.0000      -0.712048       -19.3758
  35   2.0000      -0.701854       -19.0984
  36   2.0000      -0.696944       -18.9648
  37   2.0000      -0.657813       -17.9000
  38   2.0000      -0.634354       -17.2616
  39   2.0000      -0.607786       -16.5387
  40   2.0000      -0.592069       -16.1110
  41   2.0000      -0.574442       -15.6314
  42   2.0000      -0.564527       -15.3616
  43   2.0000      -0.546617       -14.8742
  44   2.0000      -0.538334       -14.6488
  45   2.0000      -0.521464       -14.1898
  46   2.0000      -0.518572       -14.1111
  47   2.0000      -0.509295       -13.8586
  48   2.0000      -0.506693       -13.7878
  49   2.0000      -0.495096       -13.4722
  50   2.0000      -0.488229       -13.2854
  51   2.0000      -0.479142       -13.0381
  52   2.0000      -0.470506       -12.8031
  53   2.0000      -0.461548       -12.5593
  54   2.0000      -0.458941       -12.4884
  55   2.0000      -0.445488       -12.1223
  56   2.0000      -0.439083       -11.9480
  57   2.0000      -0.438244       -11.9252
  58   2.0000      -0.430612       -11.7175
  59   2.0000      -0.428305       -11.6548
  60   2.0000      -0.424907       -11.5623
  61   2.0000      -0.419991       -11.4285
  62   2.0000      -0.415195       -11.2980
  63   2.0000      -0.341576        -9.2948
  64   2.0000      -0.328772        -8.9463
  65   2.0000      -0.324494        -8.8299
  66   2.0000      -0.301234        -8.1970
  67   0.0000       0.035148         0.9564
  68   0.0000       0.049559         1.3486
  69   0.0000       0.108409         2.9500
  70   0.0000       0.117951         3.2096
  71   0.0000       0.124971         3.4006

MULLIKEN ATOMIC CHARGES
-----------------------
   0 S :    0.107567
   1 C :   -0.117043
   2 C :   -0.099968
   3 C :    0.031891
   4 C :   -0.182799
   5 H :    0.050121
   6 C :    0.052773
   7 H :    0.044550
   8 H :    0.017110
   9 C :   -0.053576
  10 H :    0.021286
  11 H :    0.010542
  12 C :   -0.093665
  13 H :    0.061650
  14 H :    0.043131
  15 H :    0.041358
  16 S :    0.114800
  17 C :   -0.062838
  18 C :   -0.059975
  19 C :   -0.019415
  20 C :   -0.193427
  21 H :    0.016774
  22 C :    0.077700
  23 H :    0.009968
  24 H :    0.012875
  25 C :   -0.029472
  26 H :    0.020271
  27 H :    0.035848
  28 C :   -0.057385
  29 H :    0.044741
  30 H :    0.026658
  31 H :    0.024999
  32 H :    0.059985
  33 H :    0.042968
Sum of atomic charges:    0.0000000

LOEWDIN ATOMIC CHARGES
----------------------
   0 S :    0.377816
   1 C :   -0.198236
   2 C :   -0.069566
   3 C :   -0.065670
   4 C :   -0.180857
   5 H :    0.043838
   6 C :   -0.033172
   7 H :    0.038090
   8 H :    0.027383
   9 C :   -0.039419
  10 H :    0.023029
  11 H :    0.013799
  12 C :   -0.074912
  13 H :    0.035150
  14 H :    0.028290
  15 H :    0.032254
  16 S :    0.396551
  17 C :   -0.182155
  18 C :   -0.074066
  19 C :   -0.052090
  20 C :   -0.195495
  21 H :    0.031552
  22 C :   -0.040509
  23 H :    0.030353
  24 H :    0.028942
  25 C :   -0.021900
  26 H :    0.020005
  27 H :    0.026444
  28 C :   -0.073128
  29 H :    0.031584
  30 H :    0.025124
  31 H :    0.023278
  32 H :    0.037845
  33 H :    0.029848

  Mayer bond orders larger than 0.100000
B(  0-S ,  1-C ) :   1.1219 B(  0-S ,  4-C ) :   1.1389 B(  1-C ,  2-C ) :   1.6379
B(  1-C ,  4-C ) :   0.1046 B(  1-C , 32-H ) :   0.9560 B(  2-C ,  3-C ) :   1.2243
B(  2-C ,  6-C ) :   1.0200 B(  3-C ,  4-C ) :   1.6160 B(  3-C ,  5-H ) :   0.9644
B(  4-C , 20-C ) :   1.0299 B(  6-C ,  7-H ) :   0.9410 B(  6-C ,  8-H ) :   0.9445
B(  6-C ,  9-C ) :   1.0665 B(  9-C , 10-H ) :   0.9527 B(  9-C , 11-H ) :   0.9562
B(  9-C , 12-C ) :   1.0813 B( 12-C , 13-H ) :   0.9731 B( 12-C , 14-H ) :   0.9744
B( 12-C , 15-H ) :   0.9715 B( 16-S , 17-C ) :   1.1311 B( 16-S , 20-C ) :   1.1383
B( 17-C , 18-C ) :   1.6708 B( 17-C , 33-H ) :   0.9640 B( 18-C , 19-C ) :   1.1960
B( 18-C , 21-H ) :   0.9875 B( 19-C , 20-C ) :   1.6040 B( 19-C , 22-C ) :   1.0847
B( 22-C , 23-H ) :   0.9194 B( 22-C , 24-H ) :   0.9176 B( 22-C , 25-C ) :   1.0376
B( 25-C , 26-H ) :   0.9554 B( 25-C , 27-H ) :   0.9592 B( 25-C , 28-C ) :   1.0795
B( 28-C , 29-H ) :   0.9751 B( 28-C , 30-H ) :   0.9751 B( 28-C , 31-H ) :   0.9739

Dispersion correction           -0.015467089
FINAL SINGLE POINT ENERGY     -1339.868577125514

DIPOLE MOMENT
-------------
                                X             Y             Z
Electronic contribution:     22.73606     -19.57913       9.11041
Nuclear contribution   :    -23.19849      20.19562      -9.29676
                        -----------------------------------------
Total Dipole Moment    :     -0.46244       0.61649      -0.18636
                        -----------------------------------------
Magnitude (a.u.)       :      0.79287
Magnitude (Debye)      :      2.01531

Rotational constants in cm-1:     0.018102     0.010216     0.007176
Rotational constants in MHz :   542.690901   306.262045   215.127778

                             ****ORCA TERMINATED NORMALLY****
TOTAL RUN TIME: 0 days 0 hours 0 minutes 22 seconds 351 msec
