                         Program Version 4.2.1 -  RELEASE  -
|  1> ! wB97X-D3 SP def2-SVP
|  2> %pal
|  3> nprocs 24
|  4> end
|  5>
|  6> * xyz 0 1
|  7> S 	 -105.948 	 1.04304 	 -114.276
|  8> C 	 -107.374 	 1.90541 	 -114.619
|  9> C 	 -108.534 	 1.21838 	 -114.336
| 10> C 	 -108.235 	 -0.0959521 	 -113.861
| 11> C 	 -106.879 	 -0.368857 	 -113.761
| 12> H 	 -108.801 	 -0.93384 	 -113.702
| 13> C 	 -109.966 	 1.72898 	 -114.581
| 14> H 	 -110.183 	 2.34735 	 -115.517
| 15> H 	 -110.146 	 2.33371 	 -113.76
| 16> C 	 -111.31 	 0.830744 	 -114.572
| 17> H 	 -112.138 	 1.25489 	 -115.178
| 18> H 	 -110.924 	 -0.137453 	 -114.986
| 19> C 	 -111.851 	 0.450634 	 -113.169
| 20> H 	 -111.185 	 -0.260043 	 -112.732
| 21> H 	 -111.837 	 1.33183 	 -112.53
| 22> H 	 -112.953 	 0.207591 	 -113.18
| 23> S 	 -105.045 	 -2.28502 	 -114.756
| 24> C 	 -104.553 	 -3.6261 	 -113.74
| 25> C 	 -105.281 	 -3.53249 	 -112.539
| 26> C 	 -106.247 	 -2.46797 	 -112.458
| 27> C 	 -106.185 	 -1.62279 	 -113.506
| 28> H 	 -105.032 	 -4.13338 	 -111.701
| 29> C 	 -107.235 	 -2.42241 	 -111.288
| 30> H 	 -107.633 	 -1.41769 	 -111.211
| 31> H 	 -106.761 	 -2.56775 	 -110.317
| 32> C 	 -108.521 	 -3.27439 	 -111.382
| 33> H 	 -109.169 	 -2.93733 	 -112.209
| 34> H 	 -109.138 	 -3.3058 	 -110.408
| 35> C 	 -108.131 	 -4.76019 	 -111.528
| 36> H 	 -108.982 	 -5.3492 	 -111.695
| 37> H 	 -107.672 	 -5.14339 	 -110.634
| 38> H 	 -107.531 	 -4.92606 	 -112.463
| 39> H 	 -107.409 	 2.914 	 -114.962
| 40> H 	 -103.738 	 -4.28542 	 -113.89
| 41> *
| 42>
| 43>                          ****END OF INPUT****

CARTESIAN COORDINATES (ANGSTROEM)
---------------------------------
  S    -105.948000    1.043040  -114.276000
  C    -107.374000    1.905410  -114.619000
  C    -108.534000    1.218380  -114.336000
  C    -108.235000   -0.095952  -113.861000
  C    -106.879000   -0.368857  -113.761000
  H    -108.801000   -0.933840  -113.702000
  C    -109.966000    1.728980  -114.581000
  H    -110.183000    2.347350  -115.517000
  H    -110.146000    2.333710  -113.760000
  C    -111.310000    0.830744  -114.572000
  H    -112.138000    1.254890  -115.178000
  H    -110.924000   -0.137453  -114.986000
  C    -111.851000    0.450634  -113.169000
  H    -111.185000   -0.260043  -112.732000
  H    -111.837000    1.331830  -112.530000
  H    -112.953000    0.207591  -113.180000
  S    -105.045000   -2.285020  -114.756000
  C    -104.553000   -3.626100  -113.740000
  C    -105.281000   -3.532490  -112.539000
  C    -106.247000   -2.467970  -112.458000
  C    -106.185000   -1.622790  -113.506000
  H    -105.032000   -4.133380  -111.701000
  C    -107.235000   -2.422410  -111.288000
  H    -107.633000   -1.417690  -111.211000
  H    -106.761000   -2.567750  -110.317000
  C    -108.521000   -3.274390  -111.382000
  H    -109.169000   -2.937330  -112.209000
  H    -109.138000   -3.305800  -110.408000
  C    -108.131000   -4.760190  -111.528000
  H    -108.982000   -5.349200  -111.695000
  H    -107.672000   -5.143390  -110.634000
  H    -107.531000   -4.926060  -112.463000
  H    -107.409000    2.914000  -114.962000
  H    -103.738000   -4.285420  -113.890000

 Total Charge           Charge          ....    0
 Multiplicity           Mult            ....    1
 Number of Electrons    NEL             ....  134
 Basis Dimension        Dim             ....  322

ORBITAL ENERGIES
----------------

  NO   OCC          E(Eh)            E(eV)
   0   2.0000     -88.968942     -2420.9680
   1   2.0000     -88.964571     -2420.8491
   2   2.0000     -10.330987      -281.1204
   3   2.0000     -10.330713      -281.1130
   4   2.0000     -10.320367      -280.8315
   5   2.0000     -10.311364      -280.5865
   6   2.0000     -10.310062      -280.5510
   7   2.0000     -10.304081      -280.3883
   8   2.0000     -10.299369      -280.2601
   9   2.0000     -10.298522      -280.2370
  10   2.0000     -10.296964      -280.1946
  11   2.0000     -10.294427      -280.1256
  12   2.0000     -10.294417      -280.1253
  13   2.0000     -10.292412      -280.0708
  14   2.0000     -10.281182      -279.7652
  15   2.0000     -10.269184      -279.4387
  16   2.0000      -8.084178      -219.9817
  17   2.0000      -8.078317      -219.8222
  18   2.0000      -6.042544      -164.4260
  19   2.0000      -6.038549      -164.3173
  20   2.0000      -6.037064      -164.2769
  21   2.0000      -6.035119      -164.2239
  22   2.0000      -6.032921      -164.1641
  23   2.0000      -6.028895      -164.0546
  24   2.0000      -1.008243       -27.4357
  25   2.0000      -0.984074       -26.7780
  26   2.0000      -0.906138       -24.6573
  27   2.0000      -0.902009       -24.5449
  28   2.0000      -0.872843       -23.7513
  29   2.0000      -0.852114       -23.1872
  30   2.0000      -0.843196       -22.9445
  31   2.0000      -0.816274       -22.2120
  32   2.0000      -0.785621       -21.3778
  33   2.0000      -0.775546       -21.1037
  34   2.0000      -0.709331       -19.3019
  35   2.0000      -0.694705       -18.9039
  36   2.0000      -0.688198       -18.7268
  37   2.0000      -0.666309       -18.1312
  38   2.0000      -0.654435       -17.8081
  39   2.0000      -0.620396       -16.8818
  40   2.0000      -0.593447       -16.1485
  41   2.0000      -0.567491       -15.4422
  42   2.0000      -0.559601       -15.2275
  43   2.0000      -0.552701       -15.0398
  44   2.0000      -0.544815       -14.8252
  45   2.0000      -0.539056       -14.6685
  46   2.0000      -0.518134       -14.0991
  47   2.0000      -0.508714       -13.8428
  48   2.0000      -0.506389       -13.7795
  49   2.0000      -0.498901       -13.5758
  50   2.0000      -0.494937       -13.4679
  51   2.0000      -0.479206       -13.0398
  52   2.0000      -0.476749       -12.9730
  53   2.0000      -0.467583       -12.7236
  54   2.0000      -0.460141       -12.5211
  55   2.0000      -0.448074       -12.1927
  56   2.0000      -0.437038       -11.8924
  57   2.0000      -0.434482       -11.8229
  58   2.0000      -0.432234       -11.7617
  59   2.0000      -0.428444       -11.6586
  60   2.0000      -0.417648       -11.3648
  61   2.0000      -0.410551       -11.1717
  62   2.0000      -0.397221       -10.8089
  63   2.0000      -0.349351        -9.5063
  64   2.0000      -0.335875        -9.1396
  65   2.0000      -0.325875        -8.8675
  66   2.0000      -0.297285        -8.0895
  67   0.0000       0.027669         0.7529
  68   0.0000       0.065382         1.7791
  69   0.0000       0.112326         3.0565
  70   0.0000       0.122839         3.3426
  71   0.0000       0.124704         3.3934

MULLIKEN ATOMIC CHARGES
-----------------------
   0 S :    0.129613
   1 C :   -0.112400
   2 C :   -0.028653
   3 C :    0.073567
   4 C :   -0.192087
   5 H :   -0.039684
   6 C :    0.030205
   7 H :    0.054620
   8 H :    0.019478
   9 C :   -0.117531
  10 H :    0.047729
  11 H :    0.040151
  12 C :   -0.060407
  13 H :    0.033956
  14 H :    0.019391
  15 H :    0.048045
  16 S :    0.096413
  17 C :   -0.077478
  18 C :   -0.028716
  19 C :   -0.026306
  20 C :   -0.156846
  21 H :    0.010877
  22 C :    0.080724
  23 H :    0.018718
  24 H :    0.026923
  25 C :   -0.103591
  26 H :    0.038959
  27 H :    0.045652
  28 C :   -0.056129
  29 H :    0.013155
  30 H :    0.026810
  31 H :    0.053127
  32 H :    0.037477
  33 H :    0.054237
Sum of atomic charges:    0.0000000

LOEWDIN ATOMIC CHARGES
----------------------
   0 S :    0.428563
   1 C :   -0.201775
   2 C :   -0.060201
   3 C :   -0.050566
   4 C :   -0.185578
   5 H :    0.015123
   6 C :   -0.041072
   7 H :    0.045413
   8 H :    0.020728
   9 C :   -0.045310
  10 H :    0.031005
  11 H :    0.026871
  12 C :   -0.073349
  13 H :    0.020297
  14 H :    0.019909
  15 H :    0.036328
  16 S :    0.374589
  17 C :   -0.181041
  18 C :   -0.062405
  19 C :   -0.057436
  20 C :   -0.178921
  21 H :    0.023385
  22 C :   -0.034047
  23 H :    0.028899
  24 H :    0.031623
  25 C :   -0.040661
  26 H :    0.021299
  27 H :    0.037114
  28 C :   -0.071715
  29 H :    0.015618
  30 H :    0.021376
  31 H :    0.032887
  32 H :    0.025739
  33 H :    0.027311

  Mayer bond orders larger than 0.100000
B(  0-S ,  1-C ) :   1.1624 B(  0-S ,  4-C ) :   1.1517 B(  1-C ,  2-C ) :   1.6164
B(  1-C , 32-H ) :   0.9704 B(  2-C ,  3-C ) :   1.2262 B(  2-C ,  6-C ) :   0.9862
B(  3-C ,  4-C ) :   1.5798 B(  3-C ,  5-H ) :   1.0032 B(  4-C , 20-C ) :   1.0395
B(  6-C ,  7-H ) :   0.9557 B(  6-C ,  8-H ) :   0.9394 B(  6-C ,  9-C ) :   1.0538
B(  9-C , 10-H ) :   0.9620 B(  9-C , 11-H ) :   0.9621 B(  9-C , 12-C ) :   1.0707
B( 12-C , 13-H ) :   0.9807 B( 12-C , 14-H ) :   0.9738 B( 12-C , 15-H ) :   0.9744
B( 16-S , 17-C ) :   1.1390 B( 16-S , 20-C ) :   1.1167 B( 17-C , 18-C ) :   1.6093
B( 17-C , 33-H ) :   0.9734 B( 18-C , 19-C ) :   1.2201 B( 18-C , 21-H ) :   0.9891
B( 19-C , 20-C ) :   1.6403 B( 19-C , 22-C ) :   1.0439 B( 22-C , 23-H ) :   0.9256
B( 22-C , 24-H ) :   0.9394 B( 22-C , 25-C ) :   1.0712 B( 25-C , 26-H ) :   0.9537
B( 25-C , 27-H ) :   0.9551 B( 25-C , 28-C ) :   1.0826 B( 28-C , 29-H ) :   0.9706
B( 28-C , 30-H ) :   0.9756 B( 28-C , 31-H ) :   0.9673

Dispersion correction           -0.014803014
FINAL SINGLE POINT ENERGY     -1339.851374688786

DIPOLE MOMENT
-------------
                                X             Y             Z
Electronic contribution:     26.77776       6.06957     -11.52265
Nuclear contribution   :    -27.30289      -6.11089      11.86253
                        -----------------------------------------
Total Dipole Moment    :     -0.52513      -0.04133       0.33988
                        -----------------------------------------
Magnitude (a.u.)       :      0.62688
Magnitude (Debye)      :      1.59341

Rotational constants in cm-1:     0.017497     0.009661     0.006824
Rotational constants in MHz :   524.552885   289.619044   204.581917

                             ****ORCA TERMINATED NORMALLY****
TOTAL RUN TIME: 0 days 0 hours 0 minutes 20 seconds 905 msec
