                         Program Version 4.2.1 -  RELEASE  -
|  1> ! wB97X-D3 SP def2-SVP
|  2> %pal
|  3> nprocs 24
|  4> end
|  5>
|  6> * xyz 0 1
|  7> S 	 -108.239 	 2.40064 	 -108.603
|  8> C 	 -108.54 	 4.03428 	 -109.17
|  9> C 	 -107.91 	 4.98011 	 -108.372
| 10> C 	 -107.144 	 4.38105 	 -107.371
| 11> C 	 -107.372 	 3.03368 	 -107.281
| 12> H 	 -106.504 	 4.86129 	 -106.564
| 13> C 	 -107.716 	 6.49685 	 -108.563
| 14> H 	 -107.428 	 6.982 	 -107.616
| 15> H 	 -108.683 	 6.92614 	 -108.681
| 16> C 	 -106.793 	 6.98373 	 -109.654
| 17> H 	 -105.852 	 6.70658 	 -109.296
| 18> H 	 -106.98 	 6.57152 	 -110.656
| 19> C 	 -106.889 	 8.52243 	 -110.002
| 20> H 	 -106.945 	 8.97113 	 -109.078
| 21> H 	 -106.107 	 8.88649 	 -110.675
| 22> H 	 -107.868 	 8.8533 	 -110.454
| 23> S 	 -105.302 	 1.26078 	 -106.989
| 24> C 	 -105.081 	 0.468953 	 -105.438
| 25> C 	 -105.916 	 0.90217 	 -104.471
| 26> C 	 -106.858 	 1.83701 	 -104.977
| 27> C 	 -106.633 	 2.19992 	 -106.303
| 28> H 	 -105.801 	 0.476827 	 -103.468
| 29> C 	 -108.076 	 2.27878 	 -104.126
| 30> H 	 -108.494 	 3.09677 	 -104.723
| 31> H 	 -107.829 	 2.8244 	 -103.182
| 32> C 	 -109.041 	 1.15745 	 -103.738
| 33> H 	 -109.828 	 1.69958 	 -103.14
| 34> H 	 -108.581 	 0.471777 	 -103.065
| 35> C 	 -109.76 	 0.54198 	 -104.968
| 36> H 	 -110.459 	 -0.267771 	 -104.736
| 37> H 	 -108.986 	 0.276852 	 -105.71
| 38> H 	 -110.391 	 1.3723 	 -105.383
| 39> H 	 -108.972 	 4.30336 	 -110.125
| 40> H 	 -104.273 	 -0.278646 	 -105.258
| 41> *
| 42>
| 43>                          ****END OF INPUT****

CARTESIAN COORDINATES (ANGSTROEM)
---------------------------------
  S    -108.239000    2.400640  -108.603000
  C    -108.540000    4.034280  -109.170000
  C    -107.910000    4.980110  -108.372000
  C    -107.144000    4.381050  -107.371000
  C    -107.372000    3.033680  -107.281000
  H    -106.504000    4.861290  -106.564000
  C    -107.716000    6.496850  -108.563000
  H    -107.428000    6.982000  -107.616000
  H    -108.683000    6.926140  -108.681000
  C    -106.793000    6.983730  -109.654000
  H    -105.852000    6.706580  -109.296000
  H    -106.980000    6.571520  -110.656000
  C    -106.889000    8.522430  -110.002000
  H    -106.945000    8.971130  -109.078000
  H    -106.107000    8.886490  -110.675000
  H    -107.868000    8.853300  -110.454000
  S    -105.302000    1.260780  -106.989000
  C    -105.081000    0.468953  -105.438000
  C    -105.916000    0.902170  -104.471000
  C    -106.858000    1.837010  -104.977000
  C    -106.633000    2.199920  -106.303000
  H    -105.801000    0.476827  -103.468000
  C    -108.076000    2.278780  -104.126000
  H    -108.494000    3.096770  -104.723000
  H    -107.829000    2.824400  -103.182000
  C    -109.041000    1.157450  -103.738000
  H    -109.828000    1.699580  -103.140000
  H    -108.581000    0.471777  -103.065000
  C    -109.760000    0.541980  -104.968000
  H    -110.459000   -0.267771  -104.736000
  H    -108.986000    0.276852  -105.710000
  H    -110.391000    1.372300  -105.383000
  H    -108.972000    4.303360  -110.125000
  H    -104.273000   -0.278646  -105.258000

 Total Charge           Charge          ....    0
 Multiplicity           Mult            ....    1
 Number of Electrons    NEL             ....  134
 Basis Dimension        Dim             ....  322

ORBITAL ENERGIES
----------------

  NO   OCC          E(Eh)            E(eV)
   0   2.0000     -88.973289     -2421.0863
   1   2.0000     -88.962619     -2420.7959
   2   2.0000     -10.326698      -281.0037
   3   2.0000     -10.322509      -280.8898
   4   2.0000     -10.316330      -280.7216
   5   2.0000     -10.315981      -280.7121
   6   2.0000     -10.304816      -280.4083
   7   2.0000     -10.301284      -280.3122
   8   2.0000     -10.291974      -280.0589
   9   2.0000     -10.291261      -280.0394
  10   2.0000     -10.290879      -280.0291
  11   2.0000     -10.290017      -280.0056
  12   2.0000     -10.286250      -279.9031
  13   2.0000     -10.283800      -279.8364
  14   2.0000     -10.279157      -279.7101
  15   2.0000     -10.276701      -279.6433
  16   2.0000      -8.088277      -220.0932
  17   2.0000      -8.077386      -219.7968
  18   2.0000      -6.046614      -164.5367
  19   2.0000      -6.042777      -164.4323
  20   2.0000      -6.039167      -164.3341
  21   2.0000      -6.035843      -164.2436
  22   2.0000      -6.031954      -164.1378
  23   2.0000      -6.028131      -164.0338
  24   2.0000      -1.011721       -27.5303
  25   2.0000      -0.987075       -26.8597
  26   2.0000      -0.912021       -24.8174
  27   2.0000      -0.902049       -24.5460
  28   2.0000      -0.867958       -23.6183
  29   2.0000      -0.853788       -23.2328
  30   2.0000      -0.840412       -22.8688
  31   2.0000      -0.810984       -22.0680
  32   2.0000      -0.784342       -21.3430
  33   2.0000      -0.770019       -20.9533
  34   2.0000      -0.706326       -19.2201
  35   2.0000      -0.700235       -19.0544
  36   2.0000      -0.688956       -18.7474
  37   2.0000      -0.651401       -17.7255
  38   2.0000      -0.642864       -17.4932
  39   2.0000      -0.617456       -16.8018
  40   2.0000      -0.593554       -16.1514
  41   2.0000      -0.573916       -15.6171
  42   2.0000      -0.559889       -15.2354
  43   2.0000      -0.545959       -14.8563
  44   2.0000      -0.536141       -14.5891
  45   2.0000      -0.527360       -14.3502
  46   2.0000      -0.514273       -13.9941
  47   2.0000      -0.509037       -13.8516
  48   2.0000      -0.504301       -13.7227
  49   2.0000      -0.490873       -13.3573
  50   2.0000      -0.488342       -13.2885
  51   2.0000      -0.478345       -13.0164
  52   2.0000      -0.470813       -12.8115
  53   2.0000      -0.461152       -12.5486
  54   2.0000      -0.454310       -12.3624
  55   2.0000      -0.446211       -12.1420
  56   2.0000      -0.444301       -12.0900
  57   2.0000      -0.441725       -12.0199
  58   2.0000      -0.434455       -11.8221
  59   2.0000      -0.422665       -11.5013
  60   2.0000      -0.419892       -11.4258
  61   2.0000      -0.408430       -11.1139
  62   2.0000      -0.406434       -11.0596
  63   2.0000      -0.342843        -9.3292
  64   2.0000      -0.331708        -9.0262
  65   2.0000      -0.325027        -8.8444
  66   2.0000      -0.307113        -8.3570
  67   0.0000       0.040434         1.1003
  68   0.0000       0.059515         1.6195
  69   0.0000       0.113037         3.0759
  70   0.0000       0.122800         3.3416
  71   0.0000       0.130612         3.5541

MULLIKEN ATOMIC CHARGES
-----------------------
   0 S :    0.140989
   1 C :   -0.128356
   2 C :   -0.056622
   3 C :   -0.006483
   4 C :   -0.159536
   5 H :    0.045096
   6 C :    0.065286
   7 H :    0.018153
   8 H :    0.006861
   9 C :   -0.038393
  10 H :    0.017983
  11 H :    0.031624
  12 C :   -0.052339
  13 H :    0.007481
  14 H :    0.050347
  15 H :    0.030174
  16 S :    0.099228
  17 C :   -0.106455
  18 C :   -0.031799
  19 C :   -0.030085
  20 C :   -0.192830
  21 H :    0.027762
  22 C :    0.047283
  23 H :    0.020049
  24 H :    0.032883
  25 C :   -0.071266
  26 H :    0.032087
  27 H :    0.028341
  28 C :   -0.062133
  29 H :    0.041405
  30 H :    0.048509
  31 H :    0.033518
  32 H :    0.045722
  33 H :    0.065517
Sum of atomic charges:   -0.0000000

LOEWDIN ATOMIC CHARGES
----------------------
   0 S :    0.438692
   1 C :   -0.196670
   2 C :   -0.060858
   3 C :   -0.068628
   4 C :   -0.222104
   5 H :    0.046828
   6 C :   -0.032857
   7 H :    0.031999
   8 H :    0.022979
   9 C :   -0.033179
  10 H :    0.017045
  11 H :    0.025791
  12 C :   -0.063849
  13 H :    0.009452
  14 H :    0.031081
  15 H :    0.030474
  16 S :    0.388949
  17 C :   -0.179967
  18 C :   -0.080196
  19 C :   -0.056459
  20 C :   -0.196756
  21 H :    0.039087
  22 C :   -0.036552
  23 H :    0.028628
  24 H :    0.034880
  25 C :   -0.041830
  26 H :    0.030776
  27 H :    0.015677
  28 C :   -0.069853
  29 H :    0.025420
  30 H :    0.027430
  31 H :    0.031884
  32 H :    0.027965
  33 H :    0.034723

  Mayer bond orders larger than 0.100000
B(  0-S ,  1-C ) :   1.1471 B(  0-S ,  4-C ) :   1.1763 B(  1-C ,  2-C ) :   1.5945
B(  1-C , 32-H ) :   0.9694 B(  2-C ,  3-C ) :   1.2657 B(  2-C ,  6-C ) :   1.0213
B(  3-C ,  4-C ) :   1.5676 B(  3-C ,  5-H ) :   0.9813 B(  4-C , 20-C ) :   0.9985
B(  6-C ,  7-H ) :   0.9382 B(  6-C ,  8-H ) :   0.9326 B(  6-C ,  9-C ) :   1.0631
B(  9-C , 10-H ) :   0.9563 B(  9-C , 11-H ) :   0.9623 B(  9-C , 12-C ) :   1.0668
B( 12-C , 13-H ) :   0.9763 B( 12-C , 14-H ) :   0.9761 B( 12-C , 15-H ) :   0.9750
B( 16-S , 17-C ) :   1.1470 B( 16-S , 20-C ) :   1.1403 B( 17-C , 18-C ) :   1.6487
B( 17-C , 33-H ) :   0.9570 B( 18-C , 19-C ) :   1.2044 B( 18-C , 21-H ) :   0.9915
B( 19-C , 20-C ) :   1.6333 B( 19-C , 22-C ) :   1.0337 B( 22-C , 23-H ) :   0.9347
B( 22-C , 24-H ) :   0.9392 B( 22-C , 25-C ) :   1.0690 B( 25-C , 26-H ) :   0.9550
B( 25-C , 27-H ) :   0.9580 B( 25-C , 28-C ) :   1.0609 B( 28-C , 29-H ) :   0.9756
B( 28-C , 30-H ) :   0.9785 B( 28-C , 31-H ) :   0.9749

Dispersion correction           -0.014599795
FINAL SINGLE POINT ENERGY     -1339.865987257733

DIPOLE MOMENT
-------------
                                X             Y             Z
Electronic contribution:      8.51385     -16.37824      -3.99942
Nuclear contribution   :     -8.54735      16.71641       4.24484
                        -----------------------------------------
Total Dipole Moment    :     -0.03350       0.33817       0.24543
                        -----------------------------------------
Magnitude (a.u.)       :      0.41918
Magnitude (Debye)      :      1.06547

Rotational constants in cm-1:     0.023138     0.007228     0.006688
Rotational constants in MHz :   693.645421   216.683448   200.509969

                             ****ORCA TERMINATED NORMALLY****
TOTAL RUN TIME: 0 days 0 hours 0 minutes 21 seconds 284 msec
