                         Program Version 4.2.1 -  RELEASE  -
|  1> ! wB97X-D3 SP def2-SVP
|  2> %pal
|  3> nprocs 24
|  4> end
|  5>
|  6> * xyz 0 1
|  7> S 	 -125.419 	 60.2556 	 -54.5537
|  8> C 	 -126.424 	 58.8215 	 -55.0528
|  9> C 	 -126.991 	 58.9531 	 -56.3427
| 10> C 	 -126.702 	 60.2659 	 -56.8428
| 11> C 	 -125.935 	 61.0699 	 -56.0442
| 12> H 	 -127.016 	 60.7378 	 -57.8065
| 13> C 	 -127.846 	 57.964 	 -57.0854
| 14> H 	 -128.803 	 57.7003 	 -56.5807
| 15> H 	 -127.227 	 57.0296 	 -57.2441
| 16> C 	 -128.334 	 58.435 	 -58.4611
| 17> H 	 -129.067 	 59.2833 	 -58.2882
| 18> H 	 -127.54 	 58.8824 	 -59.0144
| 19> C 	 -128.867 	 57.5427 	 -59.4575
| 20> H 	 -128.775 	 57.9456 	 -60.435
| 21> H 	 -128.364 	 56.5541 	 -59.6405
| 22> H 	 -129.965 	 57.3874 	 -59.3336
| 23> S 	 -126.489 	 63.4846 	 -57.2395
| 24> C 	 -125.334 	 64.7981 	 -57.1743
| 25> C 	 -124.269 	 64.4876 	 -56.3599
| 26> C 	 -124.305 	 63.1039 	 -55.8377
| 27> C 	 -125.474 	 62.4541 	 -56.2759
| 28> H 	 -123.511 	 65.2552 	 -56.1966
| 29> C 	 -123.223 	 62.5933 	 -54.9557
| 30> H 	 -123.599 	 61.9039 	 -54.1591
| 31> H 	 -122.679 	 63.4377 	 -54.5559
| 32> C 	 -122.214 	 61.6645 	 -55.6383
| 33> H 	 -121.697 	 62.3373 	 -56.3914
| 34> H 	 -122.854 	 60.824 	 -56.0963
| 35> C 	 -121.194 	 61.0998 	 -54.5909
| 36> H 	 -121.606 	 60.164 	 -54.1833
| 37> H 	 -120.821 	 61.8063 	 -53.8475
| 38> H 	 -120.327 	 60.6623 	 -55.1333
| 39> H 	 -126.776 	 57.9762 	 -54.4682
| 40> H 	 -125.412 	 65.7606 	 -57.6881
| 41> *
| 42>
| 43>                          ****END OF INPUT****

CARTESIAN COORDINATES (ANGSTROEM)
---------------------------------
  S    -125.419000   60.255600  -54.553700
  C    -126.424000   58.821500  -55.052800
  C    -126.991000   58.953100  -56.342700
  C    -126.702000   60.265900  -56.842800
  C    -125.935000   61.069900  -56.044200
  H    -127.016000   60.737800  -57.806500
  C    -127.846000   57.964000  -57.085400
  H    -128.803000   57.700300  -56.580700
  H    -127.227000   57.029600  -57.244100
  C    -128.334000   58.435000  -58.461100
  H    -129.067000   59.283300  -58.288200
  H    -127.540000   58.882400  -59.014400
  C    -128.867000   57.542700  -59.457500
  H    -128.775000   57.945600  -60.435000
  H    -128.364000   56.554100  -59.640500
  H    -129.965000   57.387400  -59.333600
  S    -126.489000   63.484600  -57.239500
  C    -125.334000   64.798100  -57.174300
  C    -124.269000   64.487600  -56.359900
  C    -124.305000   63.103900  -55.837700
  C    -125.474000   62.454100  -56.275900
  H    -123.511000   65.255200  -56.196600
  C    -123.223000   62.593300  -54.955700
  H    -123.599000   61.903900  -54.159100
  H    -122.679000   63.437700  -54.555900
  C    -122.214000   61.664500  -55.638300
  H    -121.697000   62.337300  -56.391400
  H    -122.854000   60.824000  -56.096300
  C    -121.194000   61.099800  -54.590900
  H    -121.606000   60.164000  -54.183300
  H    -120.821000   61.806300  -53.847500
  H    -120.327000   60.662300  -55.133300
  H    -126.776000   57.976200  -54.468200
  H    -125.412000   65.760600  -57.688100

 Total Charge           Charge          ....    0
 Multiplicity           Mult            ....    1
 Number of Electrons    NEL             ....  134
 Basis Dimension        Dim             ....  322

ORBITAL ENERGIES
----------------

  NO   OCC          E(Eh)            E(eV)
   0   2.0000     -88.973474     -2421.0913
   1   2.0000     -88.967273     -2420.9226
   2   2.0000     -10.334002      -281.2025
   3   2.0000     -10.331571      -281.1363
   4   2.0000     -10.321659      -280.8666
   5   2.0000     -10.317679      -280.7583
   6   2.0000     -10.310753      -280.5699
   7   2.0000     -10.308260      -280.5020
   8   2.0000     -10.303125      -280.3623
   9   2.0000     -10.298702      -280.2419
  10   2.0000     -10.297431      -280.2073
  11   2.0000     -10.293617      -280.1035
  12   2.0000     -10.288226      -279.9569
  13   2.0000     -10.283313      -279.8232
  14   2.0000     -10.280783      -279.7543
  15   2.0000     -10.277312      -279.6599
  16   2.0000      -8.085800      -220.0258
  17   2.0000      -8.081979      -219.9218
  18   2.0000      -6.044595      -164.4818
  19   2.0000      -6.040724      -164.3765
  20   2.0000      -6.040632      -164.3739
  21   2.0000      -6.036431      -164.2596
  22   2.0000      -6.036333      -164.2570
  23   2.0000      -6.032681      -164.1576
  24   2.0000      -1.002391       -27.2765
  25   2.0000      -0.977093       -26.5880
  26   2.0000      -0.920371       -25.0446
  27   2.0000      -0.909074       -24.7372
  28   2.0000      -0.872144       -23.7323
  29   2.0000      -0.851674       -23.1752
  30   2.0000      -0.841207       -22.8904
  31   2.0000      -0.815198       -22.1827
  32   2.0000      -0.786072       -21.3901
  33   2.0000      -0.771116       -20.9831
  34   2.0000      -0.707448       -19.2506
  35   2.0000      -0.688935       -18.7469
  36   2.0000      -0.678069       -18.4512
  37   2.0000      -0.667245       -18.1567
  38   2.0000      -0.630807       -17.1651
  39   2.0000      -0.617420       -16.8008
  40   2.0000      -0.594320       -16.1723
  41   2.0000      -0.579248       -15.7622
  42   2.0000      -0.571722       -15.5573
  43   2.0000      -0.564906       -15.3719
  44   2.0000      -0.523465       -14.2442
  45   2.0000      -0.519521       -14.1369
  46   2.0000      -0.516670       -14.0593
  47   2.0000      -0.510265       -13.8850
  48   2.0000      -0.504583       -13.7304
  49   2.0000      -0.495244       -13.4763
  50   2.0000      -0.488707       -13.2984
  51   2.0000      -0.480334       -13.0705
  52   2.0000      -0.476796       -12.9743
  53   2.0000      -0.465580       -12.6691
  54   2.0000      -0.457020       -12.4361
  55   2.0000      -0.455022       -12.3818
  56   2.0000      -0.444896       -12.1062
  57   2.0000      -0.434774       -11.8308
  58   2.0000      -0.427683       -11.6378
  59   2.0000      -0.420583       -11.4447
  60   2.0000      -0.416081       -11.3221
  61   2.0000      -0.407135       -11.0787
  62   2.0000      -0.406091       -11.0503
  63   2.0000      -0.354130        -9.6364
  64   2.0000      -0.336565        -9.1584
  65   2.0000      -0.327161        -8.9025
  66   2.0000      -0.282524        -7.6879
  67   0.0000       0.019819         0.5393
  68   0.0000       0.076097         2.0707
  69   0.0000       0.098323         2.6755
  70   0.0000       0.114701         3.1212
  71   0.0000       0.122445         3.3319

MULLIKEN ATOMIC CHARGES
-----------------------
   0 S :    0.083940
   1 C :   -0.106719
   2 C :   -0.090024
   3 C :   -0.033609
   4 C :   -0.111903
   5 H :    0.029405
   6 C :    0.072128
   7 H :    0.049857
   8 H :    0.046933
   9 C :   -0.127349
  10 H :    0.038054
  11 H :    0.024414
  12 C :   -0.020987
  13 H :    0.018521
  14 H :    0.031342
  15 H :    0.029662
  16 S :    0.102460
  17 C :   -0.098566
  18 C :   -0.040271
  19 C :   -0.036802
  20 C :   -0.116535
  21 H :    0.024536
  22 C :    0.024178
  23 H :    0.043060
  24 H :    0.019514
  25 C :   -0.121255
  26 H :    0.035786
  27 H :    0.056913
  28 C :   -0.046731
  29 H :    0.035143
  30 H :    0.044018
  31 H :    0.032638
  32 H :    0.046030
  33 H :    0.062219
Sum of atomic charges:    0.0000000

LOEWDIN ATOMIC CHARGES
----------------------
   0 S :    0.387890
   1 C :   -0.183278
   2 C :   -0.055992
   3 C :   -0.078335
   4 C :   -0.175297
   5 H :    0.035146
   6 C :   -0.037012
   7 H :    0.040454
   8 H :    0.042155
   9 C :   -0.059572
  10 H :    0.034111
  11 H :    0.021577
  12 C :   -0.070584
  13 H :    0.026220
  14 H :    0.031960
  15 H :    0.026677
  16 S :    0.411142
  17 C :   -0.193186
  18 C :   -0.069005
  19 C :   -0.058011
  20 C :   -0.198175
  21 H :    0.033420
  22 C :   -0.051167
  23 H :    0.020781
  24 H :    0.028151
  25 C :   -0.044581
  26 H :    0.024429
  27 H :    0.032904
  28 C :   -0.076540
  29 H :    0.030244
  30 H :    0.026195
  31 H :    0.031345
  32 H :    0.030364
  33 H :    0.035568

  Mayer bond orders larger than 0.100000
B(  0-S ,  1-C ) :   1.1124 B(  0-S ,  4-C ) :   1.1173 B(  1-C ,  2-C ) :   1.6478
B(  1-C , 32-H ) :   0.9654 B(  2-C ,  3-C ) :   1.2273 B(  2-C ,  6-C ) :   1.0108
B(  3-C ,  4-C ) :   1.6068 B(  3-C ,  5-H ) :   0.9711 B(  4-C , 20-C ) :   1.0456
B(  6-C ,  7-H ) :   0.9342 B(  6-C ,  8-H ) :   0.9323 B(  6-C ,  9-C ) :   1.0972
B(  9-C , 10-H ) :   0.9417 B(  9-C , 11-H ) :   0.9490 B(  9-C , 12-C ) :   1.1005
B( 12-C , 13-H ) :   0.9685 B( 12-C , 14-H ) :   0.9643 B( 12-C , 15-H ) :   0.9677
B( 16-S , 17-C ) :   1.1389 B( 16-S , 20-C ) :   1.1395 B( 17-C , 18-C ) :   1.6408
B( 17-C , 33-H ) :   0.9640 B( 18-C , 19-C ) :   1.2209 B( 18-C , 21-H ) :   0.9849
B( 19-C , 20-C ) :   1.5691 B( 19-C , 22-C ) :   1.0600 B( 22-C , 23-H ) :   0.9313
B( 22-C , 24-H ) :   0.9244 B( 22-C , 25-C ) :   1.0492 B( 25-C , 26-H ) :   0.9572
B( 25-C , 27-H ) :   0.9559 B( 25-C , 28-C ) :   1.0722 B( 28-C , 29-H ) :   0.9709
B( 28-C , 30-H ) :   0.9741 B( 28-C , 31-H ) :   0.9734

Dispersion correction           -0.013892280
FINAL SINGLE POINT ENERGY     -1339.862150855935

DIPOLE MOMENT
-------------
                                X             Y             Z
Electronic contribution:     -4.60185      13.82087       6.60620
Nuclear contribution   :      4.65041     -13.94873      -6.88238
                        -----------------------------------------
Total Dipole Moment    :      0.04856      -0.12786      -0.27618
                        -----------------------------------------
Magnitude (a.u.)       :      0.30819
Magnitude (Debye)      :      0.78337

Rotational constants in cm-1:     0.018895     0.008512     0.006551
Rotational constants in MHz :   566.465740   255.182904   196.407061

                             ****ORCA TERMINATED NORMALLY****
TOTAL RUN TIME: 0 days 0 hours 0 minutes 20 seconds 72 msec
