                         Program Version 4.2.1 -  RELEASE  -
|  1> ! wB97X-D3 SP def2-SVP
|  2> %pal
|  3> nprocs 24
|  4> end
|  5>
|  6> * xyz 0 1
|  7> S 	 -66.65 	 -57.3989 	 -83.0192
|  8> C 	 -66.7338 	 -59.0765 	 -83.0677
|  9> C 	 -65.9042 	 -59.6535 	 -82.1314
| 10> C 	 -65.1462 	 -58.6428 	 -81.3924
| 11> C 	 -65.4763 	 -57.3529 	 -81.7123
| 12> H 	 -64.3384 	 -58.9206 	 -80.6789
| 13> C 	 -65.8998 	 -61.1416 	 -81.8681
| 14> H 	 -65.3745 	 -61.2645 	 -80.9211
| 15> H 	 -65.3716 	 -61.7602 	 -82.5661
| 16> C 	 -67.2116 	 -61.69 	 -81.6366
| 17> H 	 -67.7711 	 -61.3501 	 -82.5075
| 18> H 	 -67.1074 	 -62.798 	 -81.6877
| 19> C 	 -67.9164 	 -61.3031 	 -80.3749
| 20> H 	 -67.9995 	 -60.2281 	 -80.2816
| 21> H 	 -68.9232 	 -61.6829 	 -80.4173
| 22> H 	 -67.5567 	 -61.7378 	 -79.4928
| 23> S 	 -64.2756 	 -54.9983 	 -82.4854
| 24> C 	 -63.4101 	 -54.0968 	 -81.2135
| 25> C 	 -63.5691 	 -54.5696 	 -79.9507
| 26> C 	 -64.4308 	 -55.7022 	 -79.9713
| 27> C 	 -64.8408 	 -56.1323 	 -81.2638
| 28> H 	 -63.1426 	 -54.0834 	 -79.0934
| 29> C 	 -64.685 	 -56.4189 	 -78.6641
| 30> H 	 -63.8268 	 -56.476 	 -77.9368
| 31> H 	 -64.7683 	 -57.4504 	 -78.9002
| 32> C 	 -65.9085 	 -55.9216 	 -77.8605
| 33> H 	 -66.7906 	 -56.3165 	 -78.3724
| 34> H 	 -66.0341 	 -54.8781 	 -77.7974
| 35> C 	 -66.0555 	 -56.5426 	 -76.4342
| 36> H 	 -66.0654 	 -57.6219 	 -76.5386
| 37> H 	 -66.8873 	 -56.2817 	 -75.7457
| 38> H 	 -65.1217 	 -56.3391 	 -75.8127
| 39> H 	 -67.4276 	 -59.705 	 -83.6493
| 40> H 	 -62.9643 	 -53.2073 	 -81.4619
| 41> *
| 42>
| 43>                          ****END OF INPUT****

CARTESIAN COORDINATES (ANGSTROEM)
---------------------------------
  S    -66.650000  -57.398900  -83.019200
  C    -66.733800  -59.076500  -83.067700
  C    -65.904200  -59.653500  -82.131400
  C    -65.146200  -58.642800  -81.392400
  C    -65.476300  -57.352900  -81.712300
  H    -64.338400  -58.920600  -80.678900
  C    -65.899800  -61.141600  -81.868100
  H    -65.374500  -61.264500  -80.921100
  H    -65.371600  -61.760200  -82.566100
  C    -67.211600  -61.690000  -81.636600
  H    -67.771100  -61.350100  -82.507500
  H    -67.107400  -62.798000  -81.687700
  C    -67.916400  -61.303100  -80.374900
  H    -67.999500  -60.228100  -80.281600
  H    -68.923200  -61.682900  -80.417300
  H    -67.556700  -61.737800  -79.492800
  S    -64.275600  -54.998300  -82.485400
  C    -63.410100  -54.096800  -81.213500
  C    -63.569100  -54.569600  -79.950700
  C    -64.430800  -55.702200  -79.971300
  C    -64.840800  -56.132300  -81.263800
  H    -63.142600  -54.083400  -79.093400
  C    -64.685000  -56.418900  -78.664100
  H    -63.826800  -56.476000  -77.936800
  H    -64.768300  -57.450400  -78.900200
  C    -65.908500  -55.921600  -77.860500
  H    -66.790600  -56.316500  -78.372400
  H    -66.034100  -54.878100  -77.797400
  C    -66.055500  -56.542600  -76.434200
  H    -66.065400  -57.621900  -76.538600
  H    -66.887300  -56.281700  -75.745700
  H    -65.121700  -56.339100  -75.812700
  H    -67.427600  -59.705000  -83.649300
  H    -62.964300  -53.207300  -81.461900

 Total Charge           Charge          ....    0
 Multiplicity           Mult            ....    1
 Number of Electrons    NEL             ....  134
 Basis Dimension        Dim             ....  322

ORBITAL ENERGIES
----------------

  NO   OCC          E(Eh)            E(eV)
   0   2.0000     -88.967451     -2420.9274
   1   2.0000     -88.966339     -2420.8972
   2   2.0000     -10.333071      -281.1771
   3   2.0000     -10.330829      -281.1162
   4   2.0000     -10.313264      -280.6382
   5   2.0000     -10.311932      -280.6019
   6   2.0000     -10.308382      -280.5053
   7   2.0000     -10.300403      -280.2882
   8   2.0000     -10.299615      -280.2668
   9   2.0000     -10.293716      -280.1063
  10   2.0000     -10.291542      -280.0471
  11   2.0000     -10.283806      -279.8366
  12   2.0000     -10.283499      -279.8282
  13   2.0000     -10.280993      -279.7600
  14   2.0000     -10.279448      -279.7180
  15   2.0000     -10.266465      -279.3647
  16   2.0000      -8.082188      -219.9275
  17   2.0000      -8.081756      -219.9158
  18   2.0000      -6.040694      -164.3756
  19   2.0000      -6.040219      -164.3627
  20   2.0000      -6.036437      -164.2598
  21   2.0000      -6.036399      -164.2588
  22   2.0000      -6.033028      -164.1670
  23   2.0000      -6.032471      -164.1519
  24   2.0000      -1.010711       -27.5028
  25   2.0000      -0.986831       -26.8530
  26   2.0000      -0.930513       -25.3206
  27   2.0000      -0.903443       -24.5839
  28   2.0000      -0.876602       -23.8535
  29   2.0000      -0.850837       -23.1525
  30   2.0000      -0.844552       -22.9814
  31   2.0000      -0.819084       -22.2884
  32   2.0000      -0.789370       -21.4799
  33   2.0000      -0.769892       -20.9498
  34   2.0000      -0.709216       -19.2987
  35   2.0000      -0.702457       -19.1148
  36   2.0000      -0.694450       -18.8969
  37   2.0000      -0.667915       -18.1749
  38   2.0000      -0.638304       -17.3691
  39   2.0000      -0.615249       -16.7418
  40   2.0000      -0.602387       -16.3918
  41   2.0000      -0.588860       -16.0237
  42   2.0000      -0.563506       -15.3338
  43   2.0000      -0.558269       -15.1913
  44   2.0000      -0.543146       -14.7798
  45   2.0000      -0.523470       -14.2443
  46   2.0000      -0.516365       -14.0510
  47   2.0000      -0.510915       -13.9027
  48   2.0000      -0.509640       -13.8680
  49   2.0000      -0.503050       -13.6887
  50   2.0000      -0.493113       -13.4183
  51   2.0000      -0.479570       -13.0498
  52   2.0000      -0.474177       -12.9030
  53   2.0000      -0.463465       -12.6115
  54   2.0000      -0.458383       -12.4732
  55   2.0000      -0.451252       -12.2792
  56   2.0000      -0.444861       -12.1053
  57   2.0000      -0.439228       -11.9520
  58   2.0000      -0.432424       -11.7669
  59   2.0000      -0.424759       -11.5583
  60   2.0000      -0.418584       -11.3902
  61   2.0000      -0.408523       -11.1165
  62   2.0000      -0.406198       -11.0532
  63   2.0000      -0.358380        -9.7520
  64   2.0000      -0.335306        -9.1241
  65   2.0000      -0.326192        -8.8761
  66   2.0000      -0.290628        -7.9084
  67   0.0000       0.026619         0.7243
  68   0.0000       0.071277         1.9395
  69   0.0000       0.107778         2.9328
  70   0.0000       0.118203         3.2165
  71   0.0000       0.133720         3.6387

MULLIKEN ATOMIC CHARGES
-----------------------
   0 S :    0.117162
   1 C :   -0.123506
   2 C :   -0.145127
   3 C :    0.024116
   4 C :   -0.152927
   5 H :    0.038108
   6 C :    0.125105
   7 H :   -0.003837
   8 H :    0.033675
   9 C :   -0.100563
  10 H :    0.007503
  11 H :    0.026379
  12 C :   -0.001321
  13 H :    0.036931
  14 H :    0.020360
  15 H :    0.015264
  16 S :    0.099700
  17 C :   -0.060048
  18 C :   -0.002344
  19 C :   -0.035787
  20 C :   -0.128776
  21 H :    0.022876
  22 C :    0.050747
  23 H :    0.025243
  24 H :   -0.006468
  25 C :   -0.035877
  26 H :    0.032810
  27 H :    0.025206
  28 C :   -0.094156
  29 H :    0.025052
  30 H :    0.048997
  31 H :    0.025794
  32 H :    0.064659
  33 H :    0.025049
Sum of atomic charges:    0.0000000

LOEWDIN ATOMIC CHARGES
----------------------
   0 S :    0.429199
   1 C :   -0.220687
   2 C :   -0.068046
   3 C :   -0.062950
   4 C :   -0.199422
   5 H :    0.038073
   6 C :   -0.036561
   7 H :    0.026409
   8 H :    0.031563
   9 C :   -0.045107
  10 H :    0.018022
  11 H :    0.028854
  12 C :   -0.058212
  13 H :    0.028352
  14 H :    0.028965
  15 H :    0.017936
  16 S :    0.390590
  17 C :   -0.150442
  18 C :   -0.060149
  19 C :   -0.048399
  20 C :   -0.195788
  21 H :    0.037116
  22 C :   -0.036505
  23 H :    0.032677
  24 H :    0.022175
  25 C :   -0.034497
  26 H :    0.029430
  27 H :    0.016280
  28 C :   -0.079365
  29 H :    0.021144
  30 H :    0.031528
  31 H :    0.024190
  32 H :    0.036456
  33 H :    0.007172

  Mayer bond orders larger than 0.100000
B(  0-S ,  1-C ) :   1.1562 B(  0-S ,  4-C ) :   1.1456 B(  1-C ,  2-C ) :   1.6000
B(  1-C , 32-H ) :   0.9596 B(  2-C ,  3-C ) :   1.2602 B(  2-C ,  6-C ) :   1.0108
B(  3-C ,  4-C ) :   1.5724 B(  3-C ,  5-H ) :   0.9788 B(  4-C , 20-C ) :   1.0517
B(  6-C ,  7-H ) :   0.9325 B(  6-C ,  8-H ) :   0.9321 B(  6-C ,  9-C ) :   1.0918
B(  9-C , 10-H ) :   0.9509 B(  9-C , 11-H ) :   0.9452 B(  9-C , 12-C ) :   1.0962
B( 12-C , 13-H ) :   0.9717 B( 12-C , 14-H ) :   0.9662 B( 12-C , 15-H ) :   0.9692
B( 16-S , 17-C ) :   1.1487 B( 16-S , 20-C ) :   1.1355 B( 17-C , 18-C ) :   1.6098
B( 17-C , 33-H ) :   0.9754 B( 18-C , 19-C ) :   1.2381 B( 18-C , 21-H ) :   0.9977
B( 19-C , 20-C ) :   1.5807 B( 19-C , 22-C ) :   1.0437 B( 22-C , 23-H ) :   0.9494
B( 22-C , 24-H ) :   0.9240 B( 22-C , 25-C ) :   1.0473 B( 25-C , 26-H ) :   0.9546
B( 25-C , 27-H ) :   0.9664 B( 25-C , 28-C ) :   1.0680 B( 28-C , 29-H ) :   0.9765
B( 28-C , 30-H ) :   0.9771 B( 28-C , 31-H ) :   0.9745

Dispersion correction           -0.013978992
FINAL SINGLE POINT ENERGY     -1339.867975013069

DIPOLE MOMENT
-------------
                                X             Y             Z
Electronic contribution:      7.46232      17.55876     -22.98440
Nuclear contribution   :     -7.38416     -17.95025      23.45019
                        -----------------------------------------
Total Dipole Moment    :      0.07817      -0.39149       0.46580
                        -----------------------------------------
Magnitude (a.u.)       :      0.61347
Magnitude (Debye)      :      1.55930

Rotational constants in cm-1:     0.017785     0.009201     0.006657
Rotational constants in MHz :   533.188775   275.829088   199.557697

                             ****ORCA TERMINATED NORMALLY****
TOTAL RUN TIME: 0 days 0 hours 0 minutes 21 seconds 717 msec
