                         Program Version 4.2.1 -  RELEASE  -
|  1> ! wB97X-D3 SP def2-SVP
|  2> %pal
|  3> nprocs 24
|  4> end
|  5>
|  6> * xyz 0 1
|  7> S 	 -116.757 	 14.3303 	 -112.735
|  8> C 	 -115.398 	 13.3781 	 -113.316
|  9> C 	 -115.254 	 13.3957 	 -114.711
| 10> C 	 -116.222 	 14.2634 	 -115.296
| 11> C 	 -117.154 	 14.7757 	 -114.401
| 12> H 	 -116.357 	 14.409 	 -116.346
| 13> C 	 -114.399 	 12.5429 	 -115.598
| 14> H 	 -114.963 	 11.6933 	 -115.998
| 15> H 	 -113.945 	 11.969 	 -114.851
| 16> C 	 -113.45 	 13.1545 	 -116.65
| 17> H 	 -113.977 	 13.7703 	 -117.332
| 18> H 	 -112.781 	 13.8906 	 -116.06
| 19> C 	 -112.771 	 12.0105 	 -117.397
| 20> H 	 -111.938 	 12.4399 	 -118.081
| 21> H 	 -112.184 	 11.404 	 -116.714
| 22> H 	 -113.501 	 11.3988 	 -117.903
| 23> S 	 -119.864 	 14.3893 	 -114.858
| 24> C 	 -120.757 	 15.6219 	 -115.676
| 25> C 	 -120.051 	 16.7917 	 -115.696
| 26> C 	 -118.693 	 16.7196 	 -115.234
| 27> C 	 -118.438 	 15.405 	 -114.799
| 28> H 	 -120.575 	 17.6437 	 -116.084
| 29> C 	 -117.712 	 17.8702 	 -115.293
| 30> H 	 -116.825 	 17.6316 	 -114.856
| 31> H 	 -118.084 	 18.705 	 -114.815
| 32> C 	 -117.537 	 18.3125 	 -116.715
| 33> H 	 -116.934 	 19.2183 	 -116.731
| 34> H 	 -118.509 	 18.5105 	 -117.222
| 35> C 	 -116.757 	 17.3527 	 -117.651
| 36> H 	 -116.368 	 18.0055 	 -118.447
| 37> H 	 -117.414 	 16.5654 	 -117.915
| 38> H 	 -115.877 	 16.8821 	 -117.212
| 39> H 	 -114.78 	 12.839 	 -112.632
| 40> H 	 -121.751 	 15.4012 	 -116.059
| 41> *
| 42>
| 43>                          ****END OF INPUT****

CARTESIAN COORDINATES (ANGSTROEM)
---------------------------------
  S    -116.757000   14.330300  -112.735000
  C    -115.398000   13.378100  -113.316000
  C    -115.254000   13.395700  -114.711000
  C    -116.222000   14.263400  -115.296000
  C    -117.154000   14.775700  -114.401000
  H    -116.357000   14.409000  -116.346000
  C    -114.399000   12.542900  -115.598000
  H    -114.963000   11.693300  -115.998000
  H    -113.945000   11.969000  -114.851000
  C    -113.450000   13.154500  -116.650000
  H    -113.977000   13.770300  -117.332000
  H    -112.781000   13.890600  -116.060000
  C    -112.771000   12.010500  -117.397000
  H    -111.938000   12.439900  -118.081000
  H    -112.184000   11.404000  -116.714000
  H    -113.501000   11.398800  -117.903000
  S    -119.864000   14.389300  -114.858000
  C    -120.757000   15.621900  -115.676000
  C    -120.051000   16.791700  -115.696000
  C    -118.693000   16.719600  -115.234000
  C    -118.438000   15.405000  -114.799000
  H    -120.575000   17.643700  -116.084000
  C    -117.712000   17.870200  -115.293000
  H    -116.825000   17.631600  -114.856000
  H    -118.084000   18.705000  -114.815000
  C    -117.537000   18.312500  -116.715000
  H    -116.934000   19.218300  -116.731000
  H    -118.509000   18.510500  -117.222000
  C    -116.757000   17.352700  -117.651000
  H    -116.368000   18.005500  -118.447000
  H    -117.414000   16.565400  -117.915000
  H    -115.877000   16.882100  -117.212000
  H    -114.780000   12.839000  -112.632000
  H    -121.751000   15.401200  -116.059000

 Total Charge           Charge          ....    0
 Multiplicity           Mult            ....    1
 Number of Electrons    NEL             ....  134
 Basis Dimension        Dim             ....  322

ORBITAL ENERGIES
----------------

  NO   OCC          E(Eh)            E(eV)
   0   2.0000     -88.967065     -2420.9169
   1   2.0000     -88.961221     -2420.7579
   2   2.0000     -10.328250      -281.0460
   3   2.0000     -10.325857      -280.9808
   4   2.0000     -10.315988      -280.7123
   5   2.0000     -10.314708      -280.6775
   6   2.0000     -10.305813      -280.4354
   7   2.0000     -10.301212      -280.3102
   8   2.0000     -10.294767      -280.1349
   9   2.0000     -10.291057      -280.0339
  10   2.0000     -10.288938      -279.9762
  11   2.0000     -10.287319      -279.9322
  12   2.0000     -10.285577      -279.8848
  13   2.0000     -10.282986      -279.8143
  14   2.0000     -10.276143      -279.6281
  15   2.0000     -10.270349      -279.4704
  16   2.0000      -8.081259      -219.9022
  17   2.0000      -8.076682      -219.7777
  18   2.0000      -6.039689      -164.3483
  19   2.0000      -6.035871      -164.2444
  20   2.0000      -6.035065      -164.2225
  21   2.0000      -6.032121      -164.1424
  22   2.0000      -6.031096      -164.1145
  23   2.0000      -6.027532      -164.0175
  24   2.0000      -1.001874       -27.2624
  25   2.0000      -0.981321       -26.7031
  26   2.0000      -0.916693       -24.9445
  27   2.0000      -0.912903       -24.8414
  28   2.0000      -0.865059       -23.5395
  29   2.0000      -0.849788       -23.1239
  30   2.0000      -0.844321       -22.9751
  31   2.0000      -0.813193       -22.1281
  32   2.0000      -0.788812       -21.4647
  33   2.0000      -0.771084       -20.9823
  34   2.0000      -0.711238       -19.3538
  35   2.0000      -0.696362       -18.9490
  36   2.0000      -0.691539       -18.8177
  37   2.0000      -0.651231       -17.7209
  38   2.0000      -0.643972       -17.5234
  39   2.0000      -0.622719       -16.9451
  40   2.0000      -0.606517       -16.5042
  41   2.0000      -0.570534       -15.5250
  42   2.0000      -0.558435       -15.1958
  43   2.0000      -0.554736       -15.0951
  44   2.0000      -0.546487       -14.8707
  45   2.0000      -0.526417       -14.3245
  46   2.0000      -0.520919       -14.1749
  47   2.0000      -0.506996       -13.7961
  48   2.0000      -0.503277       -13.6949
  49   2.0000      -0.497949       -13.5499
  50   2.0000      -0.488900       -13.3036
  51   2.0000      -0.479597       -13.0505
  52   2.0000      -0.472278       -12.8513
  53   2.0000      -0.461611       -12.5611
  54   2.0000      -0.460775       -12.5383
  55   2.0000      -0.446358       -12.1460
  56   2.0000      -0.440705       -11.9922
  57   2.0000      -0.439173       -11.9505
  58   2.0000      -0.430874       -11.7247
  59   2.0000      -0.426421       -11.6035
  60   2.0000      -0.425256       -11.5718
  61   2.0000      -0.414871       -11.2892
  62   2.0000      -0.411309       -11.1923
  63   2.0000      -0.337251        -9.1771
  64   2.0000      -0.326112        -8.8740
  65   2.0000      -0.321433        -8.7466
  66   2.0000      -0.302451        -8.2301
  67   0.0000       0.045082         1.2267
  68   0.0000       0.054643         1.4869
  69   0.0000       0.117334         3.1928
  70   0.0000       0.119731         3.2581
  71   0.0000       0.125737         3.4215

MULLIKEN ATOMIC CHARGES
-----------------------
   0 S :    0.113492
   1 C :   -0.124322
   2 C :   -0.086024
   3 C :    0.060740
   4 C :   -0.180517
   5 H :    0.004101
   6 C :    0.074279
   7 H :    0.027846
   8 H :   -0.021968
   9 C :   -0.053846
  10 H :    0.027240
  11 H :    0.044096
  12 C :   -0.057485
  13 H :    0.047369
  14 H :    0.028047
  15 H :    0.042245
  16 S :    0.113870
  17 C :   -0.109457
  18 C :   -0.037437
  19 C :   -0.041262
  20 C :   -0.198275
  21 H :    0.013784
  22 C :    0.244801
  23 H :   -0.006054
  24 H :    0.005608
  25 C :   -0.145459
  26 H :    0.023678
  27 H :    0.036989
  28 C :   -0.047683
  29 H :    0.036695
  30 H :    0.039943
  31 H :    0.023689
  32 H :    0.038475
  33 H :    0.062805
Sum of atomic charges:    0.0000000

LOEWDIN ATOMIC CHARGES
----------------------
   0 S :    0.396163
   1 C :   -0.190987
   2 C :   -0.062115
   3 C :   -0.051030
   4 C :   -0.196431
   5 H :    0.026820
   6 C :   -0.044165
   7 H :    0.036573
   8 H :    0.023157
   9 C :   -0.038206
  10 H :    0.016459
  11 H :    0.036362
  12 C :   -0.065886
  13 H :    0.038420
  14 H :    0.023783
  15 H :    0.026328
  16 S :    0.410981
  17 C :   -0.188585
  18 C :   -0.076261
  19 C :   -0.043399
  20 C :   -0.206582
  21 H :    0.027634
  22 C :   -0.012582
  23 H :    0.019385
  24 H :    0.028340
  25 C :   -0.037594
  26 H :    0.020561
  27 H :    0.026825
  28 C :   -0.065329
  29 H :    0.031077
  30 H :    0.019360
  31 H :    0.020894
  32 H :    0.019410
  33 H :    0.030620

  Mayer bond orders larger than 0.100000
B(  0-S ,  1-C ) :   1.1453 B(  0-S ,  4-C ) :   1.1463 B(  1-C ,  2-C ) :   1.6005
B(  1-C , 32-H ) :   0.9668 B(  2-C ,  3-C ) :   1.2395 B(  2-C ,  6-C ) :   1.0211
B(  3-C ,  4-C ) :   1.5986 B(  3-C ,  5-H ) :   0.9887 B(  4-C , 20-C ) :   1.0044
B(  6-C ,  7-H ) :   0.9316 B(  6-C ,  8-H ) :   0.9225 B(  6-C ,  9-C ) :   1.0391
B(  9-C , 10-H ) :   0.9573 B(  9-C , 11-H ) :   0.9547 B(  9-C , 12-C ) :   1.0762
B( 12-C , 13-H ) :   0.9729 B( 12-C , 14-H ) :   0.9763 B( 12-C , 15-H ) :   0.9732
B( 16-S , 17-C ) :   1.1598 B( 16-S , 20-C ) :   1.1605 B( 17-C , 18-C ) :   1.6094
B( 17-C , 33-H ) :   0.9698 B( 18-C , 19-C ) :   1.2180 B( 18-C , 21-H ) :   0.9923
B( 19-C , 20-C ) :   1.5898 B( 19-C , 22-C ) :   1.0521 B( 22-C , 23-H ) :   0.9190
B( 22-C , 24-H ) :   0.9150 B( 22-C , 25-C ) :   1.0755 B( 25-C , 26-H ) :   0.9596
B( 25-C , 27-H ) :   0.9575 B( 25-C , 28-C ) :   1.0668 B( 28-C , 29-H ) :   0.9754
B( 28-C , 30-H ) :   0.9768 B( 28-C , 31-H ) :   0.9736

Dispersion correction           -0.014880467
FINAL SINGLE POINT ENERGY     -1339.866069681874

DIPOLE MOMENT
-------------
                                X             Y             Z
Electronic contribution:    -19.46151      -3.49305      19.96751
Nuclear contribution   :     19.71746       3.57800     -20.43410
                        -----------------------------------------
Total Dipole Moment    :      0.25595       0.08494      -0.46659
                        -----------------------------------------
Magnitude (a.u.)       :      0.53892
Magnitude (Debye)      :      1.36983

Rotational constants in cm-1:     0.018227     0.008627     0.007146
Rotational constants in MHz :   546.443479   258.633541   214.222874

                             ****ORCA TERMINATED NORMALLY****
TOTAL RUN TIME: 0 days 0 hours 0 minutes 21 seconds 834 msec
