                         Program Version 4.2.1 -  RELEASE  -
|  1> ! wB97X-D3 SP def2-SVP
|  2> %pal
|  3> nprocs 24
|  4> end
|  5>
|  6> * xyz 0 1
|  7> S 	 -53.0902 	 -47.8752 	 -80.4546
|  8> C 	 -53.6333 	 -46.1789 	 -80.6538
|  9> C 	 -52.8557 	 -45.2641 	 -79.9782
| 10> C 	 -51.7392 	 -45.8946 	 -79.3961
| 11> C 	 -51.6521 	 -47.2771 	 -79.6771
| 12> H 	 -50.8982 	 -45.4462 	 -78.8446
| 13> C 	 -53.2197 	 -43.7885 	 -79.6595
| 14> H 	 -53.2843 	 -43.8885 	 -78.6238
| 15> H 	 -54.1447 	 -43.4774 	 -80.0157
| 16> C 	 -52.0931 	 -42.7696 	 -79.7769
| 17> H 	 -51.1928 	 -43.1241 	 -79.3083
| 18> H 	 -51.9156 	 -42.5472 	 -80.7769
| 19> C 	 -52.433 	 -41.3956 	 -79.1223
| 20> H 	 -52.662 	 -41.5767 	 -78.0559
| 21> H 	 -51.5994 	 -40.7548 	 -79.1094
| 22> H 	 -53.3333 	 -40.8656 	 -79.5185
| 23> S 	 -50.6666 	 -48.7145 	 -77.4443
| 24> C 	 -49.237 	 -49.6714 	 -77.5766
| 25> C 	 -48.6615 	 -49.4296 	 -78.7796
| 26> C 	 -49.3953 	 -48.5572 	 -79.6724
| 27> C 	 -50.636 	 -48.1881 	 -79.1613
| 28> H 	 -47.7391 	 -49.8449 	 -79.1267
| 29> C 	 -48.9167 	 -48.2465 	 -81.0214
| 30> H 	 -49.818 	 -48.1611 	 -81.7387
| 31> H 	 -48.4281 	 -49.1543 	 -81.3896
| 32> C 	 -47.9865 	 -46.9941 	 -81.0188
| 33> H 	 -48.4816 	 -46.2552 	 -80.4307
| 34> H 	 -47.824 	 -46.492 	 -82.0005
| 35> C 	 -46.5359 	 -47.2186 	 -80.3689
| 36> H 	 -45.9977 	 -46.2981 	 -80.4258
| 37> H 	 -45.8509 	 -47.974 	 -80.8006
| 38> H 	 -46.7835 	 -47.5487 	 -79.3493
| 39> H 	 -54.5545 	 -45.9582 	 -81.1824
| 40> H 	 -48.7497 	 -50.2073 	 -76.7475
| 41> *
| 42>
| 43>                          ****END OF INPUT****

CARTESIAN COORDINATES (ANGSTROEM)
---------------------------------
  S    -53.090200  -47.875200  -80.454600
  C    -53.633300  -46.178900  -80.653800
  C    -52.855700  -45.264100  -79.978200
  C    -51.739200  -45.894600  -79.396100
  C    -51.652100  -47.277100  -79.677100
  H    -50.898200  -45.446200  -78.844600
  C    -53.219700  -43.788500  -79.659500
  H    -53.284300  -43.888500  -78.623800
  H    -54.144700  -43.477400  -80.015700
  C    -52.093100  -42.769600  -79.776900
  H    -51.192800  -43.124100  -79.308300
  H    -51.915600  -42.547200  -80.776900
  C    -52.433000  -41.395600  -79.122300
  H    -52.662000  -41.576700  -78.055900
  H    -51.599400  -40.754800  -79.109400
  H    -53.333300  -40.865600  -79.518500
  S    -50.666600  -48.714500  -77.444300
  C    -49.237000  -49.671400  -77.576600
  C    -48.661500  -49.429600  -78.779600
  C    -49.395300  -48.557200  -79.672400
  C    -50.636000  -48.188100  -79.161300
  H    -47.739100  -49.844900  -79.126700
  C    -48.916700  -48.246500  -81.021400
  H    -49.818000  -48.161100  -81.738700
  H    -48.428100  -49.154300  -81.389600
  C    -47.986500  -46.994100  -81.018800
  H    -48.481600  -46.255200  -80.430700
  H    -47.824000  -46.492000  -82.000500
  C    -46.535900  -47.218600  -80.368900
  H    -45.997700  -46.298100  -80.425800
  H    -45.850900  -47.974000  -80.800600
  H    -46.783500  -47.548700  -79.349300
  H    -54.554500  -45.958200  -81.182400
  H    -48.749700  -50.207300  -76.747500

 Total Charge           Charge          ....    0
 Multiplicity           Mult            ....    1
 Number of Electrons    NEL             ....  134
 Basis Dimension        Dim             ....  322

ORBITAL ENERGIES
----------------

  NO   OCC          E(Eh)            E(eV)
   0   2.0000     -88.969160     -2420.9739
   1   2.0000     -88.959344     -2420.7068
   2   2.0000     -10.331078      -281.1229
   3   2.0000     -10.326028      -280.9855
   4   2.0000     -10.317865      -280.7634
   5   2.0000     -10.316732      -280.7326
   6   2.0000     -10.306373      -280.4507
   7   2.0000     -10.299980      -280.2767
   8   2.0000     -10.299209      -280.2557
   9   2.0000     -10.293594      -280.1029
  10   2.0000     -10.291487      -280.0456
  11   2.0000     -10.289230      -279.9842
  12   2.0000     -10.288741      -279.9709
  13   2.0000     -10.284045      -279.8431
  14   2.0000     -10.281188      -279.7653
  15   2.0000     -10.280228      -279.7392
  16   2.0000      -8.083283      -219.9573
  17   2.0000      -8.074133      -219.7083
  18   2.0000      -6.041646      -164.4015
  19   2.0000      -6.038005      -164.3025
  20   2.0000      -6.034103      -164.1963
  21   2.0000      -6.032690      -164.1578
  22   2.0000      -6.028623      -164.0472
  23   2.0000      -6.024826      -163.9438
  24   2.0000      -1.003424       -27.3045
  25   2.0000      -0.983567       -26.7642
  26   2.0000      -0.916699       -24.9446
  27   2.0000      -0.904704       -24.6183
  28   2.0000      -0.869540       -23.6614
  29   2.0000      -0.848455       -23.0876
  30   2.0000      -0.838837       -22.8259
  31   2.0000      -0.810442       -22.0532
  32   2.0000      -0.787492       -21.4287
  33   2.0000      -0.771228       -20.9862
  34   2.0000      -0.712658       -19.3924
  35   2.0000      -0.703738       -19.1497
  36   2.0000      -0.690420       -18.7873
  37   2.0000      -0.660565       -17.9749
  38   2.0000      -0.643168       -17.5015
  39   2.0000      -0.619610       -16.8604
  40   2.0000      -0.594387       -16.1741
  41   2.0000      -0.574592       -15.6355
  42   2.0000      -0.565166       -15.3790
  43   2.0000      -0.549165       -14.9435
  44   2.0000      -0.535045       -14.5593
  45   2.0000      -0.529426       -14.4064
  46   2.0000      -0.512643       -13.9497
  47   2.0000      -0.508751       -13.8438
  48   2.0000      -0.499128       -13.5820
  49   2.0000      -0.497173       -13.5288
  50   2.0000      -0.490402       -13.3445
  51   2.0000      -0.483886       -13.1672
  52   2.0000      -0.471368       -12.8266
  53   2.0000      -0.465913       -12.6781
  54   2.0000      -0.462130       -12.5752
  55   2.0000      -0.449603       -12.2343
  56   2.0000      -0.447181       -12.1684
  57   2.0000      -0.444274       -12.0893
  58   2.0000      -0.433613       -11.7992
  59   2.0000      -0.430572       -11.7165
  60   2.0000      -0.418446       -11.3865
  61   2.0000      -0.412531       -11.2255
  62   2.0000      -0.406341       -11.0571
  63   2.0000      -0.335544        -9.1306
  64   2.0000      -0.324742        -8.8367
  65   2.0000      -0.320212        -8.7134
  66   2.0000      -0.312205        -8.4955
  67   0.0000       0.040617         1.1052
  68   0.0000       0.049042         1.3345
  69   0.0000       0.105130         2.8607
  70   0.0000       0.122589         3.3358
  71   0.0000       0.131376         3.5749

MULLIKEN ATOMIC CHARGES
-----------------------
   0 S :    0.117343
   1 C :   -0.149072
   2 C :   -0.041007
   3 C :    0.009868
   4 C :   -0.191250
   5 H :    0.030657
   6 C :    0.138218
   7 H :    0.017537
   8 H :    0.002123
   9 C :   -0.057751
  10 H :    0.026496
  11 H :    0.021506
  12 C :   -0.068142
  13 H :    0.020951
  14 H :    0.029800
  15 H :    0.040423
  16 S :    0.092415
  17 C :   -0.083528
  18 C :   -0.012349
  19 C :   -0.055090
  20 C :   -0.167940
  21 H :    0.005371
  22 C :    0.046431
  23 H :    0.047527
  24 H :    0.025686
  25 C :   -0.056086
  26 H :    0.019932
  27 H :    0.036315
  28 C :   -0.079336
  29 H :    0.035939
  30 H :    0.036699
  31 H :    0.041238
  32 H :    0.046091
  33 H :    0.072985
Sum of atomic charges:    0.0000000

LOEWDIN ATOMIC CHARGES
----------------------
   0 S :    0.401837
   1 C :   -0.185215
   2 C :   -0.056662
   3 C :   -0.060468
   4 C :   -0.202026
   5 H :    0.035110
   6 C :   -0.013398
   7 H :    0.032690
   8 H :    0.020176
   9 C :   -0.027998
  10 H :    0.023666
  11 H :    0.014853
  12 C :   -0.064667
  13 H :    0.023766
  14 H :    0.019800
  15 H :    0.029242
  16 S :    0.390017
  17 C :   -0.190725
  18 C :   -0.077779
  19 C :   -0.054710
  20 C :   -0.197532
  21 H :    0.023997
  22 C :   -0.042109
  23 H :    0.044866
  24 H :    0.029842
  25 C :   -0.032098
  26 H :    0.020060
  27 H :    0.025592
  28 C :   -0.070712
  29 H :    0.023208
  30 H :    0.025274
  31 H :    0.026513
  32 H :    0.024351
  33 H :    0.041240

  Mayer bond orders larger than 0.100000
B(  0-S ,  1-C ) :   1.1380 B(  0-S ,  4-C ) :   1.1621 B(  1-C ,  2-C ) :   1.6107
B(  1-C ,  4-C ) :   0.1026 B(  1-C , 32-H ) :   0.9699 B(  2-C ,  3-C ) :   1.2367
B(  2-C ,  6-C ) :   1.0029 B(  3-C ,  4-C ) :   1.5819 B(  3-C ,  5-H ) :   0.9844
B(  4-C , 20-C ) :   1.0249 B(  6-C ,  7-H ) :   0.9330 B(  6-C ,  8-H ) :   0.9491
B(  6-C ,  9-C ) :   1.0597 B(  9-C , 10-H ) :   0.9526 B(  9-C , 11-H ) :   0.9576
B(  9-C , 12-C ) :   1.0851 B( 12-C , 13-H ) :   0.9750 B( 12-C , 14-H ) :   0.9754
B( 12-C , 15-H ) :   0.9763 B( 16-S , 17-C ) :   1.1589 B( 16-S , 20-C ) :   1.1254
B( 17-C , 18-C ) :   1.5907 B( 17-C , 33-H ) :   0.9635 B( 18-C , 19-C ) :   1.2531
B( 18-C , 21-H ) :   0.9858 B( 19-C , 20-C ) :   1.6003 B( 19-C , 22-C ) :   1.0485
B( 22-C , 23-H ) :   0.9340 B( 22-C , 24-H ) :   0.9437 B( 22-C , 25-C ) :   1.0430
B( 25-C , 26-H ) :   0.9566 B( 25-C , 27-H ) :   0.9616 B( 25-C , 28-C ) :   1.0656
B( 28-C , 29-H ) :   0.9753 B( 28-C , 30-H ) :   0.9788 B( 28-C , 31-H ) :   0.9744

Dispersion correction           -0.014462986
FINAL SINGLE POINT ENERGY     -1339.866134283600

DIPOLE MOMENT
-------------
                                X             Y             Z
Electronic contribution:    -12.35323     -22.35656       5.64029
Nuclear contribution   :     12.62848      22.90436      -5.70323
                        -----------------------------------------
Total Dipole Moment    :      0.27525       0.54781      -0.06294
                        -----------------------------------------
Magnitude (a.u.)       :      0.61629
Magnitude (Debye)      :      1.56649

Rotational constants in cm-1:     0.017910     0.008130     0.007026
Rotational constants in MHz :   536.927442   243.730486   210.619246

                             ****ORCA TERMINATED NORMALLY****
TOTAL RUN TIME: 0 days 0 hours 0 minutes 21 seconds 368 msec
