                         Program Version 4.2.1 -  RELEASE  -
|  1> ! wB97X-D3 SP def2-SVP
|  2> %pal
|  3> nprocs 24
|  4> end
|  5>
|  6> * xyz 0 1
|  7> S 	 -115.951 	 40.4287 	 -113.61
|  8> C 	 -115.142 	 39.5216 	 -114.893
|  9> C 	 -113.824 	 39.5053 	 -114.631
| 10> C 	 -113.397 	 40.1239 	 -113.38
| 11> C 	 -114.453 	 40.7701 	 -112.758
| 12> H 	 -112.397 	 40.1483 	 -112.994
| 13> C 	 -112.888 	 38.8173 	 -115.528
| 14> H 	 -111.87 	 39.1593 	 -115.356
| 15> H 	 -113.02 	 39.0258 	 -116.573
| 16> C 	 -112.928 	 37.2805 	 -115.245
| 17> H 	 -112.689 	 36.9907 	 -114.201
| 18> H 	 -113.912 	 36.8851 	 -115.443
| 19> C 	 -112.072 	 36.384 	 -116.27
| 20> H 	 -111.014 	 36.484 	 -116.026
| 21> H 	 -112.409 	 35.3708 	 -116.316
| 22> H 	 -112.221 	 36.8602 	 -117.223
| 23> S 	 -114.782 	 43.221 	 -111.577
| 24> C 	 -114.426 	 43.3147 	 -109.841
| 25> C 	 -113.994 	 42.1286 	 -109.279
| 26> C 	 -113.954 	 41.0568 	 -110.295
| 27> C 	 -114.44 	 41.4859 	 -111.504
| 28> H 	 -113.668 	 42.1528 	 -108.235
| 29> C 	 -113.481 	 39.693 	 -109.836
| 30> H 	 -112.981 	 39.8297 	 -108.824
| 31> H 	 -112.652 	 39.4356 	 -110.517
| 32> C 	 -114.621 	 38.5486 	 -109.843
| 33> H 	 -114.935 	 38.4383 	 -110.882
| 34> H 	 -115.478 	 38.9144 	 -109.285
| 35> C 	 -114.081 	 37.2174 	 -109.337
| 36> H 	 -113.229 	 36.998 	 -109.968
| 37> H 	 -114.818 	 36.4224 	 -109.504
| 38> H 	 -113.842 	 37.183 	 -108.266
| 39> H 	 -115.521 	 39.1301 	 -115.826
| 40> H 	 -114.271 	 44.2691 	 -109.336
| 41> *
| 42>
| 43>                          ****END OF INPUT****

CARTESIAN COORDINATES (ANGSTROEM)
---------------------------------
  S    -115.951000   40.428700  -113.610000
  C    -115.142000   39.521600  -114.893000
  C    -113.824000   39.505300  -114.631000
  C    -113.397000   40.123900  -113.380000
  C    -114.453000   40.770100  -112.758000
  H    -112.397000   40.148300  -112.994000
  C    -112.888000   38.817300  -115.528000
  H    -111.870000   39.159300  -115.356000
  H    -113.020000   39.025800  -116.573000
  C    -112.928000   37.280500  -115.245000
  H    -112.689000   36.990700  -114.201000
  H    -113.912000   36.885100  -115.443000
  C    -112.072000   36.384000  -116.270000
  H    -111.014000   36.484000  -116.026000
  H    -112.409000   35.370800  -116.316000
  H    -112.221000   36.860200  -117.223000
  S    -114.782000   43.221000  -111.577000
  C    -114.426000   43.314700  -109.841000
  C    -113.994000   42.128600  -109.279000
  C    -113.954000   41.056800  -110.295000
  C    -114.440000   41.485900  -111.504000
  H    -113.668000   42.152800  -108.235000
  C    -113.481000   39.693000  -109.836000
  H    -112.981000   39.829700  -108.824000
  H    -112.652000   39.435600  -110.517000
  C    -114.621000   38.548600  -109.843000
  H    -114.935000   38.438300  -110.882000
  H    -115.478000   38.914400  -109.285000
  C    -114.081000   37.217400  -109.337000
  H    -113.229000   36.998000  -109.968000
  H    -114.818000   36.422400  -109.504000
  H    -113.842000   37.183000  -108.266000
  H    -115.521000   39.130100  -115.826000
  H    -114.271000   44.269100  -109.336000

 Total Charge           Charge          ....    0
 Multiplicity           Mult            ....    1
 Number of Electrons    NEL             ....  134
 Basis Dimension        Dim             ....  322

ORBITAL ENERGIES
----------------

  NO   OCC          E(Eh)            E(eV)
   0   2.0000     -88.966598     -2420.9042
   1   2.0000     -88.962850     -2420.8022
   2   2.0000     -10.329677      -281.0848
   3   2.0000     -10.325256      -280.9645
   4   2.0000     -10.319344      -280.8036
   5   2.0000     -10.309151      -280.5262
   6   2.0000     -10.309106      -280.5250
   7   2.0000     -10.301391      -280.3151
   8   2.0000     -10.299202      -280.2555
   9   2.0000     -10.296403      -280.1794
  10   2.0000     -10.294937      -280.1395
  11   2.0000     -10.290838      -280.0279
  12   2.0000     -10.288952      -279.9766
  13   2.0000     -10.288722      -279.9704
  14   2.0000     -10.277432      -279.6632
  15   2.0000     -10.277243      -279.6580
  16   2.0000      -8.080858      -219.8913
  17   2.0000      -8.077156      -219.7906
  18   2.0000      -6.039436      -164.3414
  19   2.0000      -6.035868      -164.2443
  20   2.0000      -6.035665      -164.2388
  21   2.0000      -6.031617      -164.1286
  22   2.0000      -6.031336      -164.1210
  23   2.0000      -6.027812      -164.0251
  24   2.0000      -1.004411       -27.3314
  25   2.0000      -0.980487       -26.6804
  26   2.0000      -0.910175       -24.7671
  27   2.0000      -0.898868       -24.4594
  28   2.0000      -0.867773       -23.6133
  29   2.0000      -0.850743       -23.1499
  30   2.0000      -0.841071       -22.8867
  31   2.0000      -0.816332       -22.2135
  32   2.0000      -0.779541       -21.2124
  33   2.0000      -0.767818       -20.8934
  34   2.0000      -0.708128       -19.2691
  35   2.0000      -0.701620       -19.0921
  36   2.0000      -0.691952       -18.8290
  37   2.0000      -0.661251       -17.9936
  38   2.0000      -0.641216       -17.4484
  39   2.0000      -0.617643       -16.8069
  40   2.0000      -0.587747       -15.9934
  41   2.0000      -0.570529       -15.5249
  42   2.0000      -0.560743       -15.2586
  43   2.0000      -0.553317       -15.0565
  44   2.0000      -0.526978       -14.3398
  45   2.0000      -0.521099       -14.1798
  46   2.0000      -0.518076       -14.0976
  47   2.0000      -0.512798       -13.9539
  48   2.0000      -0.508275       -13.8309
  49   2.0000      -0.500763       -13.6265
  50   2.0000      -0.489608       -13.3229
  51   2.0000      -0.482668       -13.1341
  52   2.0000      -0.473679       -12.8895
  53   2.0000      -0.461134       -12.5481
  54   2.0000      -0.453848       -12.3498
  55   2.0000      -0.449646       -12.2355
  56   2.0000      -0.441522       -12.0144
  57   2.0000      -0.433040       -11.7836
  58   2.0000      -0.429607       -11.6902
  59   2.0000      -0.428104       -11.6493
  60   2.0000      -0.425242       -11.5714
  61   2.0000      -0.414875       -11.2893
  62   2.0000      -0.409211       -11.1352
  63   2.0000      -0.342534        -9.3208
  64   2.0000      -0.329866        -8.9761
  65   2.0000      -0.325673        -8.8620
  66   2.0000      -0.300853        -8.1866
  67   0.0000       0.035189         0.9576
  68   0.0000       0.064111         1.7445
  69   0.0000       0.105038         2.8582
  70   0.0000       0.122809         3.3418
  71   0.0000       0.124573         3.3898

MULLIKEN ATOMIC CHARGES
-----------------------
   0 S :    0.100667
   1 C :   -0.106045
   2 C :   -0.092907
   3 C :    0.046536
   4 C :   -0.160754
   5 H :    0.012157
   6 C :    0.080069
   7 H :    0.012785
   8 H :    0.020586
   9 C :   -0.108315
  10 H :    0.034383
  11 H :    0.021167
  12 C :   -0.036722
  13 H :    0.034188
  14 H :    0.040432
  15 H :    0.017251
  16 S :    0.108935
  17 C :   -0.092308
  18 C :   -0.050209
  19 C :   -0.032226
  20 C :   -0.159549
  21 H :    0.033129
  22 C :    0.048445
  23 H :    0.028957
  24 H :    0.023356
  25 C :   -0.070024
  26 H :    0.042085
  27 H :    0.035524
  28 C :   -0.035731
  29 H :    0.026729
  30 H :    0.034420
  31 H :    0.038051
  32 H :    0.043194
  33 H :    0.061745
Sum of atomic charges:   -0.0000000

LOEWDIN ATOMIC CHARGES
----------------------
   0 S :    0.391702
   1 C :   -0.192480
   2 C :   -0.064675
   3 C :   -0.059508
   4 C :   -0.188229
   5 H :    0.029484
   6 C :   -0.033897
   7 H :    0.027870
   8 H :    0.027891
   9 C :   -0.033975
  10 H :    0.024605
  11 H :    0.017858
  12 C :   -0.063277
  13 H :    0.022723
  14 H :    0.023403
  15 H :    0.020107
  16 S :    0.387778
  17 C :   -0.175822
  18 C :   -0.072110
  19 C :   -0.046190
  20 C :   -0.203861
  21 H :    0.037550
  22 C :   -0.037458
  23 H :    0.034414
  24 H :    0.029298
  25 C :   -0.031033
  26 H :    0.028656
  27 H :    0.023288
  28 C :   -0.067158
  29 H :    0.025148
  30 H :    0.028656
  31 H :    0.026166
  32 H :    0.033378
  33 H :    0.029696

  Mayer bond orders larger than 0.100000
B(  0-S ,  1-C ) :   1.1046 B(  0-S ,  4-C ) :   1.1493 B(  1-C ,  2-C ) :   1.6472
B(  1-C , 32-H ) :   0.9690 B(  2-C ,  3-C ) :   1.2053 B(  2-C ,  6-C ) :   1.0463
B(  3-C ,  4-C ) :   1.5930 B(  3-C ,  5-H ) :   0.9993 B(  4-C , 20-C ) :   1.0202
B(  6-C ,  7-H ) :   0.9371 B(  6-C ,  8-H ) :   0.9380 B(  6-C ,  9-C ) :   1.0497
B(  9-C , 10-H ) :   0.9610 B(  9-C , 11-H ) :   0.9646 B(  9-C , 12-C ) :   1.0640
B( 12-C , 13-H ) :   0.9797 B( 12-C , 14-H ) :   0.9797 B( 12-C , 15-H ) :   0.9757
B( 16-S , 17-C ) :   1.1387 B( 16-S , 20-C ) :   1.1256 B( 17-C , 18-C ) :   1.6639
B( 17-C , 33-H ) :   0.9602 B( 18-C , 19-C ) :   1.1908 B( 18-C , 21-H ) :   0.9837
B( 19-C , 20-C ) :   1.6415 B( 19-C , 22-C ) :   1.0445 B( 22-C , 23-H ) :   0.9405
B( 22-C , 24-H ) :   0.9249 B( 22-C , 25-C ) :   1.0471 B( 25-C , 26-H ) :   0.9535
B( 25-C , 27-H ) :   0.9601 B( 25-C , 28-C ) :   1.0874 B( 28-C , 29-H ) :   0.9728
B( 28-C , 30-H ) :   0.9727 B( 28-C , 31-H ) :   0.9760

Dispersion correction           -0.014462693
FINAL SINGLE POINT ENERGY     -1339.879794420078

DIPOLE MOMENT
-------------
                                X             Y             Z
Electronic contribution:    -13.18304      27.10000       1.41481
Nuclear contribution   :     13.75017     -27.51203      -1.30081
                        -----------------------------------------
Total Dipole Moment    :      0.56713      -0.41202       0.11400
                        -----------------------------------------
Magnitude (a.u.)       :      0.71021
Magnitude (Debye)      :      1.80520

Rotational constants in cm-1:     0.018971     0.008498     0.006772
Rotational constants in MHz :   568.724298   254.777301   203.015824

                             ****ORCA TERMINATED NORMALLY****
TOTAL RUN TIME: 0 days 0 hours 0 minutes 21 seconds 744 msec
