                         Program Version 4.2.1 -  RELEASE  -
|  1> ! wB97X-D3 SP def2-SVP
|  2> %pal
|  3> nprocs 24
|  4> end
|  5>
|  6> * xyz 0 1
|  7> S 	 -120.133 	 66.5194 	 -64.3308
|  8> C 	 -120.335 	 65.1206 	 -65.2943
|  9> C 	 -119.877 	 63.9996 	 -64.6115
| 10> C 	 -119.729 	 64.2278 	 -63.2051
| 11> C 	 -119.944 	 65.5762 	 -62.8752
| 12> H 	 -119.548 	 63.5172 	 -62.4897
| 13> C 	 -119.698 	 62.6283 	 -65.2086
| 14> H 	 -120.155 	 62.7338 	 -66.2134
| 15> H 	 -120.275 	 61.9416 	 -64.6237
| 16> C 	 -118.269 	 62.0635 	 -65.2969
| 17> H 	 -117.623 	 62.5598 	 -65.967
| 18> H 	 -117.861 	 62.1702 	 -64.2946
| 19> C 	 -118.165 	 60.6151 	 -65.7241
| 20> H 	 -118.67 	 59.911 	 -65.0992
| 21> H 	 -118.536 	 60.5826 	 -66.7547
| 22> H 	 -117.07 	 60.3994 	 -65.8365
| 23> S 	 -119.36 	 67.9616 	 -61.6435
| 24> C 	 -119.764 	 68.1347 	 -59.9023
| 25> C 	 -119.978 	 66.8956 	 -59.3395
| 26> C 	 -120.245 	 65.8924 	 -60.2892
| 27> C 	 -119.901 	 66.3103 	 -61.5958
| 28> H 	 -120.268 	 66.9094 	 -58.2269
| 29> C 	 -120.749 	 64.5259 	 -59.9522
| 30> H 	 -121.643 	 64.3124 	 -60.5111
| 31> H 	 -121.295 	 64.5299 	 -58.9522
| 32> C 	 -119.58 	 63.4753 	 -59.8942
| 33> H 	 -118.913 	 63.6844 	 -60.6778
| 34> H 	 -120.008 	 62.4653 	 -59.9924
| 35> C 	 -118.67 	 63.4506 	 -58.698
| 36> H 	 -118.414 	 64.4703 	 -58.4092
| 37> H 	 -117.748 	 63.0056 	 -58.9256
| 38> H 	 -119.108 	 62.949 	 -57.8752
| 39> H 	 -120.679 	 65.1271 	 -66.3106
| 40> H 	 -119.765 	 69.0525 	 -59.2703
| 41> *
| 42>
| 43>                          ****END OF INPUT****

CARTESIAN COORDINATES (ANGSTROEM)
---------------------------------
  S    -120.133000   66.519400  -64.330800
  C    -120.335000   65.120600  -65.294300
  C    -119.877000   63.999600  -64.611500
  C    -119.729000   64.227800  -63.205100
  C    -119.944000   65.576200  -62.875200
  H    -119.548000   63.517200  -62.489700
  C    -119.698000   62.628300  -65.208600
  H    -120.155000   62.733800  -66.213400
  H    -120.275000   61.941600  -64.623700
  C    -118.269000   62.063500  -65.296900
  H    -117.623000   62.559800  -65.967000
  H    -117.861000   62.170200  -64.294600
  C    -118.165000   60.615100  -65.724100
  H    -118.670000   59.911000  -65.099200
  H    -118.536000   60.582600  -66.754700
  H    -117.070000   60.399400  -65.836500
  S    -119.360000   67.961600  -61.643500
  C    -119.764000   68.134700  -59.902300
  C    -119.978000   66.895600  -59.339500
  C    -120.245000   65.892400  -60.289200
  C    -119.901000   66.310300  -61.595800
  H    -120.268000   66.909400  -58.226900
  C    -120.749000   64.525900  -59.952200
  H    -121.643000   64.312400  -60.511100
  H    -121.295000   64.529900  -58.952200
  C    -119.580000   63.475300  -59.894200
  H    -118.913000   63.684400  -60.677800
  H    -120.008000   62.465300  -59.992400
  C    -118.670000   63.450600  -58.698000
  H    -118.414000   64.470300  -58.409200
  H    -117.748000   63.005600  -58.925600
  H    -119.108000   62.949000  -57.875200
  H    -120.679000   65.127100  -66.310600
  H    -119.765000   69.052500  -59.270300

 Total Charge           Charge          ....    0
 Multiplicity           Mult            ....    1
 Number of Electrons    NEL             ....  134
 Basis Dimension        Dim             ....  322

ORBITAL ENERGIES
----------------

  NO   OCC          E(Eh)            E(eV)
   0   2.0000     -88.969036     -2420.9705
   1   2.0000     -88.963198     -2420.8117
   2   2.0000     -10.332199      -281.1534
   3   2.0000     -10.329729      -281.0862
   4   2.0000     -10.321443      -280.8608
   5   2.0000     -10.310583      -280.5652
   6   2.0000     -10.302529      -280.3461
   7   2.0000     -10.300133      -280.2809
   8   2.0000     -10.298243      -280.2294
   9   2.0000     -10.295850      -280.1643
  10   2.0000     -10.290265      -280.0123
  11   2.0000     -10.289673      -279.9962
  12   2.0000     -10.284908      -279.8666
  13   2.0000     -10.280921      -279.7581
  14   2.0000     -10.278799      -279.7003
  15   2.0000     -10.267425      -279.3908
  16   2.0000      -8.083087      -219.9520
  17   2.0000      -8.078970      -219.8400
  18   2.0000      -6.041646      -164.4015
  19   2.0000      -6.037842      -164.2980
  20   2.0000      -6.037426      -164.2867
  21   2.0000      -6.033682      -164.1848
  22   2.0000      -6.033418      -164.1777
  23   2.0000      -6.029637      -164.0748
  24   2.0000      -1.008243       -27.4357
  25   2.0000      -0.984860       -26.7994
  26   2.0000      -0.913831       -24.8666
  27   2.0000      -0.909455       -24.7475
  28   2.0000      -0.870665       -23.6920
  29   2.0000      -0.854636       -23.2558
  30   2.0000      -0.850193       -23.1349
  31   2.0000      -0.818324       -22.2677
  32   2.0000      -0.783171       -21.3112
  33   2.0000      -0.769072       -20.9275
  34   2.0000      -0.708543       -19.2804
  35   2.0000      -0.700222       -19.0540
  36   2.0000      -0.690734       -18.7958
  37   2.0000      -0.660015       -17.9599
  38   2.0000      -0.640770       -17.4362
  39   2.0000      -0.621441       -16.9103
  40   2.0000      -0.599262       -16.3067
  41   2.0000      -0.578080       -15.7304
  42   2.0000      -0.558655       -15.2018
  43   2.0000      -0.550181       -14.9712
  44   2.0000      -0.548310       -14.9203
  45   2.0000      -0.525787       -14.3074
  46   2.0000      -0.521087       -14.1795
  47   2.0000      -0.509746       -13.8709
  48   2.0000      -0.505146       -13.7457
  49   2.0000      -0.500565       -13.6211
  50   2.0000      -0.494720       -13.4620
  51   2.0000      -0.477493       -12.9932
  52   2.0000      -0.471647       -12.8342
  53   2.0000      -0.469287       -12.7699
  54   2.0000      -0.458103       -12.4656
  55   2.0000      -0.449159       -12.2222
  56   2.0000      -0.446565       -12.1516
  57   2.0000      -0.440119       -11.9763
  58   2.0000      -0.435697       -11.8559
  59   2.0000      -0.425979       -11.5915
  60   2.0000      -0.417949       -11.3730
  61   2.0000      -0.414499       -11.2791
  62   2.0000      -0.406617       -11.0646
  63   2.0000      -0.354915        -9.6577
  64   2.0000      -0.336334        -9.1521
  65   2.0000      -0.325136        -8.8474
  66   2.0000      -0.278199        -7.5702
  67   0.0000       0.018046         0.4911
  68   0.0000       0.074533         2.0281
  69   0.0000       0.093710         2.5500
  70   0.0000       0.124590         3.3903
  71   0.0000       0.138632         3.7724

MULLIKEN ATOMIC CHARGES
-----------------------
   0 S :    0.102582
   1 C :   -0.111175
   2 C :   -0.090528
   3 C :    0.056880
   4 C :   -0.125975
   5 H :   -0.038679
   6 C :    0.080195
   7 H :    0.011983
   8 H :    0.018580
   9 C :   -0.060621
  10 H :    0.018794
  11 H :    0.020451
  12 C :   -0.045828
  13 H :    0.033293
  14 H :    0.025727
  15 H :    0.039271
  16 S :    0.102111
  17 C :   -0.117213
  18 C :   -0.047173
  19 C :   -0.080546
  20 C :   -0.118949
  21 H :    0.050949
  22 C :    0.056544
  23 H :    0.033909
  24 H :    0.016654
  25 C :   -0.088468
  26 H :    0.039297
  27 H :    0.031892
  28 C :    0.010643
  29 H :    0.020973
  30 H :    0.019597
  31 H :    0.019699
  32 H :    0.044910
  33 H :    0.070222
Sum of atomic charges:   -0.0000000

LOEWDIN ATOMIC CHARGES
----------------------
   0 S :    0.418135
   1 C :   -0.206312
   2 C :   -0.059453
   3 C :   -0.054945
   4 C :   -0.182634
   5 H :    0.012967
   6 C :   -0.031562
   7 H :    0.029591
   8 H :    0.026797
   9 C :   -0.037695
  10 H :    0.020398
  11 H :    0.021120
  12 C :   -0.061539
  13 H :    0.017957
  14 H :    0.025758
  15 H :    0.034825
  16 S :    0.390889
  17 C :   -0.183050
  18 C :   -0.082452
  19 C :   -0.066407
  20 C :   -0.197426
  21 H :    0.047496
  22 C :   -0.042004
  23 H :    0.035000
  24 H :    0.036466
  25 C :   -0.036937
  26 H :    0.017813
  27 H :    0.025910
  28 C :   -0.052556
  29 H :    0.027044
  30 H :    0.022833
  31 H :    0.017969
  32 H :    0.026334
  33 H :    0.039670

  Mayer bond orders larger than 0.100000
B(  0-S ,  1-C ) :   1.1479 B(  0-S ,  4-C ) :   1.1615 B(  1-C ,  2-C ) :   1.5880
B(  1-C , 32-H ) :   0.9711 B(  2-C ,  3-C ) :   1.2404 B(  2-C ,  6-C ) :   1.0399
B(  3-C ,  4-C ) :   1.5303 B(  3-C ,  5-H ) :   1.0032 B(  4-C , 20-C ) :   1.0627
B(  6-C ,  7-H ) :   0.9356 B(  6-C ,  8-H ) :   0.9373 B(  6-C ,  9-C ) :   1.0629
B(  9-C , 10-H ) :   0.9548 B(  9-C , 11-H ) :   0.9542 B(  9-C , 12-C ) :   1.0924
B( 12-C , 13-H ) :   0.9756 B( 12-C , 14-H ) :   0.9730 B( 12-C , 15-H ) :   0.9738
B( 16-S , 17-C ) :   1.1326 B( 16-S , 20-C ) :   1.1460 B( 17-C , 18-C ) :   1.6312
B( 17-C , 20-C ) :   0.1045 B( 17-C , 33-H ) :   0.9613 B( 18-C , 19-C ) :   1.2609
B( 18-C , 21-H ) :   0.9630 B( 19-C , 20-C ) :   1.5670 B( 19-C , 22-C ) :   1.0538
B( 22-C , 23-H ) :   0.9332 B( 22-C , 24-H ) :   0.9350 B( 22-C , 25-C ) :   1.0392
B( 25-C , 26-H ) :   0.9504 B( 25-C , 27-H ) :   0.9566 B( 25-C , 28-C ) :   1.0904
B( 28-C , 29-H ) :   0.9675 B( 28-C , 30-H ) :   0.9714 B( 28-C , 31-H ) :   0.9728

Dispersion correction           -0.014278507
FINAL SINGLE POINT ENERGY     -1339.858678622344

DIPOLE MOMENT
-------------
                                X             Y             Z
Electronic contribution:     -5.63486      29.29871      -3.38163
Nuclear contribution   :      5.59114     -29.89933       3.59233
                        -----------------------------------------
Total Dipole Moment    :     -0.04372      -0.60062       0.21070
                        -----------------------------------------
Magnitude (a.u.)       :      0.63801
Magnitude (Debye)      :      1.62169

Rotational constants in cm-1:     0.019333     0.008847     0.006522
Rotational constants in MHz :   579.578240   265.220455   195.519490

                             ****ORCA TERMINATED NORMALLY****
TOTAL RUN TIME: 0 days 0 hours 0 minutes 22 seconds 173 msec
