                         Program Version 4.2.1 -  RELEASE  -
|  1> ! wB97X-D3 SP def2-SVP
|  2> %pal
|  3> nprocs 24
|  4> end
|  5>
|  6> * xyz 0 1
|  7> S 	 40.3462 	 -22.9416 	 -124.378
|  8> C 	 38.7271 	 -22.4067 	 -124.173
|  9> C 	 37.9557 	 -23.4444 	 -123.742
| 10> C 	 38.7439 	 -24.5338 	 -123.232
| 11> C 	 40.0865 	 -24.4993 	 -123.486
| 12> H 	 38.4278 	 -25.4415 	 -122.696
| 13> C 	 36.3886 	 -23.4695 	 -123.556
| 14> H 	 36.3361 	 -23.3511 	 -122.512
| 15> H 	 36.0488 	 -24.5027 	 -123.786
| 16> C 	 35.3726 	 -22.5669 	 -124.204
| 17> H 	 35.4843 	 -22.4115 	 -125.279
| 18> H 	 34.4119 	 -22.9192 	 -123.922
| 19> C 	 35.3632 	 -21.0964 	 -123.714
| 20> H 	 36.2238 	 -20.5487 	 -124.049
| 21> H 	 34.5915 	 -20.5296 	 -124.22
| 22> H 	 35.1694 	 -20.9412 	 -122.651
| 23> S 	 42.7853 	 -25.0986 	 -123.247
| 24> C 	 43.3139 	 -26.7389 	 -123.442
| 25> C 	 42.2201 	 -27.6201 	 -123.333
| 26> C 	 41.0229 	 -26.9343 	 -123.26
| 27> C 	 41.0901 	 -25.5355 	 -123.382
| 28> H 	 42.4233 	 -28.685 	 -123.305
| 29> C 	 39.7552 	 -27.7628 	 -123.123
| 30> H 	 39.293 	 -27.3868 	 -122.186
| 31> H 	 39.913 	 -28.851 	 -122.81
| 32> C 	 38.7551 	 -27.7687 	 -124.333
| 33> H 	 39.0847 	 -28.5453 	 -124.972
| 34> H 	 38.871 	 -26.82 	 -124.876
| 35> C 	 37.2767 	 -27.831 	 -123.984
| 36> H 	 36.8448 	 -26.849 	 -123.801
| 37> H 	 37.156 	 -28.5025 	 -123.114
| 38> H 	 36.8279 	 -28.3914 	 -124.861
| 39> H 	 38.3427 	 -21.4537 	 -124.661
| 40> H 	 44.3734 	 -27.0165 	 -123.422
| 41> *
| 42>
| 43>                          ****END OF INPUT****

CARTESIAN COORDINATES (ANGSTROEM)
---------------------------------
  S     40.346200  -22.941600  -124.378000
  C     38.727100  -22.406700  -124.173000
  C     37.955700  -23.444400  -123.742000
  C     38.743900  -24.533800  -123.232000
  C     40.086500  -24.499300  -123.486000
  H     38.427800  -25.441500  -122.696000
  C     36.388600  -23.469500  -123.556000
  H     36.336100  -23.351100  -122.512000
  H     36.048800  -24.502700  -123.786000
  C     35.372600  -22.566900  -124.204000
  H     35.484300  -22.411500  -125.279000
  H     34.411900  -22.919200  -123.922000
  C     35.363200  -21.096400  -123.714000
  H     36.223800  -20.548700  -124.049000
  H     34.591500  -20.529600  -124.220000
  H     35.169400  -20.941200  -122.651000
  S     42.785300  -25.098600  -123.247000
  C     43.313900  -26.738900  -123.442000
  C     42.220100  -27.620100  -123.333000
  C     41.022900  -26.934300  -123.260000
  C     41.090100  -25.535500  -123.382000
  H     42.423300  -28.685000  -123.305000
  C     39.755200  -27.762800  -123.123000
  H     39.293000  -27.386800  -122.186000
  H     39.913000  -28.851000  -122.810000
  C     38.755100  -27.768700  -124.333000
  H     39.084700  -28.545300  -124.972000
  H     38.871000  -26.820000  -124.876000
  C     37.276700  -27.831000  -123.984000
  H     36.844800  -26.849000  -123.801000
  H     37.156000  -28.502500  -123.114000
  H     36.827900  -28.391400  -124.861000
  H     38.342700  -21.453700  -124.661000
  H     44.373400  -27.016500  -123.422000

 Total Charge           Charge          ....    0
 Multiplicity           Mult            ....    1
 Number of Electrons    NEL             ....  134
 Basis Dimension        Dim             ....  322

ORBITAL ENERGIES
----------------

  NO   OCC          E(Eh)            E(eV)
   0   2.0000     -88.968773     -2420.9634
   1   2.0000     -88.958787     -2420.6917
   2   2.0000     -10.334441      -281.2144
   3   2.0000     -10.332204      -281.1536
   4   2.0000     -10.321724      -280.8684
   5   2.0000     -10.316844      -280.7356
   6   2.0000     -10.307675      -280.4861
   7   2.0000     -10.306199      -280.4459
   8   2.0000     -10.298927      -280.2480
   9   2.0000     -10.295303      -280.1494
  10   2.0000     -10.295250      -280.1480
  11   2.0000     -10.295091      -280.1437
  12   2.0000     -10.289058      -279.9795
  13   2.0000     -10.284291      -279.8498
  14   2.0000     -10.282110      -279.7904
  15   2.0000     -10.275542      -279.6117
  16   2.0000      -8.083485      -219.9628
  17   2.0000      -8.073583      -219.6934
  18   2.0000      -6.041867      -164.4075
  19   2.0000      -6.037915      -164.3000
  20   2.0000      -6.034460      -164.2060
  21   2.0000      -6.032276      -164.1466
  22   2.0000      -6.028122      -164.0335
  23   2.0000      -6.024061      -163.9230
  24   2.0000      -1.008844       -27.4520
  25   2.0000      -0.987931       -26.8830
  26   2.0000      -0.910887       -24.7865
  27   2.0000      -0.905625       -24.6433
  28   2.0000      -0.874562       -23.7980
  29   2.0000      -0.856122       -23.2963
  30   2.0000      -0.845378       -23.0039
  31   2.0000      -0.814628       -22.1671
  32   2.0000      -0.785249       -21.3677
  33   2.0000      -0.772238       -21.0137
  34   2.0000      -0.706224       -19.2173
  35   2.0000      -0.704037       -19.1578
  36   2.0000      -0.690167       -18.7804
  37   2.0000      -0.667733       -18.1699
  38   2.0000      -0.638152       -17.3650
  39   2.0000      -0.612845       -16.6764
  40   2.0000      -0.595121       -16.1941
  41   2.0000      -0.579967       -15.7817
  42   2.0000      -0.563782       -15.3413
  43   2.0000      -0.550666       -14.9844
  44   2.0000      -0.546435       -14.8693
  45   2.0000      -0.522388       -14.2149
  46   2.0000      -0.515533       -14.0284
  47   2.0000      -0.513498       -13.9730
  48   2.0000      -0.505261       -13.7488
  49   2.0000      -0.503860       -13.7107
  50   2.0000      -0.492305       -13.3963
  51   2.0000      -0.489126       -13.3098
  52   2.0000      -0.482974       -13.1424
  53   2.0000      -0.467778       -12.7289
  54   2.0000      -0.464574       -12.6417
  55   2.0000      -0.441159       -12.0045
  56   2.0000      -0.436995       -11.8912
  57   2.0000      -0.431157       -11.7324
  58   2.0000      -0.428658       -11.6644
  59   2.0000      -0.426465       -11.6047
  60   2.0000      -0.417226       -11.3533
  61   2.0000      -0.412188       -11.2162
  62   2.0000      -0.404872       -11.0171
  63   2.0000      -0.361208        -9.8290
  64   2.0000      -0.334565        -9.1040
  65   2.0000      -0.323937        -8.8148
  66   2.0000      -0.283617        -7.7176
  67   0.0000       0.014465         0.3936
  68   0.0000       0.083606         2.2750
  69   0.0000       0.103738         2.8229
  70   0.0000       0.114902         3.1266
  71   0.0000       0.127986         3.4827

MULLIKEN ATOMIC CHARGES
-----------------------
   0 S :    0.079542
   1 C :   -0.140533
   2 C :   -0.068085
   3 C :   -0.040623
   4 C :   -0.087236
   5 H :    0.006518
   6 C :    0.043818
   7 H :    0.030611
   8 H :    0.040113
   9 C :   -0.025101
  10 H :    0.036093
  11 H :    0.023862
  12 C :   -0.074325
  13 H :    0.016019
  14 H :    0.020816
  15 H :    0.035379
  16 S :    0.114409
  17 C :   -0.104778
  18 C :   -0.045100
  19 C :   -0.009061
  20 C :   -0.140671
  21 H :    0.024441
  22 C :   -0.025749
  23 H :    0.037433
  24 H :    0.030396
  25 C :   -0.058332
  26 H :    0.026418
  27 H :    0.046636
  28 C :   -0.066490
  29 H :    0.045459
  30 H :    0.031552
  31 H :    0.044748
  32 H :    0.083517
  33 H :    0.068305
Sum of atomic charges:   -0.0000000

LOEWDIN ATOMIC CHARGES
----------------------
   0 S :    0.378816
   1 C :   -0.216394
   2 C :   -0.063692
   3 C :   -0.074106
   4 C :   -0.169424
   5 H :    0.033155
   6 C :   -0.032804
   7 H :    0.031188
   8 H :    0.035173
   9 C :   -0.036635
  10 H :    0.029949
  11 H :    0.027717
  12 C :   -0.069964
  13 H :    0.016937
  14 H :    0.025472
  15 H :    0.023629
  16 S :    0.425180
  17 C :   -0.188310
  18 C :   -0.073583
  19 C :   -0.055621
  20 C :   -0.202913
  21 H :    0.036384
  22 C :   -0.044931
  23 H :    0.027528
  24 H :    0.035886
  25 C :   -0.043744
  26 H :    0.019905
  27 H :    0.030142
  28 C :   -0.067933
  29 H :    0.022286
  30 H :    0.023957
  31 H :    0.039049
  32 H :    0.045425
  33 H :    0.032276

  Mayer bond orders larger than 0.100000
B(  0-S ,  1-C ) :   1.1316 B(  0-S ,  4-C ) :   1.1191 B(  1-C ,  2-C ) :   1.6283
B(  1-C , 32-H ) :   0.9529 B(  2-C ,  3-C ) :   1.2193 B(  2-C ,  6-C ) :   0.9847
B(  3-C ,  4-C ) :   1.6040 B(  3-C ,  5-H ) :   0.9859 B(  4-C , 20-C ) :   1.0959
B(  6-C ,  7-H ) :   0.9406 B(  6-C ,  8-H ) :   0.9466 B(  6-C ,  9-C ) :   1.0823
B(  9-C , 10-H ) :   0.9578 B(  9-C , 11-H ) :   0.9459 B(  9-C , 12-C ) :   1.0821
B( 12-C , 13-H ) :   0.9767 B( 12-C , 14-H ) :   0.9709 B( 12-C , 15-H ) :   0.9742
B( 16-S , 17-C ) :   1.1931 B( 16-S , 20-C ) :   1.1489 B( 17-C , 18-C ) :   1.5280
B( 17-C , 20-C ) :   0.1177 B( 17-C , 33-H ) :   0.9668 B( 18-C , 19-C ) :   1.3135
B( 18-C , 21-H ) :   0.9986 B( 19-C , 20-C ) :   1.5081 B( 19-C , 22-C ) :   1.0266
B( 22-C , 23-H ) :   0.9407 B( 22-C , 24-H ) :   0.9390 B( 22-C , 25-C ) :   1.0384
B( 25-C , 26-H ) :   0.9595 B( 25-C , 27-H ) :   0.9629 B( 25-C , 28-C ) :   1.0688
B( 28-C , 29-H ) :   0.9737 B( 28-C , 30-H ) :   0.9756 B( 28-C , 31-H ) :   0.9714

Dispersion correction           -0.014966271
FINAL SINGLE POINT ENERGY     -1339.856021004847

DIPOLE MOMENT
-------------
                                X             Y             Z
Electronic contribution:     29.99005       4.74284       0.67511
Nuclear contribution   :    -30.56586      -5.23575      -0.63876
                        -----------------------------------------
Total Dipole Moment    :     -0.57581      -0.49291       0.03635
                        -----------------------------------------
Magnitude (a.u.)       :      0.75884
Magnitude (Debye)      :      1.92882

Rotational constants in cm-1:     0.022142     0.008444     0.006343
Rotational constants in MHz :   663.805538   253.141894   190.152907

                             ****ORCA TERMINATED NORMALLY****
TOTAL RUN TIME: 0 days 0 hours 0 minutes 22 seconds 233 msec
