                         Program Version 4.2.1 -  RELEASE  -
|  1> ! wB97X-D3 SP def2-SVP
|  2> %pal
|  3> nprocs 24
|  4> end
|  5>
|  6> * xyz 0 1
|  7> S 	 -107.972 	 37.3177 	 -17.6596
|  8> C 	 -107.434 	 35.9941 	 -16.5834
|  9> C 	 -106.624 	 35.0205 	 -17.2504
| 10> C 	 -106.41 	 35.4023 	 -18.6173
| 11> C 	 -107.089 	 36.5692 	 -18.9871
| 12> H 	 -105.782 	 34.7423 	 -19.1975
| 13> C 	 -106.223 	 33.7152 	 -16.6298
| 14> H 	 -106.368 	 33.7284 	 -15.5642
| 15> H 	 -105.112 	 33.5999 	 -16.6702
| 16> C 	 -106.915 	 32.4799 	 -17.2125
| 17> H 	 -107.962 	 32.4477 	 -16.8245
| 18> H 	 -107.034 	 32.5324 	 -18.3052
| 19> C 	 -106.179 	 31.1934 	 -16.9136
| 20> H 	 -106.744 	 30.3393 	 -17.3158
| 21> H 	 -105.202 	 31.1386 	 -17.3884
| 22> H 	 -105.979 	 31.0467 	 -15.8561
| 23> S 	 -106.723 	 38.8576 	 -20.4073
| 24> C 	 -106.681 	 38.7605 	 -22.1853
| 25> C 	 -106.744 	 37.4868 	 -22.611
| 26> C 	 -106.899 	 36.5487 	 -21.5572
| 27> C 	 -106.968 	 37.1511 	 -20.312
| 28> H 	 -106.575 	 37.3415 	 -23.67
| 29> C 	 -107.361 	 35.129 	 -21.8522
| 30> H 	 -108.264 	 35.2339 	 -22.4579
| 31> H 	 -107.626 	 34.5894 	 -20.9236
| 32> C 	 -106.172 	 34.3741 	 -22.5418
| 33> H 	 -105.445 	 34.3615 	 -21.807
| 34> H 	 -105.821 	 34.7721 	 -23.4924
| 35> C 	 -106.41 	 32.9773 	 -23.0135
| 36> H 	 -105.574 	 32.5578 	 -23.5215
| 37> H 	 -107.292 	 32.7484 	 -23.594
| 38> H 	 -106.572 	 32.323 	 -22.1745
| 39> H 	 -107.833 	 35.9483 	 -15.6259
| 40> H 	 -106.614 	 39.5571 	 -22.8839
| 41> *
| 42>
| 43>                          ****END OF INPUT****

CARTESIAN COORDINATES (ANGSTROEM)
---------------------------------
  S    -107.972000   37.317700  -17.659600
  C    -107.434000   35.994100  -16.583400
  C    -106.624000   35.020500  -17.250400
  C    -106.410000   35.402300  -18.617300
  C    -107.089000   36.569200  -18.987100
  H    -105.782000   34.742300  -19.197500
  C    -106.223000   33.715200  -16.629800
  H    -106.368000   33.728400  -15.564200
  H    -105.112000   33.599900  -16.670200
  C    -106.915000   32.479900  -17.212500
  H    -107.962000   32.447700  -16.824500
  H    -107.034000   32.532400  -18.305200
  C    -106.179000   31.193400  -16.913600
  H    -106.744000   30.339300  -17.315800
  H    -105.202000   31.138600  -17.388400
  H    -105.979000   31.046700  -15.856100
  S    -106.723000   38.857600  -20.407300
  C    -106.681000   38.760500  -22.185300
  C    -106.744000   37.486800  -22.611000
  C    -106.899000   36.548700  -21.557200
  C    -106.968000   37.151100  -20.312000
  H    -106.575000   37.341500  -23.670000
  C    -107.361000   35.129000  -21.852200
  H    -108.264000   35.233900  -22.457900
  H    -107.626000   34.589400  -20.923600
  C    -106.172000   34.374100  -22.541800
  H    -105.445000   34.361500  -21.807000
  H    -105.821000   34.772100  -23.492400
  C    -106.410000   32.977300  -23.013500
  H    -105.574000   32.557800  -23.521500
  H    -107.292000   32.748400  -23.594000
  H    -106.572000   32.323000  -22.174500
  H    -107.833000   35.948300  -15.625900
  H    -106.614000   39.557100  -22.883900

 Total Charge           Charge          ....    0
 Multiplicity           Mult            ....    1
 Number of Electrons    NEL             ....  134
 Basis Dimension        Dim             ....  322

ORBITAL ENERGIES
----------------

  NO   OCC          E(Eh)            E(eV)
   0   2.0000     -88.972417     -2421.0625
   1   2.0000     -88.962189     -2420.7842
   2   2.0000     -10.334379      -281.2127
   3   2.0000     -10.322399      -280.8868
   4   2.0000     -10.317553      -280.7549
   5   2.0000     -10.310546      -280.5642
   6   2.0000     -10.308171      -280.4996
   7   2.0000     -10.298465      -280.2355
   8   2.0000     -10.297842      -280.2185
   9   2.0000     -10.295491      -280.1546
  10   2.0000     -10.293569      -280.1022
  11   2.0000     -10.291778      -280.0535
  12   2.0000     -10.287676      -279.9419
  13   2.0000     -10.279811      -279.7279
  14   2.0000     -10.279502      -279.7195
  15   2.0000     -10.266853      -279.3753
  16   2.0000      -8.086111      -220.0343
  17   2.0000      -8.077137      -219.7901
  18   2.0000      -6.044614      -164.4823
  19   2.0000      -6.040845      -164.3798
  20   2.0000      -6.036876      -164.2718
  21   2.0000      -6.035684      -164.2393
  22   2.0000      -6.031737      -164.1319
  23   2.0000      -6.027727      -164.0228
  24   2.0000      -1.005967       -27.3738
  25   2.0000      -0.978769       -26.6337
  26   2.0000      -0.915548       -24.9133
  27   2.0000      -0.909206       -24.7408
  28   2.0000      -0.871586       -23.7171
  29   2.0000      -0.855844       -23.2887
  30   2.0000      -0.849457       -23.1149
  31   2.0000      -0.817256       -22.2387
  32   2.0000      -0.782435       -21.2911
  33   2.0000      -0.769311       -20.9340
  34   2.0000      -0.708949       -19.2915
  35   2.0000      -0.700265       -19.0552
  36   2.0000      -0.698547       -19.0084
  37   2.0000      -0.660096       -17.9621
  38   2.0000      -0.640669       -17.4335
  39   2.0000      -0.629703       -17.1351
  40   2.0000      -0.592727       -16.1289
  41   2.0000      -0.573416       -15.6034
  42   2.0000      -0.566681       -15.4202
  43   2.0000      -0.559893       -15.2355
  44   2.0000      -0.531781       -14.4705
  45   2.0000      -0.530549       -14.4370
  46   2.0000      -0.524098       -14.2614
  47   2.0000      -0.508840       -13.8462
  48   2.0000      -0.501354       -13.6425
  49   2.0000      -0.498225       -13.5574
  50   2.0000      -0.493550       -13.4302
  51   2.0000      -0.485366       -13.2075
  52   2.0000      -0.466784       -12.7018
  53   2.0000      -0.462674       -12.5900
  54   2.0000      -0.458405       -12.4738
  55   2.0000      -0.454634       -12.3712
  56   2.0000      -0.447716       -12.1830
  57   2.0000      -0.441993       -12.0272
  58   2.0000      -0.432105       -11.7582
  59   2.0000      -0.426404       -11.6030
  60   2.0000      -0.420747       -11.4491
  61   2.0000      -0.416470       -11.3327
  62   2.0000      -0.411558       -11.1991
  63   2.0000      -0.351731        -9.5711
  64   2.0000      -0.333415        -9.0727
  65   2.0000      -0.328617        -8.9421
  66   2.0000      -0.285181        -7.7602
  67   0.0000       0.024661         0.6711
  68   0.0000       0.077156         2.0995
  69   0.0000       0.101876         2.7722
  70   0.0000       0.117369         3.1938
  71   0.0000       0.120952         3.2913

MULLIKEN ATOMIC CHARGES
-----------------------
   0 S :    0.113069
   1 C :   -0.111885
   2 C :   -0.080470
   3 C :    0.022992
   4 C :   -0.133795
   5 H :    0.008018
   6 C :    0.061547
   7 H :    0.014367
   8 H :    0.031383
   9 C :   -0.081340
  10 H :    0.037476
  11 H :    0.029712
  12 C :   -0.047981
  13 H :    0.037312
  14 H :    0.027760
  15 H :    0.029569
  16 S :    0.094668
  17 C :   -0.075012
  18 C :   -0.032418
  19 C :   -0.030537
  20 C :   -0.129839
  21 H :    0.022287
  22 C :    0.046633
  23 H :    0.040376
  24 H :    0.032492
  25 C :   -0.065650
  26 H :    0.011820
  27 H :    0.031079
  28 C :   -0.014020
  29 H :    0.024245
  30 H :    0.022333
  31 H :   -0.001271
  32 H :    0.028864
  33 H :    0.036217
Sum of atomic charges:   -0.0000000

LOEWDIN ATOMIC CHARGES
----------------------
   0 S :    0.392743
   1 C :   -0.177689
   2 C :   -0.051940
   3 C :   -0.057552
   4 C :   -0.188593
   5 H :    0.029963
   6 C :   -0.038839
   7 H :    0.029599
   8 H :    0.034964
   9 C :   -0.043242
  10 H :    0.030889
  11 H :    0.023547
  12 C :   -0.067137
  13 H :    0.030545
  14 H :    0.024292
  15 H :    0.022937
  16 S :    0.392051
  17 C :   -0.167736
  18 C :   -0.067460
  19 C :   -0.064077
  20 C :   -0.199305
  21 H :    0.035540
  22 C :   -0.021681
  23 H :    0.031807
  24 H :    0.030622
  25 C :   -0.035642
  26 H :    0.015673
  27 H :    0.026810
  28 C :   -0.067979
  29 H :    0.023199
  30 H :    0.023982
  31 H :    0.016580
  32 H :    0.009337
  33 H :    0.023793

  Mayer bond orders larger than 0.100000
B(  0-S ,  1-C ) :   1.1332 B(  0-S ,  4-C ) :   1.1553 B(  1-C ,  2-C ) :   1.5810
B(  1-C ,  4-C ) :   0.1006 B(  1-C , 32-H ) :   0.9774 B(  2-C ,  3-C ) :   1.2670
B(  2-C ,  6-C ) :   1.0411 B(  3-C ,  4-C ) :   1.5301 B(  3-C ,  5-H ) :   0.9920
B(  4-C , 20-C ) :   1.0555 B(  6-C ,  7-H ) :   0.9341 B(  6-C ,  8-H ) :   0.9392
B(  6-C ,  9-C ) :   1.0474 B(  9-C , 10-H ) :   0.9516 B(  9-C , 11-H ) :   0.9607
B(  9-C , 12-C ) :   1.0857 B( 12-C , 13-H ) :   0.9717 B( 12-C , 14-H ) :   0.9728
B( 12-C , 15-H ) :   0.9745 B( 16-S , 17-C ) :   1.1236 B( 16-S , 20-C ) :   1.1366
B( 17-C , 18-C ) :   1.6703 B( 17-C , 33-H ) :   0.9676 B( 18-C , 19-C ) :   1.2071
B( 18-C , 21-H ) :   0.9872 B( 19-C , 20-C ) :   1.6029 B( 19-C , 22-C ) :   1.0426
B( 22-C , 23-H ) :   0.9457 B( 22-C , 24-H ) :   0.9395 B( 22-C , 25-C ) :   1.0463
B( 25-C , 26-H ) :   0.9553 B( 25-C , 27-H ) :   0.9640 B( 25-C , 28-C ) :   1.0890
B( 28-C , 29-H ) :   0.9730 B( 28-C , 30-H ) :   0.9709 B( 28-C , 31-H ) :   0.9645

Dispersion correction           -0.014107256
FINAL SINGLE POINT ENERGY     -1339.875814074257

DIPOLE MOMENT
-------------
                                X             Y             Z
Electronic contribution:     -5.42391      33.29273       4.68643
Nuclear contribution   :      5.51518     -34.01771      -4.86015
                        -----------------------------------------
Total Dipole Moment    :      0.09128      -0.72498      -0.17371
                        -----------------------------------------
Magnitude (a.u.)       :      0.75107
Magnitude (Debye)      :      1.90907

Rotational constants in cm-1:     0.016430     0.009808     0.006430
Rotational constants in MHz :   492.561017   294.040559   192.752605

                             ****ORCA TERMINATED NORMALLY****
TOTAL RUN TIME: 0 days 0 hours 0 minutes 22 seconds 7 msec
