                         Program Version 4.2.1 -  RELEASE  -
|  1> ! wB97X-D3 SP def2-SVP
|  2> %pal
|  3> nprocs 24
|  4> end
|  5>
|  6> * xyz 0 1
|  7> S 	 21.1199 	 -7.38275 	 -111.343
|  8> C 	 21.2436 	 -8.39264 	 -109.885
|  9> C 	 20.5994 	 -9.57297 	 -109.994
| 10> C 	 19.7716 	 -9.51808 	 -111.142
| 11> C 	 19.7515 	 -8.37257 	 -111.901
| 12> H 	 19.1204 	 -10.3036 	 -111.432
| 13> C 	 20.6066 	 -10.7121 	 -108.997
| 14> H 	 19.7281 	 -11.3734 	 -109.309
| 15> H 	 20.2675 	 -10.3001 	 -108.063
| 16> C 	 21.913 	 -11.5539 	 -108.96
| 17> H 	 22.743 	 -11.0184 	 -108.564
| 18> H 	 21.5872 	 -12.2949 	 -108.249
| 19> C 	 22.3812 	 -12.327 	 -110.276
| 20> H 	 23.2866 	 -12.8099 	 -110.226
| 21> H 	 21.7611 	 -13.1855 	 -110.453
| 22> H 	 22.4295 	 -11.7164 	 -111.17
| 23> S 	 20.0407 	 -8.04134 	 -114.681
| 24> C 	 18.5636 	 -8.14151 	 -115.606
| 25> C 	 17.4718 	 -8.16932 	 -114.837
| 26> C 	 17.758 	 -8.05667 	 -113.452
| 27> C 	 19.1103 	 -8.17375 	 -113.204
| 28> H 	 16.4952 	 -8.15384 	 -115.355
| 29> C 	 16.7456 	 -7.93606 	 -112.35
| 30> H 	 17.2498 	 -7.64225 	 -111.463
| 31> H 	 16.2458 	 -8.82584 	 -112.208
| 32> C 	 15.6515 	 -6.94004 	 -112.626
| 33> H 	 15.1333 	 -7.14012 	 -113.575
| 34> H 	 16.1078 	 -5.94373 	 -112.662
| 35> C 	 14.5334 	 -6.95082 	 -111.52
| 36> H 	 14.0728 	 -5.95326 	 -111.336
| 37> H 	 14.9092 	 -7.20929 	 -110.533
| 38> H 	 13.8258 	 -7.73842 	 -111.685
| 39> H 	 21.9124 	 -8.01573 	 -109.104
| 40> H 	 18.4804 	 -8.08352 	 -116.645
| 41> *
| 42>
| 43>                          ****END OF INPUT****

CARTESIAN COORDINATES (ANGSTROEM)
---------------------------------
  S     21.119900   -7.382750  -111.343000
  C     21.243600   -8.392640  -109.885000
  C     20.599400   -9.572970  -109.994000
  C     19.771600   -9.518080  -111.142000
  C     19.751500   -8.372570  -111.901000
  H     19.120400  -10.303600  -111.432000
  C     20.606600  -10.712100  -108.997000
  H     19.728100  -11.373400  -109.309000
  H     20.267500  -10.300100  -108.063000
  C     21.913000  -11.553900  -108.960000
  H     22.743000  -11.018400  -108.564000
  H     21.587200  -12.294900  -108.249000
  C     22.381200  -12.327000  -110.276000
  H     23.286600  -12.809900  -110.226000
  H     21.761100  -13.185500  -110.453000
  H     22.429500  -11.716400  -111.170000
  S     20.040700   -8.041340  -114.681000
  C     18.563600   -8.141510  -115.606000
  C     17.471800   -8.169320  -114.837000
  C     17.758000   -8.056670  -113.452000
  C     19.110300   -8.173750  -113.204000
  H     16.495200   -8.153840  -115.355000
  C     16.745600   -7.936060  -112.350000
  H     17.249800   -7.642250  -111.463000
  H     16.245800   -8.825840  -112.208000
  C     15.651500   -6.940040  -112.626000
  H     15.133300   -7.140120  -113.575000
  H     16.107800   -5.943730  -112.662000
  C     14.533400   -6.950820  -111.520000
  H     14.072800   -5.953260  -111.336000
  H     14.909200   -7.209290  -110.533000
  H     13.825800   -7.738420  -111.685000
  H     21.912400   -8.015730  -109.104000
  H     18.480400   -8.083520  -116.645000

 Total Charge           Charge          ....    0
 Multiplicity           Mult            ....    1
 Number of Electrons    NEL             ....  134
 Basis Dimension        Dim             ....  322

ORBITAL ENERGIES
----------------

  NO   OCC          E(Eh)            E(eV)
   0   2.0000     -88.962448     -2420.7913
   1   2.0000     -88.958717     -2420.6898
   2   2.0000     -10.326430      -280.9965
   3   2.0000     -10.321867      -280.8723
   4   2.0000     -10.314469      -280.6710
   5   2.0000     -10.306395      -280.4513
   6   2.0000     -10.302020      -280.3322
   7   2.0000     -10.296629      -280.1855
   8   2.0000     -10.296550      -280.1834
   9   2.0000     -10.292858      -280.0829
  10   2.0000     -10.289356      -279.9876
  11   2.0000     -10.287885      -279.9476
  12   2.0000     -10.284637      -279.8592
  13   2.0000     -10.277234      -279.6578
  14   2.0000     -10.275075      -279.5990
  15   2.0000     -10.272928      -279.5406
  16   2.0000      -8.077493      -219.7998
  17   2.0000      -8.073262      -219.6846
  18   2.0000      -6.036042      -164.2490
  19   2.0000      -6.032147      -164.1431
  20   2.0000      -6.031765      -164.1327
  21   2.0000      -6.028025      -164.0309
  22   2.0000      -6.028005      -164.0303
  23   2.0000      -6.023822      -163.9165
  24   2.0000      -1.007511       -27.4158
  25   2.0000      -0.987230       -26.8639
  26   2.0000      -0.912177       -24.8216
  27   2.0000      -0.906507       -24.6673
  28   2.0000      -0.868929       -23.6448
  29   2.0000      -0.846666       -23.0390
  30   2.0000      -0.841741       -22.9049
  31   2.0000      -0.817141       -22.2355
  32   2.0000      -0.789124       -21.4731
  33   2.0000      -0.775039       -21.0899
  34   2.0000      -0.711773       -19.3683
  35   2.0000      -0.702206       -19.1080
  36   2.0000      -0.699881       -19.0447
  37   2.0000      -0.651293       -17.7226
  38   2.0000      -0.642728       -17.4895
  39   2.0000      -0.616580       -16.7780
  40   2.0000      -0.600039       -16.3279
  41   2.0000      -0.576410       -15.6849
  42   2.0000      -0.573106       -15.5950
  43   2.0000      -0.549376       -14.9493
  44   2.0000      -0.536673       -14.6036
  45   2.0000      -0.518282       -14.1032
  46   2.0000      -0.517224       -14.0744
  47   2.0000      -0.508518       -13.8375
  48   2.0000      -0.503286       -13.6951
  49   2.0000      -0.494923       -13.4675
  50   2.0000      -0.488780       -13.3004
  51   2.0000      -0.475575       -12.9410
  52   2.0000      -0.470514       -12.8033
  53   2.0000      -0.468330       -12.7439
  54   2.0000      -0.458306       -12.4712
  55   2.0000      -0.450613       -12.2618
  56   2.0000      -0.447341       -12.1728
  57   2.0000      -0.438672       -11.9369
  58   2.0000      -0.429110       -11.6767
  59   2.0000      -0.424179       -11.5425
  60   2.0000      -0.422166       -11.4877
  61   2.0000      -0.417275       -11.3546
  62   2.0000      -0.413730       -11.2582
  63   2.0000      -0.343370        -9.3436
  64   2.0000      -0.328929        -8.9506
  65   2.0000      -0.328002        -8.9254
  66   2.0000      -0.295789        -8.0488
  67   0.0000       0.034862         0.9486
  68   0.0000       0.064211         1.7473
  69   0.0000       0.108601         2.9552
  70   0.0000       0.129112         3.5133
  71   0.0000       0.134956         3.6723

MULLIKEN ATOMIC CHARGES
-----------------------
   0 S :    0.074981
   1 C :   -0.155752
   2 C :   -0.037770
   3 C :    0.032765
   4 C :   -0.171254
   5 H :   -0.005402
   6 C :    0.054649
   7 H :    0.026155
   8 H :    0.038473
   9 C :   -0.053783
  10 H :    0.034167
  11 H :    0.030272
  12 C :   -0.024586
  13 H :    0.011386
  14 H :    0.016622
  15 H :    0.045590
  16 S :    0.109906
  17 C :   -0.064118
  18 C :   -0.041948
  19 C :   -0.055060
  20 C :   -0.152662
  21 H :    0.027230
  22 C :    0.165012
  23 H :    0.024895
  24 H :    0.003813
  25 C :   -0.123366
  26 H :    0.034035
  27 H :    0.034643
  28 C :   -0.044656
  29 H :    0.043635
  30 H :    0.012199
  31 H :    0.027581
  32 H :    0.054053
  33 H :    0.028295
Sum of atomic charges:    0.0000000

LOEWDIN ATOMIC CHARGES
----------------------
   0 S :    0.365524
   1 C :   -0.169935
   2 C :   -0.075423
   3 C :   -0.049767
   4 C :   -0.187723
   5 H :    0.023343
   6 C :   -0.029344
   7 H :    0.037627
   8 H :    0.034348
   9 C :   -0.029200
  10 H :    0.019545
  11 H :    0.027176
  12 C :   -0.061376
  13 H :    0.018304
  14 H :    0.024676
  15 H :    0.029156
  16 S :    0.396903
  17 C :   -0.172354
  18 C :   -0.075934
  19 C :   -0.052953
  20 C :   -0.200077
  21 H :    0.038303
  22 C :   -0.023637
  23 H :    0.030231
  24 H :    0.020524
  25 C :   -0.036326
  26 H :    0.022244
  27 H :    0.025598
  28 C :   -0.070457
  29 H :    0.033036
  30 H :    0.021343
  31 H :    0.021403
  32 H :    0.026074
  33 H :    0.019149

  Mayer bond orders larger than 0.100000
B(  0-S ,  1-C ) :   1.1487 B(  0-S ,  4-C ) :   1.1171 B(  1-C ,  2-C ) :   1.6013
B(  1-C , 32-H ) :   0.9723 B(  2-C ,  3-C ) :   1.2380 B(  2-C ,  6-C ) :   0.9983
B(  3-C ,  4-C ) :   1.5992 B(  3-C ,  5-H ) :   0.9955 B(  4-C , 20-C ) :   1.0394
B(  6-C ,  7-H ) :   0.9435 B(  6-C ,  8-H ) :   0.9428 B(  6-C ,  9-C ) :   1.0577
B(  9-C , 10-H ) :   0.9647 B(  9-C , 11-H ) :   0.9590 B(  9-C , 12-C ) :   1.0670
B( 12-C , 13-H ) :   0.9733 B( 12-C , 14-H ) :   0.9745 B( 12-C , 15-H ) :   0.9783
B( 16-S , 17-C ) :   1.1376 B( 16-S , 20-C ) :   1.1284 B( 17-C , 18-C ) :   1.6615
B( 17-C , 33-H ) :   0.9679 B( 18-C , 19-C ) :   1.2113 B( 18-C , 21-H ) :   0.9833
B( 19-C , 20-C ) :   1.6215 B( 19-C , 22-C ) :   1.0508 B( 22-C , 23-H ) :   0.9185
B( 22-C , 24-H ) :   0.9240 B( 22-C , 25-C ) :   1.0673 B( 25-C , 26-H ) :   0.9572
B( 25-C , 27-H ) :   0.9612 B( 25-C , 28-C ) :   1.0727 B( 28-C , 29-H ) :   0.9774
B( 28-C , 30-H ) :   0.9733 B( 28-C , 31-H ) :   0.9756

Dispersion correction           -0.013801343
FINAL SINGLE POINT ENERGY     -1339.861589803539

DIPOLE MOMENT
-------------
                                X             Y             Z
Electronic contribution:     12.41194      11.06427     -13.58983
Nuclear contribution   :    -12.76613     -11.54776      13.95431
                        -----------------------------------------
Total Dipole Moment    :     -0.35419      -0.48349       0.36448
                        -----------------------------------------
Magnitude (a.u.)       :      0.70147
Magnitude (Debye)      :      1.78299

Rotational constants in cm-1:     0.018926     0.007823     0.006664
Rotational constants in MHz :   567.376008   234.532777   199.790605

                             ****ORCA TERMINATED NORMALLY****
TOTAL RUN TIME: 0 days 0 hours 0 minutes 21 seconds 65 msec
