                         Program Version 4.2.1 -  RELEASE  -
|  1> ! wB97X-D3 SP def2-SVP
|  2> %pal
|  3> nprocs 24
|  4> end
|  5>
|  6> * xyz 0 1
|  7> S 	 -125.851 	 62.4325 	 -54.2757
|  8> C 	 -127.061 	 61.395 	 -55.0139
|  9> C 	 -126.734 	 61.2312 	 -56.3674
| 10> C 	 -125.612 	 62.0508 	 -56.7895
| 11> C 	 -124.976 	 62.5879 	 -55.7236
| 12> H 	 -125.103 	 62.0272 	 -57.7989
| 13> C 	 -127.451 	 60.305 	 -57.283
| 14> H 	 -127.906 	 59.4789 	 -56.7044
| 15> H 	 -126.689 	 59.7317 	 -57.8266
| 16> C 	 -128.272 	 60.978 	 -58.3655
| 17> H 	 -129.091 	 61.4826 	 -57.8055
| 18> H 	 -127.786 	 61.9022 	 -58.7619
| 19> C 	 -128.828 	 60.0977 	 -59.4636
| 20> H 	 -128.094 	 59.4603 	 -59.9465
| 21> H 	 -129.513 	 59.3831 	 -59.1134
| 22> H 	 -129.39 	 60.6637 	 -60.2201
| 23> S 	 -123.628 	 64.9266 	 -55.0588
| 24> C 	 -121.958 	 65.1217 	 -55.4423
| 25> C 	 -121.45 	 63.9312 	 -55.9805
| 26> C 	 -122.465 	 62.9039 	 -56.1757
| 27> C 	 -123.688 	 63.3216 	 -55.6618
| 28> H 	 -120.481 	 63.8042 	 -56.4461
| 29> C 	 -122.146 	 61.6092 	 -56.7505
| 30> H 	 -121.783 	 61.7411 	 -57.8112
| 31> H 	 -123.125 	 61.2086 	 -56.7548
| 32> C 	 -121.103 	 60.7598 	 -55.968
| 33> H 	 -121.331 	 60.9667 	 -54.8959
| 34> H 	 -120.171 	 61.1787 	 -56.2263
| 35> C 	 -121.056 	 59.2595 	 -56.3002
| 36> H 	 -120.726 	 59.1301 	 -57.3206
| 37> H 	 -122.005 	 58.7425 	 -56.1108
| 38> H 	 -120.322 	 58.7639 	 -55.7047
| 39> H 	 -127.838 	 60.866 	 -54.4494
| 40> H 	 -121.34 	 66.0227 	 -55.3507
| 41> *
| 42>
| 43>                          ****END OF INPUT****

CARTESIAN COORDINATES (ANGSTROEM)
---------------------------------
  S    -125.851000   62.432500  -54.275700
  C    -127.061000   61.395000  -55.013900
  C    -126.734000   61.231200  -56.367400
  C    -125.612000   62.050800  -56.789500
  C    -124.976000   62.587900  -55.723600
  H    -125.103000   62.027200  -57.798900
  C    -127.451000   60.305000  -57.283000
  H    -127.906000   59.478900  -56.704400
  H    -126.689000   59.731700  -57.826600
  C    -128.272000   60.978000  -58.365500
  H    -129.091000   61.482600  -57.805500
  H    -127.786000   61.902200  -58.761900
  C    -128.828000   60.097700  -59.463600
  H    -128.094000   59.460300  -59.946500
  H    -129.513000   59.383100  -59.113400
  H    -129.390000   60.663700  -60.220100
  S    -123.628000   64.926600  -55.058800
  C    -121.958000   65.121700  -55.442300
  C    -121.450000   63.931200  -55.980500
  C    -122.465000   62.903900  -56.175700
  C    -123.688000   63.321600  -55.661800
  H    -120.481000   63.804200  -56.446100
  C    -122.146000   61.609200  -56.750500
  H    -121.783000   61.741100  -57.811200
  H    -123.125000   61.208600  -56.754800
  C    -121.103000   60.759800  -55.968000
  H    -121.331000   60.966700  -54.895900
  H    -120.171000   61.178700  -56.226300
  C    -121.056000   59.259500  -56.300200
  H    -120.726000   59.130100  -57.320600
  H    -122.005000   58.742500  -56.110800
  H    -120.322000   58.763900  -55.704700
  H    -127.838000   60.866000  -54.449400
  H    -121.340000   66.022700  -55.350700

 Total Charge           Charge          ....    0
 Multiplicity           Mult            ....    1
 Number of Electrons    NEL             ....  134
 Basis Dimension        Dim             ....  322

ORBITAL ENERGIES
----------------

  NO   OCC          E(Eh)            E(eV)
   0   2.0000     -88.968124     -2420.9457
   1   2.0000     -88.962697     -2420.7981
   2   2.0000     -10.326500      -280.9983
   3   2.0000     -10.323749      -280.9235
   4   2.0000     -10.320043      -280.8226
   5   2.0000     -10.316554      -280.7277
   6   2.0000     -10.305826      -280.4358
   7   2.0000     -10.297922      -280.2207
   8   2.0000     -10.297846      -280.2186
   9   2.0000     -10.293538      -280.1014
  10   2.0000     -10.290673      -280.0235
  11   2.0000     -10.288798      -279.9724
  12   2.0000     -10.285804      -279.8910
  13   2.0000     -10.283755      -279.8352
  14   2.0000     -10.275831      -279.6196
  15   2.0000     -10.274964      -279.5960
  16   2.0000      -8.083571      -219.9652
  17   2.0000      -8.078580      -219.8293
  18   2.0000      -6.042070      -164.4131
  19   2.0000      -6.037876      -164.2990
  20   2.0000      -6.037057      -164.2767
  21   2.0000      -6.034395      -164.2042
  22   2.0000      -6.032834      -164.1617
  23   2.0000      -6.029391      -164.0681
  24   2.0000      -1.013139       -27.5689
  25   2.0000      -0.988239       -26.8913
  26   2.0000      -0.915508       -24.9122
  27   2.0000      -0.913105       -24.8468
  28   2.0000      -0.867764       -23.6130
  29   2.0000      -0.854863       -23.2620
  30   2.0000      -0.846092       -23.0233
  31   2.0000      -0.817859       -22.2551
  32   2.0000      -0.784611       -21.3504
  33   2.0000      -0.771690       -20.9987
  34   2.0000      -0.708810       -19.2877
  35   2.0000      -0.703585       -19.1455
  36   2.0000      -0.692207       -18.8359
  37   2.0000      -0.657670       -17.8961
  38   2.0000      -0.644998       -17.5513
  39   2.0000      -0.617885       -16.8135
  40   2.0000      -0.591323       -16.0907
  41   2.0000      -0.570781       -15.5317
  42   2.0000      -0.566893       -15.4259
  43   2.0000      -0.550514       -14.9802
  44   2.0000      -0.531985       -14.4760
  45   2.0000      -0.522069       -14.2062
  46   2.0000      -0.520239       -14.1564
  47   2.0000      -0.517169       -14.0729
  48   2.0000      -0.507828       -13.8187
  49   2.0000      -0.500328       -13.6146
  50   2.0000      -0.495496       -13.4831
  51   2.0000      -0.481800       -13.1104
  52   2.0000      -0.468253       -12.7418
  53   2.0000      -0.465488       -12.6666
  54   2.0000      -0.456158       -12.4127
  55   2.0000      -0.455211       -12.3869
  56   2.0000      -0.450071       -12.2470
  57   2.0000      -0.443723       -12.0743
  58   2.0000      -0.429911       -11.6985
  59   2.0000      -0.425736       -11.5849
  60   2.0000      -0.420457       -11.4412
  61   2.0000      -0.417617       -11.3639
  62   2.0000      -0.402622       -10.9559
  63   2.0000      -0.344754        -9.3812
  64   2.0000      -0.327745        -8.9184
  65   2.0000      -0.326618        -8.8877
  66   2.0000      -0.297928        -8.1070
  67   0.0000       0.041082         1.1179
  68   0.0000       0.069331         1.8866
  69   0.0000       0.111056         3.0220
  70   0.0000       0.119945         3.2639
  71   0.0000       0.127950         3.4817

MULLIKEN ATOMIC CHARGES
-----------------------
   0 S :    0.104932
   1 C :   -0.121272
   2 C :   -0.128851
   3 C :    0.038884
   4 C :   -0.179013
   5 H :    0.044705
   6 C :    0.075102
   7 H :    0.022894
   8 H :    0.012586
   9 C :   -0.091127
  10 H :    0.021715
  11 H :    0.035054
  12 C :   -0.005425
  13 H :    0.021992
  14 H :    0.013063
  15 H :    0.037324
  16 S :    0.131236
  17 C :   -0.097884
  18 C :   -0.026414
  19 C :   -0.090089
  20 C :   -0.140865
  21 H :    0.018562
  22 C :    0.087821
  23 H :    0.035513
  24 H :   -0.000273
  25 C :   -0.079958
  26 H :    0.044566
  27 H :    0.016937
  28 C :   -0.018659
  29 H :    0.023736
  30 H :    0.038362
  31 H :    0.026742
  32 H :    0.059487
  33 H :    0.068619
Sum of atomic charges:    0.0000000

LOEWDIN ATOMIC CHARGES
----------------------
   0 S :    0.419777
   1 C :   -0.205525
   2 C :   -0.056193
   3 C :   -0.077107
   4 C :   -0.201937
   5 H :    0.045629
   6 C :   -0.042056
   7 H :    0.033041
   8 H :    0.028920
   9 C :   -0.049981
  10 H :    0.027951
  11 H :    0.030943
  12 C :   -0.065262
  13 H :    0.024079
  14 H :    0.019583
  15 H :    0.032983
  16 S :    0.436785
  17 C :   -0.200225
  18 C :   -0.070697
  19 C :   -0.057149
  20 C :   -0.221958
  21 H :    0.027864
  22 C :   -0.041858
  23 H :    0.037084
  24 H :    0.023207
  25 C :   -0.032537
  26 H :    0.031074
  27 H :    0.015925
  28 C :   -0.060482
  29 H :    0.024255
  30 H :    0.028257
  31 H :    0.024472
  32 H :    0.033580
  33 H :    0.037556

  Mayer bond orders larger than 0.100000
B(  0-S ,  1-C ) :   1.1226 B(  0-S ,  4-C ) :   1.1810 B(  1-C ,  2-C ) :   1.6127
B(  1-C , 32-H ) :   0.9727 B(  2-C ,  3-C ) :   1.2117 B(  2-C ,  6-C ) :   1.0429
B(  3-C ,  4-C ) :   1.6001 B(  3-C ,  5-H ) :   0.9770 B(  4-C , 20-C ) :   0.9756
B(  6-C ,  7-H ) :   0.9413 B(  6-C ,  8-H ) :   0.9303 B(  6-C ,  9-C ) :   1.0444
B(  9-C , 10-H ) :   0.9474 B(  9-C , 11-H ) :   0.9584 B(  9-C , 12-C ) :   1.0819
B( 12-C , 13-H ) :   0.9727 B( 12-C , 14-H ) :   0.9702 B( 12-C , 15-H ) :   0.9722
B( 16-S , 17-C ) :   1.1632 B( 16-S , 20-C ) :   1.1595 B( 17-C , 18-C ) :   1.5857
B( 17-C , 33-H ) :   0.9672 B( 18-C , 19-C ) :   1.2493 B( 18-C , 21-H ) :   0.9842
B( 19-C , 20-C ) :   1.5818 B( 19-C , 22-C ) :   1.0721 B( 22-C , 23-H ) :   0.9160
B( 22-C , 24-H ) :   0.9204 B( 22-C , 25-C ) :   1.0532 B( 25-C , 26-H ) :   0.9604
B( 25-C , 27-H ) :   0.9502 B( 25-C , 28-C ) :   1.0961 B( 28-C , 29-H ) :   0.9713
B( 28-C , 30-H ) :   0.9760 B( 28-C , 31-H ) :   0.9731

Dispersion correction           -0.013799880
FINAL SINGLE POINT ENERGY     -1339.882048927747

DIPOLE MOMENT
-------------
                                X             Y             Z
Electronic contribution:      0.76941      21.80036      17.93155
Nuclear contribution   :     -0.59004     -22.28538     -18.43419
                        -----------------------------------------
Total Dipole Moment    :      0.17937      -0.48502      -0.50264
                        -----------------------------------------
Magnitude (a.u.)       :      0.72116
Magnitude (Debye)      :      1.83303

Rotational constants in cm-1:     0.017759     0.008133     0.006671
Rotational constants in MHz :   532.402566   243.814710   200.001650

                             ****ORCA TERMINATED NORMALLY****
TOTAL RUN TIME: 0 days 0 hours 0 minutes 20 seconds 97 msec
