                         Program Version 4.2.1 -  RELEASE  -
|  1> ! wB97X-D3 SP def2-SVP
|  2> %pal
|  3> nprocs 24
|  4> end
|  5>
|  6> * xyz 0 1
|  7> S 	 -69.3113 	 -0.60915 	 -67.6015
|  8> C 	 -69.0432 	 0.39268 	 -66.1578
|  9> C 	 -70.1313 	 1.22049 	 -65.8421
| 10> C 	 -71.2003 	 0.999418 	 -66.7936
| 11> C 	 -70.9536 	 0.0462184 	 -67.7518
| 12> H 	 -72.0963 	 1.5575 	 -66.8904
| 13> C 	 -70.2535 	 2.18554 	 -64.7294
| 14> H 	 -70.8741 	 3.02229 	 -65.0284
| 15> H 	 -69.2834 	 2.61568 	 -64.5902
| 16> C 	 -70.7789 	 1.57848 	 -63.4956
| 17> H 	 -71.6015 	 0.864785 	 -63.6014
| 18> H 	 -69.8994 	 1.10779 	 -63.0803
| 19> C 	 -71.2754 	 2.57269 	 -62.5017
| 20> H 	 -70.6418 	 3.45008 	 -62.4087
| 21> H 	 -72.2758 	 2.94261 	 -62.4862
| 22> H 	 -71.3509 	 2.05132 	 -61.5802
| 23> S 	 -71.3341 	 -0.429029 	 -70.5027
| 24> C 	 -72.947 	 -0.761948 	 -71.0544
| 25> C 	 -73.7174 	 -1.1788 	 -70.0044
| 26> C 	 -73.1817 	 -0.887577 	 -68.7369
| 27> C 	 -71.9016 	 -0.333133 	 -68.818
| 28> H 	 -74.7208 	 -1.45343 	 -70.1557
| 29> C 	 -73.945 	 -1.13154 	 -67.437
| 30> H 	 -73.2167 	 -0.938381 	 -66.569
| 31> H 	 -74.2716 	 -2.16648 	 -67.302
| 32> C 	 -75.1688 	 -0.385107 	 -67.3021
| 33> H 	 -75.8429 	 -0.599996 	 -68.1381
| 34> H 	 -74.8919 	 0.662928 	 -67.4567
| 35> C 	 -75.7486 	 -0.565765 	 -65.876
| 36> H 	 -76.436 	 0.273459 	 -65.675
| 37> H 	 -74.9871 	 -0.435801 	 -65.0327
| 38> H 	 -76.182 	 -1.53141 	 -65.7477
| 39> H 	 -68.0649 	 0.535653 	 -65.7544
| 40> H 	 -73.1918 	 -0.801306 	 -72.0523
| 41> *
| 42>
| 43>                          ****END OF INPUT****

CARTESIAN COORDINATES (ANGSTROEM)
---------------------------------
  S    -69.311300   -0.609150  -67.601500
  C    -69.043200    0.392680  -66.157800
  C    -70.131300    1.220490  -65.842100
  C    -71.200300    0.999418  -66.793600
  C    -70.953600    0.046218  -67.751800
  H    -72.096300    1.557500  -66.890400
  C    -70.253500    2.185540  -64.729400
  H    -70.874100    3.022290  -65.028400
  H    -69.283400    2.615680  -64.590200
  C    -70.778900    1.578480  -63.495600
  H    -71.601500    0.864785  -63.601400
  H    -69.899400    1.107790  -63.080300
  C    -71.275400    2.572690  -62.501700
  H    -70.641800    3.450080  -62.408700
  H    -72.275800    2.942610  -62.486200
  H    -71.350900    2.051320  -61.580200
  S    -71.334100   -0.429029  -70.502700
  C    -72.947000   -0.761948  -71.054400
  C    -73.717400   -1.178800  -70.004400
  C    -73.181700   -0.887577  -68.736900
  C    -71.901600   -0.333133  -68.818000
  H    -74.720800   -1.453430  -70.155700
  C    -73.945000   -1.131540  -67.437000
  H    -73.216700   -0.938381  -66.569000
  H    -74.271600   -2.166480  -67.302000
  C    -75.168800   -0.385107  -67.302100
  H    -75.842900   -0.599996  -68.138100
  H    -74.891900    0.662928  -67.456700
  C    -75.748600   -0.565765  -65.876000
  H    -76.436000    0.273459  -65.675000
  H    -74.987100   -0.435801  -65.032700
  H    -76.182000   -1.531410  -65.747700
  H    -68.064900    0.535653  -65.754400
  H    -73.191800   -0.801306  -72.052300

 Total Charge           Charge          ....    0
 Multiplicity           Mult            ....    1
 Number of Electrons    NEL             ....  134
 Basis Dimension        Dim             ....  322

ORBITAL ENERGIES
----------------

  NO   OCC          E(Eh)            E(eV)
   0   2.0000     -88.966038     -2420.8890
   1   2.0000     -88.963314     -2420.8148
   2   2.0000     -10.329912      -281.0912
   3   2.0000     -10.329444      -281.0785
   4   2.0000     -10.314949      -280.6840
   5   2.0000     -10.313690      -280.6498
   6   2.0000     -10.303454      -280.3712
   7   2.0000     -10.303207      -280.3645
   8   2.0000     -10.289658      -279.9958
   9   2.0000     -10.288392      -279.9614
  10   2.0000     -10.287125      -279.9269
  11   2.0000     -10.285013      -279.8694
  12   2.0000     -10.283701      -279.8337
  13   2.0000     -10.281774      -279.7813
  14   2.0000     -10.280808      -279.7550
  15   2.0000     -10.268090      -279.4089
  16   2.0000      -8.079893      -219.8651
  17   2.0000      -8.078187      -219.8186
  18   2.0000      -6.038541      -164.3170
  19   2.0000      -6.036655      -164.2657
  20   2.0000      -6.034622      -164.2104
  21   2.0000      -6.032830      -164.1616
  22   2.0000      -6.030476      -164.0976
  23   2.0000      -6.028833      -164.0529
  24   2.0000      -1.003755       -27.3136
  25   2.0000      -0.981636       -26.7117
  26   2.0000      -0.927282       -25.2326
  27   2.0000      -0.921530       -25.0761
  28   2.0000      -0.869794       -23.6683
  29   2.0000      -0.852362       -23.1940
  30   2.0000      -0.846837       -23.0436
  31   2.0000      -0.816384       -22.2149
  32   2.0000      -0.784931       -21.3590
  33   2.0000      -0.774253       -21.0685
  34   2.0000      -0.705068       -19.1859
  35   2.0000      -0.701779       -19.0964
  36   2.0000      -0.697474       -18.9792
  37   2.0000      -0.661616       -18.0035
  38   2.0000      -0.646412       -17.5898
  39   2.0000      -0.620564       -16.8864
  40   2.0000      -0.607395       -16.5281
  41   2.0000      -0.573905       -15.6168
  42   2.0000      -0.573784       -15.6135
  43   2.0000      -0.567751       -15.4493
  44   2.0000      -0.535335       -14.5672
  45   2.0000      -0.528484       -14.3808
  46   2.0000      -0.523639       -14.2490
  47   2.0000      -0.513047       -13.9607
  48   2.0000      -0.506435       -13.7808
  49   2.0000      -0.498990       -13.5782
  50   2.0000      -0.492333       -13.3971
  51   2.0000      -0.481224       -13.0948
  52   2.0000      -0.471125       -12.8200
  53   2.0000      -0.462860       -12.5951
  54   2.0000      -0.458050       -12.4642
  55   2.0000      -0.449040       -12.2190
  56   2.0000      -0.446072       -12.1382
  57   2.0000      -0.442530       -12.0419
  58   2.0000      -0.436261       -11.8713
  59   2.0000      -0.425731       -11.5847
  60   2.0000      -0.417635       -11.3644
  61   2.0000      -0.410372       -11.1668
  62   2.0000      -0.406574       -11.0635
  63   2.0000      -0.344026        -9.3614
  64   2.0000      -0.331325        -9.0158
  65   2.0000      -0.328397        -8.9361
  66   2.0000      -0.292244        -7.9524
  67   0.0000       0.029322         0.7979
  68   0.0000       0.063076         1.7164
  69   0.0000       0.108238         2.9453
  70   0.0000       0.119104         3.2410
  71   0.0000       0.124407         3.3853

MULLIKEN ATOMIC CHARGES
-----------------------
   0 S :    0.102320
   1 C :   -0.119559
   2 C :   -0.096587
   3 C :    0.018809
   4 C :   -0.136084
   5 H :    0.001147
   6 C :    0.104219
   7 H :    0.016141
   8 H :    0.013728
   9 C :   -0.041227
  10 H :    0.035233
  11 H :    0.022076
  12 C :   -0.028372
  13 H :    0.023019
  14 H :    0.019963
  15 H :    0.012653
  16 S :    0.093291
  17 C :   -0.057706
  18 C :   -0.004486
  19 C :   -0.012470
  20 C :   -0.172306
  21 H :    0.002055
  22 C :    0.040413
  23 H :    0.040779
  24 H :    0.021042
  25 C :   -0.078483
  26 H :    0.031478
  27 H :    0.016300
  28 C :   -0.047465
  29 H :    0.039332
  30 H :    0.033904
  31 H :    0.034450
  32 H :    0.041846
  33 H :    0.030547
Sum of atomic charges:   -0.0000000

LOEWDIN ATOMIC CHARGES
----------------------
   0 S :    0.379319
   1 C :   -0.191186
   2 C :   -0.049572
   3 C :   -0.061193
   4 C :   -0.182330
   5 H :    0.025761
   6 C :   -0.034405
   7 H :    0.029482
   8 H :    0.030142
   9 C :   -0.036527
  10 H :    0.030528
  11 H :    0.028310
  12 C :   -0.069457
  13 H :    0.023020
  14 H :    0.022973
  15 H :    0.026622
  16 S :    0.393673
  17 C :   -0.159941
  18 C :   -0.067072
  19 C :   -0.048413
  20 C :   -0.189277
  21 H :    0.022373
  22 C :   -0.041770
  23 H :    0.037762
  24 H :    0.029782
  25 C :   -0.048822
  26 H :    0.024941
  27 H :    0.021035
  28 C :   -0.064294
  29 H :    0.029845
  30 H :    0.033794
  31 H :    0.020716
  32 H :    0.020792
  33 H :    0.013389

  Mayer bond orders larger than 0.100000
B(  0-S ,  1-C ) :   1.1257 B(  0-S ,  4-C ) :   1.1300 B(  1-C ,  2-C ) :   1.6225
B(  1-C , 32-H ) :   0.9672 B(  2-C ,  3-C ) :   1.2136 B(  2-C ,  6-C ) :   1.0399
B(  3-C ,  4-C ) :   1.6013 B(  3-C ,  5-H ) :   1.0002 B(  4-C , 20-C ) :   1.0459
B(  6-C ,  7-H ) :   0.9387 B(  6-C ,  8-H ) :   0.9205 B(  6-C ,  9-C ) :   1.0694
B(  9-C , 10-H ) :   0.9568 B(  9-C , 11-H ) :   0.9486 B(  9-C , 12-C ) :   1.0929
B( 12-C , 13-H ) :   0.9700 B( 12-C , 14-H ) :   0.9707 B( 12-C , 15-H ) :   0.9652
B( 16-S , 17-C ) :   1.1655 B( 16-S , 20-C ) :   1.1297 B( 17-C , 18-C ) :   1.5889
B( 17-C , 20-C ) :   0.1047 B( 17-C , 33-H ) :   0.9818 B( 18-C , 19-C ) :   1.2516
B( 18-C , 21-H ) :   0.9942 B( 19-C , 20-C ) :   1.5818 B( 19-C , 22-C ) :   1.0365
B( 22-C , 23-H ) :   0.9337 B( 22-C , 24-H ) :   0.9321 B( 22-C , 25-C ) :   1.0663
B( 25-C , 26-H ) :   0.9501 B( 25-C , 27-H ) :   0.9494 B( 25-C , 28-C ) :   1.0759
B( 28-C , 29-H ) :   0.9753 B( 28-C , 30-H ) :   0.9732 B( 28-C , 31-H ) :   0.9748

Dispersion correction           -0.013911674
FINAL SINGLE POINT ENERGY     -1339.861448211478

DIPOLE MOMENT
-------------
                                X             Y             Z
Electronic contribution:     17.01464      -8.69629     -26.85798
Nuclear contribution   :    -17.54882       8.95027      27.29328
                        -----------------------------------------
Total Dipole Moment    :     -0.53418       0.25398       0.43530
                        -----------------------------------------
Magnitude (a.u.)       :      0.73440
Magnitude (Debye)      :      1.86669

Rotational constants in cm-1:     0.017344     0.009208     0.006440
Rotational constants in MHz :   519.953019   276.045519   193.074758

                             ****ORCA TERMINATED NORMALLY****
TOTAL RUN TIME: 0 days 0 hours 0 minutes 21 seconds 765 msec
