                         Program Version 4.2.1 -  RELEASE  -
|  1> ! wB97X-D3 SP def2-SVP
|  2> %pal
|  3> nprocs 24
|  4> end
|  5>
|  6> * xyz 0 1
|  7> S 	 -121.171 	 49.6252 	 -24.5137
|  8> C 	 -120.151 	 48.2464 	 -24.5865
|  9> C 	 -120.244 	 47.5478 	 -25.7582
| 10> C 	 -121.251 	 48.1521 	 -26.58
| 11> C 	 -121.933 	 49.193 	 -26.0031
| 12> H 	 -121.533 	 47.7764 	 -27.5665
| 13> C 	 -119.278 	 46.3898 	 -26.127
| 14> H 	 -120.004 	 45.6716 	 -26.5077
| 15> H 	 -118.734 	 45.9021 	 -25.3527
| 16> C 	 -118.224 	 46.6939 	 -27.2254
| 17> H 	 -118.884 	 46.8378 	 -28.067
| 18> H 	 -117.789 	 47.6416 	 -26.881
| 19> C 	 -117.095 	 45.6055 	 -27.5361
| 20> H 	 -116.316 	 46.031 	 -28.0673
| 21> H 	 -116.662 	 45.1949 	 -26.6498
| 22> H 	 -117.501 	 44.77 	 -28.1739
| 23> S 	 -123.164 	 51.7 	 -26.107
| 24> C 	 -124.863 	 51.8651 	 -26.4754
| 25> C 	 -125.263 	 50.6792 	 -27.0113
| 26> C 	 -124.275 	 49.6749 	 -27.1465
| 27> C 	 -123.136 	 49.9323 	 -26.4165
| 28> H 	 -126.212 	 50.6614 	 -27.5473
| 29> C 	 -124.637 	 48.3689 	 -27.7776
| 30> H 	 -125.669 	 48.2202 	 -27.8697
| 31> H 	 -124.346 	 47.6087 	 -27.0963
| 32> C 	 -124.036 	 48.0906 	 -29.1462
| 33> H 	 -123.043 	 48.5269 	 -29.3236
| 34> H 	 -124.617 	 48.5513 	 -29.9363
| 35> C 	 -124.191 	 46.5936 	 -29.5433
| 36> H 	 -123.731 	 46.0035 	 -28.6966
| 37> H 	 -123.62 	 46.6064 	 -30.4972
| 38> H 	 -125.193 	 46.2203 	 -29.8122
| 39> H 	 -119.441 	 47.9619 	 -23.7859
| 40> H 	 -125.489 	 52.7432 	 -26.3805
| 41> *
| 42>
| 43>                          ****END OF INPUT****

CARTESIAN COORDINATES (ANGSTROEM)
---------------------------------
  S    -121.171000   49.625200  -24.513700
  C    -120.151000   48.246400  -24.586500
  C    -120.244000   47.547800  -25.758200
  C    -121.251000   48.152100  -26.580000
  C    -121.933000   49.193000  -26.003100
  H    -121.533000   47.776400  -27.566500
  C    -119.278000   46.389800  -26.127000
  H    -120.004000   45.671600  -26.507700
  H    -118.734000   45.902100  -25.352700
  C    -118.224000   46.693900  -27.225400
  H    -118.884000   46.837800  -28.067000
  H    -117.789000   47.641600  -26.881000
  C    -117.095000   45.605500  -27.536100
  H    -116.316000   46.031000  -28.067300
  H    -116.662000   45.194900  -26.649800
  H    -117.501000   44.770000  -28.173900
  S    -123.164000   51.700000  -26.107000
  C    -124.863000   51.865100  -26.475400
  C    -125.263000   50.679200  -27.011300
  C    -124.275000   49.674900  -27.146500
  C    -123.136000   49.932300  -26.416500
  H    -126.212000   50.661400  -27.547300
  C    -124.637000   48.368900  -27.777600
  H    -125.669000   48.220200  -27.869700
  H    -124.346000   47.608700  -27.096300
  C    -124.036000   48.090600  -29.146200
  H    -123.043000   48.526900  -29.323600
  H    -124.617000   48.551300  -29.936300
  C    -124.191000   46.593600  -29.543300
  H    -123.731000   46.003500  -28.696600
  H    -123.620000   46.606400  -30.497200
  H    -125.193000   46.220300  -29.812200
  H    -119.441000   47.961900  -23.785900
  H    -125.489000   52.743200  -26.380500

 Total Charge           Charge          ....    0
 Multiplicity           Mult            ....    1
 Number of Electrons    NEL             ....  134
 Basis Dimension        Dim             ....  322

ORBITAL ENERGIES
----------------

  NO   OCC          E(Eh)            E(eV)
   0   2.0000     -88.965926     -2420.8859
   1   2.0000     -88.959717     -2420.7170
   2   2.0000     -10.332658      -281.1659
   3   2.0000     -10.332043      -281.1492
   4   2.0000     -10.315962      -280.7116
   5   2.0000     -10.312593      -280.6199
   6   2.0000     -10.304390      -280.3967
   7   2.0000     -10.299945      -280.2758
   8   2.0000     -10.299138      -280.2538
   9   2.0000     -10.293252      -280.0936
  10   2.0000     -10.291389      -280.0429
  11   2.0000     -10.288701      -279.9698
  12   2.0000     -10.287711      -279.9429
  13   2.0000     -10.286593      -279.9124
  14   2.0000     -10.283019      -279.8152
  15   2.0000     -10.279660      -279.7238
  16   2.0000      -8.081795      -219.9168
  17   2.0000      -8.074183      -219.7097
  18   2.0000      -6.040181      -164.3617
  19   2.0000      -6.036153      -164.2521
  20   2.0000      -6.032840      -164.1619
  21   2.0000      -6.032575      -164.1547
  22   2.0000      -6.028849      -164.0533
  23   2.0000      -6.024660      -163.9393
  24   2.0000      -1.012882       -27.5619
  25   2.0000      -0.990633       -26.9565
  26   2.0000      -0.913118       -24.8472
  27   2.0000      -0.906622       -24.6704
  28   2.0000      -0.869366       -23.6566
  29   2.0000      -0.851982       -23.1836
  30   2.0000      -0.844464       -22.9790
  31   2.0000      -0.817689       -22.2505
  32   2.0000      -0.786449       -21.4004
  33   2.0000      -0.775556       -21.1040
  34   2.0000      -0.709198       -19.2983
  35   2.0000      -0.699104       -19.0236
  36   2.0000      -0.693207       -18.8631
  37   2.0000      -0.663652       -18.0589
  38   2.0000      -0.641927       -17.4677
  39   2.0000      -0.624554       -16.9950
  40   2.0000      -0.600726       -16.3466
  41   2.0000      -0.568038       -15.4571
  42   2.0000      -0.566599       -15.4180
  43   2.0000      -0.562525       -15.3071
  44   2.0000      -0.531933       -14.4746
  45   2.0000      -0.522561       -14.2196
  46   2.0000      -0.518511       -14.1094
  47   2.0000      -0.513797       -13.9811
  48   2.0000      -0.507407       -13.8072
  49   2.0000      -0.501070       -13.6348
  50   2.0000      -0.497726       -13.5438
  51   2.0000      -0.478632       -13.0242
  52   2.0000      -0.473229       -12.8772
  53   2.0000      -0.470269       -12.7967
  54   2.0000      -0.459044       -12.4912
  55   2.0000      -0.454932       -12.3793
  56   2.0000      -0.450392       -12.2558
  57   2.0000      -0.440453       -11.9853
  58   2.0000      -0.437233       -11.8977
  59   2.0000      -0.420262       -11.4359
  60   2.0000      -0.416195       -11.3252
  61   2.0000      -0.410426       -11.1683
  62   2.0000      -0.399239       -10.8638
  63   2.0000      -0.356239        -9.6937
  64   2.0000      -0.333530        -9.0758
  65   2.0000      -0.325707        -8.8629
  66   2.0000      -0.290062        -7.8930
  67   0.0000       0.022152         0.6028
  68   0.0000       0.076314         2.0766
  69   0.0000       0.109427         2.9777
  70   0.0000       0.124562         3.3895
  71   0.0000       0.132623         3.6089

MULLIKEN ATOMIC CHARGES
-----------------------
   0 S :    0.124158
   1 C :   -0.126892
   2 C :   -0.087855
   3 C :    0.006918
   4 C :   -0.128967
   5 H :    0.003050
   6 C :    0.071394
   7 H :    0.024500
   8 H :    0.009656
   9 C :   -0.093828
  10 H :    0.027791
  11 H :    0.038129
  12 C :   -0.022459
  13 H :    0.026294
  14 H :    0.025827
  15 H :    0.041555
  16 S :    0.070470
  17 C :   -0.076121
  18 C :   -0.037803
  19 C :   -0.037845
  20 C :   -0.117471
  21 H :    0.021627
  22 C :    0.096630
  23 H :   -0.001472
  24 H :    0.017512
  25 C :   -0.104277
  26 H :    0.042532
  27 H :    0.017485
  28 C :   -0.078649
  29 H :    0.043549
  30 H :    0.040255
  31 H :    0.046681
  32 H :    0.056836
  33 H :    0.060789
Sum of atomic charges:    0.0000000

LOEWDIN ATOMIC CHARGES
----------------------
   0 S :    0.432113
   1 C :   -0.203271
   2 C :   -0.065999
   3 C :   -0.064983
   4 C :   -0.199315
   5 H :    0.029526
   6 C :   -0.029083
   7 H :    0.028370
   8 H :    0.021113
   9 C :   -0.037498
  10 H :    0.021302
  11 H :    0.025779
  12 C :   -0.059235
  13 H :    0.019514
  14 H :    0.021311
  15 H :    0.034591
  16 S :    0.376139
  17 C :   -0.180780
  18 C :   -0.079712
  19 C :   -0.059277
  20 C :   -0.173996
  21 H :    0.032223
  22 C :   -0.031180
  23 H :    0.024764
  24 H :    0.027689
  25 C :   -0.045489
  26 H :    0.024009
  27 H :    0.023779
  28 C :   -0.070412
  29 H :    0.026895
  30 H :    0.033683
  31 H :    0.027171
  32 H :    0.034574
  33 H :    0.035686

  Mayer bond orders larger than 0.100000
B(  0-S ,  1-C ) :   1.1537 B(  0-S ,  4-C ) :   1.1572 B(  1-C ,  2-C ) :   1.6173
B(  1-C , 32-H ) :   0.9617 B(  2-C ,  3-C ) :   1.2419 B(  2-C ,  6-C ) :   1.0140
B(  3-C ,  4-C ) :   1.5675 B(  3-C ,  5-H ) :   0.9965 B(  4-C , 20-C ) :   1.0410
B(  6-C ,  7-H ) :   0.9401 B(  6-C ,  8-H ) :   0.9492 B(  6-C ,  9-C ) :   1.0456
B(  9-C , 10-H ) :   0.9626 B(  9-C , 11-H ) :   0.9623 B(  9-C , 12-C ) :   1.0724
B( 12-C , 13-H ) :   0.9765 B( 12-C , 14-H ) :   0.9758 B( 12-C , 15-H ) :   0.9771
B( 16-S , 17-C ) :   1.1398 B( 16-S , 20-C ) :   1.1262 B( 17-C , 18-C ) :   1.6118
B( 17-C , 20-C ) :   0.1056 B( 17-C , 33-H ) :   0.9703 B( 18-C , 19-C ) :   1.2551
B( 18-C , 21-H ) :   0.9799 B( 19-C , 20-C ) :   1.5803 B( 19-C , 22-C ) :   1.0546
B( 22-C , 23-H ) :   0.9297 B( 22-C , 24-H ) :   0.9398 B( 22-C , 25-C ) :   1.0524
B( 25-C , 26-H ) :   0.9630 B( 25-C , 27-H ) :   0.9467 B( 25-C , 28-C ) :   1.0642
B( 28-C , 29-H ) :   0.9768 B( 28-C , 30-H ) :   0.9750 B( 28-C , 31-H ) :   0.9767

Dispersion correction           -0.013799954
FINAL SINGLE POINT ENERGY     -1339.855278863647

DIPOLE MOMENT
-------------
                                X             Y             Z
Electronic contribution:     -7.50872      24.80372      18.06803
Nuclear contribution   :      7.47829     -25.32685     -18.54644
                        -----------------------------------------
Total Dipole Moment    :     -0.03044      -0.52313      -0.47841
                        -----------------------------------------
Magnitude (a.u.)       :      0.70955
Magnitude (Debye)      :      1.80353

Rotational constants in cm-1:     0.018547     0.008418     0.006208
Rotational constants in MHz :   556.012748   252.362851   186.123933

                             ****ORCA TERMINATED NORMALLY****
TOTAL RUN TIME: 0 days 0 hours 0 minutes 21 seconds 225 msec
