                         Program Version 4.2.1 -  RELEASE  -
|  1> ! wB97X-D3 SP def2-SVP
|  2> %pal
|  3> nprocs 24
|  4> end
|  5>
|  6> * xyz 0 1
|  7> S 	 -126.846 	 62.3604 	 -59.8712
|  8> C 	 -125.457 	 63.3409 	 -59.5649
|  9> C 	 -125.738 	 64.4307 	 -58.7698
| 10> C 	 -127.12 	 64.4507 	 -58.4265
| 11> C 	 -127.868 	 63.4073 	 -58.9557
| 12> H 	 -127.547 	 65.1851 	 -57.8054
| 13> C 	 -124.744 	 65.4575 	 -58.3843
| 14> H 	 -123.975 	 64.8516 	 -57.8951
| 15> H 	 -125.105 	 66.0901 	 -57.562
| 16> C 	 -123.993 	 66.1129 	 -59.5837
| 17> H 	 -123.437 	 65.2693 	 -59.9738
| 18> H 	 -124.764 	 66.3614 	 -60.3058
| 19> C 	 -122.945 	 67.2154 	 -59.3088
| 20> H 	 -122.465 	 66.8462 	 -58.3182
| 21> H 	 -122.187 	 67.0796 	 -60.052
| 22> H 	 -123.342 	 68.2242 	 -59.3245
| 23> S 	 -129.962 	 64.2065 	 -57.3726
| 24> C 	 -131.583 	 63.7113 	 -57.8375
| 25> C 	 -131.604 	 62.805 	 -58.8739
| 26> C 	 -130.322 	 62.7185 	 -59.4806
| 27> C 	 -129.321 	 63.3684 	 -58.7843
| 28> H 	 -132.476 	 62.3959 	 -59.3363
| 29> C 	 -130.132 	 61.8318 	 -60.7312
| 30> H 	 -129.462 	 62.1988 	 -61.5223
| 31> H 	 -131.125 	 61.7036 	 -61.1705
| 32> C 	 -129.784 	 60.376 	 -60.3786
| 33> H 	 -130.524 	 59.9193 	 -59.6799
| 34> H 	 -128.837 	 60.4247 	 -59.7689
| 35> C 	 -129.399 	 59.5118 	 -61.6003
| 36> H 	 -129.193 	 58.5181 	 -61.3791
| 37> H 	 -128.59 	 59.982 	 -62.2284
| 38> H 	 -130.219 	 59.533 	 -62.2433
| 39> H 	 -124.429 	 63.1062 	 -59.9387
| 40> H 	 -132.486 	 63.8709 	 -57.265
| 41> *
| 42>
| 43>                          ****END OF INPUT****

CARTESIAN COORDINATES (ANGSTROEM)
---------------------------------
  S    -126.846000   62.360400  -59.871200
  C    -125.457000   63.340900  -59.564900
  C    -125.738000   64.430700  -58.769800
  C    -127.120000   64.450700  -58.426500
  C    -127.868000   63.407300  -58.955700
  H    -127.547000   65.185100  -57.805400
  C    -124.744000   65.457500  -58.384300
  H    -123.975000   64.851600  -57.895100
  H    -125.105000   66.090100  -57.562000
  C    -123.993000   66.112900  -59.583700
  H    -123.437000   65.269300  -59.973800
  H    -124.764000   66.361400  -60.305800
  C    -122.945000   67.215400  -59.308800
  H    -122.465000   66.846200  -58.318200
  H    -122.187000   67.079600  -60.052000
  H    -123.342000   68.224200  -59.324500
  S    -129.962000   64.206500  -57.372600
  C    -131.583000   63.711300  -57.837500
  C    -131.604000   62.805000  -58.873900
  C    -130.322000   62.718500  -59.480600
  C    -129.321000   63.368400  -58.784300
  H    -132.476000   62.395900  -59.336300
  C    -130.132000   61.831800  -60.731200
  H    -129.462000   62.198800  -61.522300
  H    -131.125000   61.703600  -61.170500
  C    -129.784000   60.376000  -60.378600
  H    -130.524000   59.919300  -59.679900
  H    -128.837000   60.424700  -59.768900
  C    -129.399000   59.511800  -61.600300
  H    -129.193000   58.518100  -61.379100
  H    -128.590000   59.982000  -62.228400
  H    -130.219000   59.533000  -62.243300
  H    -124.429000   63.106200  -59.938700
  H    -132.486000   63.870900  -57.265000

 Total Charge           Charge          ....    0
 Multiplicity           Mult            ....    1
 Number of Electrons    NEL             ....  134
 Basis Dimension        Dim             ....  322

ORBITAL ENERGIES
----------------

  NO   OCC          E(Eh)            E(eV)
   0   2.0000     -88.971750     -2421.0444
   1   2.0000     -88.968970     -2420.9688
   2   2.0000     -10.328958      -281.0652
   3   2.0000     -10.328008      -281.0394
   4   2.0000     -10.317899      -280.7643
   5   2.0000     -10.312392      -280.6144
   6   2.0000     -10.301035      -280.3054
   7   2.0000     -10.297087      -280.1980
   8   2.0000     -10.293500      -280.1004
   9   2.0000     -10.292232      -280.0659
  10   2.0000     -10.289901      -280.0024
  11   2.0000     -10.288007      -279.9509
  12   2.0000     -10.287732      -279.9434
  13   2.0000     -10.287185      -279.9285
  14   2.0000     -10.286850      -279.9194
  15   2.0000     -10.270376      -279.4711
  16   2.0000      -8.086074      -220.0333
  17   2.0000      -8.083134      -219.9533
  18   2.0000      -6.044664      -164.4837
  19   2.0000      -6.041780      -164.4052
  20   2.0000      -6.040485      -164.3699
  21   2.0000      -6.037868      -164.2987
  22   2.0000      -6.036957      -164.2739
  23   2.0000      -6.033660      -164.1842
  24   2.0000      -1.010353       -27.4931
  25   2.0000      -0.987597       -26.8739
  26   2.0000      -0.913787       -24.8654
  27   2.0000      -0.905518       -24.6404
  28   2.0000      -0.871014       -23.7015
  29   2.0000      -0.855954       -23.2917
  30   2.0000      -0.846294       -23.0288
  31   2.0000      -0.812842       -22.1186
  32   2.0000      -0.784732       -21.3536
  33   2.0000      -0.771022       -20.9806
  34   2.0000      -0.705176       -19.1888
  35   2.0000      -0.699497       -19.0343
  36   2.0000      -0.687527       -18.7086
  37   2.0000      -0.671973       -18.2853
  38   2.0000      -0.639592       -17.4042
  39   2.0000      -0.611492       -16.6396
  40   2.0000      -0.599379       -16.3099
  41   2.0000      -0.572067       -15.5667
  42   2.0000      -0.565273       -15.3819
  43   2.0000      -0.557433       -15.1685
  44   2.0000      -0.525412       -14.2972
  45   2.0000      -0.519369       -14.1327
  46   2.0000      -0.518199       -14.1009
  47   2.0000      -0.516829       -14.0636
  48   2.0000      -0.506883       -13.7930
  49   2.0000      -0.495430       -13.4813
  50   2.0000      -0.491018       -13.3613
  51   2.0000      -0.477953       -13.0058
  52   2.0000      -0.473891       -12.8952
  53   2.0000      -0.470891       -12.8136
  54   2.0000      -0.461372       -12.5546
  55   2.0000      -0.454464       -12.3666
  56   2.0000      -0.443875       -12.0785
  57   2.0000      -0.440985       -11.9998
  58   2.0000      -0.431946       -11.7539
  59   2.0000      -0.424378       -11.5479
  60   2.0000      -0.423012       -11.5107
  61   2.0000      -0.416433       -11.3317
  62   2.0000      -0.399947       -10.8831
  63   2.0000      -0.360902        -9.8206
  64   2.0000      -0.334440        -9.1006
  65   2.0000      -0.329861        -8.9760
  66   2.0000      -0.280411        -7.6304
  67   0.0000       0.022088         0.6010
  68   0.0000       0.083282         2.2662
  69   0.0000       0.106232         2.8907
  70   0.0000       0.117717         3.2032
  71   0.0000       0.127352         3.4654

MULLIKEN ATOMIC CHARGES
-----------------------
   0 S :    0.118364
   1 C :   -0.159417
   2 C :   -0.061947
   3 C :   -0.027031
   4 C :   -0.084108
   5 H :   -0.002330
   6 C :    0.078104
   7 H :    0.023491
   8 H :    0.022263
   9 C :   -0.106423
  10 H :    0.016955
  11 H :    0.039237
  12 C :   -0.027219
  13 H :    0.035766
  14 H :    0.031055
  15 H :    0.053511
  16 S :    0.093215
  17 C :   -0.069441
  18 C :   -0.020346
  19 C :   -0.084707
  20 C :   -0.114446
  21 H :    0.016403
  22 C :    0.041941
  23 H :    0.039204
  24 H :    0.012721
  25 C :   -0.116453
  26 H :    0.034574
  27 H :    0.025377
  28 C :    0.013926
  29 H :    0.027443
  30 H :    0.032339
  31 H :    0.001565
  32 H :    0.061711
  33 H :    0.054702
Sum of atomic charges:   -0.0000000

LOEWDIN ATOMIC CHARGES
----------------------
   0 S :    0.442491
   1 C :   -0.216856
   2 C :   -0.061564
   3 C :   -0.069529
   4 C :   -0.197056
   5 H :    0.014001
   6 C :   -0.041756
   7 H :    0.034936
   8 H :    0.028548
   9 C :   -0.039476
  10 H :    0.021233
  11 H :    0.022204
  12 C :   -0.064496
  13 H :    0.038873
  14 H :    0.025092
  15 H :    0.027701
  16 S :    0.405922
  17 C :   -0.178544
  18 C :   -0.063673
  19 C :   -0.060510
  20 C :   -0.180289
  21 H :    0.030272
  22 C :   -0.037826
  23 H :    0.029204
  24 H :    0.027915
  25 C :   -0.048624
  26 H :    0.026960
  27 H :    0.012787
  28 C :   -0.057703
  29 H :    0.018871
  30 H :    0.033724
  31 H :    0.013045
  32 H :    0.035060
  33 H :    0.029063

  Mayer bond orders larger than 0.100000
B(  0-S ,  1-C ) :   1.1449 B(  0-S ,  4-C ) :   1.1544 B(  1-C ,  2-C ) :   1.5755
B(  1-C , 32-H ) :   0.9604 B(  2-C ,  3-C ) :   1.2845 B(  2-C ,  6-C ) :   1.0316
B(  3-C ,  4-C ) :   1.5052 B(  3-C ,  5-H ) :   0.9965 B(  4-C , 20-C ) :   1.0801
B(  6-C ,  7-H ) :   0.9250 B(  6-C ,  8-H ) :   0.9440 B(  6-C ,  9-C ) :   1.0462
B(  9-C , 10-H ) :   0.9550 B(  9-C , 11-H ) :   0.9660 B(  9-C , 12-C ) :   1.0726
B( 12-C , 13-H ) :   0.9705 B( 12-C , 14-H ) :   0.9765 B( 12-C , 15-H ) :   0.9779
B( 16-S , 17-C ) :   1.1446 B( 16-S , 20-C ) :   1.1293 B( 17-C , 18-C ) :   1.6253
B( 17-C , 33-H ) :   0.9637 B( 18-C , 19-C ) :   1.2491 B( 18-C , 21-H ) :   0.9825
B( 19-C , 20-C ) :   1.6020 B( 19-C , 22-C ) :   1.0452 B( 22-C , 23-H ) :   0.9437
B( 22-C , 24-H ) :   0.9274 B( 22-C , 25-C ) :   1.0539 B( 25-C , 26-H ) :   0.9541
B( 25-C , 27-H ) :   0.9557 B( 25-C , 28-C ) :   1.0723 B( 28-C , 29-H ) :   0.9734
B( 28-C , 30-H ) :   0.9711 B( 28-C , 31-H ) :   0.9719

Dispersion correction           -0.013887483
FINAL SINGLE POINT ENERGY     -1339.874688300169

DIPOLE MOMENT
-------------
                                X             Y             Z
Electronic contribution:    -12.07124       0.11979       9.69689
Nuclear contribution   :     12.20217      -0.09641      -9.85861
                        -----------------------------------------
Total Dipole Moment    :      0.13093       0.02338      -0.16172
                        -----------------------------------------
Magnitude (a.u.)       :      0.20938
Magnitude (Debye)      :      0.53221

Rotational constants in cm-1:     0.021738     0.007747     0.005975
Rotational constants in MHz :   651.700052   232.258878   179.129013

                             ****ORCA TERMINATED NORMALLY****
TOTAL RUN TIME: 0 days 0 hours 0 minutes 21 seconds 147 msec
