                         Program Version 4.2.1 -  RELEASE  -
|  1> ! wB97X-D3 SP def2-SVP
|  2> %pal
|  3> nprocs 24
|  4> end
|  5>
|  6> * xyz 0 1
|  7> S 	 -67.4042 	 -47.6321 	 -88.6059
|  8> C 	 -66.2609 	 -48.7148 	 -89.4023
|  9> C 	 -65.7163 	 -49.6332 	 -88.5489
| 10> C 	 -66.3234 	 -49.5537 	 -87.2285
| 11> C 	 -67.1907 	 -48.4544 	 -87.0932
| 12> H 	 -66.1107 	 -50.1004 	 -86.411
| 13> C 	 -64.7752 	 -50.8404 	 -88.8492
| 14> H 	 -65.1325 	 -51.2689 	 -89.7388
| 15> H 	 -64.962 	 -51.6924 	 -88.1123
| 16> C 	 -63.3329 	 -50.4734 	 -89.1386
| 17> H 	 -63.2354 	 -49.8087 	 -90.0171
| 18> H 	 -63.025 	 -49.8889 	 -88.2951
| 19> C 	 -62.3653 	 -51.6217 	 -89.2562
| 20> H 	 -62.0534 	 -51.9668 	 -88.2373
| 21> H 	 -62.8684 	 -52.4098 	 -89.7467
| 22> H 	 -61.6349 	 -51.211 	 -89.789
| 23> S 	 -67.9986 	 -46.1536 	 -85.6127
| 24> C 	 -69.195 	 -46.3128 	 -84.4353
| 25> C 	 -69.4664 	 -47.6507 	 -84.1625
| 26> C 	 -68.7137 	 -48.5736 	 -85.0086
| 27> C 	 -67.956 	 -47.9351 	 -85.944
| 28> H 	 -70.2423 	 -47.9931 	 -83.4278
| 29> C 	 -68.97 	 -50.0488 	 -84.8779
| 30> H 	 -69.6118 	 -50.252 	 -84.0206
| 31> H 	 -68.0749 	 -50.6806 	 -84.7251
| 32> C 	 -69.9325 	 -50.6497 	 -85.8828
| 33> H 	 -69.5562 	 -50.53 	 -86.9151
| 34> H 	 -70.7763 	 -49.8749 	 -85.917
| 35> C 	 -70.5949 	 -51.942 	 -85.6256
| 36> H 	 -71.0358 	 -52.122 	 -84.6676
| 37> H 	 -69.8594 	 -52.7128 	 -85.8248
| 38> H 	 -71.4252 	 -52.1977 	 -86.3087
| 39> H 	 -65.9291 	 -48.5425 	 -90.4503
| 40> H 	 -69.6362 	 -45.4829 	 -83.8585
| 41> *
| 42>
| 43>                          ****END OF INPUT****

CARTESIAN COORDINATES (ANGSTROEM)
---------------------------------
  S    -67.404200  -47.632100  -88.605900
  C    -66.260900  -48.714800  -89.402300
  C    -65.716300  -49.633200  -88.548900
  C    -66.323400  -49.553700  -87.228500
  C    -67.190700  -48.454400  -87.093200
  H    -66.110700  -50.100400  -86.411000
  C    -64.775200  -50.840400  -88.849200
  H    -65.132500  -51.268900  -89.738800
  H    -64.962000  -51.692400  -88.112300
  C    -63.332900  -50.473400  -89.138600
  H    -63.235400  -49.808700  -90.017100
  H    -63.025000  -49.888900  -88.295100
  C    -62.365300  -51.621700  -89.256200
  H    -62.053400  -51.966800  -88.237300
  H    -62.868400  -52.409800  -89.746700
  H    -61.634900  -51.211000  -89.789000
  S    -67.998600  -46.153600  -85.612700
  C    -69.195000  -46.312800  -84.435300
  C    -69.466400  -47.650700  -84.162500
  C    -68.713700  -48.573600  -85.008600
  C    -67.956000  -47.935100  -85.944000
  H    -70.242300  -47.993100  -83.427800
  C    -68.970000  -50.048800  -84.877900
  H    -69.611800  -50.252000  -84.020600
  H    -68.074900  -50.680600  -84.725100
  C    -69.932500  -50.649700  -85.882800
  H    -69.556200  -50.530000  -86.915100
  H    -70.776300  -49.874900  -85.917000
  C    -70.594900  -51.942000  -85.625600
  H    -71.035800  -52.122000  -84.667600
  H    -69.859400  -52.712800  -85.824800
  H    -71.425200  -52.197700  -86.308700
  H    -65.929100  -48.542500  -90.450300
  H    -69.636200  -45.482900  -83.858500

 Total Charge           Charge          ....    0
 Multiplicity           Mult            ....    1
 Number of Electrons    NEL             ....  134
 Basis Dimension        Dim             ....  322

ORBITAL ENERGIES
----------------

  NO   OCC          E(Eh)            E(eV)
   0   2.0000     -88.965819     -2420.8830
   1   2.0000     -88.965775     -2420.8818
   2   2.0000     -10.332571      -281.1635
   3   2.0000     -10.330962      -281.1198
   4   2.0000     -10.319331      -280.8033
   5   2.0000     -10.316525      -280.7269
   6   2.0000     -10.306074      -280.4425
   7   2.0000     -10.305403      -280.4243
   8   2.0000     -10.299892      -280.2743
   9   2.0000     -10.294502      -280.1276
  10   2.0000     -10.291431      -280.0441
  11   2.0000     -10.290743      -280.0254
  12   2.0000     -10.283689      -279.8334
  13   2.0000     -10.280264      -279.7402
  14   2.0000     -10.274316      -279.5783
  15   2.0000     -10.266753      -279.3726
  16   2.0000      -8.080859      -219.8913
  17   2.0000      -8.080606      -219.8845
  18   2.0000      -6.039383      -164.3400
  19   2.0000      -6.039117      -164.3327
  20   2.0000      -6.035269      -164.2280
  21   2.0000      -6.035059      -164.2223
  22   2.0000      -6.031613      -164.1285
  23   2.0000      -6.031400      -164.1227
  24   2.0000      -1.004879       -27.3441
  25   2.0000      -0.983160       -26.7531
  26   2.0000      -0.916518       -24.9397
  27   2.0000      -0.915546       -24.9133
  28   2.0000      -0.871265       -23.7083
  29   2.0000      -0.857349       -23.3296
  30   2.0000      -0.844035       -22.9674
  31   2.0000      -0.811661       -22.0864
  32   2.0000      -0.789071       -21.4717
  33   2.0000      -0.779032       -21.1985
  34   2.0000      -0.701483       -19.0883
  35   2.0000      -0.697820       -18.9887
  36   2.0000      -0.685273       -18.6472
  37   2.0000      -0.663872       -18.0649
  38   2.0000      -0.643111       -17.4999
  39   2.0000      -0.620200       -16.8765
  40   2.0000      -0.600675       -16.3452
  41   2.0000      -0.572478       -15.5779
  42   2.0000      -0.566175       -15.4064
  43   2.0000      -0.559008       -15.2114
  44   2.0000      -0.538732       -14.6596
  45   2.0000      -0.525529       -14.3004
  46   2.0000      -0.517308       -14.0767
  47   2.0000      -0.512879       -13.9562
  48   2.0000      -0.506858       -13.7923
  49   2.0000      -0.500000       -13.6057
  50   2.0000      -0.493346       -13.4246
  51   2.0000      -0.481804       -13.1106
  52   2.0000      -0.474440       -12.9102
  53   2.0000      -0.464708       -12.6453
  54   2.0000      -0.460608       -12.5338
  55   2.0000      -0.457513       -12.4496
  56   2.0000      -0.447214       -12.1693
  57   2.0000      -0.442549       -12.0424
  58   2.0000      -0.427978       -11.6459
  59   2.0000      -0.421790       -11.4775
  60   2.0000      -0.412571       -11.2266
  61   2.0000      -0.409274       -11.1369
  62   2.0000      -0.395048       -10.7498
  63   2.0000      -0.351064        -9.5529
  64   2.0000      -0.332790        -9.0557
  65   2.0000      -0.327507        -8.9119
  66   2.0000      -0.293012        -7.9733
  67   0.0000       0.028528         0.7763
  68   0.0000       0.071819         1.9543
  69   0.0000       0.110106         2.9961
  70   0.0000       0.114224         3.1082
  71   0.0000       0.134098         3.6490

MULLIKEN ATOMIC CHARGES
-----------------------
   0 S :    0.107348
   1 C :   -0.140535
   2 C :   -0.057607
   3 C :    0.064217
   4 C :   -0.159964
   5 H :   -0.039371
   6 C :    0.055833
   7 H :    0.010654
   8 H :    0.037983
   9 C :   -0.119428
  10 H :    0.029724
  11 H :    0.022595
  12 C :    0.046929
  13 H :    0.037050
  14 H :    0.013317
  15 H :    0.007487
  16 S :    0.110640
  17 C :   -0.092171
  18 C :   -0.057130
  19 C :   -0.019414
  20 C :   -0.151803
  21 H :    0.038413
  22 C :    0.073647
  23 H :   -0.000045
  24 H :    0.036151
  25 C :   -0.105671
  26 H :    0.036366
  27 H :    0.019435
  28 C :   -0.020945
  29 H :    0.023368
  30 H :    0.021980
  31 H :    0.035483
  32 H :    0.061984
  33 H :    0.073478
Sum of atomic charges:    0.0000000

LOEWDIN ATOMIC CHARGES
----------------------
   0 S :    0.410013
   1 C :   -0.201029
   2 C :   -0.054730
   3 C :   -0.051657
   4 C :   -0.188229
   5 H :    0.008774
   6 C :   -0.033970
   7 H :    0.021569
   8 H :    0.038826
   9 C :   -0.042462
  10 H :    0.025481
  11 H :    0.020681
  12 C :   -0.044358
  13 H :    0.033442
  14 H :    0.018503
  15 H :    0.011044
  16 S :    0.404944
  17 C :   -0.206160
  18 C :   -0.080268
  19 C :   -0.052582
  20 C :   -0.186424
  21 H :    0.038260
  22 C :   -0.037847
  23 H :    0.031455
  24 H :    0.028473
  25 C :   -0.052292
  26 H :    0.025215
  27 H :    0.028280
  28 C :   -0.069501
  29 H :    0.021301
  30 H :    0.024405
  31 H :    0.035994
  32 H :    0.034607
  33 H :    0.040243

  Mayer bond orders larger than 0.100000
B(  0-S ,  1-C ) :   1.1296 B(  0-S ,  4-C ) :   1.1652 B(  1-C ,  2-C ) :   1.6419
B(  1-C , 32-H ) :   0.9613 B(  2-C ,  3-C ) :   1.2166 B(  2-C ,  6-C ) :   1.0021
B(  3-C ,  4-C ) :   1.5691 B(  3-C ,  5-H ) :   1.0162 B(  4-C , 20-C ) :   1.0394
B(  6-C ,  7-H ) :   0.9325 B(  6-C ,  8-H ) :   0.9538 B(  6-C ,  9-C ) :   1.0548
B(  9-C , 10-H ) :   0.9598 B(  9-C , 11-H ) :   0.9581 B(  9-C , 12-C ) :   1.0795
B( 12-C , 13-H ) :   0.9749 B( 12-C , 14-H ) :   0.9737 B( 12-C , 15-H ) :   0.9707
B( 16-S , 17-C ) :   1.1678 B( 16-S , 20-C ) :   1.1221 B( 17-C , 18-C ) :   1.6013
B( 17-C , 33-H ) :   0.9619 B( 18-C , 19-C ) :   1.2406 B( 18-C , 21-H ) :   0.9791
B( 19-C , 20-C ) :   1.6132 B( 19-C , 22-C ) :   1.0629 B( 22-C , 23-H ) :   0.9276
B( 22-C , 24-H ) :   0.9314 B( 22-C , 25-C ) :   1.0475 B( 25-C , 26-H ) :   0.9503
B( 25-C , 27-H ) :   0.9500 B( 25-C , 28-C ) :   1.0969 B( 28-C , 29-H ) :   0.9695
B( 28-C , 30-H ) :   0.9694 B( 28-C , 31-H ) :   0.9687

Dispersion correction           -0.013730138
FINAL SINGLE POINT ENERGY     -1339.854336764107

DIPOLE MOMENT
-------------
                                X             Y             Z
Electronic contribution:     -6.01882      26.74086       2.06457
Nuclear contribution   :      6.04062     -27.30394      -1.98096
                        -----------------------------------------
Total Dipole Moment    :      0.02180      -0.56308       0.08361
                        -----------------------------------------
Magnitude (a.u.)       :      0.56967
Magnitude (Debye)      :      1.44799

Rotational constants in cm-1:     0.019013     0.007716     0.006279
Rotational constants in MHz :   569.999232   231.308937   188.232875

                             ****ORCA TERMINATED NORMALLY****
TOTAL RUN TIME: 0 days 0 hours 0 minutes 20 seconds 998 msec
