                         Program Version 4.2.1 -  RELEASE  -
|  1> ! wB97X-D3 SP def2-SVP
|  2> %pal
|  3> nprocs 24
|  4> end
|  5>
|  6> * xyz 0 1
|  7> S 	 -101.332 	 -2.85802 	 -110.168
|  8> C 	 -102.729 	 -3.24797 	 -111.172
|  9> C 	 -103.853 	 -3.56507 	 -110.417
| 10> C 	 -103.661 	 -3.14112 	 -109.098
| 11> C 	 -102.384 	 -2.76615 	 -108.727
| 12> H 	 -104.422 	 -3.31235 	 -108.358
| 13> C 	 -105.165 	 -4.22273 	 -110.878
| 14> H 	 -105.813 	 -4.31949 	 -110.061
| 15> H 	 -104.907 	 -5.29678 	 -111.14
| 16> C 	 -105.882 	 -3.4392 	 -111.992
| 17> H 	 -106.154 	 -2.44267 	 -111.61
| 18> H 	 -105.13 	 -3.34742 	 -112.824
| 19> C 	 -107.187 	 -4.06694 	 -112.519
| 20> H 	 -107.708 	 -3.50974 	 -113.231
| 21> H 	 -106.987 	 -5.04224 	 -112.948
| 22> H 	 -107.943 	 -4.17829 	 -111.754
| 23> S 	 -100.055 	 -2.85081 	 -107.279
| 24> C 	 -100.082 	 -2.4501 	 -105.625
| 25> C 	 -101.354 	 -2.16937 	 -105.154
| 26> C 	 -102.345 	 -2.26036 	 -106.117
| 27> C 	 -101.831 	 -2.64846 	 -107.372
| 28> H 	 -101.544 	 -1.82677 	 -104.147
| 29> C 	 -103.762 	 -1.89335 	 -105.698
| 30> H 	 -104.277 	 -2.50362 	 -104.973
| 31> H 	 -104.422 	 -2.0009 	 -106.541
| 32> C 	 -103.865 	 -0.433363 	 -105.218
| 33> H 	 -103.234 	 -0.286563 	 -104.357
| 34> H 	 -104.906 	 -0.1608 	 -104.863
| 35> C 	 -103.538 	 0.489338 	 -106.403
| 36> H 	 -103.534 	 0.00341204 	 -107.458
| 37> H 	 -102.602 	 1.02418 	 -106.286
| 38> H 	 -104.24 	 1.29937 	 -106.394
| 39> H 	 -102.65 	 -3.62608 	 -112.231
| 40> H 	 -99.2809 	 -2.39529 	 -105.061
| 41> *
| 42>
| 43>                          ****END OF INPUT****

CARTESIAN COORDINATES (ANGSTROEM)
---------------------------------
  S    -101.332000   -2.858020  -110.168000
  C    -102.729000   -3.247970  -111.172000
  C    -103.853000   -3.565070  -110.417000
  C    -103.661000   -3.141120  -109.098000
  C    -102.384000   -2.766150  -108.727000
  H    -104.422000   -3.312350  -108.358000
  C    -105.165000   -4.222730  -110.878000
  H    -105.813000   -4.319490  -110.061000
  H    -104.907000   -5.296780  -111.140000
  C    -105.882000   -3.439200  -111.992000
  H    -106.154000   -2.442670  -111.610000
  H    -105.130000   -3.347420  -112.824000
  C    -107.187000   -4.066940  -112.519000
  H    -107.708000   -3.509740  -113.231000
  H    -106.987000   -5.042240  -112.948000
  H    -107.943000   -4.178290  -111.754000
  S    -100.055000   -2.850810  -107.279000
  C    -100.082000   -2.450100  -105.625000
  C    -101.354000   -2.169370  -105.154000
  C    -102.345000   -2.260360  -106.117000
  C    -101.831000   -2.648460  -107.372000
  H    -101.544000   -1.826770  -104.147000
  C    -103.762000   -1.893350  -105.698000
  H    -104.277000   -2.503620  -104.973000
  H    -104.422000   -2.000900  -106.541000
  C    -103.865000   -0.433363  -105.218000
  H    -103.234000   -0.286563  -104.357000
  H    -104.906000   -0.160800  -104.863000
  C    -103.538000    0.489338  -106.403000
  H    -103.534000    0.003412  -107.458000
  H    -102.602000    1.024180  -106.286000
  H    -104.240000    1.299370  -106.394000
  H    -102.650000   -3.626080  -112.231000
  H    -99.280900   -2.395290  -105.061000

 Total Charge           Charge          ....    0
 Multiplicity           Mult            ....    1
 Number of Electrons    NEL             ....  134
 Basis Dimension        Dim             ....  322

ORBITAL ENERGIES
----------------

  NO   OCC          E(Eh)            E(eV)
   0   2.0000     -88.969412     -2420.9808
   1   2.0000     -88.969271     -2420.9769
   2   2.0000     -10.335710      -281.2490
   3   2.0000     -10.334575      -281.2181
   4   2.0000     -10.317403      -280.7508
   5   2.0000     -10.305283      -280.4210
   6   2.0000     -10.304498      -280.3996
   7   2.0000     -10.301196      -280.3098
   8   2.0000     -10.297601      -280.2120
   9   2.0000     -10.295176      -280.1460
  10   2.0000     -10.290311      -280.0136
  11   2.0000     -10.289646      -279.9955
  12   2.0000     -10.288748      -279.9711
  13   2.0000     -10.288182      -279.9557
  14   2.0000     -10.274002      -279.5698
  15   2.0000     -10.273444      -279.5546
  16   2.0000      -8.084308      -219.9852
  17   2.0000      -8.083105      -219.9525
  18   2.0000      -6.042678      -164.4296
  19   2.0000      -6.041792      -164.4055
  20   2.0000      -6.038842      -164.3252
  21   2.0000      -6.037939      -164.3007
  22   2.0000      -6.035149      -164.2248
  23   2.0000      -6.033562      -164.1816
  24   2.0000      -1.007315       -27.4104
  25   2.0000      -0.985843       -26.8261
  26   2.0000      -0.913156       -24.8482
  27   2.0000      -0.909148       -24.7392
  28   2.0000      -0.867506       -23.6060
  29   2.0000      -0.852903       -23.2087
  30   2.0000      -0.845951       -23.0195
  31   2.0000      -0.811699       -22.0874
  32   2.0000      -0.785517       -21.3750
  33   2.0000      -0.775836       -21.1116
  34   2.0000      -0.708734       -19.2856
  35   2.0000      -0.702256       -19.1094
  36   2.0000      -0.697840       -18.9892
  37   2.0000      -0.662825       -18.0364
  38   2.0000      -0.634194       -17.2573
  39   2.0000      -0.622106       -16.9284
  40   2.0000      -0.609648       -16.5894
  41   2.0000      -0.572264       -15.5721
  42   2.0000      -0.558950       -15.2098
  43   2.0000      -0.554751       -15.0956
  44   2.0000      -0.537638       -14.6299
  45   2.0000      -0.522045       -14.2056
  46   2.0000      -0.518995       -14.1226
  47   2.0000      -0.505373       -13.7519
  48   2.0000      -0.502944       -13.6858
  49   2.0000      -0.493939       -13.4408
  50   2.0000      -0.492947       -13.4138
  51   2.0000      -0.478667       -13.0252
  52   2.0000      -0.471225       -12.8227
  53   2.0000      -0.462676       -12.5900
  54   2.0000      -0.460756       -12.5378
  55   2.0000      -0.451488       -12.2856
  56   2.0000      -0.445767       -12.1299
  57   2.0000      -0.439075       -11.9478
  58   2.0000      -0.429093       -11.6762
  59   2.0000      -0.424598       -11.5539
  60   2.0000      -0.421137       -11.4597
  61   2.0000      -0.418625       -11.3914
  62   2.0000      -0.412194       -11.2164
  63   2.0000      -0.360377        -9.8064
  64   2.0000      -0.339912        -9.2495
  65   2.0000      -0.332092        -9.0367
  66   2.0000      -0.276300        -7.5185
  67   0.0000       0.014561         0.3962
  68   0.0000       0.071211         1.9378
  69   0.0000       0.098596         2.6829
  70   0.0000       0.122499         3.3334
  71   0.0000       0.134521         3.6605

MULLIKEN ATOMIC CHARGES
-----------------------
   0 S :    0.093805
   1 C :   -0.132891
   2 C :   -0.113829
   3 C :   -0.000194
   4 C :   -0.090059
   5 H :    0.005810
   6 C :    0.086553
   7 H :   -0.001341
   8 H :    0.046379
   9 C :   -0.101486
  10 H :    0.038395
  11 H :    0.038024
  12 C :   -0.010242
  13 H :    0.020904
  14 H :    0.025202
  15 H :    0.019162
  16 S :    0.099579
  17 C :   -0.013159
  18 C :   -0.038175
  19 C :   -0.021357
  20 C :   -0.150134
  21 H :    0.014980
  22 C :    0.078128
  23 H :    0.029843
  24 H :    0.001801
  25 C :   -0.097594
  26 H :    0.028017
  27 H :    0.035367
  28 C :   -0.061393
  29 H :    0.060687
  30 H :    0.029550
  31 H :    0.019488
  32 H :    0.069445
  33 H :   -0.009263
Sum of atomic charges:   -0.0000000

LOEWDIN ATOMIC CHARGES
----------------------
   0 S :    0.384762
   1 C :   -0.208450
   2 C :   -0.059342
   3 C :   -0.070900
   4 C :   -0.178887
   5 H :    0.024985
   6 C :   -0.027420
   7 H :    0.018085
   8 H :    0.040853
   9 C :   -0.038064
  10 H :    0.029124
  11 H :    0.027379
  12 C :   -0.063715
  13 H :    0.020077
  14 H :    0.024320
  15 H :    0.023782
  16 S :    0.415909
  17 C :   -0.170986
  18 C :   -0.064077
  19 C :   -0.054936
  20 C :   -0.176959
  21 H :    0.030715
  22 C :   -0.030272
  23 H :    0.029884
  24 H :    0.021889
  25 C :   -0.039925
  26 H :    0.017090
  27 H :    0.029107
  28 C :   -0.076158
  29 H :    0.041738
  30 H :    0.026505
  31 H :    0.020711
  32 H :    0.037363
  33 H :   -0.004186

  Mayer bond orders larger than 0.100000
B(  0-S ,  1-C ) :   1.1328 B(  0-S ,  4-C ) :   1.1356 B(  1-C ,  2-C ) :   1.6050
B(  1-C , 32-H ) :   0.9527 B(  2-C ,  3-C ) :   1.2955 B(  2-C ,  6-C ) :   1.0143
B(  3-C ,  4-C ) :   1.5467 B(  3-C ,  5-H ) :   0.9836 B(  4-C , 20-C ) :   1.0911
B(  6-C ,  7-H ) :   0.9398 B(  6-C ,  8-H ) :   0.9352 B(  6-C ,  9-C ) :   1.0604
B(  9-C , 10-H ) :   0.9562 B(  9-C , 11-H ) :   0.9592 B(  9-C , 12-C ) :   1.0842
B( 12-C , 13-H ) :   0.9736 B( 12-C , 14-H ) :   0.9742 B( 12-C , 15-H ) :   0.9719
B( 16-S , 17-C ) :   1.1743 B( 16-S , 20-C ) :   1.1440 B( 17-C , 18-C ) :   1.5677
B( 17-C , 20-C ) :   0.1030 B( 17-C , 33-H ) :   0.9860 B( 18-C , 19-C ) :   1.2878
B( 18-C , 21-H ) :   0.9910 B( 19-C , 20-C ) :   1.5466 B( 19-C , 22-C ) :   1.0310
B( 22-C , 23-H ) :   0.9392 B( 22-C , 24-H ) :   0.9373 B( 22-C , 25-C ) :   1.0791
B( 25-C , 26-H ) :   0.9597 B( 25-C , 27-H ) :   0.9627 B( 25-C , 28-C ) :   1.0474
B( 28-C , 29-H ) :   0.9792 B( 28-C , 30-H ) :   0.9733 B( 28-C , 31-H ) :   0.9776

Dispersion correction           -0.014077895
FINAL SINGLE POINT ENERGY     -1339.861247117517

DIPOLE MOMENT
-------------
                                X             Y             Z
Electronic contribution:     27.30775      -4.96719       2.46477
Nuclear contribution   :    -27.93874       4.88465      -2.20747
                        -----------------------------------------
Total Dipole Moment    :     -0.63099      -0.08254       0.25730
                        -----------------------------------------
Magnitude (a.u.)       :      0.68641
Magnitude (Debye)      :      1.74472

Rotational constants in cm-1:     0.021409     0.007733     0.006207
Rotational constants in MHz :   641.819248   231.836175   186.066676

                             ****ORCA TERMINATED NORMALLY****
TOTAL RUN TIME: 0 days 0 hours 0 minutes 21 seconds 489 msec
