                         Program Version 4.2.1 -  RELEASE  -
|  1> ! wB97X-D3 SP def2-SVP
|  2> %pal
|  3> nprocs 24
|  4> end
|  5>
|  6> * xyz 0 1
|  7> S 	 -41.2262 	 -3.09719 	 -23.061
|  8> C 	 -42.7024 	 -3.78214 	 -23.6623
|  9> C 	 -43.7012 	 -3.39913 	 -22.7861
| 10> C 	 -43.2987 	 -2.53663 	 -21.7233
| 11> C 	 -41.9706 	 -2.3363 	 -21.6761
| 12> H 	 -43.9239 	 -2.41483 	 -20.916
| 13> C 	 -45.0115 	 -4.06089 	 -22.7148
| 14> H 	 -45.592 	 -3.83963 	 -23.6716
| 15> H 	 -45.6985 	 -3.75895 	 -21.9061
| 16> C 	 -44.9893 	 -5.60993 	 -22.7541
| 17> H 	 -45.9411 	 -6.05845 	 -22.5217
| 18> H 	 -44.6159 	 -5.9605 	 -23.6954
| 19> C 	 -44.0729 	 -6.17015 	 -21.6364
| 20> H 	 -44.4255 	 -5.82514 	 -20.5733
| 21> H 	 -44.0713 	 -7.25573 	 -21.6933
| 22> H 	 -42.9908 	 -6.01795 	 -21.8558
| 23> S 	 -39.4897 	 -1.84552 	 -20.593
| 24> C 	 -39.3977 	 -1.48985 	 -18.8976
| 25> C 	 -40.6373 	 -0.954153 	 -18.4765
| 26> C 	 -41.6441 	 -0.945678 	 -19.4418
| 27> C 	 -41.2859 	 -1.74823 	 -20.5171
| 28> H 	 -40.7721 	 -0.636418 	 -17.432
| 29> C 	 -42.9908 	 -0.435887 	 -19.0323
| 30> H 	 -43.5689 	 -0.208382 	 -19.9058
| 31> H 	 -42.9072 	 0.473186 	 -18.4623
| 32> C 	 -43.8165 	 -1.41348 	 -18.1658
| 33> H 	 -43.336 	 -1.36682 	 -17.1018
| 34> H 	 -43.5225 	 -2.41263 	 -18.5875
| 35> C 	 -45.3433 	 -1.24654 	 -18.1665
| 36> H 	 -45.836 	 -1.2729 	 -19.1563
| 37> H 	 -45.4508 	 -0.190911 	 -17.7995
| 38> H 	 -45.9137 	 -1.91723 	 -17.4659
| 39> H 	 -42.679 	 -4.54391 	 -24.4207
| 40> H 	 -38.5072 	 -1.41204 	 -18.3227
| 41> *
| 42>
| 43>                          ****END OF INPUT****

CARTESIAN COORDINATES (ANGSTROEM)
---------------------------------
  S    -41.226200   -3.097190  -23.061000
  C    -42.702400   -3.782140  -23.662300
  C    -43.701200   -3.399130  -22.786100
  C    -43.298700   -2.536630  -21.723300
  C    -41.970600   -2.336300  -21.676100
  H    -43.923900   -2.414830  -20.916000
  C    -45.011500   -4.060890  -22.714800
  H    -45.592000   -3.839630  -23.671600
  H    -45.698500   -3.758950  -21.906100
  C    -44.989300   -5.609930  -22.754100
  H    -45.941100   -6.058450  -22.521700
  H    -44.615900   -5.960500  -23.695400
  C    -44.072900   -6.170150  -21.636400
  H    -44.425500   -5.825140  -20.573300
  H    -44.071300   -7.255730  -21.693300
  H    -42.990800   -6.017950  -21.855800
  S    -39.489700   -1.845520  -20.593000
  C    -39.397700   -1.489850  -18.897600
  C    -40.637300   -0.954153  -18.476500
  C    -41.644100   -0.945678  -19.441800
  C    -41.285900   -1.748230  -20.517100
  H    -40.772100   -0.636418  -17.432000
  C    -42.990800   -0.435887  -19.032300
  H    -43.568900   -0.208382  -19.905800
  H    -42.907200    0.473186  -18.462300
  C    -43.816500   -1.413480  -18.165800
  H    -43.336000   -1.366820  -17.101800
  H    -43.522500   -2.412630  -18.587500
  C    -45.343300   -1.246540  -18.166500
  H    -45.836000   -1.272900  -19.156300
  H    -45.450800   -0.190911  -17.799500
  H    -45.913700   -1.917230  -17.465900
  H    -42.679000   -4.543910  -24.420700
  H    -38.507200   -1.412040  -18.322700

 Total Charge           Charge          ....    0
 Multiplicity           Mult            ....    1
 Number of Electrons    NEL             ....  134
 Basis Dimension        Dim             ....  322

ORBITAL ENERGIES
----------------

  NO   OCC          E(Eh)            E(eV)
   0   2.0000     -88.964855     -2420.8568
   1   2.0000     -88.964780     -2420.8547
   2   2.0000     -10.336578      -281.2726
   3   2.0000     -10.330999      -281.1208
   4   2.0000     -10.317530      -280.7543
   5   2.0000     -10.314658      -280.6761
   6   2.0000     -10.305599      -280.4296
   7   2.0000     -10.301839      -280.3273
   8   2.0000     -10.299306      -280.2584
   9   2.0000     -10.295873      -280.1650
  10   2.0000     -10.294526      -280.1283
  11   2.0000     -10.292632      -280.0767
  12   2.0000     -10.291322      -280.0411
  13   2.0000     -10.285860      -279.8925
  14   2.0000     -10.282659      -279.8054
  15   2.0000     -10.281553      -279.7753
  16   2.0000      -8.079993      -219.8678
  17   2.0000      -8.079339      -219.8500
  18   2.0000      -6.038676      -164.3207
  19   2.0000      -6.037804      -164.2970
  20   2.0000      -6.034313      -164.2020
  21   2.0000      -6.034192      -164.1987
  22   2.0000      -6.030646      -164.1022
  23   2.0000      -6.029850      -164.0806
  24   2.0000      -1.013227       -27.5713
  25   2.0000      -0.990687       -26.9580
  26   2.0000      -0.914817       -24.8934
  27   2.0000      -0.911664       -24.8076
  28   2.0000      -0.869917       -23.6716
  29   2.0000      -0.855042       -23.2669
  30   2.0000      -0.847551       -23.0630
  31   2.0000      -0.812226       -22.1018
  32   2.0000      -0.784789       -21.3552
  33   2.0000      -0.770669       -20.9710
  34   2.0000      -0.708000       -19.2657
  35   2.0000      -0.698068       -18.9954
  36   2.0000      -0.691052       -18.8045
  37   2.0000      -0.669131       -18.2080
  38   2.0000      -0.646182       -17.5835
  39   2.0000      -0.619448       -16.8560
  40   2.0000      -0.600973       -16.3533
  41   2.0000      -0.579628       -15.7725
  42   2.0000      -0.567148       -15.4329
  43   2.0000      -0.548573       -14.9274
  44   2.0000      -0.539154       -14.6711
  45   2.0000      -0.524097       -14.2614
  46   2.0000      -0.521600       -14.1934
  47   2.0000      -0.519769       -14.1436
  48   2.0000      -0.507354       -13.8058
  49   2.0000      -0.497150       -13.5281
  50   2.0000      -0.495344       -13.4790
  51   2.0000      -0.485905       -13.2221
  52   2.0000      -0.472947       -12.8696
  53   2.0000      -0.466642       -12.6980
  54   2.0000      -0.461096       -12.5471
  55   2.0000      -0.444636       -12.0992
  56   2.0000      -0.442047       -12.0287
  57   2.0000      -0.433390       -11.7931
  58   2.0000      -0.427775       -11.6403
  59   2.0000      -0.422121       -11.4865
  60   2.0000      -0.417738       -11.3672
  61   2.0000      -0.413294       -11.2463
  62   2.0000      -0.409712       -11.1488
  63   2.0000      -0.363308        -9.8861
  64   2.0000      -0.332870        -9.0579
  65   2.0000      -0.324953        -8.8424
  66   2.0000      -0.280056        -7.6207
  67   0.0000       0.009446         0.2570
  68   0.0000       0.080367         2.1869
  69   0.0000       0.092847         2.5265
  70   0.0000       0.113057         3.0764
  71   0.0000       0.127326         3.4647

MULLIKEN ATOMIC CHARGES
-----------------------
   0 S :    0.092667
   1 C :   -0.121707
   2 C :   -0.056197
   3 C :    0.016922
   4 C :   -0.043588
   5 H :   -0.040787
   6 C :    0.020088
   7 H :    0.043131
   8 H :    0.028618
   9 C :   -0.059106
  10 H :    0.030728
  11 H :    0.018290
  12 C :   -0.097350
  13 H :    0.048282
  14 H :    0.024655
  15 H :    0.042076
  16 S :    0.086297
  17 C :   -0.058161
  18 C :   -0.076576
  19 C :   -0.014246
  20 C :   -0.157669
  21 H :    0.030285
  22 C :    0.066316
  23 H :    0.018099
  24 H :    0.024886
  25 C :   -0.123474
  26 H :    0.042662
  27 H :    0.040615
  28 C :   -0.062117
  29 H :    0.044426
  30 H :    0.032737
  31 H :    0.055371
  32 H :    0.053970
  33 H :    0.049859
Sum of atomic charges:   -0.0000000

LOEWDIN ATOMIC CHARGES
----------------------
   0 S :    0.407317
   1 C :   -0.197870
   2 C :   -0.059135
   3 C :   -0.065929
   4 C :   -0.182343
   5 H :    0.016575
   6 C :   -0.044168
   7 H :    0.041951
   8 H :    0.029645
   9 C :   -0.035773
  10 H :    0.024917
  11 H :    0.016117
  12 C :   -0.081865
  13 H :    0.034585
  14 H :    0.020886
  15 H :    0.028114
  16 S :    0.387786
  17 C :   -0.183618
  18 C :   -0.069691
  19 C :   -0.058214
  20 C :   -0.157781
  21 H :    0.033270
  22 C :   -0.033349
  23 H :    0.025241
  24 H :    0.030270
  25 C :   -0.051584
  26 H :    0.033635
  27 H :    0.021686
  28 C :   -0.077373
  29 H :    0.027345
  30 H :    0.031299
  31 H :    0.036125
  32 H :    0.027988
  33 H :    0.023944

  Mayer bond orders larger than 0.100000
B(  0-S ,  1-C ) :   1.1240 B(  0-S ,  4-C ) :   1.1468 B(  1-C ,  2-C ) :   1.5755
B(  1-C , 32-H ) :   0.9790 B(  2-C ,  3-C ) :   1.2686 B(  2-C ,  6-C ) :   1.0349
B(  3-C ,  4-C ) :   1.5527 B(  3-C ,  5-H ) :   1.0058 B(  4-C , 20-C ) :   1.0934
B(  6-C ,  7-H ) :   0.9292 B(  6-C ,  8-H ) :   0.9527 B(  6-C ,  9-C ) :   1.0772
B(  9-C , 10-H ) :   0.9583 B(  9-C , 11-H ) :   0.9505 B(  9-C , 12-C ) :   1.0806
B( 12-C , 13-H ) :   0.9749 B( 12-C , 14-H ) :   0.9733 B( 12-C , 15-H ) :   0.9688
B( 16-S , 17-C ) :   1.1551 B( 16-S , 20-C ) :   1.1381 B( 17-C , 18-C ) :   1.5883
B( 17-C , 20-C ) :   0.1145 B( 17-C , 33-H ) :   0.9746 B( 18-C , 19-C ) :   1.2363
B( 18-C , 21-H ) :   0.9872 B( 19-C , 20-C ) :   1.5431 B( 19-C , 22-C ) :   1.0825
B( 22-C , 23-H ) :   0.9309 B( 22-C , 24-H ) :   0.9252 B( 22-C , 25-C ) :   1.0430
B( 25-C , 26-H ) :   0.9507 B( 25-C , 27-H ) :   0.9592 B( 25-C , 28-C ) :   1.0703
B( 28-C , 29-H ) :   0.9731 B( 28-C , 30-H ) :   0.9712 B( 28-C , 31-H ) :   0.9733

Dispersion correction           -0.015253932
FINAL SINGLE POINT ENERGY     -1339.849074112966

DIPOLE MOMENT
-------------
                                X             Y             Z
Electronic contribution:     25.56643       7.42410     -10.54004
Nuclear contribution   :    -26.16786      -7.58669      10.99196
                        -----------------------------------------
Total Dipole Moment    :     -0.60143      -0.16259       0.45192
                        -----------------------------------------
Magnitude (a.u.)       :      0.76966
Magnitude (Debye)      :      1.95633

Rotational constants in cm-1:     0.017441     0.010425     0.007368
Rotational constants in MHz :   522.882373   312.542963   220.883347

                             ****ORCA TERMINATED NORMALLY****
TOTAL RUN TIME: 0 days 0 hours 0 minutes 22 seconds 585 msec
