                         Program Version 4.2.1 -  RELEASE  -
|  1> ! wB97X-D3 SP def2-SVP
|  2> %pal
|  3> nprocs 24
|  4> end
|  5>
|  6> * xyz 0 1
|  7> S 	 22.5021 	 -0.191641 	 -110.505
|  8> C 	 21.5057 	 -1.5836 	 -110.932
|  9> C 	 20.1821 	 -1.35036 	 -110.679
| 10> C 	 19.9337 	 0.0028217 	 -110.325
| 11> C 	 21.0703 	 0.761388 	 -110.194
| 12> H 	 18.9283 	 0.402913 	 -110.146
| 13> C 	 19.0572 	 -2.32551 	 -110.882
| 14> H 	 19.5181 	 -3.11815 	 -111.502
| 15> H 	 18.2143 	 -1.85099 	 -111.429
| 16> C 	 18.3811 	 -2.93461 	 -109.602
| 17> H 	 17.637 	 -3.65404 	 -110.019
| 18> H 	 19.1015 	 -3.48912 	 -108.999
| 19> C 	 17.7382 	 -1.95671 	 -108.579
| 20> H 	 17.008 	 -1.23808 	 -108.997
| 21> H 	 17.1594 	 -2.49326 	 -107.742
| 22> H 	 18.5485 	 -1.53625 	 -107.945
| 23> S 	 21.896 	 3.20047 	 -111.292
| 24> C 	 21.7373 	 4.6711 	 -110.335
| 25> C 	 21.1508 	 4.41665 	 -109.107
| 26> C 	 20.8872 	 2.97954 	 -108.861
| 27> C 	 21.2031 	 2.22088 	 -109.984
| 28> H 	 21.049 	 5.17256 	 -108.396
| 29> C 	 20.1179 	 2.42118 	 -107.662
| 30> H 	 20.289 	 1.40702 	 -107.538
| 31> H 	 19.1213 	 2.49526 	 -108.037
| 32> C 	 20.2609 	 3.22791 	 -106.377
| 33> H 	 19.6947 	 2.7909 	 -105.591
| 34> H 	 19.9293 	 4.31531 	 -106.478
| 35> C 	 21.708 	 3.21254 	 -105.919
| 36> H 	 22.0152 	 3.69225 	 -104.959
| 37> H 	 22.4032 	 3.5618 	 -106.687
| 38> H 	 22.0833 	 2.15928 	 -105.82
| 39> H 	 21.8192 	 -2.60224 	 -111.177
| 40> H 	 22.0211 	 5.73408 	 -110.513
| 41> *
| 42>
| 43>                          ****END OF INPUT****

CARTESIAN COORDINATES (ANGSTROEM)
---------------------------------
  S     22.502100   -0.191641  -110.505000
  C     21.505700   -1.583600  -110.932000
  C     20.182100   -1.350360  -110.679000
  C     19.933700    0.002822  -110.325000
  C     21.070300    0.761388  -110.194000
  H     18.928300    0.402913  -110.146000
  C     19.057200   -2.325510  -110.882000
  H     19.518100   -3.118150  -111.502000
  H     18.214300   -1.850990  -111.429000
  C     18.381100   -2.934610  -109.602000
  H     17.637000   -3.654040  -110.019000
  H     19.101500   -3.489120  -108.999000
  C     17.738200   -1.956710  -108.579000
  H     17.008000   -1.238080  -108.997000
  H     17.159400   -2.493260  -107.742000
  H     18.548500   -1.536250  -107.945000
  S     21.896000    3.200470  -111.292000
  C     21.737300    4.671100  -110.335000
  C     21.150800    4.416650  -109.107000
  C     20.887200    2.979540  -108.861000
  C     21.203100    2.220880  -109.984000
  H     21.049000    5.172560  -108.396000
  C     20.117900    2.421180  -107.662000
  H     20.289000    1.407020  -107.538000
  H     19.121300    2.495260  -108.037000
  C     20.260900    3.227910  -106.377000
  H     19.694700    2.790900  -105.591000
  H     19.929300    4.315310  -106.478000
  C     21.708000    3.212540  -105.919000
  H     22.015200    3.692250  -104.959000
  H     22.403200    3.561800  -106.687000
  H     22.083300    2.159280  -105.820000
  H     21.819200   -2.602240  -111.177000
  H     22.021100    5.734080  -110.513000

 Total Charge           Charge          ....    0
 Multiplicity           Mult            ....    1
 Number of Electrons    NEL             ....  134
 Basis Dimension        Dim             ....  322

ORBITAL ENERGIES
----------------

  NO   OCC          E(Eh)            E(eV)
   0   2.0000     -88.966894     -2420.9123
   1   2.0000     -88.966461     -2420.9005
   2   2.0000     -10.329095      -281.0690
   3   2.0000     -10.326353      -280.9944
   4   2.0000     -10.321860      -280.8721
   5   2.0000     -10.314166      -280.6627
   6   2.0000     -10.309185      -280.5272
   7   2.0000     -10.299322      -280.2588
   8   2.0000     -10.296602      -280.1848
   9   2.0000     -10.296020      -280.1689
  10   2.0000     -10.293503      -280.1004
  11   2.0000     -10.293163      -280.0912
  12   2.0000     -10.292631      -280.0767
  13   2.0000     -10.290955      -280.0311
  14   2.0000     -10.287376      -279.9337
  15   2.0000     -10.276967      -279.6505
  16   2.0000      -8.081369      -219.9052
  17   2.0000      -8.080267      -219.8752
  18   2.0000      -6.039969      -164.3559
  19   2.0000      -6.039071      -164.3315
  20   2.0000      -6.035936      -164.2462
  21   2.0000      -6.034889      -164.2177
  22   2.0000      -6.032013      -164.1394
  23   2.0000      -6.030769      -164.1056
  24   2.0000      -1.003419       -27.3044
  25   2.0000      -0.979127       -26.6434
  26   2.0000      -0.913477       -24.8570
  27   2.0000      -0.906793       -24.6751
  28   2.0000      -0.865659       -23.5558
  29   2.0000      -0.846228       -23.0270
  30   2.0000      -0.839314       -22.8389
  31   2.0000      -0.817358       -22.2414
  32   2.0000      -0.785018       -21.3614
  33   2.0000      -0.771959       -21.0061
  34   2.0000      -0.706040       -19.2123
  35   2.0000      -0.697159       -18.9707
  36   2.0000      -0.695786       -18.9333
  37   2.0000      -0.654068       -17.7981
  38   2.0000      -0.636191       -17.3116
  39   2.0000      -0.616965       -16.7885
  40   2.0000      -0.594031       -16.1644
  41   2.0000      -0.577235       -15.7074
  42   2.0000      -0.558096       -15.1866
  43   2.0000      -0.548731       -14.9317
  44   2.0000      -0.538260       -14.6468
  45   2.0000      -0.532397       -14.4873
  46   2.0000      -0.516383       -14.0515
  47   2.0000      -0.508452       -13.8357
  48   2.0000      -0.499951       -13.6043
  49   2.0000      -0.490381       -13.3439
  50   2.0000      -0.488556       -13.2943
  51   2.0000      -0.480618       -13.0783
  52   2.0000      -0.469590       -12.7782
  53   2.0000      -0.461011       -12.5447
  54   2.0000      -0.458254       -12.4697
  55   2.0000      -0.444922       -12.1070
  56   2.0000      -0.441727       -12.0200
  57   2.0000      -0.438710       -11.9379
  58   2.0000      -0.434897       -11.8341
  59   2.0000      -0.427380       -11.6296
  60   2.0000      -0.423458       -11.5229
  61   2.0000      -0.416819       -11.3422
  62   2.0000      -0.412815       -11.2333
  63   2.0000      -0.339901        -9.2492
  64   2.0000      -0.329748        -8.9729
  65   2.0000      -0.324715        -8.8359
  66   2.0000      -0.301905        -8.2153
  67   0.0000       0.037164         1.0113
  68   0.0000       0.066224         1.8020
  69   0.0000       0.117809         3.2058
  70   0.0000       0.121260         3.2996
  71   0.0000       0.122494         3.3332

MULLIKEN ATOMIC CHARGES
-----------------------
   0 S :    0.118902
   1 C :   -0.119877
   2 C :   -0.095410
   3 C :    0.043105
   4 C :   -0.173603
   5 H :    0.014478
   6 C :    0.046457
   7 H :    0.025604
   8 H :    0.038919
   9 C :   -0.066241
  10 H :    0.042806
  11 H :    0.026767
  12 C :   -0.108038
  13 H :    0.045294
  14 H :    0.040501
  15 H :    0.048788
  16 S :    0.118091
  17 C :   -0.090007
  18 C :   -0.026725
  19 C :   -0.068492
  20 C :   -0.171046
  21 H :    0.000183
  22 C :    0.117971
  23 H :    0.017095
  24 H :    0.037586
  25 C :   -0.051042
  26 H :    0.026345
  27 H :    0.041324
  28 C :   -0.092953
  29 H :    0.042126
  30 H :    0.035901
  31 H :    0.021813
  32 H :    0.045151
  33 H :    0.068224
Sum of atomic charges:   -0.0000000

LOEWDIN ATOMIC CHARGES
----------------------
   0 S :    0.403747
   1 C :   -0.196050
   2 C :   -0.072667
   3 C :   -0.059170
   4 C :   -0.195347
   5 H :    0.033802
   6 C :   -0.034356
   7 H :    0.034490
   8 H :    0.035553
   9 C :   -0.041797
  10 H :    0.028363
  11 H :    0.023852
  12 C :   -0.085565
  13 H :    0.023945
  14 H :    0.037051
  15 H :    0.031930
  16 S :    0.392256
  17 C :   -0.190302
  18 C :   -0.069489
  19 C :   -0.042291
  20 C :   -0.204945
  21 H :    0.017620
  22 C :   -0.020621
  23 H :    0.023477
  24 H :    0.037687
  25 C :   -0.041876
  26 H :    0.023596
  27 H :    0.030763
  28 C :   -0.081310
  29 H :    0.027896
  30 H :    0.024843
  31 H :    0.028555
  32 H :    0.031305
  33 H :    0.045059

  Mayer bond orders larger than 0.100000
B(  0-S ,  1-C ) :   1.1267 B(  0-S ,  4-C ) :   1.1542 B(  1-C ,  2-C ) :   1.6409
B(  1-C , 32-H ) :   0.9569 B(  2-C ,  3-C ) :   1.2311 B(  2-C ,  6-C ) :   1.0222
B(  3-C ,  4-C ) :   1.5894 B(  3-C ,  5-H ) :   0.9917 B(  4-C , 20-C ) :   1.0102
B(  6-C ,  7-H ) :   0.9390 B(  6-C ,  8-H ) :   0.9441 B(  6-C ,  9-C ) :   1.0638
B(  9-C , 10-H ) :   0.9595 B(  9-C , 11-H ) :   0.9550 B(  9-C , 12-C ) :   1.0772
B( 12-C , 13-H ) :   0.9743 B( 12-C , 14-H ) :   0.9702 B( 12-C , 15-H ) :   0.9708
B( 16-S , 17-C ) :   1.1344 B( 16-S , 20-C ) :   1.1242 B( 17-C , 18-C ) :   1.6588
B( 17-C , 33-H ) :   0.9568 B( 18-C , 19-C ) :   1.1996 B( 18-C , 21-H ) :   0.9871
B( 19-C , 20-C ) :   1.6363 B( 19-C , 22-C ) :   1.0264 B( 22-C , 23-H ) :   0.9276
B( 22-C , 24-H ) :   0.9301 B( 22-C , 25-C ) :   1.0811 B( 25-C , 26-H ) :   0.9523
B( 25-C , 27-H ) :   0.9497 B( 25-C , 28-C ) :   1.0687 B( 28-C , 29-H ) :   0.9762
B( 28-C , 30-H ) :   0.9724 B( 28-C , 31-H ) :   0.9694

Dispersion correction           -0.014836182
FINAL SINGLE POINT ENERGY     -1339.880458671941

DIPOLE MOMENT
-------------
                                X             Y             Z
Electronic contribution:     16.02525       7.27947     -19.32263
Nuclear contribution   :    -16.59705      -7.45256      19.79212
                        -----------------------------------------
Total Dipole Moment    :     -0.57180      -0.17308       0.46949
                        -----------------------------------------
Magnitude (a.u.)       :      0.75983
Magnitude (Debye)      :      1.93132

Rotational constants in cm-1:     0.018656     0.008970     0.007051
Rotational constants in MHz :   559.281580   268.908785   211.389564

                             ****ORCA TERMINATED NORMALLY****
TOTAL RUN TIME: 0 days 0 hours 0 minutes 22 seconds 58 msec
