                         Program Version 4.2.1 -  RELEASE  -
|  1> ! wB97X-D3 SP def2-SVP
|  2> %pal
|  3> nprocs 24
|  4> end
|  5>
|  6> * xyz 0 1
|  7> S 	 -113.1 	 54.9702 	 -81.8994
|  8> C 	 -113.502 	 55.5006 	 -83.5311
|  9> C 	 -112.842 	 56.6803 	 -83.8394
| 10> C 	 -112.03 	 57.1603 	 -82.7773
| 11> C 	 -112.151 	 56.4301 	 -81.6165
| 12> H 	 -111.493 	 58.0069 	 -82.8691
| 13> C 	 -113.041 	 57.3304 	 -85.2088
| 14> H 	 -113.258 	 56.4171 	 -85.8567
| 15> H 	 -112.041 	 57.6331 	 -85.6206
| 16> C 	 -114.05 	 58.3921 	 -85.4409
| 17> H 	 -114.288 	 58.6304 	 -86.4808
| 18> H 	 -114.966 	 57.8847 	 -85.0074
| 19> C 	 -113.656 	 59.7095 	 -84.829
| 20> H 	 -114.295 	 60.5815 	 -85.1659
| 21> H 	 -113.807 	 59.6609 	 -83.7365
| 22> H 	 -112.618 	 59.903 	 -84.9531
| 23> S 	 -111.149 	 55.3753 	 -79.2644
| 24> C 	 -110.595 	 56.5187 	 -78.0441
| 25> C 	 -110.773 	 57.8158 	 -78.4121
| 26> C 	 -111.387 	 57.9527 	 -79.6859
| 27> C 	 -111.58 	 56.7621 	 -80.3228
| 28> H 	 -110.516 	 58.6272 	 -77.7789
| 29> C 	 -111.777 	 59.3053 	 -80.2657
| 30> H 	 -112.254 	 59.1508 	 -81.2357
| 31> H 	 -110.92 	 59.9494 	 -80.5008
| 32> C 	 -112.747 	 60.1473 	 -79.4169
| 33> H 	 -112.271 	 60.6552 	 -78.5664
| 34> H 	 -113.41 	 59.4848 	 -78.9582
| 35> C 	 -113.473 	 61.2758 	 -80.111
| 36> H 	 -112.862 	 62.0149 	 -80.6448
| 37> H 	 -114.158 	 61.8315 	 -79.4439
| 38> H 	 -114.138 	 60.8502 	 -80.893
| 39> H 	 -113.835 	 54.935 	 -84.4331
| 40> H 	 -110.216 	 56.3584 	 -77.0619
| 41> *
| 42>
| 43>                          ****END OF INPUT****

CARTESIAN COORDINATES (ANGSTROEM)
---------------------------------
  S    -113.100000   54.970200  -81.899400
  C    -113.502000   55.500600  -83.531100
  C    -112.842000   56.680300  -83.839400
  C    -112.030000   57.160300  -82.777300
  C    -112.151000   56.430100  -81.616500
  H    -111.493000   58.006900  -82.869100
  C    -113.041000   57.330400  -85.208800
  H    -113.258000   56.417100  -85.856700
  H    -112.041000   57.633100  -85.620600
  C    -114.050000   58.392100  -85.440900
  H    -114.288000   58.630400  -86.480800
  H    -114.966000   57.884700  -85.007400
  C    -113.656000   59.709500  -84.829000
  H    -114.295000   60.581500  -85.165900
  H    -113.807000   59.660900  -83.736500
  H    -112.618000   59.903000  -84.953100
  S    -111.149000   55.375300  -79.264400
  C    -110.595000   56.518700  -78.044100
  C    -110.773000   57.815800  -78.412100
  C    -111.387000   57.952700  -79.685900
  C    -111.580000   56.762100  -80.322800
  H    -110.516000   58.627200  -77.778900
  C    -111.777000   59.305300  -80.265700
  H    -112.254000   59.150800  -81.235700
  H    -110.920000   59.949400  -80.500800
  C    -112.747000   60.147300  -79.416900
  H    -112.271000   60.655200  -78.566400
  H    -113.410000   59.484800  -78.958200
  C    -113.473000   61.275800  -80.111000
  H    -112.862000   62.014900  -80.644800
  H    -114.158000   61.831500  -79.443900
  H    -114.138000   60.850200  -80.893000
  H    -113.835000   54.935000  -84.433100
  H    -110.216000   56.358400  -77.061900

 Total Charge           Charge          ....    0
 Multiplicity           Mult            ....    1
 Number of Electrons    NEL             ....  134
 Basis Dimension        Dim             ....  322

ORBITAL ENERGIES
----------------

  NO   OCC          E(Eh)            E(eV)
   0   2.0000     -88.970994     -2421.0238
   1   2.0000     -88.968739     -2420.9625
   2   2.0000     -10.334008      -281.2027
   3   2.0000     -10.330480      -281.1066
   4   2.0000     -10.317622      -280.7568
   5   2.0000     -10.316086      -280.7150
   6   2.0000     -10.304730      -280.4060
   7   2.0000     -10.301569      -280.3200
   8   2.0000     -10.298428      -280.2345
   9   2.0000     -10.293657      -280.1047
  10   2.0000     -10.290534      -280.0197
  11   2.0000     -10.287927      -279.9487
  12   2.0000     -10.287206      -279.9291
  13   2.0000     -10.281893      -279.7845
  14   2.0000     -10.281284      -279.7679
  15   2.0000     -10.279743      -279.7260
  16   2.0000      -8.084943      -220.0025
  17   2.0000      -8.082709      -219.9417
  18   2.0000      -6.043604      -164.4548
  19   2.0000      -6.041399      -164.3948
  20   2.0000      -6.039589      -164.3456
  21   2.0000      -6.037501      -164.2888
  22   2.0000      -6.035549      -164.2356
  23   2.0000      -6.033142      -164.1701
  24   2.0000      -1.008672       -27.4474
  25   2.0000      -0.985603       -26.8196
  26   2.0000      -0.918792       -25.0016
  27   2.0000      -0.910186       -24.7674
  28   2.0000      -0.874671       -23.8010
  29   2.0000      -0.857231       -23.3264
  30   2.0000      -0.846297       -23.0289
  31   2.0000      -0.821693       -22.3594
  32   2.0000      -0.785161       -21.3653
  33   2.0000      -0.773123       -21.0377
  34   2.0000      -0.710664       -19.3381
  35   2.0000      -0.702448       -19.1146
  36   2.0000      -0.697373       -18.9765
  37   2.0000      -0.665095       -18.0982
  38   2.0000      -0.637670       -17.3519
  39   2.0000      -0.624309       -16.9883
  40   2.0000      -0.600187       -16.3319
  41   2.0000      -0.576544       -15.6886
  42   2.0000      -0.565858       -15.3978
  43   2.0000      -0.560062       -15.2401
  44   2.0000      -0.543357       -14.7855
  45   2.0000      -0.521831       -14.1997
  46   2.0000      -0.515036       -14.0148
  47   2.0000      -0.511198       -13.9104
  48   2.0000      -0.508861       -13.8468
  49   2.0000      -0.503014       -13.6877
  50   2.0000      -0.488373       -13.2893
  51   2.0000      -0.479969       -13.0606
  52   2.0000      -0.476493       -12.9660
  53   2.0000      -0.465312       -12.6618
  54   2.0000      -0.461762       -12.5652
  55   2.0000      -0.455732       -12.4011
  56   2.0000      -0.445408       -12.1202
  57   2.0000      -0.437596       -11.9076
  58   2.0000      -0.432860       -11.7787
  59   2.0000      -0.428266       -11.6537
  60   2.0000      -0.417152       -11.3513
  61   2.0000      -0.411589       -11.1999
  62   2.0000      -0.406442       -11.0599
  63   2.0000      -0.356621        -9.7041
  64   2.0000      -0.337756        -9.1908
  65   2.0000      -0.333674        -9.0797
  66   2.0000      -0.289939        -7.8896
  67   0.0000       0.018611         0.5064
  68   0.0000       0.074889         2.0378
  69   0.0000       0.096820         2.6346
  70   0.0000       0.116102         3.1593
  71   0.0000       0.125127         3.4049

MULLIKEN ATOMIC CHARGES
-----------------------
   0 S :    0.110846
   1 C :   -0.111293
   2 C :   -0.128594
   3 C :    0.073013
   4 C :   -0.117640
   5 H :   -0.036207
   6 C :    0.001216
   7 H :    0.024156
   8 H :    0.025625
   9 C :   -0.023859
  10 H :    0.034617
  11 H :    0.030294
  12 C :   -0.065921
  13 H :    0.045085
  14 H :    0.035690
  15 H :    0.022531
  16 S :    0.095005
  17 C :   -0.053425
  18 C :   -0.024987
  19 C :   -0.043486
  20 C :   -0.139888
  21 H :    0.007127
  22 C :    0.073102
  23 H :    0.009426
  24 H :    0.034353
  25 C :   -0.051876
  26 H :    0.022162
  27 H :    0.018792
  28 C :   -0.073657
  29 H :    0.032175
  30 H :    0.038193
  31 H :    0.030172
  32 H :    0.065157
  33 H :    0.042096
Sum of atomic charges:   -0.0000000

LOEWDIN ATOMIC CHARGES
----------------------
   0 S :    0.396515
   1 C :   -0.213052
   2 C :   -0.060822
   3 C :   -0.053491
   4 C :   -0.177047
   5 H :    0.010444
   6 C :   -0.042457
   7 H :    0.036510
   8 H :    0.027009
   9 C :   -0.050916
  10 H :    0.028409
  11 H :    0.033265
  12 C :   -0.070371
  13 H :    0.034608
  14 H :    0.026759
  15 H :    0.018478
  16 S :    0.374820
  17 C :   -0.168326
  18 C :   -0.063805
  19 C :   -0.052187
  20 C :   -0.175571
  21 H :    0.028639
  22 C :   -0.031239
  23 H :    0.028542
  24 H :    0.033206
  25 C :   -0.041997
  26 H :    0.023054
  27 H :    0.018788
  28 C :   -0.069843
  29 H :    0.024620
  30 H :    0.031315
  31 H :    0.025136
  32 H :    0.042603
  33 H :    0.028405

  Mayer bond orders larger than 0.100000
B(  0-S ,  1-C ) :   1.1244 B(  0-S ,  4-C ) :   1.1415 B(  1-C ,  2-C ) :   1.6258
B(  1-C , 32-H ) :   0.9495 B(  2-C ,  3-C ) :   1.2573 B(  2-C ,  6-C ) :   1.0164
B(  3-C ,  4-C ) :   1.5370 B(  3-C ,  5-H ) :   1.0132 B(  4-C , 20-C ) :   1.0687
B(  6-C ,  7-H ) :   0.9362 B(  6-C ,  8-H ) :   0.9410 B(  6-C ,  9-C ) :   1.0735
B(  9-C , 10-H ) :   0.9523 B(  9-C , 11-H ) :   0.9470 B(  9-C , 12-C ) :   1.0757
B( 12-C , 13-H ) :   0.9720 B( 12-C , 14-H ) :   0.9737 B( 12-C , 15-H ) :   0.9724
B( 16-S , 17-C ) :   1.1318 B( 16-S , 20-C ) :   1.1024 B( 17-C , 18-C ) :   1.6504
B( 17-C , 33-H ) :   0.9645 B( 18-C , 19-C ) :   1.2136 B( 18-C , 21-H ) :   0.9939
B( 19-C , 20-C ) :   1.6374 B( 19-C , 22-C ) :   1.0503 B( 22-C , 23-H ) :   0.9307
B( 22-C , 24-H ) :   0.9274 B( 22-C , 25-C ) :   1.0572 B( 25-C , 26-H ) :   0.9491
B( 25-C , 27-H ) :   0.9548 B( 25-C , 28-C ) :   1.0965 B( 28-C , 29-H ) :   0.9745
B( 28-C , 30-H ) :   0.9723 B( 28-C , 31-H ) :   0.9724

Dispersion correction           -0.014580955
FINAL SINGLE POINT ENERGY     -1339.871285671531

DIPOLE MOMENT
-------------
                                X             Y             Z
Electronic contribution:      8.33307     -28.61127      12.46067
Nuclear contribution   :     -8.29045      29.33763     -12.61542
                        -----------------------------------------
Total Dipole Moment    :      0.04262       0.72636      -0.15475
                        -----------------------------------------
Magnitude (a.u.)       :      0.74389
Magnitude (Debye)      :      1.89081

Rotational constants in cm-1:     0.016902     0.010257     0.006830
Rotational constants in MHz :   506.708571   307.499222   204.756313

                             ****ORCA TERMINATED NORMALLY****
TOTAL RUN TIME: 0 days 0 hours 0 minutes 22 seconds 510 msec
