                         Program Version 4.2.1 -  RELEASE  -
|  1> ! wB97X-D3 SP def2-SVP
|  2> %pal
|  3> nprocs 24
|  4> end
|  5>
|  6> * xyz 0 1
|  7> S 	 -44.6551 	 27.5703 	 27.779
|  8> C 	 -46.313 	 27.7575 	 27.9777
|  9> C 	 -46.8928 	 26.997 	 29.0152
| 10> C 	 -45.8466 	 26.2205 	 29.6345
| 11> C 	 -44.6064 	 26.4288 	 29.0949
| 12> H 	 -46.0141 	 25.5108 	 30.4052
| 13> C 	 -48.3204 	 27.0228 	 29.5005
| 14> H 	 -48.785 	 26.1047 	 29.0541
| 15> H 	 -48.8873 	 27.8005 	 29.0858
| 16> C 	 -48.5701 	 26.9849 	 31.0677
| 17> H 	 -49.5905 	 26.5881 	 31.3905
| 18> H 	 -48.0062 	 26.25 	 31.5606
| 19> C 	 -48.2767 	 28.3432 	 31.6719
| 20> H 	 -48.8852 	 29.1936 	 31.3009
| 21> H 	 -48.4877 	 28.325 	 32.725
| 22> H 	 -47.1997 	 28.5745 	 31.5093
| 23> S 	 -42.5699 	 24.9838 	 28.1046
| 24> C 	 -41.2086 	 24.6745 	 29.1143
| 25> C 	 -41.4823 	 24.8601 	 30.4597
| 26> C 	 -42.7655 	 25.4656 	 30.6665
| 27> C 	 -43.3828 	 25.7364 	 29.4221
| 28> H 	 -40.7 	 24.6142 	 31.165
| 29> C 	 -43.2695 	 25.741 	 32.0207
| 30> H 	 -44.0082 	 26.5459 	 32.0015
| 31> H 	 -42.3993 	 26.1335 	 32.5436
| 32> C 	 -43.7462 	 24.4451 	 32.6804
| 33> H 	 -42.949 	 23.7191 	 32.6841
| 34> H 	 -44.5645 	 24.0216 	 32.1551
| 35> C 	 -44.0475 	 24.7821 	 34.1149
| 36> H 	 -44.8708 	 25.4665 	 34.3535
| 37> H 	 -43.1039 	 24.9038 	 34.6957
| 38> H 	 -44.5024 	 23.9154 	 34.6615
| 39> H 	 -46.9382 	 28.2937 	 27.3805
| 40> H 	 -40.2537 	 24.4322 	 28.7212
| 41> *
| 42>
| 43>                          ****END OF INPUT****

CARTESIAN COORDINATES (ANGSTROEM)
---------------------------------
  S    -44.655100   27.570300   27.779000
  C    -46.313000   27.757500   27.977700
  C    -46.892800   26.997000   29.015200
  C    -45.846600   26.220500   29.634500
  C    -44.606400   26.428800   29.094900
  H    -46.014100   25.510800   30.405200
  C    -48.320400   27.022800   29.500500
  H    -48.785000   26.104700   29.054100
  H    -48.887300   27.800500   29.085800
  C    -48.570100   26.984900   31.067700
  H    -49.590500   26.588100   31.390500
  H    -48.006200   26.250000   31.560600
  C    -48.276700   28.343200   31.671900
  H    -48.885200   29.193600   31.300900
  H    -48.487700   28.325000   32.725000
  H    -47.199700   28.574500   31.509300
  S    -42.569900   24.983800   28.104600
  C    -41.208600   24.674500   29.114300
  C    -41.482300   24.860100   30.459700
  C    -42.765500   25.465600   30.666500
  C    -43.382800   25.736400   29.422100
  H    -40.700000   24.614200   31.165000
  C    -43.269500   25.741000   32.020700
  H    -44.008200   26.545900   32.001500
  H    -42.399300   26.133500   32.543600
  C    -43.746200   24.445100   32.680400
  H    -42.949000   23.719100   32.684100
  H    -44.564500   24.021600   32.155100
  C    -44.047500   24.782100   34.114900
  H    -44.870800   25.466500   34.353500
  H    -43.103900   24.903800   34.695700
  H    -44.502400   23.915400   34.661500
  H    -46.938200   28.293700   27.380500
  H    -40.253700   24.432200   28.721200

 Total Charge           Charge          ....    0
 Multiplicity           Mult            ....    1
 Number of Electrons    NEL             ....  134
 Basis Dimension        Dim             ....  322

ORBITAL ENERGIES
----------------

  NO   OCC          E(Eh)            E(eV)
   0   2.0000     -88.967154     -2420.9193
   1   2.0000     -88.961482     -2420.7650
   2   2.0000     -10.321095      -280.8513
   3   2.0000     -10.318671      -280.7853
   4   2.0000     -10.308092      -280.4974
   5   2.0000     -10.303078      -280.3610
   6   2.0000     -10.302678      -280.3501
   7   2.0000     -10.299747      -280.2704
   8   2.0000     -10.296200      -280.1738
   9   2.0000     -10.293012      -280.0871
  10   2.0000     -10.291300      -280.0405
  11   2.0000     -10.289187      -279.9830
  12   2.0000     -10.285731      -279.8890
  13   2.0000     -10.284367      -279.8519
  14   2.0000     -10.281554      -279.7753
  15   2.0000     -10.277316      -279.6600
  16   2.0000      -8.083108      -219.9526
  17   2.0000      -8.077446      -219.7985
  18   2.0000      -6.041378      -164.3942
  19   2.0000      -6.037427      -164.2868
  20   2.0000      -6.035791      -164.2422
  21   2.0000      -6.034075      -164.1955
  22   2.0000      -6.031875      -164.1357
  23   2.0000      -6.028224      -164.0363
  24   2.0000      -1.011253       -27.5176
  25   2.0000      -0.987182       -26.8626
  26   2.0000      -0.920211       -25.0402
  27   2.0000      -0.908505       -24.7217
  28   2.0000      -0.869894       -23.6710
  29   2.0000      -0.855729       -23.2856
  30   2.0000      -0.849531       -23.1169
  31   2.0000      -0.814493       -22.1635
  32   2.0000      -0.781624       -21.2691
  33   2.0000      -0.767529       -20.8855
  34   2.0000      -0.711128       -19.3508
  35   2.0000      -0.704776       -19.1779
  36   2.0000      -0.693696       -18.8764
  37   2.0000      -0.662366       -18.0239
  38   2.0000      -0.643492       -17.5103
  39   2.0000      -0.626772       -17.0553
  40   2.0000      -0.597869       -16.2689
  41   2.0000      -0.576416       -15.6851
  42   2.0000      -0.563410       -15.3312
  43   2.0000      -0.554296       -15.0832
  44   2.0000      -0.533404       -14.5147
  45   2.0000      -0.522980       -14.2310
  46   2.0000      -0.517656       -14.0861
  47   2.0000      -0.514382       -13.9971
  48   2.0000      -0.506077       -13.7711
  49   2.0000      -0.497418       -13.5354
  50   2.0000      -0.487964       -13.2782
  51   2.0000      -0.483389       -13.1537
  52   2.0000      -0.469767       -12.7830
  53   2.0000      -0.465036       -12.6543
  54   2.0000      -0.457995       -12.4627
  55   2.0000      -0.451161       -12.2767
  56   2.0000      -0.445716       -12.1286
  57   2.0000      -0.440619       -11.9899
  58   2.0000      -0.436059       -11.8658
  59   2.0000      -0.430997       -11.7280
  60   2.0000      -0.428345       -11.6559
  61   2.0000      -0.415440       -11.3047
  62   2.0000      -0.412461       -11.2236
  63   2.0000      -0.346235        -9.4215
  64   2.0000      -0.326515        -8.8849
  65   2.0000      -0.322893        -8.7864
  66   2.0000      -0.285562        -7.7705
  67   0.0000       0.032221         0.8768
  68   0.0000       0.077012         2.0956
  69   0.0000       0.112666         3.0658
  70   0.0000       0.121915         3.3175
  71   0.0000       0.126266         3.4359

MULLIKEN ATOMIC CHARGES
-----------------------
   0 S :    0.141844
   1 C :   -0.063096
   2 C :   -0.112909
   3 C :    0.035376
   4 C :   -0.158707
   5 H :   -0.009283
   6 C :    0.084630
   7 H :    0.044017
   8 H :    0.006781
   9 C :   -0.068646
  10 H :    0.028144
  11 H :    0.010201
  12 C :   -0.059273
  13 H :    0.034004
  14 H :    0.026811
  15 H :    0.048374
  16 S :    0.116604
  17 C :   -0.090077
  18 C :   -0.044972
  19 C :   -0.017912
  20 C :   -0.173225
  21 H :    0.018463
  22 C :    0.068841
  23 H :    0.026394
  24 H :    0.018422
  25 C :   -0.028896
  26 H :    0.023515
  27 H :    0.022472
  28 C :   -0.062471
  29 H :    0.036858
  30 H :    0.041223
  31 H :    0.016645
  32 H :   -0.002088
  33 H :    0.041935
Sum of atomic charges:    0.0000000

LOEWDIN ATOMIC CHARGES
----------------------
   0 S :    0.444195
   1 C :   -0.206839
   2 C :   -0.058776
   3 C :   -0.055889
   4 C :   -0.204794
   5 H :    0.022749
   6 C :   -0.029997
   7 H :    0.041962
   8 H :    0.021722
   9 C :   -0.042263
  10 H :    0.031630
  11 H :    0.013939
  12 C :   -0.069313
  13 H :    0.027071
  14 H :    0.021926
  15 H :    0.032695
  16 S :    0.423856
  17 C :   -0.189434
  18 C :   -0.071093
  19 C :   -0.051616
  20 C :   -0.214713
  21 H :    0.032036
  22 C :   -0.031979
  23 H :    0.030309
  24 H :    0.032572
  25 C :   -0.028478
  26 H :    0.027115
  27 H :    0.019470
  28 C :   -0.079625
  29 H :    0.027718
  30 H :    0.032511
  31 H :    0.026850
  32 H :    0.005559
  33 H :    0.018925

  Mayer bond orders larger than 0.100000
B(  0-S ,  1-C ) :   1.1642 B(  0-S ,  4-C ) :   1.1541 B(  1-C ,  2-C ) :   1.5898
B(  1-C , 32-H ) :   0.9705 B(  2-C ,  3-C ) :   1.2468 B(  2-C ,  6-C ) :   1.0251
B(  3-C ,  4-C ) :   1.5663 B(  3-C ,  5-H ) :   1.0008 B(  4-C , 20-C ) :   1.0428
B(  6-C ,  7-H ) :   0.9283 B(  6-C ,  8-H ) :   0.9461 B(  6-C ,  9-C ) :   1.0640
B(  9-C , 10-H ) :   0.9548 B(  9-C , 11-H ) :   0.9527 B(  9-C , 12-C ) :   1.0764
B( 12-C , 13-H ) :   0.9758 B( 12-C , 14-H ) :   0.9726 B( 12-C , 15-H ) :   0.9753
B( 16-S , 17-C ) :   1.1595 B( 16-S , 20-C ) :   1.1628 B( 17-C , 18-C ) :   1.6019
B( 17-C , 33-H ) :   0.9728 B( 18-C , 19-C ) :   1.2287 B( 18-C , 21-H ) :   0.9931
B( 19-C , 20-C ) :   1.5632 B( 19-C , 22-C ) :   1.0599 B( 22-C , 23-H ) :   0.9299
B( 22-C , 24-H ) :   0.9279 B( 22-C , 25-C ) :   1.0626 B( 25-C , 26-H ) :   0.9508
B( 25-C , 27-H ) :   0.9537 B( 25-C , 28-C ) :   1.0927 B( 28-C , 29-H ) :   0.9712
B( 28-C , 30-H ) :   0.9725 B( 28-C , 31-H ) :   0.9669

Dispersion correction           -0.014578879
FINAL SINGLE POINT ENERGY     -1339.870602653337

DIPOLE MOMENT
-------------
                                X             Y             Z
Electronic contribution:     15.62607       0.15163     -27.06109
Nuclear contribution   :    -15.91690      -0.30496      27.63303
                        -----------------------------------------
Total Dipole Moment    :     -0.29082      -0.15333       0.57194
                        -----------------------------------------
Magnitude (a.u.)       :      0.65970
Magnitude (Debye)      :      1.67683

Rotational constants in cm-1:     0.016791     0.010416     0.006890
Rotational constants in MHz :   503.385127   312.276845   206.549455

                             ****ORCA TERMINATED NORMALLY****
TOTAL RUN TIME: 0 days 0 hours 0 minutes 22 seconds 215 msec
