                         Program Version 4.2.1 -  RELEASE  -
|  1> ! wB97X-D3 SP def2-SVP
|  2> %pal
|  3> nprocs 24
|  4> end
|  5>
|  6> * xyz 0 1
|  7> S 	 -121.084 	 45.7423 	 -25.2813
|  8> C 	 -119.752 	 44.5925 	 -25.3922
|  9> C 	 -119.645 	 44.0639 	 -26.6964
| 10> C 	 -120.564 	 44.7423 	 -27.5882
| 11> C 	 -121.238 	 45.8094 	 -26.9941
| 12> H 	 -120.675 	 44.5997 	 -28.5916
| 13> C 	 -118.714 	 42.9199 	 -27.1414
| 14> H 	 -118.083 	 43.4055 	 -27.8288
| 15> H 	 -119.395 	 42.2304 	 -27.6966
| 16> C 	 -117.946 	 42.1346 	 -26.1133
| 17> H 	 -117.228 	 42.8405 	 -25.736
| 18> H 	 -118.625 	 41.8766 	 -25.3036
| 19> C 	 -117.409 	 40.8968 	 -26.736
| 20> H 	 -116.838 	 40.3862 	 -25.992
| 21> H 	 -118.234 	 40.3263 	 -27.0922
| 22> H 	 -116.773 	 40.9387 	 -27.6832
| 23> S 	 -123.769 	 46.926 	 -27.0494
| 24> C 	 -124.173 	 48.1602 	 -28.2044
| 25> C 	 -123.076 	 48.553 	 -28.8875
| 26> C 	 -122.014 	 47.6673 	 -28.7199
| 27> C 	 -122.144 	 46.7574 	 -27.6431
| 28> H 	 -123.016 	 49.3976 	 -29.5386
| 29> C 	 -120.723 	 47.8711 	 -29.4944
| 30> H 	 -121.037 	 48.467 	 -30.3342
| 31> H 	 -120.454 	 46.9592 	 -29.9991
| 32> C 	 -119.589 	 48.5593 	 -28.7225
| 33> H 	 -119.343 	 47.8912 	 -27.9315
| 34> H 	 -119.923 	 49.5203 	 -28.2972
| 35> C 	 -118.385 	 48.6542 	 -29.6818
| 36> H 	 -118.385 	 47.6561 	 -30.2335
| 37> H 	 -117.426 	 48.8027 	 -29.1869
| 38> H 	 -118.527 	 49.3994 	 -30.444
| 39> H 	 -119.127 	 44.2474 	 -24.5619
| 40> H 	 -125.17 	 48.6049 	 -28.0855
| 41> *
| 42>
| 43>                          ****END OF INPUT****

CARTESIAN COORDINATES (ANGSTROEM)
---------------------------------
  S    -121.084000   45.742300  -25.281300
  C    -119.752000   44.592500  -25.392200
  C    -119.645000   44.063900  -26.696400
  C    -120.564000   44.742300  -27.588200
  C    -121.238000   45.809400  -26.994100
  H    -120.675000   44.599700  -28.591600
  C    -118.714000   42.919900  -27.141400
  H    -118.083000   43.405500  -27.828800
  H    -119.395000   42.230400  -27.696600
  C    -117.946000   42.134600  -26.113300
  H    -117.228000   42.840500  -25.736000
  H    -118.625000   41.876600  -25.303600
  C    -117.409000   40.896800  -26.736000
  H    -116.838000   40.386200  -25.992000
  H    -118.234000   40.326300  -27.092200
  H    -116.773000   40.938700  -27.683200
  S    -123.769000   46.926000  -27.049400
  C    -124.173000   48.160200  -28.204400
  C    -123.076000   48.553000  -28.887500
  C    -122.014000   47.667300  -28.719900
  C    -122.144000   46.757400  -27.643100
  H    -123.016000   49.397600  -29.538600
  C    -120.723000   47.871100  -29.494400
  H    -121.037000   48.467000  -30.334200
  H    -120.454000   46.959200  -29.999100
  C    -119.589000   48.559300  -28.722500
  H    -119.343000   47.891200  -27.931500
  H    -119.923000   49.520300  -28.297200
  C    -118.385000   48.654200  -29.681800
  H    -118.385000   47.656100  -30.233500
  H    -117.426000   48.802700  -29.186900
  H    -118.527000   49.399400  -30.444000
  H    -119.127000   44.247400  -24.561900
  H    -125.170000   48.604900  -28.085500

 Total Charge           Charge          ....    0
 Multiplicity           Mult            ....    1
 Number of Electrons    NEL             ....  134
 Basis Dimension        Dim             ....  322

ORBITAL ENERGIES
----------------

  NO   OCC          E(Eh)            E(eV)
   0   2.0000     -88.965954     -2420.8867
   1   2.0000     -88.960864     -2420.7482
   2   2.0000     -10.330219      -281.0995
   3   2.0000     -10.326225      -280.9909
   4   2.0000     -10.316093      -280.7152
   5   2.0000     -10.315611      -280.7020
   6   2.0000     -10.307614      -280.4844
   7   2.0000     -10.298404      -280.2338
   8   2.0000     -10.291296      -280.0404
   9   2.0000     -10.289776      -279.9990
  10   2.0000     -10.288891      -279.9750
  11   2.0000     -10.284811      -279.8639
  12   2.0000     -10.282734      -279.8074
  13   2.0000     -10.281775      -279.7813
  14   2.0000     -10.279518      -279.7199
  15   2.0000     -10.278541      -279.6933
  16   2.0000      -8.080848      -219.8911
  17   2.0000      -8.076491      -219.7725
  18   2.0000      -6.039376      -164.3398
  19   2.0000      -6.035416      -164.2320
  20   2.0000      -6.034856      -164.2168
  21   2.0000      -6.031502      -164.1255
  22   2.0000      -6.030749      -164.1050
  23   2.0000      -6.027474      -164.0159
  24   2.0000      -1.008969       -27.4554
  25   2.0000      -0.985774       -26.8243
  26   2.0000      -0.923364       -25.1260
  27   2.0000      -0.908763       -24.7287
  28   2.0000      -0.872060       -23.7300
  29   2.0000      -0.850564       -23.1450
  30   2.0000      -0.848438       -23.0872
  31   2.0000      -0.813913       -22.1477
  32   2.0000      -0.781807       -21.2741
  33   2.0000      -0.765941       -20.8423
  34   2.0000      -0.713587       -19.4177
  35   2.0000      -0.704581       -19.1726
  36   2.0000      -0.688921       -18.7465
  37   2.0000      -0.665922       -18.1207
  38   2.0000      -0.641856       -17.4658
  39   2.0000      -0.613291       -16.6885
  40   2.0000      -0.600789       -16.3483
  41   2.0000      -0.584214       -15.8973
  42   2.0000      -0.570518       -15.5246
  43   2.0000      -0.560419       -15.2498
  44   2.0000      -0.530100       -14.4248
  45   2.0000      -0.525156       -14.2902
  46   2.0000      -0.518675       -14.1139
  47   2.0000      -0.513236       -13.9659
  48   2.0000      -0.501958       -13.6590
  49   2.0000      -0.500778       -13.6269
  50   2.0000      -0.486308       -13.2331
  51   2.0000      -0.486095       -13.2273
  52   2.0000      -0.483393       -13.1538
  53   2.0000      -0.462093       -12.5742
  54   2.0000      -0.457613       -12.4523
  55   2.0000      -0.449099       -12.2206
  56   2.0000      -0.445995       -12.1361
  57   2.0000      -0.436272       -11.8716
  58   2.0000      -0.428836       -11.6692
  59   2.0000      -0.426495       -11.6055
  60   2.0000      -0.422312       -11.4917
  61   2.0000      -0.420688       -11.4475
  62   2.0000      -0.409722       -11.1491
  63   2.0000      -0.346967        -9.4415
  64   2.0000      -0.329174        -8.9573
  65   2.0000      -0.326667        -8.8891
  66   2.0000      -0.288683        -7.8555
  67   0.0000       0.029788         0.8106
  68   0.0000       0.066886         1.8201
  69   0.0000       0.111129         3.0240
  70   0.0000       0.125863         3.4249
  71   0.0000       0.135691         3.6923

MULLIKEN ATOMIC CHARGES
-----------------------
   0 S :    0.115941
   1 C :   -0.138247
   2 C :   -0.093192
   3 C :    0.066098
   4 C :   -0.152373
   5 H :   -0.028651
   6 C :    0.039537
   7 H :    0.029658
   8 H :    0.033339
   9 C :   -0.053454
  10 H :    0.029373
  11 H :    0.033305
  12 C :   -0.026889
  13 H :    0.032621
  14 H :    0.020692
  15 H :    0.035064
  16 S :    0.090959
  17 C :   -0.099488
  18 C :   -0.001315
  19 C :   -0.074462
  20 C :   -0.145219
  21 H :    0.014113
  22 C :    0.052009
  23 H :   -0.005252
  24 H :    0.015064
  25 C :   -0.028429
  26 H :    0.034458
  27 H :    0.032791
  28 C :   -0.044693
  29 H :    0.026906
  30 H :    0.039192
  31 H :    0.026891
  32 H :    0.053667
  33 H :    0.069984
Sum of atomic charges:   -0.0000000

LOEWDIN ATOMIC CHARGES
----------------------
   0 S :    0.411424
   1 C :   -0.211451
   2 C :   -0.052523
   3 C :   -0.054442
   4 C :   -0.198692
   5 H :    0.012917
   6 C :   -0.030112
   7 H :    0.027620
   8 H :    0.035601
   9 C :   -0.043096
  10 H :    0.023379
  11 H :    0.028793
  12 C :   -0.062045
  13 H :    0.024584
  14 H :    0.023165
  15 H :    0.034259
  16 S :    0.414989
  17 C :   -0.185003
  18 C :   -0.071183
  19 C :   -0.058209
  20 C :   -0.207199
  21 H :    0.031715
  22 C :   -0.034576
  23 H :    0.022672
  24 H :    0.025311
  25 C :   -0.031350
  26 H :    0.023776
  27 H :    0.026926
  28 C :   -0.064848
  29 H :    0.032093
  30 H :    0.024423
  31 H :    0.019718
  32 H :    0.029801
  33 H :    0.031559

  Mayer bond orders larger than 0.100000
B(  0-S ,  1-C ) :   1.1270 B(  0-S ,  4-C ) :   1.1581 B(  1-C ,  2-C ) :   1.6124
B(  1-C , 32-H ) :   0.9631 B(  2-C ,  3-C ) :   1.2341 B(  2-C ,  6-C ) :   0.9916
B(  3-C ,  4-C ) :   1.5613 B(  3-C ,  5-H ) :   1.0119 B(  4-C , 20-C ) :   1.0429
B(  6-C ,  7-H ) :   0.9327 B(  6-C ,  8-H ) :   0.9460 B(  6-C ,  9-C ) :   1.0863
B(  9-C , 10-H ) :   0.9443 B(  9-C , 11-H ) :   0.9488 B(  9-C , 12-C ) :   1.0908
B( 12-C , 13-H ) :   0.9706 B( 12-C , 14-H ) :   0.9702 B( 12-C , 15-H ) :   0.9731
B( 16-S , 17-C ) :   1.1788 B( 16-S , 20-C ) :   1.1578 B( 17-C , 18-C ) :   1.5478
B( 17-C , 20-C ) :   0.1085 B( 17-C , 33-H ) :   0.9672 B( 18-C , 19-C ) :   1.2998
B( 18-C , 21-H ) :   0.9931 B( 19-C , 20-C ) :   1.5446 B( 19-C , 22-C ) :   1.0461
B( 22-C , 23-H ) :   0.9277 B( 22-C , 24-H ) :   0.9268 B( 22-C , 25-C ) :   1.0611
B( 25-C , 26-H ) :   0.9554 B( 25-C , 27-H ) :   0.9541 B( 25-C , 28-C ) :   1.0728
B( 28-C , 29-H ) :   0.9723 B( 28-C , 30-H ) :   0.9747 B( 28-C , 31-H ) :   0.9778

Dispersion correction           -0.013918275
FINAL SINGLE POINT ENERGY     -1339.869198528144

DIPOLE MOMENT
-------------
                                X             Y             Z
Electronic contribution:    -24.69712       8.31670      11.30631
Nuclear contribution   :     25.15271      -8.44223     -11.69545
                        -----------------------------------------
Total Dipole Moment    :      0.45559      -0.12553      -0.38914
                        -----------------------------------------
Magnitude (a.u.)       :      0.61217
Magnitude (Debye)      :      1.55601

Rotational constants in cm-1:     0.020574     0.007723     0.006280
Rotational constants in MHz :   616.788923   231.533817   188.283518

                             ****ORCA TERMINATED NORMALLY****
TOTAL RUN TIME: 0 days 0 hours 0 minutes 21 seconds 438 msec
