                         Program Version 4.2.1 -  RELEASE  -
|  1> ! wB97X-D3 SP def2-SVP
|  2> %pal
|  3> nprocs 24
|  4> end
|  5>
|  6> * xyz 0 1
|  7> S 	 -146.791 	 11.1122 	 -7.04669
|  8> C 	 -146.851 	 10.7952 	 -5.33318
|  9> C 	 -147.895 	 11.3562 	 -4.71183
| 10> C 	 -148.693 	 12.0803 	 -5.6596
| 11> C 	 -148.288 	 12.0029 	 -6.95368
| 12> H 	 -149.673 	 12.4162 	 -5.3463
| 13> C 	 -148.389 	 11.213 	 -3.26869
| 14> H 	 -148.593 	 12.2456 	 -2.88512
| 15> H 	 -147.648 	 10.8295 	 -2.58717
| 16> C 	 -149.636 	 10.3353 	 -3.10169
| 17> H 	 -149.786 	 10.201 	 -2.04462
| 18> H 	 -150.46 	 10.8384 	 -3.52902
| 19> C 	 -149.436 	 8.96508 	 -3.85563
| 20> H 	 -150.339 	 8.38475 	 -3.72238
| 21> H 	 -149.287 	 9.17853 	 -4.87851
| 22> H 	 -148.475 	 8.42207 	 -3.58397
| 23> S 	 -148.709 	 11.6919 	 -9.66666
| 24> C 	 -149.64 	 12.8187 	 -10.5892
| 25> C 	 -150.086 	 13.8506 	 -9.80802
| 26> C 	 -149.609 	 13.7734 	 -8.44867
| 27> C 	 -148.881 	 12.5732 	 -8.1673
| 28> H 	 -150.591 	 14.6656 	 -10.1747
| 29> C 	 -149.913 	 14.7425 	 -7.32986
| 30> H 	 -148.997 	 14.9923 	 -6.69257
| 31> H 	 -150.591 	 14.2966 	 -6.60848
| 32> C 	 -150.675 	 16.0796 	 -7.7317
| 33> H 	 -151.661 	 15.7947 	 -8.10755
| 34> H 	 -150.261 	 16.6885 	 -8.57546
| 35> C 	 -150.681 	 17.0331 	 -6.53978
| 36> H 	 -149.614 	 17.2811 	 -6.22442
| 37> H 	 -151.274 	 16.615 	 -5.69193
| 38> H 	 -151.127 	 17.965 	 -6.72437
| 39> H 	 -146.144 	 10.0835 	 -4.93119
| 40> H 	 -149.87 	 12.8835 	 -11.5976
| 41> *
| 42>
| 43>                          ****END OF INPUT****

CARTESIAN COORDINATES (ANGSTROEM)
---------------------------------
  S    -146.791000   11.112200   -7.046690
  C    -146.851000   10.795200   -5.333180
  C    -147.895000   11.356200   -4.711830
  C    -148.693000   12.080300   -5.659600
  C    -148.288000   12.002900   -6.953680
  H    -149.673000   12.416200   -5.346300
  C    -148.389000   11.213000   -3.268690
  H    -148.593000   12.245600   -2.885120
  H    -147.648000   10.829500   -2.587170
  C    -149.636000   10.335300   -3.101690
  H    -149.786000   10.201000   -2.044620
  H    -150.460000   10.838400   -3.529020
  C    -149.436000    8.965080   -3.855630
  H    -150.339000    8.384750   -3.722380
  H    -149.287000    9.178530   -4.878510
  H    -148.475000    8.422070   -3.583970
  S    -148.709000   11.691900   -9.666660
  C    -149.640000   12.818700  -10.589200
  C    -150.086000   13.850600   -9.808020
  C    -149.609000   13.773400   -8.448670
  C    -148.881000   12.573200   -8.167300
  H    -150.591000   14.665600  -10.174700
  C    -149.913000   14.742500   -7.329860
  H    -148.997000   14.992300   -6.692570
  H    -150.591000   14.296600   -6.608480
  C    -150.675000   16.079600   -7.731700
  H    -151.661000   15.794700   -8.107550
  H    -150.261000   16.688500   -8.575460
  C    -150.681000   17.033100   -6.539780
  H    -149.614000   17.281100   -6.224420
  H    -151.274000   16.615000   -5.691930
  H    -151.127000   17.965000   -6.724370
  H    -146.144000   10.083500   -4.931190
  H    -149.870000   12.883500  -11.597600

 Total Charge           Charge          ....    0
 Multiplicity           Mult            ....    1
 Number of Electrons    NEL             ....  134
 Basis Dimension        Dim             ....  322

ORBITAL ENERGIES
----------------

  NO   OCC          E(Eh)            E(eV)
   0   2.0000     -88.967551     -2420.9302
   1   2.0000     -88.963307     -2420.8147
   2   2.0000     -10.332045      -281.1492
   3   2.0000     -10.330182      -281.0986
   4   2.0000     -10.312203      -280.6093
   5   2.0000     -10.310510      -280.5632
   6   2.0000     -10.308925      -280.5201
   7   2.0000     -10.298936      -280.2483
   8   2.0000     -10.298876      -280.2467
   9   2.0000     -10.295656      -280.1590
  10   2.0000     -10.293960      -280.1129
  11   2.0000     -10.291584      -280.0482
  12   2.0000     -10.289314      -279.9865
  13   2.0000     -10.285746      -279.8894
  14   2.0000     -10.282184      -279.7924
  15   2.0000     -10.276917      -279.6491
  16   2.0000      -8.082313      -219.9309
  17   2.0000      -8.078906      -219.8382
  18   2.0000      -6.040853      -164.3800
  19   2.0000      -6.037456      -164.2875
  20   2.0000      -6.036629      -164.2650
  21   2.0000      -6.033412      -164.1775
  22   2.0000      -6.033225      -164.1724
  23   2.0000      -6.029442      -164.0694
  24   2.0000      -1.010964       -27.5097
  25   2.0000      -0.988310       -26.8933
  26   2.0000      -0.912866       -24.8403
  27   2.0000      -0.903179       -24.5768
  28   2.0000      -0.872730       -23.7482
  29   2.0000      -0.851218       -23.1628
  30   2.0000      -0.841893       -22.9091
  31   2.0000      -0.819072       -22.2881
  32   2.0000      -0.784190       -21.3389
  33   2.0000      -0.768934       -20.9237
  34   2.0000      -0.710592       -19.3362
  35   2.0000      -0.703770       -19.1505
  36   2.0000      -0.697086       -18.9687
  37   2.0000      -0.655404       -17.8344
  38   2.0000      -0.641825       -17.4649
  39   2.0000      -0.633008       -17.2250
  40   2.0000      -0.600312       -16.3353
  41   2.0000      -0.572420       -15.5763
  42   2.0000      -0.561902       -15.2901
  43   2.0000      -0.550440       -14.9782
  44   2.0000      -0.545255       -14.8371
  45   2.0000      -0.523012       -14.2319
  46   2.0000      -0.517195       -14.0736
  47   2.0000      -0.509669       -13.8688
  48   2.0000      -0.506747       -13.7893
  49   2.0000      -0.495839       -13.4925
  50   2.0000      -0.487332       -13.2610
  51   2.0000      -0.480633       -13.0787
  52   2.0000      -0.468944       -12.7606
  53   2.0000      -0.466084       -12.6828
  54   2.0000      -0.460741       -12.5374
  55   2.0000      -0.454724       -12.3737
  56   2.0000      -0.448369       -12.2008
  57   2.0000      -0.436721       -11.8838
  58   2.0000      -0.431977       -11.7547
  59   2.0000      -0.425089       -11.5673
  60   2.0000      -0.421661       -11.4740
  61   2.0000      -0.419554       -11.4166
  62   2.0000      -0.409071       -11.1314
  63   2.0000      -0.358454        -9.7540
  64   2.0000      -0.333240        -9.0679
  65   2.0000      -0.329439        -8.9645
  66   2.0000      -0.289637        -7.8814
  67   0.0000       0.024311         0.6615
  68   0.0000       0.082872         2.2551
  69   0.0000       0.108818         2.9611
  70   0.0000       0.124135         3.3779
  71   0.0000       0.136765         3.7216

MULLIKEN ATOMIC CHARGES
-----------------------
   0 S :    0.096352
   1 C :   -0.145887
   2 C :   -0.059764
   3 C :   -0.019355
   4 C :   -0.101054
   5 H :    0.006749
   6 C :    0.049119
   7 H :    0.037736
   8 H :    0.018074
   9 C :   -0.049574
  10 H :    0.033423
  11 H :    0.019751
  12 C :   -0.065101
  13 H :    0.041972
  14 H :    0.041425
  15 H :    0.034524
  16 S :    0.108137
  17 C :   -0.024995
  18 C :   -0.024671
  19 C :   -0.015113
  20 C :   -0.139342
  21 H :   -0.011348
  22 C :   -0.013302
  23 H :    0.050729
  24 H :    0.040052
  25 C :   -0.101703
  26 H :    0.030720
  27 H :    0.038404
  28 C :   -0.042748
  29 H :    0.043189
  30 H :    0.031352
  31 H :    0.019988
  32 H :    0.045902
  33 H :    0.026357
Sum of atomic charges:    0.0000000

LOEWDIN ATOMIC CHARGES
----------------------
   0 S :    0.398270
   1 C :   -0.188106
   2 C :   -0.066763
   3 C :   -0.065964
   4 C :   -0.186742
   5 H :    0.027438
   6 C :   -0.031507
   7 H :    0.036069
   8 H :    0.025789
   9 C :   -0.029495
  10 H :    0.023673
  11 H :    0.015301
  12 C :   -0.063982
  13 H :    0.025540
  14 H :    0.021582
  15 H :    0.030828
  16 S :    0.421235
  17 C :   -0.182022
  18 C :   -0.063115
  19 C :   -0.051151
  20 C :   -0.202900
  21 H :    0.017370
  22 C :   -0.040351
  23 H :    0.041484
  24 H :    0.030961
  25 C :   -0.048655
  26 H :    0.021026
  27 H :    0.025795
  28 C :   -0.067503
  29 H :    0.035086
  30 H :    0.026810
  31 H :    0.016517
  32 H :    0.024816
  33 H :    0.022666

  Mayer bond orders larger than 0.100000
B(  0-S ,  1-C ) :   1.1299 B(  0-S ,  4-C ) :   1.1370 B(  1-C ,  2-C ) :   1.6441
B(  1-C , 32-H ) :   0.9675 B(  2-C ,  3-C ) :   1.2156 B(  2-C ,  6-C ) :   1.0198
B(  3-C ,  4-C ) :   1.5966 B(  3-C ,  5-H ) :   0.9978 B(  4-C , 20-C ) :   1.0580
B(  6-C ,  7-H ) :   0.9407 B(  6-C ,  8-H ) :   0.9447 B(  6-C ,  9-C ) :   1.0744
B(  9-C , 10-H ) :   0.9585 B(  9-C , 11-H ) :   0.9551 B(  9-C , 12-C ) :   1.0684
B( 12-C , 13-H ) :   0.9755 B( 12-C , 14-H ) :   0.9704 B( 12-C , 15-H ) :   0.9769
B( 16-S , 17-C ) :   1.1618 B( 16-S , 20-C ) :   1.1467 B( 17-C , 18-C ) :   1.5826
B( 17-C , 20-C ) :   0.1001 B( 17-C , 33-H ) :   0.9672 B( 18-C , 19-C ) :   1.2818
B( 18-C , 21-H ) :   0.9952 B( 19-C , 20-C ) :   1.5415 B( 19-C , 22-C ) :   1.0396
B( 22-C , 23-H ) :   0.9398 B( 22-C , 24-H ) :   0.9347 B( 22-C , 25-C ) :   1.0525
B( 25-C , 26-H ) :   0.9493 B( 25-C , 27-H ) :   0.9599 B( 25-C , 28-C ) :   1.0864
B( 28-C , 29-H ) :   0.9734 B( 28-C , 30-H ) :   0.9729 B( 28-C , 31-H ) :   0.9726

Dispersion correction           -0.014238525
FINAL SINGLE POINT ENERGY     -1339.880504582593

DIPOLE MOMENT
-------------
                                X             Y             Z
Electronic contribution:     13.61280     -10.01508     -19.50522
Nuclear contribution   :    -14.08675      10.32473      19.90890
                        -----------------------------------------
Total Dipole Moment    :     -0.47395       0.30965       0.40367
                        -----------------------------------------
Magnitude (a.u.)       :      0.69531
Magnitude (Debye)      :      1.76735

Rotational constants in cm-1:     0.017453     0.008860     0.006737
Rotational constants in MHz :   523.214019   265.626200   201.969680

                             ****ORCA TERMINATED NORMALLY****
TOTAL RUN TIME: 0 days 0 hours 0 minutes 21 seconds 568 msec
