                         Program Version 4.2.1 -  RELEASE  -
|  1> ! wB97X-D3 SP def2-SVP
|  2> %pal
|  3> nprocs 24
|  4> end
|  5>
|  6> * xyz 0 1
|  7> S 	 11.9309 	 -17.5073 	 -120.512
|  8> C 	 10.468 	 -16.8589 	 -121.292
|  9> C 	 9.42204 	 -16.9962 	 -120.372
| 10> C 	 9.76359 	 -17.679 	 -119.161
| 11> C 	 11.0377 	 -18.2083 	 -119.205
| 12> H 	 9.0952 	 -17.8378 	 -118.324
| 13> C 	 8.056 	 -16.3637 	 -120.533
| 14> H 	 7.40056 	 -17.1404 	 -120.222
| 15> H 	 7.89072 	 -16.1422 	 -121.622
| 16> C 	 7.82155 	 -15.1896 	 -119.607
| 17> H 	 7.89904 	 -15.5289 	 -118.58
| 18> H 	 8.53326 	 -14.3693 	 -119.86
| 19> C 	 6.45104 	 -14.5146 	 -119.807
| 20> H 	 6.39984 	 -13.8541 	 -120.696
| 21> H 	 5.5747 	 -15.2371 	 -119.868
| 22> H 	 6.2917 	 -13.9863 	 -118.901
| 23> S 	 13.0597 	 -18.4158 	 -117.254
| 24> C 	 13.3469 	 -19.9641 	 -116.484
| 25> C 	 12.1364 	 -20.6008 	 -116.489
| 26> C 	 11.2301 	 -20.2 	 -117.52
| 27> C 	 11.6159 	 -18.9882 	 -118.137
| 28> H 	 12.0657 	 -21.484 	 -115.827
| 29> C 	 9.99021 	 -21.0139 	 -117.89
| 30> H 	 9.2256 	 -20.2892 	 -117.864
| 31> H 	 9.86102 	 -21.7665 	 -117.154
| 32> C 	 10.0308 	 -21.6435 	 -119.273
| 33> H 	 10.3785 	 -20.8994 	 -120.017
| 34> H 	 9.0268 	 -21.6091 	 -119.73
| 35> C 	 10.7961 	 -23.0446 	 -119.383
| 36> H 	 11.8369 	 -22.9045 	 -119.299
| 37> H 	 10.6291 	 -23.3099 	 -120.408
| 38> H 	 10.3914 	 -23.8787 	 -118.746
| 39> H 	 10.4934 	 -16.3218 	 -122.218
| 40> H 	 14.1644 	 -20.235 	 -115.809
| 41> *
| 42>
| 43>                          ****END OF INPUT****

CARTESIAN COORDINATES (ANGSTROEM)
---------------------------------
  S     11.930900  -17.507300  -120.512000
  C     10.468000  -16.858900  -121.292000
  C      9.422040  -16.996200  -120.372000
  C      9.763590  -17.679000  -119.161000
  C     11.037700  -18.208300  -119.205000
  H      9.095200  -17.837800  -118.324000
  C      8.056000  -16.363700  -120.533000
  H      7.400560  -17.140400  -120.222000
  H      7.890720  -16.142200  -121.622000
  C      7.821550  -15.189600  -119.607000
  H      7.899040  -15.528900  -118.580000
  H      8.533260  -14.369300  -119.860000
  C      6.451040  -14.514600  -119.807000
  H      6.399840  -13.854100  -120.696000
  H      5.574700  -15.237100  -119.868000
  H      6.291700  -13.986300  -118.901000
  S     13.059700  -18.415800  -117.254000
  C     13.346900  -19.964100  -116.484000
  C     12.136400  -20.600800  -116.489000
  C     11.230100  -20.200000  -117.520000
  C     11.615900  -18.988200  -118.137000
  H     12.065700  -21.484000  -115.827000
  C      9.990210  -21.013900  -117.890000
  H      9.225600  -20.289200  -117.864000
  H      9.861020  -21.766500  -117.154000
  C     10.030800  -21.643500  -119.273000
  H     10.378500  -20.899400  -120.017000
  H      9.026800  -21.609100  -119.730000
  C     10.796100  -23.044600  -119.383000
  H     11.836900  -22.904500  -119.299000
  H     10.629100  -23.309900  -120.408000
  H     10.391400  -23.878700  -118.746000
  H     10.493400  -16.321800  -122.218000
  H     14.164400  -20.235000  -115.809000

 Total Charge           Charge          ....    0
 Multiplicity           Mult            ....    1
 Number of Electrons    NEL             ....  134
 Basis Dimension        Dim             ....  322

ORBITAL ENERGIES
----------------

  NO   OCC          E(Eh)            E(eV)
   0   2.0000     -88.965994     -2420.8878
   1   2.0000     -88.958613     -2420.6869
   2   2.0000     -10.330914      -281.1185
   3   2.0000     -10.327962      -281.0381
   4   2.0000     -10.319382      -280.8047
   5   2.0000     -10.315805      -280.7073
   6   2.0000     -10.305159      -280.4176
   7   2.0000     -10.304320      -280.3948
   8   2.0000     -10.296524      -280.1827
   9   2.0000     -10.292927      -280.0848
  10   2.0000     -10.290076      -280.0072
  11   2.0000     -10.289870      -280.0016
  12   2.0000     -10.286792      -279.9178
  13   2.0000     -10.282777      -279.8086
  14   2.0000     -10.282366      -279.7974
  15   2.0000     -10.278056      -279.6801
  16   2.0000      -8.080562      -219.8833
  17   2.0000      -8.072934      -219.6757
  18   2.0000      -6.039090      -164.3320
  19   2.0000      -6.035104      -164.2235
  20   2.0000      -6.031562      -164.1272
  21   2.0000      -6.031263      -164.1190
  22   2.0000      -6.027638      -164.0204
  23   2.0000      -6.023425      -163.9057
  24   2.0000      -1.005663       -27.3655
  25   2.0000      -0.982933       -26.7470
  26   2.0000      -0.915858       -24.9218
  27   2.0000      -0.902880       -24.5686
  28   2.0000      -0.870529       -23.6883
  29   2.0000      -0.848668       -23.0934
  30   2.0000      -0.835934       -22.7469
  31   2.0000      -0.814458       -22.1625
  32   2.0000      -0.782526       -21.2936
  33   2.0000      -0.773296       -21.0425
  34   2.0000      -0.713994       -19.4288
  35   2.0000      -0.695777       -18.9331
  36   2.0000      -0.692655       -18.8481
  37   2.0000      -0.653969       -17.7954
  38   2.0000      -0.643355       -17.5066
  39   2.0000      -0.620668       -16.8892
  40   2.0000      -0.583044       -15.8654
  41   2.0000      -0.574397       -15.6301
  42   2.0000      -0.566142       -15.4055
  43   2.0000      -0.555033       -15.1032
  44   2.0000      -0.536671       -14.6036
  45   2.0000      -0.526392       -14.3238
  46   2.0000      -0.517533       -14.0828
  47   2.0000      -0.513733       -13.9794
  48   2.0000      -0.507802       -13.8180
  49   2.0000      -0.503847       -13.7104
  50   2.0000      -0.484069       -13.1722
  51   2.0000      -0.480870       -13.0852
  52   2.0000      -0.474640       -12.9156
  53   2.0000      -0.470192       -12.7946
  54   2.0000      -0.454797       -12.3757
  55   2.0000      -0.449494       -12.2314
  56   2.0000      -0.440868       -11.9966
  57   2.0000      -0.436235       -11.8706
  58   2.0000      -0.429600       -11.6900
  59   2.0000      -0.426272       -11.5994
  60   2.0000      -0.421002       -11.4560
  61   2.0000      -0.410236       -11.1631
  62   2.0000      -0.398356       -10.8398
  63   2.0000      -0.340449        -9.2641
  64   2.0000      -0.327172        -8.9028
  65   2.0000      -0.320864        -8.7311
  66   2.0000      -0.293756        -7.9935
  67   0.0000       0.019019         0.5175
  68   0.0000       0.066058         1.7975
  69   0.0000       0.105089         2.8596
  70   0.0000       0.121187         3.2977
  71   0.0000       0.129716         3.5297

MULLIKEN ATOMIC CHARGES
-----------------------
   0 S :    0.110342
   1 C :   -0.120869
   2 C :   -0.082051
   3 C :    0.011071
   4 C :   -0.154174
   5 H :    0.026079
   6 C :    0.080680
   7 H :    0.013023
   8 H :    0.027711
   9 C :   -0.088498
  10 H :    0.032066
  11 H :    0.040142
  12 C :   -0.055366
  13 H :    0.044656
  14 H :    0.028700
  15 H :    0.029871
  16 S :    0.086411
  17 C :   -0.104805
  18 C :   -0.051576
  19 C :   -0.065246
  20 C :   -0.153482
  21 H :    0.027948
  22 C :    0.171266
  23 H :    0.002219
  24 H :    0.003615
  25 C :   -0.109026
  26 H :    0.029017
  27 H :    0.015174
  28 C :   -0.025075
  29 H :    0.039212
  30 H :    0.025387
  31 H :    0.046516
  32 H :    0.049999
  33 H :    0.069064
Sum of atomic charges:   -0.0000000

LOEWDIN ATOMIC CHARGES
----------------------
   0 S :    0.408615
   1 C :   -0.189027
   2 C :   -0.058974
   3 C :   -0.060735
   4 C :   -0.201953
   5 H :    0.031896
   6 C :   -0.035668
   7 H :    0.024740
   8 H :    0.033395
   9 C :   -0.039048
  10 H :    0.024158
  11 H :    0.032877
  12 C :   -0.069436
  13 H :    0.028126
  14 H :    0.026956
  15 H :    0.022908
  16 S :    0.378357
  17 C :   -0.184761
  18 C :   -0.081295
  19 C :   -0.051176
  20 C :   -0.191547
  21 H :    0.033450
  22 C :   -0.023433
  23 H :    0.024714
  24 H :    0.024008
  25 C :   -0.050070
  26 H :    0.032163
  27 H :    0.026532
  28 C :   -0.060927
  29 H :    0.022577
  30 H :    0.026613
  31 H :    0.032018
  32 H :    0.027366
  33 H :    0.036581

  Mayer bond orders larger than 0.100000
B(  0-S ,  1-C ) :   1.1278 B(  0-S ,  4-C ) :   1.1596 B(  1-C ,  2-C ) :   1.5817
B(  1-C , 32-H ) :   0.9801 B(  2-C ,  3-C ) :   1.2462 B(  2-C ,  6-C ) :   1.0302
B(  3-C ,  4-C ) :   1.5398 B(  3-C ,  5-H ) :   0.9903 B(  4-C , 20-C ) :   1.0742
B(  6-C ,  7-H ) :   0.9262 B(  6-C ,  8-H ) :   0.9455 B(  6-C ,  9-C ) :   1.0772
B(  9-C , 10-H ) :   0.9540 B(  9-C , 11-H ) :   0.9543 B(  9-C , 12-C ) :   1.0818
B( 12-C , 13-H ) :   0.9777 B( 12-C , 14-H ) :   0.9731 B( 12-C , 15-H ) :   0.9751
B( 16-S , 17-C ) :   1.1441 B( 16-S , 20-C ) :   1.1355 B( 17-C , 18-C ) :   1.6142
B( 17-C , 20-C ) :   0.1072 B( 17-C , 33-H ) :   0.9650 B( 18-C , 19-C ) :   1.2440
B( 18-C , 21-H ) :   0.9792 B( 19-C , 20-C ) :   1.5700 B( 19-C , 22-C ) :   1.0374
B( 22-C , 23-H ) :   0.9189 B( 22-C , 24-H ) :   0.9336 B( 22-C , 25-C ) :   1.0837
B( 25-C , 26-H ) :   0.9503 B( 25-C , 27-H ) :   0.9523 B( 25-C , 28-C ) :   1.0562
B( 28-C , 29-H ) :   0.9785 B( 28-C , 30-H ) :   0.9732 B( 28-C , 31-H ) :   0.9773

Dispersion correction           -0.014390717
FINAL SINGLE POINT ENERGY     -1339.852376914533

DIPOLE MOMENT
-------------
                                X             Y             Z
Electronic contribution:     23.15926       3.75109       3.99869
Nuclear contribution   :    -23.82405      -3.82543      -3.93216
                        -----------------------------------------
Total Dipole Moment    :     -0.66479      -0.07433       0.06653
                        -----------------------------------------
Magnitude (a.u.)       :      0.67223
Magnitude (Debye)      :      1.70868

Rotational constants in cm-1:     0.019797     0.007799     0.007003
Rotational constants in MHz :   593.514029   233.805208   209.953530

                             ****ORCA TERMINATED NORMALLY****
TOTAL RUN TIME: 0 days 0 hours 0 minutes 20 seconds 566 msec
