                         Program Version 4.2.1 -  RELEASE  -
|  1> ! wB97X-D3 SP def2-SVP
|  2> %pal
|  3> nprocs 24
|  4> end
|  5>
|  6> * xyz 0 1
|  7> S 	 -130.863 	 12.6894 	 -10.726
|  8> C 	 -129.995 	 12.0539 	 -9.34608
|  9> C 	 -129.231 	 10.9222 	 -9.59769
| 10> C 	 -129.226 	 10.7244 	 -11.0314
| 11> C 	 -130.058 	 11.4927 	 -11.7715
| 12> H 	 -128.607 	 10.0531 	 -11.6165
| 13> C 	 -128.235 	 10.2563 	 -8.60183
| 14> H 	 -128.068 	 9.22518 	 -8.96941
| 15> H 	 -128.527 	 10.1894 	 -7.61605
| 16> C 	 -126.832 	 10.7978 	 -8.74757
| 17> H 	 -126.15 	 9.91118 	 -8.67097
| 18> H 	 -126.591 	 11.1957 	 -9.77252
| 19> C 	 -126.578 	 11.8044 	 -7.6133
| 20> H 	 -126.685 	 11.3254 	 -6.67501
| 21> H 	 -125.609 	 12.1801 	 -7.52801
| 22> H 	 -127.295 	 12.6297 	 -7.63488
| 23> S 	 -130.071 	 12.9973 	 -13.9835
| 24> C 	 -130.02 	 12.3031 	 -15.5537
| 25> C 	 -130.102 	 10.956 	 -15.522
| 26> C 	 -130.169 	 10.4276 	 -14.1951
| 27> C 	 -130.021 	 11.448 	 -13.2356
| 28> H 	 -130.116 	 10.3378 	 -16.4002
| 29> C 	 -130.371 	 8.91591 	 -14.0053
| 30> H 	 -129.785 	 8.47546 	 -13.1449
| 31> H 	 -129.982 	 8.43877 	 -14.9379
| 32> C 	 -131.792 	 8.3826 	 -13.8988
| 33> H 	 -132.463 	 8.94561 	 -14.4206
| 34> H 	 -132.087 	 8.56497 	 -12.8929
| 35> C 	 -131.948 	 6.90313 	 -14.2873
| 36> H 	 -132.925 	 6.5126 	 -14.2329
| 37> H 	 -131.332 	 6.25991 	 -13.6137
| 38> H 	 -131.528 	 6.6671 	 -15.3468
| 39> H 	 -130.313 	 12.4528 	 -8.40622
| 40> H 	 -129.935 	 12.7749 	 -16.4534
| 41> *
| 42>
| 43>                          ****END OF INPUT****

CARTESIAN COORDINATES (ANGSTROEM)
---------------------------------
  S    -130.863000   12.689400  -10.726000
  C    -129.995000   12.053900   -9.346080
  C    -129.231000   10.922200   -9.597690
  C    -129.226000   10.724400  -11.031400
  C    -130.058000   11.492700  -11.771500
  H    -128.607000   10.053100  -11.616500
  C    -128.235000   10.256300   -8.601830
  H    -128.068000    9.225180   -8.969410
  H    -128.527000   10.189400   -7.616050
  C    -126.832000   10.797800   -8.747570
  H    -126.150000    9.911180   -8.670970
  H    -126.591000   11.195700   -9.772520
  C    -126.578000   11.804400   -7.613300
  H    -126.685000   11.325400   -6.675010
  H    -125.609000   12.180100   -7.528010
  H    -127.295000   12.629700   -7.634880
  S    -130.071000   12.997300  -13.983500
  C    -130.020000   12.303100  -15.553700
  C    -130.102000   10.956000  -15.522000
  C    -130.169000   10.427600  -14.195100
  C    -130.021000   11.448000  -13.235600
  H    -130.116000   10.337800  -16.400200
  C    -130.371000    8.915910  -14.005300
  H    -129.785000    8.475460  -13.144900
  H    -129.982000    8.438770  -14.937900
  C    -131.792000    8.382600  -13.898800
  H    -132.463000    8.945610  -14.420600
  H    -132.087000    8.564970  -12.892900
  C    -131.948000    6.903130  -14.287300
  H    -132.925000    6.512600  -14.232900
  H    -131.332000    6.259910  -13.613700
  H    -131.528000    6.667100  -15.346800
  H    -130.313000   12.452800   -8.406220
  H    -129.935000   12.774900  -16.453400

 Total Charge           Charge          ....    0
 Multiplicity           Mult            ....    1
 Number of Electrons    NEL             ....  134
 Basis Dimension        Dim             ....  322

ORBITAL ENERGIES
----------------

  NO   OCC          E(Eh)            E(eV)
   0   2.0000     -88.966323     -2420.8967
   1   2.0000     -88.964753     -2420.8540
   2   2.0000     -10.327835      -281.0347
   3   2.0000     -10.326977      -281.0113
   4   2.0000     -10.315153      -280.6896
   5   2.0000     -10.310050      -280.5507
   6   2.0000     -10.306539      -280.4552
   7   2.0000     -10.304269      -280.3934
   8   2.0000     -10.297513      -280.2096
   9   2.0000     -10.292398      -280.0704
  10   2.0000     -10.291535      -280.0469
  11   2.0000     -10.291326      -280.0412
  12   2.0000     -10.287888      -279.9477
  13   2.0000     -10.284728      -279.8617
  14   2.0000     -10.273184      -279.5476
  15   2.0000     -10.268818      -279.4288
  16   2.0000      -8.080773      -219.8890
  17   2.0000      -8.080730      -219.8878
  18   2.0000      -6.039376      -164.3398
  19   2.0000      -6.039237      -164.3360
  20   2.0000      -6.035369      -164.2307
  21   2.0000      -6.035092      -164.2232
  22   2.0000      -6.031477      -164.1248
  23   2.0000      -6.031315      -164.1204
  24   2.0000      -1.010694       -27.5024
  25   2.0000      -0.986146       -26.8344
  26   2.0000      -0.915344       -24.9078
  27   2.0000      -0.908731       -24.7278
  28   2.0000      -0.874003       -23.7828
  29   2.0000      -0.852598       -23.2004
  30   2.0000      -0.843508       -22.9530
  31   2.0000      -0.816152       -22.2086
  32   2.0000      -0.785222       -21.3670
  33   2.0000      -0.773097       -21.0370
  34   2.0000      -0.709455       -19.3052
  35   2.0000      -0.699299       -19.0289
  36   2.0000      -0.693232       -18.8638
  37   2.0000      -0.666618       -18.1396
  38   2.0000      -0.648571       -17.6485
  39   2.0000      -0.621578       -16.9140
  40   2.0000      -0.601877       -16.3779
  41   2.0000      -0.571485       -15.5509
  42   2.0000      -0.560323       -15.2472
  43   2.0000      -0.554159       -15.0794
  44   2.0000      -0.530573       -14.4376
  45   2.0000      -0.524129       -14.2623
  46   2.0000      -0.517716       -14.0878
  47   2.0000      -0.513390       -13.9701
  48   2.0000      -0.503305       -13.6956
  49   2.0000      -0.497580       -13.5398
  50   2.0000      -0.489129       -13.3099
  51   2.0000      -0.479621       -13.0511
  52   2.0000      -0.472416       -12.8551
  53   2.0000      -0.463584       -12.6148
  54   2.0000      -0.457074       -12.4376
  55   2.0000      -0.451735       -12.2923
  56   2.0000      -0.445990       -12.1360
  57   2.0000      -0.443161       -12.0590
  58   2.0000      -0.435050       -11.8383
  59   2.0000      -0.431121       -11.7314
  60   2.0000      -0.423223       -11.5165
  61   2.0000      -0.413038       -11.2393
  62   2.0000      -0.406387       -11.0583
  63   2.0000      -0.356558        -9.7024
  64   2.0000      -0.332423        -9.0457
  65   2.0000      -0.328696        -8.9443
  66   2.0000      -0.289970        -7.8905
  67   0.0000       0.031078         0.8457
  68   0.0000       0.074717         2.0331
  69   0.0000       0.108889         2.9630
  70   0.0000       0.119075         3.2402
  71   0.0000       0.135662         3.6916

MULLIKEN ATOMIC CHARGES
-----------------------
   0 S :    0.098778
   1 C :   -0.134767
   2 C :   -0.034357
   3 C :   -0.016965
   4 C :   -0.108479
   5 H :    0.015019
   6 C :    0.095617
   7 H :    0.021610
   8 H :    0.009058
   9 C :   -0.094692
  10 H :    0.027722
  11 H :    0.046298
  12 C :   -0.011952
  13 H :    0.009381
  14 H :    0.015796
  15 H :    0.032315
  16 S :    0.109782
  17 C :   -0.030945
  18 C :   -0.035336
  19 C :   -0.033209
  20 C :   -0.177391
  21 H :    0.012554
  22 C :    0.013985
  23 H :    0.037088
  24 H :    0.015294
  25 C :    0.016020
  26 H :   -0.000363
  27 H :    0.019656
  28 C :   -0.078507
  29 H :    0.033056
  30 H :    0.028270
  31 H :    0.037483
  32 H :    0.049084
  33 H :    0.013096
Sum of atomic charges:    0.0000000

LOEWDIN ATOMIC CHARGES
----------------------
   0 S :    0.379464
   1 C :   -0.185651
   2 C :   -0.055720
   3 C :   -0.060691
   4 C :   -0.191975
   5 H :    0.029644
   6 C :   -0.021314
   7 H :    0.037493
   8 H :    0.018817
   9 C :   -0.040526
  10 H :    0.025172
  11 H :    0.032046
  12 C :   -0.060672
  13 H :    0.019520
  14 H :    0.016858
  15 H :    0.027431
  16 S :    0.433320
  17 C :   -0.181761
  18 C :   -0.065896
  19 C :   -0.058333
  20 C :   -0.199336
  21 H :    0.029829
  22 C :   -0.034196
  23 H :    0.033629
  24 H :    0.029318
  25 C :   -0.035464
  26 H :    0.011312
  27 H :    0.024928
  28 C :   -0.066616
  29 H :    0.019944
  30 H :    0.026398
  31 H :    0.032202
  32 H :    0.018133
  33 H :    0.012692

  Mayer bond orders larger than 0.100000
B(  0-S ,  1-C ) :   1.1428 B(  0-S ,  4-C ) :   1.1122 B(  1-C ,  2-C ) :   1.6114
B(  1-C , 32-H ) :   0.9658 B(  2-C ,  3-C ) :   1.1935 B(  2-C ,  6-C ) :   1.0471
B(  3-C ,  4-C ) :   1.6380 B(  3-C ,  5-H ) :   0.9863 B(  4-C , 20-C ) :   1.0482
B(  6-C ,  7-H ) :   0.9381 B(  6-C ,  8-H ) :   0.9502 B(  6-C ,  9-C ) :   1.0425
B(  9-C , 10-H ) :   0.9610 B(  9-C , 11-H ) :   0.9566 B(  9-C , 12-C ) :   1.0793
B( 12-C , 13-H ) :   0.9736 B( 12-C , 14-H ) :   0.9722 B( 12-C , 15-H ) :   0.9734
B( 16-S , 17-C ) :   1.1544 B( 16-S , 20-C ) :   1.1517 B( 17-C , 18-C ) :   1.6110
B( 17-C , 33-H ) :   0.9753 B( 18-C , 19-C ) :   1.2595 B( 18-C , 21-H ) :   0.9893
B( 19-C , 20-C ) :   1.5742 B( 19-C , 22-C ) :   1.0392 B( 22-C , 23-H ) :   0.9393
B( 22-C , 24-H ) :   0.9398 B( 22-C , 25-C ) :   1.0583 B( 25-C , 26-H ) :   0.9519
B( 25-C , 27-H ) :   0.9470 B( 25-C , 28-C ) :   1.0810 B( 28-C , 29-H ) :   0.9757
B( 28-C , 30-H ) :   0.9753 B( 28-C , 31-H ) :   0.9728

Dispersion correction           -0.013684371
FINAL SINGLE POINT ENERGY     -1339.859803936178

DIPOLE MOMENT
-------------
                                X             Y             Z
Electronic contribution:     -7.87078      21.21261      -7.65651
Nuclear contribution   :      8.10975     -21.74085       7.74442
                        -----------------------------------------
Total Dipole Moment    :      0.23897      -0.52824       0.08791
                        -----------------------------------------
Magnitude (a.u.)       :      0.58641
Magnitude (Debye)      :      1.49052

Rotational constants in cm-1:     0.018616     0.007917     0.006585
Rotational constants in MHz :   558.099482   237.335553   197.400199

                             ****ORCA TERMINATED NORMALLY****
TOTAL RUN TIME: 0 days 0 hours 0 minutes 21 seconds 228 msec
