                         Program Version 4.2.1 -  RELEASE  -
|  1> ! wB97X-D3 SP def2-SVP
|  2> %pal
|  3> nprocs 24
|  4> end
|  5>
|  6> * xyz 0 1
|  7> S 	 -113.905 	 60.2019 	 -72.4041
|  8> C 	 -112.472 	 60.8478 	 -71.5983
|  9> C 	 -112.724 	 62.0793 	 -70.9854
| 10> C 	 -114.084 	 62.4074 	 -70.9709
| 11> C 	 -114.892 	 61.526 	 -71.6978
| 12> H 	 -114.427 	 63.2468 	 -70.457
| 13> C 	 -111.585 	 62.7722 	 -70.2999
| 14> H 	 -111.697 	 63.7898 	 -70.765
| 15> H 	 -110.586 	 62.2995 	 -70.5444
| 16> C 	 -111.766 	 62.8187 	 -68.8054
| 17> H 	 -110.948 	 63.4753 	 -68.3006
| 18> H 	 -112.727 	 63.2932 	 -68.5007
| 19> C 	 -111.881 	 61.398 	 -68.105
| 20> H 	 -112.419 	 61.5599 	 -67.1713
| 21> H 	 -112.524 	 60.7744 	 -68.7291
| 22> H 	 -110.947 	 60.8399 	 -67.9391
| 23> S 	 -117.394 	 62.1816 	 -70.8015
| 24> C 	 -118.598 	 62.7297 	 -72.0175
| 25> C 	 -118.225 	 62.3267 	 -73.2661
| 26> C 	 -116.888 	 61.8748 	 -73.3734
| 27> C 	 -116.283 	 61.7819 	 -72.1129
| 28> H 	 -118.883 	 62.5748 	 -74.0618
| 29> C 	 -116.405 	 61.469 	 -74.7109
| 30> H 	 -115.266 	 61.6328 	 -74.6676
| 31> H 	 -116.908 	 62.0259 	 -75.5204
| 32> C 	 -116.585 	 59.9655 	 -75.0763
| 33> H 	 -116.081 	 59.294 	 -74.3808
| 34> H 	 -116.073 	 59.8564 	 -76.065
| 35> C 	 -118.077 	 59.5315 	 -75.1336
| 36> H 	 -118.666 	 60.2368 	 -75.7118
| 37> H 	 -118.445 	 59.56 	 -74.0727
| 38> H 	 -118.137 	 58.5155 	 -75.3113
| 39> H 	 -111.535 	 60.323 	 -71.407
| 40> H 	 -119.469 	 63.3676 	 -71.7613
| 41> *
| 42>
| 43>                          ****END OF INPUT****

CARTESIAN COORDINATES (ANGSTROEM)
---------------------------------
  S    -113.905000   60.201900  -72.404100
  C    -112.472000   60.847800  -71.598300
  C    -112.724000   62.079300  -70.985400
  C    -114.084000   62.407400  -70.970900
  C    -114.892000   61.526000  -71.697800
  H    -114.427000   63.246800  -70.457000
  C    -111.585000   62.772200  -70.299900
  H    -111.697000   63.789800  -70.765000
  H    -110.586000   62.299500  -70.544400
  C    -111.766000   62.818700  -68.805400
  H    -110.948000   63.475300  -68.300600
  H    -112.727000   63.293200  -68.500700
  C    -111.881000   61.398000  -68.105000
  H    -112.419000   61.559900  -67.171300
  H    -112.524000   60.774400  -68.729100
  H    -110.947000   60.839900  -67.939100
  S    -117.394000   62.181600  -70.801500
  C    -118.598000   62.729700  -72.017500
  C    -118.225000   62.326700  -73.266100
  C    -116.888000   61.874800  -73.373400
  C    -116.283000   61.781900  -72.112900
  H    -118.883000   62.574800  -74.061800
  C    -116.405000   61.469000  -74.710900
  H    -115.266000   61.632800  -74.667600
  H    -116.908000   62.025900  -75.520400
  C    -116.585000   59.965500  -75.076300
  H    -116.081000   59.294000  -74.380800
  H    -116.073000   59.856400  -76.065000
  C    -118.077000   59.531500  -75.133600
  H    -118.666000   60.236800  -75.711800
  H    -118.445000   59.560000  -74.072700
  H    -118.137000   58.515500  -75.311300
  H    -111.535000   60.323000  -71.407000
  H    -119.469000   63.367600  -71.761300

 Total Charge           Charge          ....    0
 Multiplicity           Mult            ....    1
 Number of Electrons    NEL             ....  134
 Basis Dimension        Dim             ....  322

ORBITAL ENERGIES
----------------

  NO   OCC          E(Eh)            E(eV)
   0   2.0000     -88.971892     -2421.0483
   1   2.0000     -88.964576     -2420.8492
   2   2.0000     -10.338819      -281.3336
   3   2.0000     -10.331410      -281.1320
   4   2.0000     -10.319169      -280.7989
   5   2.0000     -10.316252      -280.7195
   6   2.0000     -10.300612      -280.2939
   7   2.0000     -10.300435      -280.2891
   8   2.0000     -10.299332      -280.2591
   9   2.0000     -10.298913      -280.2477
  10   2.0000     -10.295744      -280.1614
  11   2.0000     -10.295336      -280.1503
  12   2.0000     -10.288089      -279.9531
  13   2.0000     -10.287927      -279.9487
  14   2.0000     -10.278981      -279.7053
  15   2.0000     -10.272256      -279.5223
  16   2.0000      -8.084891      -220.0011
  17   2.0000      -8.078493      -219.8270
  18   2.0000      -6.043403      -164.4493
  19   2.0000      -6.039601      -164.3459
  20   2.0000      -6.037094      -164.2777
  21   2.0000      -6.035807      -164.2427
  22   2.0000      -6.033272      -164.1737
  23   2.0000      -6.029053      -164.0589
  24   2.0000      -1.002078       -27.2679
  25   2.0000      -0.981849       -26.7175
  26   2.0000      -0.912500       -24.8304
  27   2.0000      -0.905309       -24.6347
  28   2.0000      -0.865307       -23.5462
  29   2.0000      -0.847084       -23.0503
  30   2.0000      -0.842551       -22.9270
  31   2.0000      -0.814249       -22.1568
  32   2.0000      -0.782849       -21.3024
  33   2.0000      -0.769793       -20.9471
  34   2.0000      -0.711668       -19.3655
  35   2.0000      -0.689266       -18.7559
  36   2.0000      -0.686061       -18.6687
  37   2.0000      -0.664317       -18.0770
  38   2.0000      -0.636443       -17.3185
  39   2.0000      -0.621823       -16.9207
  40   2.0000      -0.590490       -16.0680
  41   2.0000      -0.565637       -15.3918
  42   2.0000      -0.557459       -15.1692
  43   2.0000      -0.553441       -15.0599
  44   2.0000      -0.538960       -14.6658
  45   2.0000      -0.535191       -14.5633
  46   2.0000      -0.521956       -14.2031
  47   2.0000      -0.516723       -14.0607
  48   2.0000      -0.500061       -13.6073
  49   2.0000      -0.487312       -13.2604
  50   2.0000      -0.484891       -13.1946
  51   2.0000      -0.477187       -12.9849
  52   2.0000      -0.471314       -12.8251
  53   2.0000      -0.469433       -12.7739
  54   2.0000      -0.456672       -12.4267
  55   2.0000      -0.444477       -12.0948
  56   2.0000      -0.439655       -11.9636
  57   2.0000      -0.437538       -11.9060
  58   2.0000      -0.433331       -11.7915
  59   2.0000      -0.422451       -11.4955
  60   2.0000      -0.418633       -11.3916
  61   2.0000      -0.410423       -11.1682
  62   2.0000      -0.406678       -11.0663
  63   2.0000      -0.346018        -9.4156
  64   2.0000      -0.336594        -9.1592
  65   2.0000      -0.327002        -8.8982
  66   2.0000      -0.286328        -7.7914
  67   0.0000       0.021292         0.5794
  68   0.0000       0.067731         1.8430
  69   0.0000       0.104460         2.8425
  70   0.0000       0.106248         2.8912
  71   0.0000       0.129445         3.5224

MULLIKEN ATOMIC CHARGES
-----------------------
   0 S :    0.102434
   1 C :   -0.120356
   2 C :   -0.123987
   3 C :    0.062212
   4 C :   -0.133630
   5 H :   -0.008581
   6 C :    0.073374
   7 H :    0.048526
   8 H :    0.039328
   9 C :   -0.123875
  10 H :    0.047976
  11 H :    0.034292
  12 C :   -0.068848
  13 H :    0.037344
  14 H :    0.041326
  15 H :    0.039354
  16 S :    0.089170
  17 C :   -0.125742
  18 C :   -0.012983
  19 C :   -0.017629
  20 C :   -0.159367
  21 H :    0.009758
  22 C :    0.025266
  23 H :    0.043528
  24 H :    0.029787
  25 C :   -0.080813
  26 H :    0.024854
  27 H :    0.038169
  28 C :   -0.031174
  29 H :    0.030361
  30 H :    0.040186
  31 H :    0.022046
  32 H :    0.055363
  33 H :    0.072330
Sum of atomic charges:   -0.0000000

LOEWDIN ATOMIC CHARGES
----------------------
   0 S :    0.392121
   1 C :   -0.198587
   2 C :   -0.065105
   3 C :   -0.049946
   4 C :   -0.177898
   5 H :    0.021845
   6 C :   -0.039298
   7 H :    0.044091
   8 H :    0.038248
   9 C :   -0.052354
  10 H :    0.032227
  11 H :    0.025656
  12 C :   -0.070449
  13 H :    0.028414
  14 H :    0.026534
  15 H :    0.023902
  16 S :    0.376831
  17 C :   -0.174887
  18 C :   -0.067305
  19 C :   -0.064065
  20 C :   -0.188369
  21 H :    0.027721
  22 C :   -0.041830
  23 H :    0.038276
  24 H :    0.032460
  25 C :   -0.037181
  26 H :    0.016019
  27 H :    0.026118
  28 C :   -0.064766
  29 H :    0.021514
  30 H :    0.035777
  31 H :    0.017327
  32 H :    0.030055
  33 H :    0.036907

  Mayer bond orders larger than 0.100000
B(  0-S ,  1-C ) :   1.1379 B(  0-S ,  4-C ) :   1.1470 B(  1-C ,  2-C ) :   1.5800
B(  1-C ,  4-C ) :   0.1031 B(  1-C , 32-H ) :   0.9630 B(  2-C ,  3-C ) :   1.2831
B(  2-C ,  6-C ) :   1.0113 B(  3-C ,  4-C ) :   1.5269 B(  3-C ,  5-H ) :   0.9992
B(  4-C , 20-C ) :   1.0296 B(  6-C ,  7-H ) :   0.9300 B(  6-C ,  8-H ) :   0.9474
B(  6-C ,  9-C ) :   1.0708 B(  9-C , 10-H ) :   0.9568 B(  9-C , 11-H ) :   0.9595
B(  9-C , 12-C ) :   1.0545 B( 12-C , 13-H ) :   0.9783 B( 12-C , 14-H ) :   0.9740
B( 12-C , 15-H ) :   0.9779 B( 16-S , 17-C ) :   1.1303 B( 16-S , 20-C ) :   1.1396
B( 17-C , 18-C ) :   1.6289 B( 17-C , 33-H ) :   0.9634 B( 18-C , 19-C ) :   1.2223
B( 18-C , 21-H ) :   0.9885 B( 19-C , 20-C ) :   1.5786 B( 19-C , 22-C ) :   1.0634
B( 22-C , 23-H ) :   0.9219 B( 22-C , 24-H ) :   0.9331 B( 22-C , 25-C ) :   1.0736
B( 25-C , 26-H ) :   0.9523 B( 25-C , 27-H ) :   0.9571 B( 25-C , 28-C ) :   1.0797
B( 28-C , 29-H ) :   0.9754 B( 28-C , 30-H ) :   0.9675 B( 28-C , 31-H ) :   0.9708

Dispersion correction           -0.015399195
FINAL SINGLE POINT ENERGY     -1339.866989898352

DIPOLE MOMENT
-------------
                                X             Y             Z
Electronic contribution:     -6.77397       1.25192       1.00385
Nuclear contribution   :      6.92155      -0.98592      -1.05970
                        -----------------------------------------
Total Dipole Moment    :      0.14758       0.26600      -0.05586
                        -----------------------------------------
Magnitude (a.u.)       :      0.30928
Magnitude (Debye)      :      0.78614

Rotational constants in cm-1:     0.024903     0.008092     0.006673
Rotational constants in MHz :   746.573467   242.588236   200.042890

                             ****ORCA TERMINATED NORMALLY****
TOTAL RUN TIME: 0 days 0 hours 0 minutes 22 seconds 76 msec
