                         Program Version 4.2.1 -  RELEASE  -
|  1> ! wB97X-D3 SP def2-SVP
|  2> %pal
|  3> nprocs 24
|  4> end
|  5>
|  6> * xyz 0 1
|  7> S 	 -135.618 	 67.4394 	 -55.729
|  8> C 	 -135.86 	 65.668 	 -55.9368
|  9> C 	 -136.83 	 65.1406 	 -55.0573
| 10> C 	 -137.277 	 66.1382 	 -54.1537
| 11> C 	 -136.742 	 67.4426 	 -54.3532
| 12> H 	 -137.97 	 66.0048 	 -53.3725
| 13> C 	 -137.424 	 63.7324 	 -55.0621
| 14> H 	 -138.086 	 63.5258 	 -54.1832
| 15> H 	 -136.648 	 62.9879 	 -54.8611
| 16> C 	 -137.996 	 63.2842 	 -56.357
| 17> H 	 -137.396 	 63.6319 	 -57.1991
| 18> H 	 -138.046 	 62.1751 	 -56.4672
| 19> C 	 -139.433 	 63.7571 	 -56.3946
| 20> H 	 -139.533 	 64.8246 	 -56.1739
| 21> H 	 -139.788 	 63.6521 	 -57.4219
| 22> H 	 -140.109 	 63.2049 	 -55.7086
| 23> S 	 -137.625 	 70.0103 	 -54.3282
| 24> C 	 -137.69 	 70.8495 	 -52.7952
| 25> C 	 -137.244 	 70.0608 	 -51.7878
| 26> C 	 -136.912 	 68.7451 	 -52.1706
| 27> C 	 -136.917 	 68.6125 	 -53.5856
| 28> H 	 -137.416 	 70.349 	 -50.7779
| 29> C 	 -136.574 	 67.6806 	 -51.1613
| 30> H 	 -135.868 	 68.1489 	 -50.5541
| 31> H 	 -135.946 	 66.8939 	 -51.6197
| 32> C 	 -137.782 	 67.0646 	 -50.385
| 33> H 	 -138.35 	 66.5396 	 -51.1267
| 34> H 	 -138.354 	 67.7966 	 -49.8591
| 35> C 	 -137.231 	 66.1111 	 -49.3507
| 36> H 	 -136.397 	 66.6476 	 -48.839
| 37> H 	 -136.807 	 65.2276 	 -49.8655
| 38> H 	 -137.948 	 65.6559 	 -48.6175
| 39> H 	 -135.517 	 65.0942 	 -56.7706
| 40> H 	 -138.259 	 71.773 	 -52.637
| 41> *
| 42>
| 43>                          ****END OF INPUT****

CARTESIAN COORDINATES (ANGSTROEM)
---------------------------------
  S    -135.618000   67.439400  -55.729000
  C    -135.860000   65.668000  -55.936800
  C    -136.830000   65.140600  -55.057300
  C    -137.277000   66.138200  -54.153700
  C    -136.742000   67.442600  -54.353200
  H    -137.970000   66.004800  -53.372500
  C    -137.424000   63.732400  -55.062100
  H    -138.086000   63.525800  -54.183200
  H    -136.648000   62.987900  -54.861100
  C    -137.996000   63.284200  -56.357000
  H    -137.396000   63.631900  -57.199100
  H    -138.046000   62.175100  -56.467200
  C    -139.433000   63.757100  -56.394600
  H    -139.533000   64.824600  -56.173900
  H    -139.788000   63.652100  -57.421900
  H    -140.109000   63.204900  -55.708600
  S    -137.625000   70.010300  -54.328200
  C    -137.690000   70.849500  -52.795200
  C    -137.244000   70.060800  -51.787800
  C    -136.912000   68.745100  -52.170600
  C    -136.917000   68.612500  -53.585600
  H    -137.416000   70.349000  -50.777900
  C    -136.574000   67.680600  -51.161300
  H    -135.868000   68.148900  -50.554100
  H    -135.946000   66.893900  -51.619700
  C    -137.782000   67.064600  -50.385000
  H    -138.350000   66.539600  -51.126700
  H    -138.354000   67.796600  -49.859100
  C    -137.231000   66.111100  -49.350700
  H    -136.397000   66.647600  -48.839000
  H    -136.807000   65.227600  -49.865500
  H    -137.948000   65.655900  -48.617500
  H    -135.517000   65.094200  -56.770600
  H    -138.259000   71.773000  -52.637000

 Total Charge           Charge          ....    0
 Multiplicity           Mult            ....    1
 Number of Electrons    NEL             ....  134
 Basis Dimension        Dim             ....  322

ORBITAL ENERGIES
----------------

  NO   OCC          E(Eh)            E(eV)
   0   2.0000     -88.969369     -2420.9796
   1   2.0000     -88.966072     -2420.8899
   2   2.0000     -10.330259      -281.1006
   3   2.0000     -10.322550      -280.8909
   4   2.0000     -10.318118      -280.7703
   5   2.0000     -10.316863      -280.7361
   6   2.0000     -10.307547      -280.4826
   7   2.0000     -10.303495      -280.3724
   8   2.0000     -10.294679      -280.1325
   9   2.0000     -10.293766      -280.1076
  10   2.0000     -10.288059      -279.9523
  11   2.0000     -10.287665      -279.9416
  12   2.0000     -10.287626      -279.9405
  13   2.0000     -10.285648      -279.8867
  14   2.0000     -10.284201      -279.8473
  15   2.0000     -10.273752      -279.5630
  16   2.0000      -8.082616      -219.9392
  17   2.0000      -8.081278      -219.9027
  18   2.0000      -6.041158      -164.3883
  19   2.0000      -6.039670      -164.3478
  20   2.0000      -6.037301      -164.2833
  21   2.0000      -6.035755      -164.2412
  22   2.0000      -6.033462      -164.1788
  23   2.0000      -6.032072      -164.1410
  24   2.0000      -1.006847       -27.3977
  25   2.0000      -0.977190       -26.5907
  26   2.0000      -0.919896       -25.0316
  27   2.0000      -0.913953       -24.8699
  28   2.0000      -0.873050       -23.7569
  29   2.0000      -0.855266       -23.2730
  30   2.0000      -0.844695       -22.9853
  31   2.0000      -0.809855       -22.0373
  32   2.0000      -0.782961       -21.3055
  33   2.0000      -0.767345       -20.8805
  34   2.0000      -0.709674       -19.3112
  35   2.0000      -0.703197       -19.1350
  36   2.0000      -0.696467       -18.9518
  37   2.0000      -0.662799       -18.0357
  38   2.0000      -0.638960       -17.3870
  39   2.0000      -0.615273       -16.7424
  40   2.0000      -0.599345       -16.3090
  41   2.0000      -0.578217       -15.7341
  42   2.0000      -0.573821       -15.6145
  43   2.0000      -0.554390       -15.0857
  44   2.0000      -0.539690       -14.6857
  45   2.0000      -0.527214       -14.3462
  46   2.0000      -0.515371       -14.0240
  47   2.0000      -0.511606       -13.9215
  48   2.0000      -0.509407       -13.8617
  49   2.0000      -0.495121       -13.4729
  50   2.0000      -0.488969       -13.3055
  51   2.0000      -0.477878       -13.0037
  52   2.0000      -0.465762       -12.6740
  53   2.0000      -0.465030       -12.6541
  54   2.0000      -0.452753       -12.3200
  55   2.0000      -0.451106       -12.2752
  56   2.0000      -0.443538       -12.0693
  57   2.0000      -0.437450       -11.9036
  58   2.0000      -0.435292       -11.8449
  59   2.0000      -0.430225       -11.7070
  60   2.0000      -0.424706       -11.5568
  61   2.0000      -0.421628       -11.4731
  62   2.0000      -0.408463       -11.1148
  63   2.0000      -0.345853        -9.4111
  64   2.0000      -0.333505        -9.0751
  65   2.0000      -0.327940        -8.9237
  66   2.0000      -0.286840        -7.8053
  67   0.0000       0.023833         0.6485
  68   0.0000       0.061341         1.6692
  69   0.0000       0.108944         2.9645
  70   0.0000       0.119084         3.2404
  71   0.0000       0.123554         3.3621

MULLIKEN ATOMIC CHARGES
-----------------------
   0 S :    0.110563
   1 C :   -0.115300
   2 C :   -0.066681
   3 C :    0.051949
   4 C :   -0.174815
   5 H :   -0.022911
   6 C :    0.059717
   7 H :    0.024423
   8 H :    0.027706
   9 C :   -0.072611
  10 H :    0.029926
  11 H :    0.031395
  12 C :   -0.060745
  13 H :    0.035246
  14 H :    0.025310
  15 H :    0.034808
  16 S :    0.111602
  17 C :   -0.098816
  18 C :   -0.006976
  19 C :   -0.039550
  20 C :   -0.143230
  21 H :    0.007339
  22 C :    0.029619
  23 H :    0.008308
  24 H :    0.032372
  25 C :   -0.015599
  26 H :    0.023489
  27 H :    0.027138
  28 C :   -0.070890
  29 H :    0.034512
  30 H :    0.028507
  31 H :    0.045757
  32 H :    0.040514
  33 H :    0.067924
Sum of atomic charges:    0.0000000

LOEWDIN ATOMIC CHARGES
----------------------
   0 S :    0.387951
   1 C :   -0.186644
   2 C :   -0.054490
   3 C :   -0.056245
   4 C :   -0.187442
   5 H :    0.019009
   6 C :   -0.039283
   7 H :    0.034477
   8 H :    0.034696
   9 C :   -0.044980
  10 H :    0.024747
  11 H :    0.028726
  12 C :   -0.067403
  13 H :    0.025718
  14 H :    0.022685
  15 H :    0.026721
  16 S :    0.418561
  17 C :   -0.184633
  18 C :   -0.071859
  19 C :   -0.044696
  20 C :   -0.219827
  21 H :    0.027677
  22 C :   -0.032819
  23 H :    0.022412
  24 H :    0.037112
  25 C :   -0.028455
  26 H :    0.019498
  27 H :    0.021124
  28 C :   -0.072306
  29 H :    0.028813
  30 H :    0.026005
  31 H :    0.029477
  32 H :    0.019730
  33 H :    0.035941

  Mayer bond orders larger than 0.100000
B(  0-S ,  1-C ) :   1.1393 B(  0-S ,  4-C ) :   1.1486 B(  1-C ,  2-C ) :   1.5926
B(  1-C ,  4-C ) :   0.1150 B(  1-C , 32-H ) :   0.9652 B(  2-C ,  3-C ) :   1.2594
B(  2-C ,  6-C ) :   1.0164 B(  3-C ,  4-C ) :   1.5420 B(  3-C ,  5-H ) :   1.0023
B(  4-C , 20-C ) :   1.0630 B(  6-C ,  7-H ) :   0.9468 B(  6-C ,  8-H ) :   0.9288
B(  6-C ,  9-C ) :   1.0713 B(  9-C , 10-H ) :   0.9557 B(  9-C , 11-H ) :   0.9514
B(  9-C , 12-C ) :   1.0794 B( 12-C , 13-H ) :   0.9773 B( 12-C , 14-H ) :   0.9727
B( 12-C , 15-H ) :   0.9745 B( 16-S , 17-C ) :   1.1610 B( 16-S , 20-C ) :   1.1542
B( 17-C , 18-C ) :   1.5935 B( 17-C , 33-H ) :   0.9633 B( 18-C , 19-C ) :   1.2764
B( 18-C , 21-H ) :   0.9885 B( 19-C , 20-C ) :   1.5423 B( 19-C , 22-C ) :   1.0446
B( 22-C , 23-H ) :   0.9300 B( 22-C , 24-H ) :   0.9346 B( 22-C , 25-C ) :   1.0543
B( 25-C , 26-H ) :   0.9529 B( 25-C , 27-H ) :   0.9554 B( 25-C , 28-C ) :   1.0815
B( 28-C , 29-H ) :   0.9731 B( 28-C , 30-H ) :   0.9733 B( 28-C , 31-H ) :   0.9739

Dispersion correction           -0.014420589
FINAL SINGLE POINT ENERGY     -1339.873606056852

DIPOLE MOMENT
-------------
                                X             Y             Z
Electronic contribution:      8.95127      23.11063     -11.85667
Nuclear contribution   :     -9.32164     -23.56909      12.35850
                        -----------------------------------------
Total Dipole Moment    :     -0.37037      -0.45846       0.50183
                        -----------------------------------------
Magnitude (a.u.)       :      0.77407
Magnitude (Debye)      :      1.96754

Rotational constants in cm-1:     0.017467     0.008969     0.006965
Rotational constants in MHz :   523.648123   268.874879   208.808637

                             ****ORCA TERMINATED NORMALLY****
TOTAL RUN TIME: 0 days 0 hours 0 minutes 21 seconds 883 msec
