                         Program Version 4.2.1 -  RELEASE  -
|  1> ! wB97X-D3 SP def2-SVP
|  2> %pal
|  3> nprocs 24
|  4> end
|  5>
|  6> * xyz 0 1
|  7> S 	 32.9297 	 -3.26942 	 -118.206
|  8> C 	 31.2986 	 -2.84571 	 -118.754
|  9> C 	 30.9753 	 -3.57362 	 -119.864
| 10> C 	 32.0104 	 -4.38835 	 -120.317
| 11> C 	 33.1715 	 -4.27958 	 -119.565
| 12> H 	 31.9108 	 -5.04268 	 -121.173
| 13> C 	 29.7203 	 -3.50404 	 -120.634
| 14> H 	 28.9686 	 -3.65995 	 -119.881
| 15> H 	 29.5118 	 -4.28404 	 -121.323
| 16> C 	 29.664 	 -2.19443 	 -121.443
| 17> H 	 29.9999 	 -1.37331 	 -120.856
| 18> H 	 30.5122 	 -2.25648 	 -122.12
| 19> C 	 28.324 	 -1.86923 	 -122.117
| 20> H 	 28.0708 	 -2.46171 	 -123.043
| 21> H 	 27.5742 	 -2.08086 	 -121.358
| 22> H 	 28.4315 	 -0.823299 	 -122.374
| 23> S 	 35.8351 	 -4.29464 	 -120.186
| 24> C 	 36.8307 	 -5.70987 	 -120.126
| 25> C 	 36.0627 	 -6.70269 	 -119.571
| 26> C 	 34.6932 	 -6.4452 	 -119.485
| 27> C 	 34.3936 	 -5.07475 	 -119.655
| 28> H 	 36.5472 	 -7.68416 	 -119.263
| 29> C 	 33.7256 	 -7.50356 	 -119.054
| 30> H 	 34.0928 	 -8.46044 	 -119.471
| 31> H 	 32.7269 	 -7.25061 	 -119.315
| 32> C 	 33.743 	 -7.69371 	 -117.517
| 33> H 	 33.6437 	 -6.72408 	 -117.041
| 34> H 	 34.6829 	 -8.11596 	 -117.254
| 35> C 	 32.6277 	 -8.67692 	 -117.126
| 36> H 	 32.7723 	 -9.61634 	 -117.687
| 37> H 	 31.623 	 -8.30607 	 -117.301
| 38> H 	 32.6834 	 -8.88457 	 -116.106
| 39> H 	 30.6388 	 -2.13235 	 -118.304
| 40> H 	 37.9779 	 -5.80372 	 -120.307
| 41> *
| 42>
| 43>                          ****END OF INPUT****

CARTESIAN COORDINATES (ANGSTROEM)
---------------------------------
  S     32.929700   -3.269420  -118.206000
  C     31.298600   -2.845710  -118.754000
  C     30.975300   -3.573620  -119.864000
  C     32.010400   -4.388350  -120.317000
  C     33.171500   -4.279580  -119.565000
  H     31.910800   -5.042680  -121.173000
  C     29.720300   -3.504040  -120.634000
  H     28.968600   -3.659950  -119.881000
  H     29.511800   -4.284040  -121.323000
  C     29.664000   -2.194430  -121.443000
  H     29.999900   -1.373310  -120.856000
  H     30.512200   -2.256480  -122.120000
  C     28.324000   -1.869230  -122.117000
  H     28.070800   -2.461710  -123.043000
  H     27.574200   -2.080860  -121.358000
  H     28.431500   -0.823299  -122.374000
  S     35.835100   -4.294640  -120.186000
  C     36.830700   -5.709870  -120.126000
  C     36.062700   -6.702690  -119.571000
  C     34.693200   -6.445200  -119.485000
  C     34.393600   -5.074750  -119.655000
  H     36.547200   -7.684160  -119.263000
  C     33.725600   -7.503560  -119.054000
  H     34.092800   -8.460440  -119.471000
  H     32.726900   -7.250610  -119.315000
  C     33.743000   -7.693710  -117.517000
  H     33.643700   -6.724080  -117.041000
  H     34.682900   -8.115960  -117.254000
  C     32.627700   -8.676920  -117.126000
  H     32.772300   -9.616340  -117.687000
  H     31.623000   -8.306070  -117.301000
  H     32.683400   -8.884570  -116.106000
  H     30.638800   -2.132350  -118.304000
  H     37.977900   -5.803720  -120.307000

 Total Charge           Charge          ....    0
 Multiplicity           Mult            ....    1
 Number of Electrons    NEL             ....  134
 Basis Dimension        Dim             ....  322

ORBITAL ENERGIES
----------------

  NO   OCC          E(Eh)            E(eV)
   0   2.0000     -88.968894     -2420.9667
   1   2.0000     -88.961449     -2420.7641
   2   2.0000     -10.327383      -281.0224
   3   2.0000     -10.323717      -280.9226
   4   2.0000     -10.321118      -280.8519
   5   2.0000     -10.312038      -280.6048
   6   2.0000     -10.298591      -280.2389
   7   2.0000     -10.292607      -280.0761
   8   2.0000     -10.292171      -280.0642
   9   2.0000     -10.289126      -279.9813
  10   2.0000     -10.284371      -279.8520
  11   2.0000     -10.282632      -279.8046
  12   2.0000     -10.282543      -279.8022
  13   2.0000     -10.281899      -279.7847
  14   2.0000     -10.278618      -279.6954
  15   2.0000     -10.270637      -279.4783
  16   2.0000      -8.083690      -219.9684
  17   2.0000      -8.076874      -219.7829
  18   2.0000      -6.042113      -164.4143
  19   2.0000      -6.038093      -164.3049
  20   2.0000      -6.035269      -164.2280
  21   2.0000      -6.034623      -164.2104
  22   2.0000      -6.031049      -164.1132
  23   2.0000      -6.027912      -164.0278
  24   2.0000      -1.013080       -27.5673
  25   2.0000      -0.992519       -27.0078
  26   2.0000      -0.919179       -25.0121
  27   2.0000      -0.910571       -24.7779
  28   2.0000      -0.869595       -23.6629
  29   2.0000      -0.850618       -23.1465
  30   2.0000      -0.847837       -23.0708
  31   2.0000      -0.813977       -22.1494
  32   2.0000      -0.783799       -21.3283
  33   2.0000      -0.769340       -20.9348
  34   2.0000      -0.707135       -19.2421
  35   2.0000      -0.704435       -19.1687
  36   2.0000      -0.693948       -18.8833
  37   2.0000      -0.654346       -17.8057
  38   2.0000      -0.643343       -17.5062
  39   2.0000      -0.623009       -16.9529
  40   2.0000      -0.596423       -16.2295
  41   2.0000      -0.576145       -15.6777
  42   2.0000      -0.568519       -15.4702
  43   2.0000      -0.553552       -15.0629
  44   2.0000      -0.534762       -14.5516
  45   2.0000      -0.523520       -14.2457
  46   2.0000      -0.517447       -14.0804
  47   2.0000      -0.512639       -13.9496
  48   2.0000      -0.507252       -13.8030
  49   2.0000      -0.496182       -13.5018
  50   2.0000      -0.493604       -13.4316
  51   2.0000      -0.482952       -13.1418
  52   2.0000      -0.473332       -12.8800
  53   2.0000      -0.465120       -12.6566
  54   2.0000      -0.457258       -12.4426
  55   2.0000      -0.451485       -12.2855
  56   2.0000      -0.438770       -11.9395
  57   2.0000      -0.438462       -11.9312
  58   2.0000      -0.431822       -11.7505
  59   2.0000      -0.431430       -11.7398
  60   2.0000      -0.428460       -11.6590
  61   2.0000      -0.412538       -11.2257
  62   2.0000      -0.407846       -11.0981
  63   2.0000      -0.336268        -9.1503
  64   2.0000      -0.333846        -9.0844
  65   2.0000      -0.320941        -8.7333
  66   2.0000      -0.301828        -8.2132
  67   0.0000       0.038558         1.0492
  68   0.0000       0.060980         1.6594
  69   0.0000       0.115934         3.1547
  70   0.0000       0.126007         3.4288
  71   0.0000       0.132975         3.6184

MULLIKEN ATOMIC CHARGES
-----------------------
   0 S :    0.126731
   1 C :   -0.123347
   2 C :   -0.097459
   3 C :    0.048104
   4 C :   -0.152364
   5 H :    0.008595
   6 C :    0.096458
   7 H :    0.017103
   8 H :    0.006672
   9 C :   -0.082506
  10 H :    0.012446
  11 H :    0.015565
  12 C :   -0.023635
  13 H :    0.044675
  14 H :    0.032784
  15 H :    0.040077
  16 S :    0.110311
  17 C :   -0.125419
  18 C :   -0.075669
  19 C :   -0.021957
  20 C :   -0.175686
  21 H :    0.038231
  22 C :    0.084577
  23 H :    0.021442
  24 H :    0.010757
  25 C :   -0.073368
  26 H :    0.030595
  27 H :    0.012856
  28 C :   -0.011525
  29 H :    0.024433
  30 H :    0.030269
  31 H :    0.019414
  32 H :    0.035499
  33 H :    0.095343
Sum of atomic charges:   -0.0000000

LOEWDIN ATOMIC CHARGES
----------------------
   0 S :    0.428477
   1 C :   -0.191969
   2 C :   -0.063598
   3 C :   -0.059728
   4 C :   -0.210943
   5 H :    0.032530
   6 C :   -0.031423
   7 H :    0.027118
   8 H :    0.024652
   9 C :   -0.039257
  10 H :    0.018324
  11 H :    0.025319
  12 C :   -0.065344
  13 H :    0.031259
  14 H :    0.026165
  15 H :    0.030218
  16 S :    0.432663
  17 C :   -0.216347
  18 C :   -0.088665
  19 C :   -0.058095
  20 C :   -0.222249
  21 H :    0.038880
  22 C :   -0.025696
  23 H :    0.032460
  24 H :    0.023105
  25 C :   -0.028029
  26 H :    0.022363
  27 H :    0.015868
  28 C :   -0.059276
  29 H :    0.027366
  30 H :    0.024307
  31 H :    0.016962
  32 H :    0.024891
  33 H :    0.057694

  Mayer bond orders larger than 0.100000
B(  0-S ,  1-C ) :   1.1371 B(  0-S ,  4-C ) :   1.1901 B(  1-C ,  2-C ) :   1.5865
B(  1-C ,  4-C ) :   0.1067 B(  1-C , 32-H ) :   0.9735 B(  2-C ,  3-C ) :   1.2767
B(  2-C ,  6-C ) :   1.0248 B(  3-C ,  4-C ) :   1.5353 B(  3-C ,  5-H ) :   1.0057
B(  4-C , 20-C ) :   0.9926 B(  6-C ,  7-H ) :   0.9280 B(  6-C ,  8-H ) :   0.9425
B(  6-C ,  9-C ) :   1.0568 B(  9-C , 10-H ) :   0.9620 B(  9-C , 11-H ) :   0.9464
B(  9-C , 12-C ) :   1.0680 B( 12-C , 13-H ) :   0.9751 B( 12-C , 14-H ) :   0.9759
B( 12-C , 15-H ) :   0.9741 B( 16-S , 17-C ) :   1.1755 B( 16-S , 20-C ) :   1.1727
B( 17-C , 18-C ) :   1.5722 B( 17-C , 20-C ) :   0.1151 B( 17-C , 33-H ) :   0.9554
B( 18-C , 19-C ) :   1.2856 B( 18-C , 21-H ) :   0.9735 B( 19-C , 20-C ) :   1.5370
B( 19-C , 22-C ) :   1.0677 B( 22-C , 23-H ) :   0.9230 B( 22-C , 24-H ) :   0.9354
B( 22-C , 25-C ) :   1.0727 B( 25-C , 26-H ) :   0.9557 B( 25-C , 27-H ) :   0.9531
B( 25-C , 28-C ) :   1.0891 B( 28-C , 29-H ) :   0.9702 B( 28-C , 30-H ) :   0.9756
B( 28-C , 31-H ) :   0.9726

Dispersion correction           -0.014055092
FINAL SINGLE POINT ENERGY     -1339.874467778792

DIPOLE MOMENT
-------------
                                X             Y             Z
Electronic contribution:     20.63913       8.91651       2.25087
Nuclear contribution   :    -21.02388      -9.26421      -2.29452
                        -----------------------------------------
Total Dipole Moment    :     -0.38475      -0.34769      -0.04365
                        -----------------------------------------
Magnitude (a.u.)       :      0.52041
Magnitude (Debye)      :      1.32279

Rotational constants in cm-1:     0.020210     0.007697     0.006556
Rotational constants in MHz :   605.885104   230.761960   196.533424

                             ****ORCA TERMINATED NORMALLY****
TOTAL RUN TIME: 0 days 0 hours 0 minutes 21 seconds 482 msec
