                         Program Version 4.2.1 -  RELEASE  -
|  1> ! wB97X-D3 SP def2-SVP
|  2> %pal
|  3> nprocs 24
|  4> end
|  5>
|  6> * xyz 0 1
|  7> S 	 -99.5413 	 -1.83703 	 -106.292
|  8> C 	 -99.3937 	 -2.92703 	 -107.594
|  9> C 	 -100.099 	 -4.12317 	 -107.492
| 10> C 	 -100.917 	 -4.04654 	 -106.324
| 11> C 	 -100.697 	 -2.92236 	 -105.519
| 12> H 	 -101.619 	 -4.79444 	 -106.012
| 13> C 	 -100.177 	 -5.40037 	 -108.307
| 14> H 	 -100.191 	 -6.20461 	 -107.669
| 15> H 	 -99.2897 	 -5.62972 	 -108.875
| 16> C 	 -101.265 	 -5.49654 	 -109.309
| 17> H 	 -102.165 	 -5.58469 	 -108.718
| 18> H 	 -101.344 	 -4.60312 	 -109.909
| 19> C 	 -101.21 	 -6.7199 	 -110.23
| 20> H 	 -101.808 	 -6.58341 	 -111.051
| 21> H 	 -100.295 	 -6.59223 	 -110.816
| 22> H 	 -101.349 	 -7.64995 	 -109.716
| 23> S 	 -100.416 	 -2.56014 	 -102.92
| 24> C 	 -101.795 	 -2.2059 	 -101.908
| 25> C 	 -102.935 	 -2.1041 	 -102.662
| 26> C 	 -102.714 	 -2.13631 	 -104.092
| 27> C 	 -101.431 	 -2.59785 	 -104.328
| 28> H 	 -103.874 	 -1.7825 	 -102.238
| 29> C 	 -103.869 	 -1.97411 	 -105.154
| 30> H 	 -103.754 	 -1.2173 	 -105.94
| 31> H 	 -104.685 	 -1.65482 	 -104.509
| 32> C 	 -104.385 	 -3.27166 	 -105.823
| 33> H 	 -104.163 	 -4.07574 	 -105.069
| 34> H 	 -103.837 	 -3.71847 	 -106.691
| 35> C 	 -105.869 	 -3.09619 	 -106.112
| 36> H 	 -106.085 	 -2.34575 	 -106.826
| 37> H 	 -106.362 	 -2.8778 	 -105.214
| 38> H 	 -106.161 	 -4.04309 	 -106.392
| 39> H 	 -98.7936 	 -2.79225 	 -108.486
| 40> H 	 -101.789 	 -1.73938 	 -100.906
| 41> *
| 42>
| 43>                          ****END OF INPUT****

CARTESIAN COORDINATES (ANGSTROEM)
---------------------------------
  S    -99.541300   -1.837030  -106.292000
  C    -99.393700   -2.927030  -107.594000
  C    -100.099000   -4.123170  -107.492000
  C    -100.917000   -4.046540  -106.324000
  C    -100.697000   -2.922360  -105.519000
  H    -101.619000   -4.794440  -106.012000
  C    -100.177000   -5.400370  -108.307000
  H    -100.191000   -6.204610  -107.669000
  H    -99.289700   -5.629720  -108.875000
  C    -101.265000   -5.496540  -109.309000
  H    -102.165000   -5.584690  -108.718000
  H    -101.344000   -4.603120  -109.909000
  C    -101.210000   -6.719900  -110.230000
  H    -101.808000   -6.583410  -111.051000
  H    -100.295000   -6.592230  -110.816000
  H    -101.349000   -7.649950  -109.716000
  S    -100.416000   -2.560140  -102.920000
  C    -101.795000   -2.205900  -101.908000
  C    -102.935000   -2.104100  -102.662000
  C    -102.714000   -2.136310  -104.092000
  C    -101.431000   -2.597850  -104.328000
  H    -103.874000   -1.782500  -102.238000
  C    -103.869000   -1.974110  -105.154000
  H    -103.754000   -1.217300  -105.940000
  H    -104.685000   -1.654820  -104.509000
  C    -104.385000   -3.271660  -105.823000
  H    -104.163000   -4.075740  -105.069000
  H    -103.837000   -3.718470  -106.691000
  C    -105.869000   -3.096190  -106.112000
  H    -106.085000   -2.345750  -106.826000
  H    -106.362000   -2.877800  -105.214000
  H    -106.161000   -4.043090  -106.392000
  H    -98.793600   -2.792250  -108.486000
  H    -101.789000   -1.739380  -100.906000

 Total Charge           Charge          ....    0
 Multiplicity           Mult            ....    1
 Number of Electrons    NEL             ....  134
 Basis Dimension        Dim             ....  322

ORBITAL ENERGIES
----------------

  NO   OCC          E(Eh)            E(eV)
   0   2.0000     -88.971025     -2421.0247
   1   2.0000     -88.961930     -2420.7772
   2   2.0000     -10.323124      -280.9065
   3   2.0000     -10.320115      -280.8246
   4   2.0000     -10.314004      -280.6583
   5   2.0000     -10.313308      -280.6394
   6   2.0000     -10.306683      -280.4591
   7   2.0000     -10.300288      -280.2851
   8   2.0000     -10.296422      -280.1799
   9   2.0000     -10.292947      -280.0853
  10   2.0000     -10.291051      -280.0337
  11   2.0000     -10.287946      -279.9492
  12   2.0000     -10.281771      -279.7812
  13   2.0000     -10.279799      -279.7276
  14   2.0000     -10.272590      -279.5314
  15   2.0000     -10.263800      -279.2922
  16   2.0000      -8.085921      -220.0291
  17   2.0000      -8.077225      -219.7925
  18   2.0000      -6.044308      -164.4740
  19   2.0000      -6.040402      -164.3677
  20   2.0000      -6.036816      -164.2701
  21   2.0000      -6.035735      -164.2407
  22   2.0000      -6.031637      -164.1292
  23   2.0000      -6.027963      -164.0292
  24   2.0000      -1.007704       -27.4210
  25   2.0000      -0.984545       -26.7908
  26   2.0000      -0.922566       -25.1043
  27   2.0000      -0.907139       -24.6845
  28   2.0000      -0.871351       -23.7107
  29   2.0000      -0.855626       -23.2828
  30   2.0000      -0.849081       -23.1047
  31   2.0000      -0.811134       -22.0721
  32   2.0000      -0.789385       -21.4803
  33   2.0000      -0.774167       -21.0661
  34   2.0000      -0.704437       -19.1687
  35   2.0000      -0.703957       -19.1556
  36   2.0000      -0.692595       -18.8465
  37   2.0000      -0.658755       -17.9256
  38   2.0000      -0.644084       -17.5264
  39   2.0000      -0.622451       -16.9378
  40   2.0000      -0.596102       -16.2208
  41   2.0000      -0.583792       -15.8858
  42   2.0000      -0.562077       -15.2949
  43   2.0000      -0.558412       -15.1952
  44   2.0000      -0.530386       -14.4325
  45   2.0000      -0.530004       -14.4221
  46   2.0000      -0.517053       -14.0697
  47   2.0000      -0.508269       -13.8307
  48   2.0000      -0.506185       -13.7740
  49   2.0000      -0.501498       -13.6465
  50   2.0000      -0.490454       -13.3459
  51   2.0000      -0.479670       -13.0525
  52   2.0000      -0.471343       -12.8259
  53   2.0000      -0.470746       -12.8097
  54   2.0000      -0.456952       -12.4343
  55   2.0000      -0.449417       -12.2293
  56   2.0000      -0.448142       -12.1946
  57   2.0000      -0.438003       -11.9187
  58   2.0000      -0.437117       -11.8946
  59   2.0000      -0.432518       -11.7694
  60   2.0000      -0.418150       -11.3784
  61   2.0000      -0.410142       -11.1605
  62   2.0000      -0.407459       -11.0875
  63   2.0000      -0.337056        -9.1718
  64   2.0000      -0.330139        -8.9835
  65   2.0000      -0.324522        -8.8307
  66   2.0000      -0.300397        -8.1742
  67   0.0000       0.039163         1.0657
  68   0.0000       0.058419         1.5897
  69   0.0000       0.113813         3.0970
  70   0.0000       0.121580         3.3083
  71   0.0000       0.129277         3.5178

MULLIKEN ATOMIC CHARGES
-----------------------
   0 S :    0.149432
   1 C :   -0.116026
   2 C :   -0.075539
   3 C :    0.030013
   4 C :   -0.156195
   5 H :    0.004817
   6 C :    0.127364
   7 H :   -0.001386
   8 H :   -0.006232
   9 C :   -0.087458
  10 H :    0.013266
  11 H :    0.023381
  12 C :    0.011318
  13 H :    0.005279
  14 H :    0.011587
  15 H :    0.044518
  16 S :    0.105420
  17 C :   -0.088827
  18 C :   -0.044685
  19 C :   -0.035200
  20 C :   -0.195572
  21 H :    0.015868
  22 C :    0.085152
  23 H :    0.044876
  24 H :    0.005335
  25 C :   -0.140047
  26 H :    0.029106
  27 H :    0.043727
  28 C :    0.030538
  29 H :    0.032629
  30 H :    0.013548
  31 H :    0.008969
  32 H :    0.038522
  33 H :    0.072499
Sum of atomic charges:   -0.0000000

LOEWDIN ATOMIC CHARGES
----------------------
   0 S :    0.429852
   1 C :   -0.207619
   2 C :   -0.060884
   3 C :   -0.044638
   4 C :   -0.212316
   5 H :    0.026144
   6 C :   -0.029346
   7 H :    0.021823
   8 H :    0.025406
   9 C :   -0.036540
  10 H :    0.017183
  11 H :    0.023772
  12 C :   -0.058314
  13 H :    0.019313
  14 H :    0.029822
  15 H :    0.026563
  16 S :    0.414518
  17 C :   -0.202669
  18 C :   -0.071991
  19 C :   -0.053057
  20 C :   -0.203113
  21 H :    0.026405
  22 C :   -0.026536
  23 H :    0.034074
  24 H :    0.027954
  25 C :   -0.048392
  26 H :    0.025020
  27 H :    0.025333
  28 C :   -0.046845
  29 H :    0.023431
  30 H :    0.018714
  31 H :    0.018721
  32 H :    0.027346
  33 H :    0.040870

  Mayer bond orders larger than 0.100000
B(  0-S ,  1-C ) :   1.1654 B(  0-S ,  4-C ) :   1.1372 B(  1-C ,  2-C ) :   1.6085
B(  1-C , 32-H ) :   0.9585 B(  2-C ,  3-C ) :   1.2487 B(  2-C ,  6-C ) :   1.0222
B(  3-C ,  4-C ) :   1.5860 B(  3-C ,  5-H ) :   0.9898 B(  4-C , 20-C ) :   1.0355
B(  6-C ,  7-H ) :   0.9303 B(  6-C ,  8-H ) :   0.9308 B(  6-C ,  9-C ) :   1.0688
B(  9-C , 10-H ) :   0.9508 B(  9-C , 11-H ) :   0.9545 B(  9-C , 12-C ) :   1.0987
B( 12-C , 13-H ) :   0.9647 B( 12-C , 14-H ) :   0.9626 B( 12-C , 15-H ) :   0.9754
B( 16-S , 17-C ) :   1.1431 B( 16-S , 20-C ) :   1.1582 B( 17-C , 18-C ) :   1.6304
B( 17-C , 33-H ) :   0.9574 B( 18-C , 19-C ) :   1.2450 B( 18-C , 21-H ) :   0.9740
B( 19-C , 20-C ) :   1.5912 B( 19-C , 22-C ) :   1.0378 B( 22-C , 23-H ) :   0.9380
B( 22-C , 24-H ) :   0.9374 B( 22-C , 25-C ) :   1.0523 B( 25-C , 26-H ) :   0.9566
B( 25-C , 27-H ) :   0.9492 B( 25-C , 28-C ) :   1.0767 B( 28-C , 29-H ) :   0.9766
B( 28-C , 30-H ) :   0.9730 B( 28-C , 31-H ) :   0.9671

Dispersion correction           -0.014283688
FINAL SINGLE POINT ENERGY     -1339.844345013618

DIPOLE MOMENT
-------------
                                X             Y             Z
Electronic contribution:     19.39307      14.94709      19.76529
Nuclear contribution   :    -19.89692     -15.14397     -20.22793
                        -----------------------------------------
Total Dipole Moment    :     -0.50385      -0.19688      -0.46264
                        -----------------------------------------
Magnitude (a.u.)       :      0.71180
Magnitude (Debye)      :      1.80926

Rotational constants in cm-1:     0.017664     0.008959     0.006732
Rotational constants in MHz :   529.546136   268.597439   201.834702

                             ****ORCA TERMINATED NORMALLY****
TOTAL RUN TIME: 0 days 0 hours 0 minutes 21 seconds 792 msec
