                         Program Version 4.2.1 -  RELEASE  -
|  1> ! wB97X-D3 SP def2-SVP
|  2> %pal
|  3> nprocs 24
|  4> end
|  5>
|  6> * xyz 0 1
|  7> S 	 -144.356 	 17.9287 	 -4.12224
|  8> C 	 -142.708 	 17.4936 	 -4.55206
|  9> C 	 -142.366 	 16.2364 	 -4.05526
| 10> C 	 -143.451 	 15.5837 	 -3.3815
| 11> C 	 -144.637 	 16.237 	 -3.54541
| 12> H 	 -143.27 	 14.6559 	 -2.81129
| 13> C 	 -141.048 	 15.571 	 -4.34781
| 14> H 	 -140.443 	 15.7686 	 -3.46411
| 15> H 	 -140.438 	 16.0886 	 -5.11437
| 16> C 	 -141.002 	 14.0723 	 -4.64906
| 17> H 	 -139.915 	 13.7342 	 -4.80392
| 18> H 	 -141.434 	 13.4358 	 -3.97118
| 19> C 	 -141.51 	 13.6078 	 -5.97909
| 20> H 	 -140.771 	 13.8388 	 -6.74168
| 21> H 	 -141.644 	 12.5265 	 -5.97831
| 22> H 	 -142.429 	 14.1205 	 -6.30284
| 23> S 	 -146.939 	 17.3023 	 -2.27841
| 24> C 	 -148.036 	 16.174 	 -1.61495
| 25> C 	 -147.747 	 14.8833 	 -1.96289
| 26> C 	 -146.521 	 14.7383 	 -2.69635
| 27> C 	 -145.886 	 15.9744 	 -2.86196
| 28> H 	 -148.459 	 14.1948 	 -1.53841
| 29> C 	 -146.079 	 13.4471 	 -3.10159
| 30> H 	 -145.413 	 13.4314 	 -4.01038
| 31> H 	 -146.936 	 12.8079 	 -3.38043
| 32> C 	 -145.48 	 12.5905 	 -1.93071
| 33> H 	 -146.093 	 12.4941 	 -1.08675
| 34> H 	 -144.621 	 13.069 	 -1.49782
| 35> C 	 -144.991 	 11.2448 	 -2.39712
| 36> H 	 -145.854 	 10.6567 	 -2.83033
| 37> H 	 -144.376 	 10.6729 	 -1.60157
| 38> H 	 -144.394 	 11.4763 	 -3.27322
| 39> H 	 -142.037 	 18.152 	 -5.16274
| 40> H 	 -148.843 	 16.2987 	 -0.971248
| 41> *
| 42>
| 43>                          ****END OF INPUT****

CARTESIAN COORDINATES (ANGSTROEM)
---------------------------------
  S    -144.356000   17.928700   -4.122240
  C    -142.708000   17.493600   -4.552060
  C    -142.366000   16.236400   -4.055260
  C    -143.451000   15.583700   -3.381500
  C    -144.637000   16.237000   -3.545410
  H    -143.270000   14.655900   -2.811290
  C    -141.048000   15.571000   -4.347810
  H    -140.443000   15.768600   -3.464110
  H    -140.438000   16.088600   -5.114370
  C    -141.002000   14.072300   -4.649060
  H    -139.915000   13.734200   -4.803920
  H    -141.434000   13.435800   -3.971180
  C    -141.510000   13.607800   -5.979090
  H    -140.771000   13.838800   -6.741680
  H    -141.644000   12.526500   -5.978310
  H    -142.429000   14.120500   -6.302840
  S    -146.939000   17.302300   -2.278410
  C    -148.036000   16.174000   -1.614950
  C    -147.747000   14.883300   -1.962890
  C    -146.521000   14.738300   -2.696350
  C    -145.886000   15.974400   -2.861960
  H    -148.459000   14.194800   -1.538410
  C    -146.079000   13.447100   -3.101590
  H    -145.413000   13.431400   -4.010380
  H    -146.936000   12.807900   -3.380430
  C    -145.480000   12.590500   -1.930710
  H    -146.093000   12.494100   -1.086750
  H    -144.621000   13.069000   -1.497820
  C    -144.991000   11.244800   -2.397120
  H    -145.854000   10.656700   -2.830330
  H    -144.376000   10.672900   -1.601570
  H    -144.394000   11.476300   -3.273220
  H    -142.037000   18.152000   -5.162740
  H    -148.843000   16.298700   -0.971248

 Total Charge           Charge          ....    0
 Multiplicity           Mult            ....    1
 Number of Electrons    NEL             ....  134
 Basis Dimension        Dim             ....  322

ORBITAL ENERGIES
----------------

  NO   OCC          E(Eh)            E(eV)
   0   2.0000     -88.967445     -2420.9273
   1   2.0000     -88.964744     -2420.8538
   2   2.0000     -10.334263      -281.2096
   3   2.0000     -10.328977      -281.0658
   4   2.0000     -10.319322      -280.8030
   5   2.0000     -10.307005      -280.4679
   6   2.0000     -10.303883      -280.3829
   7   2.0000     -10.302032      -280.3325
   8   2.0000     -10.299802      -280.2719
   9   2.0000     -10.295656      -280.1590
  10   2.0000     -10.294679      -280.1325
  11   2.0000     -10.288264      -279.9579
  12   2.0000     -10.287599      -279.9398
  13   2.0000     -10.284303      -279.8501
  14   2.0000     -10.281187      -279.7653
  15   2.0000     -10.272267      -279.5226
  16   2.0000      -8.082042      -219.9235
  17   2.0000      -8.078748      -219.8339
  18   2.0000      -6.040664      -164.3748
  19   2.0000      -6.037420      -164.2866
  20   2.0000      -6.036674      -164.2662
  21   2.0000      -6.033655      -164.1841
  22   2.0000      -6.032588      -164.1551
  23   2.0000      -6.029093      -164.0599
  24   2.0000      -1.006586       -27.3906
  25   2.0000      -0.983293       -26.7568
  26   2.0000      -0.919418       -25.0186
  27   2.0000      -0.914848       -24.8943
  28   2.0000      -0.873658       -23.7735
  29   2.0000      -0.859821       -23.3969
  30   2.0000      -0.847535       -23.0626
  31   2.0000      -0.820972       -22.3398
  32   2.0000      -0.784207       -21.3393
  33   2.0000      -0.768074       -20.9004
  34   2.0000      -0.710829       -19.3426
  35   2.0000      -0.702293       -19.1104
  36   2.0000      -0.690651       -18.7936
  37   2.0000      -0.658011       -17.9054
  38   2.0000      -0.639398       -17.3989
  39   2.0000      -0.626528       -17.0487
  40   2.0000      -0.603155       -16.4127
  41   2.0000      -0.572171       -15.5696
  42   2.0000      -0.563728       -15.3398
  43   2.0000      -0.555697       -15.1213
  44   2.0000      -0.543537       -14.7904
  45   2.0000      -0.531756       -14.4698
  46   2.0000      -0.518921       -14.1206
  47   2.0000      -0.510787       -13.8992
  48   2.0000      -0.508958       -13.8494
  49   2.0000      -0.500622       -13.6226
  50   2.0000      -0.489859       -13.3297
  51   2.0000      -0.482168       -13.1205
  52   2.0000      -0.467648       -12.7253
  53   2.0000      -0.463993       -12.6259
  54   2.0000      -0.455708       -12.4005
  55   2.0000      -0.449007       -12.2181
  56   2.0000      -0.444577       -12.0976
  57   2.0000      -0.441062       -12.0019
  58   2.0000      -0.439170       -11.9504
  59   2.0000      -0.427538       -11.6339
  60   2.0000      -0.423300       -11.5186
  61   2.0000      -0.413388       -11.2489
  62   2.0000      -0.404037       -10.9944
  63   2.0000      -0.360998        -9.8233
  64   2.0000      -0.331382        -9.0174
  65   2.0000      -0.324492        -8.8299
  66   2.0000      -0.281366        -7.6564
  67   0.0000       0.020951         0.5701
  68   0.0000       0.072051         1.9606
  69   0.0000       0.095217         2.5910
  70   0.0000       0.113011         3.0752
  71   0.0000       0.121765         3.3134

MULLIKEN ATOMIC CHARGES
-----------------------
   0 S :    0.073271
   1 C :   -0.134707
   2 C :   -0.082011
   3 C :   -0.006452
   4 C :   -0.103177
   5 H :    0.030473
   6 C :    0.080906
   7 H :    0.037394
   8 H :    0.019212
   9 C :   -0.078687
  10 H :    0.033741
  11 H :    0.008792
  12 C :   -0.055761
  13 H :    0.019474
  14 H :    0.032982
  15 H :    0.035254
  16 S :    0.110080
  17 C :   -0.056361
  18 C :   -0.049929
  19 C :    0.008708
  20 C :   -0.128719
  21 H :    0.013050
  22 C :    0.010794
  23 H :    0.039486
  24 H :    0.025782
  25 C :   -0.049294
  26 H :    0.013362
  27 H :    0.008924
  28 C :   -0.061279
  29 H :    0.032738
  30 H :    0.060575
  31 H :    0.019104
  32 H :    0.066474
  33 H :    0.025801
Sum of atomic charges:    0.0000000

LOEWDIN ATOMIC CHARGES
----------------------
   0 S :    0.366053
   1 C :   -0.197658
   2 C :   -0.064149
   3 C :   -0.061674
   4 C :   -0.160115
   5 H :    0.038835
   6 C :   -0.037776
   7 H :    0.039168
   8 H :    0.035503
   9 C :   -0.047090
  10 H :    0.040530
  11 H :    0.007516
  12 C :   -0.065953
  13 H :    0.020164
  14 H :    0.027210
  15 H :    0.023845
  16 S :    0.399446
  17 C :   -0.187497
  18 C :   -0.069555
  19 C :   -0.055826
  20 C :   -0.185017
  21 H :    0.031900
  22 C :   -0.040188
  23 H :    0.036232
  24 H :    0.037811
  25 C :   -0.037196
  26 H :    0.015673
  27 H :    0.016732
  28 C :   -0.074055
  29 H :    0.027682
  30 H :    0.039619
  31 H :    0.021129
  32 H :    0.037617
  33 H :    0.021082

  Mayer bond orders larger than 0.100000
B(  0-S ,  1-C ) :   1.1243 B(  0-S ,  4-C ) :   1.1174 B(  1-C ,  2-C ) :   1.6242
B(  1-C , 32-H ) :   0.9621 B(  2-C ,  3-C ) :   1.2301 B(  2-C ,  6-C ) :   1.0196
B(  3-C ,  4-C ) :   1.5742 B(  3-C ,  5-H ) :   0.9837 B(  4-C , 20-C ) :   1.0892
B(  6-C ,  7-H ) :   0.9221 B(  6-C ,  8-H ) :   0.9460 B(  6-C ,  9-C ) :   1.0794
B(  9-C , 10-H ) :   0.9563 B(  9-C , 11-H ) :   0.9595 B(  9-C , 12-C ) :   1.0716
B( 12-C , 13-H ) :   0.9793 B( 12-C , 14-H ) :   0.9746 B( 12-C , 15-H ) :   0.9750
B( 16-S , 17-C ) :   1.1447 B( 16-S , 20-C ) :   1.1098 B( 17-C , 18-C ) :   1.6594
B( 17-C , 33-H ) :   0.9674 B( 18-C , 19-C ) :   1.1977 B( 18-C , 21-H ) :   0.9921
B( 19-C , 20-C ) :   1.5847 B( 19-C , 22-C ) :   1.0988 B( 22-C , 23-H ) :   0.9238
B( 22-C , 24-H ) :   0.9218 B( 22-C , 25-C ) :   1.0462 B( 25-C , 26-H ) :   0.9519
B( 25-C , 27-H ) :   0.9482 B( 25-C , 28-C ) :   1.0830 B( 28-C , 29-H ) :   0.9706
B( 28-C , 30-H ) :   0.9710 B( 28-C , 31-H ) :   0.9705

Dispersion correction           -0.014620187
FINAL SINGLE POINT ENERGY     -1339.855963939487

DIPOLE MOMENT
-------------
                                X             Y             Z
Electronic contribution:    -15.31757      28.67501       4.36086
Nuclear contribution   :     15.63376     -29.34203      -4.20293
                        -----------------------------------------
Total Dipole Moment    :      0.31619      -0.66703       0.15793
                        -----------------------------------------
Magnitude (a.u.)       :      0.75488
Magnitude (Debye)      :      1.91875

Rotational constants in cm-1:     0.016802     0.010695     0.006879
Rotational constants in MHz :   503.696466   320.614844   206.232781

                             ****ORCA TERMINATED NORMALLY****
TOTAL RUN TIME: 0 days 0 hours 0 minutes 21 seconds 304 msec
