                         Program Version 4.2.1 -  RELEASE  -
|  1> ! wB97X-D3 SP def2-SVP
|  2> %pal
|  3> nprocs 24
|  4> end
|  5>
|  6> * xyz 0 1
|  7> S 	 -54.0722 	 -51.5938 	 -87.4841
|  8> C 	 -55.209 	 -50.8576 	 -88.5018
|  9> C 	 -55.8058 	 -49.7346 	 -87.943
| 10> C 	 -55.3177 	 -49.5741 	 -86.6203
| 11> C 	 -54.329 	 -50.4233 	 -86.2133
| 12> H 	 -55.5829 	 -48.8112 	 -85.7755
| 13> C 	 -56.7917 	 -48.7669 	 -88.534
| 14> H 	 -56.8723 	 -48.9813 	 -89.6236
| 15> H 	 -56.313 	 -47.8766 	 -88.664
| 16> C 	 -58.2648 	 -48.634 	 -88.0222
| 17> H 	 -58.7875 	 -49.58 	 -88.1128
| 18> H 	 -58.2213 	 -48.4538 	 -86.9399
| 19> C 	 -59.0672 	 -47.5157 	 -88.7378
| 20> H 	 -58.5108 	 -46.6223 	 -88.8522
| 21> H 	 -59.6006 	 -47.8446 	 -89.5985
| 22> H 	 -59.9156 	 -47.26 	 -88.1342
| 23> S 	 -52.8246 	 -49.1456 	 -84.4346
| 24> C 	 -52.6225 	 -49.7819 	 -82.8045
| 25> C 	 -53.2069 	 -51.0091 	 -82.6918
| 26> C 	 -53.9263 	 -51.414 	 -83.8339
| 27> C 	 -53.8499 	 -50.4642 	 -84.8772
| 28> H 	 -53.0947 	 -51.5238 	 -81.7549
| 29> C 	 -54.7446 	 -52.6271 	 -83.8737
| 30> H 	 -54.7545 	 -52.9538 	 -84.9036
| 31> H 	 -55.7337 	 -52.3901 	 -83.5676
| 32> C 	 -54.1911 	 -53.7718 	 -82.9738
| 33> H 	 -54.9189 	 -54.5562 	 -83.259
| 34> H 	 -54.2326 	 -53.51 	 -81.8905
| 35> C 	 -52.8624 	 -54.3796 	 -83.4748
| 36> H 	 -53.0477 	 -54.7331 	 -84.5328
| 37> H 	 -52.5359 	 -55.2711 	 -82.9448
| 38> H 	 -52.0856 	 -53.616 	 -83.3007
| 39> H 	 -55.3043 	 -51.0763 	 -89.6
| 40> H 	 -51.868 	 -49.5128 	 -82.0976
| 41> *
| 42>
| 43>                          ****END OF INPUT****

CARTESIAN COORDINATES (ANGSTROEM)
---------------------------------
  S    -54.072200  -51.593800  -87.484100
  C    -55.209000  -50.857600  -88.501800
  C    -55.805800  -49.734600  -87.943000
  C    -55.317700  -49.574100  -86.620300
  C    -54.329000  -50.423300  -86.213300
  H    -55.582900  -48.811200  -85.775500
  C    -56.791700  -48.766900  -88.534000
  H    -56.872300  -48.981300  -89.623600
  H    -56.313000  -47.876600  -88.664000
  C    -58.264800  -48.634000  -88.022200
  H    -58.787500  -49.580000  -88.112800
  H    -58.221300  -48.453800  -86.939900
  C    -59.067200  -47.515700  -88.737800
  H    -58.510800  -46.622300  -88.852200
  H    -59.600600  -47.844600  -89.598500
  H    -59.915600  -47.260000  -88.134200
  S    -52.824600  -49.145600  -84.434600
  C    -52.622500  -49.781900  -82.804500
  C    -53.206900  -51.009100  -82.691800
  C    -53.926300  -51.414000  -83.833900
  C    -53.849900  -50.464200  -84.877200
  H    -53.094700  -51.523800  -81.754900
  C    -54.744600  -52.627100  -83.873700
  H    -54.754500  -52.953800  -84.903600
  H    -55.733700  -52.390100  -83.567600
  C    -54.191100  -53.771800  -82.973800
  H    -54.918900  -54.556200  -83.259000
  H    -54.232600  -53.510000  -81.890500
  C    -52.862400  -54.379600  -83.474800
  H    -53.047700  -54.733100  -84.532800
  H    -52.535900  -55.271100  -82.944800
  H    -52.085600  -53.616000  -83.300700
  H    -55.304300  -51.076300  -89.600000
  H    -51.868000  -49.512800  -82.097600

 Total Charge           Charge          ....    0
 Multiplicity           Mult            ....    1
 Number of Electrons    NEL             ....  134
 Basis Dimension        Dim             ....  322

ORBITAL ENERGIES
----------------

  NO   OCC          E(Eh)            E(eV)
   0   2.0000     -88.968026     -2420.9431
   1   2.0000     -88.963858     -2420.8296
   2   2.0000     -10.320417      -280.8328
   3   2.0000     -10.319871      -280.8180
   4   2.0000     -10.316987      -280.7395
   5   2.0000     -10.309471      -280.5350
   6   2.0000     -10.302251      -280.3385
   7   2.0000     -10.296181      -280.1733
   8   2.0000     -10.294821      -280.1363
   9   2.0000     -10.292018      -280.0600
  10   2.0000     -10.290043      -280.0063
  11   2.0000     -10.286970      -279.9227
  12   2.0000     -10.286831      -279.9189
  13   2.0000     -10.281352      -279.7698
  14   2.0000     -10.281229      -279.7665
  15   2.0000     -10.274003      -279.5698
  16   2.0000      -8.083337      -219.9588
  17   2.0000      -8.078650      -219.8313
  18   2.0000      -6.041791      -164.4055
  19   2.0000      -6.037586      -164.2911
  20   2.0000      -6.037091      -164.2776
  21   2.0000      -6.034291      -164.2014
  22   2.0000      -6.033044      -164.1675
  23   2.0000      -6.029575      -164.0731
  24   2.0000      -1.013775       -27.5862
  25   2.0000      -0.989383       -26.9225
  26   2.0000      -0.911505       -24.8033
  27   2.0000      -0.907937       -24.7062
  28   2.0000      -0.878282       -23.8993
  29   2.0000      -0.853263       -23.2185
  30   2.0000      -0.843506       -22.9530
  31   2.0000      -0.816855       -22.2278
  32   2.0000      -0.786370       -21.3982
  33   2.0000      -0.770295       -20.9608
  34   2.0000      -0.712599       -19.3908
  35   2.0000      -0.702394       -19.1131
  36   2.0000      -0.692313       -18.8388
  37   2.0000      -0.658220       -17.9111
  38   2.0000      -0.638051       -17.3622
  39   2.0000      -0.616078       -16.7643
  40   2.0000      -0.597832       -16.2678
  41   2.0000      -0.572549       -15.5799
  42   2.0000      -0.560739       -15.2585
  43   2.0000      -0.556304       -15.1378
  44   2.0000      -0.534825       -14.5533
  45   2.0000      -0.528511       -14.3815
  46   2.0000      -0.521483       -14.1903
  47   2.0000      -0.511756       -13.9256
  48   2.0000      -0.504351       -13.7241
  49   2.0000      -0.496195       -13.5022
  50   2.0000      -0.486235       -13.2311
  51   2.0000      -0.481158       -13.0930
  52   2.0000      -0.464634       -12.6433
  53   2.0000      -0.463892       -12.6231
  54   2.0000      -0.459521       -12.5042
  55   2.0000      -0.450363       -12.2550
  56   2.0000      -0.443780       -12.0759
  57   2.0000      -0.443335       -12.0638
  58   2.0000      -0.434269       -11.8171
  59   2.0000      -0.428344       -11.6558
  60   2.0000      -0.426432       -11.6038
  61   2.0000      -0.407357       -11.0847
  62   2.0000      -0.400495       -10.8980
  63   2.0000      -0.345454        -9.4003
  64   2.0000      -0.334617        -9.1054
  65   2.0000      -0.324873        -8.8402
  66   2.0000      -0.293834        -7.9956
  67   0.0000       0.038221         1.0400
  68   0.0000       0.062252         1.6940
  69   0.0000       0.118348         3.2204
  70   0.0000       0.121076         3.2947
  71   0.0000       0.135046         3.6748

MULLIKEN ATOMIC CHARGES
-----------------------
   0 S :    0.129745
   1 C :   -0.134710
   2 C :   -0.073848
   3 C :   -0.019622
   4 C :   -0.157368
   5 H :    0.049872
   6 C :    0.095605
   7 H :   -0.001531
   8 H :    0.005495
   9 C :   -0.067668
  10 H :    0.030917
  11 H :    0.030267
  12 C :   -0.018119
  13 H :    0.030279
  14 H :    0.029356
  15 H :    0.017354
  16 S :    0.111678
  17 C :   -0.071222
  18 C :   -0.066536
  19 C :   -0.038191
  20 C :   -0.199784
  21 H :    0.015099
  22 C :    0.131129
  23 H :    0.005706
  24 H :    0.036004
  25 C :   -0.131220
  26 H :    0.032309
  27 H :    0.048286
  28 C :   -0.057884
  29 H :    0.042858
  30 H :    0.034952
  31 H :    0.042748
  32 H :    0.068291
  33 H :    0.049753
Sum of atomic charges:    0.0000000

LOEWDIN ATOMIC CHARGES
----------------------
   0 S :    0.433273
   1 C :   -0.217006
   2 C :   -0.070393
   3 C :   -0.066719
   4 C :   -0.220271
   5 H :    0.047246
   6 C :   -0.037355
   7 H :    0.032687
   8 H :    0.020285
   9 C :   -0.031647
  10 H :    0.026044
  11 H :    0.022611
  12 C :   -0.060966
  13 H :    0.022331
  14 H :    0.025203
  15 H :    0.029157
  16 S :    0.422396
  17 C :   -0.187838
  18 C :   -0.072192
  19 C :   -0.060235
  20 C :   -0.206529
  21 H :    0.030500
  22 C :   -0.028498
  23 H :    0.023425
  24 H :    0.033682
  25 C :   -0.047792
  26 H :    0.029975
  27 H :    0.024612
  28 C :   -0.070375
  29 H :    0.035613
  30 H :    0.024353
  31 H :    0.025716
  32 H :    0.041168
  33 H :    0.027537

  Mayer bond orders larger than 0.100000
B(  0-S ,  1-C ) :   1.1694 B(  0-S ,  4-C ) :   1.1272 B(  1-C ,  2-C ) :   1.5904
B(  1-C , 32-H ) :   0.9538 B(  2-C ,  3-C ) :   1.2460 B(  2-C ,  6-C ) :   1.0298
B(  3-C ,  4-C ) :   1.5883 B(  3-C ,  5-H ) :   0.9734 B(  4-C , 20-C ) :   1.0413
B(  6-C ,  7-H ) :   0.9266 B(  6-C ,  8-H ) :   0.9309 B(  6-C ,  9-C ) :   1.0509
B(  9-C , 10-H ) :   0.9565 B(  9-C , 11-H ) :   0.9619 B(  9-C , 12-C ) :   1.0816
B( 12-C , 13-H ) :   0.9770 B( 12-C , 14-H ) :   0.9751 B( 12-C , 15-H ) :   0.9687
B( 16-S , 17-C ) :   1.1524 B( 16-S , 20-C ) :   1.1688 B( 17-C , 18-C ) :   1.6130
B( 17-C , 20-C ) :   0.1062 B( 17-C , 33-H ) :   0.9605 B( 18-C , 19-C ) :   1.2533
B( 18-C , 21-H ) :   0.9875 B( 19-C , 20-C ) :   1.5496 B( 19-C , 22-C ) :   1.0492
B( 22-C , 23-H ) :   0.9178 B( 22-C , 24-H ) :   0.9219 B( 22-C , 25-C ) :   1.0800
B( 25-C , 26-H ) :   0.9577 B( 25-C , 27-H ) :   0.9492 B( 25-C , 28-C ) :   1.0725
B( 28-C , 29-H ) :   0.9720 B( 28-C , 30-H ) :   0.9755 B( 28-C , 31-H ) :   0.9748

Dispersion correction           -0.014033901
FINAL SINGLE POINT ENERGY     -1339.860728004631

DIPOLE MOMENT
-------------
                                X             Y             Z
Electronic contribution:     16.10264       3.77412       0.29130
Nuclear contribution   :    -16.52891      -3.84278      -0.25957
                        -----------------------------------------
Total Dipole Moment    :     -0.42628      -0.06866       0.03173
                        -----------------------------------------
Magnitude (a.u.)       :      0.43294
Magnitude (Debye)      :      1.10044

Rotational constants in cm-1:     0.022474     0.007117     0.006470
Rotational constants in MHz :   673.747802   213.365390   193.967562

                             ****ORCA TERMINATED NORMALLY****
TOTAL RUN TIME: 0 days 0 hours 0 minutes 21 seconds 34 msec
