                         Program Version 4.2.1 -  RELEASE  -
|  1> ! wB97X-D3 SP def2-SVP
|  2> %pal
|  3> nprocs 24
|  4> end
|  5>
|  6> * xyz 0 1
|  7> S 	 -49.4658 	 -52.2054 	 -74.0202
|  8> C 	 -48.8356 	 -50.752 	 -74.6451
|  9> C 	 -47.8644 	 -50.2252 	 -73.8186
| 10> C 	 -47.4753 	 -51.1423 	 -72.8387
| 11> C 	 -48.3158 	 -52.217 	 -72.7011
| 12> H 	 -46.5791 	 -51.0169 	 -72.2089
| 13> C 	 -47.1678 	 -48.9183 	 -74.1051
| 14> H 	 -46.7788 	 -48.2771 	 -73.3219
| 15> H 	 -48.0156 	 -48.2621 	 -74.3398
| 16> C 	 -46.2597 	 -48.8108 	 -75.33
| 17> H 	 -45.2675 	 -49.172 	 -75.0739
| 18> H 	 -46.7047 	 -49.3872 	 -76.2058
| 19> C 	 -46.1692 	 -47.3803 	 -75.7768
| 20> H 	 -45.4821 	 -46.7458 	 -75.1887
| 21> H 	 -45.7433 	 -47.4216 	 -76.7799
| 22> H 	 -47.17 	 -46.8984 	 -75.8718
| 23> S 	 -48.2337 	 -54.9846 	 -72.4565
| 24> C 	 -47.7193 	 -55.7393 	 -71.0011
| 25> C 	 -47.5887 	 -54.8027 	 -69.9993
| 26> C 	 -47.8981 	 -53.4505 	 -70.4183
| 27> C 	 -48.099 	 -53.3316 	 -71.7975
| 28> H 	 -47.3684 	 -55.0268 	 -68.9775
| 29> C 	 -47.8763 	 -52.2542 	 -69.3998
| 30> H 	 -47.9475 	 -51.2525 	 -69.8098
| 31> H 	 -46.9218 	 -52.1185 	 -68.8065
| 32> C 	 -49.045 	 -52.3568 	 -68.4294
| 33> H 	 -49.0271 	 -51.484 	 -67.7305
| 34> H 	 -48.9345 	 -53.2886 	 -67.8864
| 35> C 	 -50.4637 	 -52.3465 	 -69.1109
| 36> H 	 -50.6098 	 -53.1145 	 -69.8305
| 37> H 	 -50.5746 	 -51.4268 	 -69.7064
| 38> H 	 -51.2534 	 -52.1389 	 -68.439
| 39> H 	 -49.2922 	 -50.2874 	 -75.4634
| 40> H 	 -47.4345 	 -56.7881 	 -70.921
| 41> *
| 42>
| 43>                          ****END OF INPUT****

CARTESIAN COORDINATES (ANGSTROEM)
---------------------------------
  S    -49.465800  -52.205400  -74.020200
  C    -48.835600  -50.752000  -74.645100
  C    -47.864400  -50.225200  -73.818600
  C    -47.475300  -51.142300  -72.838700
  C    -48.315800  -52.217000  -72.701100
  H    -46.579100  -51.016900  -72.208900
  C    -47.167800  -48.918300  -74.105100
  H    -46.778800  -48.277100  -73.321900
  H    -48.015600  -48.262100  -74.339800
  C    -46.259700  -48.810800  -75.330000
  H    -45.267500  -49.172000  -75.073900
  H    -46.704700  -49.387200  -76.205800
  C    -46.169200  -47.380300  -75.776800
  H    -45.482100  -46.745800  -75.188700
  H    -45.743300  -47.421600  -76.779900
  H    -47.170000  -46.898400  -75.871800
  S    -48.233700  -54.984600  -72.456500
  C    -47.719300  -55.739300  -71.001100
  C    -47.588700  -54.802700  -69.999300
  C    -47.898100  -53.450500  -70.418300
  C    -48.099000  -53.331600  -71.797500
  H    -47.368400  -55.026800  -68.977500
  C    -47.876300  -52.254200  -69.399800
  H    -47.947500  -51.252500  -69.809800
  H    -46.921800  -52.118500  -68.806500
  C    -49.045000  -52.356800  -68.429400
  H    -49.027100  -51.484000  -67.730500
  H    -48.934500  -53.288600  -67.886400
  C    -50.463700  -52.346500  -69.110900
  H    -50.609800  -53.114500  -69.830500
  H    -50.574600  -51.426800  -69.706400
  H    -51.253400  -52.138900  -68.439000
  H    -49.292200  -50.287400  -75.463400
  H    -47.434500  -56.788100  -70.921000

 Total Charge           Charge          ....    0
 Multiplicity           Mult            ....    1
 Number of Electrons    NEL             ....  134
 Basis Dimension        Dim             ....  322

ORBITAL ENERGIES
----------------

  NO   OCC          E(Eh)            E(eV)
   0   2.0000     -88.967397     -2420.9260
   1   2.0000     -88.961914     -2420.7768
   2   2.0000     -10.331658      -281.1387
   3   2.0000     -10.327021      -281.0125
   4   2.0000     -10.318946      -280.7928
   5   2.0000     -10.311371      -280.5867
   6   2.0000     -10.308915      -280.5198
   7   2.0000     -10.298710      -280.2421
   8   2.0000     -10.296107      -280.1713
   9   2.0000     -10.295043      -280.1424
  10   2.0000     -10.290730      -280.0250
  11   2.0000     -10.288987      -279.9776
  12   2.0000     -10.287830      -279.9461
  13   2.0000     -10.287053      -279.9249
  14   2.0000     -10.280240      -279.7396
  15   2.0000     -10.266118      -279.3553
  16   2.0000      -8.082985      -219.9492
  17   2.0000      -8.077055      -219.7878
  18   2.0000      -6.041364      -164.3939
  19   2.0000      -6.037274      -164.2826
  20   2.0000      -6.035657      -164.2386
  21   2.0000      -6.033941      -164.1919
  22   2.0000      -6.031393      -164.1225
  23   2.0000      -6.027791      -164.0245
  24   2.0000      -1.012022       -27.5385
  25   2.0000      -0.988000       -26.8848
  26   2.0000      -0.916818       -24.9479
  27   2.0000      -0.902183       -24.5496
  28   2.0000      -0.873612       -23.7722
  29   2.0000      -0.856018       -23.2934
  30   2.0000      -0.837351       -22.7855
  31   2.0000      -0.815168       -22.1818
  32   2.0000      -0.783126       -21.3099
  33   2.0000      -0.772883       -21.0312
  34   2.0000      -0.704730       -19.1767
  35   2.0000      -0.696717       -18.9586
  36   2.0000      -0.690029       -18.7767
  37   2.0000      -0.658546       -17.9199
  38   2.0000      -0.647115       -17.6089
  39   2.0000      -0.623860       -16.9761
  40   2.0000      -0.604549       -16.4506
  41   2.0000      -0.579238       -15.7619
  42   2.0000      -0.560643       -15.2559
  43   2.0000      -0.549928       -14.9643
  44   2.0000      -0.536897       -14.6097
  45   2.0000      -0.524041       -14.2599
  46   2.0000      -0.516009       -14.0413
  47   2.0000      -0.509199       -13.8560
  48   2.0000      -0.505105       -13.7446
  49   2.0000      -0.499748       -13.5988
  50   2.0000      -0.490587       -13.3495
  51   2.0000      -0.476758       -12.9733
  52   2.0000      -0.473872       -12.8947
  53   2.0000      -0.463909       -12.6236
  54   2.0000      -0.457590       -12.4516
  55   2.0000      -0.446923       -12.1614
  56   2.0000      -0.442721       -12.0470
  57   2.0000      -0.434705       -11.8289
  58   2.0000      -0.429351       -11.6832
  59   2.0000      -0.427039       -11.6203
  60   2.0000      -0.415926       -11.3179
  61   2.0000      -0.410493       -11.1701
  62   2.0000      -0.405382       -11.0310
  63   2.0000      -0.354537        -9.6474
  64   2.0000      -0.331930        -9.0323
  65   2.0000      -0.328819        -8.9476
  66   2.0000      -0.289519        -7.8782
  67   0.0000       0.027669         0.7529
  68   0.0000       0.070312         1.9133
  69   0.0000       0.112154         3.0519
  70   0.0000       0.122747         3.3401
  71   0.0000       0.137519         3.7421

MULLIKEN ATOMIC CHARGES
-----------------------
   0 S :    0.118849
   1 C :   -0.114983
   2 C :   -0.034083
   3 C :    0.007672
   4 C :   -0.132378
   5 H :    0.025688
   6 C :    0.038244
   7 H :    0.017879
   8 H :    0.008067
   9 C :   -0.061394
  10 H :    0.032731
  11 H :    0.038008
  12 C :   -0.074915
  13 H :    0.038656
  14 H :    0.031447
  15 H :    0.036015
  16 S :    0.092588
  17 C :   -0.085223
  18 C :   -0.018729
  19 C :   -0.042179
  20 C :   -0.158935
  21 H :    0.014196
  22 C :    0.052838
  23 H :    0.015867
  24 H :    0.039446
  25 C :   -0.097778
  26 H :    0.033770
  27 H :    0.028912
  28 C :   -0.032545
  29 H :    0.045158
  30 H :    0.009720
  31 H :    0.023722
  32 H :    0.033498
  33 H :    0.070169
Sum of atomic charges:   -0.0000000

LOEWDIN ATOMIC CHARGES
----------------------
   0 S :    0.428856
   1 C :   -0.194086
   2 C :   -0.065821
   3 C :   -0.057321
   4 C :   -0.202198
   5 H :    0.037940
   6 C :   -0.048109
   7 H :    0.030749
   8 H :    0.032881
   9 C :   -0.040208
  10 H :    0.024045
  11 H :    0.031897
  12 C :   -0.071255
  13 H :    0.025623
  14 H :    0.028257
  15 H :    0.026998
  16 S :    0.398292
  17 C :   -0.191665
  18 C :   -0.070906
  19 C :   -0.052871
  20 C :   -0.184402
  21 H :    0.026999
  22 C :   -0.038763
  23 H :    0.025745
  24 H :    0.036265
  25 C :   -0.039633
  26 H :    0.027927
  27 H :    0.016755
  28 C :   -0.067776
  29 H :    0.023171
  30 H :    0.027579
  31 H :    0.022109
  32 H :    0.016497
  33 H :    0.036432

  Mayer bond orders larger than 0.100000
B(  0-S ,  1-C ) :   1.1676 B(  0-S ,  4-C ) :   1.1525 B(  1-C ,  2-C ) :   1.5585
B(  1-C , 32-H ) :   0.9773 B(  2-C ,  3-C ) :   1.2811 B(  2-C ,  6-C ) :   1.0150
B(  3-C ,  4-C ) :   1.5498 B(  3-C ,  5-H ) :   0.9913 B(  4-C , 20-C ) :   1.0601
B(  6-C ,  7-H ) :   0.9448 B(  6-C ,  8-H ) :   0.9344 B(  6-C ,  9-C ) :   1.0677
B(  9-C , 10-H ) :   0.9515 B(  9-C , 11-H ) :   0.9565 B(  9-C , 12-C ) :   1.0813
B( 12-C , 13-H ) :   0.9739 B( 12-C , 14-H ) :   0.9723 B( 12-C , 15-H ) :   0.9733
B( 16-S , 17-C ) :   1.1618 B( 16-S , 20-C ) :   1.1309 B( 17-C , 18-C ) :   1.5903
B( 17-C , 33-H ) :   0.9681 B( 18-C , 19-C ) :   1.2445 B( 18-C , 21-H ) :   0.9917
B( 19-C , 20-C ) :   1.5913 B( 19-C , 22-C ) :   1.0235 B( 22-C , 23-H ) :   0.9423
B( 22-C , 24-H ) :   0.9466 B( 22-C , 25-C ) :   1.0702 B( 25-C , 26-H ) :   0.9567
B( 25-C , 27-H ) :   0.9611 B( 25-C , 28-C ) :   1.0692 B( 28-C , 29-H ) :   0.9756
B( 28-C , 30-H ) :   0.9689 B( 28-C , 31-H ) :   0.9745

Dispersion correction           -0.014226922
FINAL SINGLE POINT ENERGY     -1339.873134116136

DIPOLE MOMENT
-------------
                                X             Y             Z
Electronic contribution:     -4.92685     -22.04886      -5.84532
Nuclear contribution   :      5.24443      22.57296       6.02627
                        -----------------------------------------
Total Dipole Moment    :      0.31758       0.52410       0.18094
                        -----------------------------------------
Magnitude (a.u.)       :      0.63897
Magnitude (Debye)      :      1.62413

Rotational constants in cm-1:     0.022637     0.007280     0.006529
Rotational constants in MHz :   678.643227   218.255722   195.739895

                             ****ORCA TERMINATED NORMALLY****
TOTAL RUN TIME: 0 days 0 hours 0 minutes 21 seconds 343 msec
