                         Program Version 4.2.1 -  RELEASE  -
|  1> ! wB97X-D3 SP def2-SVP
|  2> %pal
|  3> nprocs 24
|  4> end
|  5>
|  6> * xyz 0 1
|  7> S 	 -130.225 	 8.80099 	 -9.3355
|  8> C 	 -129.201 	 7.35986 	 -9.05767
|  9> C 	 -128.305 	 7.60235 	 -8.04799
| 10> C 	 -128.656 	 8.80946 	 -7.34185
| 11> C 	 -129.726 	 9.5095 	 -7.87663
| 12> H 	 -128.199 	 9.21265 	 -6.43035
| 13> C 	 -127.139 	 6.77741 	 -7.64613
| 14> H 	 -126.247 	 7.36303 	 -7.62247
| 15> H 	 -127.017 	 5.97109 	 -8.32373
| 16> C 	 -127.28 	 6.05956 	 -6.27657
| 17> H 	 -126.444 	 5.37567 	 -6.26257
| 18> H 	 -127.017 	 6.84313 	 -5.55775
| 19> C 	 -128.583 	 5.37214 	 -5.932
| 20> H 	 -129.35 	 6.0355 	 -5.50533
| 21> H 	 -128.872 	 4.97925 	 -6.93763
| 22> H 	 -128.314 	 4.56176 	 -5.27026
| 23> S 	 -130.219 	 10.9366 	 -5.55146
| 24> C 	 -130.59 	 12.6603 	 -5.73476
| 25> C 	 -131.066 	 12.9668 	 -6.99724
| 26> C 	 -130.846 	 11.9159 	 -7.96367
| 27> C 	 -130.328 	 10.7618 	 -7.31579
| 28> H 	 -131.379 	 13.9941 	 -7.28827
| 29> C 	 -130.928 	 12.2173 	 -9.46902
| 30> H 	 -131.818 	 11.6707 	 -9.79268
| 31> H 	 -130.021 	 11.758 	 -9.90291
| 32> C 	 -131.129 	 13.6649 	 -9.81358
| 33> H 	 -130.411 	 14.3044 	 -9.2427
| 34> H 	 -132.141 	 13.8058 	 -9.43861
| 35> C 	 -131.07 	 14.009 	 -11.3591
| 36> H 	 -130.883 	 15.0455 	 -11.6306
| 37> H 	 -131.995 	 13.7255 	 -11.9151
| 38> H 	 -130.284 	 13.514 	 -11.9051
| 39> H 	 -129.013 	 6.56203 	 -9.75175
| 40> H 	 -130.716 	 13.3987 	 -5.01421
| 41> *
| 42>
| 43>                          ****END OF INPUT****

CARTESIAN COORDINATES (ANGSTROEM)
---------------------------------
  S    -130.225000    8.800990   -9.335500
  C    -129.201000    7.359860   -9.057670
  C    -128.305000    7.602350   -8.047990
  C    -128.656000    8.809460   -7.341850
  C    -129.726000    9.509500   -7.876630
  H    -128.199000    9.212650   -6.430350
  C    -127.139000    6.777410   -7.646130
  H    -126.247000    7.363030   -7.622470
  H    -127.017000    5.971090   -8.323730
  C    -127.280000    6.059560   -6.276570
  H    -126.444000    5.375670   -6.262570
  H    -127.017000    6.843130   -5.557750
  C    -128.583000    5.372140   -5.932000
  H    -129.350000    6.035500   -5.505330
  H    -128.872000    4.979250   -6.937630
  H    -128.314000    4.561760   -5.270260
  S    -130.219000   10.936600   -5.551460
  C    -130.590000   12.660300   -5.734760
  C    -131.066000   12.966800   -6.997240
  C    -130.846000   11.915900   -7.963670
  C    -130.328000   10.761800   -7.315790
  H    -131.379000   13.994100   -7.288270
  C    -130.928000   12.217300   -9.469020
  H    -131.818000   11.670700   -9.792680
  H    -130.021000   11.758000   -9.902910
  C    -131.129000   13.664900   -9.813580
  H    -130.411000   14.304400   -9.242700
  H    -132.141000   13.805800   -9.438610
  C    -131.070000   14.009000  -11.359100
  H    -130.883000   15.045500  -11.630600
  H    -131.995000   13.725500  -11.915100
  H    -130.284000   13.514000  -11.905100
  H    -129.013000    6.562030   -9.751750
  H    -130.716000   13.398700   -5.014210

 Total Charge           Charge          ....    0
 Multiplicity           Mult            ....    1
 Number of Electrons    NEL             ....  134
 Basis Dimension        Dim             ....  322

ORBITAL ENERGIES
----------------

  NO   OCC          E(Eh)            E(eV)
   0   2.0000     -88.972510     -2421.0651
   1   2.0000     -88.965137     -2420.8644
   2   2.0000     -10.335940      -281.2552
   3   2.0000     -10.329652      -281.0841
   4   2.0000     -10.314934      -280.6836
   5   2.0000     -10.311867      -280.6002
   6   2.0000     -10.310151      -280.5535
   7   2.0000     -10.299931      -280.2754
   8   2.0000     -10.297745      -280.2159
   9   2.0000     -10.297109      -280.1986
  10   2.0000     -10.296021      -280.1690
  11   2.0000     -10.290558      -280.0203
  12   2.0000     -10.284832      -279.8645
  13   2.0000     -10.284511      -279.8558
  14   2.0000     -10.281032      -279.7611
  15   2.0000     -10.277174      -279.6561
  16   2.0000      -8.085849      -220.0271
  17   2.0000      -8.079930      -219.8661
  18   2.0000      -6.044536      -164.4802
  19   2.0000      -6.040722      -164.3764
  20   2.0000      -6.038597      -164.3186
  21   2.0000      -6.036344      -164.2573
  22   2.0000      -6.034462      -164.2061
  23   2.0000      -6.030488      -164.0979
  24   2.0000      -1.004284       -27.3279
  25   2.0000      -0.980864       -26.6907
  26   2.0000      -0.916518       -24.9397
  27   2.0000      -0.912235       -24.8232
  28   2.0000      -0.865737       -23.5579
  29   2.0000      -0.848527       -23.0896
  30   2.0000      -0.839406       -22.8414
  31   2.0000      -0.811292       -22.0764
  32   2.0000      -0.789442       -21.4818
  33   2.0000      -0.777656       -21.1611
  34   2.0000      -0.710198       -19.3255
  35   2.0000      -0.702341       -19.1117
  36   2.0000      -0.689758       -18.7693
  37   2.0000      -0.655177       -17.8283
  38   2.0000      -0.627242       -17.0681
  39   2.0000      -0.614640       -16.7252
  40   2.0000      -0.594610       -16.1802
  41   2.0000      -0.576856       -15.6971
  42   2.0000      -0.566250       -15.4084
  43   2.0000      -0.561422       -15.2771
  44   2.0000      -0.544920       -14.8280
  45   2.0000      -0.518781       -14.1167
  46   2.0000      -0.510326       -13.8867
  47   2.0000      -0.508617       -13.8402
  48   2.0000      -0.505329       -13.7507
  49   2.0000      -0.495169       -13.4742
  50   2.0000      -0.485534       -13.2120
  51   2.0000      -0.478761       -13.0278
  52   2.0000      -0.472697       -12.8627
  53   2.0000      -0.462764       -12.5925
  54   2.0000      -0.461096       -12.5471
  55   2.0000      -0.453494       -12.3402
  56   2.0000      -0.447464       -12.1761
  57   2.0000      -0.441407       -12.0113
  58   2.0000      -0.431672       -11.7464
  59   2.0000      -0.426030       -11.5929
  60   2.0000      -0.420338       -11.4380
  61   2.0000      -0.417171       -11.3518
  62   2.0000      -0.406569       -11.0633
  63   2.0000      -0.351587        -9.5672
  64   2.0000      -0.333982        -9.0881
  65   2.0000      -0.326776        -8.8920
  66   2.0000      -0.285345        -7.7646
  67   0.0000       0.021374         0.5816
  68   0.0000       0.080422         2.1884
  69   0.0000       0.097576         2.6552
  70   0.0000       0.112898         3.0721
  71   0.0000       0.136128         3.7042

MULLIKEN ATOMIC CHARGES
-----------------------
   0 S :    0.096415
   1 C :   -0.104573
   2 C :   -0.095198
   3 C :   -0.016290
   4 C :   -0.131665
   5 H :    0.016024
   6 C :    0.103704
   7 H :    0.033450
   8 H :   -0.001119
   9 C :   -0.120825
  10 H :    0.023582
  11 H :    0.021609
  12 C :   -0.014297
  13 H :    0.054688
  14 H :    0.022818
  15 H :    0.038830
  16 S :    0.110195
  17 C :   -0.049081
  18 C :   -0.067494
  19 C :   -0.087422
  20 C :   -0.132548
  21 H :    0.038410
  22 C :    0.075847
  23 H :    0.043968
  24 H :    0.042982
  25 C :   -0.120104
  26 H :    0.050392
  27 H :    0.040715
  28 C :   -0.032702
  29 H :    0.031697
  30 H :    0.035868
  31 H :    0.024765
  32 H :    0.039072
  33 H :    0.028289
Sum of atomic charges:   -0.0000000

LOEWDIN ATOMIC CHARGES
----------------------
   0 S :    0.411312
   1 C :   -0.191793
   2 C :   -0.055840
   3 C :   -0.080547
   4 C :   -0.204742
   5 H :    0.024367
   6 C :   -0.027957
   7 H :    0.034750
   8 H :    0.020335
   9 C :   -0.042177
  10 H :    0.021371
  11 H :    0.017478
  12 C :   -0.064226
  13 H :    0.033818
  14 H :    0.030347
  15 H :    0.029231
  16 S :    0.397993
  17 C :   -0.174330
  18 C :   -0.072639
  19 C :   -0.054625
  20 C :   -0.185248
  21 H :    0.037473
  22 C :   -0.038240
  23 H :    0.037062
  24 H :    0.030452
  25 C :   -0.044914
  26 H :    0.029213
  27 H :    0.028607
  28 C :   -0.070737
  29 H :    0.027732
  30 H :    0.031214
  31 H :    0.023766
  32 H :    0.024507
  33 H :    0.016986

  Mayer bond orders larger than 0.100000
B(  0-S ,  1-C ) :   1.1141 B(  0-S ,  4-C ) :   1.1545 B(  1-C ,  2-C ) :   1.6327
B(  1-C , 32-H ) :   0.9607 B(  2-C ,  3-C ) :   1.2103 B(  2-C ,  6-C ) :   1.0514
B(  3-C ,  4-C ) :   1.5727 B(  3-C ,  5-H ) :   0.9868 B(  4-C , 20-C ) :   1.0326
B(  6-C ,  7-H ) :   0.9375 B(  6-C ,  8-H ) :   0.9297 B(  6-C ,  9-C ) :   1.0715
B(  9-C , 10-H ) :   0.9610 B(  9-C , 11-H ) :   0.9533 B(  9-C , 12-C ) :   1.0723
B( 12-C , 13-H ) :   0.9702 B( 12-C , 14-H ) :   0.9750 B( 12-C , 15-H ) :   0.9732
B( 16-S , 17-C ) :   1.1327 B( 16-S , 20-C ) :   1.1372 B( 17-C , 18-C ) :   1.6365
B( 17-C , 33-H ) :   0.9641 B( 18-C , 19-C ) :   1.2545 B( 18-C , 21-H ) :   0.9648
B( 19-C , 20-C ) :   1.5954 B( 19-C , 22-C ) :   1.0108 B( 22-C , 23-H ) :   0.9261
B( 22-C , 24-H ) :   0.9318 B( 22-C , 25-C ) :   1.0896 B( 25-C , 26-H ) :   0.9557
B( 25-C , 27-H ) :   0.9464 B( 25-C , 28-C ) :   1.0662 B( 28-C , 29-H ) :   0.9773
B( 28-C , 30-H ) :   0.9759 B( 28-C , 31-H ) :   0.9770

Dispersion correction           -0.013906263
FINAL SINGLE POINT ENERGY     -1339.865157529458

DIPOLE MOMENT
-------------
                                X             Y             Z
Electronic contribution:     -5.08238       1.02991       6.50427
Nuclear contribution   :      5.40902      -0.80950      -6.67387
                        -----------------------------------------
Total Dipole Moment    :      0.32664       0.22042      -0.16960
                        -----------------------------------------
Magnitude (a.u.)       :      0.42900
Magnitude (Debye)      :      1.09044

Rotational constants in cm-1:     0.023455     0.007596     0.006094
Rotational constants in MHz :   703.162899   227.715343   182.684722

                             ****ORCA TERMINATED NORMALLY****
TOTAL RUN TIME: 0 days 0 hours 0 minutes 21 seconds 124 msec
