                         Program Version 4.2.1 -  RELEASE  -
|  1> ! wB97X-D3 SP def2-SVP
|  2> %pal
|  3> nprocs 24
|  4> end
|  5>
|  6> * xyz 0 1
|  7> S 	 15.4813 	 -11.9296 	 -128.075
|  8> C 	 14.1231 	 -12.2742 	 -129.117
|  9> C 	 13.662 	 -13.5696 	 -129.013
| 10> C 	 14.5404 	 -14.3878 	 -128.194
| 11> C 	 15.5568 	 -13.6934 	 -127.611
| 12> H 	 14.3798 	 -15.4317 	 -128.066
| 13> C 	 12.3227 	 -14.0756 	 -129.574
| 14> H 	 12.5794 	 -15.1158 	 -129.72
| 15> H 	 12.088 	 -13.6561 	 -130.547
| 16> C 	 11.1112 	 -14.0519 	 -128.614
| 17> H 	 10.2615 	 -14.675 	 -128.903
| 18> H 	 11.3582 	 -14.563 	 -127.632
| 19> C 	 10.6606 	 -12.6702 	 -128.208
| 20> H 	 9.83521 	 -12.7345 	 -127.465
| 21> H 	 11.393 	 -12.0896 	 -127.731
| 22> H 	 10.336 	 -11.9723 	 -129.049
| 23> S 	 18.089 	 -14.7957 	 -127.565
| 24> C 	 18.6315 	 -15.576 	 -126.077
| 25> C 	 17.7866 	 -15.4575 	 -125.05
| 26> C 	 16.6543 	 -14.6842 	 -125.422
| 27> C 	 16.5211 	 -14.2999 	 -126.776
| 28> H 	 18.109 	 -15.8903 	 -124.115
| 29> C 	 15.5677 	 -14.4293 	 -124.484
| 30> H 	 14.6228 	 -14.0662 	 -124.913
| 31> H 	 15.7958 	 -13.6153 	 -123.829
| 32> C 	 15.2135 	 -15.6489 	 -123.622
| 33> H 	 14.5129 	 -15.3024 	 -122.762
| 34> H 	 16.0937 	 -16.0465 	 -123.09
| 35> C 	 14.691 	 -16.9058 	 -124.462
| 36> H 	 14.7332 	 -17.908 	 -123.896
| 37> H 	 15.2393 	 -17.0948 	 -125.375
| 38> H 	 13.6259 	 -16.8695 	 -124.659
| 39> H 	 13.5391 	 -11.5614 	 -129.728
| 40> H 	 19.6347 	 -16.0158 	 -126.02
| 41> *
| 42>
| 43>                          ****END OF INPUT****

CARTESIAN COORDINATES (ANGSTROEM)
---------------------------------
  S     15.481300  -11.929600  -128.075000
  C     14.123100  -12.274200  -129.117000
  C     13.662000  -13.569600  -129.013000
  C     14.540400  -14.387800  -128.194000
  C     15.556800  -13.693400  -127.611000
  H     14.379800  -15.431700  -128.066000
  C     12.322700  -14.075600  -129.574000
  H     12.579400  -15.115800  -129.720000
  H     12.088000  -13.656100  -130.547000
  C     11.111200  -14.051900  -128.614000
  H     10.261500  -14.675000  -128.903000
  H     11.358200  -14.563000  -127.632000
  C     10.660600  -12.670200  -128.208000
  H      9.835210  -12.734500  -127.465000
  H     11.393000  -12.089600  -127.731000
  H     10.336000  -11.972300  -129.049000
  S     18.089000  -14.795700  -127.565000
  C     18.631500  -15.576000  -126.077000
  C     17.786600  -15.457500  -125.050000
  C     16.654300  -14.684200  -125.422000
  C     16.521100  -14.299900  -126.776000
  H     18.109000  -15.890300  -124.115000
  C     15.567700  -14.429300  -124.484000
  H     14.622800  -14.066200  -124.913000
  H     15.795800  -13.615300  -123.829000
  C     15.213500  -15.648900  -123.622000
  H     14.512900  -15.302400  -122.762000
  H     16.093700  -16.046500  -123.090000
  C     14.691000  -16.905800  -124.462000
  H     14.733200  -17.908000  -123.896000
  H     15.239300  -17.094800  -125.375000
  H     13.625900  -16.869500  -124.659000
  H     13.539100  -11.561400  -129.728000
  H     19.634700  -16.015800  -126.020000

 Total Charge           Charge          ....    0
 Multiplicity           Mult            ....    1
 Number of Electrons    NEL             ....  134
 Basis Dimension        Dim             ....  322

ORBITAL ENERGIES
----------------

  NO   OCC          E(Eh)            E(eV)
   0   2.0000     -88.968980     -2420.9690
   1   2.0000     -88.956878     -2420.6397
   2   2.0000     -10.331150      -281.1249
   3   2.0000     -10.328508      -281.0530
   4   2.0000     -10.318063      -280.7688
   5   2.0000     -10.317756      -280.7604
   6   2.0000     -10.307545      -280.4826
   7   2.0000     -10.302427      -280.3433
   8   2.0000     -10.298587      -280.2388
   9   2.0000     -10.297055      -280.1971
  10   2.0000     -10.296160      -280.1727
  11   2.0000     -10.293834      -280.1095
  12   2.0000     -10.291727      -280.0521
  13   2.0000     -10.282976      -279.8140
  14   2.0000     -10.282715      -279.8069
  15   2.0000     -10.276726      -279.6439
  16   2.0000      -8.082534      -219.9369
  17   2.0000      -8.071094      -219.6256
  18   2.0000      -6.041175      -164.3887
  19   2.0000      -6.037392      -164.2858
  20   2.0000      -6.033020      -164.1668
  21   2.0000      -6.029561      -164.0727
  22   2.0000      -6.025723      -163.9683
  23   2.0000      -6.021865      -163.8633
  24   2.0000      -1.001555       -27.2537
  25   2.0000      -0.980797       -26.6888
  26   2.0000      -0.909376       -24.7454
  27   2.0000      -0.905977       -24.6529
  28   2.0000      -0.877641       -23.8818
  29   2.0000      -0.847741       -23.0682
  30   2.0000      -0.833845       -22.6901
  31   2.0000      -0.818438       -22.2708
  32   2.0000      -0.783736       -21.3265
  33   2.0000      -0.771260       -20.9871
  34   2.0000      -0.715030       -19.4570
  35   2.0000      -0.697500       -18.9799
  36   2.0000      -0.694593       -18.9008
  37   2.0000      -0.651349       -17.7241
  38   2.0000      -0.639732       -17.4080
  39   2.0000      -0.622266       -16.9327
  40   2.0000      -0.605115       -16.4660
  41   2.0000      -0.569474       -15.4962
  42   2.0000      -0.552342       -15.0300
  43   2.0000      -0.548980       -14.9385
  44   2.0000      -0.542504       -14.7623
  45   2.0000      -0.528734       -14.3876
  46   2.0000      -0.517785       -14.0896
  47   2.0000      -0.510956       -13.9038
  48   2.0000      -0.501132       -13.6365
  49   2.0000      -0.490425       -13.3451
  50   2.0000      -0.487913       -13.2768
  51   2.0000      -0.477586       -12.9958
  52   2.0000      -0.467786       -12.7291
  53   2.0000      -0.462987       -12.5985
  54   2.0000      -0.457209       -12.4413
  55   2.0000      -0.451270       -12.2797
  56   2.0000      -0.446316       -12.1449
  57   2.0000      -0.435299       -11.8451
  58   2.0000      -0.433791       -11.8040
  59   2.0000      -0.424332       -11.5467
  60   2.0000      -0.412839       -11.2339
  61   2.0000      -0.410417       -11.1680
  62   2.0000      -0.408657       -11.1201
  63   2.0000      -0.339255        -9.2316
  64   2.0000      -0.330299        -8.9879
  65   2.0000      -0.315797        -8.5933
  66   2.0000      -0.310869        -8.4592
  67   0.0000       0.038679         1.0525
  68   0.0000       0.047141         1.2828
  69   0.0000       0.109695         2.9849
  70   0.0000       0.119565         3.2535
  71   0.0000       0.127066         3.4576

MULLIKEN ATOMIC CHARGES
-----------------------
   0 S :    0.116437
   1 C :   -0.112842
   2 C :   -0.120773
   3 C :    0.059566
   4 C :   -0.155294
   5 H :    0.010107
   6 C :    0.092475
   7 H :    0.018146
   8 H :    0.030780
   9 C :   -0.064571
  10 H :    0.035537
  11 H :    0.024986
  12 C :   -0.063180
  13 H :    0.033208
  14 H :    0.024792
  15 H :    0.027609
  16 S :    0.075589
  17 C :   -0.092803
  18 C :   -0.025698
  19 C :   -0.009884
  20 C :   -0.174754
  21 H :    0.023627
  22 C :    0.102054
  23 H :    0.026102
  24 H :    0.026208
  25 C :   -0.132675
  26 H :    0.044020
  27 H :    0.031948
  28 C :   -0.078825
  29 H :    0.033675
  30 H :    0.048529
  31 H :    0.028856
  32 H :    0.054096
  33 H :    0.062949
Sum of atomic charges:   -0.0000000

LOEWDIN ATOMIC CHARGES
----------------------
   0 S :    0.375426
   1 C :   -0.194854
   2 C :   -0.067970
   3 C :   -0.035211
   4 C :   -0.187255
   5 H :    0.030553
   6 C :   -0.029062
   7 H :    0.031401
   8 H :    0.029893
   9 C :   -0.047666
  10 H :    0.027186
  11 H :    0.032039
  12 C :   -0.073940
  13 H :    0.030285
  14 H :    0.016438
  15 H :    0.026685
  16 S :    0.359130
  17 C :   -0.159868
  18 C :   -0.082629
  19 C :   -0.042761
  20 C :   -0.181228
  21 H :    0.038910
  22 C :   -0.040163
  23 H :    0.034058
  24 H :    0.033544
  25 C :   -0.045505
  26 H :    0.034310
  27 H :    0.018803
  28 C :   -0.078488
  29 H :    0.033850
  30 H :    0.025147
  31 H :    0.020944
  32 H :    0.035546
  33 H :    0.032453

  Mayer bond orders larger than 0.100000
B(  0-S ,  1-C ) :   1.1313 B(  0-S ,  4-C ) :   1.0904 B(  1-C ,  2-C ) :   1.6514
B(  1-C , 32-H ) :   0.9564 B(  2-C ,  3-C ) :   1.2146 B(  2-C ,  6-C ) :   1.0188
B(  3-C ,  4-C ) :   1.6131 B(  3-C ,  5-H ) :   0.9940 B(  4-C , 20-C ) :   1.0868
B(  6-C ,  7-H ) :   0.9327 B(  6-C ,  8-H ) :   0.9461 B(  6-C ,  9-C ) :   1.0675
B(  9-C , 10-H ) :   0.9573 B(  9-C , 11-H ) :   0.9499 B(  9-C , 12-C ) :   1.0782
B( 12-C , 13-H ) :   0.9722 B( 12-C , 14-H ) :   0.9733 B( 12-C , 15-H ) :   0.9736
B( 16-S , 17-C ) :   1.1651 B( 16-S , 20-C ) :   1.0969 B( 17-C , 18-C ) :   1.6389
B( 17-C , 33-H ) :   0.9566 B( 18-C , 19-C ) :   1.1924 B( 18-C , 21-H ) :   0.9978
B( 19-C , 20-C ) :   1.5989 B( 19-C , 22-C ) :   1.0621 B( 22-C , 23-H ) :   0.9374
B( 22-C , 24-H ) :   0.9153 B( 22-C , 25-C ) :   1.0698 B( 25-C , 26-H ) :   0.9573
B( 25-C , 27-H ) :   0.9560 B( 25-C , 28-C ) :   1.0500 B( 28-C , 29-H ) :   0.9775
B( 28-C , 30-H ) :   0.9760 B( 28-C , 31-H ) :   0.9786

Dispersion correction           -0.015229167
FINAL SINGLE POINT ENERGY     -1339.865473488293

DIPOLE MOMENT
-------------
                                X             Y             Z
Electronic contribution:     23.98059       8.79952      -9.18875
Nuclear contribution   :    -24.43844      -9.13732       9.54610
                        -----------------------------------------
Total Dipole Moment    :     -0.45786      -0.33780       0.35735
                        -----------------------------------------
Magnitude (a.u.)       :      0.67189
Magnitude (Debye)      :      1.70782

Rotational constants in cm-1:     0.019837     0.008835     0.007100
Rotational constants in MHz :   594.693512   264.880857   212.850274

                             ****ORCA TERMINATED NORMALLY****
TOTAL RUN TIME: 0 days 0 hours 0 minutes 21 seconds 979 msec
