                         Program Version 4.2.1 -  RELEASE  -
|  1> ! wB97X-D3 SP def2-SVP
|  2> %pal
|  3> nprocs 24
|  4> end
|  5>
|  6> * xyz 0 1
|  7> S 	 -32.1339 	 -36.7106 	 -93.5221
|  8> C 	 -30.995 	 -36.0741 	 -92.4424
|  9> C 	 -31.636 	 -35.7409 	 -91.2298
| 10> C 	 -33.0053 	 -36.0618 	 -91.1906
| 11> C 	 -33.4578 	 -36.5824 	 -92.3849
| 12> H 	 -33.7444 	 -35.8966 	 -90.4412
| 13> C 	 -31.0226 	 -34.7987 	 -90.1926
| 14> H 	 -31.5547 	 -34.8461 	 -89.2906
| 15> H 	 -31.3456 	 -33.8073 	 -90.5599
| 16> C 	 -29.5261 	 -35.0277 	 -89.8382
| 17> H 	 -28.9189 	 -34.7806 	 -90.6634
| 18> H 	 -29.1921 	 -34.3223 	 -89.1013
| 19> C 	 -29.1751 	 -36.4133 	 -89.4055
| 20> H 	 -29.8359 	 -36.5767 	 -88.5645
| 21> H 	 -29.4725 	 -37.0978 	 -90.1606
| 22> H 	 -28.1661 	 -36.5469 	 -89.0945
| 23> S 	 -35.7004 	 -37.8547 	 -91.2565
| 24> C 	 -37.1172 	 -38.0805 	 -92.2279
| 25> C 	 -36.9387 	 -37.4685 	 -93.4169
| 26> C 	 -35.7238 	 -36.8016 	 -93.6449
| 27> C 	 -34.8506 	 -36.9828 	 -92.5571
| 28> H 	 -37.7097 	 -37.481 	 -94.195
| 29> C 	 -35.4306 	 -36.1325 	 -95.0209
| 30> H 	 -34.5058 	 -35.5803 	 -94.9608
| 31> H 	 -36.2509 	 -35.3375 	 -95.0456
| 32> C 	 -35.3599 	 -37.0778 	 -96.1762
| 33> H 	 -36.138 	 -37.8556 	 -96.0515
| 34> H 	 -34.3551 	 -37.6188 	 -96.1437
| 35> C 	 -35.4809 	 -36.3403 	 -97.4795
| 36> H 	 -35.3606 	 -37.0273 	 -98.3744
| 37> H 	 -34.886 	 -35.4149 	 -97.5532
| 38> H 	 -36.4822 	 -36.054 	 -97.6425
| 39> H 	 -29.963 	 -35.8294 	 -92.6654
| 40> H 	 -37.995 	 -38.6825 	 -91.9992
| 41> *
| 42>
| 43>                          ****END OF INPUT****

CARTESIAN COORDINATES (ANGSTROEM)
---------------------------------
  S    -32.133900  -36.710600  -93.522100
  C    -30.995000  -36.074100  -92.442400
  C    -31.636000  -35.740900  -91.229800
  C    -33.005300  -36.061800  -91.190600
  C    -33.457800  -36.582400  -92.384900
  H    -33.744400  -35.896600  -90.441200
  C    -31.022600  -34.798700  -90.192600
  H    -31.554700  -34.846100  -89.290600
  H    -31.345600  -33.807300  -90.559900
  C    -29.526100  -35.027700  -89.838200
  H    -28.918900  -34.780600  -90.663400
  H    -29.192100  -34.322300  -89.101300
  C    -29.175100  -36.413300  -89.405500
  H    -29.835900  -36.576700  -88.564500
  H    -29.472500  -37.097800  -90.160600
  H    -28.166100  -36.546900  -89.094500
  S    -35.700400  -37.854700  -91.256500
  C    -37.117200  -38.080500  -92.227900
  C    -36.938700  -37.468500  -93.416900
  C    -35.723800  -36.801600  -93.644900
  C    -34.850600  -36.982800  -92.557100
  H    -37.709700  -37.481000  -94.195000
  C    -35.430600  -36.132500  -95.020900
  H    -34.505800  -35.580300  -94.960800
  H    -36.250900  -35.337500  -95.045600
  C    -35.359900  -37.077800  -96.176200
  H    -36.138000  -37.855600  -96.051500
  H    -34.355100  -37.618800  -96.143700
  C    -35.480900  -36.340300  -97.479500
  H    -35.360600  -37.027300  -98.374400
  H    -34.886000  -35.414900  -97.553200
  H    -36.482200  -36.054000  -97.642500
  H    -29.963000  -35.829400  -92.665400
  H    -37.995000  -38.682500  -91.999200

 Total Charge           Charge          ....    0
 Multiplicity           Mult            ....    1
 Number of Electrons    NEL             ....  134
 Basis Dimension        Dim             ....  322

ORBITAL ENERGIES
----------------

  NO   OCC          E(Eh)            E(eV)
   0   2.0000     -88.971713     -2421.0434
   1   2.0000     -88.966864     -2420.9114
   2   2.0000     -10.330664      -281.1117
   3   2.0000     -10.327650      -281.0297
   4   2.0000     -10.314816      -280.6804
   5   2.0000     -10.312119      -280.6070
   6   2.0000     -10.302038      -280.3327
   7   2.0000     -10.301957      -280.3305
   8   2.0000     -10.295962      -280.1674
   9   2.0000     -10.290035      -280.0061
  10   2.0000     -10.289344      -279.9873
  11   2.0000     -10.287758      -279.9441
  12   2.0000     -10.287466      -279.9362
  13   2.0000     -10.277572      -279.6669
  14   2.0000     -10.277492      -279.6648
  15   2.0000     -10.264480      -279.3107
  16   2.0000      -8.086435      -220.0431
  17   2.0000      -8.081183      -219.9002
  18   2.0000      -6.044942      -164.4912
  19   2.0000      -6.040701      -164.3758
  20   2.0000      -6.039799      -164.3513
  21   2.0000      -6.037464      -164.2878
  22   2.0000      -6.035711      -164.2401
  23   2.0000      -6.031889      -164.1361
  24   2.0000      -1.009909       -27.4810
  25   2.0000      -0.989730       -26.9319
  26   2.0000      -0.914309       -24.8796
  27   2.0000      -0.912489       -24.8301
  28   2.0000      -0.873857       -23.7789
  29   2.0000      -0.857155       -23.3244
  30   2.0000      -0.849203       -23.1080
  31   2.0000      -0.812633       -22.1129
  32   2.0000      -0.783192       -21.3117
  33   2.0000      -0.772109       -21.0102
  34   2.0000      -0.707778       -19.2596
  35   2.0000      -0.702141       -19.1062
  36   2.0000      -0.693986       -18.8843
  37   2.0000      -0.662807       -18.0359
  38   2.0000      -0.641673       -17.4608
  39   2.0000      -0.606892       -16.5144
  40   2.0000      -0.598003       -16.2725
  41   2.0000      -0.579370       -15.7654
  42   2.0000      -0.560338       -15.2476
  43   2.0000      -0.557277       -15.1643
  44   2.0000      -0.543232       -14.7821
  45   2.0000      -0.530351       -14.4316
  46   2.0000      -0.518892       -14.1198
  47   2.0000      -0.513463       -13.9720
  48   2.0000      -0.506886       -13.7931
  49   2.0000      -0.499601       -13.5948
  50   2.0000      -0.490240       -13.3401
  51   2.0000      -0.480571       -13.0770
  52   2.0000      -0.474678       -12.9166
  53   2.0000      -0.466059       -12.6821
  54   2.0000      -0.461824       -12.5669
  55   2.0000      -0.452079       -12.3017
  56   2.0000      -0.446221       -12.1423
  57   2.0000      -0.437885       -11.9154
  58   2.0000      -0.433572       -11.7981
  59   2.0000      -0.420905       -11.4534
  60   2.0000      -0.415457       -11.3052
  61   2.0000      -0.413139       -11.2421
  62   2.0000      -0.409827       -11.1520
  63   2.0000      -0.355481        -9.6731
  64   2.0000      -0.333268        -9.0687
  65   2.0000      -0.329643        -8.9700
  66   2.0000      -0.286379        -7.7928
  67   0.0000       0.026896         0.7319
  68   0.0000       0.075349         2.0503
  69   0.0000       0.106430         2.8961
  70   0.0000       0.121961         3.3187
  71   0.0000       0.138229         3.7614

MULLIKEN ATOMIC CHARGES
-----------------------
   0 S :    0.132334
   1 C :   -0.127466
   2 C :   -0.091277
   3 C :   -0.005899
   4 C :   -0.126742
   5 H :    0.008007
   6 C :    0.068170
   7 H :    0.001991
   8 H :    0.047274
   9 C :   -0.056451
  10 H :    0.005295
  11 H :    0.018493
  12 C :   -0.010696
  13 H :    0.014854
  14 H :    0.029972
  15 H :    0.033549
  16 S :    0.103639
  17 C :   -0.082283
  18 C :   -0.043800
  19 C :   -0.041204
  20 C :   -0.172400
  21 H :    0.015950
  22 C :    0.039538
  23 H :    0.016543
  24 H :    0.043852
  25 C :   -0.066277
  26 H :    0.030598
  27 H :    0.041799
  28 C :   -0.034314
  29 H :    0.036895
  30 H :    0.040720
  31 H :    0.010762
  32 H :    0.056626
  33 H :    0.061948
Sum of atomic charges:    0.0000000

LOEWDIN ATOMIC CHARGES
----------------------
   0 S :    0.443278
   1 C :   -0.226996
   2 C :   -0.060958
   3 C :   -0.067031
   4 C :   -0.193514
   5 H :    0.026370
   6 C :   -0.027386
   7 H :    0.019482
   8 H :    0.042156
   9 C :   -0.040548
  10 H :    0.010701
  11 H :    0.023360
  12 C :   -0.054636
  13 H :    0.025018
  14 H :    0.021741
  15 H :    0.024435
  16 S :    0.403098
  17 C :   -0.193476
  18 C :   -0.078527
  19 C :   -0.058883
  20 C :   -0.186096
  21 H :    0.029395
  22 C :   -0.034939
  23 H :    0.020526
  24 H :    0.040209
  25 C :   -0.047937
  26 H :    0.025274
  27 H :    0.033916
  28 C :   -0.069722
  29 H :    0.034540
  30 H :    0.029987
  31 H :    0.017616
  32 H :    0.031372
  33 H :    0.038172

  Mayer bond orders larger than 0.100000
B(  0-S ,  1-C ) :   1.1602 B(  0-S ,  4-C ) :   1.1609 B(  1-C ,  2-C ) :   1.5432
B(  1-C , 32-H ) :   0.9720 B(  2-C ,  3-C ) :   1.2783 B(  2-C ,  6-C ) :   1.0151
B(  3-C ,  4-C ) :   1.5236 B(  3-C ,  5-H ) :   1.0036 B(  4-C , 20-C ) :   1.0656
B(  6-C ,  7-H ) :   0.9397 B(  6-C ,  8-H ) :   0.9421 B(  6-C ,  9-C ) :   1.0644
B(  9-C , 10-H ) :   0.9514 B(  9-C , 11-H ) :   0.9539 B(  9-C , 12-C ) :   1.0836
B( 12-C , 13-H ) :   0.9742 B( 12-C , 14-H ) :   0.9697 B( 12-C , 15-H ) :   0.9720
B( 16-S , 17-C ) :   1.1429 B( 16-S , 20-C ) :   1.1415 B( 17-C , 18-C ) :   1.6073
B( 17-C , 33-H ) :   0.9669 B( 18-C , 19-C ) :   1.2650 B( 18-C , 21-H ) :   0.9804
B( 19-C , 20-C ) :   1.5636 B( 19-C , 22-C ) :   1.0299 B( 22-C , 23-H ) :   0.9272
B( 22-C , 24-H ) :   0.9415 B( 22-C , 25-C ) :   1.0598 B( 25-C , 26-H ) :   0.9588
B( 25-C , 27-H ) :   0.9465 B( 25-C , 28-C ) :   1.0817 B( 28-C , 29-H ) :   0.9701
B( 28-C , 30-H ) :   0.9716 B( 28-C , 31-H ) :   0.9715

Dispersion correction           -0.014123123
FINAL SINGLE POINT ENERGY     -1339.878418481029

DIPOLE MOMENT
-------------
                                X             Y             Z
Electronic contribution:     -8.68940      -7.38611       5.09166
Nuclear contribution   :      8.60312       7.70935      -5.23624
                        -----------------------------------------
Total Dipole Moment    :     -0.08628       0.32323      -0.14458
                        -----------------------------------------
Magnitude (a.u.)       :      0.36446
Magnitude (Debye)      :      0.92637

Rotational constants in cm-1:     0.022997     0.007559     0.006035
Rotational constants in MHz :   689.427084   226.624316   180.922335

                             ****ORCA TERMINATED NORMALLY****
TOTAL RUN TIME: 0 days 0 hours 0 minutes 20 seconds 96 msec
