                         Program Version 4.2.1 -  RELEASE  -
|  1> ! wB97X-D3 SP def2-SVP
|  2> %pal
|  3> nprocs 24
|  4> end
|  5>
|  6> * xyz 0 1
|  7> S 	 -37.0606 	 -51.7219 	 -76.2785
|  8> C 	 -35.339 	 -52.0265 	 -76.3324
|  9> C 	 -34.562 	 -51.0165 	 -75.8273
| 10> C 	 -35.3684 	 -49.8923 	 -75.5926
| 11> C 	 -36.7282 	 -50.0693 	 -75.8456
| 12> H 	 -34.9709 	 -49.1115 	 -74.9323
| 13> C 	 -33.0416 	 -51.0893 	 -75.6159
| 14> H 	 -32.6332 	 -50.0729 	 -75.35
| 15> H 	 -32.6795 	 -51.4164 	 -76.6083
| 16> C 	 -32.6131 	 -52.12 	 -74.5268
| 17> H 	 -32.0188 	 -51.5593 	 -73.845
| 18> H 	 -33.5454 	 -52.4883 	 -73.9707
| 19> C 	 -31.7123 	 -53.2169 	 -75.002
| 20> H 	 -31.8246 	 -53.57 	 -76.0548
| 21> H 	 -30.6996 	 -52.9294 	 -75.0402
| 22> H 	 -31.7715 	 -54.0501 	 -74.2199
| 23> S 	 -39.3029 	 -49.7368 	 -74.925
| 24> C 	 -39.9081 	 -48.1759 	 -74.477
| 25> C 	 -38.9888 	 -47.2838 	 -74.9783
| 26> C 	 -37.7872 	 -47.8014 	 -75.5778
| 27> C 	 -37.7569 	 -49.142 	 -75.4116
| 28> H 	 -39.1618 	 -46.1934 	 -74.8417
| 29> C 	 -36.6968 	 -46.9504 	 -76.1364
| 30> H 	 -37.1456 	 -46.0976 	 -76.7125
| 31> H 	 -36.2404 	 -47.6672 	 -76.8774
| 32> C 	 -35.714 	 -46.4058 	 -75.1991
| 33> H 	 -35.3573 	 -47.0824 	 -74.4554
| 34> H 	 -36.1978 	 -45.6279 	 -74.5806
| 35> C 	 -34.575 	 -45.6772 	 -75.8188
| 36> H 	 -34.1307 	 -45.125 	 -75.0097
| 37> H 	 -34.9223 	 -45.088 	 -76.6672
| 38> H 	 -33.8737 	 -46.5128 	 -76.1798
| 39> H 	 -34.9296 	 -52.9425 	 -76.6209
| 40> H 	 -40.8047 	 -47.9111 	 -73.9303
| 41> *
| 42>
| 43>                          ****END OF INPUT****

CARTESIAN COORDINATES (ANGSTROEM)
---------------------------------
  S    -37.060600  -51.721900  -76.278500
  C    -35.339000  -52.026500  -76.332400
  C    -34.562000  -51.016500  -75.827300
  C    -35.368400  -49.892300  -75.592600
  C    -36.728200  -50.069300  -75.845600
  H    -34.970900  -49.111500  -74.932300
  C    -33.041600  -51.089300  -75.615900
  H    -32.633200  -50.072900  -75.350000
  H    -32.679500  -51.416400  -76.608300
  C    -32.613100  -52.120000  -74.526800
  H    -32.018800  -51.559300  -73.845000
  H    -33.545400  -52.488300  -73.970700
  C    -31.712300  -53.216900  -75.002000
  H    -31.824600  -53.570000  -76.054800
  H    -30.699600  -52.929400  -75.040200
  H    -31.771500  -54.050100  -74.219900
  S    -39.302900  -49.736800  -74.925000
  C    -39.908100  -48.175900  -74.477000
  C    -38.988800  -47.283800  -74.978300
  C    -37.787200  -47.801400  -75.577800
  C    -37.756900  -49.142000  -75.411600
  H    -39.161800  -46.193400  -74.841700
  C    -36.696800  -46.950400  -76.136400
  H    -37.145600  -46.097600  -76.712500
  H    -36.240400  -47.667200  -76.877400
  C    -35.714000  -46.405800  -75.199100
  H    -35.357300  -47.082400  -74.455400
  H    -36.197800  -45.627900  -74.580600
  C    -34.575000  -45.677200  -75.818800
  H    -34.130700  -45.125000  -75.009700
  H    -34.922300  -45.088000  -76.667200
  H    -33.873700  -46.512800  -76.179800
  H    -34.929600  -52.942500  -76.620900
  H    -40.804700  -47.911100  -73.930300

 Total Charge           Charge          ....    0
 Multiplicity           Mult            ....    1
 Number of Electrons    NEL             ....  134
 Basis Dimension        Dim             ....  322

ORBITAL ENERGIES
----------------

  NO   OCC          E(Eh)            E(eV)
   0   2.0000     -88.971270     -2421.0313
   1   2.0000     -88.959251     -2420.7043
   2   2.0000     -10.329433      -281.0782
   3   2.0000     -10.320032      -280.8223
   4   2.0000     -10.314876      -280.6820
   5   2.0000     -10.307015      -280.4681
   6   2.0000     -10.302787      -280.3531
   7   2.0000     -10.297637      -280.2129
   8   2.0000     -10.293710      -280.1061
   9   2.0000     -10.292333      -280.0686
  10   2.0000     -10.292322      -280.0683
  11   2.0000     -10.290135      -280.0088
  12   2.0000     -10.289608      -279.9945
  13   2.0000     -10.282775      -279.8085
  14   2.0000     -10.279155      -279.7100
  15   2.0000     -10.275907      -279.6216
  16   2.0000      -8.085970      -220.0304
  17   2.0000      -8.075073      -219.7339
  18   2.0000      -6.044442      -164.4776
  19   2.0000      -6.040661      -164.3748
  20   2.0000      -6.036612      -164.2646
  21   2.0000      -6.033692      -164.1851
  22   2.0000      -6.029495      -164.0709
  23   2.0000      -6.025588      -163.9646
  24   2.0000      -1.015255       -27.6265
  25   2.0000      -0.990633       -26.9565
  26   2.0000      -0.924039       -25.1444
  27   2.0000      -0.912667       -24.8349
  28   2.0000      -0.873734       -23.7755
  29   2.0000      -0.860537       -23.4164
  30   2.0000      -0.847487       -23.0613
  31   2.0000      -0.813410       -22.1340
  32   2.0000      -0.782462       -21.2919
  33   2.0000      -0.775511       -21.1027
  34   2.0000      -0.705350       -19.1935
  35   2.0000      -0.700144       -19.0519
  36   2.0000      -0.692957       -18.8563
  37   2.0000      -0.663089       -18.0436
  38   2.0000      -0.635083       -17.2815
  39   2.0000      -0.621339       -16.9075
  40   2.0000      -0.599652       -16.3174
  41   2.0000      -0.574546       -15.6342
  42   2.0000      -0.571142       -15.5416
  43   2.0000      -0.549419       -14.9505
  44   2.0000      -0.539751       -14.6874
  45   2.0000      -0.528174       -14.3724
  46   2.0000      -0.524940       -14.2843
  47   2.0000      -0.516553       -14.0561
  48   2.0000      -0.512816       -13.9544
  49   2.0000      -0.498475       -13.5642
  50   2.0000      -0.495670       -13.4879
  51   2.0000      -0.479242       -13.0408
  52   2.0000      -0.472616       -12.8605
  53   2.0000      -0.463758       -12.6195
  54   2.0000      -0.455958       -12.4072
  55   2.0000      -0.449764       -12.2387
  56   2.0000      -0.446805       -12.1582
  57   2.0000      -0.440565       -11.9884
  58   2.0000      -0.434102       -11.8125
  59   2.0000      -0.425551       -11.5798
  60   2.0000      -0.414843       -11.2885
  61   2.0000      -0.411023       -11.1845
  62   2.0000      -0.401254       -10.9187
  63   2.0000      -0.357597        -9.7307
  64   2.0000      -0.335441        -9.1278
  65   2.0000      -0.324599        -8.8328
  66   2.0000      -0.284785        -7.7494
  67   0.0000       0.023249         0.6326
  68   0.0000       0.077773         2.1163
  69   0.0000       0.100114         2.7242
  70   0.0000       0.123561         3.3623
  71   0.0000       0.126373         3.4388

MULLIKEN ATOMIC CHARGES
-----------------------
   0 S :    0.118134
   1 C :   -0.101678
   2 C :   -0.094317
   3 C :   -0.019376
   4 C :   -0.120600
   5 H :    0.015697
   6 C :    0.047823
   7 H :    0.035200
   8 H :    0.044133
   9 C :   -0.066777
  10 H :    0.022531
  11 H :    0.060930
  12 C :   -0.071961
  13 H :    0.032998
  14 H :    0.020949
  15 H :    0.048062
  16 S :    0.082314
  17 C :   -0.083793
  18 C :   -0.045845
  19 C :   -0.053274
  20 C :   -0.124792
  21 H :    0.020967
  22 C :    0.056158
  23 H :    0.029901
  24 H :    0.039985
  25 C :   -0.077509
  26 H :    0.016904
  27 H :    0.011031
  28 C :   -0.022883
  29 H :    0.037138
  30 H :    0.034177
  31 H :    0.033488
  32 H :    0.014173
  33 H :    0.060111
Sum of atomic charges:    0.0000000

LOEWDIN ATOMIC CHARGES
----------------------
   0 S :    0.416820
   1 C :   -0.186199
   2 C :   -0.063687
   3 C :   -0.072687
   4 C :   -0.191165
   5 H :    0.033308
   6 C :   -0.028205
   7 H :    0.034705
   8 H :    0.036818
   9 C :   -0.049612
  10 H :    0.023844
  11 H :    0.036227
  12 C :   -0.075136
  13 H :    0.025511
  14 H :    0.018870
  15 H :    0.039651
  16 S :    0.402734
  17 C :   -0.195734
  18 C :   -0.072104
  19 C :   -0.066275
  20 C :   -0.195099
  21 H :    0.029812
  22 C :   -0.040006
  23 H :    0.037847
  24 H :    0.038127
  25 C :   -0.052128
  26 H :    0.015825
  27 H :    0.023972
  28 C :   -0.057716
  29 H :    0.026516
  30 H :    0.025193
  31 H :    0.031119
  32 H :    0.011693
  33 H :    0.037163

  Mayer bond orders larger than 0.100000
B(  0-S ,  1-C ) :   1.1448 B(  0-S ,  4-C ) :   1.1540 B(  1-C ,  2-C ) :   1.5951
B(  1-C , 32-H ) :   0.9738 B(  2-C ,  3-C ) :   1.3015 B(  2-C ,  6-C ) :   1.0105
B(  3-C ,  4-C ) :   1.5275 B(  3-C ,  5-H ) :   0.9752 B(  4-C , 20-C ) :   1.0739
B(  6-C ,  7-H ) :   0.9492 B(  6-C ,  8-H ) :   0.9520 B(  6-C ,  9-C ) :   1.0281
B(  9-C , 10-H ) :   0.9565 B(  9-C , 11-H ) :   0.9707 B(  9-C , 12-C ) :   1.0716
B( 12-C , 13-H ) :   0.9770 B( 12-C , 14-H ) :   0.9754 B( 12-C , 15-H ) :   0.9727
B( 16-S , 17-C ) :   1.1356 B( 16-S , 20-C ) :   1.1326 B( 17-C , 18-C ) :   1.6116
B( 17-C , 33-H ) :   0.9748 B( 18-C , 19-C ) :   1.2339 B( 18-C , 21-H ) :   0.9825
B( 19-C , 20-C ) :   1.5925 B( 19-C , 22-C ) :   1.0563 B( 22-C , 23-H ) :   0.9185
B( 22-C , 24-H ) :   0.9189 B( 22-C , 25-C ) :   1.0852 B( 25-C , 26-H ) :   0.9475
B( 25-C , 27-H ) :   0.9416 B( 25-C , 28-C ) :   1.0868 B( 28-C , 29-H ) :   0.9734
B( 28-C , 30-H ) :   0.9706 B( 28-C , 31-H ) :   0.9726

Dispersion correction           -0.014214242
FINAL SINGLE POINT ENERGY     -1339.858371738371

DIPOLE MOMENT
-------------
                                X             Y             Z
Electronic contribution:    -28.13316      -8.16346      -2.34612
Nuclear contribution   :     28.77933       8.48171       2.61411
                        -----------------------------------------
Total Dipole Moment    :      0.64617       0.31826       0.26799
                        -----------------------------------------
Magnitude (a.u.)       :      0.76853
Magnitude (Debye)      :      1.95346

Rotational constants in cm-1:     0.019405     0.008648     0.006427
Rotational constants in MHz :   581.747832   259.269940   192.673010

                             ****ORCA TERMINATED NORMALLY****
TOTAL RUN TIME: 0 days 0 hours 0 minutes 23 seconds 324 msec
