                         Program Version 4.2.1 -  RELEASE  -
|  1> ! wB97X-D3 SP def2-SVP
|  2> %pal
|  3> nprocs 24
|  4> end
|  5>
|  6> * xyz 0 1
|  7> S 	 46.2504 	 -17.987 	 -111.565
|  8> C 	 44.5654 	 -17.6947 	 -112.121
|  9> C 	 43.6348 	 -18.1778 	 -111.255
| 10> C 	 44.1716 	 -18.7644 	 -110.065
| 11> C 	 45.5497 	 -18.5624 	 -110.042
| 12> H 	 43.5442 	 -19.3213 	 -109.366
| 13> C 	 42.1501 	 -18.2066 	 -111.534
| 14> H 	 41.8286 	 -19.213 	 -111.368
| 15> H 	 41.8123 	 -18.0756 	 -112.573
| 16> C 	 41.3436 	 -17.3499 	 -110.599
| 17> H 	 41.495 	 -17.5657 	 -109.499
| 18> H 	 41.7908 	 -16.3709 	 -110.67
| 19> C 	 39.9859 	 -17.3516 	 -111.058
| 20> H 	 39.2449 	 -16.8016 	 -110.433
| 21> H 	 39.891 	 -16.8445 	 -112.083
| 22> H 	 39.5421 	 -18.3218 	 -111.051
| 23> S 	 47.7343 	 -20.0018 	 -109.454
| 24> C 	 48.2411 	 -20.3132 	 -107.809
| 25> C 	 47.4734 	 -19.6967 	 -106.919
| 26> C 	 46.3966 	 -18.9331 	 -107.537
| 27> C 	 46.4614 	 -18.9044 	 -108.95
| 28> H 	 47.7194 	 -19.8689 	 -105.882
| 29> C 	 45.2982 	 -18.253 	 -106.686
| 30> H 	 44.7553 	 -17.5988 	 -107.372
| 31> H 	 45.8122 	 -17.653 	 -105.887
| 32> C 	 44.3317 	 -19.2282 	 -105.919
| 33> H 	 44.8989 	 -19.8132 	 -105.212
| 34> H 	 43.8365 	 -19.8368 	 -106.695
| 35> C 	 43.1882 	 -18.5047 	 -105.215
| 36> H 	 42.4127 	 -19.2332 	 -104.812
| 37> H 	 42.6026 	 -17.8412 	 -105.773
| 38> H 	 43.6374 	 -17.8434 	 -104.47
| 39> H 	 44.3839 	 -17.1041 	 -113.021
| 40> H 	 49.133 	 -20.9022 	 -107.486
| 41> *
| 42>
| 43>                          ****END OF INPUT****

CARTESIAN COORDINATES (ANGSTROEM)
---------------------------------
  S     46.250400  -17.987000  -111.565000
  C     44.565400  -17.694700  -112.121000
  C     43.634800  -18.177800  -111.255000
  C     44.171600  -18.764400  -110.065000
  C     45.549700  -18.562400  -110.042000
  H     43.544200  -19.321300  -109.366000
  C     42.150100  -18.206600  -111.534000
  H     41.828600  -19.213000  -111.368000
  H     41.812300  -18.075600  -112.573000
  C     41.343600  -17.349900  -110.599000
  H     41.495000  -17.565700  -109.499000
  H     41.790800  -16.370900  -110.670000
  C     39.985900  -17.351600  -111.058000
  H     39.244900  -16.801600  -110.433000
  H     39.891000  -16.844500  -112.083000
  H     39.542100  -18.321800  -111.051000
  S     47.734300  -20.001800  -109.454000
  C     48.241100  -20.313200  -107.809000
  C     47.473400  -19.696700  -106.919000
  C     46.396600  -18.933100  -107.537000
  C     46.461400  -18.904400  -108.950000
  H     47.719400  -19.868900  -105.882000
  C     45.298200  -18.253000  -106.686000
  H     44.755300  -17.598800  -107.372000
  H     45.812200  -17.653000  -105.887000
  C     44.331700  -19.228200  -105.919000
  H     44.898900  -19.813200  -105.212000
  H     43.836500  -19.836800  -106.695000
  C     43.188200  -18.504700  -105.215000
  H     42.412700  -19.233200  -104.812000
  H     42.602600  -17.841200  -105.773000
  H     43.637400  -17.843400  -104.470000
  H     44.383900  -17.104100  -113.021000
  H     49.133000  -20.902200  -107.486000

 Total Charge           Charge          ....    0
 Multiplicity           Mult            ....    1
 Number of Electrons    NEL             ....  134
 Basis Dimension        Dim             ....  322

ORBITAL ENERGIES
----------------

  NO   OCC          E(Eh)            E(eV)
   0   2.0000     -88.967872     -2420.9389
   1   2.0000     -88.958910     -2420.6950
   2   2.0000     -10.338207      -281.3169
   3   2.0000     -10.328356      -281.0489
   4   2.0000     -10.314831      -280.6808
   5   2.0000     -10.314059      -280.6598
   6   2.0000     -10.312286      -280.6116
   7   2.0000     -10.300996      -280.3043
   8   2.0000     -10.299918      -280.2750
   9   2.0000     -10.297437      -280.2075
  10   2.0000     -10.290817      -280.0274
  11   2.0000     -10.290220      -280.0111
  12   2.0000     -10.287884      -279.9476
  13   2.0000     -10.281427      -279.7718
  14   2.0000     -10.279436      -279.7177
  15   2.0000     -10.278949      -279.7044
  16   2.0000      -8.081822      -219.9176
  17   2.0000      -8.074125      -219.7081
  18   2.0000      -6.040359      -164.3665
  19   2.0000      -6.036767      -164.2688
  20   2.0000      -6.032728      -164.1589
  21   2.0000      -6.032264      -164.1463
  22   2.0000      -6.028583      -164.0461
  23   2.0000      -6.024709      -163.9407
  24   2.0000      -1.004852       -27.3434
  25   2.0000      -0.982029       -26.7224
  26   2.0000      -0.928388       -25.2627
  27   2.0000      -0.902717       -24.5642
  28   2.0000      -0.876585       -23.8531
  29   2.0000      -0.852262       -23.1912
  30   2.0000      -0.844036       -22.9674
  31   2.0000      -0.817751       -22.2521
  32   2.0000      -0.780478       -21.2379
  33   2.0000      -0.767306       -20.8794
  34   2.0000      -0.708897       -19.2901
  35   2.0000      -0.699623       -19.0377
  36   2.0000      -0.693321       -18.8662
  37   2.0000      -0.656486       -17.8639
  38   2.0000      -0.637590       -17.3497
  39   2.0000      -0.629235       -17.1224
  40   2.0000      -0.587786       -15.9945
  41   2.0000      -0.574419       -15.6307
  42   2.0000      -0.572345       -15.5743
  43   2.0000      -0.565283       -15.3821
  44   2.0000      -0.528819       -14.3899
  45   2.0000      -0.525962       -14.3122
  46   2.0000      -0.518059       -14.0971
  47   2.0000      -0.510888       -13.9020
  48   2.0000      -0.506534       -13.7835
  49   2.0000      -0.498528       -13.5656
  50   2.0000      -0.489247       -13.3131
  51   2.0000      -0.483760       -13.1638
  52   2.0000      -0.476966       -12.9789
  53   2.0000      -0.463959       -12.6250
  54   2.0000      -0.459391       -12.5007
  55   2.0000      -0.449798       -12.2396
  56   2.0000      -0.443397       -12.0655
  57   2.0000      -0.438849       -11.9417
  58   2.0000      -0.432399       -11.7662
  59   2.0000      -0.423194       -11.5157
  60   2.0000      -0.418751       -11.3948
  61   2.0000      -0.412211       -11.2168
  62   2.0000      -0.408742       -11.1224
  63   2.0000      -0.353024        -9.6063
  64   2.0000      -0.333833        -9.0840
  65   2.0000      -0.323002        -8.7893
  66   2.0000      -0.291305        -7.9268
  67   0.0000       0.025092         0.6828
  68   0.0000       0.072970         1.9856
  69   0.0000       0.096982         2.6390
  70   0.0000       0.120737         3.2854
  71   0.0000       0.125474         3.4143

MULLIKEN ATOMIC CHARGES
-----------------------
   0 S :    0.096623
   1 C :   -0.136235
   2 C :   -0.048676
   3 C :    0.017582
   4 C :   -0.132330
   5 H :    0.028294
   6 C :    0.050467
   7 H :    0.011829
   8 H :    0.019884
   9 C :   -0.066205
  10 H :    0.033966
  11 H :    0.019844
  12 C :   -0.045417
  13 H :    0.027193
  14 H :    0.042847
  15 H :    0.019950
  16 S :    0.074245
  17 C :   -0.091950
  18 C :   -0.026934
  19 C :   -0.056522
  20 C :   -0.105718
  21 H :    0.016954
  22 C :    0.030788
  23 H :    0.027406
  24 H :    0.034321
  25 C :   -0.067424
  26 H :    0.034657
  27 H :    0.029643
  28 C :   -0.041021
  29 H :    0.046459
  30 H :    0.011033
  31 H :    0.023690
  32 H :    0.053192
  33 H :    0.067564
Sum of atomic charges:    0.0000000

LOEWDIN ATOMIC CHARGES
----------------------
   0 S :    0.371876
   1 C :   -0.181974
   2 C :   -0.058773
   3 C :   -0.058492
   4 C :   -0.174256
   5 H :    0.037439
   6 C :   -0.030714
   7 H :    0.027133
   8 H :    0.032337
   9 C :   -0.054410
  10 H :    0.029804
  11 H :    0.023750
  12 C :   -0.071406
  13 H :    0.027629
  14 H :    0.037139
  15 H :    0.020804
  16 S :    0.391393
  17 C :   -0.184458
  18 C :   -0.079863
  19 C :   -0.051661
  20 C :   -0.200363
  21 H :    0.034234
  22 C :   -0.033879
  23 H :    0.027289
  24 H :    0.033078
  25 C :   -0.037119
  26 H :    0.022901
  27 H :    0.023426
  28 C :   -0.069332
  29 H :    0.036782
  30 H :    0.014456
  31 H :    0.024677
  32 H :    0.029077
  33 H :    0.041477

  Mayer bond orders larger than 0.100000
B(  0-S ,  1-C ) :   1.0969 B(  0-S ,  4-C ) :   1.1534 B(  1-C ,  2-C ) :   1.6561
B(  1-C , 32-H ) :   0.9697 B(  2-C ,  3-C ) :   1.2049 B(  2-C ,  6-C ) :   1.0161
B(  3-C ,  4-C ) :   1.5715 B(  3-C ,  5-H ) :   0.9942 B(  4-C , 20-C ) :   1.0146
B(  6-C ,  7-H ) :   0.9307 B(  6-C ,  8-H ) :   0.9527 B(  6-C ,  9-C ) :   1.0471
B(  9-C , 10-H ) :   0.9463 B(  9-C , 11-H ) :   0.9496 B(  9-C , 12-C ) :   1.1051
B( 12-C , 13-H ) :   0.9666 B( 12-C , 14-H ) :   0.9665 B( 12-C , 15-H ) :   0.9670
B( 16-S , 17-C ) :   1.1400 B( 16-S , 20-C ) :   1.1269 B( 17-C , 18-C ) :   1.6659
B( 17-C , 33-H ) :   0.9554 B( 18-C , 19-C ) :   1.1949 B( 18-C , 21-H ) :   0.9934
B( 19-C , 20-C ) :   1.6235 B( 19-C , 22-C ) :   1.0464 B( 22-C , 23-H ) :   0.9420
B( 22-C , 24-H ) :   0.9381 B( 22-C , 25-C ) :   1.0590 B( 25-C , 26-H ) :   0.9553
B( 25-C , 27-H ) :   0.9559 B( 25-C , 28-C ) :   1.0845 B( 28-C , 29-H ) :   0.9735
B( 28-C , 30-H ) :   0.9739 B( 28-C , 31-H ) :   0.9720

Dispersion correction           -0.013849543
FINAL SINGLE POINT ENERGY     -1339.864135282262

DIPOLE MOMENT
-------------
                                X             Y             Z
Electronic contribution:     29.78911      -5.38826     -13.21846
Nuclear contribution   :    -30.43946       5.34761      13.62271
                        -----------------------------------------
Total Dipole Moment    :     -0.65034      -0.04065       0.40425
                        -----------------------------------------
Magnitude (a.u.)       :      0.76682
Magnitude (Debye)      :      1.94911

Rotational constants in cm-1:     0.016643     0.009526     0.006365
Rotational constants in MHz :   498.941079   285.591811   190.818492

                             ****ORCA TERMINATED NORMALLY****
TOTAL RUN TIME: 0 days 0 hours 0 minutes 21 seconds 440 msec
