                         Program Version 4.2.1 -  RELEASE  -
|  1> ! wB97X-D3 SP def2-SVP
|  2> %pal
|  3> nprocs 24
|  4> end
|  5>
|  6> * xyz 0 1
|  7> S 	 -64.8971 	 -47.2566 	 -92.3759
|  8> C 	 -63.2788 	 -46.9822 	 -93.049
|  9> C 	 -62.4319 	 -46.5772 	 -92.0362
| 10> C 	 -63.0105 	 -46.6974 	 -90.7606
| 11> C 	 -64.3245 	 -47.1355 	 -90.6871
| 12> H 	 -62.4831 	 -46.4859 	 -89.8892
| 13> C 	 -61.05 	 -46.025 	 -92.2862
| 14> H 	 -60.6713 	 -46.2977 	 -93.2468
| 15> H 	 -60.3897 	 -46.5083 	 -91.5028
| 16> C 	 -60.8772 	 -44.4741 	 -92.2024
| 17> H 	 -61.5208 	 -44.0024 	 -93.0033
| 18> H 	 -61.281 	 -44.2105 	 -91.2209
| 19> C 	 -59.3758 	 -44.093 	 -92.2511
| 20> H 	 -58.8247 	 -44.5371 	 -91.431
| 21> H 	 -59.0256 	 -44.5445 	 -93.1069
| 22> H 	 -59.193 	 -42.998 	 -92.0114
| 23> S 	 -65.8928 	 -45.9562 	 -88.6458
| 24> C 	 -66.5379 	 -47.0332 	 -87.3914
| 25> C 	 -66.3276 	 -48.3703 	 -87.6658
| 26> C 	 -65.4732 	 -48.4965 	 -88.8366
| 27> C 	 -65.1764 	 -47.3315 	 -89.4744
| 28> H 	 -66.6339 	 -49.146 	 -86.9903
| 29> C 	 -65.1191 	 -49.8582 	 -89.3883
| 30> H 	 -65.3889 	 -50.5788 	 -88.5872
| 31> H 	 -64.0327 	 -49.8628 	 -89.5285
| 32> C 	 -65.8676 	 -50.396 	 -90.59
| 33> H 	 -65.5515 	 -51.4356 	 -90.6599
| 34> H 	 -65.4815 	 -49.856 	 -91.517
| 35> C 	 -67.3817 	 -50.2342 	 -90.6537
| 36> H 	 -67.7114 	 -49.2182 	 -90.7539
| 37> H 	 -67.8293 	 -50.749 	 -89.9171
| 38> H 	 -67.6892 	 -50.7244 	 -91.5184
| 39> H 	 -62.9391 	 -47.1084 	 -94.1129
| 40> H 	 -67.0929 	 -46.663 	 -86.5567
| 41> *
| 42>
| 43>                          ****END OF INPUT****

CARTESIAN COORDINATES (ANGSTROEM)
---------------------------------
  S    -64.897100  -47.256600  -92.375900
  C    -63.278800  -46.982200  -93.049000
  C    -62.431900  -46.577200  -92.036200
  C    -63.010500  -46.697400  -90.760600
  C    -64.324500  -47.135500  -90.687100
  H    -62.483100  -46.485900  -89.889200
  C    -61.050000  -46.025000  -92.286200
  H    -60.671300  -46.297700  -93.246800
  H    -60.389700  -46.508300  -91.502800
  C    -60.877200  -44.474100  -92.202400
  H    -61.520800  -44.002400  -93.003300
  H    -61.281000  -44.210500  -91.220900
  C    -59.375800  -44.093000  -92.251100
  H    -58.824700  -44.537100  -91.431000
  H    -59.025600  -44.544500  -93.106900
  H    -59.193000  -42.998000  -92.011400
  S    -65.892800  -45.956200  -88.645800
  C    -66.537900  -47.033200  -87.391400
  C    -66.327600  -48.370300  -87.665800
  C    -65.473200  -48.496500  -88.836600
  C    -65.176400  -47.331500  -89.474400
  H    -66.633900  -49.146000  -86.990300
  C    -65.119100  -49.858200  -89.388300
  H    -65.388900  -50.578800  -88.587200
  H    -64.032700  -49.862800  -89.528500
  C    -65.867600  -50.396000  -90.590000
  H    -65.551500  -51.435600  -90.659900
  H    -65.481500  -49.856000  -91.517000
  C    -67.381700  -50.234200  -90.653700
  H    -67.711400  -49.218200  -90.753900
  H    -67.829300  -50.749000  -89.917100
  H    -67.689200  -50.724400  -91.518400
  H    -62.939100  -47.108400  -94.112900
  H    -67.092900  -46.663000  -86.556700

 Total Charge           Charge          ....    0
 Multiplicity           Mult            ....    1
 Number of Electrons    NEL             ....  134
 Basis Dimension        Dim             ....  322

ORBITAL ENERGIES
----------------

  NO   OCC          E(Eh)            E(eV)
   0   2.0000     -88.966928     -2420.9132
   1   2.0000     -88.965618     -2420.8776
   2   2.0000     -10.336140      -281.2607
   3   2.0000     -10.326034      -280.9857
   4   2.0000     -10.321700      -280.8677
   5   2.0000     -10.321031      -280.8495
   6   2.0000     -10.300847      -280.3003
   7   2.0000     -10.298813      -280.2449
   8   2.0000     -10.297230      -280.2019
   9   2.0000     -10.295029      -280.1420
  10   2.0000     -10.293190      -280.0919
  11   2.0000     -10.290721      -280.0248
  12   2.0000     -10.284788      -279.8633
  13   2.0000     -10.279626      -279.7229
  14   2.0000     -10.279003      -279.7059
  15   2.0000     -10.254851      -279.0487
  16   2.0000      -8.080040      -219.8691
  17   2.0000      -8.079982      -219.8675
  18   2.0000      -6.038706      -164.3215
  19   2.0000      -6.038573      -164.3179
  20   2.0000      -6.034680      -164.2120
  21   2.0000      -6.034567      -164.2089
  22   2.0000      -6.030792      -164.1062
  23   2.0000      -6.030652      -164.1024
  24   2.0000      -1.001442       -27.2506
  25   2.0000      -0.982611       -26.7382
  26   2.0000      -0.908319       -24.7166
  27   2.0000      -0.905212       -24.6321
  28   2.0000      -0.866630       -23.5822
  29   2.0000      -0.847266       -23.0553
  30   2.0000      -0.846210       -23.0265
  31   2.0000      -0.817886       -22.2558
  32   2.0000      -0.785529       -21.3753
  33   2.0000      -0.771765       -21.0008
  34   2.0000      -0.706751       -19.2317
  35   2.0000      -0.695169       -18.9165
  36   2.0000      -0.684431       -18.6243
  37   2.0000      -0.667205       -18.1556
  38   2.0000      -0.639291       -17.3960
  39   2.0000      -0.621844       -16.9212
  40   2.0000      -0.585336       -15.9278
  41   2.0000      -0.570867       -15.5341
  42   2.0000      -0.563554       -15.3351
  43   2.0000      -0.558055       -15.1855
  44   2.0000      -0.544590       -14.8190
  45   2.0000      -0.526334       -14.3223
  46   2.0000      -0.519899       -14.1472
  47   2.0000      -0.507204       -13.8017
  48   2.0000      -0.502852       -13.6833
  49   2.0000      -0.495306       -13.4780
  50   2.0000      -0.487816       -13.2742
  51   2.0000      -0.478639       -13.0244
  52   2.0000      -0.474380       -12.9085
  53   2.0000      -0.468385       -12.7454
  54   2.0000      -0.461621       -12.5614
  55   2.0000      -0.445156       -12.1133
  56   2.0000      -0.443874       -12.0784
  57   2.0000      -0.436267       -11.8714
  58   2.0000      -0.429963       -11.6999
  59   2.0000      -0.424494       -11.5511
  60   2.0000      -0.415658       -11.3106
  61   2.0000      -0.413089       -11.2407
  62   2.0000      -0.398969       -10.8565
  63   2.0000      -0.335121        -9.1191
  64   2.0000      -0.330108        -8.9827
  65   2.0000      -0.318845        -8.6762
  66   2.0000      -0.314991        -8.5713
  67   0.0000       0.037139         1.0106
  68   0.0000       0.054171         1.4741
  69   0.0000       0.110988         3.0201
  70   0.0000       0.120288         3.2732
  71   0.0000       0.125841         3.4243

MULLIKEN ATOMIC CHARGES
-----------------------
   0 S :    0.098928
   1 C :   -0.140102
   2 C :   -0.072192
   3 C :    0.071319
   4 C :   -0.161444
   5 H :   -0.016219
   6 C :    0.028989
   7 H :    0.005770
   8 H :    0.032425
   9 C :   -0.081547
  10 H :    0.046076
  11 H :    0.022448
  12 C :   -0.015278
  13 H :    0.017952
  14 H :    0.017358
  15 H :    0.052397
  16 S :    0.107653
  17 C :   -0.092283
  18 C :   -0.009692
  19 C :   -0.065187
  20 C :   -0.160662
  21 H :    0.023570
  22 C :    0.087217
  23 H :    0.008252
  24 H :    0.039993
  25 C :   -0.109857
  26 H :    0.026164
  27 H :    0.030352
  28 C :    0.049599
  29 H :    0.035063
  30 H :   -0.007009
  31 H :    0.007692
  32 H :    0.070028
  33 H :    0.052228
Sum of atomic charges:   -0.0000000

LOEWDIN ATOMIC CHARGES
----------------------
   0 S :    0.393124
   1 C :   -0.193240
   2 C :   -0.073151
   3 C :   -0.050359
   4 C :   -0.180470
   5 H :    0.021012
   6 C :   -0.033208
   7 H :    0.019400
   8 H :    0.034636
   9 C :   -0.038347
  10 H :    0.030761
  11 H :    0.019410
  12 C :   -0.063918
  13 H :    0.025095
  14 H :    0.013745
  15 H :    0.040091
  16 S :    0.390470
  17 C :   -0.162217
  18 C :   -0.067920
  19 C :   -0.050123
  20 C :   -0.209185
  21 H :    0.033011
  22 C :   -0.039056
  23 H :    0.027822
  24 H :    0.037157
  25 C :   -0.043568
  26 H :    0.024005
  27 H :    0.016915
  28 C :   -0.048781
  29 H :    0.028490
  30 H :    0.006139
  31 H :    0.024586
  32 H :    0.043861
  33 H :    0.023812

  Mayer bond orders larger than 0.100000
B(  0-S ,  1-C ) :   1.1432 B(  0-S ,  4-C ) :   1.1369 B(  1-C ,  2-C ) :   1.5956
B(  1-C ,  4-C ) :   0.1043 B(  1-C , 32-H ) :   0.9603 B(  2-C ,  3-C ) :   1.2552
B(  2-C ,  6-C ) :   1.0322 B(  3-C ,  4-C ) :   1.5790 B(  3-C ,  5-H ) :   1.0063
B(  4-C , 20-C ) :   1.0104 B(  6-C ,  7-H ) :   0.9410 B(  6-C ,  8-H ) :   0.9417
B(  6-C ,  9-C ) :   1.0545 B(  9-C , 10-H ) :   0.9559 B(  9-C , 11-H ) :   0.9579
B(  9-C , 12-C ) :   1.0707 B( 12-C , 13-H ) :   0.9722 B( 12-C , 14-H ) :   0.9763
B( 12-C , 15-H ) :   0.9722 B( 16-S , 17-C ) :   1.1587 B( 16-S , 20-C ) :   1.1169
B( 17-C , 18-C ) :   1.6215 B( 17-C , 33-H ) :   0.9677 B( 18-C , 19-C ) :   1.2203
B( 18-C , 21-H ) :   0.9897 B( 19-C , 20-C ) :   1.6389 B( 19-C , 22-C ) :   1.0486
B( 22-C , 23-H ) :   0.9305 B( 22-C , 24-H ) :   0.9225 B( 22-C , 25-C ) :   1.0779
B( 25-C , 26-H ) :   0.9539 B( 25-C , 27-H ) :   0.9453 B( 25-C , 28-C ) :   1.0869
B( 28-C , 29-H ) :   0.9673 B( 28-C , 30-H ) :   0.9715 B( 28-C , 31-H ) :   0.9639

Dispersion correction           -0.014981379
FINAL SINGLE POINT ENERGY     -1339.867456991465

DIPOLE MOMENT
-------------
                                X             Y             Z
Electronic contribution:    -13.08400       4.68127       5.57301
Nuclear contribution   :     13.46940      -4.88440      -5.43741
                        -----------------------------------------
Total Dipole Moment    :      0.38540      -0.20314       0.13560
                        -----------------------------------------
Magnitude (a.u.)       :      0.45628
Magnitude (Debye)      :      1.15976

Rotational constants in cm-1:     0.023020     0.007694     0.006516
Rotational constants in MHz :   690.136039   230.660602   195.352159

                             ****ORCA TERMINATED NORMALLY****
TOTAL RUN TIME: 0 days 0 hours 0 minutes 21 seconds 439 msec
