                         Program Version 4.2.1 -  RELEASE  -
|  1> ! wB97X-D3 SP def2-SVP
|  2> %pal
|  3> nprocs 24
|  4> end
|  5>
|  6> * xyz 0 1
|  7> S 	 -110.178 	 57.1062 	 -102.029
|  8> C 	 -111.729 	 56.4559 	 -101.709
|  9> C 	 -112.034 	 56.5783 	 -100.353
| 10> C 	 -111.011 	 57.2587 	 -99.6272
| 11> C 	 -109.946 	 57.7155 	 -100.438
| 12> H 	 -111.03 	 57.4966 	 -98.5761
| 13> C 	 -113.305 	 55.986 	 -99.7398
| 14> H 	 -114.123 	 55.9995 	 -100.451
| 15> H 	 -113.65 	 56.7849 	 -99.059
| 16> C 	 -113.005 	 54.5862 	 -99.0554
| 17> H 	 -112.341 	 53.9841 	 -99.7419
| 18> H 	 -112.391 	 54.9018 	 -98.2381
| 19> C 	 -114.226 	 53.8355 	 -98.5912
| 20> H 	 -114.865 	 53.4075 	 -99.3971
| 21> H 	 -114.016 	 53.0121 	 -97.8831
| 22> H 	 -114.837 	 54.5381 	 -98.0384
| 23> S 	 -108.146 	 58.2021 	 -98.4221
| 24> C 	 -106.487 	 58.6701 	 -98.8256
| 25> C 	 -106.436 	 59.0842 	 -100.132
| 26> C 	 -107.663 	 58.8917 	 -100.877
| 27> C 	 -108.633 	 58.2771 	 -100.092
| 28> H 	 -105.526 	 59.4807 	 -100.403
| 29> C 	 -107.78 	 59.1309 	 -102.431
| 30> H 	 -108.809 	 59.6204 	 -102.612
| 31> H 	 -107.855 	 58.1611 	 -102.919
| 32> C 	 -106.767 	 60.0753 	 -103.176
| 33> H 	 -106.942 	 59.9693 	 -104.24
| 34> H 	 -105.81 	 59.6408 	 -103.084
| 35> C 	 -106.699 	 61.5838 	 -102.675
| 36> H 	 -107.656 	 62.0613 	 -102.71
| 37> H 	 -105.989 	 62.1567 	 -103.227
| 38> H 	 -106.334 	 61.5872 	 -101.615
| 39> H 	 -112.418 	 56.0118 	 -102.337
| 40> H 	 -105.703 	 58.7151 	 -98.165
| 41> *
| 42>
| 43>                          ****END OF INPUT****

CARTESIAN COORDINATES (ANGSTROEM)
---------------------------------
  S    -110.178000   57.106200  -102.029000
  C    -111.729000   56.455900  -101.709000
  C    -112.034000   56.578300  -100.353000
  C    -111.011000   57.258700  -99.627200
  C    -109.946000   57.715500  -100.438000
  H    -111.030000   57.496600  -98.576100
  C    -113.305000   55.986000  -99.739800
  H    -114.123000   55.999500  -100.451000
  H    -113.650000   56.784900  -99.059000
  C    -113.005000   54.586200  -99.055400
  H    -112.341000   53.984100  -99.741900
  H    -112.391000   54.901800  -98.238100
  C    -114.226000   53.835500  -98.591200
  H    -114.865000   53.407500  -99.397100
  H    -114.016000   53.012100  -97.883100
  H    -114.837000   54.538100  -98.038400
  S    -108.146000   58.202100  -98.422100
  C    -106.487000   58.670100  -98.825600
  C    -106.436000   59.084200  -100.132000
  C    -107.663000   58.891700  -100.877000
  C    -108.633000   58.277100  -100.092000
  H    -105.526000   59.480700  -100.403000
  C    -107.780000   59.130900  -102.431000
  H    -108.809000   59.620400  -102.612000
  H    -107.855000   58.161100  -102.919000
  C    -106.767000   60.075300  -103.176000
  H    -106.942000   59.969300  -104.240000
  H    -105.810000   59.640800  -103.084000
  C    -106.699000   61.583800  -102.675000
  H    -107.656000   62.061300  -102.710000
  H    -105.989000   62.156700  -103.227000
  H    -106.334000   61.587200  -101.615000
  H    -112.418000   56.011800  -102.337000
  H    -105.703000   58.715100  -98.165000

 Total Charge           Charge          ....    0
 Multiplicity           Mult            ....    1
 Number of Electrons    NEL             ....  134
 Basis Dimension        Dim             ....  322

ORBITAL ENERGIES
----------------

  NO   OCC          E(Eh)            E(eV)
   0   2.0000     -88.967476     -2420.9281
   1   2.0000     -88.963475     -2420.8192
   2   2.0000     -10.332390      -281.1586
   3   2.0000     -10.330940      -281.1192
   4   2.0000     -10.313343      -280.6403
   5   2.0000     -10.311763      -280.5973
   6   2.0000     -10.304313      -280.3946
   7   2.0000     -10.303275      -280.3664
   8   2.0000     -10.300598      -280.2935
   9   2.0000     -10.295649      -280.1589
  10   2.0000     -10.294876      -280.1378
  11   2.0000     -10.291674      -280.0507
  12   2.0000     -10.291247      -280.0391
  13   2.0000     -10.290100      -280.0079
  14   2.0000     -10.280765      -279.7538
  15   2.0000     -10.280655      -279.7509
  16   2.0000      -8.082438      -219.9343
  17   2.0000      -8.078208      -219.8192
  18   2.0000      -6.040858      -164.3801
  19   2.0000      -6.036865      -164.2714
  20   2.0000      -6.036668      -164.2661
  21   2.0000      -6.033530      -164.1807
  22   2.0000      -6.032822      -164.1614
  23   2.0000      -6.028734      -164.0502
  24   2.0000      -1.008870       -27.4527
  25   2.0000      -0.985109       -26.8062
  26   2.0000      -0.907140       -24.6845
  27   2.0000      -0.894309       -24.3354
  28   2.0000      -0.871867       -23.7247
  29   2.0000      -0.850795       -23.1513
  30   2.0000      -0.838653       -22.8209
  31   2.0000      -0.818120       -22.2622
  32   2.0000      -0.782074       -21.2813
  33   2.0000      -0.773606       -21.0509
  34   2.0000      -0.711564       -19.3626
  35   2.0000      -0.703912       -19.1544
  36   2.0000      -0.694702       -18.9038
  37   2.0000      -0.666477       -18.1358
  38   2.0000      -0.637044       -17.3348
  39   2.0000      -0.618245       -16.8233
  40   2.0000      -0.593781       -16.1576
  41   2.0000      -0.574243       -15.6259
  42   2.0000      -0.556355       -15.1392
  43   2.0000      -0.548955       -14.9378
  44   2.0000      -0.533495       -14.5171
  45   2.0000      -0.524732       -14.2787
  46   2.0000      -0.521879       -14.2010
  47   2.0000      -0.506871       -13.7927
  48   2.0000      -0.504084       -13.7168
  49   2.0000      -0.502166       -13.6646
  50   2.0000      -0.492751       -13.4084
  51   2.0000      -0.484233       -13.1767
  52   2.0000      -0.469437       -12.7740
  53   2.0000      -0.466195       -12.6858
  54   2.0000      -0.459227       -12.4962
  55   2.0000      -0.450011       -12.2454
  56   2.0000      -0.442745       -12.0477
  57   2.0000      -0.438182       -11.9235
  58   2.0000      -0.431326       -11.7370
  59   2.0000      -0.429273       -11.6811
  60   2.0000      -0.419163       -11.4060
  61   2.0000      -0.415279       -11.3003
  62   2.0000      -0.404494       -11.0068
  63   2.0000      -0.360335        -9.8052
  64   2.0000      -0.330360        -8.9896
  65   2.0000      -0.328410        -8.9365
  66   2.0000      -0.282677        -7.6920
  67   0.0000       0.020372         0.5544
  68   0.0000       0.083504         2.2723
  69   0.0000       0.109658         2.9840
  70   0.0000       0.130728         3.5573
  71   0.0000       0.135418         3.6849

MULLIKEN ATOMIC CHARGES
-----------------------
   0 S :    0.089773
   1 C :   -0.044190
   2 C :   -0.138621
   3 C :    0.002826
   4 C :   -0.130184
   5 H :    0.013060
   6 C :    0.045143
   7 H :    0.013567
   8 H :    0.028005
   9 C :   -0.063951
  10 H :    0.044602
  11 H :    0.025322
  12 C :   -0.034818
  13 H :    0.040127
  14 H :    0.039959
  15 H :    0.021380
  16 S :    0.085820
  17 C :   -0.054685
  18 C :   -0.018211
  19 C :   -0.031873
  20 C :   -0.109116
  21 H :   -0.010247
  22 C :   -0.017661
  23 H :    0.047540
  24 H :    0.059381
  25 C :   -0.037953
  26 H :    0.028484
  27 H :    0.014051
  28 C :   -0.047109
  29 H :    0.036607
  30 H :    0.032038
  31 H :    0.036895
  32 H :    0.011349
  33 H :    0.022687
Sum of atomic charges:   -0.0000000

LOEWDIN ATOMIC CHARGES
----------------------
   0 S :    0.461899
   1 C :   -0.207231
   2 C :   -0.058498
   3 C :   -0.076793
   4 C :   -0.196363
   5 H :    0.025234
   6 C :   -0.034792
   7 H :    0.022744
   8 H :    0.032213
   9 C :   -0.038556
  10 H :    0.031056
  11 H :    0.024093
  12 C :   -0.072300
  13 H :    0.029705
  14 H :    0.030903
  15 H :    0.024241
  16 S :    0.394819
  17 C :   -0.158433
  18 C :   -0.060249
  19 C :   -0.059794
  20 C :   -0.195646
  21 H :    0.018074
  22 C :   -0.047328
  23 H :    0.036309
  24 H :    0.024866
  25 C :   -0.038452
  26 H :    0.027812
  27 H :    0.014804
  28 C :   -0.060525
  29 H :    0.022968
  30 H :    0.022766
  31 H :    0.031943
  32 H :    0.015691
  33 H :    0.012818

  Mayer bond orders larger than 0.100000
B(  0-S ,  1-C ) :   1.1533 B(  0-S ,  4-C ) :   1.1860 B(  1-C ,  2-C ) :   1.5756
B(  1-C ,  4-C ) :   0.1010 B(  1-C , 32-H ) :   0.9743 B(  2-C ,  3-C ) :   1.2987
B(  2-C ,  6-C ) :   1.0253 B(  3-C ,  4-C ) :   1.5091 B(  3-C ,  5-H ) :   0.9901
B(  4-C , 20-C ) :   1.0650 B(  6-C ,  7-H ) :   0.9474 B(  6-C ,  8-H ) :   0.9400
B(  6-C ,  9-C ) :   1.0310 B(  9-C , 10-H ) :   0.9617 B(  9-C , 11-H ) :   0.9542
B(  9-C , 12-C ) :   1.0841 B( 12-C , 13-H ) :   0.9751 B( 12-C , 14-H ) :   0.9728
B( 12-C , 15-H ) :   0.9694 B( 16-S , 17-C ) :   1.1346 B( 16-S , 20-C ) :   1.1397
B( 17-C , 18-C ) :   1.6365 B( 17-C , 33-H ) :   0.9781 B( 18-C , 19-C ) :   1.2063
B( 18-C , 21-H ) :   1.0026 B( 19-C , 20-C ) :   1.5834 B( 19-C , 22-C ) :   1.0145
B( 22-C , 23-H ) :   0.9375 B( 22-C , 24-H ) :   0.9370 B( 22-C , 25-C ) :   1.0747
B( 25-C , 26-H ) :   0.9534 B( 25-C , 27-H ) :   0.9495 B( 25-C , 28-C ) :   1.0695
B( 28-C , 29-H ) :   0.9789 B( 28-C , 30-H ) :   0.9763 B( 28-C , 31-H ) :   0.9752

Dispersion correction           -0.013696713
FINAL SINGLE POINT ENERGY     -1339.871792636333

DIPOLE MOMENT
-------------
                                X             Y             Z
Electronic contribution:      7.39195       0.97883       3.74203
Nuclear contribution   :     -7.37037      -0.99773      -3.83332
                        -----------------------------------------
Total Dipole Moment    :      0.02158      -0.01891      -0.09129
                        -----------------------------------------
Magnitude (a.u.)       :      0.09570
Magnitude (Debye)      :      0.24324

Rotational constants in cm-1:     0.027335     0.006790     0.005685
Rotational constants in MHz :   819.474880   203.567697   170.438253

                             ****ORCA TERMINATED NORMALLY****
TOTAL RUN TIME: 0 days 0 hours 0 minutes 20 seconds 772 msec
