                         Program Version 4.2.1 -  RELEASE  -
|  1> ! wB97X-D3 SP def2-SVP
|  2> %pal
|  3> nprocs 24
|  4> end
|  5>
|  6> * xyz 0 1
|  7> S 	 -110.082 	 40.1229 	 -10.8563
|  8> C 	 -109.864 	 41.6988 	 -11.4367
|  9> C 	 -110.46 	 42.6305 	 -10.5903
| 10> C 	 -111.109 	 42.0626 	 -9.5119
| 11> C 	 -110.922 	 40.7087 	 -9.41892
| 12> H 	 -111.609 	 42.5334 	 -8.71357
| 13> C 	 -110.309 	 44.1466 	 -10.7928
| 14> H 	 -109.278 	 44.2386 	 -10.691
| 15> H 	 -110.767 	 44.597 	 -9.9634
| 16> C 	 -110.75 	 44.8272 	 -12.0925
| 17> H 	 -110.169 	 45.7551 	 -12.2314
| 18> H 	 -110.467 	 44.1608 	 -12.9177
| 19> C 	 -112.219 	 44.9483 	 -12.1799
| 20> H 	 -112.584 	 45.2966 	 -13.2086
| 21> H 	 -112.668 	 44.0946 	 -11.7985
| 22> H 	 -112.519 	 45.7194 	 -11.4922
| 23> S 	 -112.413 	 38.4563 	 -9.10522
| 24> C 	 -112.992 	 38.0153 	 -7.53568
| 25> C 	 -112.542 	 38.8868 	 -6.53311
| 26> C 	 -111.768 	 39.9679 	 -7.09927
| 27> C 	 -111.531 	 39.8562 	 -8.47254
| 28> H 	 -112.808 	 38.7613 	 -5.52134
| 29> C 	 -111.154 	 41.0372 	 -6.15188
| 30> H 	 -110.663 	 41.8844 	 -6.6923
| 31> H 	 -110.355 	 40.5313 	 -5.73025
| 32> C 	 -112.031 	 41.5351 	 -5.04996
| 33> H 	 -111.455 	 42.1946 	 -4.36415
| 34> H 	 -112.438 	 40.7145 	 -4.51429
| 35> C 	 -113.198 	 42.496 	 -5.51164
| 36> H 	 -113.752 	 42.8071 	 -4.64115
| 37> H 	 -113.792 	 41.8974 	 -6.26195
| 38> H 	 -112.891 	 43.4384 	 -5.98849
| 39> H 	 -109.235 	 41.9723 	 -12.3039
| 40> H 	 -113.587 	 37.1059 	 -7.25744
| 41> *
| 42>
| 43>                          ****END OF INPUT****

CARTESIAN COORDINATES (ANGSTROEM)
---------------------------------
  S    -110.082000   40.122900  -10.856300
  C    -109.864000   41.698800  -11.436700
  C    -110.460000   42.630500  -10.590300
  C    -111.109000   42.062600   -9.511900
  C    -110.922000   40.708700   -9.418920
  H    -111.609000   42.533400   -8.713570
  C    -110.309000   44.146600  -10.792800
  H    -109.278000   44.238600  -10.691000
  H    -110.767000   44.597000   -9.963400
  C    -110.750000   44.827200  -12.092500
  H    -110.169000   45.755100  -12.231400
  H    -110.467000   44.160800  -12.917700
  C    -112.219000   44.948300  -12.179900
  H    -112.584000   45.296600  -13.208600
  H    -112.668000   44.094600  -11.798500
  H    -112.519000   45.719400  -11.492200
  S    -112.413000   38.456300   -9.105220
  C    -112.992000   38.015300   -7.535680
  C    -112.542000   38.886800   -6.533110
  C    -111.768000   39.967900   -7.099270
  C    -111.531000   39.856200   -8.472540
  H    -112.808000   38.761300   -5.521340
  C    -111.154000   41.037200   -6.151880
  H    -110.663000   41.884400   -6.692300
  H    -110.355000   40.531300   -5.730250
  C    -112.031000   41.535100   -5.049960
  H    -111.455000   42.194600   -4.364150
  H    -112.438000   40.714500   -4.514290
  C    -113.198000   42.496000   -5.511640
  H    -113.752000   42.807100   -4.641150
  H    -113.792000   41.897400   -6.261950
  H    -112.891000   43.438400   -5.988490
  H    -109.235000   41.972300  -12.303900
  H    -113.587000   37.105900   -7.257440

 Total Charge           Charge          ....    0
 Multiplicity           Mult            ....    1
 Number of Electrons    NEL             ....  134
 Basis Dimension        Dim             ....  322

ORBITAL ENERGIES
----------------

  NO   OCC          E(Eh)            E(eV)
   0   2.0000     -88.968815     -2420.9645
   1   2.0000     -88.966299     -2420.8961
   2   2.0000     -10.325360      -280.9673
   3   2.0000     -10.323729      -280.9229
   4   2.0000     -10.322542      -280.8906
   5   2.0000     -10.311217      -280.5825
   6   2.0000     -10.308920      -280.5200
   7   2.0000     -10.296965      -280.1947
   8   2.0000     -10.295234      -280.1476
   9   2.0000     -10.288303      -279.9589
  10   2.0000     -10.288068      -279.9526
  11   2.0000     -10.285298      -279.8772
  12   2.0000     -10.282973      -279.8139
  13   2.0000     -10.281660      -279.7782
  14   2.0000     -10.280315      -279.7416
  15   2.0000     -10.269594      -279.4499
  16   2.0000      -8.084056      -219.9783
  17   2.0000      -8.080956      -219.8940
  18   2.0000      -6.042379      -164.4215
  19   2.0000      -6.039508      -164.3434
  20   2.0000      -6.038384      -164.3128
  21   2.0000      -6.035389      -164.2313
  22   2.0000      -6.035101      -164.2234
  23   2.0000      -6.031754      -164.1324
  24   2.0000      -1.013299       -27.5733
  25   2.0000      -0.985562       -26.8185
  26   2.0000      -0.917680       -24.9713
  27   2.0000      -0.910341       -24.7716
  28   2.0000      -0.876063       -23.8389
  29   2.0000      -0.859589       -23.3906
  30   2.0000      -0.842461       -22.9245
  31   2.0000      -0.815074       -22.1793
  32   2.0000      -0.786554       -21.4032
  33   2.0000      -0.772161       -21.0116
  34   2.0000      -0.707259       -19.2455
  35   2.0000      -0.703872       -19.1533
  36   2.0000      -0.691929       -18.8283
  37   2.0000      -0.662225       -18.0201
  38   2.0000      -0.643414       -17.5082
  39   2.0000      -0.617002       -16.7895
  40   2.0000      -0.596172       -16.2227
  41   2.0000      -0.575370       -15.6566
  42   2.0000      -0.562154       -15.2970
  43   2.0000      -0.556096       -15.1321
  44   2.0000      -0.547828       -14.9072
  45   2.0000      -0.534698       -14.5499
  46   2.0000      -0.516713       -14.0605
  47   2.0000      -0.514014       -13.9870
  48   2.0000      -0.507478       -13.8092
  49   2.0000      -0.500226       -13.6118
  50   2.0000      -0.491285       -13.3685
  51   2.0000      -0.483434       -13.1549
  52   2.0000      -0.473826       -12.8935
  53   2.0000      -0.463540       -12.6136
  54   2.0000      -0.462673       -12.5900
  55   2.0000      -0.452297       -12.3076
  56   2.0000      -0.441231       -12.0065
  57   2.0000      -0.439902       -11.9703
  58   2.0000      -0.431814       -11.7503
  59   2.0000      -0.430139       -11.7047
  60   2.0000      -0.426334       -11.6011
  61   2.0000      -0.409204       -11.1350
  62   2.0000      -0.404891       -11.0177
  63   2.0000      -0.356648        -9.7049
  64   2.0000      -0.333791        -9.0829
  65   2.0000      -0.329929        -8.9778
  66   2.0000      -0.282429        -7.6853
  67   0.0000       0.025116         0.6834
  68   0.0000       0.070840         1.9276
  69   0.0000       0.111375         3.0307
  70   0.0000       0.121676         3.3110
  71   0.0000       0.133198         3.6245

MULLIKEN ATOMIC CHARGES
-----------------------
   0 S :    0.126072
   1 C :   -0.136197
   2 C :   -0.102664
   3 C :    0.038808
   4 C :   -0.165745
   5 H :   -0.009419
   6 C :    0.108677
   7 H :    0.020194
   8 H :   -0.006278
   9 C :   -0.057089
  10 H :    0.031887
  11 H :    0.016330
  12 C :   -0.018817
  13 H :    0.045458
  14 H :    0.022849
  15 H :    0.009392
  16 S :    0.108612
  17 C :   -0.103088
  18 C :   -0.035204
  19 C :   -0.057510
  20 C :   -0.136603
  21 H :    0.007698
  22 C :    0.099923
  23 H :    0.021958
  24 H :    0.023844
  25 C :   -0.085988
  26 H :    0.032732
  27 H :    0.024991
  28 C :   -0.078990
  29 H :    0.036096
  30 H :    0.049563
  31 H :    0.030435
  32 H :    0.063094
  33 H :    0.074975
Sum of atomic charges:   -0.0000000

LOEWDIN ATOMIC CHARGES
----------------------
   0 S :    0.430511
   1 C :   -0.222681
   2 C :   -0.064845
   3 C :   -0.057235
   4 C :   -0.193126
   5 H :    0.026016
   6 C :   -0.022006
   7 H :    0.028641
   8 H :    0.018858
   9 C :   -0.042265
  10 H :    0.026768
  11 H :    0.022032
  12 C :   -0.061458
  13 H :    0.035590
  14 H :    0.019430
  15 H :    0.020583
  16 S :    0.407986
  17 C :   -0.196929
  18 C :   -0.072778
  19 C :   -0.051049
  20 C :   -0.197776
  21 H :    0.023495
  22 C :   -0.031726
  23 H :    0.032855
  24 H :    0.028408
  25 C :   -0.038122
  26 H :    0.029793
  27 H :    0.016567
  28 C :   -0.070552
  29 H :    0.023639
  30 H :    0.031203
  31 H :    0.022383
  32 H :    0.035657
  33 H :    0.042135

  Mayer bond orders larger than 0.100000
B(  0-S ,  1-C ) :   1.1641 B(  0-S ,  4-C ) :   1.1603 B(  1-C ,  2-C ) :   1.5571
B(  1-C ,  4-C ) :   0.1051 B(  1-C , 32-H ) :   0.9649 B(  2-C ,  3-C ) :   1.2879
B(  2-C ,  6-C ) :   1.0019 B(  3-C ,  4-C ) :   1.5271 B(  3-C ,  5-H ) :   1.0003
B(  4-C , 20-C ) :   1.0820 B(  6-C ,  7-H ) :   0.9287 B(  6-C ,  8-H ) :   0.9407
B(  6-C ,  9-C ) :   1.0776 B(  9-C , 10-H ) :   0.9531 B(  9-C , 11-H ) :   0.9534
B(  9-C , 12-C ) :   1.0780 B( 12-C , 13-H ) :   0.9718 B( 12-C , 14-H ) :   0.9747
B( 12-C , 15-H ) :   0.9700 B( 16-S , 17-C ) :   1.1672 B( 16-S , 20-C ) :   1.1258
B( 17-C , 18-C ) :   1.6016 B( 17-C , 33-H ) :   0.9582 B( 18-C , 19-C ) :   1.2378
B( 18-C , 21-H ) :   0.9951 B( 19-C , 20-C ) :   1.5937 B( 19-C , 22-C ) :   1.0164
B( 22-C , 23-H ) :   0.9391 B( 22-C , 24-H ) :   0.9293 B( 22-C , 25-C ) :   1.0860
B( 25-C , 26-H ) :   0.9532 B( 25-C , 27-H ) :   0.9530 B( 25-C , 28-C ) :   1.0722
B( 28-C , 29-H ) :   0.9759 B( 28-C , 30-H ) :   0.9767 B( 28-C , 31-H ) :   0.9750

Dispersion correction           -0.014298504
FINAL SINGLE POINT ENERGY     -1339.870481910192

DIPOLE MOMENT
-------------
                                X             Y             Z
Electronic contribution:      4.80689     -25.70554      -7.63397
Nuclear contribution   :     -4.73851      26.20646       8.06828
                        -----------------------------------------
Total Dipole Moment    :      0.06837       0.50093       0.43431
                        -----------------------------------------
Magnitude (a.u.)       :      0.66651
Magnitude (Debye)      :      1.69412

Rotational constants in cm-1:     0.018956     0.008665     0.006741
Rotational constants in MHz :   568.298989   259.768176   202.099676

                             ****ORCA TERMINATED NORMALLY****
TOTAL RUN TIME: 0 days 0 hours 0 minutes 20 seconds 625 msec
