                         Program Version 4.2.1 -  RELEASE  -
|  1> ! wB97X-D3 SP def2-SVP
|  2> %pal
|  3> nprocs 24
|  4> end
|  5>
|  6> * xyz 0 1
|  7> S 	 -126.224 	 71.7185 	 -61.5074
|  8> C 	 -126.164 	 73.4593 	 -61.2728
|  9> C 	 -126.722 	 74.1446 	 -62.3295
| 10> C 	 -127.305 	 73.2701 	 -63.2529
| 11> C 	 -127.148 	 71.9216 	 -63.0037
| 12> H 	 -127.75 	 73.6835 	 -64.1561
| 13> C 	 -126.447 	 75.5736 	 -62.5805
| 14> H 	 -126.004 	 75.9996 	 -61.662
| 15> H 	 -127.419 	 76.1091 	 -62.6501
| 16> C 	 -125.687 	 75.8666 	 -63.9544
| 17> H 	 -126.182 	 75.3782 	 -64.7667
| 18> H 	 -125.952 	 76.8925 	 -64.3118
| 19> C 	 -124.138 	 75.692 	 -63.9994
| 20> H 	 -123.799 	 75.7443 	 -65.0432
| 21> H 	 -123.651 	 76.4612 	 -63.3976
| 22> H 	 -123.874 	 74.6771 	 -63.6641
| 23> S 	 -127.914 	 69.1955 	 -63.1624
| 24> C 	 -128.482 	 68.5719 	 -64.6323
| 25> C 	 -128.268 	 69.449 	 -65.6549
| 26> C 	 -127.773 	 70.7159 	 -65.2604
| 27> C 	 -127.536 	 70.7665 	 -63.8563
| 28> H 	 -128.605 	 69.1134 	 -66.598
| 29> C 	 -127.619 	 71.8321 	 -66.218
| 30> H 	 -126.865 	 72.4226 	 -65.7533
| 31> H 	 -128.509 	 72.5461 	 -66.1378
| 32> C 	 -127.353 	 71.5216 	 -67.7382
| 33> H 	 -127.392 	 72.3869 	 -68.3351
| 34> H 	 -128.1 	 71.0169 	 -68.2228
| 35> C 	 -125.923 	 70.9732 	 -68.0626
| 36> H 	 -125.891 	 70.5751 	 -69.124
| 37> H 	 -125.619 	 70.1115 	 -67.4062
| 38> H 	 -125.106 	 71.6799 	 -67.9131
| 39> H 	 -125.617 	 73.9713 	 -60.5465
| 40> H 	 -128.764 	 67.5499 	 -64.8105
| 41> *
| 42>
| 43>                          ****END OF INPUT****

CARTESIAN COORDINATES (ANGSTROEM)
---------------------------------
  S    -126.224000   71.718500  -61.507400
  C    -126.164000   73.459300  -61.272800
  C    -126.722000   74.144600  -62.329500
  C    -127.305000   73.270100  -63.252900
  C    -127.148000   71.921600  -63.003700
  H    -127.750000   73.683500  -64.156100
  C    -126.447000   75.573600  -62.580500
  H    -126.004000   75.999600  -61.662000
  H    -127.419000   76.109100  -62.650100
  C    -125.687000   75.866600  -63.954400
  H    -126.182000   75.378200  -64.766700
  H    -125.952000   76.892500  -64.311800
  C    -124.138000   75.692000  -63.999400
  H    -123.799000   75.744300  -65.043200
  H    -123.651000   76.461200  -63.397600
  H    -123.874000   74.677100  -63.664100
  S    -127.914000   69.195500  -63.162400
  C    -128.482000   68.571900  -64.632300
  C    -128.268000   69.449000  -65.654900
  C    -127.773000   70.715900  -65.260400
  C    -127.536000   70.766500  -63.856300
  H    -128.605000   69.113400  -66.598000
  C    -127.619000   71.832100  -66.218000
  H    -126.865000   72.422600  -65.753300
  H    -128.509000   72.546100  -66.137800
  C    -127.353000   71.521600  -67.738200
  H    -127.392000   72.386900  -68.335100
  H    -128.100000   71.016900  -68.222800
  C    -125.923000   70.973200  -68.062600
  H    -125.891000   70.575100  -69.124000
  H    -125.619000   70.111500  -67.406200
  H    -125.106000   71.679900  -67.913100
  H    -125.617000   73.971300  -60.546500
  H    -128.764000   67.549900  -64.810500

 Total Charge           Charge          ....    0
 Multiplicity           Mult            ....    1
 Number of Electrons    NEL             ....  134
 Basis Dimension        Dim             ....  322

ORBITAL ENERGIES
----------------

  NO   OCC          E(Eh)            E(eV)
   0   2.0000     -88.967476     -2420.9281
   1   2.0000     -88.965881     -2420.8847
   2   2.0000     -10.336945      -281.2826
   3   2.0000     -10.332913      -281.1728
   4   2.0000     -10.310362      -280.5592
   5   2.0000     -10.308395      -280.5057
   6   2.0000     -10.305976      -280.4399
   7   2.0000     -10.299687      -280.2687
   8   2.0000     -10.297593      -280.2118
   9   2.0000     -10.296135      -280.1721
  10   2.0000     -10.292807      -280.0815
  11   2.0000     -10.291272      -280.0397
  12   2.0000     -10.286422      -279.9078
  13   2.0000     -10.286143      -279.9002
  14   2.0000     -10.285406      -279.8801
  15   2.0000     -10.283508      -279.8285
  16   2.0000      -8.081671      -219.9135
  17   2.0000      -8.081367      -219.9052
  18   2.0000      -6.040242      -164.3633
  19   2.0000      -6.039773      -164.3506
  20   2.0000      -6.036354      -164.2575
  21   2.0000      -6.035648      -164.2383
  22   2.0000      -6.032334      -164.1482
  23   2.0000      -6.032302      -164.1473
  24   2.0000      -1.008008       -27.4293
  25   2.0000      -0.989659       -26.9300
  26   2.0000      -0.908738       -24.7280
  27   2.0000      -0.906610       -24.6701
  28   2.0000      -0.867135       -23.5959
  29   2.0000      -0.852693       -23.2030
  30   2.0000      -0.844394       -22.9771
  31   2.0000      -0.819399       -22.2970
  32   2.0000      -0.784526       -21.3480
  33   2.0000      -0.772069       -21.0091
  34   2.0000      -0.721065       -19.6212
  35   2.0000      -0.710040       -19.3212
  36   2.0000      -0.697980       -18.9930
  37   2.0000      -0.653332       -17.7781
  38   2.0000      -0.637758       -17.3543
  39   2.0000      -0.629698       -17.1350
  40   2.0000      -0.598267       -16.2797
  41   2.0000      -0.569312       -15.4918
  42   2.0000      -0.546915       -14.8823
  43   2.0000      -0.546537       -14.8720
  44   2.0000      -0.535106       -14.5610
  45   2.0000      -0.530642       -14.4395
  46   2.0000      -0.524011       -14.2591
  47   2.0000      -0.513376       -13.9697
  48   2.0000      -0.506269       -13.7763
  49   2.0000      -0.495637       -13.4870
  50   2.0000      -0.490408       -13.3447
  51   2.0000      -0.475482       -12.9385
  52   2.0000      -0.473863       -12.8945
  53   2.0000      -0.468797       -12.7566
  54   2.0000      -0.465497       -12.6668
  55   2.0000      -0.447869       -12.1871
  56   2.0000      -0.442198       -12.0328
  57   2.0000      -0.439019       -11.9463
  58   2.0000      -0.436936       -11.8896
  59   2.0000      -0.432172       -11.7600
  60   2.0000      -0.423686       -11.5291
  61   2.0000      -0.415640       -11.3102
  62   2.0000      -0.412324       -11.2199
  63   2.0000      -0.356053        -9.6887
  64   2.0000      -0.331938        -9.0325
  65   2.0000      -0.328561        -8.9406
  66   2.0000      -0.283888        -7.7250
  67   0.0000       0.022807         0.6206
  68   0.0000       0.081945         2.2298
  69   0.0000       0.103224         2.8089
  70   0.0000       0.126992         3.4556
  71   0.0000       0.129761         3.5310

MULLIKEN ATOMIC CHARGES
-----------------------
   0 S :    0.102145
   1 C :   -0.090291
   2 C :   -0.085847
   3 C :   -0.013240
   4 C :   -0.109535
   5 H :   -0.001036
   6 C :    0.062485
   7 H :    0.019069
   8 H :    0.032634
   9 C :   -0.079804
  10 H :    0.009865
  11 H :    0.018677
  12 C :   -0.035533
  13 H :    0.035267
  14 H :    0.041669
  15 H :    0.041823
  16 S :    0.113827
  17 C :   -0.081398
  18 C :   -0.035231
  19 C :   -0.038996
  20 C :   -0.136949
  21 H :   -0.000770
  22 C :    0.028722
  23 H :    0.016945
  24 H :    0.057640
  25 C :    0.020493
  26 H :    0.006927
  27 H :    0.005422
  28 C :   -0.099855
  29 H :    0.042404
  30 H :    0.041308
  31 H :    0.037017
  32 H :    0.019900
  33 H :    0.054242
Sum of atomic charges:   -0.0000000

LOEWDIN ATOMIC CHARGES
----------------------
   0 S :    0.392732
   1 C :   -0.184491
   2 C :   -0.071833
   3 C :   -0.070183
   4 C :   -0.176528
   5 H :    0.027632
   6 C :   -0.032476
   7 H :    0.031713
   8 H :    0.037211
   9 C :   -0.043622
  10 H :    0.018053
  11 H :    0.026910
  12 C :   -0.064067
  13 H :    0.029983
  14 H :    0.026528
  15 H :    0.029000
  16 S :    0.427224
  17 C :   -0.197997
  18 C :   -0.073064
  19 C :   -0.052069
  20 C :   -0.202256
  21 H :    0.025110
  22 C :   -0.037824
  23 H :    0.027425
  24 H :    0.043275
  25 C :   -0.034166
  26 H :    0.026100
  27 H :    0.013906
  28 C :   -0.073401
  29 H :    0.033086
  30 H :    0.028208
  31 H :    0.023934
  32 H :    0.015204
  33 H :    0.030747

  Mayer bond orders larger than 0.100000
B(  0-S ,  1-C ) :   1.1331 B(  0-S ,  4-C ) :   1.1448 B(  1-C ,  2-C ) :   1.6077
B(  1-C , 32-H ) :   0.9678 B(  2-C ,  3-C ) :   1.2594 B(  2-C ,  6-C ) :   1.0462
B(  3-C ,  4-C ) :   1.5522 B(  3-C ,  5-H ) :   0.9895 B(  4-C , 20-C ) :   1.0609
B(  6-C ,  7-H ) :   0.9447 B(  6-C ,  8-H ) :   0.9257 B(  6-C ,  9-C ) :   1.0572
B(  9-C , 10-H ) :   0.9539 B(  9-C , 11-H ) :   0.9524 B(  9-C , 12-C ) :   1.0682
B( 12-C , 13-H ) :   0.9728 B( 12-C , 14-H ) :   0.9776 B( 12-C , 15-H ) :   0.9786
B( 16-S , 17-C ) :   1.1769 B( 16-S , 20-C ) :   1.1528 B( 17-C , 18-C ) :   1.5922
B( 17-C , 33-H ) :   0.9622 B( 18-C , 19-C ) :   1.2638 B( 18-C , 21-H ) :   1.0005
B( 19-C , 20-C ) :   1.5328 B( 19-C , 22-C ) :   1.0525 B( 22-C , 23-H ) :   0.9247
B( 22-C , 24-H ) :   0.9198 B( 22-C , 25-C ) :   1.0675 B( 25-C , 26-H ) :   0.9437
B( 25-C , 27-H ) :   0.9494 B( 25-C , 28-C ) :   1.0682 B( 28-C , 29-H ) :   0.9743
B( 28-C , 30-H ) :   0.9803 B( 28-C , 31-H ) :   0.9771

Dispersion correction           -0.014488172
FINAL SINGLE POINT ENERGY     -1339.870343650347

DIPOLE MOMENT
-------------
                                X             Y             Z
Electronic contribution:     -8.60213     -19.29809      21.43176
Nuclear contribution   :      8.63160      19.77698     -22.16084
                        -----------------------------------------
Total Dipole Moment    :      0.02947       0.47889      -0.72908
                        -----------------------------------------
Magnitude (a.u.)       :      0.87279
Magnitude (Debye)      :      2.21845

Rotational constants in cm-1:     0.017434     0.009747     0.006843
Rotational constants in MHz :   522.665394   292.208427   205.137962

                             ****ORCA TERMINATED NORMALLY****
TOTAL RUN TIME: 0 days 0 hours 0 minutes 22 seconds 159 msec
