                         Program Version 4.2.1 -  RELEASE  -
|  1> ! wB97X-D3 SP def2-SVP
|  2> %pal
|  3> nprocs 24
|  4> end
|  5>
|  6> * xyz 0 1
|  7> S 	 -119.117 	 24.674 	 -16.9316
|  8> C 	 -117.444 	 25.0071 	 -17.3448
|  9> C 	 -116.596 	 25.2039 	 -16.2153
| 10> C 	 -117.388 	 25.1538 	 -15.0235
| 11> C 	 -118.767 	 24.9011 	 -15.1854
| 12> H 	 -117.055 	 25.2441 	 -13.9782
| 13> C 	 -115.17 	 25.5953 	 -16.2406
| 14> H 	 -114.981 	 26.5513 	 -15.8114
| 15> H 	 -114.92 	 25.7594 	 -17.3584
| 16> C 	 -114.125 	 24.4464 	 -15.8423
| 17> H 	 -114.164 	 24.1746 	 -14.7711
| 18> H 	 -114.207 	 23.5538 	 -16.4117
| 19> C 	 -112.702 	 24.8675 	 -16.021
| 20> H 	 -112.405 	 24.5622 	 -17.0468
| 21> H 	 -112.418 	 25.9212 	 -15.8259
| 22> H 	 -111.924 	 24.3527 	 -15.4979
| 23> S 	 -120.432 	 22.9358 	 -14.0882
| 24> C 	 -121.529 	 23.2665 	 -12.8934
| 25> C 	 -121.391 	 24.5691 	 -12.5153
| 26> C 	 -120.319 	 25.2801 	 -13.0365
| 27> C 	 -119.774 	 24.5584 	 -14.1312
| 28> H 	 -122.12 	 24.9381 	 -11.8136
| 29> C 	 -119.841 	 26.6878 	 -12.7463
| 30> H 	 -118.737 	 26.6007 	 -12.6542
| 31> H 	 -120.122 	 26.7088 	 -11.7183
| 32> C 	 -120.389 	 27.9267 	 -13.5368
| 33> H 	 -120.228 	 27.8323 	 -14.7096
| 34> H 	 -119.838 	 28.8353 	 -13.1838
| 35> C 	 -121.842 	 27.9481 	 -13.1976
| 36> H 	 -122.004 	 27.9084 	 -12.1344
| 37> H 	 -122.437 	 27.0389 	 -13.5621
| 38> H 	 -122.279 	 28.8666 	 -13.6123
| 39> H 	 -117.137 	 25.048 	 -18.382
| 40> H 	 -122.14 	 22.5729 	 -12.4308
| 41> *
| 42>
| 43>                          ****END OF INPUT****

CARTESIAN COORDINATES (ANGSTROEM)
---------------------------------
  S    -119.117000   24.674000  -16.931600
  C    -117.444000   25.007100  -17.344800
  C    -116.596000   25.203900  -16.215300
  C    -117.388000   25.153800  -15.023500
  C    -118.767000   24.901100  -15.185400
  H    -117.055000   25.244100  -13.978200
  C    -115.170000   25.595300  -16.240600
  H    -114.981000   26.551300  -15.811400
  H    -114.920000   25.759400  -17.358400
  C    -114.125000   24.446400  -15.842300
  H    -114.164000   24.174600  -14.771100
  H    -114.207000   23.553800  -16.411700
  C    -112.702000   24.867500  -16.021000
  H    -112.405000   24.562200  -17.046800
  H    -112.418000   25.921200  -15.825900
  H    -111.924000   24.352700  -15.497900
  S    -120.432000   22.935800  -14.088200
  C    -121.529000   23.266500  -12.893400
  C    -121.391000   24.569100  -12.515300
  C    -120.319000   25.280100  -13.036500
  C    -119.774000   24.558400  -14.131200
  H    -122.120000   24.938100  -11.813600
  C    -119.841000   26.687800  -12.746300
  H    -118.737000   26.600700  -12.654200
  H    -120.122000   26.708800  -11.718300
  C    -120.389000   27.926700  -13.536800
  H    -120.228000   27.832300  -14.709600
  H    -119.838000   28.835300  -13.183800
  C    -121.842000   27.948100  -13.197600
  H    -122.004000   27.908400  -12.134400
  H    -122.437000   27.038900  -13.562100
  H    -122.279000   28.866600  -13.612300
  H    -117.137000   25.048000  -18.382000
  H    -122.140000   22.572900  -12.430800

 Total Charge           Charge          ....    0
 Multiplicity           Mult            ....    1
 Number of Electrons    NEL             ....  134
 Basis Dimension        Dim             ....  322

ORBITAL ENERGIES
----------------

  NO   OCC          E(Eh)            E(eV)
   0   2.0000     -88.968946     -2420.9681
   1   2.0000     -88.961432     -2420.7636
   2   2.0000     -10.336128      -281.2603
   3   2.0000     -10.326883      -281.0088
   4   2.0000     -10.321815      -280.8709
   5   2.0000     -10.307766      -280.4886
   6   2.0000     -10.302556      -280.3468
   7   2.0000     -10.301896      -280.3288
   8   2.0000     -10.301297      -280.3126
   9   2.0000     -10.299733      -280.2700
  10   2.0000     -10.299425      -280.2616
  11   2.0000     -10.289842      -280.0008
  12   2.0000     -10.289599      -279.9942
  13   2.0000     -10.285113      -279.8721
  14   2.0000     -10.276319      -279.6329
  15   2.0000     -10.275337      -279.6061
  16   2.0000      -8.082637      -219.9397
  17   2.0000      -8.077997      -219.8135
  18   2.0000      -6.041101      -164.3867
  19   2.0000      -6.037233      -164.2815
  20   2.0000      -6.036021      -164.2485
  21   2.0000      -6.033563      -164.1816
  22   2.0000      -6.032054      -164.1405
  23   2.0000      -6.029319      -164.0661
  24   2.0000      -1.010037       -27.4845
  25   2.0000      -0.980671       -26.6854
  26   2.0000      -0.911749       -24.8099
  27   2.0000      -0.908020       -24.7085
  28   2.0000      -0.866262       -23.5722
  29   2.0000      -0.854267       -23.2458
  30   2.0000      -0.848484       -23.0884
  31   2.0000      -0.812770       -22.1166
  32   2.0000      -0.780910       -21.2496
  33   2.0000      -0.767460       -20.8836
  34   2.0000      -0.705889       -19.2082
  35   2.0000      -0.700069       -19.0499
  36   2.0000      -0.690589       -18.7919
  37   2.0000      -0.656149       -17.8547
  38   2.0000      -0.643650       -17.5146
  39   2.0000      -0.615748       -16.7553
  40   2.0000      -0.591658       -16.0998
  41   2.0000      -0.574408       -15.6304
  42   2.0000      -0.559708       -15.2304
  43   2.0000      -0.550534       -14.9808
  44   2.0000      -0.547928       -14.9099
  45   2.0000      -0.525386       -14.2965
  46   2.0000      -0.516589       -14.0571
  47   2.0000      -0.514146       -13.9906
  48   2.0000      -0.500917       -13.6306
  49   2.0000      -0.499125       -13.5819
  50   2.0000      -0.488047       -13.2804
  51   2.0000      -0.481516       -13.1027
  52   2.0000      -0.468548       -12.7498
  53   2.0000      -0.454642       -12.3714
  54   2.0000      -0.450694       -12.2640
  55   2.0000      -0.448854       -12.2139
  56   2.0000      -0.442794       -12.0490
  57   2.0000      -0.440056       -11.9745
  58   2.0000      -0.428872       -11.6702
  59   2.0000      -0.424993       -11.5647
  60   2.0000      -0.423099       -11.5131
  61   2.0000      -0.406651       -11.0655
  62   2.0000      -0.402309       -10.9474
  63   2.0000      -0.341576        -9.2947
  64   2.0000      -0.332220        -9.0402
  65   2.0000      -0.326239        -8.8774
  66   2.0000      -0.290573        -7.9069
  67   0.0000       0.032661         0.8887
  68   0.0000       0.059966         1.6317
  69   0.0000       0.117326         3.1926
  70   0.0000       0.124123         3.3776
  71   0.0000       0.126903         3.4532

MULLIKEN ATOMIC CHARGES
-----------------------
   0 S :    0.110418
   1 C :   -0.120656
   2 C :   -0.055391
   3 C :    0.038530
   4 C :   -0.168077
   5 H :    0.023990
   6 C :    0.028435
   7 H :    0.038576
   8 H :    0.025721
   9 C :   -0.040144
  10 H :    0.034443
  11 H :    0.029523
  12 C :   -0.072108
  13 H :    0.020952
  14 H :    0.033036
  15 H :    0.019417
  16 S :    0.125125
  17 C :   -0.058784
  18 C :   -0.067088
  19 C :   -0.051116
  20 C :   -0.185144
  21 H :    0.006467
  22 C :    0.074260
  23 H :    0.022346
  24 H :    0.006228
  25 C :   -0.050510
  26 H :    0.064142
  27 H :    0.043992
  28 C :   -0.069884
  29 H :    0.017320
  30 H :    0.056407
  31 H :    0.035044
  32 H :    0.053139
  33 H :    0.031389
Sum of atomic charges:   -0.0000000

LOEWDIN ATOMIC CHARGES
----------------------
   0 S :    0.393699
   1 C :   -0.188884
   2 C :   -0.068759
   3 C :   -0.056405
   4 C :   -0.191134
   5 H :    0.034122
   6 C :   -0.030730
   7 H :    0.029865
   8 H :    0.040714
   9 C :   -0.036898
  10 H :    0.025340
  11 H :    0.025747
  12 C :   -0.078967
  13 H :    0.026276
  14 H :    0.026474
  15 H :    0.023027
  16 S :    0.454995
  17 C :   -0.209638
  18 C :   -0.083314
  19 C :   -0.060093
  20 C :   -0.204886
  21 H :    0.026712
  22 C :   -0.039392
  23 H :    0.031565
  24 H :    0.026328
  25 C :   -0.041694
  26 H :    0.042725
  27 H :    0.031429
  28 C :   -0.074599
  29 H :    0.018290
  30 H :    0.038598
  31 H :    0.025065
  32 H :    0.025292
  33 H :    0.019131

  Mayer bond orders larger than 0.100000
B(  0-S ,  1-C ) :   1.1627 B(  0-S ,  4-C ) :   1.1414 B(  1-C ,  2-C ) :   1.5722
B(  1-C ,  4-C ) :   0.1048 B(  1-C , 32-H ) :   0.9656 B(  2-C ,  3-C ) :   1.2506
B(  2-C ,  6-C ) :   1.0357 B(  3-C ,  4-C ) :   1.5788 B(  3-C ,  5-H ) :   0.9828
B(  4-C , 20-C ) :   1.0271 B(  6-C ,  7-H ) :   0.9466 B(  6-C ,  8-H ) :   0.9439
B(  6-C ,  9-C ) :   1.0432 B(  9-C , 10-H ) :   0.9617 B(  9-C , 11-H ) :   0.9609
B(  9-C , 12-C ) :   1.0764 B( 12-C , 13-H ) :   0.9778 B( 12-C , 14-H ) :   0.9740
B( 12-C , 15-H ) :   0.9721 B( 16-S , 17-C ) :   1.1920 B( 16-S , 20-C ) :   1.1959
B( 17-C , 18-C ) :   1.5422 B( 17-C , 20-C ) :   0.1091 B( 17-C , 33-H ) :   0.9793
B( 18-C , 19-C ) :   1.3024 B( 18-C , 21-H ) :   0.9952 B( 19-C , 20-C ) :   1.5050
B( 19-C , 22-C ) :   1.0295 B( 22-C , 23-H ) :   0.9259 B( 22-C , 24-H ) :   0.9293
B( 22-C , 25-C ) :   1.0481 B( 25-C , 26-H ) :   0.9547 B( 25-C , 27-H ) :   0.9508
B( 25-C , 28-C ) :   1.0705 B( 28-C , 29-H ) :   0.9741 B( 28-C , 30-H ) :   0.9699
B( 28-C , 31-H ) :   0.9698

Dispersion correction           -0.014131451
FINAL SINGLE POINT ENERGY     -1339.848941397678

DIPOLE MOMENT
-------------
                                X             Y             Z
Electronic contribution:    -15.88847     -14.90709      -4.96856
Nuclear contribution   :     16.26013      15.18614       5.24586
                        -----------------------------------------
Total Dipole Moment    :      0.37167       0.27904       0.27730
                        -----------------------------------------
Magnitude (a.u.)       :      0.54120
Magnitude (Debye)      :      1.37562

Rotational constants in cm-1:     0.020967     0.007253     0.006616
Rotational constants in MHz :   628.570846   217.432936   198.344216

                             ****ORCA TERMINATED NORMALLY****
TOTAL RUN TIME: 0 days 0 hours 0 minutes 21 seconds 222 msec
