                         Program Version 4.2.1 -  RELEASE  -
|  1> ! wB97X-D3 SP def2-SVP
|  2> %pal
|  3> nprocs 24
|  4> end
|  5>
|  6> * xyz 0 1
|  7> S 	 43.9457 	 -14.6496 	 -127.121
|  8> C 	 44.7933 	 -13.1447 	 -127.321
|  9> C 	 44.8464 	 -12.4752 	 -126.128
| 10> C 	 44.2421 	 -13.2303 	 -125.028
| 11> C 	 43.6291 	 -14.4382 	 -125.466
| 12> H 	 44.1619 	 -12.8822 	 -123.96
| 13> C 	 45.4388 	 -11.0507 	 -125.988
| 14> H 	 46.2481 	 -10.8097 	 -126.706
| 15> H 	 45.9512 	 -11.0038 	 -125.045
| 16> C 	 44.3986 	 -10.0124 	 -126.082
| 17> H 	 43.5874 	 -10.0707 	 -125.334
| 18> H 	 44.8491 	 -9.09088 	 -125.788
| 19> C 	 43.7357 	 -9.90513 	 -127.51
| 20> H 	 44.5783 	 -9.61985 	 -128.172
| 21> H 	 43.49 	 -10.9163 	 -127.838
| 22> H 	 42.8803 	 -9.27107 	 -127.516
| 23> S 	 43.9251 	 -16.1357 	 -123.283
| 24> C 	 42.8064 	 -17.4471 	 -123.101
| 25> C 	 41.7163 	 -17.3393 	 -123.96
| 26> C 	 41.754 	 -16.2169 	 -124.849
| 27> C 	 42.9614 	 -15.4605 	 -124.684
| 28> H 	 40.9055 	 -18.1037 	 -123.808
| 29> C 	 40.8158 	 -15.8062 	 -125.945
| 30> H 	 41.0733 	 -14.6989 	 -126.123
| 31> H 	 39.7693 	 -15.9291 	 -125.624
| 32> C 	 40.9657 	 -16.683 	 -127.159
| 33> H 	 42.0316 	 -16.8162 	 -127.299
| 34> H 	 40.6231 	 -16.1437 	 -128.024
| 35> C 	 40.2175 	 -18.0076 	 -126.926
| 36> H 	 40.31 	 -18.5031 	 -127.919
| 37> H 	 39.1349 	 -17.9645 	 -126.885
| 38> H 	 40.5137 	 -18.6436 	 -126.082
| 39> H 	 44.9745 	 -12.7314 	 -128.28
| 40> H 	 42.9257 	 -18.2955 	 -122.382
| 41> *
| 42>
| 43>                          ****END OF INPUT****

CARTESIAN COORDINATES (ANGSTROEM)
---------------------------------
  S     43.945700  -14.649600  -127.121000
  C     44.793300  -13.144700  -127.321000
  C     44.846400  -12.475200  -126.128000
  C     44.242100  -13.230300  -125.028000
  C     43.629100  -14.438200  -125.466000
  H     44.161900  -12.882200  -123.960000
  C     45.438800  -11.050700  -125.988000
  H     46.248100  -10.809700  -126.706000
  H     45.951200  -11.003800  -125.045000
  C     44.398600  -10.012400  -126.082000
  H     43.587400  -10.070700  -125.334000
  H     44.849100   -9.090880  -125.788000
  C     43.735700   -9.905130  -127.510000
  H     44.578300   -9.619850  -128.172000
  H     43.490000  -10.916300  -127.838000
  H     42.880300   -9.271070  -127.516000
  S     43.925100  -16.135700  -123.283000
  C     42.806400  -17.447100  -123.101000
  C     41.716300  -17.339300  -123.960000
  C     41.754000  -16.216900  -124.849000
  C     42.961400  -15.460500  -124.684000
  H     40.905500  -18.103700  -123.808000
  C     40.815800  -15.806200  -125.945000
  H     41.073300  -14.698900  -126.123000
  H     39.769300  -15.929100  -125.624000
  C     40.965700  -16.683000  -127.159000
  H     42.031600  -16.816200  -127.299000
  H     40.623100  -16.143700  -128.024000
  C     40.217500  -18.007600  -126.926000
  H     40.310000  -18.503100  -127.919000
  H     39.134900  -17.964500  -126.885000
  H     40.513700  -18.643600  -126.082000
  H     44.974500  -12.731400  -128.280000
  H     42.925700  -18.295500  -122.382000

 Total Charge           Charge          ....    0
 Multiplicity           Mult            ....    1
 Number of Electrons    NEL             ....  134
 Basis Dimension        Dim             ....  322

ORBITAL ENERGIES
----------------

  NO   OCC          E(Eh)            E(eV)
   0   2.0000     -88.966144     -2420.8919
   1   2.0000     -88.965375     -2420.8709
   2   2.0000     -10.333610      -281.1918
   3   2.0000     -10.333092      -281.1777
   4   2.0000     -10.323624      -280.9201
   5   2.0000     -10.312860      -280.6272
   6   2.0000     -10.309764      -280.5429
   7   2.0000     -10.306757      -280.4611
   8   2.0000     -10.305416      -280.4246
   9   2.0000     -10.302145      -280.3356
  10   2.0000     -10.292522      -280.0738
  11   2.0000     -10.291020      -280.0329
  12   2.0000     -10.281636      -279.7775
  13   2.0000     -10.281597      -279.7765
  14   2.0000     -10.279512      -279.7198
  15   2.0000     -10.277394      -279.6621
  16   2.0000      -8.080924      -219.8931
  17   2.0000      -8.079923      -219.8659
  18   2.0000      -6.039394      -164.3403
  19   2.0000      -6.038348      -164.3118
  20   2.0000      -6.035059      -164.2223
  21   2.0000      -6.034519      -164.2076
  22   2.0000      -6.031926      -164.1371
  23   2.0000      -6.030869      -164.1083
  24   2.0000      -1.005535       -27.3620
  25   2.0000      -0.979647       -26.6576
  26   2.0000      -0.917440       -24.9648
  27   2.0000      -0.914769       -24.8921
  28   2.0000      -0.868120       -23.6227
  29   2.0000      -0.844715       -22.9859
  30   2.0000      -0.838524       -22.8174
  31   2.0000      -0.808126       -21.9902
  32   2.0000      -0.786685       -21.4068
  33   2.0000      -0.773628       -21.0515
  34   2.0000      -0.711844       -19.3703
  35   2.0000      -0.696432       -18.9509
  36   2.0000      -0.689735       -18.7686
  37   2.0000      -0.658612       -17.9217
  38   2.0000      -0.638283       -17.3686
  39   2.0000      -0.612170       -16.6580
  40   2.0000      -0.594773       -16.1846
  41   2.0000      -0.574183       -15.6243
  42   2.0000      -0.559047       -15.2125
  43   2.0000      -0.551664       -15.0115
  44   2.0000      -0.543954       -14.8017
  45   2.0000      -0.536757       -14.6059
  46   2.0000      -0.516390       -14.0517
  47   2.0000      -0.507923       -13.8213
  48   2.0000      -0.498223       -13.5573
  49   2.0000      -0.496382       -13.5072
  50   2.0000      -0.486730       -13.2446
  51   2.0000      -0.480219       -13.0674
  52   2.0000      -0.472584       -12.8597
  53   2.0000      -0.469358       -12.7719
  54   2.0000      -0.459703       -12.5092
  55   2.0000      -0.454851       -12.3771
  56   2.0000      -0.441722       -12.0199
  57   2.0000      -0.435488       -11.8502
  58   2.0000      -0.434392       -11.8204
  59   2.0000      -0.418421       -11.3858
  60   2.0000      -0.412916       -11.2360
  61   2.0000      -0.410868       -11.1803
  62   2.0000      -0.406112       -11.0509
  63   2.0000      -0.343753        -9.3540
  64   2.0000      -0.331456        -9.0194
  65   2.0000      -0.329227        -8.9587
  66   2.0000      -0.291532        -7.9330
  67   0.0000       0.024055         0.6546
  68   0.0000       0.065289         1.7766
  69   0.0000       0.103815         2.8250
  70   0.0000       0.122773         3.3408
  71   0.0000       0.131118         3.5679

MULLIKEN ATOMIC CHARGES
-----------------------
   0 S :    0.105357
   1 C :   -0.106895
   2 C :   -0.106204
   3 C :    0.009477
   4 C :   -0.161624
   5 H :    0.036436
   6 C :    0.071178
   7 H :    0.029894
   8 H :    0.020456
   9 C :   -0.063180
  10 H :    0.023053
  11 H :    0.015896
  12 C :   -0.047264
  13 H :    0.024977
  14 H :    0.032116
  15 H :    0.041637
  16 S :    0.107176
  17 C :   -0.109968
  18 C :   -0.069074
  19 C :   -0.020915
  20 C :   -0.164921
  21 H :    0.043628
  22 C :    0.021323
  23 H :    0.055285
  24 H :    0.025772
  25 C :   -0.018385
  26 H :    0.026566
  27 H :    0.027649
  28 C :   -0.075928
  29 H :    0.033906
  30 H :    0.023775
  31 H :    0.047199
  32 H :    0.045817
  33 H :    0.075786
Sum of atomic charges:    0.0000000

LOEWDIN ATOMIC CHARGES
----------------------
   0 S :    0.444493
   1 C :   -0.203531
   2 C :   -0.055940
   3 C :   -0.074791
   4 C :   -0.218562
   5 H :    0.039553
   6 C :   -0.030917
   7 H :    0.034353
   8 H :    0.030774
   9 C :   -0.043094
  10 H :    0.023414
  11 H :    0.018322
  12 C :   -0.061192
  13 H :    0.026125
  14 H :    0.023864
  15 H :    0.023011
  16 S :    0.388939
  17 C :   -0.193507
  18 C :   -0.090365
  19 C :   -0.041780
  20 C :   -0.186159
  21 H :    0.040337
  22 C :   -0.043986
  23 H :    0.040216
  24 H :    0.030770
  25 C :   -0.037009
  26 H :    0.016774
  27 H :    0.026006
  28 C :   -0.074511
  29 H :    0.034624
  30 H :    0.023257
  31 H :    0.027880
  32 H :    0.021472
  33 H :    0.041161

  Mayer bond orders larger than 0.100000
B(  0-S ,  1-C ) :   1.1383 B(  0-S ,  4-C ) :   1.1811 B(  1-C ,  2-C ) :   1.5989
B(  1-C , 32-H ) :   0.9724 B(  2-C ,  3-C ) :   1.2603 B(  2-C ,  6-C ) :   1.0152
B(  3-C ,  4-C ) :   1.5208 B(  3-C ,  5-H ) :   0.9869 B(  4-C , 20-C ) :   1.0534
B(  6-C ,  7-H ) :   0.9475 B(  6-C ,  8-H ) :   0.9325 B(  6-C ,  9-C ) :   1.0864
B(  9-C , 10-H ) :   0.9542 B(  9-C , 11-H ) :   0.9530 B(  9-C , 12-C ) :   1.0605
B( 12-C , 13-H ) :   0.9754 B( 12-C , 14-H ) :   0.9766 B( 12-C , 15-H ) :   0.9752
B( 16-S , 17-C ) :   1.1718 B( 16-S , 20-C ) :   1.1244 B( 17-C , 18-C ) :   1.6066
B( 17-C , 20-C ) :   0.1054 B( 17-C , 33-H ) :   0.9582 B( 18-C , 19-C ) :   1.2357
B( 18-C , 21-H ) :   0.9762 B( 19-C , 20-C ) :   1.5556 B( 19-C , 22-C ) :   1.0592
B( 22-C , 23-H ) :   0.9289 B( 22-C , 24-H ) :   0.9320 B( 22-C , 25-C ) :   1.0598
B( 25-C , 26-H ) :   0.9482 B( 25-C , 27-H ) :   0.9513 B( 25-C , 28-C ) :   1.0754
B( 28-C , 29-H ) :   0.9697 B( 28-C , 30-H ) :   0.9723 B( 28-C , 31-H ) :   0.9715

Dispersion correction           -0.015053851
FINAL SINGLE POINT ENERGY     -1339.872321401959

DIPOLE MOMENT
-------------
                                X             Y             Z
Electronic contribution:      9.30435     -10.54706      10.68398
Nuclear contribution   :     -9.55987      10.73339     -10.76007
                        -----------------------------------------
Total Dipole Moment    :     -0.25552       0.18632      -0.07609
                        -----------------------------------------
Magnitude (a.u.)       :      0.32526
Magnitude (Debye)      :      0.82675

Rotational constants in cm-1:     0.023363     0.008095     0.006718
Rotational constants in MHz :   700.420068   242.682997   201.392778

                             ****ORCA TERMINATED NORMALLY****
TOTAL RUN TIME: 0 days 0 hours 0 minutes 20 seconds 851 msec
