                         Program Version 4.2.1 -  RELEASE  -
|  1> ! wB97X-D3 SP def2-SVP
|  2> %pal
|  3> nprocs 24
|  4> end
|  5>
|  6> * xyz 0 1
|  7> S 	 -60.5729 	 20.7891 	 -117.903
|  8> C 	 -59.0682 	 21.335 	 -117.196
|  9> C 	 -59.1941 	 21.9972 	 -116.048
| 10> C 	 -60.5505 	 21.9598 	 -115.583
| 11> C 	 -61.444 	 21.3007 	 -116.438
| 12> H 	 -60.9164 	 22.4852 	 -114.739
| 13> C 	 -58.1618 	 22.921 	 -115.417
| 14> H 	 -57.131 	 22.5679 	 -115.577
| 15> H 	 -58.3661 	 22.7335 	 -114.307
| 16> C 	 -58.2374 	 24.4417 	 -115.747
| 17> H 	 -59.1027 	 24.9141 	 -115.225
| 18> H 	 -57.4478 	 24.7693 	 -115.111
| 19> C 	 -58.1218 	 24.7533 	 -117.291
| 20> H 	 -57.2373 	 24.2978 	 -117.681
| 21> H 	 -58.8878 	 24.3439 	 -117.922
| 22> H 	 -58.0904 	 25.8069 	 -117.402
| 23> S 	 -63.2733 	 19.2905 	 -116.288
| 24> C 	 -64.7994 	 19.5997 	 -115.566
| 25> C 	 -64.9455 	 20.9118 	 -115.196
| 26> C 	 -63.7796 	 21.67 	 -115.351
| 27> C 	 -62.7713 	 20.961 	 -116.052
| 28> H 	 -65.8467 	 21.2782 	 -114.702
| 29> C 	 -63.8095 	 23.1416 	 -114.904
| 30> H 	 -63.4601 	 23.7215 	 -115.631
| 31> H 	 -63.0222 	 23.164 	 -114.228
| 32> C 	 -65.1252 	 23.7294 	 -114.435
| 33> H 	 -65.6186 	 23.1267 	 -113.719
| 34> H 	 -65.6973 	 23.7583 	 -115.375
| 35> C 	 -64.9756 	 25.2011 	 -113.986
| 36> H 	 -65.8611 	 25.764 	 -113.86
| 37> H 	 -64.4349 	 25.8598 	 -114.612
| 38> H 	 -64.594 	 25.3744 	 -113.061
| 39> H 	 -58.1342 	 21.1878 	 -117.637
| 40> H 	 -65.5628 	 18.861 	 -115.691
| 41> *
| 42>
| 43>                          ****END OF INPUT****

CARTESIAN COORDINATES (ANGSTROEM)
---------------------------------
  S    -60.572900   20.789100  -117.903000
  C    -59.068200   21.335000  -117.196000
  C    -59.194100   21.997200  -116.048000
  C    -60.550500   21.959800  -115.583000
  C    -61.444000   21.300700  -116.438000
  H    -60.916400   22.485200  -114.739000
  C    -58.161800   22.921000  -115.417000
  H    -57.131000   22.567900  -115.577000
  H    -58.366100   22.733500  -114.307000
  C    -58.237400   24.441700  -115.747000
  H    -59.102700   24.914100  -115.225000
  H    -57.447800   24.769300  -115.111000
  C    -58.121800   24.753300  -117.291000
  H    -57.237300   24.297800  -117.681000
  H    -58.887800   24.343900  -117.922000
  H    -58.090400   25.806900  -117.402000
  S    -63.273300   19.290500  -116.288000
  C    -64.799400   19.599700  -115.566000
  C    -64.945500   20.911800  -115.196000
  C    -63.779600   21.670000  -115.351000
  C    -62.771300   20.961000  -116.052000
  H    -65.846700   21.278200  -114.702000
  C    -63.809500   23.141600  -114.904000
  H    -63.460100   23.721500  -115.631000
  H    -63.022200   23.164000  -114.228000
  C    -65.125200   23.729400  -114.435000
  H    -65.618600   23.126700  -113.719000
  H    -65.697300   23.758300  -115.375000
  C    -64.975600   25.201100  -113.986000
  H    -65.861100   25.764000  -113.860000
  H    -64.434900   25.859800  -114.612000
  H    -64.594000   25.374400  -113.061000
  H    -58.134200   21.187800  -117.637000
  H    -65.562800   18.861000  -115.691000

 Total Charge           Charge          ....    0
 Multiplicity           Mult            ....    1
 Number of Electrons    NEL             ....  134
 Basis Dimension        Dim             ....  322

ORBITAL ENERGIES
----------------

  NO   OCC          E(Eh)            E(eV)
   0   2.0000     -88.966390     -2420.8986
   1   2.0000     -88.962346     -2420.7885
   2   2.0000     -10.328413      -281.0504
   3   2.0000     -10.324880      -280.9543
   4   2.0000     -10.308909      -280.5197
   5   2.0000     -10.303337      -280.3681
   6   2.0000     -10.302792      -280.3532
   7   2.0000     -10.299916      -280.2750
   8   2.0000     -10.294613      -280.1306
   9   2.0000     -10.291879      -280.0563
  10   2.0000     -10.291569      -280.0478
  11   2.0000     -10.289427      -279.9895
  12   2.0000     -10.287528      -279.9379
  13   2.0000     -10.277331      -279.6604
  14   2.0000     -10.276696      -279.6431
  15   2.0000     -10.266978      -279.3787
  16   2.0000      -8.080645      -219.8855
  17   2.0000      -8.077754      -219.8069
  18   2.0000      -6.039307      -164.3379
  19   2.0000      -6.036111      -164.2509
  20   2.0000      -6.035358      -164.2304
  21   2.0000      -6.032050      -164.1404
  22   2.0000      -6.031147      -164.1159
  23   2.0000      -6.028766      -164.0511
  24   2.0000      -1.006333       -27.3837
  25   2.0000      -0.984968       -26.8023
  26   2.0000      -0.918030       -24.9809
  27   2.0000      -0.905413       -24.6375
  28   2.0000      -0.871560       -23.7164
  29   2.0000      -0.855300       -23.2739
  30   2.0000      -0.843639       -22.9566
  31   2.0000      -0.811283       -22.0761
  32   2.0000      -0.791718       -21.5437
  33   2.0000      -0.782010       -21.2796
  34   2.0000      -0.727084       -19.7850
  35   2.0000      -0.707002       -19.2385
  36   2.0000      -0.702490       -19.1157
  37   2.0000      -0.655138       -17.8272
  38   2.0000      -0.638631       -17.3780
  39   2.0000      -0.619756       -16.8644
  40   2.0000      -0.604898       -16.4601
  41   2.0000      -0.578278       -15.7358
  42   2.0000      -0.561806       -15.2875
  43   2.0000      -0.547478       -14.8976
  44   2.0000      -0.535714       -14.5775
  45   2.0000      -0.525367       -14.2960
  46   2.0000      -0.514917       -14.0116
  47   2.0000      -0.511469       -13.9178
  48   2.0000      -0.501126       -13.6363
  49   2.0000      -0.497939       -13.5496
  50   2.0000      -0.494083       -13.4447
  51   2.0000      -0.485804       -13.2194
  52   2.0000      -0.479742       -13.0545
  53   2.0000      -0.466235       -12.6869
  54   2.0000      -0.459256       -12.4970
  55   2.0000      -0.456290       -12.4163
  56   2.0000      -0.448760       -12.2114
  57   2.0000      -0.442085       -12.0297
  58   2.0000      -0.436145       -11.8681
  59   2.0000      -0.427503       -11.6330
  60   2.0000      -0.421546       -11.4708
  61   2.0000      -0.417643       -11.3646
  62   2.0000      -0.416399       -11.3308
  63   2.0000      -0.348578        -9.4853
  64   2.0000      -0.332287        -9.0420
  65   2.0000      -0.327927        -8.9234
  66   2.0000      -0.282515        -7.6876
  67   0.0000       0.024175         0.6578
  68   0.0000       0.077886         2.1194
  69   0.0000       0.110414         3.0045
  70   0.0000       0.127131         3.4594
  71   0.0000       0.133282         3.6268

MULLIKEN ATOMIC CHARGES
-----------------------
   0 S :    0.108600
   1 C :   -0.110677
   2 C :   -0.039399
   3 C :    0.013648
   4 C :   -0.145552
   5 H :   -0.011603
   6 C :   -0.009107
   7 H :    0.027152
   8 H :    0.036661
   9 C :   -0.043342
  10 H :    0.027132
  11 H :    0.026029
  12 C :   -0.016531
  13 H :    0.017476
  14 H :    0.046311
  15 H :    0.033297
  16 S :    0.108227
  17 C :   -0.079156
  18 C :   -0.053581
  19 C :   -0.059339
  20 C :   -0.161590
  21 H :    0.022354
  22 C :    0.151331
  23 H :   -0.010613
  24 H :    0.005716
  25 C :   -0.068236
  26 H :    0.037194
  27 H :    0.038742
  28 C :    0.025975
  29 H :    0.005822
  30 H :    0.009813
  31 H :   -0.001624
  32 H :    0.016318
  33 H :    0.052549
Sum of atomic charges:   -0.0000000

LOEWDIN ATOMIC CHARGES
----------------------
   0 S :    0.384811
   1 C :   -0.181446
   2 C :   -0.073300
   3 C :   -0.050764
   4 C :   -0.189399
   5 H :    0.020162
   6 C :   -0.037259
   7 H :    0.027228
   8 H :    0.038175
   9 C :   -0.036935
  10 H :    0.025815
  11 H :    0.024368
  12 C :   -0.055748
  13 H :    0.022744
  14 H :    0.029717
  15 H :    0.024053
  16 S :    0.423789
  17 C :   -0.192816
  18 C :   -0.079797
  19 C :   -0.044574
  20 C :   -0.201666
  21 H :    0.034167
  22 C :   -0.019239
  23 H :    0.016780
  24 H :    0.021646
  25 C :   -0.026811
  26 H :    0.018893
  27 H :    0.035182
  28 C :   -0.059902
  29 H :    0.026681
  30 H :    0.023898
  31 H :    0.014048
  32 H :    0.015289
  33 H :    0.022215

  Mayer bond orders larger than 0.100000
B(  0-S ,  1-C ) :   1.1213 B(  0-S ,  4-C ) :   1.1243 B(  1-C ,  2-C ) :   1.6431
B(  1-C , 32-H ) :   0.9674 B(  2-C ,  3-C ) :   1.2295 B(  2-C ,  6-C ) :   1.0206
B(  3-C ,  4-C ) :   1.5667 B(  3-C ,  5-H ) :   0.9949 B(  4-C , 20-C ) :   1.1000
B(  6-C ,  7-H ) :   0.9465 B(  6-C ,  8-H ) :   0.9383 B(  6-C ,  9-C ) :   1.0655
B(  9-C , 10-H ) :   0.9556 B(  9-C , 11-H ) :   0.9554 B(  9-C , 12-C ) :   1.0549
B( 12-C , 13-H ) :   0.9754 B( 12-C , 14-H ) :   0.9762 B( 12-C , 15-H ) :   0.9763
B( 16-S , 17-C ) :   1.1826 B( 16-S , 20-C ) :   1.1525 B( 17-C , 18-C ) :   1.5514
B( 17-C , 20-C ) :   0.1095 B( 17-C , 33-H ) :   0.9643 B( 18-C , 19-C ) :   1.3133
B( 18-C , 21-H ) :   0.9806 B( 19-C , 20-C ) :   1.5448 B( 19-C , 22-C ) :   1.0004
B( 22-C , 23-H ) :   0.9194 B( 22-C , 24-H ) :   0.9086 B( 22-C , 25-C ) :   1.0883
B( 25-C , 26-H ) :   0.9500 B( 25-C , 27-H ) :   0.9509 B( 25-C , 28-C ) :   1.0794
B( 28-C , 29-H ) :   0.9654 B( 28-C , 30-H ) :   0.9704 B( 28-C , 31-H ) :   0.9689

Dispersion correction           -0.014067277
FINAL SINGLE POINT ENERGY     -1339.845018146466

DIPOLE MOMENT
-------------
                                X             Y             Z
Electronic contribution:     -2.92444     -27.42698     -10.57093
Nuclear contribution   :      2.96453      28.16366      10.94505
                        -----------------------------------------
Total Dipole Moment    :      0.04009       0.73668       0.37412
                        -----------------------------------------
Magnitude (a.u.)       :      0.82720
Magnitude (Debye)      :      2.10259

Rotational constants in cm-1:     0.016939     0.009132     0.006382
Rotational constants in MHz :   507.826413   273.776348   191.322675

                             ****ORCA TERMINATED NORMALLY****
TOTAL RUN TIME: 0 days 0 hours 0 minutes 21 seconds 382 msec
