                         Program Version 4.2.1 -  RELEASE  -
|  1> ! wB97X-D3 SP def2-SVP
|  2> %pal
|  3> nprocs 24
|  4> end
|  5>
|  6> * xyz 0 1
|  7> S 	 -82.5613 	 -11.0551 	 -58.0024
|  8> C 	 -82.5822 	 -9.5252 	 -58.838
|  9> C 	 -82.648 	 -9.75698 	 -60.2106
| 10> C 	 -82.7026 	 -11.1546 	 -60.5704
| 11> C 	 -82.751 	 -11.9775 	 -59.4824
| 12> H 	 -82.7473 	 -11.5542 	 -61.5472
| 13> C 	 -82.7069 	 -8.61245 	 -61.2209
| 14> H 	 -83.2825 	 -7.86862 	 -60.7094
| 15> H 	 -83.0784 	 -8.82177 	 -62.169
| 16> C 	 -81.3424 	 -8.11201 	 -61.6062
| 17> H 	 -80.7184 	 -7.92713 	 -60.7262
| 18> H 	 -80.8689 	 -8.83971 	 -62.1975
| 19> C 	 -81.3896 	 -6.7915 	 -62.4185
| 20> H 	 -82.0645 	 -6.98712 	 -63.2661
| 21> H 	 -81.7035 	 -5.87404 	 -61.8566
| 22> H 	 -80.361 	 -6.61208 	 -62.8446
| 23> S 	 -81.8579 	 -14.215 	 -58.3088
| 24> C 	 -82.6779 	 -15.7028 	 -58.5287
| 25> C 	 -83.7229 	 -15.5724 	 -59.4218
| 26> C 	 -83.8077 	 -14.2644 	 -60.0467
| 27> C 	 -82.8916 	 -13.4174 	 -59.4644
| 28> H 	 -84.3521 	 -16.4105 	 -59.685
| 29> C 	 -84.9303 	 -13.8258 	 -60.9304
| 30> H 	 -84.8453 	 -12.699 	 -61.0929
| 31> H 	 -85.8464 	 -14.066 	 -60.3925
| 32> C 	 -85.1874 	 -14.6104 	 -62.1959
| 33> H 	 -86.2591 	 -14.3285 	 -62.4534
| 34> H 	 -85.0612 	 -15.7139 	 -61.9513
| 35> C 	 -84.1758 	 -14.3071 	 -63.2825
| 36> H 	 -83.2578 	 -14.9314 	 -63.094
| 37> H 	 -83.8954 	 -13.2879 	 -63.5857
| 38> H 	 -84.5686 	 -14.8475 	 -64.2191
| 39> H 	 -82.4225 	 -8.5393 	 -58.428
| 40> H 	 -82.4777 	 -16.663 	 -58.0363
| 41> *
| 42>
| 43>                          ****END OF INPUT****

CARTESIAN COORDINATES (ANGSTROEM)
---------------------------------
  S    -82.561300  -11.055100  -58.002400
  C    -82.582200   -9.525200  -58.838000
  C    -82.648000   -9.756980  -60.210600
  C    -82.702600  -11.154600  -60.570400
  C    -82.751000  -11.977500  -59.482400
  H    -82.747300  -11.554200  -61.547200
  C    -82.706900   -8.612450  -61.220900
  H    -83.282500   -7.868620  -60.709400
  H    -83.078400   -8.821770  -62.169000
  C    -81.342400   -8.112010  -61.606200
  H    -80.718400   -7.927130  -60.726200
  H    -80.868900   -8.839710  -62.197500
  C    -81.389600   -6.791500  -62.418500
  H    -82.064500   -6.987120  -63.266100
  H    -81.703500   -5.874040  -61.856600
  H    -80.361000   -6.612080  -62.844600
  S    -81.857900  -14.215000  -58.308800
  C    -82.677900  -15.702800  -58.528700
  C    -83.722900  -15.572400  -59.421800
  C    -83.807700  -14.264400  -60.046700
  C    -82.891600  -13.417400  -59.464400
  H    -84.352100  -16.410500  -59.685000
  C    -84.930300  -13.825800  -60.930400
  H    -84.845300  -12.699000  -61.092900
  H    -85.846400  -14.066000  -60.392500
  C    -85.187400  -14.610400  -62.195900
  H    -86.259100  -14.328500  -62.453400
  H    -85.061200  -15.713900  -61.951300
  C    -84.175800  -14.307100  -63.282500
  H    -83.257800  -14.931400  -63.094000
  H    -83.895400  -13.287900  -63.585700
  H    -84.568600  -14.847500  -64.219100
  H    -82.422500   -8.539300  -58.428000
  H    -82.477700  -16.663000  -58.036300

 Total Charge           Charge          ....    0
 Multiplicity           Mult            ....    1
 Number of Electrons    NEL             ....  134
 Basis Dimension        Dim             ....  322

ORBITAL ENERGIES
----------------

  NO   OCC          E(Eh)            E(eV)
   0   2.0000     -88.965573     -2420.8763
   1   2.0000     -88.965148     -2420.8647
   2   2.0000     -10.326983      -281.0115
   3   2.0000     -10.322984      -280.9027
   4   2.0000     -10.317200      -280.7453
   5   2.0000     -10.313067      -280.6328
   6   2.0000     -10.303639      -280.3763
   7   2.0000     -10.302681      -280.3502
   8   2.0000     -10.297909      -280.2204
   9   2.0000     -10.295118      -280.1444
  10   2.0000     -10.290897      -280.0295
  11   2.0000     -10.289832      -280.0006
  12   2.0000     -10.286234      -279.9026
  13   2.0000     -10.285809      -279.8911
  14   2.0000     -10.281626      -279.7773
  15   2.0000     -10.278421      -279.6900
  16   2.0000      -8.080784      -219.8893
  17   2.0000      -8.080181      -219.8729
  18   2.0000      -6.039270      -164.3369
  19   2.0000      -6.038834      -164.3250
  20   2.0000      -6.035135      -164.2244
  21   2.0000      -6.034648      -164.2111
  22   2.0000      -6.031537      -164.1265
  23   2.0000      -6.030825      -164.1071
  24   2.0000      -1.011531       -27.5252
  25   2.0000      -0.985625       -26.8202
  26   2.0000      -0.917444       -24.9649
  27   2.0000      -0.916087       -24.9280
  28   2.0000      -0.871728       -23.7209
  29   2.0000      -0.852605       -23.2006
  30   2.0000      -0.842820       -22.9343
  31   2.0000      -0.816396       -22.2153
  32   2.0000      -0.783388       -21.3171
  33   2.0000      -0.771374       -20.9901
  34   2.0000      -0.705111       -19.1870
  35   2.0000      -0.695249       -18.9187
  36   2.0000      -0.690362       -18.7857
  37   2.0000      -0.658566       -17.9205
  38   2.0000      -0.643580       -17.5127
  39   2.0000      -0.620287       -16.8789
  40   2.0000      -0.599134       -16.3033
  41   2.0000      -0.586215       -15.9517
  42   2.0000      -0.559251       -15.2180
  43   2.0000      -0.547966       -14.9109
  44   2.0000      -0.541715       -14.7408
  45   2.0000      -0.526281       -14.3208
  46   2.0000      -0.517355       -14.0780
  47   2.0000      -0.511178       -13.9099
  48   2.0000      -0.508899       -13.8478
  49   2.0000      -0.505161       -13.7461
  50   2.0000      -0.491566       -13.3762
  51   2.0000      -0.477067       -12.9817
  52   2.0000      -0.473201       -12.8765
  53   2.0000      -0.469153       -12.7663
  54   2.0000      -0.461694       -12.5633
  55   2.0000      -0.447757       -12.1841
  56   2.0000      -0.439209       -11.9515
  57   2.0000      -0.433981       -11.8092
  58   2.0000      -0.428940       -11.6721
  59   2.0000      -0.424260       -11.5447
  60   2.0000      -0.422386       -11.4937
  61   2.0000      -0.414732       -11.2854
  62   2.0000      -0.411049       -11.1852
  63   2.0000      -0.351262        -9.5583
  64   2.0000      -0.329178        -8.9574
  65   2.0000      -0.327694        -8.9170
  66   2.0000      -0.290863        -7.9148
  67   0.0000       0.031459         0.8560
  68   0.0000       0.073585         2.0024
  69   0.0000       0.114326         3.1110
  70   0.0000       0.115775         3.1504
  71   0.0000       0.128916         3.5080

MULLIKEN ATOMIC CHARGES
-----------------------
   0 S :    0.114542
   1 C :   -0.111266
   2 C :   -0.111844
   3 C :    0.048682
   4 C :   -0.137881
   5 H :   -0.008707
   6 C :    0.119470
   7 H :    0.019119
   8 H :   -0.005052
   9 C :   -0.074265
  10 H :    0.023060
  11 H :    0.016488
  12 C :   -0.072483
  13 H :    0.026186
  14 H :    0.046978
  15 H :    0.041902
  16 S :    0.111225
  17 C :   -0.083568
  18 C :   -0.055189
  19 C :   -0.004586
  20 C :   -0.171475
  21 H :    0.016597
  22 C :    0.039446
  23 H :    0.041849
  24 H :    0.033485
  25 C :   -0.096003
  26 H :    0.045607
  27 H :    0.040453
  28 C :   -0.088560
  29 H :    0.044394
  30 H :    0.046077
  31 H :    0.034637
  32 H :    0.047590
  33 H :    0.063093
Sum of atomic charges:    0.0000000

LOEWDIN ATOMIC CHARGES
----------------------
   0 S :    0.407157
   1 C :   -0.206417
   2 C :   -0.052519
   3 C :   -0.066220
   4 C :   -0.188607
   5 H :    0.024194
   6 C :   -0.026105
   7 H :    0.028572
   8 H :    0.019816
   9 C :   -0.036429
  10 H :    0.019634
  11 H :    0.017861
  12 C :   -0.071060
  13 H :    0.021833
  14 H :    0.028931
  15 H :    0.031946
  16 S :    0.420832
  17 C :   -0.198490
  18 C :   -0.072860
  19 C :   -0.055075
  20 C :   -0.198801
  21 H :    0.026875
  22 C :   -0.043844
  23 H :    0.038685
  24 H :    0.037381
  25 C :   -0.049111
  26 H :    0.031869
  27 H :    0.034955
  28 C :   -0.084757
  29 H :    0.034820
  30 H :    0.023277
  31 H :    0.034103
  32 H :    0.030674
  33 H :    0.036879

  Mayer bond orders larger than 0.100000
B(  0-S ,  1-C ) :   1.1260 B(  0-S ,  4-C ) :   1.1522 B(  1-C ,  2-C ) :   1.6093
B(  1-C , 32-H ) :   0.9695 B(  2-C ,  3-C ) :   1.2313 B(  2-C ,  6-C ) :   1.0259
B(  3-C ,  4-C ) :   1.5662 B(  3-C ,  5-H ) :   1.0063 B(  4-C , 20-C ) :   1.0436
B(  6-C ,  7-H ) :   0.9421 B(  6-C ,  8-H ) :   0.9398 B(  6-C ,  9-C ) :   1.0620
B(  9-C , 10-H ) :   0.9572 B(  9-C , 11-H ) :   0.9548 B(  9-C , 12-C ) :   1.0818
B( 12-C , 13-H ) :   0.9720 B( 12-C , 14-H ) :   0.9769 B( 12-C , 15-H ) :   0.9748
B( 16-S , 17-C ) :   1.1504 B( 16-S , 20-C ) :   1.1403 B( 17-C , 18-C ) :   1.6257
B( 17-C , 33-H ) :   0.9650 B( 18-C , 19-C ) :   1.2218 B( 18-C , 21-H ) :   0.9846
B( 19-C , 20-C ) :   1.5884 B( 19-C , 22-C ) :   1.0500 B( 22-C , 23-H ) :   0.9345
B( 22-C , 24-H ) :   0.9295 B( 22-C , 25-C ) :   1.0618 B( 25-C , 26-H ) :   0.9581
B( 25-C , 27-H ) :   0.9502 B( 25-C , 28-C ) :   1.0730 B( 28-C , 29-H ) :   0.9717
B( 28-C , 30-H ) :   0.9761 B( 28-C , 31-H ) :   0.9707

Dispersion correction           -0.013898047
FINAL SINGLE POINT ENERGY     -1339.877847812422

DIPOLE MOMENT
-------------
                                X             Y             Z
Electronic contribution:      5.26887     -11.22552      25.50312
Nuclear contribution   :     -5.54465      11.20408     -26.01550
                        -----------------------------------------
Total Dipole Moment    :     -0.27579      -0.02144      -0.51238
                        -----------------------------------------
Magnitude (a.u.)       :      0.58228
Magnitude (Debye)      :      1.48004

Rotational constants in cm-1:     0.019879     0.008169     0.006306
Rotational constants in MHz :   595.962729   244.900652   189.049307

                             ****ORCA TERMINATED NORMALLY****
TOTAL RUN TIME: 0 days 0 hours 0 minutes 20 seconds 369 msec
