                         Program Version 4.2.1 -  RELEASE  -
|  1> ! wB97X-D3 SP def2-SVP
|  2> %pal
|  3> nprocs 24
|  4> end
|  5>
|  6> * xyz 0 1
|  7> S 	 44.5529 	 -15.1128 	 -125.837
|  8> C 	 44.9789 	 -13.3911 	 -125.708
|  9> C 	 44.1518 	 -12.7467 	 -124.747
| 10> C 	 43.3935 	 -13.7183 	 -124.022
| 11> C 	 43.6082 	 -14.9984 	 -124.367
| 12> H 	 42.7949 	 -13.4974 	 -123.211
| 13> C 	 44.2921 	 -11.3927 	 -124.212
| 14> H 	 45.258 	 -11.2646 	 -123.726
| 15> H 	 43.7063 	 -11.427 	 -123.263
| 16> C 	 43.9918 	 -10.2309 	 -125.153
| 17> H 	 42.8941 	 -10.2794 	 -125.309
| 18> H 	 44.0844 	 -9.18373 	 -124.66
| 19> C 	 44.714 	 -9.99633 	 -126.409
| 20> H 	 44.145 	 -9.20084 	 -126.874
| 21> H 	 45.7405 	 -9.62153 	 -126.288
| 22> H 	 44.7583 	 -10.8419 	 -127.103
| 23> S 	 43.7514 	 -16.72 	 -122.27
| 24> C 	 42.5241 	 -17.9424 	 -122.025
| 25> C 	 41.5069 	 -17.788 	 -122.954
| 26> C 	 41.7516 	 -16.7874 	 -123.949
| 27> C 	 42.9352 	 -16.1053 	 -123.728
| 28> H 	 40.6772 	 -18.491 	 -122.79
| 29> C 	 40.7138 	 -16.2668 	 -124.963
| 30> H 	 40.9057 	 -15.228 	 -125.201
| 31> H 	 39.762 	 -16.1264 	 -124.419
| 32> C 	 40.4606 	 -17.2921 	 -126.153
| 33> H 	 41.3112 	 -17.216 	 -126.879
| 34> H 	 39.6617 	 -16.8165 	 -126.623
| 35> C 	 40.3311 	 -18.7574 	 -125.831
| 36> H 	 39.7865 	 -19.2069 	 -126.607
| 37> H 	 39.769 	 -18.7594 	 -124.922
| 38> H 	 41.3548 	 -19.1773 	 -125.627
| 39> H 	 45.7416 	 -13.0065 	 -126.394
| 40> H 	 42.5903 	 -18.7638 	 -121.38
| 41> *
| 42>
| 43>                          ****END OF INPUT****

CARTESIAN COORDINATES (ANGSTROEM)
---------------------------------
  S     44.552900  -15.112800  -125.837000
  C     44.978900  -13.391100  -125.708000
  C     44.151800  -12.746700  -124.747000
  C     43.393500  -13.718300  -124.022000
  C     43.608200  -14.998400  -124.367000
  H     42.794900  -13.497400  -123.211000
  C     44.292100  -11.392700  -124.212000
  H     45.258000  -11.264600  -123.726000
  H     43.706300  -11.427000  -123.263000
  C     43.991800  -10.230900  -125.153000
  H     42.894100  -10.279400  -125.309000
  H     44.084400   -9.183730  -124.660000
  C     44.714000   -9.996330  -126.409000
  H     44.145000   -9.200840  -126.874000
  H     45.740500   -9.621530  -126.288000
  H     44.758300  -10.841900  -127.103000
  S     43.751400  -16.720000  -122.270000
  C     42.524100  -17.942400  -122.025000
  C     41.506900  -17.788000  -122.954000
  C     41.751600  -16.787400  -123.949000
  C     42.935200  -16.105300  -123.728000
  H     40.677200  -18.491000  -122.790000
  C     40.713800  -16.266800  -124.963000
  H     40.905700  -15.228000  -125.201000
  H     39.762000  -16.126400  -124.419000
  C     40.460600  -17.292100  -126.153000
  H     41.311200  -17.216000  -126.879000
  H     39.661700  -16.816500  -126.623000
  C     40.331100  -18.757400  -125.831000
  H     39.786500  -19.206900  -126.607000
  H     39.769000  -18.759400  -124.922000
  H     41.354800  -19.177300  -125.627000
  H     45.741600  -13.006500  -126.394000
  H     42.590300  -18.763800  -121.380000

 Total Charge           Charge          ....    0
 Multiplicity           Mult            ....    1
 Number of Electrons    NEL             ....  134
 Basis Dimension        Dim             ....  322

ORBITAL ENERGIES
----------------

  NO   OCC          E(Eh)            E(eV)
   0   2.0000     -88.965344     -2420.8701
   1   2.0000     -88.960150     -2420.7287
   2   2.0000     -10.323907      -280.9278
   3   2.0000     -10.322858      -280.8992
   4   2.0000     -10.321678      -280.8671
   5   2.0000     -10.312330      -280.6128
   6   2.0000     -10.305176      -280.4181
   7   2.0000     -10.303663      -280.3769
   8   2.0000     -10.295322      -280.1499
   9   2.0000     -10.293539      -280.1014
  10   2.0000     -10.291357      -280.0421
  11   2.0000     -10.289995      -280.0050
  12   2.0000     -10.284765      -279.8627
  13   2.0000     -10.280382      -279.7434
  14   2.0000     -10.276686      -279.6429
  15   2.0000     -10.272799      -279.5371
  16   2.0000      -8.079760      -219.8614
  17   2.0000      -8.074708      -219.7240
  18   2.0000      -6.038210      -164.3080
  19   2.0000      -6.034380      -164.2038
  20   2.0000      -6.033131      -164.1698
  21   2.0000      -6.030532      -164.0991
  22   2.0000      -6.029192      -164.0626
  23   2.0000      -6.025609      -163.9652
  24   2.0000      -1.005142       -27.3513
  25   2.0000      -0.980484       -26.6803
  26   2.0000      -0.917232       -24.9592
  27   2.0000      -0.902600       -24.5610
  28   2.0000      -0.870761       -23.6946
  29   2.0000      -0.858649       -23.3650
  30   2.0000      -0.845609       -23.0102
  31   2.0000      -0.815529       -22.1917
  32   2.0000      -0.786974       -21.4147
  33   2.0000      -0.774154       -21.0658
  34   2.0000      -0.704090       -19.1593
  35   2.0000      -0.696388       -18.9497
  36   2.0000      -0.689778       -18.7698
  37   2.0000      -0.658645       -17.9227
  38   2.0000      -0.650239       -17.6939
  39   2.0000      -0.618709       -16.8359
  40   2.0000      -0.591356       -16.0916
  41   2.0000      -0.574587       -15.6353
  42   2.0000      -0.553693       -15.0667
  43   2.0000      -0.548058       -14.9134
  44   2.0000      -0.545275       -14.8377
  45   2.0000      -0.541667       -14.7395
  46   2.0000      -0.520090       -14.1524
  47   2.0000      -0.515733       -14.0338
  48   2.0000      -0.507026       -13.7969
  49   2.0000      -0.496530       -13.5113
  50   2.0000      -0.491179       -13.3657
  51   2.0000      -0.479211       -13.0400
  52   2.0000      -0.476712       -12.9720
  53   2.0000      -0.466799       -12.7022
  54   2.0000      -0.453714       -12.3462
  55   2.0000      -0.449867       -12.2415
  56   2.0000      -0.445419       -12.1205
  57   2.0000      -0.436035       -11.8651
  58   2.0000      -0.431701       -11.7472
  59   2.0000      -0.414161       -11.2699
  60   2.0000      -0.410341       -11.1659
  61   2.0000      -0.405380       -11.0309
  62   2.0000      -0.402855       -10.9622
  63   2.0000      -0.336512        -9.1570
  64   2.0000      -0.327720        -8.9177
  65   2.0000      -0.319879        -8.7044
  66   2.0000      -0.306215        -8.3325
  67   0.0000       0.041584         1.1316
  68   0.0000       0.050132         1.3642
  69   0.0000       0.103276         2.8103
  70   0.0000       0.117263         3.1909
  71   0.0000       0.127393         3.4665

MULLIKEN ATOMIC CHARGES
-----------------------
   0 S :    0.113125
   1 C :   -0.148552
   2 C :   -0.041261
   3 C :    0.049887
   4 C :   -0.141350
   5 H :   -0.013549
   6 C :    0.063866
   7 H :    0.034427
   8 H :    0.016769
   9 C :   -0.104375
  10 H :    0.029524
  11 H :    0.031260
  12 C :   -0.029807
  13 H :    0.032083
  14 H :    0.031846
  15 H :    0.029151
  16 S :    0.096355
  17 C :   -0.080323
  18 C :   -0.070404
  19 C :    0.015356
  20 C :   -0.211789
  21 H :    0.033425
  22 C :    0.040678
  23 H :    0.025478
  24 H :    0.027946
  25 C :   -0.084917
  26 H :    0.029686
  27 H :    0.013621
  28 C :    0.002094
  29 H :    0.034851
  30 H :    0.009770
  31 H :    0.057269
  32 H :    0.067998
  33 H :    0.039864
Sum of atomic charges:   -0.0000000

LOEWDIN ATOMIC CHARGES
----------------------
   0 S :    0.395630
   1 C :   -0.181274
   2 C :   -0.060979
   3 C :   -0.049591
   4 C :   -0.202583
   5 H :    0.020920
   6 C :   -0.047766
   7 H :    0.035813
   8 H :    0.038897
   9 C :   -0.054418
  10 H :    0.026839
  11 H :    0.035812
  12 C :   -0.068071
  13 H :    0.033952
  14 H :    0.026176
  15 H :    0.019820
  16 S :    0.391702
  17 C :   -0.178831
  18 C :   -0.078112
  19 C :   -0.057714
  20 C :   -0.187519
  21 H :    0.035667
  22 C :   -0.030887
  23 H :    0.030903
  24 H :    0.032042
  25 C :   -0.037714
  26 H :    0.025614
  27 H :    0.012686
  28 C :   -0.058157
  29 H :    0.024895
  30 H :    0.018079
  31 H :    0.039808
  32 H :    0.028324
  33 H :    0.020037

  Mayer bond orders larger than 0.100000
B(  0-S ,  1-C ) :   1.1515 B(  0-S ,  4-C ) :   1.1319 B(  1-C ,  2-C ) :   1.5619
B(  1-C , 32-H ) :   0.9711 B(  2-C ,  3-C ) :   1.2352 B(  2-C ,  6-C ) :   1.0234
B(  3-C ,  4-C ) :   1.6041 B(  3-C ,  5-H ) :   1.0029 B(  4-C , 20-C ) :   1.0180
B(  6-C ,  7-H ) :   0.9352 B(  6-C ,  8-H ) :   0.9384 B(  6-C ,  9-C ) :   1.0578
B(  9-C , 10-H ) :   0.9556 B(  9-C , 11-H ) :   0.9512 B(  9-C , 12-C ) :   1.0938
B( 12-C , 13-H ) :   0.9663 B( 12-C , 14-H ) :   0.9711 B( 12-C , 15-H ) :   0.9670
B( 16-S , 17-C ) :   1.1522 B( 16-S , 20-C ) :   1.1421 B( 17-C , 18-C ) :   1.6346
B( 17-C , 20-C ) :   0.1038 B( 17-C , 33-H ) :   0.9719 B( 18-C , 19-C ) :   1.2038
B( 18-C , 21-H ) :   0.9847 B( 19-C , 20-C ) :   1.6160 B( 19-C , 22-C ) :   1.0285
B( 22-C , 23-H ) :   0.9421 B( 22-C , 24-H ) :   0.9438 B( 22-C , 25-C ) :   1.0506
B( 25-C , 26-H ) :   0.9552 B( 25-C , 27-H ) :   0.9595 B( 25-C , 28-C ) :   1.0832
B( 28-C , 29-H ) :   0.9675 B( 28-C , 30-H ) :   0.9733 B( 28-C , 31-H ) :   0.9660

Dispersion correction           -0.014646790
FINAL SINGLE POINT ENERGY     -1339.849097911134

DIPOLE MOMENT
-------------
                                X             Y             Z
Electronic contribution:     10.40832     -11.92535       9.88491
Nuclear contribution   :    -10.78018      12.26546      -9.90889
                        -----------------------------------------
Total Dipole Moment    :     -0.37185       0.34011      -0.02398
                        -----------------------------------------
Magnitude (a.u.)       :      0.50451
Magnitude (Debye)      :      1.28235

Rotational constants in cm-1:     0.023811     0.007371     0.006511
Rotational constants in MHz :   713.822285   220.979478   195.207093

                             ****ORCA TERMINATED NORMALLY****
TOTAL RUN TIME: 0 days 0 hours 0 minutes 20 seconds 295 msec
