                         Program Version 4.2.1 -  RELEASE  -
|  1> ! wB97X-D3 SP def2-SVP
|  2> %pal
|  3> nprocs 24
|  4> end
|  5>
|  6> * xyz 0 1
|  7> S 	 -56.056 	 16.17 	 -101.651
|  8> C 	 -55.1662 	 16.2594 	 -100.138
|  9> C 	 -55.3755 	 15.1675 	 -99.3432
| 10> C 	 -56.3281 	 14.1792 	 -99.8981
| 11> C 	 -56.7918 	 14.6085 	 -101.114
| 12> H 	 -56.7054 	 13.2355 	 -99.4875
| 13> C 	 -54.6055 	 14.8542 	 -98.0712
| 14> H 	 -53.8744 	 15.641 	 -97.9388
| 15> H 	 -54.129 	 13.8536 	 -98.2491
| 16> C 	 -55.5465 	 14.9871 	 -96.7696
| 17> H 	 -56.1904 	 15.8598 	 -96.7546
| 18> H 	 -56.2732 	 14.1999 	 -97.0014
| 19> C 	 -54.7736 	 14.8693 	 -95.4508
| 20> H 	 -54.9663 	 14.0354 	 -94.7729
| 21> H 	 -53.7319 	 14.8563 	 -95.685
| 22> H 	 -54.9295 	 15.7829 	 -94.8755
| 23> S 	 -56.735 	 12.9932 	 -103.397
| 24> C 	 -58.1734 	 12.1082 	 -103.989
| 25> C 	 -59.239 	 12.3029 	 -103.111
| 26> C 	 -58.89 	 13.2073 	 -102.039
| 27> C 	 -57.6022 	 13.7688 	 -102.087
| 28> H 	 -60.0963 	 11.722 	 -103.226
| 29> C 	 -59.9914 	 13.5856 	 -101.016
| 30> H 	 -59.57 	 13.921 	 -100.054
| 31> H 	 -60.5251 	 12.6722 	 -100.831
| 32> C 	 -60.8303 	 14.7561 	 -101.486
| 33> H 	 -60.2102 	 15.598 	 -101.79
| 34> H 	 -61.5188 	 15.0206 	 -100.746
| 35> C 	 -61.6687 	 14.3988 	 -102.793
| 36> H 	 -62.4947 	 15.1153 	 -102.898
| 37> H 	 -62.1449 	 13.3905 	 -102.856
| 38> H 	 -61.1473 	 14.4983 	 -103.729
| 39> H 	 -54.3477 	 16.8678 	 -99.9061
| 40> H 	 -58.3153 	 11.5147 	 -104.807
| 41> *
| 42>
| 43>                          ****END OF INPUT****

CARTESIAN COORDINATES (ANGSTROEM)
---------------------------------
  S    -56.056000   16.170000  -101.651000
  C    -55.166200   16.259400  -100.138000
  C    -55.375500   15.167500  -99.343200
  C    -56.328100   14.179200  -99.898100
  C    -56.791800   14.608500  -101.114000
  H    -56.705400   13.235500  -99.487500
  C    -54.605500   14.854200  -98.071200
  H    -53.874400   15.641000  -97.938800
  H    -54.129000   13.853600  -98.249100
  C    -55.546500   14.987100  -96.769600
  H    -56.190400   15.859800  -96.754600
  H    -56.273200   14.199900  -97.001400
  C    -54.773600   14.869300  -95.450800
  H    -54.966300   14.035400  -94.772900
  H    -53.731900   14.856300  -95.685000
  H    -54.929500   15.782900  -94.875500
  S    -56.735000   12.993200  -103.397000
  C    -58.173400   12.108200  -103.989000
  C    -59.239000   12.302900  -103.111000
  C    -58.890000   13.207300  -102.039000
  C    -57.602200   13.768800  -102.087000
  H    -60.096300   11.722000  -103.226000
  C    -59.991400   13.585600  -101.016000
  H    -59.570000   13.921000  -100.054000
  H    -60.525100   12.672200  -100.831000
  C    -60.830300   14.756100  -101.486000
  H    -60.210200   15.598000  -101.790000
  H    -61.518800   15.020600  -100.746000
  C    -61.668700   14.398800  -102.793000
  H    -62.494700   15.115300  -102.898000
  H    -62.144900   13.390500  -102.856000
  H    -61.147300   14.498300  -103.729000
  H    -54.347700   16.867800  -99.906100
  H    -58.315300   11.514700  -104.807000

 Total Charge           Charge          ....    0
 Multiplicity           Mult            ....    1
 Number of Electrons    NEL             ....  134
 Basis Dimension        Dim             ....  322

ORBITAL ENERGIES
----------------

  NO   OCC          E(Eh)            E(eV)
   0   2.0000     -88.967975     -2420.9417
   1   2.0000     -88.965214     -2420.8666
   2   2.0000     -10.340529      -281.3801
   3   2.0000     -10.332655      -281.1658
   4   2.0000     -10.316311      -280.7211
   5   2.0000     -10.311090      -280.5790
   6   2.0000     -10.307557      -280.4829
   7   2.0000     -10.305132      -280.4169
   8   2.0000     -10.303921      -280.3839
   9   2.0000     -10.300445      -280.2894
  10   2.0000     -10.293058      -280.0883
  11   2.0000     -10.291425      -280.0439
  12   2.0000     -10.287988      -279.9504
  13   2.0000     -10.282869      -279.8111
  14   2.0000     -10.277344      -279.6608
  15   2.0000     -10.274481      -279.5829
  16   2.0000      -8.081696      -219.9141
  17   2.0000      -8.078986      -219.8404
  18   2.0000      -6.040437      -164.3686
  19   2.0000      -6.037654      -164.2929
  20   2.0000      -6.036467      -164.2606
  21   2.0000      -6.033481      -164.1794
  22   2.0000      -6.032123      -164.1424
  23   2.0000      -6.029754      -164.0779
  24   2.0000      -0.996716       -27.1220
  25   2.0000      -0.977338       -26.5947
  26   2.0000      -0.903515       -24.5859
  27   2.0000      -0.901793       -24.5390
  28   2.0000      -0.867635       -23.6096
  29   2.0000      -0.846333       -23.0299
  30   2.0000      -0.834506       -22.7081
  31   2.0000      -0.820216       -22.3192
  32   2.0000      -0.777390       -21.1539
  33   2.0000      -0.769709       -20.9449
  34   2.0000      -0.710592       -19.3362
  35   2.0000      -0.701541       -19.0899
  36   2.0000      -0.690592       -18.7920
  37   2.0000      -0.664465       -18.0810
  38   2.0000      -0.643840       -17.5198
  39   2.0000      -0.616828       -16.7847
  40   2.0000      -0.588111       -16.0033
  41   2.0000      -0.570111       -15.5135
  42   2.0000      -0.557252       -15.1636
  43   2.0000      -0.550692       -14.9851
  44   2.0000      -0.536429       -14.5970
  45   2.0000      -0.525875       -14.3098
  46   2.0000      -0.516637       -14.0584
  47   2.0000      -0.510131       -13.8814
  48   2.0000      -0.504133       -13.7182
  49   2.0000      -0.500821       -13.6280
  50   2.0000      -0.483005       -13.1432
  51   2.0000      -0.478765       -13.0278
  52   2.0000      -0.471468       -12.8293
  53   2.0000      -0.464228       -12.6323
  54   2.0000      -0.457005       -12.4357
  55   2.0000      -0.451537       -12.2869
  56   2.0000      -0.437278       -11.8989
  57   2.0000      -0.436688       -11.8829
  58   2.0000      -0.435131       -11.8405
  59   2.0000      -0.425478       -11.5779
  60   2.0000      -0.414982       -11.2922
  61   2.0000      -0.409299       -11.1376
  62   2.0000      -0.406705       -11.0670
  63   2.0000      -0.343243        -9.3401
  64   2.0000      -0.327695        -8.9170
  65   2.0000      -0.323311        -8.7977
  66   2.0000      -0.306913        -8.3515
  67   0.0000       0.035338         0.9616
  68   0.0000       0.060489         1.6460
  69   0.0000       0.111598         3.0367
  70   0.0000       0.116707         3.1758
  71   0.0000       0.121480         3.3056

MULLIKEN ATOMIC CHARGES
-----------------------
   0 S :    0.099199
   1 C :   -0.067557
   2 C :   -0.133846
   3 C :    0.057409
   4 C :   -0.167136
   5 H :    0.034604
   6 C :    0.042729
   7 H :    0.012635
   8 H :    0.060952
   9 C :   -0.095262
  10 H :    0.035111
  11 H :    0.021588
  12 C :   -0.022208
  13 H :    0.043324
  14 H :    0.021805
  15 H :    0.031942
  16 S :    0.102829
  17 C :   -0.050775
  18 C :   -0.019071
  19 C :   -0.069777
  20 C :   -0.145328
  21 H :    0.004028
  22 C :    0.073606
  23 H :    0.020682
  24 H :    0.021298
  25 C :   -0.017687
  26 H :    0.040822
  27 H :    0.025389
  28 C :   -0.099684
  29 H :    0.026166
  30 H :    0.025540
  31 H :    0.037923
  32 H :    0.029069
  33 H :    0.019678
Sum of atomic charges:   -0.0000000

LOEWDIN ATOMIC CHARGES
----------------------
   0 S :    0.373970
   1 C :   -0.190603
   2 C :   -0.059153
   3 C :   -0.054113
   4 C :   -0.173424
   5 H :    0.040677
   6 C :   -0.030695
   7 H :    0.020669
   8 H :    0.041759
   9 C :   -0.042295
  10 H :    0.027145
  11 H :    0.021469
  12 C :   -0.070499
  13 H :    0.029830
  14 H :    0.023059
  15 H :    0.030615
  16 S :    0.396566
  17 C :   -0.159500
  18 C :   -0.060593
  19 C :   -0.052500
  20 C :   -0.208985
  21 H :    0.022868
  22 C :   -0.030699
  23 H :    0.029064
  24 H :    0.025163
  25 C :   -0.024844
  26 H :    0.033066
  27 H :    0.017254
  28 C :   -0.078926
  29 H :    0.024372
  30 H :    0.022348
  31 H :    0.022339
  32 H :    0.021533
  33 H :    0.013063

  Mayer bond orders larger than 0.100000
B(  0-S ,  1-C ) :   1.1044 B(  0-S ,  4-C ) :   1.1294 B(  1-C ,  2-C ) :   1.6971
B(  1-C , 32-H ) :   0.9608 B(  2-C ,  3-C ) :   1.1593 B(  2-C ,  6-C ) :   1.0309
B(  3-C ,  4-C ) :   1.6500 B(  3-C ,  5-H ) :   0.9864 B(  4-C , 20-C ) :   0.9863
B(  6-C ,  7-H ) :   0.9403 B(  6-C ,  8-H ) :   0.9454 B(  6-C ,  9-C ) :   1.0410
B(  9-C , 10-H ) :   0.9665 B(  9-C , 11-H ) :   0.9652 B(  9-C , 12-C ) :   1.0547
B( 12-C , 13-H ) :   0.9759 B( 12-C , 14-H ) :   0.9778 B( 12-C , 15-H ) :   0.9784
B( 16-S , 17-C ) :   1.1534 B( 16-S , 20-C ) :   1.1394 B( 17-C , 18-C ) :   1.6118
B( 17-C , 33-H ) :   0.9754 B( 18-C , 19-C ) :   1.2448 B( 18-C , 21-H ) :   0.9949
B( 19-C , 20-C ) :   1.6057 B( 19-C , 22-C ) :   1.0371 B( 22-C , 23-H ) :   0.9359
B( 22-C , 24-H ) :   0.9391 B( 22-C , 25-C ) :   1.0847 B( 25-C , 26-H ) :   0.9521
B( 25-C , 27-H ) :   0.9600 B( 25-C , 28-C ) :   1.0670 B( 28-C , 29-H ) :   0.9757
B( 28-C , 30-H ) :   0.9769 B( 28-C , 31-H ) :   0.9744

Dispersion correction           -0.014214912
FINAL SINGLE POINT ENERGY     -1339.854781343637

DIPOLE MOMENT
-------------
                                X             Y             Z
Electronic contribution:     10.04727      -0.30955     -20.20275
Nuclear contribution   :    -10.20872       0.03111      20.74280
                        -----------------------------------------
Total Dipole Moment    :     -0.16145      -0.27844       0.54005
                        -----------------------------------------
Magnitude (a.u.)       :      0.62869
Magnitude (Debye)      :      1.59800

Rotational constants in cm-1:     0.021074     0.007192     0.006486
Rotational constants in MHz :   631.773537   215.605860   194.432142

                             ****ORCA TERMINATED NORMALLY****
TOTAL RUN TIME: 0 days 0 hours 0 minutes 21 seconds 17 msec
