                         Program Version 4.2.1 -  RELEASE  -
|  1> ! wB97X-D3 SP def2-SVP
|  2> %pal
|  3> nprocs 24
|  4> end
|  5>
|  6> * xyz 0 1
|  7> S 	 -106.318 	 58.7018 	 -92.2094
|  8> C 	 -104.948 	 59.8086 	 -91.9094
|  9> C 	 -104.287 	 59.8965 	 -93.0865
| 10> C 	 -104.842 	 59.0643 	 -94.1527
| 11> C 	 -105.927 	 58.3618 	 -93.8237
| 12> H 	 -104.47 	 58.9074 	 -95.1823
| 13> C 	 -103.151 	 60.8803 	 -93.406
| 14> H 	 -103.03 	 60.7928 	 -94.5067
| 15> H 	 -102.242 	 60.3989 	 -92.974
| 16> C 	 -103.159 	 62.4115 	 -93.2179
| 17> H 	 -103.875 	 62.7245 	 -94.0212
| 18> H 	 -103.668 	 62.6679 	 -92.2234
| 19> C 	 -101.822 	 62.9987 	 -93.3068
| 20> H 	 -101.079 	 62.8355 	 -92.5384
| 21> H 	 -101.424 	 62.8207 	 -94.2963
| 22> H 	 -102.093 	 64.0441 	 -93.353
| 23> S 	 -106.874 	 55.9088 	 -94.4434
| 24> C 	 -108.25 	 55.7853 	 -95.5664
| 25> C 	 -108.476 	 56.9531 	 -96.1534
| 26> C 	 -107.832 	 58.0441 	 -95.5222
| 27> C 	 -106.852 	 57.6546 	 -94.6513
| 28> H 	 -109.165 	 57.102 	 -96.972
| 29> C 	 -107.974 	 59.4392 	 -96.0552
| 30> H 	 -107.446 	 60.1392 	 -95.4756
| 31> H 	 -108.934 	 59.7577 	 -96.0135
| 32> C 	 -107.633 	 59.7027 	 -97.5348
| 33> H 	 -108.302 	 59.0064 	 -97.9807
| 34> H 	 -106.612 	 59.3669 	 -97.7727
| 35> C 	 -107.804 	 61.0813 	 -98.1506
| 36> H 	 -108.882 	 61.4281 	 -98.1577
| 37> H 	 -107.331 	 61.1607 	 -99.1764
| 38> H 	 -107.194 	 61.8471 	 -97.7266
| 39> H 	 -104.648 	 60.448 	 -91.0426
| 40> H 	 -108.733 	 54.8373 	 -95.8709
| 41> *
| 42>
| 43>                          ****END OF INPUT****

CARTESIAN COORDINATES (ANGSTROEM)
---------------------------------
  S    -106.318000   58.701800  -92.209400
  C    -104.948000   59.808600  -91.909400
  C    -104.287000   59.896500  -93.086500
  C    -104.842000   59.064300  -94.152700
  C    -105.927000   58.361800  -93.823700
  H    -104.470000   58.907400  -95.182300
  C    -103.151000   60.880300  -93.406000
  H    -103.030000   60.792800  -94.506700
  H    -102.242000   60.398900  -92.974000
  C    -103.159000   62.411500  -93.217900
  H    -103.875000   62.724500  -94.021200
  H    -103.668000   62.667900  -92.223400
  C    -101.822000   62.998700  -93.306800
  H    -101.079000   62.835500  -92.538400
  H    -101.424000   62.820700  -94.296300
  H    -102.093000   64.044100  -93.353000
  S    -106.874000   55.908800  -94.443400
  C    -108.250000   55.785300  -95.566400
  C    -108.476000   56.953100  -96.153400
  C    -107.832000   58.044100  -95.522200
  C    -106.852000   57.654600  -94.651300
  H    -109.165000   57.102000  -96.972000
  C    -107.974000   59.439200  -96.055200
  H    -107.446000   60.139200  -95.475600
  H    -108.934000   59.757700  -96.013500
  C    -107.633000   59.702700  -97.534800
  H    -108.302000   59.006400  -97.980700
  H    -106.612000   59.366900  -97.772700
  C    -107.804000   61.081300  -98.150600
  H    -108.882000   61.428100  -98.157700
  H    -107.331000   61.160700  -99.176400
  H    -107.194000   61.847100  -97.726600
  H    -104.648000   60.448000  -91.042600
  H    -108.733000   54.837300  -95.870900

 Total Charge           Charge          ....    0
 Multiplicity           Mult            ....    1
 Number of Electrons    NEL             ....  134
 Basis Dimension        Dim             ....  322

ORBITAL ENERGIES
----------------

  NO   OCC          E(Eh)            E(eV)
   0   2.0000     -88.962330     -2420.7881
   1   2.0000     -88.957769     -2420.6640
   2   2.0000     -10.324577      -280.9460
   3   2.0000     -10.318499      -280.7806
   4   2.0000     -10.318130      -280.7706
   5   2.0000     -10.316575      -280.7283
   6   2.0000     -10.301155      -280.3087
   7   2.0000     -10.300979      -280.3039
   8   2.0000     -10.296029      -280.1692
   9   2.0000     -10.291428      -280.0440
  10   2.0000     -10.290824      -280.0275
  11   2.0000     -10.288944      -279.9764
  12   2.0000     -10.286878      -279.9202
  13   2.0000     -10.284750      -279.8623
  14   2.0000     -10.276551      -279.6392
  15   2.0000     -10.275504      -279.6107
  16   2.0000      -8.077032      -219.7872
  17   2.0000      -8.073299      -219.6856
  18   2.0000      -6.035627      -164.2378
  19   2.0000      -6.031983      -164.1386
  20   2.0000      -6.031630      -164.1290
  21   2.0000      -6.027597      -164.0193
  22   2.0000      -6.027547      -164.0179
  23   2.0000      -6.023874      -163.9179
  24   2.0000      -1.016079       -27.6489
  25   2.0000      -0.990496       -26.9528
  26   2.0000      -0.916636       -24.9429
  27   2.0000      -0.912708       -24.8361
  28   2.0000      -0.883183       -24.0326
  29   2.0000      -0.850799       -23.1514
  30   2.0000      -0.845534       -23.0081
  31   2.0000      -0.822920       -22.3928
  32   2.0000      -0.786334       -21.3972
  33   2.0000      -0.776829       -21.1386
  34   2.0000      -0.708609       -19.2822
  35   2.0000      -0.700522       -19.0622
  36   2.0000      -0.697473       -18.9792
  37   2.0000      -0.664206       -18.0740
  38   2.0000      -0.638452       -17.3732
  39   2.0000      -0.611513       -16.6401
  40   2.0000      -0.602490       -16.3946
  41   2.0000      -0.576262       -15.6809
  42   2.0000      -0.571672       -15.5560
  43   2.0000      -0.563664       -15.3381
  44   2.0000      -0.528713       -14.3870
  45   2.0000      -0.525551       -14.3010
  46   2.0000      -0.520516       -14.1640
  47   2.0000      -0.512728       -13.9520
  48   2.0000      -0.509627       -13.8676
  49   2.0000      -0.504154       -13.7187
  50   2.0000      -0.500862       -13.6292
  51   2.0000      -0.488214       -13.2850
  52   2.0000      -0.472916       -12.8687
  53   2.0000      -0.467078       -12.7098
  54   2.0000      -0.464826       -12.6486
  55   2.0000      -0.456607       -12.4249
  56   2.0000      -0.441889       -12.0244
  57   2.0000      -0.431268       -11.7354
  58   2.0000      -0.426299       -11.6002
  59   2.0000      -0.420488       -11.4421
  60   2.0000      -0.412094       -11.2136
  61   2.0000      -0.410120       -11.1599
  62   2.0000      -0.401197       -10.9171
  63   2.0000      -0.337699        -9.1893
  64   2.0000      -0.330036        -8.9807
  65   2.0000      -0.324691        -8.8353
  66   2.0000      -0.314273        -8.5518
  67   0.0000       0.046087         1.2541
  68   0.0000       0.060261         1.6398
  69   0.0000       0.111308         3.0288
  70   0.0000       0.121589         3.3086
  71   0.0000       0.130792         3.5590

MULLIKEN ATOMIC CHARGES
-----------------------
   0 S :    0.101235
   1 C :   -0.126930
   2 C :   -0.088502
   3 C :    0.011562
   4 C :   -0.120293
   5 H :    0.018869
   6 C :    0.012765
   7 H :    0.016437
   8 H :    0.040898
   9 C :   -0.092261
  10 H :    0.042300
  11 H :    0.030128
  12 C :   -0.012406
  13 H :    0.048604
  14 H :    0.021605
  15 H :    0.027668
  16 S :    0.096986
  17 C :   -0.086765
  18 C :   -0.028570
  19 C :   -0.003690
  20 C :   -0.199446
  21 H :    0.021869
  22 C :    0.151028
  23 H :    0.004014
  24 H :   -0.016196
  25 C :   -0.079723
  26 H :    0.008933
  27 H :    0.024190
  28 C :   -0.060211
  29 H :    0.045213
  30 H :    0.038588
  31 H :    0.021133
  32 H :    0.064941
  33 H :    0.066029
Sum of atomic charges:   -0.0000000

LOEWDIN ATOMIC CHARGES
----------------------
   0 S :    0.411998
   1 C :   -0.196172
   2 C :   -0.070791
   3 C :   -0.071648
   4 C :   -0.218711
   5 H :    0.036579
   6 C :   -0.050466
   7 H :    0.029188
   8 H :    0.033142
   9 C :   -0.047347
  10 H :    0.033564
  11 H :    0.023564
  12 C :   -0.064362
  13 H :    0.029637
  14 H :    0.026322
  15 H :    0.034392
  16 S :    0.387427
  17 C :   -0.168130
  18 C :   -0.071289
  19 C :   -0.046664
  20 C :   -0.192159
  21 H :    0.032013
  22 C :   -0.021436
  23 H :    0.021877
  24 H :    0.017024
  25 C :   -0.038191
  26 H :    0.015707
  27 H :    0.023293
  28 C :   -0.075439
  29 H :    0.031825
  30 H :    0.039692
  31 H :    0.020341
  32 H :    0.047503
  33 H :    0.037717

  Mayer bond orders larger than 0.100000
B(  0-S ,  1-C ) :   1.1120 B(  0-S ,  4-C ) :   1.1516 B(  1-C ,  2-C ) :   1.6518
B(  1-C , 32-H ) :   0.9682 B(  2-C ,  3-C ) :   1.2046 B(  2-C ,  6-C ) :   1.0042
B(  3-C ,  4-C ) :   1.6297 B(  3-C ,  5-H ) :   0.9934 B(  4-C , 20-C ) :   0.9915
B(  6-C ,  7-H ) :   0.9506 B(  6-C ,  8-H ) :   0.9401 B(  6-C ,  9-C ) :   1.0451
B(  9-C , 10-H ) :   0.9579 B(  9-C , 11-H ) :   0.9543 B(  9-C , 12-C ) :   1.0831
B( 12-C , 13-H ) :   0.9739 B( 12-C , 14-H ) :   0.9683 B( 12-C , 15-H ) :   0.9652
B( 16-S , 17-C ) :   1.1352 B( 16-S , 20-C ) :   1.1343 B( 17-C , 18-C ) :   1.6483
B( 17-C , 33-H ) :   0.9615 B( 18-C , 19-C ) :   1.2071 B( 18-C , 21-H ) :   0.9843
B( 19-C , 20-C ) :   1.6376 B( 19-C , 22-C ) :   1.0711 B( 22-C , 23-H ) :   0.9299
B( 22-C , 24-H ) :   0.9102 B( 22-C , 25-C ) :   1.0513 B( 25-C , 26-H ) :   0.9524
B( 25-C , 27-H ) :   0.9555 B( 25-C , 28-C ) :   1.0946 B( 28-C , 29-H ) :   0.9723
B( 28-C , 30-H ) :   0.9688 B( 28-C , 31-H ) :   0.9712

Dispersion correction           -0.013652475
FINAL SINGLE POINT ENERGY     -1339.842715830982

DIPOLE MOMENT
-------------
                                X             Y             Z
Electronic contribution:     -9.33941     -26.46493      14.12427
Nuclear contribution   :      9.48336      27.11190     -14.70350
                        -----------------------------------------
Total Dipole Moment    :      0.14394       0.64697      -0.57923
                        -----------------------------------------
Magnitude (a.u.)       :      0.88022
Magnitude (Debye)      :      2.23735

Rotational constants in cm-1:     0.018301     0.008236     0.006213
Rotational constants in MHz :   548.654143   246.904692   186.249435

                             ****ORCA TERMINATED NORMALLY****
TOTAL RUN TIME: 0 days 0 hours 0 minutes 21 seconds 183 msec
