                         Program Version 4.2.1 -  RELEASE  -
|  1> ! wB97X-D3 SP def2-SVP
|  2> %pal
|  3> nprocs 24
|  4> end
|  5>
|  6> * xyz 0 1
|  7> S 	 -57.0263 	 4.22281 	 -24.2427
|  8> C 	 -56.9295 	 2.74549 	 -23.2527
|  9> C 	 -56.1909 	 3.00653 	 -22.086
| 10> C 	 -55.7628 	 4.34686 	 -21.9245
| 11> C 	 -56.1166 	 5.12918 	 -23.016
| 12> H 	 -55.1298 	 4.80823 	 -21.2512
| 13> C 	 -55.8869 	 1.89581 	 -21.0982
| 14> H 	 -56.5169 	 1.01448 	 -21.3821
| 15> H 	 -56.2492 	 2.31048 	 -20.1441
| 16> C 	 -54.4293 	 1.4086 	 -21.1239
| 17> H 	 -54.1721 	 1.31907 	 -22.1994
| 18> H 	 -53.8715 	 2.22976 	 -20.6248
| 19> C 	 -54.2506 	 0.0144596 	 -20.3469
| 20> H 	 -54.5327 	 0.00965663 	 -19.299
| 21> H 	 -54.8157 	 -0.683827 	 -20.9408
| 22> H 	 -53.2945 	 -0.424715 	 -20.3677
| 23> S 	 -53.7033 	 6.47322 	 -23.3072
| 24> C 	 -53.6467 	 8.16928 	 -23.699
| 25> C 	 -54.9338 	 8.63844 	 -23.9306
| 26> C 	 -55.99 	 7.69054 	 -23.6966
| 27> C 	 -55.47 	 6.42424 	 -23.2531
| 28> H 	 -55.0081 	 9.658 	 -24.1981
| 29> C 	 -57.4414 	 8.0972 	 -23.8556
| 30> H 	 -58.0712 	 7.30077 	 -23.6146
| 31> H 	 -57.6135 	 8.34421 	 -24.8685
| 32> C 	 -57.7581 	 9.40792 	 -23.0176
| 33> H 	 -57.3186 	 10.3435 	 -23.3963
| 34> H 	 -57.4077 	 9.30331 	 -21.9768
| 35> C 	 -59.253 	 9.71241 	 -22.8663
| 36> H 	 -59.7845 	 9.95897 	 -23.7782
| 37> H 	 -59.5097 	 10.5951 	 -22.2026
| 38> H 	 -59.7053 	 8.86624 	 -22.4001
| 39> H 	 -57.4393 	 1.81251 	 -23.5148
| 40> H 	 -52.8018 	 8.7832 	 -23.9055
| 41> *
| 42>
| 43>                          ****END OF INPUT****

CARTESIAN COORDINATES (ANGSTROEM)
---------------------------------
  S    -57.026300    4.222810  -24.242700
  C    -56.929500    2.745490  -23.252700
  C    -56.190900    3.006530  -22.086000
  C    -55.762800    4.346860  -21.924500
  C    -56.116600    5.129180  -23.016000
  H    -55.129800    4.808230  -21.251200
  C    -55.886900    1.895810  -21.098200
  H    -56.516900    1.014480  -21.382100
  H    -56.249200    2.310480  -20.144100
  C    -54.429300    1.408600  -21.123900
  H    -54.172100    1.319070  -22.199400
  H    -53.871500    2.229760  -20.624800
  C    -54.250600    0.014460  -20.346900
  H    -54.532700    0.009657  -19.299000
  H    -54.815700   -0.683827  -20.940800
  H    -53.294500   -0.424715  -20.367700
  S    -53.703300    6.473220  -23.307200
  C    -53.646700    8.169280  -23.699000
  C    -54.933800    8.638440  -23.930600
  C    -55.990000    7.690540  -23.696600
  C    -55.470000    6.424240  -23.253100
  H    -55.008100    9.658000  -24.198100
  C    -57.441400    8.097200  -23.855600
  H    -58.071200    7.300770  -23.614600
  H    -57.613500    8.344210  -24.868500
  C    -57.758100    9.407920  -23.017600
  H    -57.318600   10.343500  -23.396300
  H    -57.407700    9.303310  -21.976800
  C    -59.253000    9.712410  -22.866300
  H    -59.784500    9.958970  -23.778200
  H    -59.509700   10.595100  -22.202600
  H    -59.705300    8.866240  -22.400100
  H    -57.439300    1.812510  -23.514800
  H    -52.801800    8.783200  -23.905500

 Total Charge           Charge          ....    0
 Multiplicity           Mult            ....    1
 Number of Electrons    NEL             ....  134
 Basis Dimension        Dim             ....  322

ORBITAL ENERGIES
----------------

  NO   OCC          E(Eh)            E(eV)
   0   2.0000     -88.968897     -2420.9668
   1   2.0000     -88.967381     -2420.9255
   2   2.0000     -10.331975      -281.1473
   3   2.0000     -10.331565      -281.1362
   4   2.0000     -10.320819      -280.8438
   5   2.0000     -10.315737      -280.7055
   6   2.0000     -10.310098      -280.5520
   7   2.0000     -10.304881      -280.4101
   8   2.0000     -10.296133      -280.1720
   9   2.0000     -10.292543      -280.0743
  10   2.0000     -10.290819      -280.0274
  11   2.0000     -10.290670      -280.0234
  12   2.0000     -10.290574      -280.0208
  13   2.0000     -10.289429      -279.9896
  14   2.0000     -10.278047      -279.6799
  15   2.0000     -10.275392      -279.6076
  16   2.0000      -8.082407      -219.9335
  17   2.0000      -8.081442      -219.9072
  18   2.0000      -6.040931      -164.3821
  19   2.0000      -6.039969      -164.3559
  20   2.0000      -6.037084      -164.2774
  21   2.0000      -6.035937      -164.2462
  22   2.0000      -6.033223      -164.1723
  23   2.0000      -6.032324      -164.1479
  24   2.0000      -0.999864       -27.2077
  25   2.0000      -0.977785       -26.6069
  26   2.0000      -0.905144       -24.6302
  27   2.0000      -0.904085       -24.6014
  28   2.0000      -0.866545       -23.5799
  29   2.0000      -0.848762       -23.0960
  30   2.0000      -0.843929       -22.9645
  31   2.0000      -0.814085       -22.1524
  32   2.0000      -0.782281       -21.2869
  33   2.0000      -0.767693       -20.8900
  34   2.0000      -0.705618       -19.2008
  35   2.0000      -0.700543       -19.0628
  36   2.0000      -0.694050       -18.8861
  37   2.0000      -0.659470       -17.9451
  38   2.0000      -0.642190       -17.4749
  39   2.0000      -0.615201       -16.7405
  40   2.0000      -0.593255       -16.1433
  41   2.0000      -0.569950       -15.5091
  42   2.0000      -0.567154       -15.4330
  43   2.0000      -0.559150       -15.2152
  44   2.0000      -0.526741       -14.3334
  45   2.0000      -0.518897       -14.1199
  46   2.0000      -0.515020       -14.0144
  47   2.0000      -0.509745       -13.8709
  48   2.0000      -0.504532       -13.7290
  49   2.0000      -0.502257       -13.6671
  50   2.0000      -0.487707       -13.2712
  51   2.0000      -0.481192       -13.0939
  52   2.0000      -0.471026       -12.8173
  53   2.0000      -0.465434       -12.6651
  54   2.0000      -0.456726       -12.4281
  55   2.0000      -0.447979       -12.1901
  56   2.0000      -0.444187       -12.0869
  57   2.0000      -0.439099       -11.9485
  58   2.0000      -0.427456       -11.6317
  59   2.0000      -0.421997       -11.4831
  60   2.0000      -0.420816       -11.4510
  61   2.0000      -0.417731       -11.3670
  62   2.0000      -0.413434       -11.2501
  63   2.0000      -0.339462        -9.2372
  64   2.0000      -0.335251        -9.1226
  65   2.0000      -0.325636        -8.8610
  66   2.0000      -0.293928        -7.9982
  67   0.0000       0.026580         0.7233
  68   0.0000       0.062327         1.6960
  69   0.0000       0.109530         2.9805
  70   0.0000       0.114761         3.1228
  71   0.0000       0.129216         3.5162

MULLIKEN ATOMIC CHARGES
-----------------------
   0 S :    0.108184
   1 C :   -0.135699
   2 C :   -0.084989
   3 C :    0.045734
   4 C :   -0.129559
   5 H :   -0.009148
   6 C :    0.046509
   7 H :    0.013525
   8 H :    0.038291
   9 C :   -0.088883
  10 H :    0.046522
  11 H :    0.039189
  12 C :   -0.028900
  13 H :    0.039057
  14 H :    0.021189
  15 H :    0.023569
  16 S :    0.113158
  17 C :   -0.084622
  18 C :   -0.035174
  19 C :   -0.047553
  20 C :   -0.179967
  21 H :    0.005919
  22 C :    0.156164
  23 H :    0.002647
  24 H :    0.025823
  25 C :   -0.114169
  26 H :    0.034997
  27 H :    0.040756
  28 C :   -0.063402
  29 H :    0.026030
  30 H :    0.036528
  31 H :    0.025869
  32 H :    0.062290
  33 H :    0.050113
Sum of atomic charges:    0.0000000

LOEWDIN ATOMIC CHARGES
----------------------
   0 S :    0.385973
   1 C :   -0.195196
   2 C :   -0.058522
   3 C :   -0.055244
   4 C :   -0.184583
   5 H :    0.020643
   6 C :   -0.037236
   7 H :    0.027593
   8 H :    0.031518
   9 C :   -0.037148
  10 H :    0.031774
  11 H :    0.025024
  12 C :   -0.064774
  13 H :    0.027807
  14 H :    0.023740
  15 H :    0.020577
  16 S :    0.413063
  17 C :   -0.187885
  18 C :   -0.067894
  19 C :   -0.046229
  20 C :   -0.204481
  21 H :    0.023804
  22 C :   -0.017696
  23 H :    0.020002
  24 H :    0.031641
  25 C :   -0.039795
  26 H :    0.023498
  27 H :    0.029207
  28 C :   -0.072700
  29 H :    0.019518
  30 H :    0.033075
  31 H :    0.019431
  32 H :    0.032935
  33 H :    0.028558

  Mayer bond orders larger than 0.100000
B(  0-S ,  1-C ) :   1.1291 B(  0-S ,  4-C ) :   1.1457 B(  1-C ,  2-C ) :   1.5960
B(  1-C , 32-H ) :   0.9677 B(  2-C ,  3-C ) :   1.2183 B(  2-C ,  6-C ) :   1.0276
B(  3-C ,  4-C ) :   1.5473 B(  3-C ,  5-H ) :   1.0141 B(  4-C , 20-C ) :   1.0623
B(  6-C ,  7-H ) :   0.9438 B(  6-C ,  8-H ) :   0.9395 B(  6-C ,  9-C ) :   1.0462
B(  9-C , 10-H ) :   0.9585 B(  9-C , 11-H ) :   0.9585 B(  9-C , 12-C ) :   1.0698
B( 12-C , 13-H ) :   0.9779 B( 12-C , 14-H ) :   0.9747 B( 12-C , 15-H ) :   0.9775
B( 16-S , 17-C ) :   1.1599 B( 16-S , 20-C ) :   1.1397 B( 17-C , 18-C ) :   1.6035
B( 17-C , 33-H ) :   0.9690 B( 18-C , 19-C ) :   1.2489 B( 18-C , 21-H ) :   0.9940
B( 19-C , 20-C ) :   1.5381 B( 19-C , 22-C ) :   1.0635 B( 22-C , 23-H ) :   0.9323
B( 22-C , 24-H ) :   0.9239 B( 22-C , 25-C ) :   1.0478 B( 25-C , 26-H ) :   0.9547
B( 25-C , 27-H ) :   0.9618 B( 25-C , 28-C ) :   1.0887 B( 28-C , 29-H ) :   0.9748
B( 28-C , 30-H ) :   0.9743 B( 28-C , 31-H ) :   0.9759

Dispersion correction           -0.013519482
FINAL SINGLE POINT ENERGY     -1339.870484429524

DIPOLE MOMENT
-------------
                                X             Y             Z
Electronic contribution:      7.25667       2.14031     -11.47631
Nuclear contribution   :     -7.28875      -2.08750      11.61293
                        -----------------------------------------
Total Dipole Moment    :     -0.03209       0.05280       0.13662
                        -----------------------------------------
Magnitude (a.u.)       :      0.14994
Magnitude (Debye)      :      0.38112

Rotational constants in cm-1:     0.022434     0.006901     0.005959
Rotational constants in MHz :   672.541828   206.898505   178.640440

                             ****ORCA TERMINATED NORMALLY****
TOTAL RUN TIME: 0 days 0 hours 0 minutes 19 seconds 535 msec
