                         Program Version 4.2.1 -  RELEASE  -
|  1> ! wB97X-D3 SP def2-SVP
|  2> %pal
|  3> nprocs 24
|  4> end
|  5>
|  6> * xyz 0 1
|  7> S 	 -42.3901 	 -2.76791 	 -10.1614
|  8> C 	 -42.7463 	 -2.06967 	 -8.59013
|  9> C 	 -44.0851 	 -2.34454 	 -8.1982
| 10> C 	 -44.6804 	 -3.24831 	 -9.14452
| 11> C 	 -43.8547 	 -3.74199 	 -10.1947
| 12> H 	 -45.6687 	 -3.55543 	 -9.02493
| 13> C 	 -44.8292 	 -1.70367 	 -7.03282
| 14> H 	 -45.8877 	 -1.72034 	 -7.23716
| 15> H 	 -44.4208 	 -0.638805 	 -6.98401
| 16> C 	 -44.7108 	 -2.31294 	 -5.6496
| 17> H 	 -44.7066 	 -3.34979 	 -5.83496
| 18> H 	 -43.8548 	 -1.95526 	 -5.1595
| 19> C 	 -45.8841 	 -2.03804 	 -4.67928
| 20> H 	 -46.0187 	 -0.922199 	 -4.53654
| 21> H 	 -46.8046 	 -2.42977 	 -5.00529
| 22> H 	 -45.6868 	 -2.46568 	 -3.77899
| 23> S 	 -43.6583 	 -4.34848 	 -12.7565
| 24> C 	 -43.9457 	 -5.96857 	 -13.2627
| 25> C 	 -44.398 	 -6.82354 	 -12.2186
| 26> C 	 -44.5222 	 -6.09807 	 -10.9581
| 27> C 	 -43.9969 	 -4.82418 	 -11.1052
| 28> H 	 -44.4123 	 -7.87529 	 -12.2949
| 29> C 	 -44.9414 	 -6.79184 	 -9.72193
| 30> H 	 -45.797 	 -7.39502 	 -9.95506
| 31> H 	 -45.4447 	 -6.08127 	 -8.96554
| 32> C 	 -43.8495 	 -7.57029 	 -8.99075
| 33> H 	 -43.1531 	 -6.78217 	 -8.7777
| 34> H 	 -43.2735 	 -8.1719 	 -9.75749
| 35> C 	 -44.1666 	 -8.28086 	 -7.65714
| 36> H 	 -43.4017 	 -8.97373 	 -7.24703
| 37> H 	 -45.0473 	 -8.95667 	 -7.7619
| 38> H 	 -44.3522 	 -7.54605 	 -6.88055
| 39> H 	 -42.0159 	 -1.34941 	 -8.16955
| 40> H 	 -43.751 	 -6.43486 	 -14.248
| 41> *
| 42>
| 43>                          ****END OF INPUT****

CARTESIAN COORDINATES (ANGSTROEM)
---------------------------------
  S    -42.390100   -2.767910  -10.161400
  C    -42.746300   -2.069670   -8.590130
  C    -44.085100   -2.344540   -8.198200
  C    -44.680400   -3.248310   -9.144520
  C    -43.854700   -3.741990  -10.194700
  H    -45.668700   -3.555430   -9.024930
  C    -44.829200   -1.703670   -7.032820
  H    -45.887700   -1.720340   -7.237160
  H    -44.420800   -0.638805   -6.984010
  C    -44.710800   -2.312940   -5.649600
  H    -44.706600   -3.349790   -5.834960
  H    -43.854800   -1.955260   -5.159500
  C    -45.884100   -2.038040   -4.679280
  H    -46.018700   -0.922199   -4.536540
  H    -46.804600   -2.429770   -5.005290
  H    -45.686800   -2.465680   -3.778990
  S    -43.658300   -4.348480  -12.756500
  C    -43.945700   -5.968570  -13.262700
  C    -44.398000   -6.823540  -12.218600
  C    -44.522200   -6.098070  -10.958100
  C    -43.996900   -4.824180  -11.105200
  H    -44.412300   -7.875290  -12.294900
  C    -44.941400   -6.791840   -9.721930
  H    -45.797000   -7.395020   -9.955060
  H    -45.444700   -6.081270   -8.965540
  C    -43.849500   -7.570290   -8.990750
  H    -43.153100   -6.782170   -8.777700
  H    -43.273500   -8.171900   -9.757490
  C    -44.166600   -8.280860   -7.657140
  H    -43.401700   -8.973730   -7.247030
  H    -45.047300   -8.956670   -7.761900
  H    -44.352200   -7.546050   -6.880550
  H    -42.015900   -1.349410   -8.169550
  H    -43.751000   -6.434860  -14.248000

 Total Charge           Charge          ....    0
 Multiplicity           Mult            ....    1
 Number of Electrons    NEL             ....  134
 Basis Dimension        Dim             ....  322

ORBITAL ENERGIES
----------------

  NO   OCC          E(Eh)            E(eV)
   0   2.0000     -88.970765     -2421.0176
   1   2.0000     -88.964197     -2420.8389
   2   2.0000     -10.330700      -281.1126
   3   2.0000     -10.326467      -280.9974
   4   2.0000     -10.321841      -280.8716
   5   2.0000     -10.321537      -280.8633
   6   2.0000     -10.309030      -280.5230
   7   2.0000     -10.307423      -280.4792
   8   2.0000     -10.297600      -280.2119
   9   2.0000     -10.296108      -280.1713
  10   2.0000     -10.294966      -280.1403
  11   2.0000     -10.294201      -280.1194
  12   2.0000     -10.288405      -279.9617
  13   2.0000     -10.285805      -279.8910
  14   2.0000     -10.277777      -279.6725
  15   2.0000     -10.273024      -279.5432
  16   2.0000      -8.085897      -220.0285
  17   2.0000      -8.078838      -219.8364
  18   2.0000      -6.044429      -164.4773
  19   2.0000      -6.040403      -164.3677
  20   2.0000      -6.037297      -164.2832
  21   2.0000      -6.036550      -164.2629
  22   2.0000      -6.033238      -164.1728
  23   2.0000      -6.029776      -164.0785
  24   2.0000      -1.007201       -27.4073
  25   2.0000      -0.978254       -26.6196
  26   2.0000      -0.914794       -24.8928
  27   2.0000      -0.911312       -24.7981
  28   2.0000      -0.869913       -23.6715
  29   2.0000      -0.853274       -23.2188
  30   2.0000      -0.845258       -23.0006
  31   2.0000      -0.808993       -22.0138
  32   2.0000      -0.787104       -21.4182
  33   2.0000      -0.772527       -21.0215
  34   2.0000      -0.708633       -19.2829
  35   2.0000      -0.701897       -19.0996
  36   2.0000      -0.691111       -18.8061
  37   2.0000      -0.668585       -18.1931
  38   2.0000      -0.640605       -17.4317
  39   2.0000      -0.620414       -16.8823
  40   2.0000      -0.597031       -16.2460
  41   2.0000      -0.579245       -15.7621
  42   2.0000      -0.563898       -15.3444
  43   2.0000      -0.555736       -15.1224
  44   2.0000      -0.528535       -14.3822
  45   2.0000      -0.520513       -14.1639
  46   2.0000      -0.517161       -14.0727
  47   2.0000      -0.509542       -13.8653
  48   2.0000      -0.507539       -13.8108
  49   2.0000      -0.496277       -13.5044
  50   2.0000      -0.491096       -13.3634
  51   2.0000      -0.487478       -13.2649
  52   2.0000      -0.472140       -12.8476
  53   2.0000      -0.469096       -12.7648
  54   2.0000      -0.454995       -12.3810
  55   2.0000      -0.451164       -12.2768
  56   2.0000      -0.447690       -12.1823
  57   2.0000      -0.438576       -11.9343
  58   2.0000      -0.434973       -11.8362
  59   2.0000      -0.427087       -11.6216
  60   2.0000      -0.425258       -11.5718
  61   2.0000      -0.413014       -11.2387
  62   2.0000      -0.405126       -11.0240
  63   2.0000      -0.345037        -9.3889
  64   2.0000      -0.333186        -9.0665
  65   2.0000      -0.328099        -8.9280
  66   2.0000      -0.283172        -7.7055
  67   0.0000       0.020102         0.5470
  68   0.0000       0.064367         1.7515
  69   0.0000       0.100412         2.7324
  70   0.0000       0.115800         3.1511
  71   0.0000       0.123497         3.3605

MULLIKEN ATOMIC CHARGES
-----------------------
   0 S :    0.100136
   1 C :   -0.142981
   2 C :   -0.091429
   3 C :    0.050463
   4 C :   -0.153983
   5 H :   -0.013308
   6 C :    0.047406
   7 H :    0.016825
   8 H :    0.040562
   9 C :   -0.033232
  10 H :    0.017861
  11 H :    0.020338
  12 C :   -0.023046
  13 H :    0.032625
  14 H :    0.016087
  15 H :    0.014447
  16 S :    0.124214
  17 C :   -0.088297
  18 C :   -0.041149
  19 C :   -0.038639
  20 C :   -0.143869
  21 H :    0.014545
  22 C :    0.051617
  23 H :    0.014398
  24 H :    0.020790
  25 C :   -0.067522
  26 H :    0.027638
  27 H :    0.027632
  28 C :   -0.044148
  29 H :    0.042719
  30 H :    0.030740
  31 H :    0.036708
  32 H :    0.067708
  33 H :    0.066145
Sum of atomic charges:   -0.0000000

LOEWDIN ATOMIC CHARGES
----------------------
   0 S :    0.402580
   1 C :   -0.200756
   2 C :   -0.063258
   3 C :   -0.058459
   4 C :   -0.201016
   5 H :    0.015425
   6 C :   -0.033873
   7 H :    0.028965
   8 H :    0.040244
   9 C :   -0.031516
  10 H :    0.019663
  11 H :    0.017950
  12 C :   -0.051697
  13 H :    0.031501
  14 H :    0.015876
  15 H :    0.013973
  16 S :    0.424668
  17 C :   -0.201388
  18 C :   -0.059973
  19 C :   -0.048711
  20 C :   -0.196806
  21 H :    0.024037
  22 C :   -0.041566
  23 H :    0.025276
  24 H :    0.036379
  25 C :   -0.047627
  26 H :    0.027133
  27 H :    0.027827
  28 C :   -0.070792
  29 H :    0.034558
  30 H :    0.026506
  31 H :    0.026742
  32 H :    0.032262
  33 H :    0.035872

  Mayer bond orders larger than 0.100000
B(  0-S ,  1-C ) :   1.1633 B(  0-S ,  4-C ) :   1.1544 B(  1-C ,  2-C ) :   1.5461
B(  1-C ,  4-C ) :   0.1177 B(  1-C , 32-H ) :   0.9688 B(  2-C ,  3-C ) :   1.2846
B(  2-C ,  6-C ) :   1.0297 B(  3-C ,  4-C ) :   1.5129 B(  3-C ,  5-H ) :   1.0034
B(  4-C , 20-C ) :   1.0586 B(  6-C ,  7-H ) :   0.9432 B(  6-C ,  8-H ) :   0.9375
B(  6-C ,  9-C ) :   1.0646 B(  9-C , 10-H ) :   0.9542 B(  9-C , 11-H ) :   0.9556
B(  9-C , 12-C ) :   1.0972 B( 12-C , 13-H ) :   0.9753 B( 12-C , 14-H ) :   0.9726
B( 12-C , 15-H ) :   0.9727 B( 16-S , 17-C ) :   1.1528 B( 16-S , 20-C ) :   1.1412
B( 17-C , 18-C ) :   1.6221 B( 17-C , 33-H ) :   0.9615 B( 18-C , 19-C ) :   1.2138
B( 18-C , 21-H ) :   0.9887 B( 19-C , 20-C ) :   1.6054 B( 19-C , 22-C ) :   1.0723
B( 22-C , 23-H ) :   0.9181 B( 22-C , 24-H ) :   0.9288 B( 22-C , 25-C ) :   1.0533
B( 25-C , 26-H ) :   0.9538 B( 25-C , 27-H ) :   0.9558 B( 25-C , 28-C ) :   1.0693
B( 28-C , 29-H ) :   0.9742 B( 28-C , 30-H ) :   0.9769 B( 28-C , 31-H ) :   0.9741

Dispersion correction           -0.013688427
FINAL SINGLE POINT ENERGY     -1339.855360715194

DIPOLE MOMENT
-------------
                                X             Y             Z
Electronic contribution:     10.47481       8.06363     -29.05863
Nuclear contribution   :    -10.72130      -8.33144      29.61166
                        -----------------------------------------
Total Dipole Moment    :     -0.24648      -0.26782       0.55304
                        -----------------------------------------
Magnitude (a.u.)       :      0.66206
Magnitude (Debye)      :      1.68283

Rotational constants in cm-1:     0.017676     0.008626     0.006441
Rotational constants in MHz :   529.923534   258.607046   193.089896

                             ****ORCA TERMINATED NORMALLY****
TOTAL RUN TIME: 0 days 0 hours 0 minutes 21 seconds 275 msec
