                         Program Version 4.2.1 -  RELEASE  -
|  1> ! wB97X-D3 SP def2-SVP
|  2> %pal
|  3> nprocs 24
|  4> end
|  5>
|  6> * xyz 0 1
|  7> S 	 -82.6511 	 -42.0292 	 -73.8739
|  8> C 	 -83.5005 	 -42.5214 	 -75.3749
|  9> C 	 -83.1345 	 -41.6243 	 -76.3295
| 10> C 	 -82.1852 	 -40.6277 	 -75.9813
| 11> C 	 -81.7061 	 -40.794 	 -74.6647
| 12> H 	 -81.7777 	 -39.8089 	 -76.6307
| 13> C 	 -83.7511 	 -41.726 	 -77.6675
| 14> H 	 -84.4331 	 -40.8922 	 -77.7828
| 15> H 	 -84.444 	 -42.5157 	 -77.7928
| 16> C 	 -82.7727 	 -41.6146 	 -78.886
| 17> H 	 -83.3678 	 -41.8926 	 -79.8241
| 18> H 	 -82.5566 	 -40.5332 	 -78.9634
| 19> C 	 -81.4997 	 -42.4679 	 -78.7805
| 20> H 	 -81.9028 	 -43.4246 	 -78.6613
| 21> H 	 -80.8931 	 -42.3962 	 -79.7185
| 22> H 	 -80.7564 	 -42.276 	 -77.9931
| 23> S 	 -81.3758 	 -39.1965 	 -72.4302
| 24> C 	 -79.9853 	 -38.1562 	 -72.2886
| 25> C 	 -79.0911 	 -38.391 	 -73.3202
| 26> C 	 -79.5404 	 -39.3761 	 -74.2369
| 27> C 	 -80.7895 	 -39.9469 	 -73.8855
| 28> H 	 -78.1821 	 -37.8368 	 -73.4728
| 29> C 	 -78.712 	 -39.8012 	 -75.4316
| 30> H 	 -79.4627 	 -40.3468 	 -75.9865
| 31> H 	 -77.9247 	 -40.4831 	 -75.0681
| 32> C 	 -78.1202 	 -38.6639 	 -76.1935
| 33> H 	 -77.5211 	 -38.0097 	 -75.5363
| 34> H 	 -78.9266 	 -38.0791 	 -76.5913
| 35> C 	 -77.2041 	 -38.9599 	 -77.4273
| 36> H 	 -76.2784 	 -39.5198 	 -77.1205
| 37> H 	 -76.7666 	 -38.051 	 -77.8393
| 38> H 	 -77.7007 	 -39.4367 	 -78.3059
| 39> H 	 -84.3543 	 -43.2133 	 -75.4072
| 40> H 	 -79.8572 	 -37.445 	 -71.4417
| 41> *
| 42>
| 43>                          ****END OF INPUT****

CARTESIAN COORDINATES (ANGSTROEM)
---------------------------------
  S    -82.651100  -42.029200  -73.873900
  C    -83.500500  -42.521400  -75.374900
  C    -83.134500  -41.624300  -76.329500
  C    -82.185200  -40.627700  -75.981300
  C    -81.706100  -40.794000  -74.664700
  H    -81.777700  -39.808900  -76.630700
  C    -83.751100  -41.726000  -77.667500
  H    -84.433100  -40.892200  -77.782800
  H    -84.444000  -42.515700  -77.792800
  C    -82.772700  -41.614600  -78.886000
  H    -83.367800  -41.892600  -79.824100
  H    -82.556600  -40.533200  -78.963400
  C    -81.499700  -42.467900  -78.780500
  H    -81.902800  -43.424600  -78.661300
  H    -80.893100  -42.396200  -79.718500
  H    -80.756400  -42.276000  -77.993100
  S    -81.375800  -39.196500  -72.430200
  C    -79.985300  -38.156200  -72.288600
  C    -79.091100  -38.391000  -73.320200
  C    -79.540400  -39.376100  -74.236900
  C    -80.789500  -39.946900  -73.885500
  H    -78.182100  -37.836800  -73.472800
  C    -78.712000  -39.801200  -75.431600
  H    -79.462700  -40.346800  -75.986500
  H    -77.924700  -40.483100  -75.068100
  C    -78.120200  -38.663900  -76.193500
  H    -77.521100  -38.009700  -75.536300
  H    -78.926600  -38.079100  -76.591300
  C    -77.204100  -38.959900  -77.427300
  H    -76.278400  -39.519800  -77.120500
  H    -76.766600  -38.051000  -77.839300
  H    -77.700700  -39.436700  -78.305900
  H    -84.354300  -43.213300  -75.407200
  H    -79.857200  -37.445000  -71.441700

 Total Charge           Charge          ....    0
 Multiplicity           Mult            ....    1
 Number of Electrons    NEL             ....  134
 Basis Dimension        Dim             ....  322

ORBITAL ENERGIES
----------------

  NO   OCC          E(Eh)            E(eV)
   0   2.0000     -88.967863     -2420.9386
   1   2.0000     -88.962228     -2420.7853
   2   2.0000     -10.338422      -281.3228
   3   2.0000     -10.330370      -281.1036
   4   2.0000     -10.324252      -280.9372
   5   2.0000     -10.316014      -280.7130
   6   2.0000     -10.305114      -280.4164
   7   2.0000     -10.302672      -280.3500
   8   2.0000     -10.299131      -280.2536
   9   2.0000     -10.295293      -280.1492
  10   2.0000     -10.294167      -280.1185
  11   2.0000     -10.289127      -279.9814
  12   2.0000     -10.288697      -279.9697
  13   2.0000     -10.286651      -279.9140
  14   2.0000     -10.283646      -279.8322
  15   2.0000     -10.274738      -279.5898
  16   2.0000      -8.082832      -219.9450
  17   2.0000      -8.076640      -219.7765
  18   2.0000      -6.041315      -164.3925
  19   2.0000      -6.037091      -164.2776
  20   2.0000      -6.035187      -164.2258
  21   2.0000      -6.033802      -164.1881
  22   2.0000      -6.031081      -164.1141
  23   2.0000      -6.027476      -164.0160
  24   2.0000      -1.007118       -27.4051
  25   2.0000      -0.985979       -26.8299
  26   2.0000      -0.914238       -24.8777
  27   2.0000      -0.911143       -24.7935
  28   2.0000      -0.868591       -23.6356
  29   2.0000      -0.849220       -23.1085
  30   2.0000      -0.838803       -22.8250
  31   2.0000      -0.817868       -22.2553
  32   2.0000      -0.785986       -21.3878
  33   2.0000      -0.773615       -21.0511
  34   2.0000      -0.708991       -19.2926
  35   2.0000      -0.701360       -19.0850
  36   2.0000      -0.689030       -18.7495
  37   2.0000      -0.655412       -17.8347
  38   2.0000      -0.639092       -17.3906
  39   2.0000      -0.620897       -16.8955
  40   2.0000      -0.597076       -16.2473
  41   2.0000      -0.573463       -15.6047
  42   2.0000      -0.565212       -15.3802
  43   2.0000      -0.556338       -15.1387
  44   2.0000      -0.533865       -14.5272
  45   2.0000      -0.525650       -14.3037
  46   2.0000      -0.519971       -14.1491
  47   2.0000      -0.512530       -13.9466
  48   2.0000      -0.504241       -13.7211
  49   2.0000      -0.501646       -13.6505
  50   2.0000      -0.493174       -13.4199
  51   2.0000      -0.482390       -13.1265
  52   2.0000      -0.472257       -12.8508
  53   2.0000      -0.464353       -12.6357
  54   2.0000      -0.461375       -12.5547
  55   2.0000      -0.453686       -12.3454
  56   2.0000      -0.445851       -12.1322
  57   2.0000      -0.434410       -11.8209
  58   2.0000      -0.426922       -11.6171
  59   2.0000      -0.425498       -11.5784
  60   2.0000      -0.417191       -11.3524
  61   2.0000      -0.414308       -11.2739
  62   2.0000      -0.404705       -11.0126
  63   2.0000      -0.348075        -9.4716
  64   2.0000      -0.331948        -9.0328
  65   2.0000      -0.327473        -8.9110
  66   2.0000      -0.293390        -7.9836
  67   0.0000       0.025217         0.6862
  68   0.0000       0.068978         1.8770
  69   0.0000       0.112039         3.0487
  70   0.0000       0.121272         3.3000
  71   0.0000       0.128021         3.4836

MULLIKEN ATOMIC CHARGES
-----------------------
   0 S :    0.081786
   1 C :   -0.129884
   2 C :   -0.081739
   3 C :    0.029132
   4 C :   -0.172973
   5 H :    0.038213
   6 C :    0.087986
   7 H :    0.027162
   8 H :   -0.001096
   9 C :   -0.124790
  10 H :    0.042186
  11 H :    0.028132
  12 C :   -0.037326
  13 H :    0.022077
  14 H :    0.038062
  15 H :    0.048336
  16 S :    0.115299
  17 C :   -0.110074
  18 C :   -0.018149
  19 C :   -0.088595
  20 C :   -0.130733
  21 H :    0.015935
  22 C :    0.136868
  23 H :    0.010691
  24 H :    0.043416
  25 C :   -0.108107
  26 H :    0.031329
  27 H :    0.024595
  28 C :   -0.062547
  29 H :    0.033111
  30 H :    0.027097
  31 H :    0.042311
  32 H :    0.065715
  33 H :    0.076572
Sum of atomic charges:   -0.0000000

LOEWDIN ATOMIC CHARGES
----------------------
   0 S :    0.386426
   1 C :   -0.189836
   2 C :   -0.065926
   3 C :   -0.072676
   4 C :   -0.186496
   5 H :    0.041695
   6 C :   -0.036622
   7 H :    0.036378
   8 H :    0.020474
   9 C :   -0.044262
  10 H :    0.034711
  11 H :    0.017281
  12 C :   -0.070360
  13 H :    0.019970
  14 H :    0.031958
  15 H :    0.029149
  16 S :    0.424406
  17 C :   -0.188607
  18 C :   -0.074213
  19 C :   -0.050805
  20 C :   -0.216334
  21 H :    0.029439
  22 C :   -0.032487
  23 H :    0.028721
  24 H :    0.038121
  25 C :   -0.043728
  26 H :    0.024583
  27 H :    0.023681
  28 C :   -0.073791
  29 H :    0.027839
  30 H :    0.025838
  31 H :    0.028119
  32 H :    0.038307
  33 H :    0.039046

  Mayer bond orders larger than 0.100000
B(  0-S ,  1-C ) :   1.1079 B(  0-S ,  4-C ) :   1.1781 B(  1-C ,  2-C ) :   1.6070
B(  1-C , 32-H ) :   0.9706 B(  2-C ,  3-C ) :   1.2365 B(  2-C ,  6-C ) :   1.0382
B(  3-C ,  4-C ) :   1.5355 B(  3-C ,  5-H ) :   0.9832 B(  4-C , 20-C ) :   1.0268
B(  6-C ,  7-H ) :   0.9282 B(  6-C ,  8-H ) :   0.9420 B(  6-C ,  9-C ) :   1.0623
B(  9-C , 10-H ) :   0.9566 B(  9-C , 11-H ) :   0.9553 B(  9-C , 12-C ) :   1.0724
B( 12-C , 13-H ) :   0.9768 B( 12-C , 14-H ) :   0.9740 B( 12-C , 15-H ) :   0.9700
B( 16-S , 17-C ) :   1.1789 B( 16-S , 20-C ) :   1.1551 B( 17-C , 18-C ) :   1.5596
B( 17-C , 20-C ) :   0.1023 B( 17-C , 33-H ) :   0.9638 B( 18-C , 19-C ) :   1.2810
B( 18-C , 21-H ) :   0.9919 B( 19-C , 20-C ) :   1.5561 B( 19-C , 22-C ) :   1.0318
B( 22-C , 23-H ) :   0.9272 B( 22-C , 24-H ) :   0.9274 B( 22-C , 25-C ) :   1.0688
B( 25-C , 26-H ) :   0.9513 B( 25-C , 27-H ) :   0.9553 B( 25-C , 28-C ) :   1.0892
B( 28-C , 29-H ) :   0.9729 B( 28-C , 30-H ) :   0.9732 B( 28-C , 31-H ) :   0.9756

Dispersion correction           -0.014460415
FINAL SINGLE POINT ENERGY     -1339.880011408771

DIPOLE MOMENT
-------------
                                X             Y             Z
Electronic contribution:    -12.13966      -0.75068      28.75252
Nuclear contribution   :     12.28787       1.08437     -29.33379
                        -----------------------------------------
Total Dipole Moment    :      0.14822       0.33369      -0.58127
                        -----------------------------------------
Magnitude (a.u.)       :      0.68643
Magnitude (Debye)      :      1.74477

Rotational constants in cm-1:     0.016123     0.010402     0.006783
Rotational constants in MHz :   483.354401   311.838081   203.357247

                             ****ORCA TERMINATED NORMALLY****
TOTAL RUN TIME: 0 days 0 hours 0 minutes 22 seconds 86 msec
