                         Program Version 4.2.1 -  RELEASE  -
|  1> ! wB97X-D3 SP def2-SVP
|  2> %pal
|  3> nprocs 24
|  4> end
|  5>
|  6> * xyz 0 1
|  7> S 	 -127.564 	 29.9711 	 -19.3746
|  8> C 	 -128.648 	 31.319 	 -19.8386
|  9> C 	 -129.696 	 30.8404 	 -20.6632
| 10> C 	 -129.782 	 29.4331 	 -20.5233
| 11> C 	 -128.761 	 28.81 	 -19.8525
| 12> H 	 -130.502 	 28.7128 	 -20.9559
| 13> C 	 -130.779 	 31.7539 	 -21.4466
| 14> H 	 -131.186 	 31.0966 	 -22.2637
| 15> H 	 -130.083 	 32.4763 	 -21.7727
| 16> C 	 -131.914 	 32.2951 	 -20.6106
| 17> H 	 -132.522 	 32.8865 	 -21.2507
| 18> H 	 -132.562 	 31.5573 	 -20.1277
| 19> C 	 -131.484 	 33.3566 	 -19.6049
| 20> H 	 -130.803 	 32.9202 	 -18.7929
| 21> H 	 -130.974 	 34.1667 	 -20.1076
| 22> H 	 -132.351 	 33.6124 	 -18.9733
| 23> S 	 -127.575 	 26.3316 	 -19.9782
| 24> C 	 -128.079 	 25.2182 	 -18.8319
| 25> C 	 -129.227 	 25.5693 	 -18.1188
| 26> C 	 -129.509 	 26.9101 	 -18.302
| 27> C 	 -128.737 	 27.4388 	 -19.3238
| 28> H 	 -129.622 	 24.9253 	 -17.3442
| 29> C 	 -130.504 	 27.7413 	 -17.5373
| 30> H 	 -130.148 	 28.7282 	 -17.3822
| 31> H 	 -130.581 	 27.4756 	 -16.4421
| 32> C 	 -131.996 	 27.8129 	 -18.0133
| 33> H 	 -132.369 	 26.8013 	 -17.9947
| 34> H 	 -132.114 	 28.1424 	 -19.0316
| 35> C 	 -132.878 	 28.8648 	 -17.2094
| 36> H 	 -132.338 	 29.8061 	 -17.1657
| 37> H 	 -132.992 	 28.3888 	 -16.1687
| 38> H 	 -133.827 	 28.9748 	 -17.6379
| 39> H 	 -128.346 	 32.3902 	 -19.7822
| 40> H 	 -127.612 	 24.2048 	 -18.7481
| 41> *
| 42>
| 43>                          ****END OF INPUT****

CARTESIAN COORDINATES (ANGSTROEM)
---------------------------------
  S    -127.564000   29.971100  -19.374600
  C    -128.648000   31.319000  -19.838600
  C    -129.696000   30.840400  -20.663200
  C    -129.782000   29.433100  -20.523300
  C    -128.761000   28.810000  -19.852500
  H    -130.502000   28.712800  -20.955900
  C    -130.779000   31.753900  -21.446600
  H    -131.186000   31.096600  -22.263700
  H    -130.083000   32.476300  -21.772700
  C    -131.914000   32.295100  -20.610600
  H    -132.522000   32.886500  -21.250700
  H    -132.562000   31.557300  -20.127700
  C    -131.484000   33.356600  -19.604900
  H    -130.803000   32.920200  -18.792900
  H    -130.974000   34.166700  -20.107600
  H    -132.351000   33.612400  -18.973300
  S    -127.575000   26.331600  -19.978200
  C    -128.079000   25.218200  -18.831900
  C    -129.227000   25.569300  -18.118800
  C    -129.509000   26.910100  -18.302000
  C    -128.737000   27.438800  -19.323800
  H    -129.622000   24.925300  -17.344200
  C    -130.504000   27.741300  -17.537300
  H    -130.148000   28.728200  -17.382200
  H    -130.581000   27.475600  -16.442100
  C    -131.996000   27.812900  -18.013300
  H    -132.369000   26.801300  -17.994700
  H    -132.114000   28.142400  -19.031600
  C    -132.878000   28.864800  -17.209400
  H    -132.338000   29.806100  -17.165700
  H    -132.992000   28.388800  -16.168700
  H    -133.827000   28.974800  -17.637900
  H    -128.346000   32.390200  -19.782200
  H    -127.612000   24.204800  -18.748100

 Total Charge           Charge          ....    0
 Multiplicity           Mult            ....    1
 Number of Electrons    NEL             ....  134
 Basis Dimension        Dim             ....  322

ORBITAL ENERGIES
----------------

  NO   OCC          E(Eh)            E(eV)
   0   2.0000     -88.969505     -2420.9833
   1   2.0000     -88.962915     -2420.8040
   2   2.0000     -10.322296      -280.8840
   3   2.0000     -10.319890      -280.8185
   4   2.0000     -10.318194      -280.7723
   5   2.0000     -10.314242      -280.6648
   6   2.0000     -10.309158      -280.5265
   7   2.0000     -10.302569      -280.3472
   8   2.0000     -10.299238      -280.2565
   9   2.0000     -10.291118      -280.0356
  10   2.0000     -10.289755      -279.9985
  11   2.0000     -10.289318      -279.9866
  12   2.0000     -10.285865      -279.8926
  13   2.0000     -10.284789      -279.8633
  14   2.0000     -10.282786      -279.8088
  15   2.0000     -10.282023      -279.7881
  16   2.0000      -8.085924      -220.0292
  17   2.0000      -8.077335      -219.7955
  18   2.0000      -6.043891      -164.4626
  19   2.0000      -6.040320      -164.3655
  20   2.0000      -6.037051      -164.2765
  21   2.0000      -6.035859      -164.2441
  22   2.0000      -6.031907      -164.1365
  23   2.0000      -6.028062      -164.0319
  24   2.0000      -1.013554       -27.5802
  25   2.0000      -0.984420       -26.7874
  26   2.0000      -0.912227       -24.8230
  27   2.0000      -0.902814       -24.5668
  28   2.0000      -0.863326       -23.4923
  29   2.0000      -0.856025       -23.2936
  30   2.0000      -0.841253       -22.8917
  31   2.0000      -0.807274       -21.9670
  32   2.0000      -0.784521       -21.3479
  33   2.0000      -0.770780       -20.9740
  34   2.0000      -0.702647       -19.1200
  35   2.0000      -0.698040       -18.9946
  36   2.0000      -0.686498       -18.6806
  37   2.0000      -0.659594       -17.9485
  38   2.0000      -0.640243       -17.4219
  39   2.0000      -0.613401       -16.6915
  40   2.0000      -0.601294       -16.3620
  41   2.0000      -0.567412       -15.4401
  42   2.0000      -0.555283       -15.1100
  43   2.0000      -0.550665       -14.9843
  44   2.0000      -0.538522       -14.6539
  45   2.0000      -0.528764       -14.3884
  46   2.0000      -0.522864       -14.2279
  47   2.0000      -0.510706       -13.8970
  48   2.0000      -0.500249       -13.6125
  49   2.0000      -0.491181       -13.3657
  50   2.0000      -0.481374       -13.0989
  51   2.0000      -0.476205       -12.9582
  52   2.0000      -0.467844       -12.7307
  53   2.0000      -0.464426       -12.6377
  54   2.0000      -0.457413       -12.4468
  55   2.0000      -0.447589       -12.1795
  56   2.0000      -0.444392       -12.0925
  57   2.0000      -0.440554       -11.9881
  58   2.0000      -0.437440       -11.9033
  59   2.0000      -0.428335       -11.6556
  60   2.0000      -0.425782       -11.5861
  61   2.0000      -0.406627       -11.0649
  62   2.0000      -0.403312       -10.9747
  63   2.0000      -0.340255        -9.2588
  64   2.0000      -0.331488        -9.0202
  65   2.0000      -0.323070        -8.7912
  66   2.0000      -0.299150        -8.1403
  67   0.0000       0.038569         1.0495
  68   0.0000       0.056315         1.5324
  69   0.0000       0.107691         2.9304
  70   0.0000       0.120067         3.2672
  71   0.0000       0.126857         3.4520

MULLIKEN ATOMIC CHARGES
-----------------------
   0 S :    0.110542
   1 C :   -0.160310
   2 C :   -0.102965
   3 C :    0.019814
   4 C :   -0.164709
   5 H :    0.025378
   6 C :    0.077376
   7 H :    0.043129
   8 H :    0.023270
   9 C :   -0.024995
  10 H :    0.022942
  11 H :    0.035007
  12 C :   -0.096548
  13 H :    0.038992
  14 H :    0.036482
  15 H :    0.036713
  16 S :    0.148182
  17 C :   -0.119731
  18 C :   -0.034684
  19 C :    0.019542
  20 C :   -0.204100
  21 H :    0.018742
  22 C :    0.063209
  23 H :    0.012503
  24 H :    0.017014
  25 C :   -0.069306
  26 H :    0.023488
  27 H :    0.014778
  28 C :   -0.058607
  29 H :    0.043259
  30 H :    0.039666
  31 H :    0.031770
  32 H :    0.066078
  33 H :    0.068078
Sum of atomic charges:   -0.0000000

LOEWDIN ATOMIC CHARGES
----------------------
   0 S :    0.395062
   1 C :   -0.198411
   2 C :   -0.061624
   3 C :   -0.070989
   4 C :   -0.208995
   5 H :    0.036230
   6 C :   -0.018757
   7 H :    0.039753
   8 H :    0.025984
   9 C :   -0.042737
  10 H :    0.023772
  11 H :    0.028195
  12 C :   -0.072107
  13 H :    0.029041
  14 H :    0.021963
  15 H :    0.030149
  16 S :    0.454663
  17 C :   -0.211399
  18 C :   -0.073310
  19 C :   -0.050785
  20 C :   -0.214179
  21 H :    0.033237
  22 C :   -0.035861
  23 H :    0.025677
  24 H :    0.035558
  25 C :   -0.034821
  26 H :    0.018390
  27 H :    0.014614
  28 C :   -0.060044
  29 H :    0.026660
  30 H :    0.032646
  31 H :    0.017508
  32 H :    0.031717
  33 H :    0.033202

  Mayer bond orders larger than 0.100000
B(  0-S ,  1-C ) :   1.1520 B(  0-S ,  4-C ) :   1.1439 B(  1-C ,  2-C ) :   1.5841
B(  1-C ,  4-C ) :   0.1087 B(  1-C , 32-H ) :   0.9611 B(  2-C ,  3-C ) :   1.2320
B(  2-C ,  6-C ) :   0.9887 B(  3-C ,  4-C ) :   1.6127 B(  3-C ,  5-H ) :   0.9837
B(  4-C , 20-C ) :   0.9965 B(  6-C ,  7-H ) :   0.9452 B(  6-C ,  8-H ) :   0.9401
B(  6-C ,  9-C ) :   1.0793 B(  9-C , 10-H ) :   0.9491 B(  9-C , 11-H ) :   0.9547
B(  9-C , 12-C ) :   1.0815 B( 12-C , 13-H ) :   0.9697 B( 12-C , 14-H ) :   0.9760
B( 12-C , 15-H ) :   0.9706 B( 16-S , 17-C ) :   1.2005 B( 16-S , 20-C ) :   1.1698
B( 17-C , 18-C ) :   1.5656 B( 17-C , 20-C ) :   0.1027 B( 17-C , 33-H ) :   0.9594
B( 18-C , 19-C ) :   1.2853 B( 18-C , 21-H ) :   0.9893 B( 19-C , 20-C ) :   1.5719
B( 19-C , 22-C ) :   1.0471 B( 22-C , 23-H ) :   0.9228 B( 22-C , 24-H ) :   0.9352
B( 22-C , 25-C ) :   1.0541 B( 25-C , 26-H ) :   0.9590 B( 25-C , 27-H ) :   0.9561
B( 25-C , 28-C ) :   1.0713 B( 28-C , 29-H ) :   0.9761 B( 28-C , 30-H ) :   0.9778
B( 28-C , 31-H ) :   0.9770

Dispersion correction           -0.015503552
FINAL SINGLE POINT ENERGY     -1339.855679988648

DIPOLE MOMENT
-------------
                                X             Y             Z
Electronic contribution:     26.64014     -15.73310      -6.13109
Nuclear contribution   :    -27.22453      15.89381       6.13331
                        -----------------------------------------
Total Dipole Moment    :     -0.58439       0.16071       0.00222
                        -----------------------------------------
Magnitude (a.u.)       :      0.60609
Magnitude (Debye)      :      1.54056

Rotational constants in cm-1:     0.020045     0.009396     0.007189
Rotational constants in MHz :   600.945821   281.675048   215.506780

                             ****ORCA TERMINATED NORMALLY****
TOTAL RUN TIME: 0 days 0 hours 0 minutes 22 seconds 539 msec
