                         Program Version 4.2.1 -  RELEASE  -
|  1> ! wB97X-D3 SP def2-SVP
|  2> %pal
|  3> nprocs 24
|  4> end
|  5>
|  6> * xyz 0 1
|  7> S 	 -99.0075 	 -28.2119 	 -64.2051
|  8> C 	 -99.5912 	 -26.6228 	 -64.7325
|  9> C 	 -98.6596 	 -25.5693 	 -64.4227
| 10> C 	 -97.5308 	 -26.0577 	 -63.7222
| 11> C 	 -97.6378 	 -27.4128 	 -63.4089
| 12> H 	 -96.7309 	 -25.3753 	 -63.3447
| 13> C 	 -98.7602 	 -24.0545 	 -64.7783
| 14> H 	 -98.014 	 -23.5133 	 -64.1352
| 15> H 	 -99.6382 	 -23.4826 	 -64.5868
| 16> C 	 -98.3393 	 -23.861 	 -66.2557
| 17> H 	 -98.8755 	 -24.5299 	 -66.967
| 18> H 	 -98.7299 	 -22.8708 	 -66.5686
| 19> C 	 -96.8019 	 -24.0489 	 -66.4777
| 20> H 	 -96.4106 	 -23.6442 	 -67.4343
| 21> H 	 -96.2745 	 -23.528 	 -65.7131
| 22> H 	 -96.4148 	 -25.0831 	 -66.3362
| 23> S 	 -97.1453 	 -29.806 	 -62.0531
| 24> C 	 -95.4682 	 -30.353 	 -61.8737
| 25> C 	 -94.6196 	 -29.2954 	 -62.0308
| 26> C 	 -95.2796 	 -28.1189 	 -62.5454
| 27> C 	 -96.6432 	 -28.2827 	 -62.7418
| 28> H 	 -93.553 	 -29.5175 	 -61.9877
| 29> C 	 -94.4961 	 -26.9424 	 -63.1649
| 30> H 	 -94.8169 	 -26.0822 	 -62.5641
| 31> H 	 -94.8013 	 -26.6583 	 -64.1325
| 32> C 	 -92.9445 	 -27.0274 	 -63.144
| 33> H 	 -92.7181 	 -27.8393 	 -63.8238
| 34> H 	 -92.6266 	 -27.2864 	 -62.0869
| 35> C 	 -92.1333 	 -25.7182 	 -63.3395
| 36> H 	 -92.223 	 -25.4663 	 -64.3572
| 37> H 	 -91.0434 	 -25.7705 	 -63.2839
| 38> H 	 -92.5488 	 -24.9209 	 -62.6675
| 39> H 	 -100.543 	 -26.424 	 -65.2164
| 40> H 	 -95.0747 	 -31.3737 	 -61.7877
| 41> *
| 42>
| 43>                          ****END OF INPUT****

CARTESIAN COORDINATES (ANGSTROEM)
---------------------------------
  S    -99.007500  -28.211900  -64.205100
  C    -99.591200  -26.622800  -64.732500
  C    -98.659600  -25.569300  -64.422700
  C    -97.530800  -26.057700  -63.722200
  C    -97.637800  -27.412800  -63.408900
  H    -96.730900  -25.375300  -63.344700
  C    -98.760200  -24.054500  -64.778300
  H    -98.014000  -23.513300  -64.135200
  H    -99.638200  -23.482600  -64.586800
  C    -98.339300  -23.861000  -66.255700
  H    -98.875500  -24.529900  -66.967000
  H    -98.729900  -22.870800  -66.568600
  C    -96.801900  -24.048900  -66.477700
  H    -96.410600  -23.644200  -67.434300
  H    -96.274500  -23.528000  -65.713100
  H    -96.414800  -25.083100  -66.336200
  S    -97.145300  -29.806000  -62.053100
  C    -95.468200  -30.353000  -61.873700
  C    -94.619600  -29.295400  -62.030800
  C    -95.279600  -28.118900  -62.545400
  C    -96.643200  -28.282700  -62.741800
  H    -93.553000  -29.517500  -61.987700
  C    -94.496100  -26.942400  -63.164900
  H    -94.816900  -26.082200  -62.564100
  H    -94.801300  -26.658300  -64.132500
  C    -92.944500  -27.027400  -63.144000
  H    -92.718100  -27.839300  -63.823800
  H    -92.626600  -27.286400  -62.086900
  C    -92.133300  -25.718200  -63.339500
  H    -92.223000  -25.466300  -64.357200
  H    -91.043400  -25.770500  -63.283900
  H    -92.548800  -24.920900  -62.667500
  H    -100.543000  -26.424000  -65.216400
  H    -95.074700  -31.373700  -61.787700

 Total Charge           Charge          ....    0
 Multiplicity           Mult            ....    1
 Number of Electrons    NEL             ....  134
 Basis Dimension        Dim             ....  322

ORBITAL ENERGIES
----------------

  NO   OCC          E(Eh)            E(eV)
   0   2.0000     -88.974675     -2421.1240
   1   2.0000     -88.963518     -2420.8204
   2   2.0000     -10.337874      -281.3079
   3   2.0000     -10.328256      -281.0461
   4   2.0000     -10.322518      -280.8900
   5   2.0000     -10.317965      -280.7661
   6   2.0000     -10.311687      -280.5953
   7   2.0000     -10.307630      -280.4849
   8   2.0000     -10.301418      -280.3158
   9   2.0000     -10.301214      -280.3103
  10   2.0000     -10.295700      -280.1603
  11   2.0000     -10.295074      -280.1432
  12   2.0000     -10.293668      -280.1049
  13   2.0000     -10.292411      -280.0708
  14   2.0000     -10.282988      -279.8143
  15   2.0000     -10.280934      -279.7584
  16   2.0000      -8.088025      -220.0863
  17   2.0000      -8.078081      -219.8157
  18   2.0000      -6.046522      -164.5342
  19   2.0000      -6.042800      -164.4329
  20   2.0000      -6.038798      -164.3240
  21   2.0000      -6.036760      -164.2686
  22   2.0000      -6.032652      -164.1568
  23   2.0000      -6.028625      -164.0472
  24   2.0000      -1.003649       -27.3107
  25   2.0000      -0.978957       -26.6388
  26   2.0000      -0.906886       -24.6776
  27   2.0000      -0.903819       -24.5942
  28   2.0000      -0.864372       -23.5208
  29   2.0000      -0.851248       -23.1636
  30   2.0000      -0.840791       -22.8791
  31   2.0000      -0.811402       -22.0794
  32   2.0000      -0.784071       -21.3357
  33   2.0000      -0.772872       -21.0309
  34   2.0000      -0.705422       -19.1955
  35   2.0000      -0.703349       -19.1391
  36   2.0000      -0.695548       -18.9268
  37   2.0000      -0.649895       -17.6845
  38   2.0000      -0.635778       -17.3004
  39   2.0000      -0.622401       -16.9364
  40   2.0000      -0.595279       -16.1984
  41   2.0000      -0.573653       -15.6099
  42   2.0000      -0.569245       -15.4900
  43   2.0000      -0.545188       -14.8353
  44   2.0000      -0.536273       -14.5927
  45   2.0000      -0.518474       -14.1084
  46   2.0000      -0.512943       -13.9579
  47   2.0000      -0.504424       -13.7261
  48   2.0000      -0.503371       -13.6974
  49   2.0000      -0.495029       -13.4704
  50   2.0000      -0.485336       -13.2067
  51   2.0000      -0.480098       -13.0641
  52   2.0000      -0.475161       -12.9298
  53   2.0000      -0.466342       -12.6898
  54   2.0000      -0.459995       -12.5171
  55   2.0000      -0.455258       -12.3882
  56   2.0000      -0.449305       -12.2262
  57   2.0000      -0.435985       -11.8638
  58   2.0000      -0.432392       -11.7660
  59   2.0000      -0.430420       -11.7123
  60   2.0000      -0.416971       -11.3464
  61   2.0000      -0.411899       -11.2083
  62   2.0000      -0.404651       -11.0111
  63   2.0000      -0.353782        -9.6269
  64   2.0000      -0.337920        -9.1953
  65   2.0000      -0.328876        -8.9492
  66   2.0000      -0.281010        -7.6467
  67   0.0000       0.014635         0.3982
  68   0.0000       0.075997         2.0680
  69   0.0000       0.096294         2.6203
  70   0.0000       0.119186         3.2432
  71   0.0000       0.129886         3.5344

MULLIKEN ATOMIC CHARGES
-----------------------
   0 S :    0.116541
   1 C :   -0.117760
   2 C :   -0.071850
   3 C :   -0.030462
   4 C :   -0.105768
   5 H :    0.031650
   6 C :    0.044816
   7 H :    0.026710
   8 H :    0.030644
   9 C :   -0.079097
  10 H :    0.038021
  11 H :    0.026024
  12 C :   -0.061907
  13 H :    0.042198
  14 H :    0.006909
  15 H :    0.049922
  16 S :    0.090036
  17 C :   -0.099191
  18 C :   -0.043036
  19 C :   -0.040545
  20 C :   -0.128432
  21 H :    0.030771
  22 C :    0.028932
  23 H :    0.029720
  24 H :    0.027529
  25 C :   -0.101879
  26 H :    0.038959
  27 H :    0.039256
  28 C :   -0.030051
  29 H :    0.012802
  30 H :    0.037203
  31 H :    0.045337
  32 H :    0.050644
  33 H :    0.065353
Sum of atomic charges:    0.0000000

LOEWDIN ATOMIC CHARGES
----------------------
   0 S :    0.401794
   1 C :   -0.197454
   2 C :   -0.052176
   3 C :   -0.072857
   4 C :   -0.177059
   5 H :    0.040069
   6 C :   -0.030460
   7 H :    0.033384
   8 H :    0.027265
   9 C :   -0.041808
  10 H :    0.026886
  11 H :    0.023263
  12 C :   -0.073114
  13 H :    0.030491
  14 H :    0.014717
  15 H :    0.031845
  16 S :    0.383265
  17 C :   -0.180230
  18 C :   -0.073327
  19 C :   -0.057083
  20 C :   -0.197889
  21 H :    0.036057
  22 C :   -0.032378
  23 H :    0.028762
  24 H :    0.022639
  25 C :   -0.044971
  26 H :    0.022636
  27 H :    0.028127
  28 C :   -0.067502
  29 H :    0.015959
  30 H :    0.031039
  31 H :    0.033913
  32 H :    0.027452
  33 H :    0.038746

  Mayer bond orders larger than 0.100000
B(  0-S ,  1-C ) :   1.1412 B(  0-S ,  4-C ) :   1.1541 B(  1-C ,  2-C ) :   1.5827
B(  1-C ,  4-C ) :   0.1113 B(  1-C , 32-H ) :   0.9676 B(  2-C ,  3-C ) :   1.2755
B(  2-C ,  6-C ) :   1.0062 B(  3-C ,  4-C ) :   1.5422 B(  3-C ,  5-H ) :   0.9771
B(  4-C , 20-C ) :   1.0714 B(  6-C ,  7-H ) :   0.9497 B(  6-C ,  8-H ) :   0.9519
B(  6-C ,  9-C ) :   1.0636 B(  9-C , 10-H ) :   0.9606 B(  9-C , 11-H ) :   0.9589
B(  9-C , 12-C ) :   1.0613 B( 12-C , 13-H ) :   0.9758 B( 12-C , 14-H ) :   0.9750
B( 12-C , 15-H ) :   0.9739 B( 16-S , 17-C ) :   1.1312 B( 16-S , 20-C ) :   1.1245
B( 17-C , 18-C ) :   1.6446 B( 17-C , 33-H ) :   0.9607 B( 18-C , 19-C ) :   1.2283
B( 18-C , 21-H ) :   0.9814 B( 19-C , 20-C ) :   1.6080 B( 19-C , 22-C ) :   1.0223
B( 22-C , 23-H ) :   0.9213 B( 22-C , 24-H ) :   0.9438 B( 22-C , 25-C ) :   1.0719
B( 25-C , 26-H ) :   0.9538 B( 25-C , 27-H ) :   0.9531 B( 25-C , 28-C ) :   1.0707
B( 28-C , 29-H ) :   0.9737 B( 28-C , 30-H ) :   0.9737 B( 28-C , 31-H ) :   0.9737

Dispersion correction           -0.014392152
FINAL SINGLE POINT ENERGY     -1339.858836469364

DIPOLE MOMENT
-------------
                                X             Y             Z
Electronic contribution:    -18.60462     -24.19456      10.51680
Nuclear contribution   :     19.08797      24.73301     -10.86359
                        -----------------------------------------
Total Dipole Moment    :      0.48335       0.53845      -0.34679
                        -----------------------------------------
Magnitude (a.u.)       :      0.80239
Magnitude (Debye)      :      2.03950

Rotational constants in cm-1:     0.016121     0.010149     0.006519
Rotational constants in MHz :   483.298645   304.263281   195.448706

                             ****ORCA TERMINATED NORMALLY****
TOTAL RUN TIME: 0 days 0 hours 0 minutes 21 seconds 877 msec
