                         Program Version 4.2.1 -  RELEASE  -
|  1> ! wB97X-D3 SP def2-SVP
|  2> %pal
|  3> nprocs 24
|  4> end
|  5>
|  6> * xyz 0 1
|  7> S 	 -67.1263 	 11.92 	 -72.8571
|  8> C 	 -67.6945 	 13.1931 	 -73.8169
|  9> C 	 -68.6645 	 13.9736 	 -73.2184
| 10> C 	 -69.1744 	 13.3228 	 -72.05
| 11> C 	 -68.4056 	 12.2598 	 -71.6737
| 12> H 	 -69.9099 	 13.716 	 -71.3676
| 13> C 	 -69.2845 	 15.2356 	 -73.7728
| 14> H 	 -70.0904 	 15.5804 	 -73.098
| 15> H 	 -69.795 	 14.9712 	 -74.7154
| 16> C 	 -68.3725 	 16.497 	 -73.8543
| 17> H 	 -67.4843 	 16.3942 	 -74.4849
| 18> H 	 -68.9187 	 17.2663 	 -74.3246
| 19> C 	 -67.9086 	 16.9264 	 -72.4307
| 20> H 	 -67.4682 	 17.8975 	 -72.4822
| 21> H 	 -68.7335 	 16.9935 	 -71.7044
| 22> H 	 -67.2622 	 16.1249 	 -71.9796
| 23> S 	 -68.308 	 9.79951 	 -70.5116
| 24> C 	 -68.1592 	 9.64749 	 -68.7802
| 25> C 	 -68.3914 	 10.8982 	 -68.1612
| 26> C 	 -68.5782 	 12.0018 	 -69.0917
| 27> C 	 -68.4187 	 11.5512 	 -70.405
| 28> H 	 -68.2422 	 10.8138 	 -67.1319
| 29> C 	 -68.5389 	 13.3559 	 -68.4965
| 30> H 	 -68.5787 	 13.1973 	 -67.4332
| 31> H 	 -69.4988 	 13.8471 	 -68.7853
| 32> C 	 -67.3312 	 14.2172 	 -68.7573
| 33> H 	 -67.4422 	 15.0213 	 -68.0457
| 34> H 	 -67.2428 	 14.6449 	 -69.6881
| 35> C 	 -66.0009 	 13.5301 	 -68.3633
| 36> H 	 -65.6606 	 13.9839 	 -67.4232
| 37> H 	 -65.16 	 13.6801 	 -69.0885
| 38> H 	 -66.0723 	 12.4137 	 -68.2135
| 39> H 	 -67.3544 	 13.3835 	 -74.8222
| 40> H 	 -68.085 	 8.77119 	 -68.2101
| 41> *
| 42>
| 43>                          ****END OF INPUT****

CARTESIAN COORDINATES (ANGSTROEM)
---------------------------------
  S    -67.126300   11.920000  -72.857100
  C    -67.694500   13.193100  -73.816900
  C    -68.664500   13.973600  -73.218400
  C    -69.174400   13.322800  -72.050000
  C    -68.405600   12.259800  -71.673700
  H    -69.909900   13.716000  -71.367600
  C    -69.284500   15.235600  -73.772800
  H    -70.090400   15.580400  -73.098000
  H    -69.795000   14.971200  -74.715400
  C    -68.372500   16.497000  -73.854300
  H    -67.484300   16.394200  -74.484900
  H    -68.918700   17.266300  -74.324600
  C    -67.908600   16.926400  -72.430700
  H    -67.468200   17.897500  -72.482200
  H    -68.733500   16.993500  -71.704400
  H    -67.262200   16.124900  -71.979600
  S    -68.308000    9.799510  -70.511600
  C    -68.159200    9.647490  -68.780200
  C    -68.391400   10.898200  -68.161200
  C    -68.578200   12.001800  -69.091700
  C    -68.418700   11.551200  -70.405000
  H    -68.242200   10.813800  -67.131900
  C    -68.538900   13.355900  -68.496500
  H    -68.578700   13.197300  -67.433200
  H    -69.498800   13.847100  -68.785300
  C    -67.331200   14.217200  -68.757300
  H    -67.442200   15.021300  -68.045700
  H    -67.242800   14.644900  -69.688100
  C    -66.000900   13.530100  -68.363300
  H    -65.660600   13.983900  -67.423200
  H    -65.160000   13.680100  -69.088500
  H    -66.072300   12.413700  -68.213500
  H    -67.354400   13.383500  -74.822200
  H    -68.085000    8.771190  -68.210100

 Total Charge           Charge          ....    0
 Multiplicity           Mult            ....    1
 Number of Electrons    NEL             ....  134
 Basis Dimension        Dim             ....  322

ORBITAL ENERGIES
----------------

  NO   OCC          E(Eh)            E(eV)
   0   2.0000     -88.966779     -2420.9091
   1   2.0000     -88.965088     -2420.8631
   2   2.0000     -10.327302      -281.0202
   3   2.0000     -10.325604      -280.9740
   4   2.0000     -10.313706      -280.6502
   5   2.0000     -10.307965      -280.4940
   6   2.0000     -10.305523      -280.4275
   7   2.0000     -10.299284      -280.2578
   8   2.0000     -10.295727      -280.1610
   9   2.0000     -10.292251      -280.0664
  10   2.0000     -10.291431      -280.0441
  11   2.0000     -10.289819      -280.0002
  12   2.0000     -10.287436      -279.9354
  13   2.0000     -10.280422      -279.7445
  14   2.0000     -10.277537      -279.6660
  15   2.0000     -10.276431      -279.6359
  16   2.0000      -8.082195      -219.9277
  17   2.0000      -8.079671      -219.8590
  18   2.0000      -6.040569      -164.3722
  19   2.0000      -6.038141      -164.3062
  20   2.0000      -6.036687      -164.2666
  21   2.0000      -6.034127      -164.1969
  22   2.0000      -6.032964      -164.1653
  23   2.0000      -6.030564      -164.1000
  24   2.0000      -1.008104       -27.4319
  25   2.0000      -0.983337       -26.7580
  26   2.0000      -0.915329       -24.9074
  27   2.0000      -0.907229       -24.6870
  28   2.0000      -0.868395       -23.6302
  29   2.0000      -0.852661       -23.2021
  30   2.0000      -0.844490       -22.9797
  31   2.0000      -0.812587       -22.1116
  32   2.0000      -0.780799       -21.2466
  33   2.0000      -0.770355       -20.9624
  34   2.0000      -0.710983       -19.3468
  35   2.0000      -0.706760       -19.2319
  36   2.0000      -0.688418       -18.7328
  37   2.0000      -0.667072       -18.1520
  38   2.0000      -0.642513       -17.4837
  39   2.0000      -0.612333       -16.6624
  40   2.0000      -0.586987       -15.9727
  41   2.0000      -0.572641       -15.5823
  42   2.0000      -0.561125       -15.2690
  43   2.0000      -0.556536       -15.1441
  44   2.0000      -0.547048       -14.8859
  45   2.0000      -0.538327       -14.6486
  46   2.0000      -0.515854       -14.0371
  47   2.0000      -0.505530       -13.7562
  48   2.0000      -0.501486       -13.6461
  49   2.0000      -0.491647       -13.3784
  50   2.0000      -0.486687       -13.2434
  51   2.0000      -0.476258       -12.9597
  52   2.0000      -0.471699       -12.8356
  53   2.0000      -0.465807       -12.6752
  54   2.0000      -0.458708       -12.4821
  55   2.0000      -0.443772       -12.0756
  56   2.0000      -0.440113       -11.9761
  57   2.0000      -0.435439       -11.8489
  58   2.0000      -0.429642       -11.6912
  59   2.0000      -0.427949       -11.6451
  60   2.0000      -0.420884       -11.4528
  61   2.0000      -0.418435       -11.3862
  62   2.0000      -0.413346       -11.2477
  63   2.0000      -0.347557        -9.4575
  64   2.0000      -0.331575        -9.0226
  65   2.0000      -0.328093        -8.9279
  66   2.0000      -0.287993        -7.8367
  67   0.0000       0.024790         0.6746
  68   0.0000       0.073887         2.0106
  69   0.0000       0.109575         2.9817
  70   0.0000       0.114379         3.1124
  71   0.0000       0.128459         3.4956

MULLIKEN ATOMIC CHARGES
-----------------------
   0 S :    0.127071
   1 C :   -0.101809
   2 C :   -0.118393
   3 C :    0.039391
   4 C :   -0.142208
   5 H :    0.008186
   6 C :    0.038124
   7 H :    0.019243
   8 H :    0.045704
   9 C :   -0.042159
  10 H :    0.028925
  11 H :    0.018669
  12 C :   -0.084479
  13 H :    0.037143
  14 H :    0.019886
  15 H :    0.064367
  16 S :    0.109120
  17 C :   -0.082262
  18 C :   -0.059318
  19 C :   -0.012717
  20 C :   -0.166479
  21 H :    0.005419
  22 C :    0.062463
  23 H :    0.014205
  24 H :    0.033659
  25 C :    0.007795
  26 H :    0.022786
  27 H :    0.014955
  28 C :   -0.108539
  29 H :    0.027850
  30 H :    0.040305
  31 H :    0.052609
  32 H :    0.041588
  33 H :    0.038898
Sum of atomic charges:   -0.0000000

LOEWDIN ATOMIC CHARGES
----------------------
   0 S :    0.420972
   1 C :   -0.210202
   2 C :   -0.068391
   3 C :   -0.058821
   4 C :   -0.189358
   5 H :    0.031462
   6 C :   -0.035340
   7 H :    0.031622
   8 H :    0.035392
   9 C :   -0.035379
  10 H :    0.022744
  11 H :    0.017649
  12 C :   -0.067926
  13 H :    0.023301
  14 H :    0.021399
  15 H :    0.034157
  16 S :    0.406905
  17 C :   -0.183833
  18 C :   -0.067412
  19 C :   -0.055389
  20 C :   -0.196218
  21 H :    0.021685
  22 C :   -0.032677
  23 H :    0.031155
  24 H :    0.035460
  25 C :   -0.031316
  26 H :    0.028318
  27 H :    0.012299
  28 C :   -0.075360
  29 H :    0.023959
  30 H :    0.031477
  31 H :    0.032951
  32 H :    0.025362
  33 H :    0.019354

  Mayer bond orders larger than 0.100000
B(  0-S ,  1-C ) :   1.1527 B(  0-S ,  4-C ) :   1.1468 B(  1-C ,  2-C ) :   1.6008
B(  1-C , 32-H ) :   0.9678 B(  2-C ,  3-C ) :   1.2388 B(  2-C ,  6-C ) :   1.0210
B(  3-C ,  4-C ) :   1.5889 B(  3-C ,  5-H ) :   0.9945 B(  4-C , 20-C ) :   1.0456
B(  6-C ,  7-H ) :   0.9461 B(  6-C ,  8-H ) :   0.9423 B(  6-C ,  9-C ) :   1.0667
B(  9-C , 10-H ) :   0.9577 B(  9-C , 11-H ) :   0.9566 B(  9-C , 12-C ) :   1.0680
B( 12-C , 13-H ) :   0.9733 B( 12-C , 14-H ) :   0.9765 B( 12-C , 15-H ) :   0.9728
B( 16-S , 17-C ) :   1.1495 B( 16-S , 20-C ) :   1.1535 B( 17-C , 18-C ) :   1.6243
B( 17-C , 20-C ) :   0.1006 B( 17-C , 33-H ) :   0.9718 B( 18-C , 19-C ) :   1.2095
B( 18-C , 21-H ) :   0.9943 B( 19-C , 20-C ) :   1.5684 B( 19-C , 22-C ) :   1.0600
B( 22-C , 23-H ) :   0.9349 B( 22-C , 24-H ) :   0.9166 B( 22-C , 25-C ) :   1.0807
B( 25-C , 26-H ) :   0.9593 B( 25-C , 27-H ) :   0.9593 B( 25-C , 28-C ) :   1.0471
B( 28-C , 29-H ) :   0.9814 B( 28-C , 30-H ) :   0.9778 B( 28-C , 31-H ) :   0.9801

Dispersion correction           -0.016046532
FINAL SINGLE POINT ENERGY     -1339.870097858182

DIPOLE MOMENT
-------------
                                X             Y             Z
Electronic contribution:     -2.07312     -26.50377      -6.19499
Nuclear contribution   :      1.99542      27.12567       6.43165
                        -----------------------------------------
Total Dipole Moment    :     -0.07770       0.62190       0.23666
                        -----------------------------------------
Magnitude (a.u.)       :      0.66993
Magnitude (Debye)      :      1.70282

Rotational constants in cm-1:     0.021330     0.009649     0.007639
Rotational constants in MHz :   639.442538   289.255797   229.022134

                             ****ORCA TERMINATED NORMALLY****
TOTAL RUN TIME: 0 days 0 hours 0 minutes 23 seconds 358 msec
