                         Program Version 4.2.1 -  RELEASE  -
|  1> ! wB97X-D3 SP def2-SVP
|  2> %pal
|  3> nprocs 24
|  4> end
|  5>
|  6> * xyz 0 1
|  7> S 	 -124.251 	 27.5527 	 -112.651
|  8> C 	 -124.416 	 25.8424 	 -112.564
|  9> C 	 -124.967 	 25.4727 	 -111.351
| 10> C 	 -125.044 	 26.5754 	 -110.424
| 11> C 	 -124.465 	 27.7154 	 -110.918
| 12> H 	 -125.416 	 26.5585 	 -109.478
| 13> C 	 -125.318 	 24.0879 	 -110.878
| 14> H 	 -125.593 	 24.1115 	 -109.807
| 15> H 	 -124.569 	 23.3618 	 -111.011
| 16> C 	 -126.577 	 23.4941 	 -111.633
| 17> H 	 -127.32 	 24.241 	 -111.805
| 18> H 	 -126.402 	 23.1307 	 -112.656
| 19> C 	 -127.152 	 22.314 	 -110.752
| 20> H 	 -128.23 	 22.1936 	 -110.947
| 21> H 	 -126.636 	 21.3674 	 -110.817
| 22> H 	 -127.132 	 22.6503 	 -109.686
| 23> S 	 -123.258 	 30.2547 	 -111.037
| 24> C 	 -123.249 	 31.2992 	 -109.684
| 25> C 	 -124.218 	 30.8293 	 -108.782
| 26> C 	 -124.735 	 29.5306 	 -109.028
| 27> C 	 -124.293 	 28.9915 	 -110.246
| 28> H 	 -124.439 	 31.3937 	 -107.894
| 29> C 	 -125.572 	 28.9801 	 -107.907
| 30> H 	 -124.971 	 29.1798 	 -107.004
| 31> H 	 -125.659 	 27.9587 	 -107.95
| 32> C 	 -126.95 	 29.688 	 -107.723
| 33> H 	 -127.248 	 29.9812 	 -108.71
| 34> H 	 -126.799 	 30.6713 	 -107.278
| 35> C 	 -128.054 	 28.8324 	 -107.177
| 36> H 	 -128.586 	 28.1893 	 -107.867
| 37> H 	 -128.797 	 29.5215 	 -106.676
| 38> H 	 -127.695 	 28.2408 	 -106.283
| 39> H 	 -124.193 	 25.1384 	 -113.356
| 40> H 	 -122.799 	 32.2789 	 -109.585
| 41> *
| 42>
| 43>                          ****END OF INPUT****

CARTESIAN COORDINATES (ANGSTROEM)
---------------------------------
  S    -124.251000   27.552700  -112.651000
  C    -124.416000   25.842400  -112.564000
  C    -124.967000   25.472700  -111.351000
  C    -125.044000   26.575400  -110.424000
  C    -124.465000   27.715400  -110.918000
  H    -125.416000   26.558500  -109.478000
  C    -125.318000   24.087900  -110.878000
  H    -125.593000   24.111500  -109.807000
  H    -124.569000   23.361800  -111.011000
  C    -126.577000   23.494100  -111.633000
  H    -127.320000   24.241000  -111.805000
  H    -126.402000   23.130700  -112.656000
  C    -127.152000   22.314000  -110.752000
  H    -128.230000   22.193600  -110.947000
  H    -126.636000   21.367400  -110.817000
  H    -127.132000   22.650300  -109.686000
  S    -123.258000   30.254700  -111.037000
  C    -123.249000   31.299200  -109.684000
  C    -124.218000   30.829300  -108.782000
  C    -124.735000   29.530600  -109.028000
  C    -124.293000   28.991500  -110.246000
  H    -124.439000   31.393700  -107.894000
  C    -125.572000   28.980100  -107.907000
  H    -124.971000   29.179800  -107.004000
  H    -125.659000   27.958700  -107.950000
  C    -126.950000   29.688000  -107.723000
  H    -127.248000   29.981200  -108.710000
  H    -126.799000   30.671300  -107.278000
  C    -128.054000   28.832400  -107.177000
  H    -128.586000   28.189300  -107.867000
  H    -128.797000   29.521500  -106.676000
  H    -127.695000   28.240800  -106.283000
  H    -124.193000   25.138400  -113.356000
  H    -122.799000   32.278900  -109.585000

 Total Charge           Charge          ....    0
 Multiplicity           Mult            ....    1
 Number of Electrons    NEL             ....  134
 Basis Dimension        Dim             ....  322

ORBITAL ENERGIES
----------------

  NO   OCC          E(Eh)            E(eV)
   0   2.0000     -88.964822     -2420.8559
   1   2.0000     -88.963789     -2420.8278
   2   2.0000     -10.335861      -281.2531
   3   2.0000     -10.329803      -281.0882
   4   2.0000     -10.319547      -280.8091
   5   2.0000     -10.309667      -280.5403
   6   2.0000     -10.305895      -280.4376
   7   2.0000     -10.300330      -280.2862
   8   2.0000     -10.291457      -280.0448
   9   2.0000     -10.291432      -280.0441
  10   2.0000     -10.289472      -279.9908
  11   2.0000     -10.288612      -279.9674
  12   2.0000     -10.287455      -279.9359
  13   2.0000     -10.286049      -279.8976
  14   2.0000     -10.285872      -279.8928
  15   2.0000     -10.282622      -279.8044
  16   2.0000      -8.079199      -219.8462
  17   2.0000      -8.079057      -219.8423
  18   2.0000      -6.037805      -164.2970
  19   2.0000      -6.037694      -164.2940
  20   2.0000      -6.033712      -164.1857
  21   2.0000      -6.033644      -164.1838
  22   2.0000      -6.029969      -164.0838
  23   2.0000      -6.029443      -164.0695
  24   2.0000      -1.007537       -27.4165
  25   2.0000      -0.985844       -26.8262
  26   2.0000      -0.914615       -24.8879
  27   2.0000      -0.905502       -24.6400
  28   2.0000      -0.869661       -23.6647
  29   2.0000      -0.855582       -23.2816
  30   2.0000      -0.845945       -23.0193
  31   2.0000      -0.810940       -22.0668
  32   2.0000      -0.783054       -21.3080
  33   2.0000      -0.768918       -20.9233
  34   2.0000      -0.709129       -19.2964
  35   2.0000      -0.706877       -19.2351
  36   2.0000      -0.699231       -19.0270
  37   2.0000      -0.666386       -18.1333
  38   2.0000      -0.643659       -17.5148
  39   2.0000      -0.625885       -17.0312
  40   2.0000      -0.600577       -16.3425
  41   2.0000      -0.566738       -15.4217
  42   2.0000      -0.565058       -15.3760
  43   2.0000      -0.559229       -15.2174
  44   2.0000      -0.525623       -14.3029
  45   2.0000      -0.523988       -14.2584
  46   2.0000      -0.519346       -14.1321
  47   2.0000      -0.510099       -13.8805
  48   2.0000      -0.506757       -13.7896
  49   2.0000      -0.502848       -13.6832
  50   2.0000      -0.501479       -13.6459
  51   2.0000      -0.483498       -13.1567
  52   2.0000      -0.474165       -12.9027
  53   2.0000      -0.465948       -12.6791
  54   2.0000      -0.462276       -12.5792
  55   2.0000      -0.450640       -12.2626
  56   2.0000      -0.446233       -12.1426
  57   2.0000      -0.437765       -11.9122
  58   2.0000      -0.432452       -11.7676
  59   2.0000      -0.427188       -11.6244
  60   2.0000      -0.419520       -11.4157
  61   2.0000      -0.414167       -11.2701
  62   2.0000      -0.406889       -11.0720
  63   2.0000      -0.362278        -9.8581
  64   2.0000      -0.328490        -8.9387
  65   2.0000      -0.323627        -8.8063
  66   2.0000      -0.279515        -7.6060
  67   0.0000       0.015601         0.4245
  68   0.0000       0.079950         2.1755
  69   0.0000       0.099783         2.7152
  70   0.0000       0.119125         3.2416
  71   0.0000       0.136183         3.7057

MULLIKEN ATOMIC CHARGES
-----------------------
   0 S :    0.102793
   1 C :   -0.107935
   2 C :   -0.064400
   3 C :    0.014999
   4 C :   -0.073682
   5 H :   -0.050958
   6 C :    0.072030
   7 H :    0.021992
   8 H :    0.029312
   9 C :   -0.086117
  10 H :    0.024703
  11 H :    0.032284
  12 C :   -0.076645
  13 H :    0.036543
  14 H :    0.044181
  15 H :    0.024896
  16 S :    0.094922
  17 C :   -0.075957
  18 C :   -0.063427
  19 C :   -0.056702
  20 C :   -0.136001
  21 H :    0.014479
  22 C :    0.102140
  23 H :    0.036528
  24 H :   -0.016772
  25 C :   -0.063648
  26 H :    0.026574
  27 H :    0.027831
  28 C :   -0.066140
  29 H :    0.050642
  30 H :    0.036371
  31 H :    0.033220
  32 H :    0.045692
  33 H :    0.066251
Sum of atomic charges:   -0.0000000

LOEWDIN ATOMIC CHARGES
----------------------
   0 S :    0.407545
   1 C :   -0.206452
   2 C :   -0.058214
   3 C :   -0.056809
   4 C :   -0.176554
   5 H :    0.009554
   6 C :   -0.025761
   7 H :    0.031121
   8 H :    0.027045
   9 C :   -0.036480
  10 H :    0.018427
  11 H :    0.023163
  12 C :   -0.072265
  13 H :    0.028290
  14 H :    0.023652
  15 H :    0.025330
  16 S :    0.397972
  17 C :   -0.195483
  18 C :   -0.075104
  19 C :   -0.053985
  20 C :   -0.180249
  21 H :    0.024755
  22 C :   -0.023964
  23 H :    0.039600
  24 H :    0.010123
  25 C :   -0.043450
  26 H :    0.025905
  27 H :    0.025243
  28 C :   -0.072228
  29 H :    0.027608
  30 H :    0.036625
  31 H :    0.028751
  32 H :    0.030140
  33 H :    0.036151

  Mayer bond orders larger than 0.100000
B(  0-S ,  1-C ) :   1.1283 B(  0-S ,  4-C ) :   1.1427 B(  1-C ,  2-C ) :   1.6045
B(  1-C , 32-H ) :   0.9721 B(  2-C ,  3-C ) :   1.2296 B(  2-C ,  6-C ) :   1.0357
B(  3-C ,  4-C ) :   1.5641 B(  3-C ,  5-H ) :   1.0175 B(  4-C , 20-C ) :   1.1016
B(  6-C ,  7-H ) :   0.9505 B(  6-C ,  8-H ) :   0.9428 B(  6-C ,  9-C ) :   1.0408
B(  9-C , 10-H ) :   0.9639 B(  9-C , 11-H ) :   0.9579 B(  9-C , 12-C ) :   1.0692
B( 12-C , 13-H ) :   0.9767 B( 12-C , 14-H ) :   0.9787 B( 12-C , 15-H ) :   0.9773
B( 16-S , 17-C ) :   1.1716 B( 16-S , 20-C ) :   1.1225 B( 17-C , 18-C ) :   1.5761
B( 17-C , 20-C ) :   0.1049 B( 17-C , 33-H ) :   0.9673 B( 18-C , 19-C ) :   1.2695
B( 18-C , 21-H ) :   0.9871 B( 19-C , 20-C ) :   1.5575 B( 19-C , 22-C ) :   1.0414
B( 22-C , 23-H ) :   0.9265 B( 22-C , 24-H ) :   0.9409 B( 22-C , 25-C ) :   1.0412
B( 25-C , 26-H ) :   0.9585 B( 25-C , 27-H ) :   0.9523 B( 25-C , 28-C ) :   1.0882
B( 28-C , 29-H ) :   0.9759 B( 28-C , 30-H ) :   0.9707 B( 28-C , 31-H ) :   0.9729

Dispersion correction           -0.013240626
FINAL SINGLE POINT ENERGY     -1339.857695915308

DIPOLE MOMENT
-------------
                                X             Y             Z
Electronic contribution:     20.53416      17.75699     -16.44679
Nuclear contribution   :    -20.96597     -17.95269      17.03991
                        -----------------------------------------
Total Dipole Moment    :     -0.43181      -0.19570       0.59313
                        -----------------------------------------
Magnitude (a.u.)       :      0.75931
Magnitude (Debye)      :      1.93002

Rotational constants in cm-1:     0.017794     0.008396     0.005970
Rotational constants in MHz :   533.451202   251.690814   178.974701

                             ****ORCA TERMINATED NORMALLY****
TOTAL RUN TIME: 0 days 0 hours 0 minutes 20 seconds 29 msec
