                         Program Version 4.2.1 -  RELEASE  -
|  1> ! wB97X-D3 SP def2-SVP
|  2> %pal
|  3> nprocs 24
|  4> end
|  5>
|  6> * xyz 0 1
|  7> S 	 43.8685 	 -35.3758 	 -118.93
|  8> C 	 43.0799 	 -35.3962 	 -120.498
|  9> C 	 43.775 	 -34.783 	 -121.466
| 10> C 	 45.0159 	 -34.3173 	 -120.956
| 11> C 	 45.2508 	 -34.5461 	 -119.612
| 12> H 	 45.6975 	 -33.7304 	 -121.542
| 13> C 	 43.2407 	 -34.4759 	 -122.826
| 14> H 	 43.7408 	 -35.2324 	 -123.39
| 15> H 	 43.6176 	 -33.4282 	 -122.991
| 16> C 	 41.7767 	 -34.5756 	 -123.002
| 17> H 	 41.5328 	 -34.398 	 -124.019
| 18> H 	 41.3843 	 -35.5635 	 -122.69
| 19> C 	 41.0094 	 -33.6121 	 -122.178
| 20> H 	 41.1625 	 -33.6324 	 -121.09
| 21> H 	 41.1841 	 -32.5177 	 -122.492
| 22> H 	 40.0075 	 -33.7314 	 -122.271
| 23> S 	 47.395 	 -35.4897 	 -118.1
| 24> C 	 48.5589 	 -34.3575 	 -117.44
| 25> C 	 48.2252 	 -33.0928 	 -117.848
| 26> C 	 47.0781 	 -32.9657 	 -118.655
| 27> C 	 46.4276 	 -34.1954 	 -118.899
| 28> H 	 48.8412 	 -32.2625 	 -117.582
| 29> C 	 46.5522 	 -31.5776 	 -119.086
| 30> H 	 46.0178 	 -31.3585 	 -118.19
| 31> H 	 45.8972 	 -31.8574 	 -119.897
| 32> C 	 47.6054 	 -30.4233 	 -119.456
| 33> H 	 48.0156 	 -30.7687 	 -120.413
| 34> H 	 48.3699 	 -30.4276 	 -118.708
| 35> C 	 47.0221 	 -29.009 	 -119.491
| 36> H 	 46.1171 	 -29.0394 	 -120.11
| 37> H 	 47.6886 	 -28.1573 	 -119.713
| 38> H 	 46.6614 	 -28.8249 	 -118.516
| 39> H 	 42.1613 	 -36.0015 	 -120.728
| 40> H 	 49.4857 	 -34.5052 	 -116.96
| 41> *
| 42>
| 43>                          ****END OF INPUT****

CARTESIAN COORDINATES (ANGSTROEM)
---------------------------------
  S     43.868500  -35.375800  -118.930000
  C     43.079900  -35.396200  -120.498000
  C     43.775000  -34.783000  -121.466000
  C     45.015900  -34.317300  -120.956000
  C     45.250800  -34.546100  -119.612000
  H     45.697500  -33.730400  -121.542000
  C     43.240700  -34.475900  -122.826000
  H     43.740800  -35.232400  -123.390000
  H     43.617600  -33.428200  -122.991000
  C     41.776700  -34.575600  -123.002000
  H     41.532800  -34.398000  -124.019000
  H     41.384300  -35.563500  -122.690000
  C     41.009400  -33.612100  -122.178000
  H     41.162500  -33.632400  -121.090000
  H     41.184100  -32.517700  -122.492000
  H     40.007500  -33.731400  -122.271000
  S     47.395000  -35.489700  -118.100000
  C     48.558900  -34.357500  -117.440000
  C     48.225200  -33.092800  -117.848000
  C     47.078100  -32.965700  -118.655000
  C     46.427600  -34.195400  -118.899000
  H     48.841200  -32.262500  -117.582000
  C     46.552200  -31.577600  -119.086000
  H     46.017800  -31.358500  -118.190000
  H     45.897200  -31.857400  -119.897000
  C     47.605400  -30.423300  -119.456000
  H     48.015600  -30.768700  -120.413000
  H     48.369900  -30.427600  -118.708000
  C     47.022100  -29.009000  -119.491000
  H     46.117100  -29.039400  -120.110000
  H     47.688600  -28.157300  -119.713000
  H     46.661400  -28.824900  -118.516000
  H     42.161300  -36.001500  -120.728000
  H     49.485700  -34.505200  -116.960000

 Total Charge           Charge          ....    0
 Multiplicity           Mult            ....    1
 Number of Electrons    NEL             ....  134
 Basis Dimension        Dim             ....  322

ORBITAL ENERGIES
----------------

  NO   OCC          E(Eh)            E(eV)
   0   2.0000     -88.964195     -2420.8388
   1   2.0000     -88.963672     -2420.8246
   2   2.0000     -10.328120      -281.0424
   3   2.0000     -10.326563      -281.0001
   4   2.0000     -10.314226      -280.6644
   5   2.0000     -10.309600      -280.5385
   6   2.0000     -10.305523      -280.4275
   7   2.0000     -10.294202      -280.1195
   8   2.0000     -10.292966      -280.0858
   9   2.0000     -10.291304      -280.0406
  10   2.0000     -10.291093      -280.0349
  11   2.0000     -10.290728      -280.0250
  12   2.0000     -10.285047      -279.8704
  13   2.0000     -10.284243      -279.8485
  14   2.0000     -10.279507      -279.7196
  15   2.0000     -10.269824      -279.4561
  16   2.0000      -8.078947      -219.8393
  17   2.0000      -8.077410      -219.7975
  18   2.0000      -6.037495      -164.2886
  19   2.0000      -6.036026      -164.2486
  20   2.0000      -6.033529      -164.1807
  21   2.0000      -6.031946      -164.1376
  22   2.0000      -6.029574      -164.0731
  23   2.0000      -6.028201      -164.0357
  24   2.0000      -1.006655       -27.3925
  25   2.0000      -0.983656       -26.7666
  26   2.0000      -0.929481       -25.2925
  27   2.0000      -0.902103       -24.5475
  28   2.0000      -0.874803       -23.8046
  29   2.0000      -0.854725       -23.2582
  30   2.0000      -0.848137       -23.0790
  31   2.0000      -0.813663       -22.1409
  32   2.0000      -0.789500       -21.4834
  33   2.0000      -0.772670       -21.0254
  34   2.0000      -0.712508       -19.3883
  35   2.0000      -0.709126       -19.2963
  36   2.0000      -0.703633       -19.1468
  37   2.0000      -0.655466       -17.8361
  38   2.0000      -0.634003       -17.2521
  39   2.0000      -0.610759       -16.6196
  40   2.0000      -0.588459       -16.0128
  41   2.0000      -0.585840       -15.9415
  42   2.0000      -0.573449       -15.6043
  43   2.0000      -0.568187       -15.4612
  44   2.0000      -0.543142       -14.7796
  45   2.0000      -0.531221       -14.4553
  46   2.0000      -0.516456       -14.0535
  47   2.0000      -0.513323       -13.9682
  48   2.0000      -0.510722       -13.8974
  49   2.0000      -0.499370       -13.5885
  50   2.0000      -0.490878       -13.3575
  51   2.0000      -0.482413       -13.1271
  52   2.0000      -0.470130       -12.7929
  53   2.0000      -0.463241       -12.6054
  54   2.0000      -0.458854       -12.4860
  55   2.0000      -0.449448       -12.2301
  56   2.0000      -0.445790       -12.1306
  57   2.0000      -0.437961       -11.9175
  58   2.0000      -0.431650       -11.7458
  59   2.0000      -0.427904       -11.6438
  60   2.0000      -0.421459       -11.4685
  61   2.0000      -0.416151       -11.3241
  62   2.0000      -0.412458       -11.2235
  63   2.0000      -0.339898        -9.2491
  64   2.0000      -0.329860        -8.9759
  65   2.0000      -0.327228        -8.9043
  66   2.0000      -0.294062        -8.0018
  67   0.0000       0.030969         0.8427
  68   0.0000       0.066117         1.7991
  69   0.0000       0.116126         3.1599
  70   0.0000       0.126763         3.4494
  71   0.0000       0.131650         3.5824

MULLIKEN ATOMIC CHARGES
-----------------------
   0 S :    0.119629
   1 C :   -0.154886
   2 C :   -0.126659
   3 C :    0.036604
   4 C :   -0.176134
   5 H :   -0.000304
   6 C :    0.128313
   7 H :    0.037776
   8 H :    0.037112
   9 C :   -0.044795
  10 H :    0.024934
  11 H :    0.021730
  12 C :   -0.055784
  13 H :    0.042936
  14 H :    0.024770
  15 H :    0.006346
  16 S :    0.102890
  17 C :   -0.055558
  18 C :   -0.055607
  19 C :   -0.037062
  20 C :   -0.176244
  21 H :    0.005509
  22 C :    0.077946
  23 H :    0.039531
  24 H :    0.021530
  25 C :   -0.071443
  26 H :    0.037022
  27 H :    0.024013
  28 C :   -0.029104
  29 H :    0.031252
  30 H :    0.049556
  31 H :    0.012476
  32 H :    0.060387
  33 H :    0.041320
Sum of atomic charges:   -0.0000000

LOEWDIN ATOMIC CHARGES
----------------------
   0 S :    0.401434
   1 C :   -0.203761
   2 C :   -0.073136
   3 C :   -0.054815
   4 C :   -0.201412
   5 H :    0.024718
   6 C :   -0.027752
   7 H :    0.037642
   8 H :    0.041622
   9 C :   -0.042061
  10 H :    0.027447
  11 H :    0.027346
  12 C :   -0.065511
  13 H :    0.028627
  14 H :    0.029978
  15 H :    0.010450
  16 S :    0.389179
  17 C :   -0.176421
  18 C :   -0.079268
  19 C :   -0.047046
  20 C :   -0.195441
  21 H :    0.024220
  22 C :   -0.025685
  23 H :    0.033578
  24 H :    0.026958
  25 C :   -0.032354
  26 H :    0.025344
  27 H :    0.015915
  28 C :   -0.065680
  29 H :    0.028139
  30 H :    0.033406
  31 H :    0.020044
  32 H :    0.036535
  33 H :    0.027762

  Mayer bond orders larger than 0.100000
B(  0-S ,  1-C ) :   1.1249 B(  0-S ,  4-C ) :   1.1402 B(  1-C ,  2-C ) :   1.6523
B(  1-C , 32-H ) :   0.9450 B(  2-C ,  3-C ) :   1.2564 B(  2-C ,  6-C ) :   0.9722
B(  3-C ,  4-C ) :   1.5679 B(  3-C ,  5-H ) :   0.9950 B(  4-C , 20-C ) :   1.0799
B(  6-C ,  7-H ) :   0.9153 B(  6-C ,  8-H ) :   0.9439 B(  6-C ,  9-C ) :   1.1136
B(  9-C , 10-H ) :   0.9441 B(  9-C , 11-H ) :   0.9400 B(  9-C , 12-C ) :   1.0905
B( 12-C , 13-H ) :   0.9703 B( 12-C , 14-H ) :   0.9687 B( 12-C , 15-H ) :   0.9692
B( 16-S , 17-C ) :   1.1547 B( 16-S , 20-C ) :   1.1281 B( 17-C , 18-C ) :   1.6042
B( 17-C , 20-C ) :   0.1083 B( 17-C , 33-H ) :   0.9676 B( 18-C , 19-C ) :   1.2694
B( 18-C , 21-H ) :   0.9867 B( 19-C , 20-C ) :   1.5671 B( 19-C , 22-C ) :   1.0076
B( 22-C , 23-H ) :   0.9365 B( 22-C , 24-H ) :   0.9317 B( 22-C , 25-C ) :   1.0533
B( 25-C , 26-H ) :   0.9603 B( 25-C , 27-H ) :   0.9574 B( 25-C , 28-C ) :   1.0788
B( 28-C , 29-H ) :   0.9752 B( 28-C , 30-H ) :   0.9743 B( 28-C , 31-H ) :   0.9724

Dispersion correction           -0.013827237
FINAL SINGLE POINT ENERGY     -1339.860034346207

DIPOLE MOMENT
-------------
                                X             Y             Z
Electronic contribution:      8.53105     -21.79762      14.72438
Nuclear contribution   :     -8.59037      22.37785     -15.18217
                        -----------------------------------------
Total Dipole Moment    :     -0.05932       0.58023      -0.45779
                        -----------------------------------------
Magnitude (a.u.)       :      0.74145
Magnitude (Debye)      :      1.88463

Rotational constants in cm-1:     0.018288     0.008282     0.006187
Rotational constants in MHz :   548.249724   248.288955   185.493547

                             ****ORCA TERMINATED NORMALLY****
TOTAL RUN TIME: 0 days 0 hours 0 minutes 21 seconds 295 msec
