                         Program Version 4.2.1 -  RELEASE  -
|  1> ! wB97X-D3 SP def2-SVP
|  2> %pal
|  3> nprocs 24
|  4> end
|  5>
|  6> * xyz 0 1
|  7> S 	 -62.2657 	 11.0889 	 -18.2694
|  8> C 	 -63.8585 	 10.3293 	 -18.0042
|  9> C 	 -63.7537 	 8.97519 	 -18.2912
| 10> C 	 -62.5043 	 8.66212 	 -18.9163
| 11> C 	 -61.5728 	 9.68224 	 -18.9364
| 12> H 	 -62.324 	 7.67333 	 -19.2703
| 13> C 	 -64.9586 	 8.01525 	 -18.1944
| 14> H 	 -64.8078 	 7.40445 	 -19.075
| 15> H 	 -65.9426 	 8.59622 	 -18.3422
| 16> C 	 -64.923 	 6.97122 	 -17.1034
| 17> H 	 -63.9533 	 6.56545 	 -16.9901
| 18> H 	 -65.1688 	 7.50469 	 -16.1966
| 19> C 	 -65.9166 	 5.83704 	 -17.4348
| 20> H 	 -65.7931 	 5.0426 	 -16.7723
| 21> H 	 -66.8814 	 6.3341 	 -17.2906
| 22> H 	 -65.8546 	 5.45386 	 -18.442
| 23> S 	 -59.9567 	 8.80169 	 -21.0783
| 24> C 	 -58.2632 	 9.34662 	 -21.0031
| 25> C 	 -57.9142 	 9.84348 	 -19.7717
| 26> C 	 -59.0174 	 10.0658 	 -18.9045
| 27> C 	 -60.231 	 9.58703 	 -19.4694
| 28> H 	 -56.8945 	 10.044 	 -19.5501
| 29> C 	 -58.8593 	 10.7026 	 -17.5051
| 30> H 	 -59.8084 	 10.8348 	 -17.0865
| 31> H 	 -58.5431 	 11.7447 	 -17.6123
| 32> C 	 -57.8086 	 9.9168 	 -16.6011
| 33> H 	 -57.8313 	 10.3712 	 -15.5826
| 34> H 	 -56.7938 	 10.1365 	 -16.8917
| 35> C 	 -58.1584 	 8.45136 	 -16.5209
| 36> H 	 -57.3997 	 7.97199 	 -15.9042
| 37> H 	 -58.3384 	 7.83615 	 -17.4164
| 38> H 	 -59.0129 	 8.43701 	 -15.9154
| 39> H 	 -64.6983 	 10.7674 	 -17.5367
| 40> H 	 -57.5249 	 9.03154 	 -21.7076
| 41> *
| 42>
| 43>                          ****END OF INPUT****

CARTESIAN COORDINATES (ANGSTROEM)
---------------------------------
  S    -62.265700   11.088900  -18.269400
  C    -63.858500   10.329300  -18.004200
  C    -63.753700    8.975190  -18.291200
  C    -62.504300    8.662120  -18.916300
  C    -61.572800    9.682240  -18.936400
  H    -62.324000    7.673330  -19.270300
  C    -64.958600    8.015250  -18.194400
  H    -64.807800    7.404450  -19.075000
  H    -65.942600    8.596220  -18.342200
  C    -64.923000    6.971220  -17.103400
  H    -63.953300    6.565450  -16.990100
  H    -65.168800    7.504690  -16.196600
  C    -65.916600    5.837040  -17.434800
  H    -65.793100    5.042600  -16.772300
  H    -66.881400    6.334100  -17.290600
  H    -65.854600    5.453860  -18.442000
  S    -59.956700    8.801690  -21.078300
  C    -58.263200    9.346620  -21.003100
  C    -57.914200    9.843480  -19.771700
  C    -59.017400   10.065800  -18.904500
  C    -60.231000    9.587030  -19.469400
  H    -56.894500   10.044000  -19.550100
  C    -58.859300   10.702600  -17.505100
  H    -59.808400   10.834800  -17.086500
  H    -58.543100   11.744700  -17.612300
  C    -57.808600    9.916800  -16.601100
  H    -57.831300   10.371200  -15.582600
  H    -56.793800   10.136500  -16.891700
  C    -58.158400    8.451360  -16.520900
  H    -57.399700    7.971990  -15.904200
  H    -58.338400    7.836150  -17.416400
  H    -59.012900    8.437010  -15.915400
  H    -64.698300   10.767400  -17.536700
  H    -57.524900    9.031540  -21.707600

 Total Charge           Charge          ....    0
 Multiplicity           Mult            ....    1
 Number of Electrons    NEL             ....  134
 Basis Dimension        Dim             ....  322

ORBITAL ENERGIES
----------------

  NO   OCC          E(Eh)            E(eV)
   0   2.0000     -88.968920     -2420.9674
   1   2.0000     -88.966245     -2420.8946
   2   2.0000     -10.333595      -281.1914
   3   2.0000     -10.327354      -281.0216
   4   2.0000     -10.317166      -280.7444
   5   2.0000     -10.311618      -280.5934
   6   2.0000     -10.308268      -280.5022
   7   2.0000     -10.301524      -280.3187
   8   2.0000     -10.295775      -280.1623
   9   2.0000     -10.291781      -280.0536
  10   2.0000     -10.291457      -280.0448
  11   2.0000     -10.290667      -280.0233
  12   2.0000     -10.289161      -279.9823
  13   2.0000     -10.281344      -279.7696
  14   2.0000     -10.273912      -279.5674
  15   2.0000     -10.267857      -279.4026
  16   2.0000      -8.082039      -219.9235
  17   2.0000      -8.080777      -219.8891
  18   2.0000      -6.040674      -164.3751
  19   2.0000      -6.039383      -164.3400
  20   2.0000      -6.036995      -164.2750
  21   2.0000      -6.035166      -164.2252
  22   2.0000      -6.032555      -164.1542
  23   2.0000      -6.031582      -164.1277
  24   2.0000      -1.003877       -27.3169
  25   2.0000      -0.977642       -26.6030
  26   2.0000      -0.915954       -24.9244
  27   2.0000      -0.902771       -24.5657
  28   2.0000      -0.870944       -23.6996
  29   2.0000      -0.849753       -23.1230
  30   2.0000      -0.842045       -22.9132
  31   2.0000      -0.812307       -22.1040
  32   2.0000      -0.784262       -21.3409
  33   2.0000      -0.773131       -21.0380
  34   2.0000      -0.709347       -19.3023
  35   2.0000      -0.702898       -19.1268
  36   2.0000      -0.696014       -18.9395
  37   2.0000      -0.660900       -17.9840
  38   2.0000      -0.636122       -17.3098
  39   2.0000      -0.617261       -16.7965
  40   2.0000      -0.596260       -16.2251
  41   2.0000      -0.570850       -15.5336
  42   2.0000      -0.568638       -15.4734
  43   2.0000      -0.549102       -14.9418
  44   2.0000      -0.541011       -14.7216
  45   2.0000      -0.528195       -14.3729
  46   2.0000      -0.521320       -14.1858
  47   2.0000      -0.511498       -13.9186
  48   2.0000      -0.500816       -13.6279
  49   2.0000      -0.493695       -13.4341
  50   2.0000      -0.491911       -13.3856
  51   2.0000      -0.477670       -12.9981
  52   2.0000      -0.466309       -12.6889
  53   2.0000      -0.461757       -12.5650
  54   2.0000      -0.459988       -12.5169
  55   2.0000      -0.453291       -12.3347
  56   2.0000      -0.449944       -12.2436
  57   2.0000      -0.440526       -11.9873
  58   2.0000      -0.430693       -11.7197
  59   2.0000      -0.426292       -11.6000
  60   2.0000      -0.420988       -11.4557
  61   2.0000      -0.413591       -11.2544
  62   2.0000      -0.408422       -11.1137
  63   2.0000      -0.348627        -9.4866
  64   2.0000      -0.332136        -9.0379
  65   2.0000      -0.328442        -8.9374
  66   2.0000      -0.287044        -7.8109
  67   0.0000       0.025214         0.6861
  68   0.0000       0.069866         1.9012
  69   0.0000       0.098842         2.6896
  70   0.0000       0.120635         3.2826
  71   0.0000       0.129420         3.5217

MULLIKEN ATOMIC CHARGES
-----------------------
   0 S :    0.106857
   1 C :   -0.124582
   2 C :   -0.074729
   3 C :    0.007231
   4 C :   -0.113206
   5 H :   -0.004241
   6 C :    0.013578
   7 H :    0.011569
   8 H :    0.047446
   9 C :   -0.042090
  10 H :    0.019583
  11 H :    0.024817
  12 C :   -0.023031
  13 H :    0.024939
  14 H :    0.029140
  15 H :    0.031120
  16 S :    0.100584
  17 C :   -0.080396
  18 C :   -0.018374
  19 C :   -0.074660
  20 C :   -0.145054
  21 H :    0.010542
  22 C :    0.117657
  23 H :   -0.005515
  24 H :    0.032673
  25 C :   -0.093564
  26 H :    0.032352
  27 H :    0.024435
  28 C :   -0.022384
  29 H :    0.023273
  30 H :    0.059843
  31 H :    0.017088
  32 H :    0.034761
  33 H :    0.052341
Sum of atomic charges:   -0.0000000

LOEWDIN ATOMIC CHARGES
----------------------
   0 S :    0.421126
   1 C :   -0.189960
   2 C :   -0.057688
   3 C :   -0.071799
   4 C :   -0.204541
   5 H :    0.021793
   6 C :   -0.036842
   7 H :    0.027631
   8 H :    0.039957
   9 C :   -0.034420
  10 H :    0.018404
  11 H :    0.022593
  12 C :   -0.054257
  13 H :    0.017413
  14 H :    0.029736
  15 H :    0.023812
  16 S :    0.370959
  17 C :   -0.169345
  18 C :   -0.062564
  19 C :   -0.048258
  20 C :   -0.178961
  21 H :    0.028428
  22 C :   -0.028168
  23 H :    0.008372
  24 H :    0.034805
  25 C :   -0.036766
  26 H :    0.032254
  27 H :    0.015288
  28 C :   -0.066836
  29 H :    0.026822
  30 H :    0.033233
  31 H :    0.022534
  32 H :    0.020902
  33 H :    0.024342

  Mayer bond orders larger than 0.100000
B(  0-S ,  1-C ) :   1.1307 B(  0-S ,  4-C ) :   1.1573 B(  1-C ,  2-C ) :   1.5920
B(  1-C , 32-H ) :   0.9773 B(  2-C ,  3-C ) :   1.2716 B(  2-C ,  6-C ) :   1.0104
B(  3-C ,  4-C ) :   1.5287 B(  3-C ,  5-H ) :   0.9964 B(  4-C , 20-C ) :   1.0666
B(  6-C ,  7-H ) :   0.9413 B(  6-C ,  8-H ) :   0.9512 B(  6-C ,  9-C ) :   1.0548
B(  9-C , 10-H ) :   0.9558 B(  9-C , 11-H ) :   0.9542 B(  9-C , 12-C ) :   1.0761
B( 12-C , 13-H ) :   0.9760 B( 12-C , 14-H ) :   0.9764 B( 12-C , 15-H ) :   0.9774
B( 16-S , 17-C ) :   1.1354 B( 16-S , 20-C ) :   1.1231 B( 17-C , 18-C ) :   1.6357
B( 17-C , 20-C ) :   0.1006 B( 17-C , 33-H ) :   0.9642 B( 18-C , 19-C ) :   1.2272
B( 18-C , 21-H ) :   0.9927 B( 19-C , 20-C ) :   1.5715 B( 19-C , 22-C ) :   1.0420
B( 22-C , 23-H ) :   0.9261 B( 22-C , 24-H ) :   0.9334 B( 22-C , 25-C ) :   1.0600
B( 25-C , 26-H ) :   0.9552 B( 25-C , 27-H ) :   0.9593 B( 25-C , 28-C ) :   1.0708
B( 28-C , 29-H ) :   0.9697 B( 28-C , 30-H ) :   0.9733 B( 28-C , 31-H ) :   0.9743

Dispersion correction           -0.014291293
FINAL SINGLE POINT ENERGY     -1339.869188341895

DIPOLE MOMENT
-------------
                                X             Y             Z
Electronic contribution:      4.90190      13.03186     -16.22284
Nuclear contribution   :     -4.82663     -13.36174      16.65445
                        -----------------------------------------
Total Dipole Moment    :      0.07527      -0.32988       0.43161
                        -----------------------------------------
Magnitude (a.u.)       :      0.54843
Magnitude (Debye)      :      1.39399

Rotational constants in cm-1:     0.020347     0.007442     0.007034
Rotational constants in MHz :   609.992333   223.091320   210.883964

                             ****ORCA TERMINATED NORMALLY****
TOTAL RUN TIME: 0 days 0 hours 0 minutes 20 seconds 354 msec
