                         Program Version 4.2.1 -  RELEASE  -
|  1> ! wB97X-D3 SP def2-SVP
|  2> %pal
|  3> nprocs 24
|  4> end
|  5>
|  6> * xyz 0 1
|  7> S 	 -129.868 	 60.7156 	 -60.7218
|  8> C 	 -129.553 	 61.3385 	 -62.2749
|  9> C 	 -128.885 	 62.5027 	 -62.3249
| 10> C 	 -128.674 	 63.0095 	 -60.9669
| 11> C 	 -129.011 	 62.0576 	 -59.99
| 12> H 	 -128.195 	 64.0074 	 -60.6804
| 13> C 	 -128.784 	 63.3325 	 -63.5918
| 14> H 	 -129.719 	 63.2843 	 -64.1594
| 15> H 	 -128.049 	 62.774 	 -64.2711
| 16> C 	 -128.235 	 64.7764 	 -63.4865
| 17> H 	 -128.416 	 65.2609 	 -64.4981
| 18> H 	 -128.684 	 65.4039 	 -62.7518
| 19> C 	 -126.77 	 64.8394 	 -63.1619
| 20> H 	 -126.392 	 65.7686 	 -63.5717
| 21> H 	 -126.685 	 64.8421 	 -62.0814
| 22> H 	 -126.094 	 64.1405 	 -63.5741
| 23> S 	 -127.015 	 62.6235 	 -58.2738
| 24> C 	 -127.363 	 62.5174 	 -56.6161
| 25> C 	 -128.61 	 61.9101 	 -56.3977
| 26> C 	 -129.462 	 61.8849 	 -57.5123
| 27> C 	 -128.702 	 62.1517 	 -58.6508
| 28> H 	 -128.91 	 61.52 	 -55.4009
| 29> C 	 -130.915 	 61.398 	 -57.4767
| 30> H 	 -130.855 	 60.2863 	 -57.5441
| 31> H 	 -131.413 	 61.834 	 -58.3158
| 32> C 	 -131.66 	 61.834 	 -56.2552
| 33> H 	 -131.792 	 62.9222 	 -56.1729
| 34> H 	 -131.13 	 61.5249 	 -55.3256
| 35> C 	 -133.126 	 61.3382 	 -56.2163
| 36> H 	 -133.755 	 61.7005 	 -57.034
| 37> H 	 -133.519 	 61.6539 	 -55.2012
| 38> H 	 -133.195 	 60.1964 	 -56.3201
| 39> H 	 -130.006 	 60.9744 	 -63.1848
| 40> H 	 -126.67 	 62.7556 	 -55.8977
| 41> *
| 42>
| 43>                          ****END OF INPUT****

CARTESIAN COORDINATES (ANGSTROEM)
---------------------------------
  S    -129.868000   60.715600  -60.721800
  C    -129.553000   61.338500  -62.274900
  C    -128.885000   62.502700  -62.324900
  C    -128.674000   63.009500  -60.966900
  C    -129.011000   62.057600  -59.990000
  H    -128.195000   64.007400  -60.680400
  C    -128.784000   63.332500  -63.591800
  H    -129.719000   63.284300  -64.159400
  H    -128.049000   62.774000  -64.271100
  C    -128.235000   64.776400  -63.486500
  H    -128.416000   65.260900  -64.498100
  H    -128.684000   65.403900  -62.751800
  C    -126.770000   64.839400  -63.161900
  H    -126.392000   65.768600  -63.571700
  H    -126.685000   64.842100  -62.081400
  H    -126.094000   64.140500  -63.574100
  S    -127.015000   62.623500  -58.273800
  C    -127.363000   62.517400  -56.616100
  C    -128.610000   61.910100  -56.397700
  C    -129.462000   61.884900  -57.512300
  C    -128.702000   62.151700  -58.650800
  H    -128.910000   61.520000  -55.400900
  C    -130.915000   61.398000  -57.476700
  H    -130.855000   60.286300  -57.544100
  H    -131.413000   61.834000  -58.315800
  C    -131.660000   61.834000  -56.255200
  H    -131.792000   62.922200  -56.172900
  H    -131.130000   61.524900  -55.325600
  C    -133.126000   61.338200  -56.216300
  H    -133.755000   61.700500  -57.034000
  H    -133.519000   61.653900  -55.201200
  H    -133.195000   60.196400  -56.320100
  H    -130.006000   60.974400  -63.184800
  H    -126.670000   62.755600  -55.897700

 Total Charge           Charge          ....    0
 Multiplicity           Mult            ....    1
 Number of Electrons    NEL             ....  134
 Basis Dimension        Dim             ....  322

ORBITAL ENERGIES
----------------

  NO   OCC          E(Eh)            E(eV)
   0   2.0000     -88.965668     -2420.8789
   1   2.0000     -88.965421     -2420.8722
   2   2.0000     -10.319951      -280.8201
   3   2.0000     -10.317577      -280.7555
   4   2.0000     -10.309017      -280.5226
   5   2.0000     -10.302435      -280.3435
   6   2.0000     -10.300980      -280.3039
   7   2.0000     -10.300257      -280.2842
   8   2.0000     -10.298009      -280.2231
   9   2.0000     -10.296716      -280.1879
  10   2.0000     -10.294446      -280.1261
  11   2.0000     -10.294057      -280.1155
  12   2.0000     -10.289140      -279.9817
  13   2.0000     -10.288935      -279.9762
  14   2.0000     -10.288329      -279.9597
  15   2.0000     -10.268021      -279.4071
  16   2.0000      -8.080703      -219.8871
  17   2.0000      -8.080654      -219.8858
  18   2.0000      -6.039167      -164.3341
  19   2.0000      -6.038889      -164.3265
  20   2.0000      -6.035239      -164.2272
  21   2.0000      -6.035201      -164.2262
  22   2.0000      -6.031558      -164.1270
  23   2.0000      -6.031437      -164.1237
  24   2.0000      -1.010605       -27.5000
  25   2.0000      -0.986093       -26.8330
  26   2.0000      -0.914684       -24.8898
  27   2.0000      -0.911663       -24.8076
  28   2.0000      -0.878443       -23.9036
  29   2.0000      -0.853714       -23.2307
  30   2.0000      -0.846046       -23.0221
  31   2.0000      -0.805314       -21.9137
  32   2.0000      -0.785259       -21.3680
  33   2.0000      -0.771747       -21.0003
  34   2.0000      -0.710348       -19.3296
  35   2.0000      -0.699294       -19.0287
  36   2.0000      -0.688970       -18.7478
  37   2.0000      -0.658402       -17.9160
  38   2.0000      -0.631350       -17.1799
  39   2.0000      -0.614615       -16.7245
  40   2.0000      -0.604697       -16.4546
  41   2.0000      -0.570626       -15.5275
  42   2.0000      -0.567518       -15.4430
  43   2.0000      -0.544668       -14.8212
  44   2.0000      -0.537812       -14.6346
  45   2.0000      -0.530197       -14.4274
  46   2.0000      -0.515917       -14.0388
  47   2.0000      -0.510293       -13.8858
  48   2.0000      -0.507816       -13.8184
  49   2.0000      -0.495302       -13.4778
  50   2.0000      -0.486638       -13.2421
  51   2.0000      -0.484239       -13.1768
  52   2.0000      -0.478738       -13.0271
  53   2.0000      -0.461695       -12.5633
  54   2.0000      -0.457369       -12.4456
  55   2.0000      -0.450629       -12.2622
  56   2.0000      -0.443342       -12.0639
  57   2.0000      -0.435125       -11.8404
  58   2.0000      -0.432347       -11.7648
  59   2.0000      -0.425001       -11.5649
  60   2.0000      -0.422746       -11.5035
  61   2.0000      -0.414080       -11.2677
  62   2.0000      -0.413089       -11.2407
  63   2.0000      -0.344241        -9.3673
  64   2.0000      -0.330559        -8.9950
  65   2.0000      -0.326968        -8.8973
  66   2.0000      -0.281734        -7.6664
  67   0.0000       0.022554         0.6137
  68   0.0000       0.078520         2.1366
  69   0.0000       0.105798         2.8789
  70   0.0000       0.112428         3.0593
  71   0.0000       0.132281         3.5996

MULLIKEN ATOMIC CHARGES
-----------------------
   0 S :    0.124249
   1 C :   -0.111327
   2 C :   -0.051450
   3 C :   -0.031031
   4 C :   -0.174471
   5 H :    0.045120
   6 C :    0.012390
   7 H :    0.038588
   8 H :    0.041661
   9 C :   -0.074394
  10 H :    0.035746
  11 H :    0.028658
  12 C :   -0.031247
  13 H :    0.022513
  14 H :    0.027176
  15 H :    0.021073
  16 S :    0.126110
  17 C :   -0.068133
  18 C :   -0.055387
  19 C :   -0.048317
  20 C :   -0.154004
  21 H :    0.029297
  22 C :    0.108456
  23 H :    0.053959
  24 H :    0.023585
  25 C :   -0.119172
  26 H :    0.038727
  27 H :    0.032226
  28 C :   -0.076345
  29 H :    0.039402
  30 H :    0.047061
  31 H :    0.033715
  32 H :    0.036833
  33 H :    0.028734
Sum of atomic charges:   -0.0000000

LOEWDIN ATOMIC CHARGES
----------------------
   0 S :    0.424022
   1 C :   -0.207539
   2 C :   -0.070582
   3 C :   -0.070905
   4 C :   -0.206048
   5 H :    0.038140
   6 C :   -0.038676
   7 H :    0.030996
   8 H :    0.041692
   9 C :   -0.043874
  10 H :    0.032710
  11 H :    0.021366
  12 C :   -0.062802
  13 H :    0.028448
  14 H :    0.022803
  15 H :    0.018599
  16 S :    0.426322
  17 C :   -0.191106
  18 C :   -0.071387
  19 C :   -0.053134
  20 C :   -0.191370
  21 H :    0.031483
  22 C :   -0.032225
  23 H :    0.041602
  24 H :    0.027787
  25 C :   -0.048996
  26 H :    0.030519
  27 H :    0.023859
  28 C :   -0.072994
  29 H :    0.023886
  30 H :    0.034038
  31 H :    0.027433
  32 H :    0.026071
  33 H :    0.009861

  Mayer bond orders larger than 0.100000
B(  0-S ,  1-C ) :   1.1422 B(  0-S ,  4-C ) :   1.1268 B(  1-C ,  2-C ) :   1.6425
B(  1-C , 32-H ) :   0.9641 B(  2-C ,  3-C ) :   1.2350 B(  2-C ,  6-C ) :   1.0015
B(  3-C ,  4-C ) :   1.5436 B(  3-C ,  5-H ) :   0.9719 B(  4-C , 20-C ) :   1.1442
B(  6-C ,  7-H ) :   0.9513 B(  6-C ,  8-H ) :   0.9368 B(  6-C ,  9-C ) :   1.0821
B(  9-C , 10-H ) :   0.9571 B(  9-C , 11-H ) :   0.9538 B(  9-C , 12-C ) :   1.0727
B( 12-C , 13-H ) :   0.9711 B( 12-C , 14-H ) :   0.9780 B( 12-C , 15-H ) :   0.9756
B( 16-S , 17-C ) :   1.1767 B( 16-S , 20-C ) :   1.1378 B( 17-C , 18-C ) :   1.5631
B( 17-C , 20-C ) :   0.1106 B( 17-C , 33-H ) :   0.9812 B( 18-C , 19-C ) :   1.2715
B( 18-C , 21-H ) :   0.9782 B( 19-C , 20-C ) :   1.5383 B( 19-C , 22-C ) :   1.0376
B( 22-C , 23-H ) :   0.9305 B( 22-C , 24-H ) :   0.9235 B( 22-C , 25-C ) :   1.0786
B( 25-C , 26-H ) :   0.9549 B( 25-C , 27-H ) :   0.9510 B( 25-C , 28-C ) :   1.0813
B( 28-C , 29-H ) :   0.9742 B( 28-C , 30-H ) :   0.9745 B( 28-C , 31-H ) :   0.9737

Dispersion correction           -0.013899977
FINAL SINGLE POINT ENERGY     -1339.863995839623

DIPOLE MOMENT
-------------
                                X             Y             Z
Electronic contribution:      9.18548      -8.59376       2.74755
Nuclear contribution   :     -9.40373       8.80665      -2.79738
                        -----------------------------------------
Total Dipole Moment    :     -0.21826       0.21288      -0.04983
                        -----------------------------------------
Magnitude (a.u.)       :      0.30893
Magnitude (Debye)      :      0.78524

Rotational constants in cm-1:     0.020876     0.008071     0.006565
Rotational constants in MHz :   625.853141   241.976215   196.821029

                             ****ORCA TERMINATED NORMALLY****
TOTAL RUN TIME: 0 days 0 hours 0 minutes 22 seconds 391 msec
