                         Program Version 4.2.1 -  RELEASE  -
|  1> ! wB97X-D3 SP def2-SVP
|  2> %pal
|  3> nprocs 24
|  4> end
|  5>
|  6> * xyz 0 1
|  7> S 	 -102.839 	 42.2708 	 -94.014
|  8> C 	 -102.411 	 40.9204 	 -93.0246
|  9> C 	 -101.569 	 39.9963 	 -93.674
| 10> C 	 -101.308 	 40.4006 	 -94.9971
| 11> C 	 -101.869 	 41.6085 	 -95.3891
| 12> H 	 -100.586 	 39.9706 	 -95.7525
| 13> C 	 -100.883 	 38.7967 	 -92.9677
| 14> H 	 -100.886 	 37.9536 	 -93.7198
| 15> H 	 -101.435 	 38.4816 	 -92.0773
| 16> C 	 -99.4387 	 39.2054 	 -92.6537
| 17> H 	 -98.9853 	 39.6768 	 -93.5235
| 18> H 	 -99.3641 	 40.045 	 -91.9237
| 19> C 	 -98.6082 	 38.0367 	 -92.1076
| 20> H 	 -98.8922 	 37.6134 	 -91.2001
| 21> H 	 -98.4932 	 37.1881 	 -92.7958
| 22> H 	 -97.6902 	 38.5065 	 -91.9649
| 23> S 	 -101.505 	 44.0987 	 -96.6622
| 24> C 	 -101.718 	 44.0644 	 -98.4347
| 25> C 	 -101.829 	 42.859 	 -98.9611
| 26> C 	 -101.641 	 41.8186 	 -97.9772
| 27> C 	 -101.681 	 42.2601 	 -96.6502
| 28> H 	 -101.929 	 42.7131 	 -100.085
| 29> C 	 -101.667 	 40.4581 	 -98.3516
| 30> H 	 -100.825 	 39.9982 	 -97.8417
| 31> H 	 -101.245 	 40.4876 	 -99.3809
| 32> C 	 -103.065 	 39.79 	 -98.2901
| 33> H 	 -103.322 	 39.748 	 -97.2227
| 34> H 	 -102.889 	 38.7769 	 -98.7019
| 35> C 	 -104.171 	 40.5087 	 -99.0878
| 36> H 	 -104.745 	 41.2099 	 -98.4735
| 37> H 	 -104.968 	 39.8371 	 -99.3113
| 38> H 	 -103.821 	 41.0307 	 -99.9859
| 39> H 	 -102.458 	 40.8662 	 -91.922
| 40> H 	 -101.709 	 44.9055 	 -99.0804
| 41> *
| 42>
| 43>                          ****END OF INPUT****

CARTESIAN COORDINATES (ANGSTROEM)
---------------------------------
  S    -102.839000   42.270800  -94.014000
  C    -102.411000   40.920400  -93.024600
  C    -101.569000   39.996300  -93.674000
  C    -101.308000   40.400600  -94.997100
  C    -101.869000   41.608500  -95.389100
  H    -100.586000   39.970600  -95.752500
  C    -100.883000   38.796700  -92.967700
  H    -100.886000   37.953600  -93.719800
  H    -101.435000   38.481600  -92.077300
  C    -99.438700   39.205400  -92.653700
  H    -98.985300   39.676800  -93.523500
  H    -99.364100   40.045000  -91.923700
  C    -98.608200   38.036700  -92.107600
  H    -98.892200   37.613400  -91.200100
  H    -98.493200   37.188100  -92.795800
  H    -97.690200   38.506500  -91.964900
  S    -101.505000   44.098700  -96.662200
  C    -101.718000   44.064400  -98.434700
  C    -101.829000   42.859000  -98.961100
  C    -101.641000   41.818600  -97.977200
  C    -101.681000   42.260100  -96.650200
  H    -101.929000   42.713100  -100.085000
  C    -101.667000   40.458100  -98.351600
  H    -100.825000   39.998200  -97.841700
  H    -101.245000   40.487600  -99.380900
  C    -103.065000   39.790000  -98.290100
  H    -103.322000   39.748000  -97.222700
  H    -102.889000   38.776900  -98.701900
  C    -104.171000   40.508700  -99.087800
  H    -104.745000   41.209900  -98.473500
  H    -104.968000   39.837100  -99.311300
  H    -103.821000   41.030700  -99.985900
  H    -102.458000   40.866200  -91.922000
  H    -101.709000   44.905500  -99.080400

 Total Charge           Charge          ....    0
 Multiplicity           Mult            ....    1
 Number of Electrons    NEL             ....  134
 Basis Dimension        Dim             ....  322

ORBITAL ENERGIES
----------------

  NO   OCC          E(Eh)            E(eV)
   0   2.0000     -88.969588     -2420.9856
   1   2.0000     -88.960969     -2420.7510
   2   2.0000     -10.332733      -281.1680
   3   2.0000     -10.330431      -281.1053
   4   2.0000     -10.314386      -280.6687
   5   2.0000     -10.311673      -280.5949
   6   2.0000     -10.303927      -280.3841
   7   2.0000     -10.300526      -280.2916
   8   2.0000     -10.299109      -280.2530
   9   2.0000     -10.297579      -280.2114
  10   2.0000     -10.293603      -280.1032
  11   2.0000     -10.292032      -280.0604
  12   2.0000     -10.289795      -279.9996
  13   2.0000     -10.283965      -279.8409
  14   2.0000     -10.275762      -279.6177
  15   2.0000     -10.268820      -279.4288
  16   2.0000      -8.083295      -219.9576
  17   2.0000      -8.074123      -219.7081
  18   2.0000      -6.041874      -164.4077
  19   2.0000      -6.037954      -164.3011
  20   2.0000      -6.034022      -164.1941
  21   2.0000      -6.032925      -164.1642
  22   2.0000      -6.029128      -164.0609
  23   2.0000      -6.024404      -163.9324
  24   2.0000      -1.000705       -27.2306
  25   2.0000      -0.980153       -26.6713
  26   2.0000      -0.913257       -24.8510
  27   2.0000      -0.909853       -24.7584
  28   2.0000      -0.872668       -23.7465
  29   2.0000      -0.850471       -23.1425
  30   2.0000      -0.843746       -22.9595
  31   2.0000      -0.817213       -22.2375
  32   2.0000      -0.784017       -21.3342
  33   2.0000      -0.768799       -20.9201
  34   2.0000      -0.716711       -19.5027
  35   2.0000      -0.700551       -19.0630
  36   2.0000      -0.691927       -18.8283
  37   2.0000      -0.660358       -17.9693
  38   2.0000      -0.637714       -17.3531
  39   2.0000      -0.614840       -16.7307
  40   2.0000      -0.590504       -16.0684
  41   2.0000      -0.564210       -15.3529
  42   2.0000      -0.559235       -15.2176
  43   2.0000      -0.551991       -15.0204
  44   2.0000      -0.542981       -14.7753
  45   2.0000      -0.533335       -14.5128
  46   2.0000      -0.518174       -14.1002
  47   2.0000      -0.504097       -13.7172
  48   2.0000      -0.500265       -13.6129
  49   2.0000      -0.495964       -13.4959
  50   2.0000      -0.487151       -13.2561
  51   2.0000      -0.476360       -12.9624
  52   2.0000      -0.474240       -12.9047
  53   2.0000      -0.466133       -12.6841
  54   2.0000      -0.460692       -12.5361
  55   2.0000      -0.454195       -12.3593
  56   2.0000      -0.446108       -12.1392
  57   2.0000      -0.436746       -11.8845
  58   2.0000      -0.431078       -11.7302
  59   2.0000      -0.425274       -11.5723
  60   2.0000      -0.416854       -11.3432
  61   2.0000      -0.412092       -11.2136
  62   2.0000      -0.407788       -11.0965
  63   2.0000      -0.353977        -9.6322
  64   2.0000      -0.331740        -9.0271
  65   2.0000      -0.328123        -8.9287
  66   2.0000      -0.280022        -7.6198
  67   0.0000       0.017253         0.4695
  68   0.0000       0.070373         1.9149
  69   0.0000       0.103561         2.8180
  70   0.0000       0.121674         3.3109
  71   0.0000       0.130509         3.5513

MULLIKEN ATOMIC CHARGES
-----------------------
   0 S :    0.121925
   1 C :   -0.116465
   2 C :   -0.099618
   3 C :   -0.012920
   4 C :   -0.150089
   5 H :    0.032935
   6 C :    0.069741
   7 H :    0.037753
   8 H :    0.028368
   9 C :   -0.108915
  10 H :    0.028276
  11 H :    0.027520
  12 C :    0.018019
  13 H :    0.016271
  14 H :    0.027346
  15 H :    0.016811
  16 S :    0.072820
  17 C :   -0.051960
  18 C :   -0.050412
  19 C :   -0.058623
  20 C :   -0.151654
  21 H :    0.046983
  22 C :    0.026654
  23 H :    0.020383
  24 H :    0.011038
  25 C :   -0.037847
  26 H :    0.049273
  27 H :    0.038385
  28 C :   -0.038380
  29 H :    0.034182
  30 H :    0.025015
  31 H :    0.032657
  32 H :    0.059090
  33 H :    0.035439
Sum of atomic charges:   -0.0000000

LOEWDIN ATOMIC CHARGES
----------------------
   0 S :    0.397569
   1 C :   -0.218258
   2 C :   -0.063228
   3 C :   -0.074142
   4 C :   -0.183210
   5 H :    0.040202
   6 C :   -0.028790
   7 H :    0.036398
   8 H :    0.029311
   9 C :   -0.041142
  10 H :    0.025508
  11 H :    0.028634
  12 C :   -0.057565
  13 H :    0.016318
  14 H :    0.026063
  15 H :    0.022519
  16 S :    0.334820
  17 C :   -0.157650
  18 C :   -0.080033
  19 C :   -0.051910
  20 C :   -0.167378
  21 H :    0.046646
  22 C :   -0.051386
  23 H :    0.030456
  24 H :    0.033597
  25 C :   -0.028022
  26 H :    0.032240
  27 H :    0.027614
  28 C :   -0.068647
  29 H :    0.032719
  30 H :    0.026242
  31 H :    0.024616
  32 H :    0.035738
  33 H :    0.024152

  Mayer bond orders larger than 0.100000
B(  0-S ,  1-C ) :   1.1455 B(  0-S ,  4-C ) :   1.1265 B(  1-C ,  2-C ) :   1.6025
B(  1-C ,  4-C ) :   0.1041 B(  1-C , 32-H ) :   0.9540 B(  2-C ,  3-C ) :   1.2624
B(  2-C ,  6-C ) :   1.0233 B(  3-C ,  4-C ) :   1.5582 B(  3-C ,  5-H ) :   0.9764
B(  4-C , 20-C ) :   1.1287 B(  6-C ,  7-H ) :   0.9423 B(  6-C ,  8-H ) :   0.9431
B(  6-C ,  9-C ) :   1.0588 B(  9-C , 10-H ) :   0.9578 B(  9-C , 11-H ) :   0.9533
B(  9-C , 12-C ) :   1.0766 B( 12-C , 13-H ) :   0.9736 B( 12-C , 14-H ) :   0.9744
B( 12-C , 15-H ) :   0.9707 B( 16-S , 17-C ) :   1.1176 B( 16-S , 20-C ) :   1.0831
B( 17-C , 18-C ) :   1.6927 B( 17-C , 33-H ) :   0.9594 B( 18-C , 19-C ) :   1.1994
B( 18-C , 21-H ) :   0.9692 B( 19-C , 20-C ) :   1.5957 B( 19-C , 22-C ) :   1.0700
B( 22-C , 23-H ) :   0.9274 B( 22-C , 24-H ) :   0.9165 B( 22-C , 25-C ) :   1.0536
B( 25-C , 26-H ) :   0.9548 B( 25-C , 27-H ) :   0.9583 B( 25-C , 28-C ) :   1.0743
B( 28-C , 29-H ) :   0.9692 B( 28-C , 30-H ) :   0.9702 B( 28-C , 31-H ) :   0.9761

Dispersion correction           -0.014918902
FINAL SINGLE POINT ENERGY     -1339.855202490486

DIPOLE MOMENT
-------------
                                X             Y             Z
Electronic contribution:     -5.74300      22.84624       1.15251
Nuclear contribution   :      6.02776     -23.42676      -1.40408
                        -----------------------------------------
Total Dipole Moment    :      0.28475      -0.58051      -0.25157
                        -----------------------------------------
Magnitude (a.u.)       :      0.69381
Magnitude (Debye)      :      1.76352

Rotational constants in cm-1:     0.020847     0.007940     0.007066
Rotational constants in MHz :   624.987012   238.026998   211.848071

                             ****ORCA TERMINATED NORMALLY****
TOTAL RUN TIME: 0 days 0 hours 0 minutes 23 seconds 524 msec
