                         Program Version 4.2.1 -  RELEASE  -
|  1> ! wB97X-D3 SP def2-SVP
|  2> %pal
|  3> nprocs 24
|  4> end
|  5>
|  6> * xyz 0 1
|  7> S 	 -82.3676 	 -1.76937 	 -58.7448
|  8> C 	 -80.8793 	 -0.851831 	 -58.4613
|  9> C 	 -79.7711 	 -1.23365 	 -59.1033
| 10> C 	 -80.0544 	 -2.46729 	 -59.806
| 11> C 	 -81.4133 	 -2.77148 	 -59.9019
| 12> H 	 -79.3248 	 -3.01239 	 -60.3779
| 13> C 	 -78.4531 	 -0.57689 	 -58.984
| 14> H 	 -78.4016 	 0.427456 	 -59.2979
| 15> H 	 -77.8053 	 -1.029 	 -59.7548
| 16> C 	 -77.7853 	 -0.580115 	 -57.6274
| 17> H 	 -78.4533 	 0.0423748 	 -56.953
| 18> H 	 -77.8453 	 -1.55729 	 -57.2963
| 19> C 	 -76.2727 	 -0.114217 	 -57.5863
| 20> H 	 -75.8478 	 -0.60346 	 -56.687
| 21> H 	 -75.6628 	 -0.423442 	 -58.5115
| 22> H 	 -76.3655 	 0.997025 	 -57.6527
| 23> S 	 -83.2661 	 -4.75654 	 -59.6762
| 24> C 	 -83.7125 	 -5.7209 	 -61.0237
| 25> C 	 -82.8851 	 -5.46048 	 -62.0775
| 26> C 	 -81.9451 	 -4.39323 	 -61.8981
| 27> C 	 -82.1283 	 -3.81953 	 -60.6026
| 28> H 	 -83.0254 	 -6.02126 	 -62.9821
| 29> C 	 -81.0802 	 -3.83423 	 -62.9925
| 30> H 	 -80.6295 	 -4.56325 	 -63.7048
| 31> H 	 -80.2444 	 -3.22891 	 -62.5994
| 32> C 	 -81.9224 	 -2.94992 	 -63.9477
| 33> H 	 -82.6001 	 -3.64625 	 -64.523
| 34> H 	 -81.292 	 -2.57908 	 -64.7781
| 35> C 	 -82.5952 	 -1.76367 	 -63.2128
| 36> H 	 -81.7964 	 -1.22148 	 -62.7315
| 37> H 	 -83.1903 	 -2.14431 	 -62.4074
| 38> H 	 -83.2111 	 -1.17611 	 -63.8743
| 39> H 	 -80.8667 	 -0.0101532 	 -57.6961
| 40> H 	 -84.3385 	 -6.60358 	 -61.0181
| 41> *
| 42>
| 43>                          ****END OF INPUT****

CARTESIAN COORDINATES (ANGSTROEM)
---------------------------------
  S    -82.367600   -1.769370  -58.744800
  C    -80.879300   -0.851831  -58.461300
  C    -79.771100   -1.233650  -59.103300
  C    -80.054400   -2.467290  -59.806000
  C    -81.413300   -2.771480  -59.901900
  H    -79.324800   -3.012390  -60.377900
  C    -78.453100   -0.576890  -58.984000
  H    -78.401600    0.427456  -59.297900
  H    -77.805300   -1.029000  -59.754800
  C    -77.785300   -0.580115  -57.627400
  H    -78.453300    0.042375  -56.953000
  H    -77.845300   -1.557290  -57.296300
  C    -76.272700   -0.114217  -57.586300
  H    -75.847800   -0.603460  -56.687000
  H    -75.662800   -0.423442  -58.511500
  H    -76.365500    0.997025  -57.652700
  S    -83.266100   -4.756540  -59.676200
  C    -83.712500   -5.720900  -61.023700
  C    -82.885100   -5.460480  -62.077500
  C    -81.945100   -4.393230  -61.898100
  C    -82.128300   -3.819530  -60.602600
  H    -83.025400   -6.021260  -62.982100
  C    -81.080200   -3.834230  -62.992500
  H    -80.629500   -4.563250  -63.704800
  H    -80.244400   -3.228910  -62.599400
  C    -81.922400   -2.949920  -63.947700
  H    -82.600100   -3.646250  -64.523000
  H    -81.292000   -2.579080  -64.778100
  C    -82.595200   -1.763670  -63.212800
  H    -81.796400   -1.221480  -62.731500
  H    -83.190300   -2.144310  -62.407400
  H    -83.211100   -1.176110  -63.874300
  H    -80.866700   -0.010153  -57.696100
  H    -84.338500   -6.603580  -61.018100

 Total Charge           Charge          ....    0
 Multiplicity           Mult            ....    1
 Number of Electrons    NEL             ....  134
 Basis Dimension        Dim             ....  322

ORBITAL ENERGIES
----------------

  NO   OCC          E(Eh)            E(eV)
   0   2.0000     -88.966813     -2420.9101
   1   2.0000     -88.966378     -2420.8982
   2   2.0000     -10.335541      -281.2444
   3   2.0000     -10.330136      -281.0973
   4   2.0000     -10.314897      -280.6826
   5   2.0000     -10.312831      -280.6264
   6   2.0000     -10.309301      -280.5303
   7   2.0000     -10.300338      -280.2865
   8   2.0000     -10.298206      -280.2284
   9   2.0000     -10.296680      -280.1869
  10   2.0000     -10.296044      -280.1696
  11   2.0000     -10.291428      -280.0440
  12   2.0000     -10.288310      -279.9592
  13   2.0000     -10.286955      -279.9223
  14   2.0000     -10.286451      -279.9086
  15   2.0000     -10.265010      -279.3251
  16   2.0000      -8.082141      -219.9262
  17   2.0000      -8.080237      -219.8744
  18   2.0000      -6.040582      -164.3726
  19   2.0000      -6.038790      -164.3238
  20   2.0000      -6.036445      -164.2600
  21   2.0000      -6.035130      -164.2242
  22   2.0000      -6.033042      -164.1674
  23   2.0000      -6.030730      -164.1045
  24   2.0000      -1.007638       -27.4192
  25   2.0000      -0.984871       -26.7997
  26   2.0000      -0.916426       -24.9372
  27   2.0000      -0.908443       -24.7200
  28   2.0000      -0.870386       -23.6844
  29   2.0000      -0.846335       -23.0299
  30   2.0000      -0.840621       -22.8745
  31   2.0000      -0.813155       -22.1271
  32   2.0000      -0.784567       -21.3492
  33   2.0000      -0.773245       -21.0411
  34   2.0000      -0.706499       -19.2248
  35   2.0000      -0.703222       -19.1356
  36   2.0000      -0.690816       -18.7981
  37   2.0000      -0.656620       -17.8675
  38   2.0000      -0.635399       -17.2901
  39   2.0000      -0.623652       -16.9704
  40   2.0000      -0.598230       -16.2787
  41   2.0000      -0.568972       -15.4825
  42   2.0000      -0.564311       -15.3557
  43   2.0000      -0.548969       -14.9382
  44   2.0000      -0.541700       -14.7404
  45   2.0000      -0.525339       -14.2952
  46   2.0000      -0.514686       -14.0053
  47   2.0000      -0.510919       -13.9028
  48   2.0000      -0.503599       -13.7036
  49   2.0000      -0.499797       -13.6002
  50   2.0000      -0.488231       -13.2854
  51   2.0000      -0.473801       -12.8928
  52   2.0000      -0.468551       -12.7499
  53   2.0000      -0.463796       -12.6205
  54   2.0000      -0.459505       -12.5038
  55   2.0000      -0.447959       -12.1896
  56   2.0000      -0.440427       -11.9846
  57   2.0000      -0.436696       -11.8831
  58   2.0000      -0.431586       -11.7441
  59   2.0000      -0.425780       -11.5861
  60   2.0000      -0.419297       -11.4096
  61   2.0000      -0.416832       -11.3426
  62   2.0000      -0.410991       -11.1836
  63   2.0000      -0.352060        -9.5800
  64   2.0000      -0.333244        -9.0680
  65   2.0000      -0.330034        -8.9807
  66   2.0000      -0.287170        -7.8143
  67   0.0000       0.021295         0.5795
  68   0.0000       0.073192         1.9916
  69   0.0000       0.098849         2.6898
  70   0.0000       0.114359         3.1119
  71   0.0000       0.138248         3.7619

MULLIKEN ATOMIC CHARGES
-----------------------
   0 S :    0.092272
   1 C :   -0.137447
   2 C :   -0.074162
   3 C :    0.044407
   4 C :   -0.157401
   5 H :    0.012205
   6 C :    0.090830
   7 H :    0.013158
   8 H :    0.003764
   9 C :   -0.084733
  10 H :    0.034915
  11 H :    0.014483
  12 C :   -0.083865
  13 H :    0.060548
  14 H :    0.045690
  15 H :    0.048018
  16 S :    0.114412
  17 C :   -0.074541
  18 C :   -0.051695
  19 C :   -0.010739
  20 C :   -0.166400
  21 H :    0.012035
  22 C :    0.047606
  23 H :    0.033599
  24 H :    0.023397
  25 C :   -0.117005
  26 H :    0.024810
  27 H :    0.027091
  28 C :   -0.013628
  29 H :    0.029509
  30 H :    0.042692
  31 H :    0.035352
  32 H :    0.062360
  33 H :    0.058462
Sum of atomic charges:   -0.0000000

LOEWDIN ATOMIC CHARGES
----------------------
   0 S :    0.365733
   1 C :   -0.182345
   2 C :   -0.070074
   3 C :   -0.051081
   4 C :   -0.172462
   5 H :    0.026852
   6 C :   -0.038242
   7 H :    0.026237
   8 H :    0.029595
   9 C :   -0.036961
  10 H :    0.028271
  11 H :    0.010241
  12 C :   -0.073707
  13 H :    0.036182
  14 H :    0.033318
  15 H :    0.032124
  16 S :    0.427412
  17 C :   -0.200897
  18 C :   -0.068700
  19 C :   -0.051288
  20 C :   -0.209129
  21 H :    0.027717
  22 C :   -0.039429
  23 H :    0.038260
  24 H :    0.028109
  25 C :   -0.042613
  26 H :    0.021002
  27 H :    0.021413
  28 C :   -0.060156
  29 H :    0.027241
  30 H :    0.024768
  31 H :    0.024328
  32 H :    0.034114
  33 H :    0.034170

  Mayer bond orders larger than 0.100000
B(  0-S ,  1-C ) :   1.1186 B(  0-S ,  4-C ) :   1.1212 B(  1-C ,  2-C ) :   1.6695
B(  1-C , 32-H ) :   0.9535 B(  2-C ,  3-C ) :   1.2026 B(  2-C ,  6-C ) :   1.0326
B(  3-C ,  4-C ) :   1.6065 B(  3-C ,  5-H ) :   0.9824 B(  4-C , 20-C ) :   1.0665
B(  6-C ,  7-H ) :   0.9299 B(  6-C ,  8-H ) :   0.9286 B(  6-C ,  9-C ) :   1.0599
B(  9-C , 10-H ) :   0.9542 B(  9-C , 11-H ) :   0.9620 B(  9-C , 12-C ) :   1.0621
B( 12-C , 13-H ) :   0.9765 B( 12-C , 14-H ) :   0.9765 B( 12-C , 15-H ) :   0.9771
B( 16-S , 17-C ) :   1.1512 B( 16-S , 20-C ) :   1.1669 B( 17-C , 18-C ) :   1.6056
B( 17-C , 33-H ) :   0.9658 B( 18-C , 19-C ) :   1.2528 B( 18-C , 21-H ) :   0.9904
B( 19-C , 20-C ) :   1.5310 B( 19-C , 22-C ) :   1.0642 B( 22-C , 23-H ) :   0.9332
B( 22-C , 24-H ) :   0.9352 B( 22-C , 25-C ) :   1.0694 B( 25-C , 26-H ) :   0.9567
B( 25-C , 27-H ) :   0.9568 B( 25-C , 28-C ) :   1.0628 B( 28-C , 29-H ) :   0.9720
B( 28-C , 30-H ) :   0.9738 B( 28-C , 31-H ) :   0.9738

Dispersion correction           -0.014901136
FINAL SINGLE POINT ENERGY     -1339.870622109650

DIPOLE MOMENT
-------------
                                X             Y             Z
Electronic contribution:    -19.76657     -12.09795       8.48157
Nuclear contribution   :     20.31411      12.09943      -8.79723
                        -----------------------------------------
Total Dipole Moment    :      0.54754       0.00148      -0.31567
                        -----------------------------------------
Magnitude (a.u.)       :      0.63202
Magnitude (Debye)      :      1.60647

Rotational constants in cm-1:     0.023174     0.007554     0.006663
Rotational constants in MHz :   694.733461   226.473566   199.759403

                             ****ORCA TERMINATED NORMALLY****
TOTAL RUN TIME: 0 days 0 hours 0 minutes 21 seconds 885 msec
