                         Program Version 4.2.1 -  RELEASE  -
|  1> ! wB97X-D3 SP def2-SVP
|  2> %pal
|  3> nprocs 24
|  4> end
|  5>
|  6> * xyz 0 1
|  7> S 	 -42.415 	 -50.4272 	 -71.5195
|  8> C 	 -40.8558 	 -49.8662 	 -70.8491
|  9> C 	 -40.8413 	 -49.8465 	 -69.4613
| 10> C 	 -42.0732 	 -50.2957 	 -68.9128
| 11> C 	 -43.071 	 -50.4177 	 -69.8811
| 12> H 	 -42.2681 	 -50.3484 	 -67.8633
| 13> C 	 -39.6652 	 -49.4362 	 -68.5976
| 14> H 	 -38.9847 	 -49.0233 	 -69.3183
| 15> H 	 -39.2391 	 -50.3521 	 -68.181
| 16> C 	 -40.1321 	 -48.5596 	 -67.4269
| 17> H 	 -40.6508 	 -47.7358 	 -67.8464
| 18> H 	 -40.6699 	 -49.1042 	 -66.6457
| 19> C 	 -38.8277 	 -48.1158 	 -66.7879
| 20> H 	 -38.9709 	 -47.4304 	 -65.9537
| 21> H 	 -38.314 	 -49.0018 	 -66.4164
| 22> H 	 -38.109 	 -47.6658 	 -67.5233
| 23> S 	 -45.3855 	 -51.3688 	 -70.928
| 24> C 	 -46.7827 	 -51.6008 	 -69.8519
| 25> C 	 -46.4806 	 -51.2506 	 -68.5682
| 26> C 	 -45.1833 	 -50.6379 	 -68.4572
| 27> C 	 -44.4324 	 -50.782 	 -69.5981
| 28> H 	 -47.2516 	 -51.3913 	 -67.7956
| 29> C 	 -44.6966 	 -50.1571 	 -67.1307
| 30> H 	 -45.4665 	 -49.7454 	 -66.6201
| 31> H 	 -43.9636 	 -49.3268 	 -67.2357
| 32> C 	 -44.1459 	 -51.2936 	 -66.2709
| 33> H 	 -43.3219 	 -51.7162 	 -66.8426
| 34> H 	 -44.8789 	 -52.0982 	 -66.1082
| 35> C 	 -43.7732 	 -50.9882 	 -64.7798
| 36> H 	 -43.1182 	 -50.143 	 -64.5806
| 37> H 	 -43.3869 	 -51.8621 	 -64.2756
| 38> H 	 -44.6795 	 -50.6288 	 -64.2662
| 39> H 	 -39.929 	 -49.5961 	 -71.3517
| 40> H 	 -47.7573 	 -51.8409 	 -70.1448
| 41> *
| 42>
| 43>                          ****END OF INPUT****

CARTESIAN COORDINATES (ANGSTROEM)
---------------------------------
  S    -42.415000  -50.427200  -71.519500
  C    -40.855800  -49.866200  -70.849100
  C    -40.841300  -49.846500  -69.461300
  C    -42.073200  -50.295700  -68.912800
  C    -43.071000  -50.417700  -69.881100
  H    -42.268100  -50.348400  -67.863300
  C    -39.665200  -49.436200  -68.597600
  H    -38.984700  -49.023300  -69.318300
  H    -39.239100  -50.352100  -68.181000
  C    -40.132100  -48.559600  -67.426900
  H    -40.650800  -47.735800  -67.846400
  H    -40.669900  -49.104200  -66.645700
  C    -38.827700  -48.115800  -66.787900
  H    -38.970900  -47.430400  -65.953700
  H    -38.314000  -49.001800  -66.416400
  H    -38.109000  -47.665800  -67.523300
  S    -45.385500  -51.368800  -70.928000
  C    -46.782700  -51.600800  -69.851900
  C    -46.480600  -51.250600  -68.568200
  C    -45.183300  -50.637900  -68.457200
  C    -44.432400  -50.782000  -69.598100
  H    -47.251600  -51.391300  -67.795600
  C    -44.696600  -50.157100  -67.130700
  H    -45.466500  -49.745400  -66.620100
  H    -43.963600  -49.326800  -67.235700
  C    -44.145900  -51.293600  -66.270900
  H    -43.321900  -51.716200  -66.842600
  H    -44.878900  -52.098200  -66.108200
  C    -43.773200  -50.988200  -64.779800
  H    -43.118200  -50.143000  -64.580600
  H    -43.386900  -51.862100  -64.275600
  H    -44.679500  -50.628800  -64.266200
  H    -39.929000  -49.596100  -71.351700
  H    -47.757300  -51.840900  -70.144800

 Total Charge           Charge          ....    0
 Multiplicity           Mult            ....    1
 Number of Electrons    NEL             ....  134
 Basis Dimension        Dim             ....  322

ORBITAL ENERGIES
----------------

  NO   OCC          E(Eh)            E(eV)
   0   2.0000     -88.970567     -2421.0122
   1   2.0000     -88.963740     -2420.8264
   2   2.0000     -10.331021      -281.1214
   3   2.0000     -10.323852      -280.9263
   4   2.0000     -10.313601      -280.6474
   5   2.0000     -10.313220      -280.6370
   6   2.0000     -10.300723      -280.2969
   7   2.0000     -10.295930      -280.1665
   8   2.0000     -10.295700      -280.1602
   9   2.0000     -10.292259      -280.0666
  10   2.0000     -10.291089      -280.0348
  11   2.0000     -10.289417      -279.9893
  12   2.0000     -10.287724      -279.9432
  13   2.0000     -10.285328      -279.8780
  14   2.0000     -10.283223      -279.8207
  15   2.0000     -10.279659      -279.7237
  16   2.0000      -8.084064      -219.9786
  17   2.0000      -8.078558      -219.8287
  18   2.0000      -6.042789      -164.4327
  19   2.0000      -6.039029      -164.3303
  20   2.0000      -6.037233      -164.2815
  21   2.0000      -6.034398      -164.2043
  22   2.0000      -6.033189      -164.1714
  23   2.0000      -6.029031      -164.0583
  24   2.0000      -1.008680       -27.4476
  25   2.0000      -0.981027       -26.6951
  26   2.0000      -0.921384       -25.0721
  27   2.0000      -0.913255       -24.8509
  28   2.0000      -0.873881       -23.7795
  29   2.0000      -0.852627       -23.2011
  30   2.0000      -0.844542       -22.9811
  31   2.0000      -0.816372       -22.2146
  32   2.0000      -0.784040       -21.3348
  33   2.0000      -0.770581       -20.9686
  34   2.0000      -0.715888       -19.4803
  35   2.0000      -0.703633       -19.1468
  36   2.0000      -0.695497       -18.9254
  37   2.0000      -0.668238       -18.1837
  38   2.0000      -0.631658       -17.1883
  39   2.0000      -0.625570       -17.0226
  40   2.0000      -0.598352       -16.2820
  41   2.0000      -0.585722       -15.9383
  42   2.0000      -0.566370       -15.4117
  43   2.0000      -0.561824       -15.2880
  44   2.0000      -0.532409       -14.4876
  45   2.0000      -0.528912       -14.3924
  46   2.0000      -0.514350       -13.9962
  47   2.0000      -0.513475       -13.9724
  48   2.0000      -0.505581       -13.7576
  49   2.0000      -0.494167       -13.4470
  50   2.0000      -0.490819       -13.3559
  51   2.0000      -0.488087       -13.2815
  52   2.0000      -0.470306       -12.7977
  53   2.0000      -0.462079       -12.5738
  54   2.0000      -0.459652       -12.5078
  55   2.0000      -0.450190       -12.2503
  56   2.0000      -0.448036       -12.1917
  57   2.0000      -0.444287       -12.0897
  58   2.0000      -0.436934       -11.8896
  59   2.0000      -0.433731       -11.8024
  60   2.0000      -0.421528       -11.4703
  61   2.0000      -0.418537       -11.3890
  62   2.0000      -0.414614       -11.2822
  63   2.0000      -0.359508        -9.7827
  64   2.0000      -0.336125        -9.1464
  65   2.0000      -0.325674        -8.8620
  66   2.0000      -0.278813        -7.5869
  67   0.0000       0.017504         0.4763
  68   0.0000       0.081875         2.2279
  69   0.0000       0.092925         2.5286
  70   0.0000       0.118261         3.2181
  71   0.0000       0.129678         3.5287

MULLIKEN ATOMIC CHARGES
-----------------------
   0 S :    0.103002
   1 C :   -0.110262
   2 C :   -0.108380
   3 C :    0.000373
   4 C :   -0.091081
   5 H :   -0.010880
   6 C :    0.083191
   7 H :    0.011604
   8 H :    0.037569
   9 C :   -0.078830
  10 H :    0.036247
  11 H :    0.049664
  12 C :   -0.040501
  13 H :    0.033177
  14 H :    0.018647
  15 H :    0.031385
  16 S :    0.082011
  17 C :   -0.061280
  18 C :   -0.037874
  19 C :   -0.081504
  20 C :   -0.103458
  21 H :    0.029996
  22 C :    0.112467
  23 H :   -0.024103
  24 H :    0.034143
  25 C :   -0.094834
  26 H :    0.029893
  27 H :    0.029756
  28 C :   -0.039365
  29 H :    0.020388
  30 H :    0.044888
  31 H :    0.024612
  32 H :    0.035920
  33 H :    0.033417
Sum of atomic charges:   -0.0000000

LOEWDIN ATOMIC CHARGES
----------------------
   0 S :    0.380465
   1 C :   -0.199637
   2 C :   -0.059730
   3 C :   -0.061291
   4 C :   -0.173142
   5 H :    0.023829
   6 C :   -0.024419
   7 H :    0.027544
   8 H :    0.035804
   9 C :   -0.034065
  10 H :    0.023203
  11 H :    0.030358
  12 C :   -0.065854
  13 H :    0.020940
  14 H :    0.023026
  15 H :    0.028151
  16 S :    0.384602
  17 C :   -0.164697
  18 C :   -0.064920
  19 C :   -0.056951
  20 C :   -0.190038
  21 H :    0.037740
  22 C :   -0.030463
  23 H :    0.012966
  24 H :    0.034716
  25 C :   -0.038988
  26 H :    0.019523
  27 H :    0.030028
  28 C :   -0.070217
  29 H :    0.018657
  30 H :    0.028540
  31 H :    0.027033
  32 H :    0.028309
  33 H :    0.018981

  Mayer bond orders larger than 0.100000
B(  0-S ,  1-C ) :   1.1036 B(  0-S ,  4-C ) :   1.1313 B(  1-C ,  2-C ) :   1.6425
B(  1-C , 32-H ) :   0.9572 B(  2-C ,  3-C ) :   1.2361 B(  2-C ,  6-C ) :   1.0188
B(  3-C ,  4-C ) :   1.5566 B(  3-C ,  5-H ) :   0.9806 B(  4-C , 20-C ) :   1.1109
B(  6-C ,  7-H ) :   0.9423 B(  6-C ,  8-H ) :   0.9257 B(  6-C ,  9-C ) :   1.0713
B(  9-C , 10-H ) :   0.9608 B(  9-C , 11-H ) :   0.9433 B(  9-C , 12-C ) :   1.0915
B( 12-C , 13-H ) :   0.9725 B( 12-C , 14-H ) :   0.9691 B( 12-C , 15-H ) :   0.9740
B( 16-S , 17-C ) :   1.1316 B( 16-S , 20-C ) :   1.1130 B( 17-C , 18-C ) :   1.6488
B( 17-C , 33-H ) :   0.9741 B( 18-C , 19-C ) :   1.2084 B( 18-C , 21-H ) :   0.9841
B( 19-C , 20-C ) :   1.6019 B( 19-C , 22-C ) :   1.0777 B( 22-C , 23-H ) :   0.9066
B( 22-C , 24-H ) :   0.9252 B( 22-C , 25-C ) :   1.0555 B( 25-C , 26-H ) :   0.9550
B( 25-C , 27-H ) :   0.9526 B( 25-C , 28-C ) :   1.0671 B( 28-C , 29-H ) :   0.9753
B( 28-C , 30-H ) :   0.9760 B( 28-C , 31-H ) :   0.9723

Dispersion correction           -0.014516053
FINAL SINGLE POINT ENERGY     -1339.870739405994

DIPOLE MOMENT
-------------
                                X             Y             Z
Electronic contribution:    -14.30972      -7.25909     -30.01451
Nuclear contribution   :     14.44332       7.40453      30.85336
                        -----------------------------------------
Total Dipole Moment    :      0.13360       0.14544       0.83886
                        -----------------------------------------
Magnitude (a.u.)       :      0.86179
Magnitude (Debye)      :      2.19050

Rotational constants in cm-1:     0.017590     0.010193     0.006686
Rotational constants in MHz :   527.335126   305.579815   200.435455

                             ****ORCA TERMINATED NORMALLY****
TOTAL RUN TIME: 0 days 0 hours 0 minutes 21 seconds 512 msec
