                         Program Version 4.2.1 -  RELEASE  -
|  1> ! wB97X-D3 SP def2-SVP
|  2> %pal
|  3> nprocs 24
|  4> end
|  5>
|  6> * xyz 0 1
|  7> S 	 -81.7322 	 -31.4411 	 -54.889
|  8> C 	 -79.9995 	 -31.4835 	 -55.0572
|  9> C 	 -79.4389 	 -30.533 	 -54.2155
| 10> C 	 -80.4454 	 -29.8009 	 -53.456
| 11> C 	 -81.7242 	 -30.0892 	 -53.7504
| 12> H 	 -80.1849 	 -28.9648 	 -52.8144
| 13> C 	 -77.99 	 -30.1302 	 -54.2065
| 14> H 	 -77.5519 	 -31.0596 	 -53.9979
| 15> H 	 -77.7471 	 -29.4762 	 -53.3523
| 16> C 	 -77.5149 	 -29.5436 	 -55.5348
| 17> H 	 -76.4397 	 -29.4659 	 -55.4368
| 18> H 	 -77.7947 	 -30.2618 	 -56.3387
| 19> C 	 -78.1866 	 -28.2003 	 -55.8077
| 20> H 	 -78.1937 	 -27.4786 	 -55.0672
| 21> H 	 -77.518 	 -27.7768 	 -56.5713
| 22> H 	 -79.2038 	 -28.2797 	 -56.2054
| 23> S 	 -83.8715 	 -28.5849 	 -54.3858
| 24> C 	 -85.0283 	 -28.1653 	 -53.2433
| 25> C 	 -84.7383 	 -28.8109 	 -52.0432
| 26> C 	 -83.5211 	 -29.5442 	 -52.0123
| 27> C 	 -82.9531 	 -29.4914 	 -53.2459
| 28> H 	 -85.5047 	 -28.805 	 -51.2459
| 29> C 	 -83.0367 	 -30.3755 	 -50.7932
| 30> H 	 -81.963 	 -30.0473 	 -50.4968
| 31> H 	 -82.9896 	 -31.4382 	 -51.0266
| 32> C 	 -83.852 	 -30.1788 	 -49.4203
| 33> H 	 -84.8652 	 -30.6463 	 -49.4395
| 34> H 	 -84.0701 	 -29.1358 	 -49.2325
| 35> C 	 -83.0379 	 -30.7054 	 -48.2387
| 36> H 	 -82.7431 	 -31.8145 	 -48.299
| 37> H 	 -83.7006 	 -30.4967 	 -47.4003
| 38> H 	 -82.0909 	 -30.1905 	 -48.0673
| 39> H 	 -79.3371 	 -31.9518 	 -55.8142
| 40> H 	 -85.8802 	 -27.533 	 -53.3869
| 41> *
| 42>
| 43>                          ****END OF INPUT****

CARTESIAN COORDINATES (ANGSTROEM)
---------------------------------
  S    -81.732200  -31.441100  -54.889000
  C    -79.999500  -31.483500  -55.057200
  C    -79.438900  -30.533000  -54.215500
  C    -80.445400  -29.800900  -53.456000
  C    -81.724200  -30.089200  -53.750400
  H    -80.184900  -28.964800  -52.814400
  C    -77.990000  -30.130200  -54.206500
  H    -77.551900  -31.059600  -53.997900
  H    -77.747100  -29.476200  -53.352300
  C    -77.514900  -29.543600  -55.534800
  H    -76.439700  -29.465900  -55.436800
  H    -77.794700  -30.261800  -56.338700
  C    -78.186600  -28.200300  -55.807700
  H    -78.193700  -27.478600  -55.067200
  H    -77.518000  -27.776800  -56.571300
  H    -79.203800  -28.279700  -56.205400
  S    -83.871500  -28.584900  -54.385800
  C    -85.028300  -28.165300  -53.243300
  C    -84.738300  -28.810900  -52.043200
  C    -83.521100  -29.544200  -52.012300
  C    -82.953100  -29.491400  -53.245900
  H    -85.504700  -28.805000  -51.245900
  C    -83.036700  -30.375500  -50.793200
  H    -81.963000  -30.047300  -50.496800
  H    -82.989600  -31.438200  -51.026600
  C    -83.852000  -30.178800  -49.420300
  H    -84.865200  -30.646300  -49.439500
  H    -84.070100  -29.135800  -49.232500
  C    -83.037900  -30.705400  -48.238700
  H    -82.743100  -31.814500  -48.299000
  H    -83.700600  -30.496700  -47.400300
  H    -82.090900  -30.190500  -48.067300
  H    -79.337100  -31.951800  -55.814200
  H    -85.880200  -27.533000  -53.386900

 Total Charge           Charge          ....    0
 Multiplicity           Mult            ....    1
 Number of Electrons    NEL             ....  134
 Basis Dimension        Dim             ....  322

ORBITAL ENERGIES
----------------

  NO   OCC          E(Eh)            E(eV)
   0   2.0000     -88.965252     -2420.8676
   1   2.0000     -88.960801     -2420.7465
   2   2.0000     -10.323744      -280.9233
   3   2.0000     -10.319485      -280.8075
   4   2.0000     -10.312074      -280.6058
   5   2.0000     -10.311720      -280.5962
   6   2.0000     -10.306284      -280.4482
   7   2.0000     -10.304008      -280.3863
   8   2.0000     -10.296370      -280.1785
   9   2.0000     -10.294083      -280.1162
  10   2.0000     -10.292911      -280.0843
  11   2.0000     -10.289084      -279.9802
  12   2.0000     -10.287970      -279.9499
  13   2.0000     -10.284540      -279.8566
  14   2.0000     -10.282136      -279.7912
  15   2.0000     -10.269494      -279.4471
  16   2.0000      -8.081857      -219.9185
  17   2.0000      -8.075277      -219.7395
  18   2.0000      -6.040084      -164.3590
  19   2.0000      -6.035988      -164.2476
  20   2.0000      -6.034005      -164.1936
  21   2.0000      -6.032900      -164.1636
  22   2.0000      -6.029690      -164.0762
  23   2.0000      -6.025942      -163.9742
  24   2.0000      -1.014794       -27.6139
  25   2.0000      -0.987086       -26.8600
  26   2.0000      -0.914849       -24.8943
  27   2.0000      -0.900402       -24.5012
  28   2.0000      -0.869821       -23.6690
  29   2.0000      -0.853687       -23.2300
  30   2.0000      -0.840645       -22.8751
  31   2.0000      -0.815268       -22.1846
  32   2.0000      -0.779794       -21.2193
  33   2.0000      -0.771057       -20.9815
  34   2.0000      -0.703941       -19.1552
  35   2.0000      -0.701350       -19.0847
  36   2.0000      -0.697456       -18.9787
  37   2.0000      -0.653765       -17.7899
  38   2.0000      -0.632707       -17.2168
  39   2.0000      -0.614580       -16.7236
  40   2.0000      -0.598449       -16.2846
  41   2.0000      -0.578649       -15.7458
  42   2.0000      -0.559198       -15.2165
  43   2.0000      -0.550417       -14.9776
  44   2.0000      -0.540084       -14.6964
  45   2.0000      -0.527877       -14.3643
  46   2.0000      -0.511368       -13.9150
  47   2.0000      -0.510547       -13.8927
  48   2.0000      -0.509338       -13.8598
  49   2.0000      -0.498391       -13.5619
  50   2.0000      -0.485197       -13.2029
  51   2.0000      -0.482715       -13.1353
  52   2.0000      -0.470267       -12.7966
  53   2.0000      -0.467260       -12.7148
  54   2.0000      -0.463236       -12.6053
  55   2.0000      -0.446928       -12.1615
  56   2.0000      -0.439085       -11.9481
  57   2.0000      -0.430530       -11.7153
  58   2.0000      -0.426004       -11.5922
  59   2.0000      -0.424746       -11.5579
  60   2.0000      -0.422942       -11.5088
  61   2.0000      -0.413902       -11.2629
  62   2.0000      -0.411088       -11.1863
  63   2.0000      -0.338309        -9.2059
  64   2.0000      -0.333918        -9.0864
  65   2.0000      -0.320561        -8.7229
  66   2.0000      -0.303285        -8.2528
  67   0.0000       0.042003         1.1430
  68   0.0000       0.066069         1.7978
  69   0.0000       0.126175         3.4334
  70   0.0000       0.128330         3.4920
  71   0.0000       0.136951         3.7266

MULLIKEN ATOMIC CHARGES
-----------------------
   0 S :    0.104480
   1 C :   -0.128320
   2 C :   -0.142770
   3 C :    0.049893
   4 C :   -0.155512
   5 H :    0.007154
   6 C :    0.078250
   7 H :    0.016930
   8 H :    0.021986
   9 C :   -0.066149
  10 H :    0.032894
  11 H :    0.030605
  12 C :   -0.031607
  13 H :    0.011671
  14 H :    0.026451
  15 H :    0.051835
  16 S :    0.140008
  17 C :   -0.074802
  18 C :   -0.086536
  19 C :    0.032668
  20 C :   -0.207636
  21 H :    0.024895
  22 C :    0.035690
  23 H :    0.043404
  24 H :    0.052224
  25 C :   -0.105718
  26 H :    0.041479
  27 H :    0.032486
  28 C :   -0.065294
  29 H :    0.046865
  30 H :    0.035718
  31 H :    0.036219
  32 H :    0.059621
  33 H :    0.050919
Sum of atomic charges:   -0.0000000

LOEWDIN ATOMIC CHARGES
----------------------
   0 S :    0.394844
   1 C :   -0.218455
   2 C :   -0.061493
   3 C :   -0.066233
   4 C :   -0.191908
   5 H :    0.030347
   6 C :   -0.037602
   7 H :    0.024889
   8 H :    0.029923
   9 C :   -0.033229
  10 H :    0.023446
  11 H :    0.028296
  12 C :   -0.062522
  13 H :    0.012631
  14 H :    0.031687
  15 H :    0.033708
  16 S :    0.459075
  17 C :   -0.209416
  18 C :   -0.079877
  19 C :   -0.056236
  20 C :   -0.215632
  21 H :    0.031283
  22 C :   -0.030856
  23 H :    0.042530
  24 H :    0.035198
  25 C :   -0.046616
  26 H :    0.027004
  27 H :    0.022273
  28 C :   -0.071607
  29 H :    0.033834
  30 H :    0.028673
  31 H :    0.023478
  32 H :    0.039266
  33 H :    0.029294

  Mayer bond orders larger than 0.100000
B(  0-S ,  1-C ) :   1.1276 B(  0-S ,  4-C ) :   1.1373 B(  1-C ,  2-C ) :   1.6275
B(  1-C , 32-H ) :   0.9603 B(  2-C ,  3-C ) :   1.2258 B(  2-C ,  6-C ) :   1.0081
B(  3-C ,  4-C ) :   1.6225 B(  3-C ,  5-H ) :   0.9954 B(  4-C , 20-C ) :   0.9974
B(  6-C ,  7-H ) :   0.9283 B(  6-C ,  8-H ) :   0.9464 B(  6-C ,  9-C ) :   1.0830
B(  9-C , 10-H ) :   0.9575 B(  9-C , 11-H ) :   0.9528 B(  9-C , 12-C ) :   1.0700
B( 12-C , 13-H ) :   0.9779 B( 12-C , 14-H ) :   0.9726 B( 12-C , 15-H ) :   0.9735
B( 16-S , 17-C ) :   1.1820 B( 16-S , 20-C ) :   1.1811 B( 17-C , 18-C ) :   1.5706
B( 17-C , 20-C ) :   0.1015 B( 17-C , 33-H ) :   0.9703 B( 18-C , 19-C ) :   1.2731
B( 18-C , 21-H ) :   0.9801 B( 19-C , 20-C ) :   1.5917 B( 19-C , 22-C ) :   1.0192
B( 22-C , 23-H ) :   0.9427 B( 22-C , 24-H ) :   0.9372 B( 22-C , 25-C ) :   1.0622
B( 25-C , 26-H ) :   0.9520 B( 25-C , 27-H ) :   0.9551 B( 25-C , 28-C ) :   1.0823
B( 28-C , 29-H ) :   0.9743 B( 28-C , 30-H ) :   0.9725 B( 28-C , 31-H ) :   0.9741

Dispersion correction           -0.014099651
FINAL SINGLE POINT ENERGY     -1339.875244264779

DIPOLE MOMENT
-------------
                                X             Y             Z
Electronic contribution:    -13.82586      -1.93407     -14.48487
Nuclear contribution   :     14.08903       2.18399      14.89997
                        -----------------------------------------
Total Dipole Moment    :      0.26316       0.24992       0.41509
                        -----------------------------------------
Magnitude (a.u.)       :      0.55138
Magnitude (Debye)      :      1.40149

Rotational constants in cm-1:     0.019580     0.007870     0.006678
Rotational constants in MHz :   587.007129   235.948906   200.192093

                             ****ORCA TERMINATED NORMALLY****
TOTAL RUN TIME: 0 days 0 hours 0 minutes 19 seconds 954 msec
