                         Program Version 4.2.1 -  RELEASE  -
|  1> ! wB97X-D3 SP def2-SVP
|  2> %pal
|  3> nprocs 24
|  4> end
|  5>
|  6> * xyz 0 1
|  7> S 	 -71.8811 	 18.0253 	 -77.7819
|  8> C 	 -72.6123 	 19.3731 	 -76.8985
|  9> C 	 -71.7206 	 20.4339 	 -76.7255
| 10> C 	 -70.4123 	 20.043 	 -77.2428
| 11> C 	 -70.3229 	 18.7797 	 -77.7972
| 12> H 	 -69.5735 	 20.6926 	 -77.0946
| 13> C 	 -72.1685 	 21.7488 	 -76.042
| 14> H 	 -71.6436 	 21.8709 	 -75.1396
| 15> H 	 -73.1169 	 21.5557 	 -75.6128
| 16> C 	 -72.1652 	 22.9402 	 -76.9946
| 17> H 	 -71.0769 	 23.0433 	 -77.2395
| 18> H 	 -72.6682 	 22.7916 	 -77.9625
| 19> C 	 -72.5561 	 24.1942 	 -76.2359
| 20> H 	 -73.5991 	 24.217 	 -75.8483
| 21> H 	 -71.9946 	 24.3628 	 -75.3294
| 22> H 	 -72.4522 	 25.0854 	 -76.8547
| 23> S 	 -69.3383 	 16.2381 	 -77.9218
| 24> C 	 -67.8086 	 15.9061 	 -78.7659
| 25> C 	 -67.1942 	 17.0482 	 -79.2171
| 26> C 	 -68.0151 	 18.2237 	 -79.0338
| 27> C 	 -69.1792 	 17.9809 	 -78.2966
| 28> H 	 -66.1889 	 16.8915 	 -79.6027
| 29> C 	 -67.6234 	 19.5863 	 -79.5869
| 30> H 	 -68.3386 	 20.3636 	 -79.6043
| 31> H 	 -67.4911 	 19.4289 	 -80.6154
| 32> C 	 -66.3861 	 20.2903 	 -78.9104
| 33> H 	 -66.1651 	 21.1884 	 -79.5549
| 34> H 	 -65.5039 	 19.6662 	 -79.056
| 35> C 	 -66.5608 	 20.7146 	 -77.4646
| 36> H 	 -65.6085 	 21.2193 	 -77.1369
| 37> H 	 -66.6632 	 19.8479 	 -76.8304
| 38> H 	 -67.4227 	 21.3497 	 -77.3721
| 39> H 	 -73.6775 	 19.4592 	 -76.625
| 40> H 	 -67.4077 	 14.8409 	 -78.8083
| 41> *
| 42>
| 43>                          ****END OF INPUT****

CARTESIAN COORDINATES (ANGSTROEM)
---------------------------------
  S    -71.881100   18.025300  -77.781900
  C    -72.612300   19.373100  -76.898500
  C    -71.720600   20.433900  -76.725500
  C    -70.412300   20.043000  -77.242800
  C    -70.322900   18.779700  -77.797200
  H    -69.573500   20.692600  -77.094600
  C    -72.168500   21.748800  -76.042000
  H    -71.643600   21.870900  -75.139600
  H    -73.116900   21.555700  -75.612800
  C    -72.165200   22.940200  -76.994600
  H    -71.076900   23.043300  -77.239500
  H    -72.668200   22.791600  -77.962500
  C    -72.556100   24.194200  -76.235900
  H    -73.599100   24.217000  -75.848300
  H    -71.994600   24.362800  -75.329400
  H    -72.452200   25.085400  -76.854700
  S    -69.338300   16.238100  -77.921800
  C    -67.808600   15.906100  -78.765900
  C    -67.194200   17.048200  -79.217100
  C    -68.015100   18.223700  -79.033800
  C    -69.179200   17.980900  -78.296600
  H    -66.188900   16.891500  -79.602700
  C    -67.623400   19.586300  -79.586900
  H    -68.338600   20.363600  -79.604300
  H    -67.491100   19.428900  -80.615400
  C    -66.386100   20.290300  -78.910400
  H    -66.165100   21.188400  -79.554900
  H    -65.503900   19.666200  -79.056000
  C    -66.560800   20.714600  -77.464600
  H    -65.608500   21.219300  -77.136900
  H    -66.663200   19.847900  -76.830400
  H    -67.422700   21.349700  -77.372100
  H    -73.677500   19.459200  -76.625000
  H    -67.407700   14.840900  -78.808300

 Total Charge           Charge          ....    0
 Multiplicity           Mult            ....    1
 Number of Electrons    NEL             ....  134
 Basis Dimension        Dim             ....  322

ORBITAL ENERGIES
----------------

  NO   OCC          E(Eh)            E(eV)
   0   2.0000     -88.964457     -2420.8460
   1   2.0000     -88.962405     -2420.7901
   2   2.0000     -10.334700      -281.2215
   3   2.0000     -10.333095      -281.1778
   4   2.0000     -10.324993      -280.9573
   5   2.0000     -10.315555      -280.7005
   6   2.0000     -10.312707      -280.6230
   7   2.0000     -10.305344      -280.4227
   8   2.0000     -10.299930      -280.2753
   9   2.0000     -10.296266      -280.1756
  10   2.0000     -10.293443      -280.0988
  11   2.0000     -10.290670      -280.0234
  12   2.0000     -10.289876      -280.0018
  13   2.0000     -10.285774      -279.8901
  14   2.0000     -10.279855      -279.7291
  15   2.0000     -10.279308      -279.7142
  16   2.0000      -8.079203      -219.8463
  17   2.0000      -8.076503      -219.7728
  18   2.0000      -6.037825      -164.2976
  19   2.0000      -6.035073      -164.2227
  20   2.0000      -6.033651      -164.1840
  21   2.0000      -6.031155      -164.1161
  22   2.0000      -6.029872      -164.0812
  23   2.0000      -6.027151      -164.0071
  24   2.0000      -1.001417       -27.2499
  25   2.0000      -0.976859       -26.5817
  26   2.0000      -0.915359       -24.9082
  27   2.0000      -0.904572       -24.6147
  28   2.0000      -0.867939       -23.6178
  29   2.0000      -0.847503       -23.0617
  30   2.0000      -0.839665       -22.8485
  31   2.0000      -0.817122       -22.2350
  32   2.0000      -0.785542       -21.3757
  33   2.0000      -0.773842       -21.0573
  34   2.0000      -0.711536       -19.3619
  35   2.0000      -0.698254       -19.0005
  36   2.0000      -0.687834       -18.7169
  37   2.0000      -0.656909       -17.8754
  38   2.0000      -0.637368       -17.3437
  39   2.0000      -0.623091       -16.9552
  40   2.0000      -0.599053       -16.3011
  41   2.0000      -0.570268       -15.5178
  42   2.0000      -0.558659       -15.2019
  43   2.0000      -0.549328       -14.9480
  44   2.0000      -0.539538       -14.6816
  45   2.0000      -0.531928       -14.4745
  46   2.0000      -0.524758       -14.2794
  47   2.0000      -0.506036       -13.7700
  48   2.0000      -0.495891       -13.4939
  49   2.0000      -0.493517       -13.4293
  50   2.0000      -0.489606       -13.3228
  51   2.0000      -0.477577       -12.9955
  52   2.0000      -0.472843       -12.8667
  53   2.0000      -0.466873       -12.7043
  54   2.0000      -0.458873       -12.4866
  55   2.0000      -0.450971       -12.2715
  56   2.0000      -0.446239       -12.1428
  57   2.0000      -0.444474       -12.0948
  58   2.0000      -0.435398       -11.8478
  59   2.0000      -0.421549       -11.4709
  60   2.0000      -0.419266       -11.4088
  61   2.0000      -0.410498       -11.1702
  62   2.0000      -0.406859       -11.0712
  63   2.0000      -0.352543        -9.5932
  64   2.0000      -0.330205        -8.9853
  65   2.0000      -0.328844        -8.9483
  66   2.0000      -0.289225        -7.8702
  67   0.0000       0.026606         0.7240
  68   0.0000       0.076505         2.0818
  69   0.0000       0.103359         2.8125
  70   0.0000       0.118531         3.2254
  71   0.0000       0.131336         3.5738

MULLIKEN ATOMIC CHARGES
-----------------------
   0 S :    0.101209
   1 C :   -0.131521
   2 C :   -0.128023
   3 C :    0.042382
   4 C :   -0.104521
   5 H :   -0.029500
   6 C :    0.116556
   7 H :    0.016599
   8 H :   -0.009381
   9 C :   -0.077313
  10 H :    0.031331
  11 H :    0.048283
  12 C :   -0.039405
  13 H :    0.028007
  14 H :    0.022557
  15 H :    0.034156
  16 S :    0.076177
  17 C :   -0.124301
  18 C :   -0.034094
  19 C :   -0.030743
  20 C :   -0.129719
  21 H :    0.031145
  22 C :    0.096430
  23 H :    0.005472
  24 H :    0.016587
  25 C :   -0.110446
  26 H :    0.031016
  27 H :    0.022790
  28 C :   -0.039012
  29 H :    0.043227
  30 H :    0.042444
  31 H :    0.038324
  32 H :    0.058314
  33 H :    0.084973
Sum of atomic charges:    0.0000000

LOEWDIN ATOMIC CHARGES
----------------------
   0 S :    0.402517
   1 C :   -0.199142
   2 C :   -0.056185
   3 C :   -0.068491
   4 C :   -0.194804
   5 H :    0.020595
   6 C :   -0.025186
   7 H :    0.027607
   8 H :    0.022574
   9 C :   -0.040951
  10 H :    0.030384
  11 H :    0.032383
  12 C :   -0.070436
  13 H :    0.026760
  14 H :    0.024033
  15 H :    0.026202
  16 S :    0.368132
  17 C :   -0.178900
  18 C :   -0.075627
  19 C :   -0.052859
  20 C :   -0.179466
  21 H :    0.038652
  22 C :   -0.029846
  23 H :    0.024137
  24 H :    0.028795
  25 C :   -0.040455
  26 H :    0.027393
  27 H :    0.016983
  28 C :   -0.064104
  29 H :    0.037158
  30 H :    0.027404
  31 H :    0.018983
  32 H :    0.032689
  33 H :    0.043069

  Mayer bond orders larger than 0.100000
B(  0-S ,  1-C ) :   1.1314 B(  0-S ,  4-C ) :   1.1506 B(  1-C ,  2-C ) :   1.6284
B(  1-C , 32-H ) :   0.9598 B(  2-C ,  3-C ) :   1.2406 B(  2-C ,  6-C ) :   1.0162
B(  3-C ,  4-C ) :   1.5705 B(  3-C ,  5-H ) :   1.0022 B(  4-C , 20-C ) :   1.0357
B(  6-C ,  7-H ) :   0.9344 B(  6-C ,  8-H ) :   0.9349 B(  6-C ,  9-C ) :   1.0483
B(  9-C , 10-H ) :   0.9546 B(  9-C , 11-H ) :   0.9594 B(  9-C , 12-C ) :   1.0818
B( 12-C , 13-H ) :   0.9733 B( 12-C , 14-H ) :   0.9715 B( 12-C , 15-H ) :   0.9736
B( 16-S , 17-C ) :   1.1390 B( 16-S , 20-C ) :   1.1246 B( 17-C , 18-C ) :   1.6445
B( 17-C , 33-H ) :   0.9572 B( 18-C , 19-C ) :   1.1886 B( 18-C , 21-H ) :   0.9920
B( 19-C , 20-C ) :   1.6166 B( 19-C , 22-C ) :   1.0386 B( 22-C , 23-H ) :   0.9414
B( 22-C , 24-H ) :   0.9273 B( 22-C , 25-C ) :   1.0675 B( 25-C , 26-H ) :   0.9553
B( 25-C , 27-H ) :   0.9590 B( 25-C , 28-C ) :   1.0763 B( 28-C , 29-H ) :   0.9680
B( 28-C , 30-H ) :   0.9752 B( 28-C , 31-H ) :   0.9678

Dispersion correction           -0.014268138
FINAL SINGLE POINT ENERGY     -1339.878359843352

DIPOLE MOMENT
-------------
                                X             Y             Z
Electronic contribution:     -6.26690     -29.68632      -3.78434
Nuclear contribution   :      6.59375      30.29427       3.81570
                        -----------------------------------------
Total Dipole Moment    :      0.32685       0.60795       0.03136
                        -----------------------------------------
Magnitude (a.u.)       :      0.69096
Magnitude (Debye)      :      1.75628

Rotational constants in cm-1:     0.019791     0.008507     0.006278
Rotational constants in MHz :   593.331782   255.043359   188.208886

                             ****ORCA TERMINATED NORMALLY****
TOTAL RUN TIME: 0 days 0 hours 0 minutes 21 seconds 462 msec
