                         Program Version 4.2.1 -  RELEASE  -
|  1> ! wB97X-D3 SP def2-SVP
|  2> %pal
|  3> nprocs 24
|  4> end
|  5>
|  6> * xyz 0 1
|  7> S 	 -112.588 	 35.6028 	 -121.156
|  8> C 	 -112.778 	 33.9829 	 -120.472
|  9> C 	 -114.113 	 33.5087 	 -120.708
| 10> C 	 -114.939 	 34.4911 	 -121.237
| 11> C 	 -114.267 	 35.6816 	 -121.505
| 12> H 	 -116.021 	 34.4833 	 -121.353
| 13> C 	 -114.579 	 32.1824 	 -120.284
| 14> H 	 -113.777 	 31.5206 	 -119.866
| 15> H 	 -115.062 	 31.7032 	 -121.151
| 16> C 	 -115.71 	 32.105 	 -119.155
| 17> H 	 -115.218 	 32.5733 	 -118.346
| 18> H 	 -116.574 	 32.7204 	 -119.453
| 19> C 	 -116.012 	 30.6831 	 -118.599
| 20> H 	 -116.146 	 30.7336 	 -117.555
| 21> H 	 -116.903 	 30.2567 	 -119.051
| 22> H 	 -115.181 	 30.051 	 -118.814
| 23> S 	 -114.038 	 37.7851 	 -123.293
| 24> C 	 -115.36 	 39.0198 	 -123.385
| 25> C 	 -116.277 	 38.7624 	 -122.391
| 26> C 	 -115.973 	 37.5677 	 -121.675
| 27> C 	 -114.795 	 36.9422 	 -122.011
| 28> H 	 -117.117 	 39.3896 	 -122.326
| 29> C 	 -117.018 	 37.0433 	 -120.697
| 30> H 	 -117.442 	 37.8466 	 -120.042
| 31> H 	 -116.595 	 36.2506 	 -120.004
| 32> C 	 -118.246 	 36.4504 	 -121.407
| 33> H 	 -118.849 	 35.8387 	 -120.694
| 34> H 	 -118.061 	 35.8974 	 -122.337
| 35> C 	 -119.33 	 37.4614 	 -121.777
| 36> H 	 -119.6 	 38.1569 	 -120.941
| 37> H 	 -120.222 	 36.9616 	 -122.098
| 38> H 	 -119.009 	 38.0969 	 -122.532
| 39> H 	 -112.096 	 33.4048 	 -119.869
| 40> H 	 -115.297 	 39.8884 	 -124.062
| 41> *
| 42>
| 43>                          ****END OF INPUT****

CARTESIAN COORDINATES (ANGSTROEM)
---------------------------------
  S    -112.588000   35.602800  -121.156000
  C    -112.778000   33.982900  -120.472000
  C    -114.113000   33.508700  -120.708000
  C    -114.939000   34.491100  -121.237000
  C    -114.267000   35.681600  -121.505000
  H    -116.021000   34.483300  -121.353000
  C    -114.579000   32.182400  -120.284000
  H    -113.777000   31.520600  -119.866000
  H    -115.062000   31.703200  -121.151000
  C    -115.710000   32.105000  -119.155000
  H    -115.218000   32.573300  -118.346000
  H    -116.574000   32.720400  -119.453000
  C    -116.012000   30.683100  -118.599000
  H    -116.146000   30.733600  -117.555000
  H    -116.903000   30.256700  -119.051000
  H    -115.181000   30.051000  -118.814000
  S    -114.038000   37.785100  -123.293000
  C    -115.360000   39.019800  -123.385000
  C    -116.277000   38.762400  -122.391000
  C    -115.973000   37.567700  -121.675000
  C    -114.795000   36.942200  -122.011000
  H    -117.117000   39.389600  -122.326000
  C    -117.018000   37.043300  -120.697000
  H    -117.442000   37.846600  -120.042000
  H    -116.595000   36.250600  -120.004000
  C    -118.246000   36.450400  -121.407000
  H    -118.849000   35.838700  -120.694000
  H    -118.061000   35.897400  -122.337000
  C    -119.330000   37.461400  -121.777000
  H    -119.600000   38.156900  -120.941000
  H    -120.222000   36.961600  -122.098000
  H    -119.009000   38.096900  -122.532000
  H    -112.096000   33.404800  -119.869000
  H    -115.297000   39.888400  -124.062000

 Total Charge           Charge          ....    0
 Multiplicity           Mult            ....    1
 Number of Electrons    NEL             ....  134
 Basis Dimension        Dim             ....  322

ORBITAL ENERGIES
----------------

  NO   OCC          E(Eh)            E(eV)
   0   2.0000     -88.972344     -2421.0606
   1   2.0000     -88.964345     -2420.8429
   2   2.0000     -10.329756      -281.0869
   3   2.0000     -10.325171      -280.9622
   4   2.0000     -10.324884      -280.9544
   5   2.0000     -10.318121      -280.7703
   6   2.0000     -10.303282      -280.3665
   7   2.0000     -10.301499      -280.3180
   8   2.0000     -10.297923      -280.2207
   9   2.0000     -10.295716      -280.1607
  10   2.0000     -10.294382      -280.1244
  11   2.0000     -10.294358      -280.1237
  12   2.0000     -10.288862      -279.9742
  13   2.0000     -10.287413      -279.9347
  14   2.0000     -10.276288      -279.6320
  15   2.0000     -10.271386      -279.4986
  16   2.0000      -8.086881      -220.0552
  17   2.0000      -8.079077      -219.8429
  18   2.0000      -6.045233      -164.4992
  19   2.0000      -6.041355      -164.3936
  20   2.0000      -6.037888      -164.2993
  21   2.0000      -6.037667      -164.2933
  22   2.0000      -6.033495      -164.1797
  23   2.0000      -6.029831      -164.0801
  24   2.0000      -1.011508       -27.5245
  25   2.0000      -0.985745       -26.8235
  26   2.0000      -0.911786       -24.8110
  27   2.0000      -0.907698       -24.6997
  28   2.0000      -0.871055       -23.7026
  29   2.0000      -0.855170       -23.2704
  30   2.0000      -0.846871       -23.0445
  31   2.0000      -0.818013       -22.2593
  32   2.0000      -0.783524       -21.3208
  33   2.0000      -0.770460       -20.9653
  34   2.0000      -0.708977       -19.2922
  35   2.0000      -0.699142       -19.0246
  36   2.0000      -0.688273       -18.7289
  37   2.0000      -0.667423       -18.1615
  38   2.0000      -0.641343       -17.4518
  39   2.0000      -0.623838       -16.9755
  40   2.0000      -0.598825       -16.2948
  41   2.0000      -0.573120       -15.5954
  42   2.0000      -0.566456       -15.4141
  43   2.0000      -0.549936       -14.9645
  44   2.0000      -0.547096       -14.8872
  45   2.0000      -0.529357       -14.4045
  46   2.0000      -0.518533       -14.1100
  47   2.0000      -0.510605       -13.8943
  48   2.0000      -0.506741       -13.7891
  49   2.0000      -0.498354       -13.5609
  50   2.0000      -0.492631       -13.4052
  51   2.0000      -0.481278       -13.0963
  52   2.0000      -0.478506       -13.0208
  53   2.0000      -0.467891       -12.7319
  54   2.0000      -0.461230       -12.5507
  55   2.0000      -0.449448       -12.2301
  56   2.0000      -0.442772       -12.0484
  57   2.0000      -0.439942       -11.9714
  58   2.0000      -0.434196       -11.8151
  59   2.0000      -0.425970       -11.5912
  60   2.0000      -0.419025       -11.4022
  61   2.0000      -0.414967       -11.2918
  62   2.0000      -0.408101       -11.1050
  63   2.0000      -0.351722        -9.5708
  64   2.0000      -0.335183        -9.1208
  65   2.0000      -0.327927        -8.9233
  66   2.0000      -0.286621        -7.7994
  67   0.0000       0.027290         0.7426
  68   0.0000       0.068367         1.8604
  69   0.0000       0.104560         2.8452
  70   0.0000       0.121095         3.2952
  71   0.0000       0.127220         3.4618

MULLIKEN ATOMIC CHARGES
-----------------------
   0 S :    0.128424
   1 C :   -0.112848
   2 C :   -0.062473
   3 C :    0.025649
   4 C :   -0.167288
   5 H :    0.013145
   6 C :    0.027562
   7 H :    0.023885
   8 H :    0.039604
   9 C :   -0.107372
  10 H :    0.018387
  11 H :    0.037273
  12 C :   -0.009214
  13 H :    0.029625
  14 H :    0.034988
  15 H :    0.020329
  16 S :    0.090202
  17 C :   -0.118469
  18 C :   -0.003944
  19 C :   -0.034619
  20 C :   -0.107536
  21 H :    0.010688
  22 C :    0.024724
  23 H :    0.031232
  24 H :    0.047103
  25 C :   -0.100492
  26 H :    0.033353
  27 H :    0.046568
  28 C :   -0.040072
  29 H :    0.023040
  30 H :    0.030575
  31 H :    0.011146
  32 H :    0.044023
  33 H :    0.072802
Sum of atomic charges:    0.0000000

LOEWDIN ATOMIC CHARGES
----------------------
   0 S :    0.429531
   1 C :   -0.201836
   2 C :   -0.059941
   3 C :   -0.064193
   4 C :   -0.192991
   5 H :    0.035062
   6 C :   -0.039058
   7 H :    0.031533
   8 H :    0.034510
   9 C :   -0.038681
  10 H :    0.017079
  11 H :    0.021886
  12 C :   -0.055428
  13 H :    0.023607
  14 H :    0.026714
  15 H :    0.022932
  16 S :    0.391586
  17 C :   -0.166460
  18 C :   -0.061102
  19 C :   -0.063201
  20 C :   -0.213674
  21 H :    0.026945
  22 C :   -0.040226
  23 H :    0.034749
  24 H :    0.035941
  25 C :   -0.048631
  26 H :    0.029329
  27 H :    0.027273
  28 C :   -0.063546
  29 H :    0.025419
  30 H :    0.024687
  31 H :    0.007905
  32 H :    0.026795
  33 H :    0.035486

  Mayer bond orders larger than 0.100000
B(  0-S ,  1-C ) :   1.1455 B(  0-S ,  4-C ) :   1.1826 B(  1-C ,  2-C ) :   1.5533
B(  1-C ,  4-C ) :   0.1163 B(  1-C , 32-H ) :   0.9703 B(  2-C ,  3-C ) :   1.2619
B(  2-C ,  6-C ) :   1.0572 B(  3-C ,  4-C ) :   1.5344 B(  3-C ,  5-H ) :   0.9966
B(  4-C , 20-C ) :   1.0230 B(  6-C ,  7-H ) :   0.9407 B(  6-C ,  8-H ) :   0.9312
B(  6-C ,  9-C ) :   1.0539 B(  9-C , 10-H ) :   0.9623 B(  9-C , 11-H ) :   0.9596
B(  9-C , 12-C ) :   1.0716 B( 12-C , 13-H ) :   0.9793 B( 12-C , 14-H ) :   0.9770
B( 12-C , 15-H ) :   0.9728 B( 16-S , 17-C ) :   1.1415 B( 16-S , 20-C ) :   1.1396
B( 17-C , 18-C ) :   1.6029 B( 17-C , 33-H ) :   0.9658 B( 18-C , 19-C ) :   1.2287
B( 18-C , 21-H ) :   0.9984 B( 19-C , 20-C ) :   1.6025 B( 19-C , 22-C ) :   1.0553
B( 22-C , 23-H ) :   0.9366 B( 22-C , 24-H ) :   0.9376 B( 22-C , 25-C ) :   1.0528
B( 25-C , 26-H ) :   0.9597 B( 25-C , 27-H ) :   0.9525 B( 25-C , 28-C ) :   1.0831
B( 28-C , 29-H ) :   0.9721 B( 28-C , 30-H ) :   0.9708 B( 28-C , 31-H ) :   0.9706

Dispersion correction           -0.014353725
FINAL SINGLE POINT ENERGY     -1339.869674951730

DIPOLE MOMENT
-------------
                                X             Y             Z
Electronic contribution:     24.52500      15.61549     -12.60930
Nuclear contribution   :    -25.17258     -15.82432      12.93273
                        -----------------------------------------
Total Dipole Moment    :     -0.64758      -0.20883       0.32343
                        -----------------------------------------
Magnitude (a.u.)       :      0.75338
Magnitude (Debye)      :      1.91493

Rotational constants in cm-1:     0.018550     0.009011     0.006332
Rotational constants in MHz :   556.122610   270.142564   189.841760

                             ****ORCA TERMINATED NORMALLY****
TOTAL RUN TIME: 0 days 0 hours 0 minutes 21 seconds 186 msec
