                         Program Version 4.2.1 -  RELEASE  -
|  1> ! wB97X-D3 SP def2-SVP
|  2> %pal
|  3> nprocs 24
|  4> end
|  5>
|  6> * xyz 0 1
|  7> S 	 -87.4353 	 -3.54242 	 -114.16
|  8> C 	 -87.2211 	 -2.83387 	 -115.731
|  9> C 	 -88.3707 	 -2.75156 	 -116.474
| 10> C 	 -89.4851 	 -3.3713 	 -115.758
| 11> C 	 -89.1776 	 -3.77725 	 -114.429
| 12> H 	 -90.4701 	 -3.57539 	 -116.236
| 13> C 	 -88.4741 	 -2.29851 	 -117.942
| 14> H 	 -88.5538 	 -3.15043 	 -118.643
| 15> H 	 -87.5219 	 -1.80423 	 -118.114
| 16> C 	 -89.5426 	 -1.205 	 -118.311
| 17> H 	 -90.5117 	 -1.49348 	 -117.928
| 18> H 	 -89.3578 	 -0.310709 	 -117.681
| 19> C 	 -89.5596 	 -0.839286 	 -119.801
| 20> H 	 -89.4559 	 -1.70909 	 -120.347
| 21> H 	 -90.4555 	 -0.223398 	 -120.042
| 22> H 	 -88.8201 	 -0.0633899 	 -119.95
| 23> S 	 -89.4398 	 -5.6529 	 -112.652
| 24> C 	 -90.905 	 -5.80441 	 -111.729
| 25> C 	 -91.858 	 -4.85657 	 -112.14
| 26> C 	 -91.4246 	 -3.95963 	 -113.13
| 27> C 	 -90.1095 	 -4.26248 	 -113.455
| 28> H 	 -92.8456 	 -5.01366 	 -111.736
| 29> C 	 -92.3583 	 -2.90982 	 -113.777
| 30> H 	 -91.8746 	 -1.92807 	 -113.963
| 31> H 	 -93.1576 	 -2.89272 	 -113.011
| 32> C 	 -93.07 	 -3.24334 	 -115.077
| 33> H 	 -92.5312 	 -3.26013 	 -115.981
| 34> H 	 -93.8696 	 -2.51446 	 -115.351
| 35> C 	 -93.8178 	 -4.58779 	 -114.955
| 36> H 	 -93.9321 	 -4.91551 	 -116.033
| 37> H 	 -94.8213 	 -4.66803 	 -114.406
| 38> H 	 -93.2226 	 -5.44642 	 -114.629
| 39> H 	 -86.3155 	 -2.55772 	 -116.208
| 40> H 	 -91.138 	 -6.63861 	 -111.064
| 41> *
| 42>
| 43>                          ****END OF INPUT****

CARTESIAN COORDINATES (ANGSTROEM)
---------------------------------
  S    -87.435300   -3.542420  -114.160000
  C    -87.221100   -2.833870  -115.731000
  C    -88.370700   -2.751560  -116.474000
  C    -89.485100   -3.371300  -115.758000
  C    -89.177600   -3.777250  -114.429000
  H    -90.470100   -3.575390  -116.236000
  C    -88.474100   -2.298510  -117.942000
  H    -88.553800   -3.150430  -118.643000
  H    -87.521900   -1.804230  -118.114000
  C    -89.542600   -1.205000  -118.311000
  H    -90.511700   -1.493480  -117.928000
  H    -89.357800   -0.310709  -117.681000
  C    -89.559600   -0.839286  -119.801000
  H    -89.455900   -1.709090  -120.347000
  H    -90.455500   -0.223398  -120.042000
  H    -88.820100   -0.063390  -119.950000
  S    -89.439800   -5.652900  -112.652000
  C    -90.905000   -5.804410  -111.729000
  C    -91.858000   -4.856570  -112.140000
  C    -91.424600   -3.959630  -113.130000
  C    -90.109500   -4.262480  -113.455000
  H    -92.845600   -5.013660  -111.736000
  C    -92.358300   -2.909820  -113.777000
  H    -91.874600   -1.928070  -113.963000
  H    -93.157600   -2.892720  -113.011000
  C    -93.070000   -3.243340  -115.077000
  H    -92.531200   -3.260130  -115.981000
  H    -93.869600   -2.514460  -115.351000
  C    -93.817800   -4.587790  -114.955000
  H    -93.932100   -4.915510  -116.033000
  H    -94.821300   -4.668030  -114.406000
  H    -93.222600   -5.446420  -114.629000
  H    -86.315500   -2.557720  -116.208000
  H    -91.138000   -6.638610  -111.064000

 Total Charge           Charge          ....    0
 Multiplicity           Mult            ....    1
 Number of Electrons    NEL             ....  134
 Basis Dimension        Dim             ....  322

ORBITAL ENERGIES
----------------

  NO   OCC          E(Eh)            E(eV)
   0   2.0000     -88.969650     -2420.9873
   1   2.0000     -88.968054     -2420.9438
   2   2.0000     -10.332345      -281.1574
   3   2.0000     -10.325682      -280.9761
   4   2.0000     -10.317483      -280.7530
   5   2.0000     -10.310196      -280.5547
   6   2.0000     -10.308516      -280.5090
   7   2.0000     -10.302702      -280.3508
   8   2.0000     -10.301180      -280.3094
   9   2.0000     -10.299705      -280.2692
  10   2.0000     -10.298887      -280.2470
  11   2.0000     -10.295027      -280.1419
  12   2.0000     -10.289830      -280.0005
  13   2.0000     -10.288984      -279.9775
  14   2.0000     -10.283210      -279.8204
  15   2.0000     -10.278093      -279.6811
  16   2.0000      -8.083718      -219.9691
  17   2.0000      -8.083312      -219.9581
  18   2.0000      -6.042392      -164.4219
  19   2.0000      -6.041634      -164.4012
  20   2.0000      -6.038327      -164.3112
  21   2.0000      -6.037701      -164.2942
  22   2.0000      -6.034322      -164.2022
  23   2.0000      -6.034264      -164.2007
  24   2.0000      -1.008767       -27.4499
  25   2.0000      -0.980600       -26.6835
  26   2.0000      -0.912175       -24.8215
  27   2.0000      -0.905505       -24.6400
  28   2.0000      -0.872651       -23.7460
  29   2.0000      -0.852649       -23.2018
  30   2.0000      -0.844709       -22.9857
  31   2.0000      -0.808259       -21.9938
  32   2.0000      -0.782433       -21.2911
  33   2.0000      -0.773635       -21.0517
  34   2.0000      -0.712584       -19.3904
  35   2.0000      -0.701577       -19.0909
  36   2.0000      -0.691870       -18.8267
  37   2.0000      -0.666972       -18.1492
  38   2.0000      -0.634034       -17.2530
  39   2.0000      -0.614635       -16.7251
  40   2.0000      -0.590331       -16.0637
  41   2.0000      -0.574354       -15.6290
  42   2.0000      -0.561891       -15.2898
  43   2.0000      -0.554229       -15.0813
  44   2.0000      -0.542345       -14.7580
  45   2.0000      -0.528324       -14.3764
  46   2.0000      -0.519993       -14.1497
  47   2.0000      -0.508135       -13.8271
  48   2.0000      -0.499878       -13.6024
  49   2.0000      -0.494206       -13.4480
  50   2.0000      -0.491421       -13.3723
  51   2.0000      -0.485087       -13.1999
  52   2.0000      -0.469531       -12.7766
  53   2.0000      -0.461351       -12.5540
  54   2.0000      -0.458612       -12.4795
  55   2.0000      -0.450160       -12.2495
  56   2.0000      -0.441141       -12.0041
  57   2.0000      -0.437112       -11.8944
  58   2.0000      -0.436735       -11.8842
  59   2.0000      -0.425189       -11.5700
  60   2.0000      -0.417597       -11.3634
  61   2.0000      -0.412392       -11.2218
  62   2.0000      -0.410083       -11.1589
  63   2.0000      -0.348789        -9.4910
  64   2.0000      -0.337231        -9.1765
  65   2.0000      -0.329016        -8.9530
  66   2.0000      -0.285470        -7.7680
  67   0.0000       0.022680         0.6172
  68   0.0000       0.073339         1.9957
  69   0.0000       0.102385         2.7860
  70   0.0000       0.122503         3.3335
  71   0.0000       0.125690         3.4202

MULLIKEN ATOMIC CHARGES
-----------------------
   0 S :    0.120271
   1 C :   -0.091591
   2 C :   -0.097532
   3 C :    0.004400
   4 C :   -0.135389
   5 H :    0.019036
   6 C :    0.051713
   7 H :    0.047913
   8 H :    0.011441
   9 C :   -0.102963
  10 H :    0.015562
  11 H :    0.026493
  12 C :   -0.009842
  13 H :    0.029663
  14 H :    0.034764
  15 H :    0.029940
  16 S :    0.110270
  17 C :   -0.096252
  18 C :   -0.065960
  19 C :   -0.014107
  20 C :   -0.169187
  21 H :    0.017751
  22 C :    0.105990
  23 H :    0.048232
  24 H :    0.023635
  25 C :   -0.042796
  26 H :    0.012468
  27 H :    0.035371
  28 C :   -0.130561
  29 H :    0.024560
  30 H :    0.053714
  31 H :    0.044167
  32 H :    0.028257
  33 H :    0.060573
Sum of atomic charges:   -0.0000000

LOEWDIN ATOMIC CHARGES
----------------------
   0 S :    0.399659
   1 C :   -0.197490
   2 C :   -0.065801
   3 C :   -0.066548
   4 C :   -0.198002
   5 H :    0.031445
   6 C :   -0.032049
   7 H :    0.033279
   8 H :    0.027457
   9 C :   -0.044324
  10 H :    0.012682
  11 H :    0.027105
  12 C :   -0.058959
  13 H :    0.015378
  14 H :    0.036060
  15 H :    0.028861
  16 S :    0.425013
  17 C :   -0.196621
  18 C :   -0.069923
  19 C :   -0.056384
  20 C :   -0.191692
  21 H :    0.030473
  22 C :   -0.027547
  23 H :    0.039321
  24 H :    0.037751
  25 C :   -0.043498
  26 H :    0.012623
  27 H :    0.036456
  28 C :   -0.088528
  29 H :    0.031964
  30 H :    0.032593
  31 H :    0.025242
  32 H :    0.023337
  33 H :    0.030667

  Mayer bond orders larger than 0.100000
B(  0-S ,  1-C ) :   1.1296 B(  0-S ,  4-C ) :   1.1313 B(  1-C ,  2-C ) :   1.6403
B(  1-C , 32-H ) :   0.9613 B(  2-C ,  3-C ) :   1.2327 B(  2-C ,  6-C ) :   1.0252
B(  3-C ,  4-C ) :   1.5612 B(  3-C ,  5-H ) :   0.9843 B(  4-C , 20-C ) :   1.0711
B(  6-C ,  7-H ) :   0.9432 B(  6-C ,  8-H ) :   0.9416 B(  6-C ,  9-C ) :   1.0487
B(  9-C , 10-H ) :   0.9623 B(  9-C , 11-H ) :   0.9561 B(  9-C , 12-C ) :   1.0767
B( 12-C , 13-H ) :   0.9776 B( 12-C , 14-H ) :   0.9707 B( 12-C , 15-H ) :   0.9758
B( 16-S , 17-C ) :   1.1574 B( 16-S , 20-C ) :   1.1689 B( 17-C , 18-C ) :   1.6008
B( 17-C , 20-C ) :   0.1074 B( 17-C , 33-H ) :   0.9665 B( 18-C , 19-C ) :   1.2431
B( 18-C , 21-H ) :   0.9866 B( 19-C , 20-C ) :   1.5568 B( 19-C , 22-C ) :   1.0342
B( 22-C , 23-H ) :   0.9347 B( 22-C , 24-H ) :   0.9273 B( 22-C , 25-C ) :   1.0751
B( 25-C , 26-H ) :   0.9583 B( 25-C , 27-H ) :   0.9468 B( 25-C , 28-C ) :   1.0663
B( 28-C , 29-H ) :   0.9729 B( 28-C , 30-H ) :   0.9766 B( 28-C , 31-H ) :   0.9714

Dispersion correction           -0.014551012
FINAL SINGLE POINT ENERGY     -1339.859565650415

DIPOLE MOMENT
-------------
                                X             Y             Z
Electronic contribution:     18.38987     -12.24826      22.80129
Nuclear contribution   :    -18.89740      12.36843     -23.33467
                        -----------------------------------------
Total Dipole Moment    :     -0.50753       0.12017      -0.53338
                        -----------------------------------------
Magnitude (a.u.)       :      0.74600
Magnitude (Debye)      :      1.89619

Rotational constants in cm-1:     0.018629     0.009208     0.006520
Rotational constants in MHz :   558.482284   276.039021   195.467062

                             ****ORCA TERMINATED NORMALLY****
TOTAL RUN TIME: 0 days 0 hours 0 minutes 20 seconds 849 msec
