                         Program Version 4.2.1 -  RELEASE  -
|  1> ! wB97X-D3 SP def2-SVP
|  2> %pal
|  3> nprocs 24
|  4> end
|  5>
|  6> * xyz 0 1
|  7> S 	 -145.025 	 1.19647 	 15.2076
|  8> C 	 -145.399 	 0.756452 	 13.567
|  9> C 	 -145.064 	 1.76739 	 12.6566
| 10> C 	 -144.604 	 2.94353 	 13.2884
| 11> C 	 -144.395 	 2.72062 	 14.66
| 12> H 	 -144.317 	 3.84942 	 12.7609
| 13> C 	 -145.301 	 1.76243 	 11.116
| 14> H 	 -146.233 	 2.2513 	 11.0627
| 15> H 	 -145.555 	 0.779213 	 10.8353
| 16> C 	 -144.254 	 2.56343 	 10.2173
| 17> H 	 -144.652 	 3.55293 	 10.1454
| 18> H 	 -143.235 	 2.55751 	 10.6993
| 19> C 	 -144.228 	 2.00221 	 8.81343
| 20> H 	 -143.955 	 0.936565 	 8.766
| 21> H 	 -145.269 	 1.89054 	 8.36513
| 22> H 	 -143.625 	 2.44196 	 8.01455
| 23> S 	 -141.973 	 4.01271 	 15.3022
| 24> C 	 -141.812 	 4.75376 	 16.8583
| 25> C 	 -143.018 	 4.87123 	 17.3919
| 26> C 	 -144.124 	 4.32017 	 16.6775
| 27> C 	 -143.632 	 3.56306 	 15.6188
| 28> H 	 -142.997 	 5.27414 	 18.4106
| 29> C 	 -145.557 	 4.40299 	 17.2494
| 30> H 	 -145.478 	 4.3011 	 18.3472
| 31> H 	 -146.164 	 3.52082 	 16.8934
| 32> C 	 -146.272 	 5.69294 	 16.8249
| 33> H 	 -145.996 	 5.90154 	 15.8427
| 34> H 	 -145.939 	 6.53502 	 17.4775
| 35> C 	 -147.817 	 5.59837 	 16.9338
| 36> H 	 -148.365 	 6.41531 	 16.5172
| 37> H 	 -148.175 	 5.51833 	 17.9765
| 38> H 	 -148.126 	 4.5871 	 16.6078
| 39> H 	 -145.753 	 -0.243403 	 13.2969
| 40> H 	 -140.845 	 5.07346 	 17.1983
| 41> *
| 42>
| 43>                          ****END OF INPUT****

CARTESIAN COORDINATES (ANGSTROEM)
---------------------------------
  S    -145.025000    1.196470   15.207600
  C    -145.399000    0.756452   13.567000
  C    -145.064000    1.767390   12.656600
  C    -144.604000    2.943530   13.288400
  C    -144.395000    2.720620   14.660000
  H    -144.317000    3.849420   12.760900
  C    -145.301000    1.762430   11.116000
  H    -146.233000    2.251300   11.062700
  H    -145.555000    0.779213   10.835300
  C    -144.254000    2.563430   10.217300
  H    -144.652000    3.552930   10.145400
  H    -143.235000    2.557510   10.699300
  C    -144.228000    2.002210    8.813430
  H    -143.955000    0.936565    8.766000
  H    -145.269000    1.890540    8.365130
  H    -143.625000    2.441960    8.014550
  S    -141.973000    4.012710   15.302200
  C    -141.812000    4.753760   16.858300
  C    -143.018000    4.871230   17.391900
  C    -144.124000    4.320170   16.677500
  C    -143.632000    3.563060   15.618800
  H    -142.997000    5.274140   18.410600
  C    -145.557000    4.402990   17.249400
  H    -145.478000    4.301100   18.347200
  H    -146.164000    3.520820   16.893400
  C    -146.272000    5.692940   16.824900
  H    -145.996000    5.901540   15.842700
  H    -145.939000    6.535020   17.477500
  C    -147.817000    5.598370   16.933800
  H    -148.365000    6.415310   16.517200
  H    -148.175000    5.518330   17.976500
  H    -148.126000    4.587100   16.607800
  H    -145.753000   -0.243403   13.296900
  H    -140.845000    5.073460   17.198300

 Total Charge           Charge          ....    0
 Multiplicity           Mult            ....    1
 Number of Electrons    NEL             ....  134
 Basis Dimension        Dim             ....  322

ORBITAL ENERGIES
----------------

  NO   OCC          E(Eh)            E(eV)
   0   2.0000     -88.969302     -2420.9778
   1   2.0000     -88.957156     -2420.6473
   2   2.0000     -10.330657      -281.1115
   3   2.0000     -10.326597      -281.0010
   4   2.0000     -10.313246      -280.6377
   5   2.0000     -10.308065      -280.4967
   6   2.0000     -10.303819      -280.3812
   7   2.0000     -10.303143      -280.3628
   8   2.0000     -10.297951      -280.2215
   9   2.0000     -10.297403      -280.2066
  10   2.0000     -10.293864      -280.1103
  11   2.0000     -10.290809      -280.0272
  12   2.0000     -10.286100      -279.8990
  13   2.0000     -10.283967      -279.8410
  14   2.0000     -10.282966      -279.8137
  15   2.0000     -10.276621      -279.6411
  16   2.0000      -8.083945      -219.9753
  17   2.0000      -8.072975      -219.6768
  18   2.0000      -6.042288      -164.4190
  19   2.0000      -6.038425      -164.3139
  20   2.0000      -6.034938      -164.2190
  21   2.0000      -6.031443      -164.1239
  22   2.0000      -6.027443      -164.0151
  23   2.0000      -6.023585      -163.9101
  24   2.0000      -1.007980       -27.4285
  25   2.0000      -0.987516       -26.8717
  26   2.0000      -0.906824       -24.6759
  27   2.0000      -0.903789       -24.5934
  28   2.0000      -0.866454       -23.5774
  29   2.0000      -0.851479       -23.1699
  30   2.0000      -0.843959       -22.9653
  31   2.0000      -0.812291       -22.1036
  32   2.0000      -0.781220       -21.2581
  33   2.0000      -0.769612       -20.9422
  34   2.0000      -0.712395       -19.3853
  35   2.0000      -0.699421       -19.0322
  36   2.0000      -0.688751       -18.7419
  37   2.0000      -0.655444       -17.8355
  38   2.0000      -0.637213       -17.3394
  39   2.0000      -0.620277       -16.8786
  40   2.0000      -0.597861       -16.2686
  41   2.0000      -0.568022       -15.4567
  42   2.0000      -0.561606       -15.2821
  43   2.0000      -0.557296       -15.1648
  44   2.0000      -0.528227       -14.3738
  45   2.0000      -0.522624       -14.2213
  46   2.0000      -0.515464       -14.0265
  47   2.0000      -0.511819       -13.9273
  48   2.0000      -0.508740       -13.8435
  49   2.0000      -0.488724       -13.2988
  50   2.0000      -0.484944       -13.1960
  51   2.0000      -0.481484       -13.1019
  52   2.0000      -0.473905       -12.8956
  53   2.0000      -0.460999       -12.5444
  54   2.0000      -0.457184       -12.4406
  55   2.0000      -0.446908       -12.1610
  56   2.0000      -0.442163       -12.0319
  57   2.0000      -0.435892       -11.8612
  58   2.0000      -0.434038       -11.8108
  59   2.0000      -0.427664       -11.6373
  60   2.0000      -0.418285       -11.3821
  61   2.0000      -0.415880       -11.3167
  62   2.0000      -0.413134       -11.2420
  63   2.0000      -0.336002        -9.1431
  64   2.0000      -0.334152        -9.0927
  65   2.0000      -0.325698        -8.8627
  66   2.0000      -0.296893        -8.0789
  67   0.0000       0.038600         1.0504
  68   0.0000       0.060829         1.6552
  69   0.0000       0.113775         3.0960
  70   0.0000       0.122345         3.3292
  71   0.0000       0.136622         3.7177

MULLIKEN ATOMIC CHARGES
-----------------------
   0 S :    0.128426
   1 C :   -0.140190
   2 C :   -0.110779
   3 C :    0.025344
   4 C :   -0.176842
   5 H :    0.023086
   6 C :    0.094950
   7 H :    0.030477
   8 H :   -0.000650
   9 C :   -0.056876
  10 H :    0.037203
  11 H :    0.061596
  12 C :   -0.084755
  13 H :    0.026769
  14 H :    0.026108
  15 H :    0.041426
  16 S :    0.092485
  17 C :   -0.091106
  18 C :   -0.025988
  19 C :   -0.017361
  20 C :   -0.158472
  21 H :    0.022225
  22 C :    0.036540
  23 H :    0.036407
  24 H :    0.024284
  25 C :   -0.040083
  26 H :    0.023136
  27 H :    0.034171
  28 C :   -0.046888
  29 H :    0.040468
  30 H :    0.017999
  31 H :    0.024380
  32 H :    0.050746
  33 H :    0.051761
Sum of atomic charges:    0.0000000

LOEWDIN ATOMIC CHARGES
----------------------
   0 S :    0.429005
   1 C :   -0.217257
   2 C :   -0.055940
   3 C :   -0.068000
   4 C :   -0.192579
   5 H :    0.034558
   6 C :   -0.022271
   7 H :    0.033409
   8 H :    0.019700
   9 C :   -0.038484
  10 H :    0.024815
  11 H :    0.035539
  12 C :   -0.081701
  13 H :    0.025511
  14 H :    0.031103
  15 H :    0.026510
  16 S :    0.398737
  17 C :   -0.181085
  18 C :   -0.080293
  19 C :   -0.055921
  20 C :   -0.201864
  21 H :    0.034320
  22 C :   -0.031493
  23 H :    0.032223
  24 H :    0.028213
  25 C :   -0.034392
  26 H :    0.016935
  27 H :    0.028954
  28 C :   -0.069985
  29 H :    0.023472
  30 H :    0.025943
  31 H :    0.026486
  32 H :    0.027749
  33 H :    0.028083

  Mayer bond orders larger than 0.100000
B(  0-S ,  1-C ) :   1.1414 B(  0-S ,  4-C ) :   1.1886 B(  1-C ,  2-C ) :   1.5997
B(  1-C ,  4-C ) :   0.1044 B(  1-C , 32-H ) :   0.9668 B(  2-C ,  3-C ) :   1.2580
B(  2-C ,  6-C ) :   1.0103 B(  3-C ,  4-C ) :   1.5516 B(  3-C ,  5-H ) :   0.9929
B(  4-C , 20-C ) :   1.0082 B(  6-C ,  7-H ) :   0.9323 B(  6-C ,  8-H ) :   0.9486
B(  6-C ,  9-C ) :   1.0343 B(  9-C , 10-H ) :   0.9484 B(  9-C , 11-H ) :   0.9672
B(  9-C , 12-C ) :   1.0803 B( 12-C , 13-H ) :   0.9756 B( 12-C , 14-H ) :   0.9697
B( 12-C , 15-H ) :   0.9759 B( 16-S , 17-C ) :   1.1390 B( 16-S , 20-C ) :   1.1465
B( 17-C , 18-C ) :   1.6382 B( 17-C , 33-H ) :   0.9741 B( 18-C , 19-C ) :   1.2069
B( 18-C , 21-H ) :   0.9862 B( 19-C , 20-C ) :   1.5931 B( 19-C , 22-C ) :   1.0425
B( 22-C , 23-H ) :   0.9417 B( 22-C , 24-H ) :   0.9365 B( 22-C , 25-C ) :   1.0551
B( 25-C , 26-H ) :   0.9600 B( 25-C , 27-H ) :   0.9522 B( 25-C , 28-C ) :   1.0819
B( 28-C , 29-H ) :   0.9769 B( 28-C , 30-H ) :   0.9720 B( 28-C , 31-H ) :   0.9743

Dispersion correction           -0.013797237
FINAL SINGLE POINT ENERGY     -1339.865558424651

DIPOLE MOMENT
-------------
                                X             Y             Z
Electronic contribution:     14.04437      -6.61692      12.47378
Nuclear contribution   :    -14.27868       6.80988     -12.64325
                        -----------------------------------------
Total Dipole Moment    :     -0.23430       0.19296      -0.16947
                        -----------------------------------------
Magnitude (a.u.)       :      0.34764
Magnitude (Debye)      :      0.88363

Rotational constants in cm-1:     0.018264     0.007749     0.006766
Rotational constants in MHz :   547.534684   232.315328   202.852411

                             ****ORCA TERMINATED NORMALLY****
TOTAL RUN TIME: 0 days 0 hours 0 minutes 20 seconds 884 msec
