                         Program Version 4.2.1 -  RELEASE  -
|  1> ! wB97X-D3 SP def2-SVP
|  2> %pal
|  3> nprocs 24
|  4> end
|  5>
|  6> * xyz 0 1
|  7> S 	 -46.8112 	 20.4065 	 32.09
|  8> C 	 -45.3426 	 19.8194 	 31.4057
|  9> C 	 -45.1478 	 20.12 	 30.1231
| 10> C 	 -46.1215 	 21.1624 	 29.7877
| 11> C 	 -47.0681 	 21.4139 	 30.7405
| 12> H 	 -46.1624 	 21.5178 	 28.7669
| 13> C 	 -43.9779 	 19.7423 	 29.2677
| 14> H 	 -43.0107 	 20.0073 	 29.7607
| 15> H 	 -43.9891 	 20.3579 	 28.3787
| 16> C 	 -43.8114 	 18.25 	 28.957
| 17> H 	 -42.9746 	 18.1467 	 28.2722
| 18> H 	 -43.67 	 17.7081 	 29.9217
| 19> C 	 -45.03 	 17.5534 	 28.2071
| 20> H 	 -45.1373 	 18.0584 	 27.2968
| 21> H 	 -44.8263 	 16.6059 	 27.8752
| 22> H 	 -45.9641 	 17.6921 	 28.7988
| 23> S 	 -49.7325 	 21.7455 	 31.243
| 24> C 	 -50.5241 	 23.2099 	 30.8609
| 25> C 	 -49.7045 	 24.0726 	 30.1803
| 26> C 	 -48.4091 	 23.51 	 29.893
| 27> C 	 -48.236 	 22.2865 	 30.5808
| 28> H 	 -50.0901 	 25.076 	 29.9717
| 29> C 	 -47.324 	 24.222 	 29.0509
| 30> H 	 -47.8603 	 25.0124 	 28.5611
| 31> H 	 -46.9136 	 23.5708 	 28.3223
| 32> C 	 -46.1127 	 24.7312 	 29.7625
| 33> H 	 -45.3774 	 25.1996 	 29.125
| 34> H 	 -45.6518 	 23.8349 	 30.1976
| 35> C 	 -46.4289 	 25.8977 	 30.705
| 36> H 	 -47.0501 	 26.6161 	 30.2337
| 37> H 	 -45.4959 	 26.4145 	 31.0808
| 38> H 	 -46.9782 	 25.5584 	 31.5816
| 39> H 	 -44.7581 	 19.1389 	 31.9776
| 40> H 	 -51.5971 	 23.368 	 31.0819
| 41> *
| 42>
| 43>                          ****END OF INPUT****

CARTESIAN COORDINATES (ANGSTROEM)
---------------------------------
  S    -46.811200   20.406500   32.090000
  C    -45.342600   19.819400   31.405700
  C    -45.147800   20.120000   30.123100
  C    -46.121500   21.162400   29.787700
  C    -47.068100   21.413900   30.740500
  H    -46.162400   21.517800   28.766900
  C    -43.977900   19.742300   29.267700
  H    -43.010700   20.007300   29.760700
  H    -43.989100   20.357900   28.378700
  C    -43.811400   18.250000   28.957000
  H    -42.974600   18.146700   28.272200
  H    -43.670000   17.708100   29.921700
  C    -45.030000   17.553400   28.207100
  H    -45.137300   18.058400   27.296800
  H    -44.826300   16.605900   27.875200
  H    -45.964100   17.692100   28.798800
  S    -49.732500   21.745500   31.243000
  C    -50.524100   23.209900   30.860900
  C    -49.704500   24.072600   30.180300
  C    -48.409100   23.510000   29.893000
  C    -48.236000   22.286500   30.580800
  H    -50.090100   25.076000   29.971700
  C    -47.324000   24.222000   29.050900
  H    -47.860300   25.012400   28.561100
  H    -46.913600   23.570800   28.322300
  C    -46.112700   24.731200   29.762500
  H    -45.377400   25.199600   29.125000
  H    -45.651800   23.834900   30.197600
  C    -46.428900   25.897700   30.705000
  H    -47.050100   26.616100   30.233700
  H    -45.495900   26.414500   31.080800
  H    -46.978200   25.558400   31.581600
  H    -44.758100   19.138900   31.977600
  H    -51.597100   23.368000   31.081900

 Total Charge           Charge          ....    0
 Multiplicity           Mult            ....    1
 Number of Electrons    NEL             ....  134
 Basis Dimension        Dim             ....  322

ORBITAL ENERGIES
----------------

  NO   OCC          E(Eh)            E(eV)
   0   2.0000     -88.965581     -2420.8765
   1   2.0000     -88.964955     -2420.8595
   2   2.0000     -10.328048      -281.0405
   3   2.0000     -10.327256      -281.0189
   4   2.0000     -10.313818      -280.6532
   5   2.0000     -10.308645      -280.5125
   6   2.0000     -10.305990      -280.4402
   7   2.0000     -10.298222      -280.2289
   8   2.0000     -10.296460      -280.1809
   9   2.0000     -10.296341      -280.1777
  10   2.0000     -10.293781      -280.1080
  11   2.0000     -10.292666      -280.0777
  12   2.0000     -10.284928      -279.8671
  13   2.0000     -10.276593      -279.6403
  14   2.0000     -10.269888      -279.4579
  15   2.0000     -10.268565      -279.4219
  16   2.0000      -8.082046      -219.9236
  17   2.0000      -8.081038      -219.8962
  18   2.0000      -6.040482      -164.3699
  19   2.0000      -6.039420      -164.3410
  20   2.0000      -6.036445      -164.2600
  21   2.0000      -6.035247      -164.2274
  22   2.0000      -6.032640      -164.1565
  23   2.0000      -6.031991      -164.1388
  24   2.0000      -1.017359       -27.6837
  25   2.0000      -0.993745       -27.0412
  26   2.0000      -0.913916       -24.8689
  27   2.0000      -0.912723       -24.8364
  28   2.0000      -0.870951       -23.6998
  29   2.0000      -0.849991       -23.1294
  30   2.0000      -0.843910       -22.9640
  31   2.0000      -0.814588       -22.1661
  32   2.0000      -0.790167       -21.5015
  33   2.0000      -0.778690       -21.1892
  34   2.0000      -0.707524       -19.2527
  35   2.0000      -0.704251       -19.1636
  36   2.0000      -0.685419       -18.6512
  37   2.0000      -0.664348       -18.0778
  38   2.0000      -0.640286       -17.4231
  39   2.0000      -0.616894       -16.7865
  40   2.0000      -0.591776       -16.1030
  41   2.0000      -0.579930       -15.7807
  42   2.0000      -0.560781       -15.2596
  43   2.0000      -0.549922       -14.9641
  44   2.0000      -0.547007       -14.8848
  45   2.0000      -0.541247       -14.7281
  46   2.0000      -0.513725       -13.9792
  47   2.0000      -0.510436       -13.8897
  48   2.0000      -0.503615       -13.7041
  49   2.0000      -0.499097       -13.5811
  50   2.0000      -0.489951       -13.3323
  51   2.0000      -0.479399       -13.0451
  52   2.0000      -0.477959       -13.0059
  53   2.0000      -0.465174       -12.6580
  54   2.0000      -0.458514       -12.4768
  55   2.0000      -0.452757       -12.3202
  56   2.0000      -0.440766       -11.9938
  57   2.0000      -0.439230       -11.9520
  58   2.0000      -0.433817       -11.8048
  59   2.0000      -0.430001       -11.7009
  60   2.0000      -0.421728       -11.4758
  61   2.0000      -0.413081       -11.2405
  62   2.0000      -0.403956       -10.9922
  63   2.0000      -0.358870        -9.7654
  64   2.0000      -0.332311        -9.0426
  65   2.0000      -0.330407        -8.9908
  66   2.0000      -0.287641        -7.8271
  67   0.0000       0.029286         0.7969
  68   0.0000       0.076805         2.0900
  69   0.0000       0.113168         3.0794
  70   0.0000       0.116667         3.1747
  71   0.0000       0.135461         3.6861

MULLIKEN ATOMIC CHARGES
-----------------------
   0 S :    0.114165
   1 C :   -0.122117
   2 C :   -0.060388
   3 C :   -0.023052
   4 C :   -0.100275
   5 H :    0.008190
   6 C :    0.065562
   7 H :    0.047194
   8 H :    0.011009
   9 C :   -0.107891
  10 H :    0.032182
  11 H :    0.039760
  12 C :   -0.015765
  13 H :    0.002396
  14 H :    0.016005
  15 H :    0.054675
  16 S :    0.108536
  17 C :   -0.108934
  18 C :   -0.042375
  19 C :   -0.057138
  20 C :   -0.148259
  21 H :    0.025613
  22 C :    0.108232
  23 H :    0.004444
  24 H :    0.018372
  25 C :   -0.066976
  26 H :    0.023303
  27 H :    0.041951
  28 C :   -0.055813
  29 H :    0.013958
  30 H :    0.037077
  31 H :    0.034644
  32 H :    0.031737
  33 H :    0.069976
Sum of atomic charges:   -0.0000000

LOEWDIN ATOMIC CHARGES
----------------------
   0 S :    0.427765
   1 C :   -0.186117
   2 C :   -0.065608
   3 C :   -0.066849
   4 C :   -0.208664
   5 H :    0.025590
   6 C :   -0.034879
   7 H :    0.043901
   8 H :    0.026254
   9 C :   -0.035428
  10 H :    0.024412
  11 H :    0.024942
  12 C :   -0.060941
  13 H :    0.016556
  14 H :    0.014265
  15 H :    0.034092
  16 S :    0.430645
  17 C :   -0.207675
  18 C :   -0.075997
  19 C :   -0.052571
  20 C :   -0.200985
  21 H :    0.035868
  22 C :   -0.025799
  23 H :    0.024558
  24 H :    0.025846
  25 C :   -0.043338
  26 H :    0.024078
  27 H :    0.027752
  28 C :   -0.065793
  29 H :    0.015928
  30 H :    0.030503
  31 H :    0.023907
  32 H :    0.017260
  33 H :    0.036521

  Mayer bond orders larger than 0.100000
B(  0-S ,  1-C ) :   1.1416 B(  0-S ,  4-C ) :   1.1509 B(  1-C ,  2-C ) :   1.6288
B(  1-C , 32-H ) :   0.9704 B(  2-C ,  3-C ) :   1.2290 B(  2-C ,  6-C ) :   1.0226
B(  3-C ,  4-C ) :   1.5665 B(  3-C ,  5-H ) :   0.9904 B(  4-C , 20-C ) :   1.0525
B(  6-C ,  7-H ) :   0.9415 B(  6-C ,  8-H ) :   0.9383 B(  6-C ,  9-C ) :   1.0679
B(  9-C , 10-H ) :   0.9574 B(  9-C , 11-H ) :   0.9601 B(  9-C , 12-C ) :   1.0745
B( 12-C , 13-H ) :   0.9718 B( 12-C , 14-H ) :   0.9749 B( 12-C , 15-H ) :   0.9750
B( 16-S , 17-C ) :   1.1656 B( 16-S , 20-C ) :   1.1684 B( 17-C , 18-C ) :   1.5976
B( 17-C , 33-H ) :   0.9639 B( 18-C , 19-C ) :   1.2531 B( 18-C , 21-H ) :   0.9905
B( 19-C , 20-C ) :   1.5555 B( 19-C , 22-C ) :   1.0347 B( 22-C , 23-H ) :   0.9292
B( 22-C , 24-H ) :   0.9302 B( 22-C , 25-C ) :   1.0882 B( 25-C , 26-H ) :   0.9536
B( 25-C , 27-H ) :   0.9490 B( 25-C , 28-C ) :   1.0694 B( 28-C , 29-H ) :   0.9737
B( 28-C , 30-H ) :   0.9768 B( 28-C , 31-H ) :   0.9764

Dispersion correction           -0.014829848
FINAL SINGLE POINT ENERGY     -1339.876444338772

DIPOLE MOMENT
-------------
                                X             Y             Z
Electronic contribution:    -17.44889      -3.73071      14.08068
Nuclear contribution   :     17.80772       3.81457     -14.54811
                        -----------------------------------------
Total Dipole Moment    :      0.35883       0.08387      -0.46743
                        -----------------------------------------
Magnitude (a.u.)       :      0.59522
Magnitude (Debye)      :      1.51292

Rotational constants in cm-1:     0.020948     0.008450     0.007146
Rotational constants in MHz :   628.006705   253.316780   214.229527

                             ****ORCA TERMINATED NORMALLY****
TOTAL RUN TIME: 0 days 0 hours 0 minutes 22 seconds 272 msec
