                         Program Version 4.2.1 -  RELEASE  -
|  1> ! wB97X-D3 SP def2-SVP
|  2> %pal
|  3> nprocs 24
|  4> end
|  5>
|  6> * xyz 0 1
|  7> S 	 -112.558 	 35.8711 	 -119.076
|  8> C 	 -112.155 	 34.3143 	 -118.409
|  9> C 	 -113.197 	 33.4221 	 -118.525
| 10> C 	 -114.387 	 34.0174 	 -119.004
| 11> C 	 -114.197 	 35.4521 	 -119.134
| 12> H 	 -115.327 	 33.4326 	 -119.175
| 13> C 	 -113.167 	 31.9218 	 -118.233
| 14> H 	 -114.039 	 31.7648 	 -117.572
| 15> H 	 -112.261 	 31.7238 	 -117.704
| 16> C 	 -113.175 	 31.1353 	 -119.519
| 17> H 	 -114.068 	 31.3547 	 -120.089
| 18> H 	 -112.318 	 31.4208 	 -120.058
| 19> C 	 -113.215 	 29.6096 	 -119.386
| 20> H 	 -113.184 	 29.0654 	 -120.304
| 21> H 	 -112.452 	 29.2305 	 -118.739
| 22> H 	 -114.112 	 29.2702 	 -118.919
| 23> S 	 -114.67 	 36.8077 	 -121.476
| 24> C 	 -115.919 	 37.9953 	 -121.596
| 25> C 	 -116.57 	 38.103 	 -120.38
| 26> C 	 -116.078 	 37.2569 	 -119.305
| 27> C 	 -115.063 	 36.3972 	 -119.822
| 28> H 	 -117.371 	 38.7634 	 -120.32
| 29> C 	 -116.603 	 37.2056 	 -117.875
| 30> H 	 -117.307 	 38.0524 	 -117.732
| 31> H 	 -115.926 	 37.309 	 -117.012
| 32> C 	 -117.409 	 35.9653 	 -117.548
| 33> H 	 -117.775 	 36.0156 	 -116.602
| 34> H 	 -116.781 	 35.0801 	 -117.574
| 35> C 	 -118.473 	 35.7423 	 -118.621
| 36> H 	 -119.259 	 36.5408 	 -118.575
| 37> H 	 -119.097 	 34.8483 	 -118.473
| 38> H 	 -118.03 	 35.7738 	 -119.613
| 39> H 	 -111.132 	 33.8752 	 -118.246
| 40> H 	 -116.138 	 38.5929 	 -122.448
| 41> *
| 42>
| 43>                          ****END OF INPUT****

CARTESIAN COORDINATES (ANGSTROEM)
---------------------------------
  S    -112.558000   35.871100  -119.076000
  C    -112.155000   34.314300  -118.409000
  C    -113.197000   33.422100  -118.525000
  C    -114.387000   34.017400  -119.004000
  C    -114.197000   35.452100  -119.134000
  H    -115.327000   33.432600  -119.175000
  C    -113.167000   31.921800  -118.233000
  H    -114.039000   31.764800  -117.572000
  H    -112.261000   31.723800  -117.704000
  C    -113.175000   31.135300  -119.519000
  H    -114.068000   31.354700  -120.089000
  H    -112.318000   31.420800  -120.058000
  C    -113.215000   29.609600  -119.386000
  H    -113.184000   29.065400  -120.304000
  H    -112.452000   29.230500  -118.739000
  H    -114.112000   29.270200  -118.919000
  S    -114.670000   36.807700  -121.476000
  C    -115.919000   37.995300  -121.596000
  C    -116.570000   38.103000  -120.380000
  C    -116.078000   37.256900  -119.305000
  C    -115.063000   36.397200  -119.822000
  H    -117.371000   38.763400  -120.320000
  C    -116.603000   37.205600  -117.875000
  H    -117.307000   38.052400  -117.732000
  H    -115.926000   37.309000  -117.012000
  C    -117.409000   35.965300  -117.548000
  H    -117.775000   36.015600  -116.602000
  H    -116.781000   35.080100  -117.574000
  C    -118.473000   35.742300  -118.621000
  H    -119.259000   36.540800  -118.575000
  H    -119.097000   34.848300  -118.473000
  H    -118.030000   35.773800  -119.613000
  H    -111.132000   33.875200  -118.246000
  H    -116.138000   38.592900  -122.448000

 Total Charge           Charge          ....    0
 Multiplicity           Mult            ....    1
 Number of Electrons    NEL             ....  134
 Basis Dimension        Dim             ....  322

ORBITAL ENERGIES
----------------

  NO   OCC          E(Eh)            E(eV)
   0   2.0000     -88.971844     -2421.0470
   1   2.0000     -88.965357     -2420.8704
   2   2.0000     -10.329984      -281.0932
   3   2.0000     -10.326565      -281.0001
   4   2.0000     -10.314012      -280.6585
   5   2.0000     -10.313048      -280.6323
   6   2.0000     -10.311019      -280.5771
   7   2.0000     -10.303451      -280.3712
   8   2.0000     -10.297228      -280.2018
   9   2.0000     -10.292386      -280.0701
  10   2.0000     -10.291740      -280.0525
  11   2.0000     -10.291699      -280.0514
  12   2.0000     -10.281546      -279.7751
  13   2.0000     -10.270700      -279.4800
  14   2.0000     -10.270563      -279.4762
  15   2.0000     -10.270083      -279.4632
  16   2.0000      -8.087237      -220.0649
  17   2.0000      -8.080349      -219.8775
  18   2.0000      -6.045499      -164.5064
  19   2.0000      -6.041707      -164.4032
  20   2.0000      -6.038764      -164.3231
  21   2.0000      -6.038129      -164.3059
  22   2.0000      -6.034616      -164.2103
  23   2.0000      -6.031398      -164.1227
  24   2.0000      -1.010541       -27.4982
  25   2.0000      -0.984078       -26.7781
  26   2.0000      -0.919808       -25.0292
  27   2.0000      -0.912446       -24.8289
  28   2.0000      -0.870929       -23.6992
  29   2.0000      -0.848052       -23.0767
  30   2.0000      -0.840614       -22.8743
  31   2.0000      -0.808656       -22.0047
  32   2.0000      -0.786300       -21.3963
  33   2.0000      -0.773114       -21.0375
  34   2.0000      -0.712120       -19.3778
  35   2.0000      -0.702469       -19.1151
  36   2.0000      -0.688579       -18.7372
  37   2.0000      -0.660739       -17.9796
  38   2.0000      -0.631048       -17.1717
  39   2.0000      -0.621455       -16.9107
  40   2.0000      -0.595258       -16.1978
  41   2.0000      -0.573311       -15.6006
  42   2.0000      -0.564818       -15.3695
  43   2.0000      -0.554812       -15.0972
  44   2.0000      -0.546258       -14.8644
  45   2.0000      -0.527304       -14.3487
  46   2.0000      -0.514397       -13.9975
  47   2.0000      -0.511463       -13.9176
  48   2.0000      -0.501780       -13.6541
  49   2.0000      -0.495512       -13.4836
  50   2.0000      -0.489667       -13.3245
  51   2.0000      -0.475942       -12.9511
  52   2.0000      -0.470255       -12.7963
  53   2.0000      -0.466672       -12.6988
  54   2.0000      -0.456614       -12.4251
  55   2.0000      -0.453992       -12.3538
  56   2.0000      -0.442430       -12.0391
  57   2.0000      -0.437781       -11.9126
  58   2.0000      -0.429637       -11.6910
  59   2.0000      -0.427283       -11.6270
  60   2.0000      -0.426038       -11.5931
  61   2.0000      -0.421125       -11.4594
  62   2.0000      -0.407229       -11.0813
  63   2.0000      -0.337444        -9.1823
  64   2.0000      -0.327474        -8.9110
  65   2.0000      -0.324470        -8.8293
  66   2.0000      -0.301252        -8.1975
  67   0.0000       0.033104         0.9008
  68   0.0000       0.052109         1.4180
  69   0.0000       0.110846         3.0163
  70   0.0000       0.127212         3.4616
  71   0.0000       0.130914         3.5624

MULLIKEN ATOMIC CHARGES
-----------------------
   0 S :    0.138912
   1 C :   -0.117054
   2 C :   -0.141091
   3 C :    0.025249
   4 C :   -0.161586
   5 H :    0.042916
   6 C :    0.091384
   7 H :    0.036536
   8 H :    0.005953
   9 C :   -0.063405
  10 H :    0.025901
  11 H :    0.021219
  12 C :   -0.003621
  13 H :    0.029677
  14 H :    0.013876
  15 H :    0.010073
  16 S :    0.119226
  17 C :   -0.083361
  18 C :   -0.013315
  19 C :   -0.032728
  20 C :   -0.189938
  21 H :   -0.008751
  22 C :    0.067441
  23 H :    0.015195
  24 H :    0.040908
  25 C :   -0.015475
  26 H :    0.001959
  27 H :    0.019724
  28 C :   -0.084682
  29 H :    0.015933
  30 H :    0.028524
  31 H :    0.056299
  32 H :    0.057540
  33 H :    0.050562
Sum of atomic charges:    0.0000000

LOEWDIN ATOMIC CHARGES
----------------------
   0 S :    0.458121
   1 C :   -0.224433
   2 C :   -0.066442
   3 C :   -0.058217
   4 C :   -0.221081
   5 H :    0.039956
   6 C :   -0.023844
   7 H :    0.034296
   8 H :    0.023465
   9 C :   -0.033703
  10 H :    0.024669
  11 H :    0.021467
  12 C :   -0.061400
  13 H :    0.025503
  14 H :    0.019259
  15 H :    0.020653
  16 S :    0.419733
  17 C :   -0.192901
  18 C :   -0.064189
  19 C :   -0.048989
  20 C :   -0.213146
  21 H :    0.017790
  22 C :   -0.032879
  23 H :    0.031128
  24 H :    0.037657
  25 C :   -0.032155
  26 H :    0.010133
  27 H :    0.021309
  28 C :   -0.071239
  29 H :    0.021968
  30 H :    0.023540
  31 H :    0.027631
  32 H :    0.038530
  33 H :    0.027811

  Mayer bond orders larger than 0.100000
B(  0-S ,  1-C ) :   1.1477 B(  0-S ,  4-C ) :   1.2122 B(  1-C ,  2-C ) :   1.5964
B(  1-C ,  4-C ) :   0.1012 B(  1-C , 32-H ) :   0.9532 B(  2-C ,  3-C ) :   1.3000
B(  2-C ,  6-C ) :   1.0193 B(  3-C ,  4-C ) :   1.4872 B(  3-C ,  5-H ) :   0.9815
B(  4-C , 20-C ) :   1.0325 B(  6-C ,  7-H ) :   0.9407 B(  6-C ,  8-H ) :   0.9340
B(  6-C ,  9-C ) :   1.0714 B(  9-C , 10-H ) :   0.9566 B(  9-C , 11-H ) :   0.9528
B(  9-C , 12-C ) :   1.0895 B( 12-C , 13-H ) :   0.9736 B( 12-C , 14-H ) :   0.9719
B( 12-C , 15-H ) :   0.9710 B( 16-S , 17-C ) :   1.1555 B( 16-S , 20-C ) :   1.1719
B( 17-C , 18-C ) :   1.5980 B( 17-C , 33-H ) :   0.9722 B( 18-C , 19-C ) :   1.2527
B( 18-C , 21-H ) :   0.9979 B( 19-C , 20-C ) :   1.5449 B( 19-C , 22-C ) :   1.0454
B( 22-C , 23-H ) :   0.9342 B( 22-C , 24-H ) :   0.9357 B( 22-C , 25-C ) :   1.0806
B( 25-C , 26-H ) :   0.9515 B( 25-C , 27-H ) :   0.9502 B( 25-C , 28-C ) :   1.0715
B( 28-C , 29-H ) :   0.9750 B( 28-C , 30-H ) :   0.9737 B( 28-C , 31-H ) :   0.9704

Dispersion correction           -0.014815461
FINAL SINGLE POINT ENERGY     -1339.866624450223

DIPOLE MOMENT
-------------
                                X             Y             Z
Electronic contribution:     11.89927      19.86820      -9.04898
Nuclear contribution   :    -12.09402     -20.23761       9.14413
                        -----------------------------------------
Total Dipole Moment    :     -0.19475      -0.36941       0.09515
                        -----------------------------------------
Magnitude (a.u.)       :      0.42831
Magnitude (Debye)      :      1.08867

Rotational constants in cm-1:     0.020507     0.008208     0.007203
Rotational constants in MHz :   614.793621   246.057593   215.930807

                             ****ORCA TERMINATED NORMALLY****
TOTAL RUN TIME: 0 days 0 hours 0 minutes 20 seconds 941 msec
