                         Program Version 4.2.1 -  RELEASE  -
|  1> ! wB97X-D3 SP def2-SVP
|  2> %pal
|  3> nprocs 24
|  4> end
|  5>
|  6> * xyz 0 1
|  7> S 	 -107.082 	 42.8607 	 -10.4434
|  8> C 	 -108.2 	 44.2432 	 -10.72
|  9> C 	 -109.456 	 43.7793 	 -10.6786
| 10> C 	 -109.622 	 42.417 	 -10.2849
| 11> C 	 -108.409 	 41.7957 	 -10.0229
| 12> H 	 -110.487 	 41.7707 	 -10.2028
| 13> C 	 -110.72 	 44.6485 	 -11.131
| 14> H 	 -110.408 	 45.7107 	 -11.1218
| 15> H 	 -111.482 	 44.5918 	 -10.3289
| 16> C 	 -111.535 	 44.2459 	 -12.4363
| 17> H 	 -112.118 	 44.9336 	 -12.9224
| 18> H 	 -110.767 	 43.8608 	 -13.132
| 19> C 	 -112.557 	 43.0693 	 -12.1351
| 20> H 	 -113.179 	 43.2569 	 -11.2773
| 21> H 	 -113.12 	 42.7713 	 -12.996
| 22> H 	 -112.057 	 42.0945 	 -11.9401
| 23> S 	 -108.993 	 39.3206 	 -10.9272
| 24> C 	 -108.796 	 37.9568 	 -9.87839
| 25> C 	 -108.039 	 38.3086 	 -8.76915
| 26> C 	 -107.728 	 39.7027 	 -8.78105
| 27> C 	 -108.251 	 40.4392 	 -9.7976
| 28> H 	 -107.827 	 37.5887 	 -8.04654
| 29> C 	 -106.936 	 40.3172 	 -7.64884
| 30> H 	 -106.783 	 41.3269 	 -7.83752
| 31> H 	 -106.018 	 39.7563 	 -7.52188
| 32> C 	 -107.603 	 40.306 	 -6.28569
| 33> H 	 -106.891 	 40.6816 	 -5.48193
| 34> H 	 -107.802 	 39.2958 	 -5.91253
| 35> C 	 -108.887 	 41.067 	 -6.30845
| 36> H 	 -109.256 	 41.1464 	 -5.26761
| 37> H 	 -109.6 	 40.406 	 -6.84799
| 38> H 	 -108.783 	 42.0561 	 -6.80921
| 39> H 	 -107.884 	 45.2213 	 -11.0354
| 40> H 	 -109.254 	 37.0257 	 -10.0568
| 41> *
| 42>
| 43>                          ****END OF INPUT****

CARTESIAN COORDINATES (ANGSTROEM)
---------------------------------
  S    -107.082000   42.860700  -10.443400
  C    -108.200000   44.243200  -10.720000
  C    -109.456000   43.779300  -10.678600
  C    -109.622000   42.417000  -10.284900
  C    -108.409000   41.795700  -10.022900
  H    -110.487000   41.770700  -10.202800
  C    -110.720000   44.648500  -11.131000
  H    -110.408000   45.710700  -11.121800
  H    -111.482000   44.591800  -10.328900
  C    -111.535000   44.245900  -12.436300
  H    -112.118000   44.933600  -12.922400
  H    -110.767000   43.860800  -13.132000
  C    -112.557000   43.069300  -12.135100
  H    -113.179000   43.256900  -11.277300
  H    -113.120000   42.771300  -12.996000
  H    -112.057000   42.094500  -11.940100
  S    -108.993000   39.320600  -10.927200
  C    -108.796000   37.956800   -9.878390
  C    -108.039000   38.308600   -8.769150
  C    -107.728000   39.702700   -8.781050
  C    -108.251000   40.439200   -9.797600
  H    -107.827000   37.588700   -8.046540
  C    -106.936000   40.317200   -7.648840
  H    -106.783000   41.326900   -7.837520
  H    -106.018000   39.756300   -7.521880
  C    -107.603000   40.306000   -6.285690
  H    -106.891000   40.681600   -5.481930
  H    -107.802000   39.295800   -5.912530
  C    -108.887000   41.067000   -6.308450
  H    -109.256000   41.146400   -5.267610
  H    -109.600000   40.406000   -6.847990
  H    -108.783000   42.056100   -6.809210
  H    -107.884000   45.221300  -11.035400
  H    -109.254000   37.025700  -10.056800

 Total Charge           Charge          ....    0
 Multiplicity           Mult            ....    1
 Number of Electrons    NEL             ....  134
 Basis Dimension        Dim             ....  322

ORBITAL ENERGIES
----------------

  NO   OCC          E(Eh)            E(eV)
   0   2.0000     -88.965575     -2420.8764
   1   2.0000     -88.962564     -2420.7944
   2   2.0000     -10.326493      -280.9982
   3   2.0000     -10.318140      -280.7709
   4   2.0000     -10.317934      -280.7653
   5   2.0000     -10.317690      -280.7586
   6   2.0000     -10.307792      -280.4893
   7   2.0000     -10.303733      -280.3788
   8   2.0000     -10.300770      -280.2982
   9   2.0000     -10.296286      -280.1762
  10   2.0000     -10.292781      -280.0808
  11   2.0000     -10.290557      -280.0203
  12   2.0000     -10.280873      -279.7568
  13   2.0000     -10.277763      -279.6722
  14   2.0000     -10.277117      -279.6546
  15   2.0000     -10.272758      -279.5359
  16   2.0000      -8.079605      -219.8572
  17   2.0000      -8.077869      -219.8100
  18   2.0000      -6.038235      -164.3087
  19   2.0000      -6.036376      -164.2581
  20   2.0000      -6.034298      -164.2016
  21   2.0000      -6.032168      -164.1436
  22   2.0000      -6.030150      -164.0887
  23   2.0000      -6.028709      -164.0495
  24   2.0000      -1.014810       -27.6144
  25   2.0000      -0.986552       -26.8455
  26   2.0000      -0.914980       -24.8979
  27   2.0000      -0.900428       -24.5019
  28   2.0000      -0.878408       -23.9027
  29   2.0000      -0.848179       -23.0801
  30   2.0000      -0.839661       -22.8483
  31   2.0000      -0.817401       -22.2426
  32   2.0000      -0.781616       -21.2689
  33   2.0000      -0.772850       -21.0303
  34   2.0000      -0.714647       -19.4465
  35   2.0000      -0.704212       -19.1626
  36   2.0000      -0.691918       -18.8281
  37   2.0000      -0.666269       -18.1301
  38   2.0000      -0.644424       -17.5357
  39   2.0000      -0.612960       -16.6795
  40   2.0000      -0.601055       -16.3555
  41   2.0000      -0.572628       -15.5820
  42   2.0000      -0.557823       -15.1791
  43   2.0000      -0.546369       -14.8675
  44   2.0000      -0.543498       -14.7893
  45   2.0000      -0.542130       -14.7521
  46   2.0000      -0.523810       -14.2536
  47   2.0000      -0.517639       -14.0857
  48   2.0000      -0.510365       -13.8877
  49   2.0000      -0.498256       -13.5582
  50   2.0000      -0.486743       -13.2449
  51   2.0000      -0.486067       -13.2266
  52   2.0000      -0.466236       -12.6869
  53   2.0000      -0.464020       -12.6266
  54   2.0000      -0.458637       -12.4801
  55   2.0000      -0.442026       -12.0281
  56   2.0000      -0.436884       -11.8882
  57   2.0000      -0.429946       -11.6994
  58   2.0000      -0.426355       -11.6017
  59   2.0000      -0.425380       -11.5752
  60   2.0000      -0.422702       -11.5023
  61   2.0000      -0.415185       -11.2978
  62   2.0000      -0.402620       -10.9558
  63   2.0000      -0.342204        -9.3118
  64   2.0000      -0.334768        -9.1095
  65   2.0000      -0.328329        -8.9343
  66   2.0000      -0.302806        -8.2398
  67   0.0000       0.026599         0.7238
  68   0.0000       0.066287         1.8038
  69   0.0000       0.104243         2.8366
  70   0.0000       0.120992         3.2924
  71   0.0000       0.125369         3.4115

MULLIKEN ATOMIC CHARGES
-----------------------
   0 S :    0.098601
   1 C :   -0.120721
   2 C :   -0.046821
   3 C :    0.017173
   4 C :   -0.161550
   5 H :    0.020823
   6 C :    0.035495
   7 H :    0.024527
   8 H :    0.028841
   9 C :   -0.031753
  10 H :    0.026138
  11 H :    0.040878
  12 C :   -0.089438
  13 H :    0.034029
  14 H :    0.027920
  15 H :    0.029059
  16 S :    0.104365
  17 C :   -0.080748
  18 C :   -0.013046
  19 C :   -0.039979
  20 C :   -0.157922
  21 H :    0.000045
  22 C :    0.142103
  23 H :   -0.004523
  24 H :    0.027384
  25 C :   -0.115638
  26 H :    0.032459
  27 H :    0.015333
  28 C :   -0.059205
  29 H :    0.034683
  30 H :    0.041043
  31 H :    0.047480
  32 H :    0.046244
  33 H :    0.046721
Sum of atomic charges:    0.0000000

LOEWDIN ATOMIC CHARGES
----------------------
   0 S :    0.385387
   1 C :   -0.173931
   2 C :   -0.061178
   3 C :   -0.058980
   4 C :   -0.192984
   5 H :    0.031361
   6 C :   -0.029947
   7 H :    0.028240
   8 H :    0.027915
   9 C :   -0.029758
  10 H :    0.014373
  11 H :    0.030896
  12 C :   -0.072391
  13 H :    0.020424
  14 H :    0.023561
  15 H :    0.026812
  16 S :    0.412961
  17 C :   -0.171227
  18 C :   -0.064789
  19 C :   -0.047451
  20 C :   -0.208323
  21 H :    0.023267
  22 C :   -0.024495
  23 H :    0.013801
  24 H :    0.034283
  25 C :   -0.049674
  26 H :    0.026512
  27 H :    0.016472
  28 C :   -0.069933
  29 H :    0.027810
  30 H :    0.030228
  31 H :    0.029740
  32 H :    0.029863
  33 H :    0.021157

  Mayer bond orders larger than 0.100000
B(  0-S ,  1-C ) :   1.1115 B(  0-S ,  4-C ) :   1.1403 B(  1-C ,  2-C ) :   1.6479
B(  1-C , 32-H ) :   0.9742 B(  2-C ,  3-C ) :   1.1963 B(  2-C ,  6-C ) :   1.0115
B(  3-C ,  4-C ) :   1.5708 B(  3-C ,  5-H ) :   1.0018 B(  4-C , 20-C ) :   1.0808
B(  6-C ,  7-H ) :   0.9491 B(  6-C ,  8-H ) :   0.9525 B(  6-C ,  9-C ) :   1.0374
B(  9-C , 10-H ) :   0.9655 B(  9-C , 11-H ) :   0.9609 B(  9-C , 12-C ) :   1.0691
B( 12-C , 13-H ) :   0.9787 B( 12-C , 14-H ) :   0.9725 B( 12-C , 15-H ) :   0.9739
B( 16-S , 17-C ) :   1.1728 B( 16-S , 20-C ) :   1.1192 B( 17-C , 18-C ) :   1.5815
B( 17-C , 33-H ) :   0.9749 B( 18-C , 19-C ) :   1.2243 B( 18-C , 21-H ) :   1.0115
B( 19-C , 20-C ) :   1.5813 B( 19-C , 22-C ) :   1.0572 B( 22-C , 23-H ) :   0.9270
B( 22-C , 24-H ) :   0.9249 B( 22-C , 25-C ) :   1.0809 B( 25-C , 26-H ) :   0.9546
B( 25-C , 27-H ) :   0.9511 B( 25-C , 28-C ) :   1.0755 B( 28-C , 29-H ) :   0.9707
B( 28-C , 30-H ) :   0.9703 B( 28-C , 31-H ) :   0.9747

Dispersion correction           -0.015486294
FINAL SINGLE POINT ENERGY     -1339.862202308153

DIPOLE MOMENT
-------------
                                X             Y             Z
Electronic contribution:     13.46203      -6.44737      -8.50803
Nuclear contribution   :    -13.80479       6.39477       8.66048
                        -----------------------------------------
Total Dipole Moment    :     -0.34275      -0.05260       0.15245
                        -----------------------------------------
Magnitude (a.u.)       :      0.37880
Magnitude (Debye)      :      0.96283

Rotational constants in cm-1:     0.019999     0.009012     0.007839
Rotational constants in MHz :   599.543148   270.168290   234.999067

                             ****ORCA TERMINATED NORMALLY****
TOTAL RUN TIME: 0 days 0 hours 0 minutes 23 seconds 364 msec
