                         Program Version 4.2.1 -  RELEASE  -
|  1> ! wB97X-D3 SP def2-SVP
|  2> %pal
|  3> nprocs 24
|  4> end
|  5>
|  6> * xyz 0 1
|  7> S 	 -44.0005 	 13.9318 	 33.323
|  8> C 	 -42.7793 	 13.0449 	 34.0662
|  9> C 	 -41.5338 	 13.4314 	 33.6825
| 10> C 	 -41.595 	 14.6166 	 32.8567
| 11> C 	 -42.8924 	 15.052 	 32.5494
| 12> H 	 -40.7202 	 15.1913 	 32.4758
| 13> C 	 -40.2688 	 12.8986 	 34.2427
| 14> H 	 -39.5482 	 12.9738 	 33.4363
| 15> H 	 -40.3488 	 11.8145 	 34.4652
| 16> C 	 -39.5773 	 13.7726 	 35.3335
| 17> H 	 -38.5404 	 13.3366 	 35.5549
| 18> H 	 -39.3808 	 14.8225 	 34.9942
| 19> C 	 -40.3622 	 13.7927 	 36.6379
| 20> H 	 -41.2815 	 14.307 	 36.5561
| 21> H 	 -40.645 	 12.7976 	 37.0709
| 22> H 	 -39.8304 	 14.3794 	 37.3735
| 23> S 	 -43.7792 	 15.5392 	 30.0073
| 24> C 	 -44.0281 	 17.1819 	 29.5001
| 25> C 	 -43.6829 	 18.0777 	 30.4717
| 26> C 	 -43.1188 	 17.4934 	 31.6557
| 27> C 	 -43.2002 	 16.0907 	 31.5793
| 28> H 	 -43.581 	 19.1424 	 30.2749
| 29> C 	 -42.5993 	 18.3639 	 32.7497
| 30> H 	 -42.5766 	 17.7687 	 33.6547
| 31> H 	 -43.4445 	 19.1248 	 32.9988
| 32> C 	 -41.2739 	 19.2203 	 32.4994
| 33> H 	 -41.0943 	 19.933 	 33.2008
| 34> H 	 -41.4572 	 19.8431 	 31.6201
| 35> C 	 -40.0291 	 18.2431 	 32.3464
| 36> H 	 -40.0342 	 17.5265 	 33.0965
| 37> H 	 -39.1031 	 18.767 	 32.325
| 38> H 	 -40.0639 	 17.7673 	 31.4095
| 39> H 	 -42.9428 	 12.2177 	 34.758
| 40> H 	 -44.4348 	 17.591 	 28.5826
| 41> *
| 42>
| 43>                          ****END OF INPUT****

CARTESIAN COORDINATES (ANGSTROEM)
---------------------------------
  S    -44.000500   13.931800   33.323000
  C    -42.779300   13.044900   34.066200
  C    -41.533800   13.431400   33.682500
  C    -41.595000   14.616600   32.856700
  C    -42.892400   15.052000   32.549400
  H    -40.720200   15.191300   32.475800
  C    -40.268800   12.898600   34.242700
  H    -39.548200   12.973800   33.436300
  H    -40.348800   11.814500   34.465200
  C    -39.577300   13.772600   35.333500
  H    -38.540400   13.336600   35.554900
  H    -39.380800   14.822500   34.994200
  C    -40.362200   13.792700   36.637900
  H    -41.281500   14.307000   36.556100
  H    -40.645000   12.797600   37.070900
  H    -39.830400   14.379400   37.373500
  S    -43.779200   15.539200   30.007300
  C    -44.028100   17.181900   29.500100
  C    -43.682900   18.077700   30.471700
  C    -43.118800   17.493400   31.655700
  C    -43.200200   16.090700   31.579300
  H    -43.581000   19.142400   30.274900
  C    -42.599300   18.363900   32.749700
  H    -42.576600   17.768700   33.654700
  H    -43.444500   19.124800   32.998800
  C    -41.273900   19.220300   32.499400
  H    -41.094300   19.933000   33.200800
  H    -41.457200   19.843100   31.620100
  C    -40.029100   18.243100   32.346400
  H    -40.034200   17.526500   33.096500
  H    -39.103100   18.767000   32.325000
  H    -40.063900   17.767300   31.409500
  H    -42.942800   12.217700   34.758000
  H    -44.434800   17.591000   28.582600

 Total Charge           Charge          ....    0
 Multiplicity           Mult            ....    1
 Number of Electrons    NEL             ....  134
 Basis Dimension        Dim             ....  322

ORBITAL ENERGIES
----------------

  NO   OCC          E(Eh)            E(eV)
   0   2.0000     -88.967381     -2420.9255
   1   2.0000     -88.965075     -2420.8628
   2   2.0000     -10.328870      -281.0628
   3   2.0000     -10.327833      -281.0346
   4   2.0000     -10.314282      -280.6659
   5   2.0000     -10.308645      -280.5125
   6   2.0000     -10.304515      -280.4001
   7   2.0000     -10.299614      -280.2667
   8   2.0000     -10.298786      -280.2442
   9   2.0000     -10.298121      -280.2261
  10   2.0000     -10.295220      -280.1472
  11   2.0000     -10.291761      -280.0531
  12   2.0000     -10.290755      -280.0257
  13   2.0000     -10.287958      -279.9496
  14   2.0000     -10.271916      -279.5131
  15   2.0000     -10.269525      -279.4480
  16   2.0000      -8.081955      -219.9212
  17   2.0000      -8.080838      -219.8908
  18   2.0000      -6.040540      -164.3714
  19   2.0000      -6.039226      -164.3357
  20   2.0000      -6.036477      -164.2609
  21   2.0000      -6.035055      -164.2222
  22   2.0000      -6.032641      -164.1565
  23   2.0000      -6.031791      -164.1334
  24   2.0000      -1.008184       -27.4341
  25   2.0000      -0.987511       -26.8716
  26   2.0000      -0.910668       -24.7805
  27   2.0000      -0.901332       -24.5265
  28   2.0000      -0.870957       -23.6999
  29   2.0000      -0.848942       -23.1009
  30   2.0000      -0.846676       -23.0392
  31   2.0000      -0.813165       -22.1273
  32   2.0000      -0.782986       -21.3061
  33   2.0000      -0.774421       -21.0731
  34   2.0000      -0.720298       -19.6003
  35   2.0000      -0.701341       -19.0845
  36   2.0000      -0.691903       -18.8276
  37   2.0000      -0.656301       -17.8589
  38   2.0000      -0.641006       -17.4427
  39   2.0000      -0.615030       -16.7358
  40   2.0000      -0.590701       -16.0738
  41   2.0000      -0.569248       -15.4900
  42   2.0000      -0.548350       -14.9214
  43   2.0000      -0.544984       -14.8298
  44   2.0000      -0.540184       -14.6992
  45   2.0000      -0.538558       -14.6549
  46   2.0000      -0.516858       -14.0644
  47   2.0000      -0.513510       -13.9733
  48   2.0000      -0.502516       -13.6742
  49   2.0000      -0.495837       -13.4924
  50   2.0000      -0.488280       -13.2868
  51   2.0000      -0.480421       -13.0729
  52   2.0000      -0.471522       -12.8308
  53   2.0000      -0.465831       -12.6759
  54   2.0000      -0.461984       -12.5712
  55   2.0000      -0.450772       -12.2661
  56   2.0000      -0.442565       -12.0428
  57   2.0000      -0.436516       -11.8782
  58   2.0000      -0.435108       -11.8399
  59   2.0000      -0.426418       -11.6034
  60   2.0000      -0.422391       -11.4938
  61   2.0000      -0.419776       -11.4227
  62   2.0000      -0.412970       -11.2375
  63   2.0000      -0.338534        -9.2120
  64   2.0000      -0.328257        -8.9323
  65   2.0000      -0.323144        -8.7932
  66   2.0000      -0.302741        -8.2380
  67   0.0000       0.041696         1.1346
  68   0.0000       0.059758         1.6261
  69   0.0000       0.114950         3.1279
  70   0.0000       0.120823         3.2878
  71   0.0000       0.125249         3.4082

MULLIKEN ATOMIC CHARGES
-----------------------
   0 S :    0.129433
   1 C :   -0.116561
   2 C :   -0.081785
   3 C :    0.017641
   4 C :   -0.179015
   5 H :    0.021477
   6 C :    0.066436
   7 H :    0.019252
   8 H :    0.033568
   9 C :   -0.094665
  10 H :    0.040625
  11 H :    0.038412
  12 C :   -0.041728
  13 H :    0.025625
  14 H :    0.029269
  15 H :    0.025757
  16 S :    0.125975
  17 C :   -0.073718
  18 C :   -0.044657
  19 C :   -0.006076
  20 C :   -0.195192
  21 H :    0.021180
  22 C :   -0.005488
  23 H :    0.028467
  24 H :    0.044086
  25 C :   -0.018445
  26 H :    0.009869
  27 H :    0.018212
  28 C :   -0.013931
  29 H :    0.019762
  30 H :    0.023026
  31 H :    0.031109
  32 H :    0.050169
  33 H :    0.051911
Sum of atomic charges:   -0.0000000

LOEWDIN ATOMIC CHARGES
----------------------
   0 S :    0.433630
   1 C :   -0.212579
   2 C :   -0.077967
   3 C :   -0.055269
   4 C :   -0.214591
   5 H :    0.034878
   6 C :   -0.038985
   7 H :    0.032138
   8 H :    0.034723
   9 C :   -0.040416
  10 H :    0.031275
  11 H :    0.029283
  12 C :   -0.073014
  13 H :    0.019447
  14 H :    0.027683
  15 H :    0.024511
  16 S :    0.412857
  17 C :   -0.190850
  18 C :   -0.075135
  19 C :   -0.053823
  20 C :   -0.198450
  21 H :    0.030170
  22 C :   -0.039089
  23 H :    0.027365
  24 H :    0.043913
  25 C :   -0.021070
  26 H :    0.010099
  27 H :    0.023560
  28 C :   -0.051265
  29 H :    0.013597
  30 H :    0.023486
  31 H :    0.022968
  32 H :    0.033346
  33 H :    0.033577

  Mayer bond orders larger than 0.100000
B(  0-S ,  1-C ) :   1.1651 B(  0-S ,  4-C ) :   1.1500 B(  1-C ,  2-C ) :   1.5893
B(  1-C , 32-H ) :   0.9647 B(  2-C ,  3-C ) :   1.2474 B(  2-C ,  6-C ) :   1.0463
B(  3-C ,  4-C ) :   1.5665 B(  3-C ,  5-H ) :   0.9841 B(  4-C , 20-C ) :   1.0396
B(  6-C ,  7-H ) :   0.9266 B(  6-C ,  8-H ) :   0.9438 B(  6-C ,  9-C ) :   1.0671
B(  9-C , 10-H ) :   0.9549 B(  9-C , 11-H ) :   0.9529 B(  9-C , 12-C ) :   1.0774
B( 12-C , 13-H ) :   0.9729 B( 12-C , 14-H ) :   0.9746 B( 12-C , 15-H ) :   0.9716
B( 16-S , 17-C ) :   1.1420 B( 16-S , 20-C ) :   1.1471 B( 17-C , 18-C ) :   1.6392
B( 17-C , 33-H ) :   0.9615 B( 18-C , 19-C ) :   1.2407 B( 18-C , 21-H ) :   0.9782
B( 19-C , 20-C ) :   1.5882 B( 19-C , 22-C ) :   1.0532 B( 22-C , 23-H ) :   0.9371
B( 22-C , 24-H ) :   0.9368 B( 22-C , 25-C ) :   1.0585 B( 25-C , 26-H ) :   0.9590
B( 25-C , 27-H ) :   0.9566 B( 25-C , 28-C ) :   1.0617 B( 28-C , 29-H ) :   0.9771
B( 28-C , 30-H ) :   0.9728 B( 28-C , 31-H ) :   0.9766

Dispersion correction           -0.015458799
FINAL SINGLE POINT ENERGY     -1339.875159450229

DIPOLE MOMENT
-------------
                                X             Y             Z
Electronic contribution:    -21.62633      -8.49484     -15.66730
Nuclear contribution   :     22.17163       8.85311      15.87744
                        -----------------------------------------
Total Dipole Moment    :      0.54530       0.35827       0.21014
                        -----------------------------------------
Magnitude (a.u.)       :      0.68547
Magnitude (Debye)      :      1.74232

Rotational constants in cm-1:     0.019432     0.009332     0.007142
Rotational constants in MHz :   582.569359   279.772435   214.100651

                             ****ORCA TERMINATED NORMALLY****
TOTAL RUN TIME: 0 days 0 hours 0 minutes 22 seconds 224 msec
