                         Program Version 4.2.1 -  RELEASE  -
|  1> ! wB97X-D3 SP def2-SVP
|  2> %pal
|  3> nprocs 24
|  4> end
|  5>
|  6> * xyz 0 1
|  7> S 	 -34.324 	 -14.5294 	 15.2391
|  8> C 	 -34.6322 	 -13.3732 	 16.4686
|  9> C 	 -34.8537 	 -12.0917 	 15.9975
| 10> C 	 -34.7861 	 -12.054 	 14.5575
| 11> C 	 -34.5143 	 -13.318 	 14.0223
| 12> H 	 -34.87 	 -11.1787 	 13.9884
| 13> C 	 -35.0268 	 -10.858 	 16.8325
| 14> H 	 -34.2413 	 -10.0774 	 16.6237
| 15> H 	 -34.8756 	 -11.1533 	 17.8154
| 16> C 	 -36.4742 	 -10.275 	 16.8004
| 17> H 	 -36.4613 	 -9.50817 	 17.5794
| 18> H 	 -36.6856 	 -9.75327 	 15.9077
| 19> C 	 -37.684 	 -11.2318 	 16.9478
| 20> H 	 -38.6213 	 -10.7815 	 16.8284
| 21> H 	 -37.6468 	 -12.1251 	 16.3177
| 22> H 	 -37.6761 	 -11.6995 	 17.9709
| 23> S 	 -35.3944 	 -15.137 	 12.1179
| 24> C 	 -35.1582 	 -14.8342 	 10.3685
| 25> C 	 -34.4369 	 -13.64 	 10.2626
| 26> C 	 -34.2245 	 -12.9792 	 11.4822
| 27> C 	 -34.6221 	 -13.6404 	 12.6276
| 28> H 	 -34.14 	 -13.2655 	 9.2933
| 29> C 	 -33.3771 	 -11.7646 	 11.4517
| 30> H 	 -33.3224 	 -11.4068 	 12.4902
| 31> H 	 -33.9959 	 -11.0763 	 10.8912
| 32> C 	 -32.0077 	 -11.9859 	 10.8805
| 33> H 	 -32.0399 	 -12.5083 	 9.89341
| 34> H 	 -31.5535 	 -12.6623 	 11.4814
| 35> C 	 -31.2812 	 -10.6656 	 10.6491
| 36> H 	 -30.3146 	 -10.9883 	 10.3041
| 37> H 	 -31.1539 	 -10.0452 	 11.6152
| 38> H 	 -31.5726 	 -9.97551 	 9.90178
| 39> H 	 -34.606 	 -13.5642 	 17.4965
| 40> H 	 -35.3984 	 -15.3828 	 9.48824
| 41> *
| 42>
| 43>                          ****END OF INPUT****

CARTESIAN COORDINATES (ANGSTROEM)
---------------------------------
  S    -34.324000  -14.529400   15.239100
  C    -34.632200  -13.373200   16.468600
  C    -34.853700  -12.091700   15.997500
  C    -34.786100  -12.054000   14.557500
  C    -34.514300  -13.318000   14.022300
  H    -34.870000  -11.178700   13.988400
  C    -35.026800  -10.858000   16.832500
  H    -34.241300  -10.077400   16.623700
  H    -34.875600  -11.153300   17.815400
  C    -36.474200  -10.275000   16.800400
  H    -36.461300   -9.508170   17.579400
  H    -36.685600   -9.753270   15.907700
  C    -37.684000  -11.231800   16.947800
  H    -38.621300  -10.781500   16.828400
  H    -37.646800  -12.125100   16.317700
  H    -37.676100  -11.699500   17.970900
  S    -35.394400  -15.137000   12.117900
  C    -35.158200  -14.834200   10.368500
  C    -34.436900  -13.640000   10.262600
  C    -34.224500  -12.979200   11.482200
  C    -34.622100  -13.640400   12.627600
  H    -34.140000  -13.265500    9.293300
  C    -33.377100  -11.764600   11.451700
  H    -33.322400  -11.406800   12.490200
  H    -33.995900  -11.076300   10.891200
  C    -32.007700  -11.985900   10.880500
  H    -32.039900  -12.508300    9.893410
  H    -31.553500  -12.662300   11.481400
  C    -31.281200  -10.665600   10.649100
  H    -30.314600  -10.988300   10.304100
  H    -31.153900  -10.045200   11.615200
  H    -31.572600   -9.975510    9.901780
  H    -34.606000  -13.564200   17.496500
  H    -35.398400  -15.382800    9.488240

 Total Charge           Charge          ....    0
 Multiplicity           Mult            ....    1
 Number of Electrons    NEL             ....  134
 Basis Dimension        Dim             ....  322

ORBITAL ENERGIES
----------------

  NO   OCC          E(Eh)            E(eV)
   0   2.0000     -88.971815     -2421.0462
   1   2.0000     -88.963154     -2420.8105
   2   2.0000     -10.330739      -281.1137
   3   2.0000     -10.324597      -280.9466
   4   2.0000     -10.319165      -280.7987
   5   2.0000     -10.308886      -280.5191
   6   2.0000     -10.300280      -280.2849
   7   2.0000     -10.293720      -280.1064
   8   2.0000     -10.293217      -280.0927
   9   2.0000     -10.290461      -280.0177
  10   2.0000     -10.289622      -279.9949
  11   2.0000     -10.286709      -279.9156
  12   2.0000     -10.279309      -279.7142
  13   2.0000     -10.279062      -279.7075
  14   2.0000     -10.278030      -279.6794
  15   2.0000     -10.275320      -279.6057
  16   2.0000      -8.087323      -220.0673
  17   2.0000      -8.076890      -219.7834
  18   2.0000      -6.045808      -164.5148
  19   2.0000      -6.041694      -164.4028
  20   2.0000      -6.038105      -164.3052
  21   2.0000      -6.035631      -164.2379
  22   2.0000      -6.031426      -164.1234
  23   2.0000      -6.027545      -164.0178
  24   2.0000      -1.010927       -27.5087
  25   2.0000      -0.985258       -26.8102
  26   2.0000      -0.916353       -24.9352
  27   2.0000      -0.910994       -24.7894
  28   2.0000      -0.871815       -23.7233
  29   2.0000      -0.853549       -23.2262
  30   2.0000      -0.845576       -23.0093
  31   2.0000      -0.816095       -22.2071
  32   2.0000      -0.785292       -21.3689
  33   2.0000      -0.770902       -20.9773
  34   2.0000      -0.715142       -19.4600
  35   2.0000      -0.705165       -19.1885
  36   2.0000      -0.701060       -19.0768
  37   2.0000      -0.665050       -18.0969
  38   2.0000      -0.644360       -17.5339
  39   2.0000      -0.625329       -17.0161
  40   2.0000      -0.591347       -16.0914
  41   2.0000      -0.569226       -15.4894
  42   2.0000      -0.562814       -15.3150
  43   2.0000      -0.553627       -15.0650
  44   2.0000      -0.540908       -14.7188
  45   2.0000      -0.530483       -14.4352
  46   2.0000      -0.520452       -14.1622
  47   2.0000      -0.515505       -14.0276
  48   2.0000      -0.507020       -13.7967
  49   2.0000      -0.503491       -13.7007
  50   2.0000      -0.493806       -13.4371
  51   2.0000      -0.480627       -13.0785
  52   2.0000      -0.473977       -12.8976
  53   2.0000      -0.462561       -12.5869
  54   2.0000      -0.455293       -12.3891
  55   2.0000      -0.452269       -12.3069
  56   2.0000      -0.451908       -12.2970
  57   2.0000      -0.440039       -11.9741
  58   2.0000      -0.436096       -11.8668
  59   2.0000      -0.424325       -11.5465
  60   2.0000      -0.417206       -11.3528
  61   2.0000      -0.413068       -11.2401
  62   2.0000      -0.402455       -10.9514
  63   2.0000      -0.356644        -9.7048
  64   2.0000      -0.332593        -9.0503
  65   2.0000      -0.326373        -8.8811
  66   2.0000      -0.283877        -7.7247
  67   0.0000       0.025313         0.6888
  68   0.0000       0.077082         2.0975
  69   0.0000       0.109534         2.9806
  70   0.0000       0.118662         3.2290
  71   0.0000       0.137812         3.7500

MULLIKEN ATOMIC CHARGES
-----------------------
   0 S :    0.132584
   1 C :   -0.094019
   2 C :   -0.115068
   3 C :    0.039975
   4 C :   -0.154579
   5 H :    0.000256
   6 C :    0.107504
   7 H :    0.050601
   8 H :   -0.009506
   9 C :   -0.072912
  10 H :    0.027742
  11 H :    0.021172
  12 C :   -0.053527
  13 H :    0.030185
  14 H :    0.045912
  15 H :    0.020313
  16 S :    0.087733
  17 C :   -0.076753
  18 C :   -0.051100
  19 C :   -0.069882
  20 C :   -0.112939
  21 H :    0.017699
  22 C :    0.083247
  23 H :    0.010854
  24 H :    0.020053
  25 C :   -0.037008
  26 H :    0.025387
  27 H :    0.008470
  28 C :   -0.038687
  29 H :    0.020612
  30 H :    0.038038
  31 H :    0.028441
  32 H :    0.021490
  33 H :    0.047713
Sum of atomic charges:    0.0000000

LOEWDIN ATOMIC CHARGES
----------------------
   0 S :    0.436011
   1 C :   -0.202080
   2 C :   -0.058181
   3 C :   -0.049995
   4 C :   -0.197419
   5 H :    0.021449
   6 C :   -0.027613
   7 H :    0.043668
   8 H :    0.018607
   9 C :   -0.036276
  10 H :    0.025307
  11 H :    0.015389
  12 C :   -0.066094
  13 H :    0.020124
  14 H :    0.030083
  15 H :    0.026504
  16 S :    0.383425
  17 C :   -0.175406
  18 C :   -0.067644
  19 C :   -0.070158
  20 C :   -0.195495
  21 H :    0.028606
  22 C :   -0.034377
  23 H :    0.028022
  24 H :    0.028972
  25 C :   -0.029100
  26 H :    0.029368
  27 H :    0.015811
  28 C :   -0.066069
  29 H :    0.025056
  30 H :    0.032846
  31 H :    0.020492
  32 H :    0.016161
  33 H :    0.030008

  Mayer bond orders larger than 0.100000
B(  0-S ,  1-C ) :   1.1407 B(  0-S ,  4-C ) :   1.1596 B(  1-C ,  2-C ) :   1.6037
B(  1-C , 32-H ) :   0.9677 B(  2-C ,  3-C ) :   1.2474 B(  2-C ,  6-C ) :   1.0379
B(  3-C ,  4-C ) :   1.5302 B(  3-C ,  5-H ) :   0.9980 B(  4-C , 20-C ) :   1.0716
B(  6-C ,  7-H ) :   0.9424 B(  6-C ,  8-H ) :   0.9280 B(  6-C ,  9-C ) :   1.0541
B(  9-C , 10-H ) :   0.9591 B(  9-C , 11-H ) :   0.9606 B(  9-C , 12-C ) :   1.0745
B( 12-C , 13-H ) :   0.9763 B( 12-C , 14-H ) :   0.9704 B( 12-C , 15-H ) :   0.9753
B( 16-S , 17-C ) :   1.1436 B( 16-S , 20-C ) :   1.1166 B( 17-C , 18-C ) :   1.5923
B( 17-C , 20-C ) :   0.1028 B( 17-C , 33-H ) :   0.9718 B( 18-C , 19-C ) :   1.2668
B( 18-C , 21-H ) :   0.9867 B( 19-C , 20-C ) :   1.5744 B( 19-C , 22-C ) :   1.0494
B( 22-C , 23-H ) :   0.9246 B( 22-C , 24-H ) :   0.9231 B( 22-C , 25-C ) :   1.0756
B( 25-C , 26-H ) :   0.9495 B( 25-C , 27-H ) :   0.9507 B( 25-C , 28-C ) :   1.0787
B( 28-C , 29-H ) :   0.9716 B( 28-C , 30-H ) :   0.9729 B( 28-C , 31-H ) :   0.9764

Dispersion correction           -0.014162653
FINAL SINGLE POINT ENERGY     -1339.865149497724

DIPOLE MOMENT
-------------
                                X             Y             Z
Electronic contribution:     -3.04145     -23.25341      -1.50531
Nuclear contribution   :      3.22079      23.87743       1.45181
                        -----------------------------------------
Total Dipole Moment    :      0.17933       0.62402      -0.05350
                        -----------------------------------------
Magnitude (a.u.)       :      0.65147
Magnitude (Debye)      :      1.65591

Rotational constants in cm-1:     0.018552     0.008477     0.006960
Rotational constants in MHz :   556.178208   254.131957   208.665778

                             ****ORCA TERMINATED NORMALLY****
TOTAL RUN TIME: 0 days 0 hours 0 minutes 21 seconds 843 msec
