                         Program Version 4.2.1 -  RELEASE  -
|  1> ! wB97X-D3 SP def2-SVP
|  2> %pal
|  3> nprocs 24
|  4> end
|  5>
|  6> * xyz 0 1
|  7> S 	 -69.1085 	 18.0089 	 -76.7431
|  8> C 	 -68.8865 	 16.6219 	 -77.7124
|  9> C 	 -68.7461 	 15.4596 	 -76.9961
| 10> C 	 -68.7943 	 15.7742 	 -75.6078
| 11> C 	 -69.0013 	 17.1678 	 -75.2944
| 12> H 	 -68.6781 	 15.086 	 -74.7461
| 13> C 	 -68.2885 	 14.1306 	 -77.4897
| 14> H 	 -68.9098 	 13.8021 	 -78.3258
| 15> H 	 -68.4924 	 13.338 	 -76.7873
| 16> C 	 -66.8445 	 14.0732 	 -78.0568
| 17> H 	 -66.7376 	 13.1161 	 -78.6433
| 18> H 	 -66.7621 	 14.9354 	 -78.7664
| 19> C 	 -65.7008 	 14.1779 	 -77.0063
| 20> H 	 -65.6239 	 15.148 	 -76.5061
| 21> H 	 -65.8247 	 13.424 	 -76.199
| 22> H 	 -64.7067 	 13.9697 	 -77.468
| 23> S 	 -70.4083 	 18.5897 	 -73.2633
| 24> C 	 -69.5399 	 19.0858 	 -71.9048
| 25> C 	 -68.3468 	 18.4008 	 -71.8006
| 26> C 	 -68.0091 	 17.6167 	 -72.962
| 27> C 	 -68.9872 	 17.6854 	 -73.9553
| 28> H 	 -67.6557 	 18.4043 	 -70.8849
| 29> C 	 -66.6992 	 16.8525 	 -72.9982
| 30> H 	 -66.7605 	 16.0358 	 -73.6942
| 31> H 	 -66.6118 	 16.2147 	 -72.058
| 32> C 	 -65.3394 	 17.6294 	 -73.1709
| 33> H 	 -65.338 	 18.4603 	 -72.5404
| 34> H 	 -65.3377 	 18.0446 	 -74.1335
| 35> C 	 -64.2225 	 16.7115 	 -73.0444
| 36> H 	 -64.1511 	 16.2242 	 -73.9952
| 37> H 	 -64.5215 	 15.9737 	 -72.2658
| 38> H 	 -63.2818 	 17.1766 	 -72.7955
| 39> H 	 -68.6081 	 16.5998 	 -78.8076
| 40> H 	 -69.9674 	 19.6943 	 -71.0592
| 41> *
| 42>
| 43>                          ****END OF INPUT****

CARTESIAN COORDINATES (ANGSTROEM)
---------------------------------
  S    -69.108500   18.008900  -76.743100
  C    -68.886500   16.621900  -77.712400
  C    -68.746100   15.459600  -76.996100
  C    -68.794300   15.774200  -75.607800
  C    -69.001300   17.167800  -75.294400
  H    -68.678100   15.086000  -74.746100
  C    -68.288500   14.130600  -77.489700
  H    -68.909800   13.802100  -78.325800
  H    -68.492400   13.338000  -76.787300
  C    -66.844500   14.073200  -78.056800
  H    -66.737600   13.116100  -78.643300
  H    -66.762100   14.935400  -78.766400
  C    -65.700800   14.177900  -77.006300
  H    -65.623900   15.148000  -76.506100
  H    -65.824700   13.424000  -76.199000
  H    -64.706700   13.969700  -77.468000
  S    -70.408300   18.589700  -73.263300
  C    -69.539900   19.085800  -71.904800
  C    -68.346800   18.400800  -71.800600
  C    -68.009100   17.616700  -72.962000
  C    -68.987200   17.685400  -73.955300
  H    -67.655700   18.404300  -70.884900
  C    -66.699200   16.852500  -72.998200
  H    -66.760500   16.035800  -73.694200
  H    -66.611800   16.214700  -72.058000
  C    -65.339400   17.629400  -73.170900
  H    -65.338000   18.460300  -72.540400
  H    -65.337700   18.044600  -74.133500
  C    -64.222500   16.711500  -73.044400
  H    -64.151100   16.224200  -73.995200
  H    -64.521500   15.973700  -72.265800
  H    -63.281800   17.176600  -72.795500
  H    -68.608100   16.599800  -78.807600
  H    -69.967400   19.694300  -71.059200

 Total Charge           Charge          ....    0
 Multiplicity           Mult            ....    1
 Number of Electrons    NEL             ....  134
 Basis Dimension        Dim             ....  322

ORBITAL ENERGIES
----------------

  NO   OCC          E(Eh)            E(eV)
   0   2.0000     -88.972813     -2421.0733
   1   2.0000     -88.963337     -2420.8155
   2   2.0000     -10.331125      -281.1242
   3   2.0000     -10.326364      -280.9946
   4   2.0000     -10.318759      -280.7877
   5   2.0000     -10.314677      -280.6766
   6   2.0000     -10.306290      -280.4484
   7   2.0000     -10.301129      -280.3080
   8   2.0000     -10.299808      -280.2720
   9   2.0000     -10.298158      -280.2271
  10   2.0000     -10.297163      -280.2001
  11   2.0000     -10.294424      -280.1255
  12   2.0000     -10.292873      -280.0833
  13   2.0000     -10.285156      -279.8733
  14   2.0000     -10.271561      -279.5034
  15   2.0000     -10.271250      -279.4949
  16   2.0000      -8.088862      -220.1091
  17   2.0000      -8.078386      -219.8241
  18   2.0000      -6.047139      -164.5510
  19   2.0000      -6.042955      -164.4372
  20   2.0000      -6.039995      -164.3566
  21   2.0000      -6.036849      -164.2710
  22   2.0000      -6.032911      -164.1638
  23   2.0000      -6.029099      -164.0601
  24   2.0000      -1.012481       -27.5510
  25   2.0000      -0.988394       -26.8956
  26   2.0000      -0.916018       -24.9261
  27   2.0000      -0.914261       -24.8783
  28   2.0000      -0.871417       -23.7125
  29   2.0000      -0.855841       -23.2886
  30   2.0000      -0.845653       -23.0114
  31   2.0000      -0.803712       -21.8701
  32   2.0000      -0.786589       -21.4042
  33   2.0000      -0.772364       -21.0171
  34   2.0000      -0.707345       -19.2478
  35   2.0000      -0.702657       -19.1203
  36   2.0000      -0.694812       -18.9068
  37   2.0000      -0.654701       -17.8153
  38   2.0000      -0.636142       -17.3103
  39   2.0000      -0.613247       -16.6873
  40   2.0000      -0.598561       -16.2877
  41   2.0000      -0.577562       -15.7163
  42   2.0000      -0.569410       -15.4944
  43   2.0000      -0.543074       -14.7778
  44   2.0000      -0.539873       -14.6907
  45   2.0000      -0.532598       -14.4927
  46   2.0000      -0.511309       -13.9134
  47   2.0000      -0.508430       -13.8351
  48   2.0000      -0.504553       -13.7296
  49   2.0000      -0.501646       -13.6505
  50   2.0000      -0.489363       -13.3162
  51   2.0000      -0.480563       -13.0768
  52   2.0000      -0.468412       -12.7461
  53   2.0000      -0.465862       -12.6767
  54   2.0000      -0.458688       -12.4815
  55   2.0000      -0.451082       -12.2746
  56   2.0000      -0.439710       -11.9651
  57   2.0000      -0.436494       -11.8776
  58   2.0000      -0.433706       -11.8017
  59   2.0000      -0.429420       -11.6851
  60   2.0000      -0.423917       -11.5354
  61   2.0000      -0.418741       -11.3945
  62   2.0000      -0.413694       -11.2572
  63   2.0000      -0.340834        -9.2746
  64   2.0000      -0.333688        -9.0801
  65   2.0000      -0.325949        -8.8695
  66   2.0000      -0.294072        -8.0021
  67   0.0000       0.030325         0.8252
  68   0.0000       0.063603         1.7307
  69   0.0000       0.107081         2.9138
  70   0.0000       0.120303         3.2736
  71   0.0000       0.127421         3.4673

MULLIKEN ATOMIC CHARGES
-----------------------
   0 S :    0.159469
   1 C :   -0.152951
   2 C :   -0.063706
   3 C :   -0.000648
   4 C :   -0.180486
   5 H :    0.025833
   6 C :    0.073992
   7 H :    0.024519
   8 H :    0.018117
   9 C :   -0.089582
  10 H :    0.043169
  11 H :    0.029869
  12 C :   -0.071532
  13 H :    0.046031
  14 H :    0.028872
  15 H :    0.039831
  16 S :    0.107029
  17 C :   -0.101172
  18 C :   -0.062395
  19 C :   -0.000137
  20 C :   -0.181418
  21 H :    0.043980
  22 C :    0.002554
  23 H :   -0.006514
  24 H :    0.026120
  25 C :    0.002715
  26 H :    0.005294
  27 H :    0.013744
  28 C :   -0.016720
  29 H :    0.026636
  30 H :    0.023241
  31 H :    0.034125
  32 H :    0.069484
  33 H :    0.082638
Sum of atomic charges:   -0.0000000

LOEWDIN ATOMIC CHARGES
----------------------
   0 S :    0.476315
   1 C :   -0.224633
   2 C :   -0.073240
   3 C :   -0.058610
   4 C :   -0.237622
   5 H :    0.031347
   6 C :   -0.037243
   7 H :    0.035689
   8 H :    0.028463
   9 C :   -0.039204
  10 H :    0.031001
  11 H :    0.025427
  12 C :   -0.075907
  13 H :    0.025594
  14 H :    0.025040
  15 H :    0.030744
  16 S :    0.400076
  17 C :   -0.211763
  18 C :   -0.087733
  19 C :   -0.051390
  20 C :   -0.186104
  21 H :    0.041886
  22 C :   -0.035884
  23 H :    0.020138
  24 H :    0.035831
  25 C :   -0.031490
  26 H :    0.012909
  27 H :    0.021014
  28 C :   -0.058920
  29 H :    0.026739
  30 H :    0.027457
  31 H :    0.026448
  32 H :    0.042291
  33 H :    0.045337

  Mayer bond orders larger than 0.100000
B(  0-S ,  1-C ) :   1.1814 B(  0-S ,  4-C ) :   1.1883 B(  1-C ,  2-C ) :   1.5562
B(  1-C , 32-H ) :   0.9534 B(  2-C ,  3-C ) :   1.2970 B(  2-C ,  6-C ) :   1.0401
B(  3-C ,  4-C ) :   1.4977 B(  3-C ,  5-H ) :   0.9872 B(  4-C , 20-C ) :   1.0776
B(  6-C ,  7-H ) :   0.9270 B(  6-C ,  8-H ) :   0.9411 B(  6-C ,  9-C ) :   1.0694
B(  9-C , 10-H ) :   0.9560 B(  9-C , 11-H ) :   0.9551 B(  9-C , 12-C ) :   1.0698
B( 12-C , 13-H ) :   0.9762 B( 12-C , 14-H ) :   0.9762 B( 12-C , 15-H ) :   0.9744
B( 16-S , 17-C ) :   1.1711 B( 16-S , 20-C ) :   1.1213 B( 17-C , 18-C ) :   1.5881
B( 17-C , 33-H ) :   0.9576 B( 18-C , 19-C ) :   1.2569 B( 18-C , 21-H ) :   0.9756
B( 19-C , 20-C ) :   1.5838 B( 19-C , 22-C ) :   1.0472 B( 22-C , 23-H ) :   0.9292
B( 22-C , 24-H ) :   0.9321 B( 22-C , 25-C ) :   1.0559 B( 25-C , 26-H ) :   0.9535
B( 25-C , 27-H ) :   0.9481 B( 25-C , 28-C ) :   1.0843 B( 28-C , 29-H ) :   0.9747
B( 28-C , 30-H ) :   0.9721 B( 28-C , 31-H ) :   0.9697

Dispersion correction           -0.014952759
FINAL SINGLE POINT ENERGY     -1339.871215971409

DIPOLE MOMENT
-------------
                                X             Y             Z
Electronic contribution:    -26.01704      17.60853       1.33782
Nuclear contribution   :     26.62923     -18.05181      -1.31890
                        -----------------------------------------
Total Dipole Moment    :      0.61219      -0.44328       0.01892
                        -----------------------------------------
Magnitude (a.u.)       :      0.75606
Magnitude (Debye)      :      1.92176

Rotational constants in cm-1:     0.017365     0.009978     0.007043
Rotational constants in MHz :   520.596963   299.121630   211.133147

                             ****ORCA TERMINATED NORMALLY****
TOTAL RUN TIME: 0 days 0 hours 0 minutes 23 seconds 32 msec
