                         Program Version 4.2.1 -  RELEASE  -
|  1> ! wB97X-D3 SP def2-SVP
|  2> %pal
|  3> nprocs 24
|  4> end
|  5>
|  6> * xyz 0 1
|  7> S 	 -64.5403 	 13.1879 	 -122.887
|  8> C 	 -63.314 	 12.0284 	 -123.102
|  9> C 	 -63.1777 	 11.1415 	 -122.023
| 10> C 	 -64.2366 	 11.377 	 -121.079
| 11> C 	 -65.0213 	 12.4515 	 -121.386
| 12> H 	 -64.4278 	 11.005 	 -120.134
| 13> C 	 -62.2004 	 10.0528 	 -121.757
| 14> H 	 -61.2215 	 10.299 	 -122.2
| 15> H 	 -62.5913 	 9.19154 	 -122.306
| 16> C 	 -61.7941 	 9.53752 	 -120.3
| 17> H 	 -61.4538 	 10.4415 	 -119.757
| 18> H 	 -62.6805 	 9.18555 	 -119.867
| 19> C 	 -60.6209 	 8.60255 	 -120.22
| 20> H 	 -59.668 	 8.86821 	 -120.736
| 21> H 	 -60.3627 	 8.42009 	 -119.128
| 22> H 	 -60.6799 	 7.62657 	 -120.719
| 23> S 	 -67.7934 	 12.8644 	 -121.41
| 24> C 	 -68.5581 	 13.1021 	 -119.758
| 25> C 	 -67.6061 	 13.5659 	 -118.883
| 26> C 	 -66.245 	 13.34 	 -119.339
| 27> C 	 -66.1546 	 12.9586 	 -120.684
| 28> H 	 -67.9358 	 13.8777 	 -117.854
| 29> C 	 -65.0264 	 13.803 	 -118.49
| 30> H 	 -64.3726 	 12.9348 	 -118.573
| 31> H 	 -65.3052 	 13.9381 	 -117.424
| 32> C 	 -64.4842 	 15.1258 	 -119.099
| 33> H 	 -65.1776 	 15.9155 	 -118.907
| 34> H 	 -64.3207 	 15.0328 	 -120.208
| 35> C 	 -63.135 	 15.5491 	 -118.48
| 36> H 	 -62.4566 	 14.7827 	 -118.779
| 37> H 	 -63.12 	 15.8008 	 -117.394
| 38> H 	 -62.7867 	 16.3835 	 -119.079
| 39> H 	 -62.6117 	 12.0235 	 -124.004
| 40> H 	 -69.6584 	 13.078 	 -119.644
| 41> *
| 42>
| 43>                          ****END OF INPUT****

CARTESIAN COORDINATES (ANGSTROEM)
---------------------------------
  S    -64.540300   13.187900  -122.887000
  C    -63.314000   12.028400  -123.102000
  C    -63.177700   11.141500  -122.023000
  C    -64.236600   11.377000  -121.079000
  C    -65.021300   12.451500  -121.386000
  H    -64.427800   11.005000  -120.134000
  C    -62.200400   10.052800  -121.757000
  H    -61.221500   10.299000  -122.200000
  H    -62.591300    9.191540  -122.306000
  C    -61.794100    9.537520  -120.300000
  H    -61.453800   10.441500  -119.757000
  H    -62.680500    9.185550  -119.867000
  C    -60.620900    8.602550  -120.220000
  H    -59.668000    8.868210  -120.736000
  H    -60.362700    8.420090  -119.128000
  H    -60.679900    7.626570  -120.719000
  S    -67.793400   12.864400  -121.410000
  C    -68.558100   13.102100  -119.758000
  C    -67.606100   13.565900  -118.883000
  C    -66.245000   13.340000  -119.339000
  C    -66.154600   12.958600  -120.684000
  H    -67.935800   13.877700  -117.854000
  C    -65.026400   13.803000  -118.490000
  H    -64.372600   12.934800  -118.573000
  H    -65.305200   13.938100  -117.424000
  C    -64.484200   15.125800  -119.099000
  H    -65.177600   15.915500  -118.907000
  H    -64.320700   15.032800  -120.208000
  C    -63.135000   15.549100  -118.480000
  H    -62.456600   14.782700  -118.779000
  H    -63.120000   15.800800  -117.394000
  H    -62.786700   16.383500  -119.079000
  H    -62.611700   12.023500  -124.004000
  H    -69.658400   13.078000  -119.644000

 Total Charge           Charge          ....    0
 Multiplicity           Mult            ....    1
 Number of Electrons    NEL             ....  134
 Basis Dimension        Dim             ....  322

ORBITAL ENERGIES
----------------

  NO   OCC          E(Eh)            E(eV)
   0   2.0000     -88.966729     -2420.9078
   1   2.0000     -88.960948     -2420.7505
   2   2.0000     -10.327170      -281.0166
   3   2.0000     -10.326162      -280.9891
   4   2.0000     -10.321688      -280.8674
   5   2.0000     -10.318533      -280.7816
   6   2.0000     -10.308458      -280.5074
   7   2.0000     -10.306878      -280.4644
   8   2.0000     -10.302486      -280.3449
   9   2.0000     -10.296139      -280.1722
  10   2.0000     -10.294954      -280.1400
  11   2.0000     -10.293989      -280.1137
  12   2.0000     -10.289203      -279.9834
  13   2.0000     -10.286800      -279.9181
  14   2.0000     -10.285564      -279.8844
  15   2.0000     -10.272503      -279.5290
  16   2.0000      -8.082404      -219.9334
  17   2.0000      -8.074159      -219.7090
  18   2.0000      -6.040683      -164.3753
  19   2.0000      -6.036761      -164.2686
  20   2.0000      -6.033386      -164.1768
  21   2.0000      -6.032956      -164.1651
  22   2.0000      -6.029068      -164.0593
  23   2.0000      -6.024508      -163.9352
  24   2.0000      -1.008087       -27.4314
  25   2.0000      -0.974860       -26.5273
  26   2.0000      -0.909843       -24.7581
  27   2.0000      -0.899739       -24.4831
  28   2.0000      -0.872588       -23.7443
  29   2.0000      -0.856933       -23.3183
  30   2.0000      -0.839687       -22.8490
  31   2.0000      -0.815528       -22.1916
  32   2.0000      -0.780303       -21.2331
  33   2.0000      -0.764437       -20.8014
  34   2.0000      -0.713793       -19.4233
  35   2.0000      -0.695305       -18.9202
  36   2.0000      -0.687028       -18.6950
  37   2.0000      -0.658222       -17.9111
  38   2.0000      -0.646359       -17.5883
  39   2.0000      -0.618426       -16.8282
  40   2.0000      -0.584103       -15.8943
  41   2.0000      -0.570391       -15.5211
  42   2.0000      -0.567172       -15.4335
  43   2.0000      -0.558149       -15.1880
  44   2.0000      -0.525331       -14.2950
  45   2.0000      -0.520027       -14.1507
  46   2.0000      -0.517015       -14.0687
  47   2.0000      -0.509125       -13.8540
  48   2.0000      -0.505146       -13.7457
  49   2.0000      -0.494342       -13.4517
  50   2.0000      -0.490442       -13.3456
  51   2.0000      -0.486975       -13.2513
  52   2.0000      -0.477021       -12.9804
  53   2.0000      -0.469238       -12.7686
  54   2.0000      -0.451757       -12.2929
  55   2.0000      -0.446499       -12.1499
  56   2.0000      -0.438611       -11.9352
  57   2.0000      -0.436381       -11.8745
  58   2.0000      -0.428524       -11.6607
  59   2.0000      -0.423774       -11.5315
  60   2.0000      -0.419059       -11.4032
  61   2.0000      -0.413241       -11.2449
  62   2.0000      -0.407693       -11.0939
  63   2.0000      -0.346237        -9.4216
  64   2.0000      -0.329365        -8.9625
  65   2.0000      -0.321944        -8.7605
  66   2.0000      -0.292388        -7.9563
  67   0.0000       0.031345         0.8530
  68   0.0000       0.058465         1.5909
  69   0.0000       0.102658         2.7935
  70   0.0000       0.120012         3.2657
  71   0.0000       0.133304         3.6274

MULLIKEN ATOMIC CHARGES
-----------------------
   0 S :    0.124362
   1 C :   -0.146950
   2 C :   -0.059519
   3 C :    0.061361
   4 C :   -0.196272
   5 H :   -0.015095
   6 C :    0.016751
   7 H :    0.022147
   8 H :    0.047316
   9 C :   -0.044463
  10 H :    0.037962
  11 H :    0.034262
  12 C :   -0.081290
  13 H :    0.029399
  14 H :    0.050586
  15 H :    0.026121
  16 S :    0.077579
  17 C :   -0.120286
  18 C :   -0.021287
  19 C :   -0.070976
  20 C :   -0.131901
  21 H :    0.043498
  22 C :    0.081786
  23 H :    0.020822
  24 H :    0.027485
  25 C :   -0.093557
  26 H :    0.025766
  27 H :    0.043031
  28 C :   -0.028584
  29 H :    0.021969
  30 H :    0.046912
  31 H :    0.024214
  32 H :    0.071351
  33 H :    0.075500
Sum of atomic charges:    0.0000000

LOEWDIN ATOMIC CHARGES
----------------------
   0 S :    0.430812
   1 C :   -0.226160
   2 C :   -0.061826
   3 C :   -0.051919
   4 C :   -0.197453
   5 H :    0.019937
   6 C :   -0.041425
   7 H :    0.029680
   8 H :    0.037556
   9 C :   -0.035444
  10 H :    0.032345
  11 H :    0.016801
  12 C :   -0.081217
  13 H :    0.030898
  14 H :    0.039495
  15 H :    0.024591
  16 S :    0.344153
  17 C :   -0.156079
  18 C :   -0.078467
  19 C :   -0.049003
  20 C :   -0.197193
  21 H :    0.041402
  22 C :   -0.029818
  23 H :    0.027444
  24 H :    0.031149
  25 C :   -0.035861
  26 H :    0.019812
  27 H :    0.030837
  28 C :   -0.069696
  29 H :    0.021801
  30 H :    0.028712
  31 H :    0.026708
  32 H :    0.042117
  33 H :    0.035310

  Mayer bond orders larger than 0.100000
B(  0-S ,  1-C ) :   1.1564 B(  0-S ,  4-C ) :   1.1504 B(  1-C ,  2-C ) :   1.6000
B(  1-C , 32-H ) :   0.9591 B(  2-C ,  3-C ) :   1.2193 B(  2-C ,  6-C ) :   1.0241
B(  3-C ,  4-C ) :   1.6084 B(  3-C ,  5-H ) :   0.9948 B(  4-C , 20-C ) :   1.0326
B(  6-C ,  7-H ) :   0.9447 B(  6-C ,  8-H ) :   0.9308 B(  6-C ,  9-C ) :   1.0618
B(  9-C , 10-H ) :   0.9574 B(  9-C , 11-H ) :   0.9489 B(  9-C , 12-C ) :   1.0855
B( 12-C , 13-H ) :   0.9699 B( 12-C , 14-H ) :   0.9719 B( 12-C , 15-H ) :   0.9726
B( 16-S , 17-C ) :   1.1302 B( 16-S , 20-C ) :   1.1083 B( 17-C , 18-C ) :   1.6380
B( 17-C , 20-C ) :   0.1013 B( 17-C , 33-H ) :   0.9643 B( 18-C , 19-C ) :   1.2099
B( 18-C , 21-H ) :   0.9765 B( 19-C , 20-C ) :   1.6099 B( 19-C , 22-C ) :   1.0357
B( 22-C , 23-H ) :   0.9304 B( 22-C , 24-H ) :   0.9403 B( 22-C , 25-C ) :   1.0586
B( 25-C , 26-H ) :   0.9562 B( 25-C , 27-H ) :   0.9565 B( 25-C , 28-C ) :   1.0837
B( 28-C , 29-H ) :   0.9745 B( 28-C , 30-H ) :   0.9744 B( 28-C , 31-H ) :   0.9708

Dispersion correction           -0.014465137
FINAL SINGLE POINT ENERGY     -1339.856598242996

DIPOLE MOMENT
-------------
                                X             Y             Z
Electronic contribution:    -23.25826       5.61471     -15.42689
Nuclear contribution   :     23.68446      -5.78180      15.95686
                        -----------------------------------------
Total Dipole Moment    :      0.42620      -0.16708       0.52997
                        -----------------------------------------
Magnitude (a.u.)       :      0.70031
Magnitude (Debye)      :      1.78005

Rotational constants in cm-1:     0.017434     0.008413     0.007407
Rotational constants in MHz :   522.668947   252.206051   222.041708

                             ****ORCA TERMINATED NORMALLY****
TOTAL RUN TIME: 0 days 0 hours 0 minutes 20 seconds 540 msec
