                         Program Version 4.2.1 -  RELEASE  -
|  1> ! wB97X-D3 SP def2-SVP
|  2> %pal
|  3> nprocs 24
|  4> end
|  5>
|  6> * xyz 0 1
|  7> S 	 -110.206 	 51.6975 	 -76.5713
|  8> C 	 -111.033 	 51.4037 	 -78.1225
|  9> C 	 -112.364 	 50.9688 	 -77.9477
| 10> C 	 -112.658 	 50.7629 	 -76.5203
| 11> C 	 -111.599 	 51.1607 	 -75.6602
| 12> H 	 -113.62 	 50.4272 	 -76.1127
| 13> C 	 -113.316 	 50.8349 	 -79.1294
| 14> H 	 -112.952 	 51.3482 	 -80.0429
| 15> H 	 -114.223 	 51.3824 	 -78.8723
| 16> C 	 -113.63 	 49.3523 	 -79.4975
| 17> H 	 -112.844 	 48.7485 	 -79.8691
| 18> H 	 -113.993 	 48.8871 	 -78.5366
| 19> C 	 -114.622 	 49.2238 	 -80.5818
| 20> H 	 -115.488 	 49.8054 	 -80.4444
| 21> H 	 -114.273 	 49.5283 	 -81.5036
| 22> H 	 -114.999 	 48.198 	 -80.7641
| 23> S 	 -111.083 	 49.8899 	 -73.2616
| 24> C 	 -111.419 	 50.671 	 -71.7564
| 25> C 	 -112.053 	 51.8803 	 -72.0093
| 26> C 	 -112.273 	 52.1831 	 -73.3788
| 27> C 	 -111.737 	 51.2117 	 -74.2185
| 28> H 	 -112.41 	 52.5466 	 -71.1994
| 29> C 	 -113.055 	 53.3732 	 -73.8501
| 30> H 	 -113.193 	 53.8809 	 -72.9017
| 31> H 	 -114.083 	 53.0248 	 -74.1355
| 32> C 	 -112.403 	 54.3481 	 -74.8353
| 33> H 	 -112.365 	 53.8294 	 -75.742
| 34> H 	 -111.365 	 54.5867 	 -74.4273
| 35> C 	 -112.907 	 55.7909 	 -75.0193
| 36> H 	 -113.961 	 55.8196 	 -75.334
| 37> H 	 -112.443 	 56.5069 	 -75.7394
| 38> H 	 -112.818 	 56.3904 	 -74.1383
| 39> H 	 -110.552 	 51.3565 	 -79.1061
| 40> H 	 -111.3 	 50.2192 	 -70.7929
| 41> *
| 42>
| 43>                          ****END OF INPUT****

CARTESIAN COORDINATES (ANGSTROEM)
---------------------------------
  S    -110.206000   51.697500  -76.571300
  C    -111.033000   51.403700  -78.122500
  C    -112.364000   50.968800  -77.947700
  C    -112.658000   50.762900  -76.520300
  C    -111.599000   51.160700  -75.660200
  H    -113.620000   50.427200  -76.112700
  C    -113.316000   50.834900  -79.129400
  H    -112.952000   51.348200  -80.042900
  H    -114.223000   51.382400  -78.872300
  C    -113.630000   49.352300  -79.497500
  H    -112.844000   48.748500  -79.869100
  H    -113.993000   48.887100  -78.536600
  C    -114.622000   49.223800  -80.581800
  H    -115.488000   49.805400  -80.444400
  H    -114.273000   49.528300  -81.503600
  H    -114.999000   48.198000  -80.764100
  S    -111.083000   49.889900  -73.261600
  C    -111.419000   50.671000  -71.756400
  C    -112.053000   51.880300  -72.009300
  C    -112.273000   52.183100  -73.378800
  C    -111.737000   51.211700  -74.218500
  H    -112.410000   52.546600  -71.199400
  C    -113.055000   53.373200  -73.850100
  H    -113.193000   53.880900  -72.901700
  H    -114.083000   53.024800  -74.135500
  C    -112.403000   54.348100  -74.835300
  H    -112.365000   53.829400  -75.742000
  H    -111.365000   54.586700  -74.427300
  C    -112.907000   55.790900  -75.019300
  H    -113.961000   55.819600  -75.334000
  H    -112.443000   56.506900  -75.739400
  H    -112.818000   56.390400  -74.138300
  H    -110.552000   51.356500  -79.106100
  H    -111.300000   50.219200  -70.792900

 Total Charge           Charge          ....    0
 Multiplicity           Mult            ....    1
 Number of Electrons    NEL             ....  134
 Basis Dimension        Dim             ....  322

ORBITAL ENERGIES
----------------

  NO   OCC          E(Eh)            E(eV)
   0   2.0000     -88.970579     -2421.0125
   1   2.0000     -88.963860     -2420.8297
   2   2.0000     -10.333146      -281.1792
   3   2.0000     -10.323156      -280.9074
   4   2.0000     -10.320075      -280.8235
   5   2.0000     -10.317052      -280.7413
   6   2.0000     -10.310945      -280.5751
   7   2.0000     -10.306061      -280.4422
   8   2.0000     -10.301938      -280.3300
   9   2.0000     -10.300597      -280.2935
  10   2.0000     -10.295647      -280.1588
  11   2.0000     -10.292344      -280.0689
  12   2.0000     -10.285297      -279.8771
  13   2.0000     -10.284397      -279.8527
  14   2.0000     -10.276957      -279.6502
  15   2.0000     -10.265089      -279.3273
  16   2.0000      -8.084063      -219.9785
  17   2.0000      -8.078835      -219.8363
  18   2.0000      -6.042674      -164.4295
  19   2.0000      -6.038636      -164.3197
  20   2.0000      -6.037267      -164.2824
  21   2.0000      -6.034883      -164.2175
  22   2.0000      -6.033094      -164.1688
  23   2.0000      -6.029876      -164.0813
  24   2.0000      -1.003102       -27.2958
  25   2.0000      -0.976940       -26.5839
  26   2.0000      -0.914429       -24.8829
  27   2.0000      -0.906058       -24.6551
  28   2.0000      -0.869820       -23.6690
  29   2.0000      -0.850263       -23.1368
  30   2.0000      -0.847608       -23.0646
  31   2.0000      -0.809492       -22.0274
  32   2.0000      -0.784013       -21.3341
  33   2.0000      -0.771947       -21.0058
  34   2.0000      -0.711011       -19.3476
  35   2.0000      -0.702461       -19.1149
  36   2.0000      -0.690024       -18.7765
  37   2.0000      -0.661750       -18.0071
  38   2.0000      -0.638800       -17.3826
  39   2.0000      -0.612284       -16.6611
  40   2.0000      -0.590416       -16.0660
  41   2.0000      -0.571038       -15.5387
  42   2.0000      -0.566099       -15.4043
  43   2.0000      -0.560889       -15.2626
  44   2.0000      -0.527681       -14.3589
  45   2.0000      -0.524467       -14.2715
  46   2.0000      -0.516626       -14.0581
  47   2.0000      -0.508481       -13.8365
  48   2.0000      -0.504096       -13.7172
  49   2.0000      -0.501595       -13.6491
  50   2.0000      -0.496544       -13.5116
  51   2.0000      -0.474503       -12.9119
  52   2.0000      -0.470107       -12.7923
  53   2.0000      -0.467624       -12.7247
  54   2.0000      -0.461377       -12.5547
  55   2.0000      -0.451834       -12.2950
  56   2.0000      -0.450860       -12.2685
  57   2.0000      -0.436190       -11.8693
  58   2.0000      -0.430477       -11.7139
  59   2.0000      -0.426601       -11.6084
  60   2.0000      -0.414171       -11.2702
  61   2.0000      -0.410285       -11.1644
  62   2.0000      -0.398461       -10.8427
  63   2.0000      -0.334499        -9.1022
  64   2.0000      -0.327768        -8.9190
  65   2.0000      -0.317286        -8.6338
  66   2.0000      -0.311187        -8.4678
  67   0.0000       0.039350         1.0708
  68   0.0000       0.050722         1.3802
  69   0.0000       0.111821         3.0428
  70   0.0000       0.124175         3.3790
  71   0.0000       0.126852         3.4518

MULLIKEN ATOMIC CHARGES
-----------------------
   0 S :    0.132211
   1 C :   -0.131117
   2 C :   -0.086369
   3 C :    0.041101
   4 C :   -0.178472
   5 H :    0.024427
   6 C :    0.045142
   7 H :    0.024578
   8 H :    0.034807
   9 C :   -0.068774
  10 H :    0.026584
  11 H :    0.032890
  12 C :    0.001950
  13 H :    0.002053
  14 H :    0.002510
  15 H :    0.030814
  16 S :    0.114481
  17 C :   -0.084836
  18 C :   -0.049396
  19 C :   -0.043301
  20 C :   -0.198252
  21 H :    0.028218
  22 C :    0.109007
  23 H :   -0.007319
  24 H :    0.045036
  25 C :   -0.067831
  26 H :    0.042269
  27 H :    0.038770
  28 C :   -0.056498
  29 H :    0.021857
  30 H :    0.036888
  31 H :    0.017635
  32 H :    0.061871
  33 H :    0.057069
Sum of atomic charges:   -0.0000000

LOEWDIN ATOMIC CHARGES
----------------------
   0 S :    0.407196
   1 C :   -0.196756
   2 C :   -0.058897
   3 C :   -0.057567
   4 C :   -0.207282
   5 H :    0.033369
   6 C :   -0.030407
   7 H :    0.031775
   8 H :    0.034351
   9 C :   -0.040101
  10 H :    0.023646
  11 H :    0.028722
  12 C :   -0.062300
  13 H :    0.015215
  14 H :    0.014043
  15 H :    0.032689
  16 S :    0.420902
  17 C :   -0.190735
  18 C :   -0.079383
  19 C :   -0.054843
  20 C :   -0.206913
  21 H :    0.034826
  22 C :   -0.032825
  23 H :    0.026041
  24 H :    0.038515
  25 C :   -0.040562
  26 H :    0.017191
  27 H :    0.037740
  28 C :   -0.076585
  29 H :    0.021034
  30 H :    0.035543
  31 H :    0.019241
  32 H :    0.033653
  33 H :    0.029465

  Mayer bond orders larger than 0.100000
B(  0-S ,  1-C ) :   1.1379 B(  0-S ,  4-C ) :   1.1509 B(  1-C ,  2-C ) :   1.6131
B(  1-C , 32-H ) :   0.9616 B(  2-C ,  3-C ) :   1.2342 B(  2-C ,  6-C ) :   1.0262
B(  3-C ,  4-C ) :   1.5695 B(  3-C ,  5-H ) :   0.9865 B(  4-C , 20-C ) :   1.0388
B(  6-C ,  7-H ) :   0.9475 B(  6-C ,  8-H ) :   0.9403 B(  6-C ,  9-C ) :   1.0517
B(  9-C , 10-H ) :   0.9581 B(  9-C , 11-H ) :   0.9574 B(  9-C , 12-C ) :   1.0919
B( 12-C , 13-H ) :   0.9684 B( 12-C , 14-H ) :   0.9681 B( 12-C , 15-H ) :   0.9693
B( 16-S , 17-C ) :   1.1769 B( 16-S , 20-C ) :   1.1581 B( 17-C , 18-C ) :   1.5646
B( 17-C , 20-C ) :   0.1056 B( 17-C , 33-H ) :   0.9711 B( 18-C , 19-C ) :   1.2957
B( 18-C , 21-H ) :   0.9771 B( 19-C , 20-C ) :   1.5585 B( 19-C , 22-C ) :   1.0345
B( 22-C , 23-H ) :   0.9199 B( 22-C , 24-H ) :   0.9260 B( 22-C , 25-C ) :   1.0534
B( 25-C , 26-H ) :   0.9575 B( 25-C , 27-H ) :   0.9583 B( 25-C , 28-C ) :   1.0803
B( 28-C , 29-H ) :   0.9732 B( 28-C , 30-H ) :   0.9752 B( 28-C , 31-H ) :   0.9739

Dispersion correction           -0.014425456
FINAL SINGLE POINT ENERGY     -1339.867008343492

DIPOLE MOMENT
-------------
                                X             Y             Z
Electronic contribution:     17.85133      -9.42294      15.83721
Nuclear contribution   :    -18.38989       9.59358     -16.07212
                        -----------------------------------------
Total Dipole Moment    :     -0.53857       0.17064      -0.23491
                        -----------------------------------------
Magnitude (a.u.)       :      0.61184
Magnitude (Debye)      :      1.55518

Rotational constants in cm-1:     0.018367     0.007994     0.006803
Rotational constants in MHz :   550.635458   239.640853   203.942454

                             ****ORCA TERMINATED NORMALLY****
TOTAL RUN TIME: 0 days 0 hours 0 minutes 20 seconds 174 msec
