                         Program Version 4.2.1 -  RELEASE  -
|  1> ! wB97X-D3 SP def2-SVP
|  2> %pal
|  3> nprocs 24
|  4> end
|  5>
|  6> * xyz 0 1
|  7> S 	 -101.282 	 15.9204 	 -123.897
|  8> C 	 -99.7932 	 16.6754 	 -123.637
|  9> C 	 -99.2005 	 16.1713 	 -122.461
| 10> C 	 -100.077 	 15.283 	 -121.794
| 11> C 	 -101.279 	 15.0356 	 -122.444
| 12> H 	 -99.989 	 14.8594 	 -120.811
| 13> C 	 -97.869 	 16.5538 	 -121.87
| 14> H 	 -97.116 	 15.8772 	 -122.268
| 15> H 	 -97.9133 	 16.5413 	 -120.775
| 16> C 	 -97.3857 	 18.028 	 -122.21
| 17> H 	 -97.3265 	 18.1419 	 -123.273
| 18> H 	 -98.087 	 18.8022 	 -121.833
| 19> C 	 -95.9861 	 18.4765 	 -121.647
| 20> H 	 -95.1967 	 17.8707 	 -122.065
| 21> H 	 -95.7139 	 19.5094 	 -121.811
| 22> H 	 -96.0327 	 18.2463 	 -120.563
| 23> S 	 -104.023 	 15.0915 	 -121.813
| 24> C 	 -104.664 	 13.698 	 -121.025
| 25> C 	 -103.678 	 12.8457 	 -120.572
| 26> C 	 -102.361 	 13.2157 	 -121.019
| 27> C 	 -102.384 	 14.366 	 -121.793
| 28> H 	 -103.969 	 11.9388 	 -119.991
| 29> C 	 -101.173 	 12.2976 	 -120.858
| 30> H 	 -101.41 	 11.3419 	 -120.356
| 31> H 	 -100.382 	 12.7633 	 -120.171
| 32> C 	 -100.364 	 11.7968 	 -122.099
| 33> H 	 -100.086 	 12.647 	 -122.682
| 34> H 	 -100.992 	 11.1887 	 -122.796
| 35> C 	 -99.1035 	 11.0328 	 -121.672
| 36> H 	 -98.3851 	 11.5849 	 -121.03
| 37> H 	 -98.5477 	 10.8967 	 -122.578
| 38> H 	 -99.292 	 10.0646 	 -121.291
| 39> H 	 -99.1884 	 17.2755 	 -124.275
| 40> H 	 -105.651 	 13.5322 	 -120.678
| 41> *
| 42>
| 43>                          ****END OF INPUT****

CARTESIAN COORDINATES (ANGSTROEM)
---------------------------------
  S    -101.282000   15.920400  -123.897000
  C    -99.793200   16.675400  -123.637000
  C    -99.200500   16.171300  -122.461000
  C    -100.077000   15.283000  -121.794000
  C    -101.279000   15.035600  -122.444000
  H    -99.989000   14.859400  -120.811000
  C    -97.869000   16.553800  -121.870000
  H    -97.116000   15.877200  -122.268000
  H    -97.913300   16.541300  -120.775000
  C    -97.385700   18.028000  -122.210000
  H    -97.326500   18.141900  -123.273000
  H    -98.087000   18.802200  -121.833000
  C    -95.986100   18.476500  -121.647000
  H    -95.196700   17.870700  -122.065000
  H    -95.713900   19.509400  -121.811000
  H    -96.032700   18.246300  -120.563000
  S    -104.023000   15.091500  -121.813000
  C    -104.664000   13.698000  -121.025000
  C    -103.678000   12.845700  -120.572000
  C    -102.361000   13.215700  -121.019000
  C    -102.384000   14.366000  -121.793000
  H    -103.969000   11.938800  -119.991000
  C    -101.173000   12.297600  -120.858000
  H    -101.410000   11.341900  -120.356000
  H    -100.382000   12.763300  -120.171000
  C    -100.364000   11.796800  -122.099000
  H    -100.086000   12.647000  -122.682000
  H    -100.992000   11.188700  -122.796000
  C    -99.103500   11.032800  -121.672000
  H    -98.385100   11.584900  -121.030000
  H    -98.547700   10.896700  -122.578000
  H    -99.292000   10.064600  -121.291000
  H    -99.188400   17.275500  -124.275000
  H    -105.651000   13.532200  -120.678000

 Total Charge           Charge          ....    0
 Multiplicity           Mult            ....    1
 Number of Electrons    NEL             ....  134
 Basis Dimension        Dim             ....  322

ORBITAL ENERGIES
----------------

  NO   OCC          E(Eh)            E(eV)
   0   2.0000     -88.971243     -2421.0306
   1   2.0000     -88.967827     -2420.9376
   2   2.0000     -10.330616      -281.1104
   3   2.0000     -10.324229      -280.9366
   4   2.0000     -10.311754      -280.5971
   5   2.0000     -10.311532      -280.5911
   6   2.0000     -10.305048      -280.4146
   7   2.0000     -10.302647      -280.3493
   8   2.0000     -10.299355      -280.2597
   9   2.0000     -10.297321      -280.2044
  10   2.0000     -10.296016      -280.1688
  11   2.0000     -10.292515      -280.0736
  12   2.0000     -10.288896      -279.9751
  13   2.0000     -10.283973      -279.8411
  14   2.0000     -10.281891      -279.7845
  15   2.0000     -10.273821      -279.5649
  16   2.0000      -8.087099      -220.0611
  17   2.0000      -8.082226      -219.9285
  18   2.0000      -6.045431      -164.5045
  19   2.0000      -6.041168      -164.3885
  20   2.0000      -6.040821      -164.3791
  21   2.0000      -6.038247      -164.3090
  22   2.0000      -6.036849      -164.2710
  23   2.0000      -6.032844      -164.1620
  24   2.0000      -1.015103       -27.6224
  25   2.0000      -0.987991       -26.8846
  26   2.0000      -0.907266       -24.6880
  27   2.0000      -0.903686       -24.5905
  28   2.0000      -0.871150       -23.7052
  29   2.0000      -0.854406       -23.2496
  30   2.0000      -0.848755       -23.0958
  31   2.0000      -0.813001       -22.1229
  32   2.0000      -0.782065       -21.2811
  33   2.0000      -0.772062       -21.0089
  34   2.0000      -0.713888       -19.4259
  35   2.0000      -0.701383       -19.0856
  36   2.0000      -0.687572       -18.7098
  37   2.0000      -0.662390       -18.0245
  38   2.0000      -0.640741       -17.4355
  39   2.0000      -0.614275       -16.7153
  40   2.0000      -0.594558       -16.1787
  41   2.0000      -0.578146       -15.7321
  42   2.0000      -0.566321       -15.4104
  43   2.0000      -0.560464       -15.2510
  44   2.0000      -0.521976       -14.2037
  45   2.0000      -0.521195       -14.1824
  46   2.0000      -0.513546       -13.9743
  47   2.0000      -0.512223       -13.9383
  48   2.0000      -0.506949       -13.7948
  49   2.0000      -0.502627       -13.6772
  50   2.0000      -0.491931       -13.3861
  51   2.0000      -0.485315       -13.2061
  52   2.0000      -0.478731       -13.0269
  53   2.0000      -0.466315       -12.6891
  54   2.0000      -0.461210       -12.5502
  55   2.0000      -0.448469       -12.2035
  56   2.0000      -0.440024       -11.9737
  57   2.0000      -0.433948       -11.8083
  58   2.0000      -0.429354       -11.6833
  59   2.0000      -0.428247       -11.6532
  60   2.0000      -0.425573       -11.5804
  61   2.0000      -0.414527       -11.2798
  62   2.0000      -0.409307       -11.1378
  63   2.0000      -0.354061        -9.6345
  64   2.0000      -0.332423        -9.0457
  65   2.0000      -0.329988        -8.9794
  66   2.0000      -0.287537        -7.8243
  67   0.0000       0.023909         0.6506
  68   0.0000       0.078379         2.1328
  69   0.0000       0.112901         3.0722
  70   0.0000       0.123126         3.3504
  71   0.0000       0.136102         3.7035

MULLIKEN ATOMIC CHARGES
-----------------------
   0 S :    0.140707
   1 C :   -0.091396
   2 C :   -0.098026
   3 C :    0.008756
   4 C :   -0.165779
   5 H :    0.002644
   6 C :    0.081140
   7 H :    0.045003
   8 H :    0.036453
   9 C :   -0.139078
  10 H :    0.024013
  11 H :    0.044539
  12 C :   -0.047092
  13 H :    0.025146
  14 H :    0.042308
  15 H :    0.030874
  16 S :    0.117032
  17 C :   -0.069982
  18 C :   -0.064477
  19 C :    0.020385
  20 C :   -0.146240
  21 H :    0.034860
  22 C :   -0.011252
  23 H :    0.022094
  24 H :    0.035711
  25 C :   -0.069089
  26 H :    0.033184
  27 H :    0.035728
  28 C :   -0.038386
  29 H :    0.031937
  30 H :    0.022582
  31 H :    0.028576
  32 H :    0.034564
  33 H :    0.042562
Sum of atomic charges:   -0.0000000

LOEWDIN ATOMIC CHARGES
----------------------
   0 S :    0.464884
   1 C :   -0.219967
   2 C :   -0.064892
   3 C :   -0.059354
   4 C :   -0.221745
   5 H :    0.027677
   6 C :   -0.028317
   7 H :    0.036167
   8 H :    0.033173
   9 C :   -0.043444
  10 H :    0.012247
  11 H :    0.028802
  12 C :   -0.066093
  13 H :    0.020131
  14 H :    0.027234
  15 H :    0.026879
  16 S :    0.399000
  17 C :   -0.192048
  18 C :   -0.072339
  19 C :   -0.061169
  20 C :   -0.178193
  21 H :    0.039411
  22 C :   -0.045033
  23 H :    0.030424
  24 H :    0.034095
  25 C :   -0.037050
  26 H :    0.018002
  27 H :    0.028852
  28 C :   -0.063253
  29 H :    0.028570
  30 H :    0.028000
  31 H :    0.018384
  32 H :    0.025864
  33 H :    0.025101

  Mayer bond orders larger than 0.100000
B(  0-S ,  1-C ) :   1.1680 B(  0-S ,  4-C ) :   1.1741 B(  1-C ,  2-C ) :   1.5456
B(  1-C , 32-H ) :   0.9704 B(  2-C ,  3-C ) :   1.3066 B(  2-C ,  6-C ) :   1.0216
B(  3-C ,  4-C ) :   1.5031 B(  3-C ,  5-H ) :   0.9956 B(  4-C , 20-C ) :   1.0800
B(  6-C ,  7-H ) :   0.9292 B(  6-C ,  8-H ) :   0.9507 B(  6-C ,  9-C ) :   1.0631
B(  9-C , 10-H ) :   0.9539 B(  9-C , 11-H ) :   0.9632 B(  9-C , 12-C ) :   1.0800
B( 12-C , 13-H ) :   0.9761 B( 12-C , 14-H ) :   0.9759 B( 12-C , 15-H ) :   0.9770
B( 16-S , 17-C ) :   1.1454 B( 16-S , 20-C ) :   1.1258 B( 17-C , 18-C ) :   1.6335
B( 17-C , 33-H ) :   0.9652 B( 18-C , 19-C ) :   1.2383 B( 18-C , 21-H ) :   0.9819
B( 19-C , 20-C ) :   1.5900 B( 19-C , 22-C ) :   1.0397 B( 22-C , 23-H ) :   0.9455
B( 22-C , 24-H ) :   0.9295 B( 22-C , 25-C ) :   1.0560 B( 25-C , 26-H ) :   0.9515
B( 25-C , 27-H ) :   0.9535 B( 25-C , 28-C ) :   1.0874 B( 28-C , 29-H ) :   0.9720
B( 28-C , 30-H ) :   0.9701 B( 28-C , 31-H ) :   0.9768

Dispersion correction           -0.014177664
FINAL SINGLE POINT ENERGY     -1339.879444115273

DIPOLE MOMENT
-------------
                                X             Y             Z
Electronic contribution:    -28.14306       4.37882      -7.00937
Nuclear contribution   :     28.69058      -4.57959       7.27182
                        -----------------------------------------
Total Dipole Moment    :      0.54752      -0.20076       0.26245
                        -----------------------------------------
Magnitude (a.u.)       :      0.63950
Magnitude (Debye)      :      1.62548

Rotational constants in cm-1:     0.019502     0.008078     0.006535
Rotational constants in MHz :   584.665109   242.184451   195.914322

                             ****ORCA TERMINATED NORMALLY****
TOTAL RUN TIME: 0 days 0 hours 0 minutes 20 seconds 473 msec
