                         Program Version 4.2.1 -  RELEASE  -
|  1> ! wB97X-D3 SP def2-SVP
|  2> %pal
|  3> nprocs 24
|  4> end
|  5>
|  6> * xyz 0 1
|  7> S 	 -94.6976 	 -4.82334 	 -119.69
|  8> C 	 -96.1722 	 -4.05251 	 -120.032
|  9> C 	 -96.9605 	 -3.98349 	 -118.919
| 10> C 	 -96.3777 	 -4.68178 	 -117.807
| 11> C 	 -95.1632 	 -5.22323 	 -118.079
| 12> H 	 -96.6855 	 -4.74764 	 -116.741
| 13> C 	 -98.3529 	 -3.33836 	 -118.935
| 14> H 	 -98.1923 	 -2.42732 	 -119.51
| 15> H 	 -98.5824 	 -3.03941 	 -117.938
| 16> C 	 -99.4957 	 -4.18471 	 -119.542
| 17> H 	 -99.2434 	 -4.59973 	 -120.524
| 18> H 	 -99.6834 	 -4.99906 	 -118.834
| 19> C 	 -100.782 	 -3.36659 	 -119.593
| 20> H 	 -100.704 	 -2.40851 	 -120.183
| 21> H 	 -101.517 	 -3.92253 	 -120.119
| 22> H 	 -101.16 	 -3.079 	 -118.666
| 23> S 	 -92.8739 	 -5.06727 	 -116.411
| 24> C 	 -92.5378 	 -6.57028 	 -115.598
| 25> C 	 -93.4288 	 -7.53853 	 -115.855
| 26> C 	 -94.5663 	 -7.15478 	 -116.617
| 27> C 	 -94.3013 	 -5.89833 	 -117.157
| 28> H 	 -93.1948 	 -8.54652 	 -115.496
| 29> C 	 -95.7418 	 -8.09772 	 -116.818
| 30> H 	 -96.6289 	 -7.48476 	 -116.996
| 31> H 	 -95.8522 	 -8.47866 	 -115.796
| 32> C 	 -95.4964 	 -9.15385 	 -117.938
| 33> H 	 -95.381 	 -8.72254 	 -118.933
| 34> H 	 -96.369 	 -9.81275 	 -117.893
| 35> C 	 -94.4291 	 -10.2466 	 -117.724
| 36> H 	 -94.1466 	 -10.6084 	 -118.699
| 37> H 	 -94.6925 	 -11.0483 	 -117.011
| 38> H 	 -93.4728 	 -9.83489 	 -117.37
| 39> H 	 -96.5425 	 -3.97775 	 -121.016
| 40> H 	 -91.7027 	 -6.63714 	 -114.936
| 41> *
| 42>
| 43>                          ****END OF INPUT****

CARTESIAN COORDINATES (ANGSTROEM)
---------------------------------
  S    -94.697600   -4.823340  -119.690000
  C    -96.172200   -4.052510  -120.032000
  C    -96.960500   -3.983490  -118.919000
  C    -96.377700   -4.681780  -117.807000
  C    -95.163200   -5.223230  -118.079000
  H    -96.685500   -4.747640  -116.741000
  C    -98.352900   -3.338360  -118.935000
  H    -98.192300   -2.427320  -119.510000
  H    -98.582400   -3.039410  -117.938000
  C    -99.495700   -4.184710  -119.542000
  H    -99.243400   -4.599730  -120.524000
  H    -99.683400   -4.999060  -118.834000
  C    -100.782000   -3.366590  -119.593000
  H    -100.704000   -2.408510  -120.183000
  H    -101.517000   -3.922530  -120.119000
  H    -101.160000   -3.079000  -118.666000
  S    -92.873900   -5.067270  -116.411000
  C    -92.537800   -6.570280  -115.598000
  C    -93.428800   -7.538530  -115.855000
  C    -94.566300   -7.154780  -116.617000
  C    -94.301300   -5.898330  -117.157000
  H    -93.194800   -8.546520  -115.496000
  C    -95.741800   -8.097720  -116.818000
  H    -96.628900   -7.484760  -116.996000
  H    -95.852200   -8.478660  -115.796000
  C    -95.496400   -9.153850  -117.938000
  H    -95.381000   -8.722540  -118.933000
  H    -96.369000   -9.812750  -117.893000
  C    -94.429100  -10.246600  -117.724000
  H    -94.146600  -10.608400  -118.699000
  H    -94.692500  -11.048300  -117.011000
  H    -93.472800   -9.834890  -117.370000
  H    -96.542500   -3.977750  -121.016000
  H    -91.702700   -6.637140  -114.936000

 Total Charge           Charge          ....    0
 Multiplicity           Mult            ....    1
 Number of Electrons    NEL             ....  134
 Basis Dimension        Dim             ....  322

ORBITAL ENERGIES
----------------

  NO   OCC          E(Eh)            E(eV)
   0   2.0000     -88.963709     -2420.8256
   1   2.0000     -88.958507     -2420.6840
   2   2.0000     -10.323863      -280.9266
   3   2.0000     -10.316299      -280.7208
   4   2.0000     -10.308271      -280.5023
   5   2.0000     -10.301984      -280.3312
   6   2.0000     -10.300749      -280.2976
   7   2.0000     -10.297843      -280.2186
   8   2.0000     -10.297406      -280.2067
   9   2.0000     -10.290848      -280.0282
  10   2.0000     -10.290367      -280.0151
  11   2.0000     -10.289505      -279.9917
  12   2.0000     -10.287274      -279.9309
  13   2.0000     -10.286313      -279.9048
  14   2.0000     -10.278301      -279.6868
  15   2.0000     -10.272708      -279.5346
  16   2.0000      -8.077968      -219.8127
  17   2.0000      -8.074962      -219.7309
  18   2.0000      -6.036424      -164.2594
  19   2.0000      -6.033240      -164.1728
  20   2.0000      -6.032831      -164.1617
  21   2.0000      -6.029116      -164.0606
  22   2.0000      -6.028528      -164.0446
  23   2.0000      -6.025976      -163.9751
  24   2.0000      -1.010894       -27.5078
  25   2.0000      -0.986259       -26.8375
  26   2.0000      -0.910021       -24.7629
  27   2.0000      -0.905720       -24.6459
  28   2.0000      -0.873876       -23.7794
  29   2.0000      -0.850692       -23.1485
  30   2.0000      -0.846649       -23.0385
  31   2.0000      -0.814333       -22.1591
  32   2.0000      -0.788307       -21.4509
  33   2.0000      -0.771205       -20.9856
  34   2.0000      -0.708742       -19.2858
  35   2.0000      -0.703081       -19.1318
  36   2.0000      -0.691530       -18.8175
  37   2.0000      -0.653971       -17.7955
  38   2.0000      -0.646703       -17.5977
  39   2.0000      -0.609855       -16.5950
  40   2.0000      -0.594134       -16.1672
  41   2.0000      -0.573644       -15.6096
  42   2.0000      -0.561836       -15.2883
  43   2.0000      -0.555360       -15.1121
  44   2.0000      -0.536124       -14.5887
  45   2.0000      -0.529299       -14.4030
  46   2.0000      -0.522779       -14.2255
  47   2.0000      -0.515207       -14.0195
  48   2.0000      -0.501675       -13.6513
  49   2.0000      -0.494196       -13.4478
  50   2.0000      -0.483854       -13.1663
  51   2.0000      -0.480082       -13.0637
  52   2.0000      -0.469965       -12.7884
  53   2.0000      -0.465294       -12.6613
  54   2.0000      -0.459659       -12.5080
  55   2.0000      -0.448449       -12.2029
  56   2.0000      -0.445861       -12.1325
  57   2.0000      -0.435127       -11.8404
  58   2.0000      -0.433169       -11.7871
  59   2.0000      -0.428161       -11.6508
  60   2.0000      -0.423456       -11.5228
  61   2.0000      -0.416254       -11.3269
  62   2.0000      -0.407986       -11.1019
  63   2.0000      -0.339827        -9.2472
  64   2.0000      -0.331188        -9.0121
  65   2.0000      -0.324606        -8.8330
  66   2.0000      -0.296406        -8.0656
  67   0.0000       0.045246         1.2312
  68   0.0000       0.057404         1.5621
  69   0.0000       0.112258         3.0547
  70   0.0000       0.129318         3.5189
  71   0.0000       0.130778         3.5587

MULLIKEN ATOMIC CHARGES
-----------------------
   0 S :    0.112497
   1 C :   -0.107394
   2 C :   -0.104366
   3 C :    0.031106
   4 C :   -0.198602
   5 H :    0.025099
   6 C :    0.073921
   7 H :    0.025318
   8 H :    0.009436
   9 C :   -0.057202
  10 H :    0.029721
  11 H :    0.030286
  12 C :   -0.023117
  13 H :    0.025757
  14 H :    0.023583
  15 H :    0.017129
  16 S :    0.107716
  17 C :   -0.082835
  18 C :   -0.034154
  19 C :   -0.048214
  20 C :   -0.180033
  21 H :    0.021045
  22 C :    0.112900
  23 H :    0.023795
  24 H :    0.029953
  25 C :   -0.060486
  26 H :    0.046640
  27 H :    0.033199
  28 C :   -0.064959
  29 H :    0.030188
  30 H :    0.041684
  31 H :    0.021472
  32 H :    0.044356
  33 H :    0.044563
Sum of atomic charges:   -0.0000000

LOEWDIN ATOMIC CHARGES
----------------------
   0 S :    0.431621
   1 C :   -0.211425
   2 C :   -0.062803
   3 C :   -0.072478
   4 C :   -0.207980
   5 H :    0.038781
   6 C :   -0.028849
   7 H :    0.030478
   8 H :    0.024462
   9 C :   -0.033887
  10 H :    0.023897
  11 H :    0.027735
  12 C :   -0.061671
  13 H :    0.029020
  14 H :    0.022094
  15 H :    0.015502
  16 S :    0.374938
  17 C :   -0.178144
  18 C :   -0.078630
  19 C :   -0.045799
  20 C :   -0.187772
  21 H :    0.032307
  22 C :   -0.028280
  23 H :    0.033492
  24 H :    0.036880
  25 C :   -0.036329
  26 H :    0.031527
  27 H :    0.029843
  28 C :   -0.070249
  29 H :    0.028804
  30 H :    0.027385
  31 H :    0.020808
  32 H :    0.022121
  33 H :    0.022602

  Mayer bond orders larger than 0.100000
B(  0-S ,  1-C ) :   1.1542 B(  0-S ,  4-C ) :   1.1623 B(  1-C ,  2-C ) :   1.6072
B(  1-C , 32-H ) :   0.9714 B(  2-C ,  3-C ) :   1.2396 B(  2-C ,  6-C ) :   1.0148
B(  3-C ,  4-C ) :   1.5935 B(  3-C ,  5-H ) :   0.9871 B(  4-C , 20-C ) :   1.0365
B(  6-C ,  7-H ) :   0.9430 B(  6-C ,  8-H ) :   0.9396 B(  6-C ,  9-C ) :   1.0675
B(  9-C , 10-H ) :   0.9585 B(  9-C , 11-H ) :   0.9526 B(  9-C , 12-C ) :   1.0852
B( 12-C , 13-H ) :   0.9736 B( 12-C , 14-H ) :   0.9725 B( 12-C , 15-H ) :   0.9745
B( 16-S , 17-C ) :   1.1297 B( 16-S , 20-C ) :   1.1287 B( 17-C , 18-C ) :   1.6616
B( 17-C , 33-H ) :   0.9672 B( 18-C , 19-C ) :   1.2031 B( 18-C , 21-H ) :   0.9812
B( 19-C , 20-C ) :   1.6218 B( 19-C , 22-C ) :   1.0239 B( 22-C , 23-H ) :   0.9252
B( 22-C , 24-H ) :   0.9349 B( 22-C , 25-C ) :   1.0679 B( 25-C , 26-H ) :   0.9607
B( 25-C , 27-H ) :   0.9570 B( 25-C , 28-C ) :   1.0735 B( 28-C , 29-H ) :   0.9703
B( 28-C , 30-H ) :   0.9792 B( 28-C , 31-H ) :   0.9694

Dispersion correction           -0.014363775
FINAL SINGLE POINT ENERGY     -1339.872357080964

DIPOLE MOMENT
-------------
                                X             Y             Z
Electronic contribution:     22.95861      10.15618       3.35540
Nuclear contribution   :    -23.53682     -10.56592      -3.21446
                        -----------------------------------------
Total Dipole Moment    :     -0.57821      -0.40974       0.14093
                        -----------------------------------------
Magnitude (a.u.)       :      0.72255
Magnitude (Debye)      :      1.83657

Rotational constants in cm-1:     0.020740     0.007669     0.006557
Rotational constants in MHz :   621.764448   229.897590   196.577962

                             ****ORCA TERMINATED NORMALLY****
TOTAL RUN TIME: 0 days 0 hours 0 minutes 20 seconds 402 msec
