                         Program Version 4.2.1 -  RELEASE  -
|  1> ! wB97X-D3 SP def2-SVP
|  2> %pal
|  3> nprocs 24
|  4> end
|  5>
|  6> * xyz 0 1
|  7> S 	 -124.786 	 60.8588 	 -55.9596
|  8> C 	 -124.055 	 62.3937 	 -55.4475
|  9> C 	 -124.929 	 63.1152 	 -54.6162
| 10> C 	 -126.289 	 62.5512 	 -54.7153
| 11> C 	 -126.333 	 61.31 	 -55.3341
| 12> H 	 -127.146 	 62.9202 	 -54.2341
| 13> C 	 -124.538 	 64.4096 	 -53.9308
| 14> H 	 -123.517 	 64.6458 	 -54.0226
| 15> H 	 -124.738 	 64.2611 	 -52.8234
| 16> C 	 -125.442 	 65.6331 	 -54.2292
| 17> H 	 -126.316 	 65.608 	 -53.6197
| 18> H 	 -124.827 	 66.5352 	 -53.9785
| 19> C 	 -125.682 	 65.8406 	 -55.776
| 20> H 	 -126.548 	 65.2311 	 -56.0594
| 21> H 	 -125.926 	 66.8548 	 -55.9609
| 22> H 	 -124.821 	 65.6105 	 -56.4654
| 23> S 	 -127.537 	 58.7518 	 -55.5676
| 24> C 	 -129.132 	 58.6717 	 -56.1972
| 25> C 	 -129.705 	 59.9115 	 -56.4632
| 26> C 	 -128.819 	 60.9934 	 -56.1596
| 27> C 	 -127.516 	 60.5686 	 -55.8012
| 28> H 	 -130.746 	 59.9553 	 -56.7281
| 29> C 	 -129.342 	 62.4495 	 -56.2141
| 30> H 	 -130.123 	 62.4452 	 -57.0607
| 31> H 	 -128.533 	 63.0784 	 -56.5272
| 32> C 	 -130.019 	 62.9703 	 -54.912
| 33> H 	 -129.469 	 62.9852 	 -54.015
| 34> H 	 -130.878 	 62.3745 	 -54.707
| 35> C 	 -130.603 	 64.3787 	 -55.0562
| 36> H 	 -131.404 	 64.4578 	 -55.7913
| 37> H 	 -129.865 	 65.1394 	 -55.3708
| 38> H 	 -131.101 	 64.7458 	 -54.1474
| 39> H 	 -123.036 	 62.403 	 -55.3842
| 40> H 	 -129.79 	 57.837 	 -56.1369
| 41> *
| 42>
| 43>                          ****END OF INPUT****

CARTESIAN COORDINATES (ANGSTROEM)
---------------------------------
  S    -124.786000   60.858800  -55.959600
  C    -124.055000   62.393700  -55.447500
  C    -124.929000   63.115200  -54.616200
  C    -126.289000   62.551200  -54.715300
  C    -126.333000   61.310000  -55.334100
  H    -127.146000   62.920200  -54.234100
  C    -124.538000   64.409600  -53.930800
  H    -123.517000   64.645800  -54.022600
  H    -124.738000   64.261100  -52.823400
  C    -125.442000   65.633100  -54.229200
  H    -126.316000   65.608000  -53.619700
  H    -124.827000   66.535200  -53.978500
  C    -125.682000   65.840600  -55.776000
  H    -126.548000   65.231100  -56.059400
  H    -125.926000   66.854800  -55.960900
  H    -124.821000   65.610500  -56.465400
  S    -127.537000   58.751800  -55.567600
  C    -129.132000   58.671700  -56.197200
  C    -129.705000   59.911500  -56.463200
  C    -128.819000   60.993400  -56.159600
  C    -127.516000   60.568600  -55.801200
  H    -130.746000   59.955300  -56.728100
  C    -129.342000   62.449500  -56.214100
  H    -130.123000   62.445200  -57.060700
  H    -128.533000   63.078400  -56.527200
  C    -130.019000   62.970300  -54.912000
  H    -129.469000   62.985200  -54.015000
  H    -130.878000   62.374500  -54.707000
  C    -130.603000   64.378700  -55.056200
  H    -131.404000   64.457800  -55.791300
  H    -129.865000   65.139400  -55.370800
  H    -131.101000   64.745800  -54.147400
  H    -123.036000   62.403000  -55.384200
  H    -129.790000   57.837000  -56.136900

 Total Charge           Charge          ....    0
 Multiplicity           Mult            ....    1
 Number of Electrons    NEL             ....  134
 Basis Dimension        Dim             ....  322

ORBITAL ENERGIES
----------------

  NO   OCC          E(Eh)            E(eV)
   0   2.0000     -88.968960     -2420.9685
   1   2.0000     -88.960448     -2420.7369
   2   2.0000     -10.336337      -281.2660
   3   2.0000     -10.332188      -281.1531
   4   2.0000     -10.315945      -280.7111
   5   2.0000     -10.313097      -280.6336
   6   2.0000     -10.312770      -280.6247
   7   2.0000     -10.309690      -280.5409
   8   2.0000     -10.304074      -280.3881
   9   2.0000     -10.297129      -280.1991
  10   2.0000     -10.296294      -280.1764
  11   2.0000     -10.294293      -280.1220
  12   2.0000     -10.293308      -280.0952
  13   2.0000     -10.287442      -279.9355
  14   2.0000     -10.281291      -279.7682
  15   2.0000     -10.277660      -279.6694
  16   2.0000      -8.082977      -219.9490
  17   2.0000      -8.075658      -219.7498
  18   2.0000      -6.041457      -164.3964
  19   2.0000      -6.037691      -164.2939
  20   2.0000      -6.034250      -164.2003
  21   2.0000      -6.033697      -164.1852
  22   2.0000      -6.030040      -164.0857
  23   2.0000      -6.026367      -163.9858
  24   2.0000      -0.999736       -27.2042
  25   2.0000      -0.978030       -26.6136
  26   2.0000      -0.908996       -24.7350
  27   2.0000      -0.907322       -24.6895
  28   2.0000      -0.864770       -23.5316
  29   2.0000      -0.853507       -23.2251
  30   2.0000      -0.837805       -22.7978
  31   2.0000      -0.813566       -22.1382
  32   2.0000      -0.785445       -21.3730
  33   2.0000      -0.772728       -21.0270
  34   2.0000      -0.711187       -19.3524
  35   2.0000      -0.702323       -19.1112
  36   2.0000      -0.693057       -18.8590
  37   2.0000      -0.658002       -17.9051
  38   2.0000      -0.646169       -17.5832
  39   2.0000      -0.622606       -16.9420
  40   2.0000      -0.592355       -16.1188
  41   2.0000      -0.569693       -15.5021
  42   2.0000      -0.562217       -15.2987
  43   2.0000      -0.553700       -15.0669
  44   2.0000      -0.537647       -14.6301
  45   2.0000      -0.524659       -14.2767
  46   2.0000      -0.515868       -14.0375
  47   2.0000      -0.509402       -13.8615
  48   2.0000      -0.505148       -13.7458
  49   2.0000      -0.502985       -13.6869
  50   2.0000      -0.488667       -13.2973
  51   2.0000      -0.479411       -13.0454
  52   2.0000      -0.467472       -12.7206
  53   2.0000      -0.463553       -12.6139
  54   2.0000      -0.459218       -12.4960
  55   2.0000      -0.450601       -12.2615
  56   2.0000      -0.441079       -12.0024
  57   2.0000      -0.440385       -11.9835
  58   2.0000      -0.432840       -11.7782
  59   2.0000      -0.428218       -11.6524
  60   2.0000      -0.424411       -11.5488
  61   2.0000      -0.418852       -11.3976
  62   2.0000      -0.409039       -11.1305
  63   2.0000      -0.348496        -9.4830
  64   2.0000      -0.333376        -9.0716
  65   2.0000      -0.326215        -8.8768
  66   2.0000      -0.289189        -7.8692
  67   0.0000       0.023596         0.6421
  68   0.0000       0.065432         1.7805
  69   0.0000       0.103680         2.8213
  70   0.0000       0.112610         3.0643
  71   0.0000       0.119027         3.2389

MULLIKEN ATOMIC CHARGES
-----------------------
   0 S :    0.083300
   1 C :   -0.087652
   2 C :   -0.098978
   3 C :    0.010154
   4 C :   -0.097530
   5 H :   -0.018449
   6 C :    0.073506
   7 H :    0.015656
   8 H :    0.043200
   9 C :   -0.102216
  10 H :    0.034884
  11 H :    0.038776
  12 C :   -0.055857
  13 H :    0.035807
  14 H :    0.023433
  15 H :    0.046032
  16 S :    0.100948
  17 C :   -0.064648
  18 C :   -0.047116
  19 C :   -0.040724
  20 C :   -0.133009
  21 H :    0.017324
  22 C :    0.029915
  23 H :    0.038605
  24 H :    0.034178
  25 C :   -0.017031
  26 H :    0.027681
  27 H :    0.015874
  28 C :   -0.076365
  29 H :    0.022157
  30 H :    0.031337
  31 H :    0.034254
  32 H :    0.032318
  33 H :    0.050236
Sum of atomic charges:    0.0000000

LOEWDIN ATOMIC CHARGES
----------------------
   0 S :    0.399233
   1 C :   -0.183398
   2 C :   -0.043017
   3 C :   -0.064852
   4 C :   -0.192134
   5 H :    0.019157
   6 C :   -0.034285
   7 H :    0.023191
   8 H :    0.043431
   9 C :   -0.038829
  10 H :    0.019039
  11 H :    0.032698
  12 C :   -0.070560
  13 H :    0.023963
  14 H :    0.017190
  15 H :    0.035702
  16 S :    0.391626
  17 C :   -0.187328
  18 C :   -0.075381
  19 C :   -0.046046
  20 C :   -0.182685
  21 H :    0.030896
  22 C :   -0.027790
  23 H :    0.041459
  24 H :    0.026200
  25 C :   -0.035241
  26 H :    0.017793
  27 H :    0.024469
  28 C :   -0.070314
  29 H :    0.021310
  30 H :    0.024202
  31 H :    0.028420
  32 H :    0.005378
  33 H :    0.026503

  Mayer bond orders larger than 0.100000
B(  0-S ,  1-C ) :   1.1337 B(  0-S ,  4-C ) :   1.1605 B(  1-C ,  2-C ) :   1.6127
B(  1-C , 32-H ) :   0.9680 B(  2-C ,  3-C ) :   1.2071 B(  2-C ,  6-C ) :   1.0413
B(  3-C ,  4-C ) :   1.5890 B(  3-C ,  5-H ) :   1.0003 B(  4-C , 20-C ) :   1.0191
B(  6-C ,  7-H ) :   0.9479 B(  6-C ,  8-H ) :   0.9349 B(  6-C ,  9-C ) :   1.0678
B(  9-C , 10-H ) :   0.9578 B(  9-C , 11-H ) :   0.9621 B(  9-C , 12-C ) :   1.0667
B( 12-C , 13-H ) :   0.9735 B( 12-C , 14-H ) :   0.9778 B( 12-C , 15-H ) :   0.9762
B( 16-S , 17-C ) :   1.1711 B( 16-S , 20-C ) :   1.1184 B( 17-C , 18-C ) :   1.6084
B( 17-C , 33-H ) :   0.9619 B( 18-C , 19-C ) :   1.2503 B( 18-C , 21-H ) :   0.9900
B( 19-C , 20-C ) :   1.5960 B( 19-C , 22-C ) :   1.0335 B( 22-C , 23-H ) :   0.9406
B( 22-C , 24-H ) :   0.9381 B( 22-C , 25-C ) :   1.0569 B( 25-C , 26-H ) :   0.9557
B( 25-C , 27-H ) :   0.9479 B( 25-C , 28-C ) :   1.0837 B( 28-C , 29-H ) :   0.9754
B( 28-C , 30-H ) :   0.9749 B( 28-C , 31-H ) :   0.9738

Dispersion correction           -0.015179976
FINAL SINGLE POINT ENERGY     -1339.864038284022

DIPOLE MOMENT
-------------
                                X             Y             Z
Electronic contribution:     10.75020     -30.19659      -4.23515
Nuclear contribution   :    -11.23452      30.83524       4.61201
                        -----------------------------------------
Total Dipole Moment    :     -0.48432       0.63865       0.37687
                        -----------------------------------------
Magnitude (a.u.)       :      0.88570
Magnitude (Debye)      :      2.25128

Rotational constants in cm-1:     0.016979     0.010519     0.006949
Rotational constants in MHz :   509.023576   315.346406   208.314290

                             ****ORCA TERMINATED NORMALLY****
TOTAL RUN TIME: 0 days 0 hours 0 minutes 22 seconds 420 msec
