                         Program Version 4.2.1 -  RELEASE  -
|  1> ! wB97X-D3 SP def2-SVP
|  2> %pal
|  3> nprocs 24
|  4> end
|  5>
|  6> * xyz 0 1
|  7> S 	 -49.7343 	 19.0415 	 27.1201
|  8> C 	 -49.5297 	 20.8263 	 27.3967
|  9> C 	 -50.1962 	 21.5055 	 26.4265
| 10> C 	 -50.8261 	 20.6888 	 25.4712
| 11> C 	 -50.8376 	 19.3638 	 25.7607
| 12> H 	 -51.4011 	 21.084 	 24.625
| 13> C 	 -50.2804 	 22.9982 	 26.298
| 14> H 	 -51.0008 	 23.125 	 25.4153
| 15> H 	 -49.3728 	 23.4355 	 25.9739
| 16> C 	 -50.7475 	 23.7131 	 27.5886
| 17> H 	 -49.9853 	 23.5417 	 28.2998
| 18> H 	 -50.9114 	 24.8001 	 27.4206
| 19> C 	 -51.9887 	 23.112 	 28.1988
| 20> H 	 -52.0519 	 23.3789 	 29.2559
| 21> H 	 -52.9436 	 23.375 	 27.6819
| 22> H 	 -51.8853 	 22.0255 	 28.1234
| 23> S 	 -52.1469 	 17.0354 	 25.7143
| 24> C 	 -52.1782 	 16.0539 	 24.1568
| 25> C 	 -51.6711 	 16.748 	 23.1186
| 26> C 	 -51.2087 	 18.0529 	 23.4817
| 27> C 	 -51.3022 	 18.3123 	 24.8777
| 28> H 	 -51.6766 	 16.3445 	 22.0861
| 29> C 	 -50.4596 	 18.9374 	 22.4611
| 30> H 	 -50.1321 	 18.2542 	 21.6676
| 31> H 	 -49.561 	 19.3962 	 22.9278
| 32> C 	 -51.4653 	 19.8831 	 21.7132
| 33> H 	 -51.9029 	 20.6098 	 22.3537
| 34> H 	 -52.2627 	 19.171 	 21.5042
| 35> C 	 -50.9186 	 20.3331 	 20.3569
| 36> H 	 -49.8822 	 20.7028 	 20.5335
| 37> H 	 -51.5513 	 21.0859 	 19.9076
| 38> H 	 -50.8213 	 19.454 	 19.6795
| 39> H 	 -49.1541 	 21.2318 	 28.3427
| 40> H 	 -52.6073 	 15.0869 	 24.0369
| 41> *
| 42>
| 43>                          ****END OF INPUT****

CARTESIAN COORDINATES (ANGSTROEM)
---------------------------------
  S    -49.734300   19.041500   27.120100
  C    -49.529700   20.826300   27.396700
  C    -50.196200   21.505500   26.426500
  C    -50.826100   20.688800   25.471200
  C    -50.837600   19.363800   25.760700
  H    -51.401100   21.084000   24.625000
  C    -50.280400   22.998200   26.298000
  H    -51.000800   23.125000   25.415300
  H    -49.372800   23.435500   25.973900
  C    -50.747500   23.713100   27.588600
  H    -49.985300   23.541700   28.299800
  H    -50.911400   24.800100   27.420600
  C    -51.988700   23.112000   28.198800
  H    -52.051900   23.378900   29.255900
  H    -52.943600   23.375000   27.681900
  H    -51.885300   22.025500   28.123400
  S    -52.146900   17.035400   25.714300
  C    -52.178200   16.053900   24.156800
  C    -51.671100   16.748000   23.118600
  C    -51.208700   18.052900   23.481700
  C    -51.302200   18.312300   24.877700
  H    -51.676600   16.344500   22.086100
  C    -50.459600   18.937400   22.461100
  H    -50.132100   18.254200   21.667600
  H    -49.561000   19.396200   22.927800
  C    -51.465300   19.883100   21.713200
  H    -51.902900   20.609800   22.353700
  H    -52.262700   19.171000   21.504200
  C    -50.918600   20.333100   20.356900
  H    -49.882200   20.702800   20.533500
  H    -51.551300   21.085900   19.907600
  H    -50.821300   19.454000   19.679500
  H    -49.154100   21.231800   28.342700
  H    -52.607300   15.086900   24.036900

 Total Charge           Charge          ....    0
 Multiplicity           Mult            ....    1
 Number of Electrons    NEL             ....  134
 Basis Dimension        Dim             ....  322

ORBITAL ENERGIES
----------------

  NO   OCC          E(Eh)            E(eV)
   0   2.0000     -88.965870     -2420.8844
   1   2.0000     -88.965321     -2420.8695
   2   2.0000     -10.330674      -281.1119
   3   2.0000     -10.330186      -281.0986
   4   2.0000     -10.320153      -280.8256
   5   2.0000     -10.319007      -280.7945
   6   2.0000     -10.310273      -280.5568
   7   2.0000     -10.298757      -280.2434
   8   2.0000     -10.297892      -280.2199
   9   2.0000     -10.297524      -280.2099
  10   2.0000     -10.292705      -280.0787
  11   2.0000     -10.291393      -280.0430
  12   2.0000     -10.286049      -279.8976
  13   2.0000     -10.285399      -279.8799
  14   2.0000     -10.284917      -279.8668
  15   2.0000     -10.272281      -279.5230
  16   2.0000      -8.079497      -219.8543
  17   2.0000      -8.078786      -219.8349
  18   2.0000      -6.038166      -164.3069
  19   2.0000      -6.037506      -164.2889
  20   2.0000      -6.034193      -164.1988
  21   2.0000      -6.033564      -164.1816
  22   2.0000      -6.030111      -164.0877
  23   2.0000      -6.029260      -164.0645
  24   2.0000      -1.004614       -27.3369
  25   2.0000      -0.980303       -26.6754
  26   2.0000      -0.915912       -24.9232
  27   2.0000      -0.906188       -24.6586
  28   2.0000      -0.872998       -23.7555
  29   2.0000      -0.847636       -23.0653
  30   2.0000      -0.843769       -22.9601
  31   2.0000      -0.817402       -22.2426
  32   2.0000      -0.780585       -21.2408
  33   2.0000      -0.766320       -20.8526
  34   2.0000      -0.710882       -19.3441
  35   2.0000      -0.699831       -19.0434
  36   2.0000      -0.693924       -18.8826
  37   2.0000      -0.663902       -18.0657
  38   2.0000      -0.637513       -17.3476
  39   2.0000      -0.614821       -16.7301
  40   2.0000      -0.591425       -16.0935
  41   2.0000      -0.576691       -15.6926
  42   2.0000      -0.567700       -15.4479
  43   2.0000      -0.555810       -15.1243
  44   2.0000      -0.542487       -14.7618
  45   2.0000      -0.523617       -14.2483
  46   2.0000      -0.519158       -14.1270
  47   2.0000      -0.509728       -13.8704
  48   2.0000      -0.507410       -13.8073
  49   2.0000      -0.495343       -13.4790
  50   2.0000      -0.489449       -13.3186
  51   2.0000      -0.476228       -12.9588
  52   2.0000      -0.467652       -12.7255
  53   2.0000      -0.462806       -12.5936
  54   2.0000      -0.458779       -12.4840
  55   2.0000      -0.453216       -12.3326
  56   2.0000      -0.438346       -11.9280
  57   2.0000      -0.435757       -11.8575
  58   2.0000      -0.433287       -11.7903
  59   2.0000      -0.423090       -11.5129
  60   2.0000      -0.420472       -11.4416
  61   2.0000      -0.415606       -11.3092
  62   2.0000      -0.412578       -11.2268
  63   2.0000      -0.350751        -9.5444
  64   2.0000      -0.334216        -9.0945
  65   2.0000      -0.330732        -8.9997
  66   2.0000      -0.293735        -7.9929
  67   0.0000       0.021023         0.5721
  68   0.0000       0.067561         1.8384
  69   0.0000       0.098565         2.6821
  70   0.0000       0.111153         3.0246
  71   0.0000       0.127563         3.4712

MULLIKEN ATOMIC CHARGES
-----------------------
   0 S :    0.089751
   1 C :   -0.142336
   2 C :   -0.102499
   3 C :   -0.005087
   4 C :   -0.084005
   5 H :    0.014162
   6 C :    0.094920
   7 H :    0.019629
   8 H :    0.034491
   9 C :   -0.077794
  10 H :    0.018504
  11 H :    0.042008
  12 C :   -0.069511
  13 H :    0.033534
  14 H :    0.035783
  15 H :    0.045186
  16 S :    0.088280
  17 C :   -0.075127
  18 C :   -0.031288
  19 C :   -0.044220
  20 C :   -0.180235
  21 H :    0.036950
  22 C :    0.035920
  23 H :    0.010757
  24 H :    0.053638
  25 C :   -0.067326
  26 H :    0.027123
  27 H :    0.020227
  28 C :   -0.045843
  29 H :    0.037457
  30 H :    0.042296
  31 H :    0.036525
  32 H :    0.062830
  33 H :    0.045301
Sum of atomic charges:   -0.0000000

LOEWDIN ATOMIC CHARGES
----------------------
   0 S :    0.366673
   1 C :   -0.176558
   2 C :   -0.069565
   3 C :   -0.067526
   4 C :   -0.184748
   5 H :    0.034058
   6 C :   -0.028020
   7 H :    0.032797
   8 H :    0.027861
   9 C :   -0.039694
  10 H :    0.017293
  11 H :    0.030549
  12 C :   -0.070934
  13 H :    0.026074
  14 H :    0.027065
  15 H :    0.027847
  16 S :    0.373500
  17 C :   -0.152171
  18 C :   -0.072363
  19 C :   -0.053246
  20 C :   -0.196305
  21 H :    0.042022
  22 C :   -0.030282
  23 H :    0.028455
  24 H :    0.033710
  25 C :   -0.040308
  26 H :    0.013881
  27 H :    0.025445
  28 C :   -0.066205
  29 H :    0.028602
  30 H :    0.026048
  31 H :    0.029367
  32 H :    0.031837
  33 H :    0.024841

  Mayer bond orders larger than 0.100000
B(  0-S ,  1-C ) :   1.1105 B(  0-S ,  4-C ) :   1.1366 B(  1-C ,  2-C ) :   1.6155
B(  1-C , 32-H ) :   0.9666 B(  2-C ,  3-C ) :   1.2375 B(  2-C ,  6-C ) :   1.0003
B(  3-C ,  4-C ) :   1.5878 B(  3-C ,  5-H ) :   0.9941 B(  4-C , 20-C ) :   1.0399
B(  6-C ,  7-H ) :   0.9446 B(  6-C ,  8-H ) :   0.9370 B(  6-C ,  9-C ) :   1.0672
B(  9-C , 10-H ) :   0.9544 B(  9-C , 11-H ) :   0.9566 B(  9-C , 12-C ) :   1.0841
B( 12-C , 13-H ) :   0.9741 B( 12-C , 14-H ) :   0.9757 B( 12-C , 15-H ) :   0.9689
B( 16-S , 17-C ) :   1.1190 B( 16-S , 20-C ) :   1.1379 B( 17-C , 18-C ) :   1.6550
B( 17-C , 33-H ) :   0.9684 B( 18-C , 19-C ) :   1.2334 B( 18-C , 21-H ) :   0.9754
B( 19-C , 20-C ) :   1.5849 B( 19-C , 22-C ) :   1.0383 B( 22-C , 23-H ) :   0.9393
B( 22-C , 24-H ) :   0.9412 B( 22-C , 25-C ) :   1.0399 B( 25-C , 26-H ) :   0.9589
B( 25-C , 27-H ) :   0.9549 B( 25-C , 28-C ) :   1.0750 B( 28-C , 29-H ) :   0.9752
B( 28-C , 30-H ) :   0.9743 B( 28-C , 31-H ) :   0.9740

Dispersion correction           -0.014550357
FINAL SINGLE POINT ENERGY     -1339.873807061493

DIPOLE MOMENT
-------------
                                X             Y             Z
Electronic contribution:      1.52229     -21.75961      12.31559
Nuclear contribution   :     -1.53499      22.15612     -12.86244
                        -----------------------------------------
Total Dipole Moment    :     -0.01270       0.39651      -0.54684
                        -----------------------------------------
Magnitude (a.u.)       :      0.67559
Magnitude (Debye)      :      1.71721

Rotational constants in cm-1:     0.018248     0.008926     0.006770
Rotational constants in MHz :   547.066912   267.604108   202.945828

                             ****ORCA TERMINATED NORMALLY****
TOTAL RUN TIME: 0 days 0 hours 0 minutes 21 seconds 941 msec
