                         Program Version 4.2.1 -  RELEASE  -
|  1> ! wB97X-D3 SP def2-SVP
|  2> %pal
|  3> nprocs 24
|  4> end
|  5>
|  6> * xyz 0 1
|  7> S 	 -55.5768 	 13.096 	 24.6916
|  8> C 	 -54.3648 	 11.839 	 24.1405
|  9> C 	 -53.4613 	 12.4109 	 23.3199
| 10> C 	 -53.7161 	 13.8023 	 23.072
| 11> C 	 -54.7649 	 14.37 	 23.7956
| 12> H 	 -53.0598 	 14.3609 	 22.3805
| 13> C 	 -52.4516 	 11.5185 	 22.5613
| 14> H 	 -51.6349 	 11.1943 	 23.134
| 15> H 	 -52.0686 	 12.1169 	 21.7847
| 16> C 	 -52.9984 	 10.3089 	 21.7817
| 17> H 	 -52.1294 	 9.70394 	 21.4032
| 18> H 	 -53.4346 	 9.59603 	 22.5663
| 19> C 	 -54.0135 	 10.6516 	 20.6452
| 20> H 	 -54.4052 	 9.79584 	 20.0257
| 21> H 	 -54.8135 	 11.1029 	 21.2115
| 22> H 	 -53.4982 	 11.3641 	 19.9968
| 23> S 	 -57.0318 	 15.8131 	 23.9183
| 24> C 	 -57.0489 	 17.5053 	 23.4482
| 25> C 	 -55.8219 	 17.9411 	 23.0086
| 26> C 	 -54.802 	 16.9933 	 23.2066
| 27> C 	 -55.3145 	 15.7542 	 23.6419
| 28> H 	 -55.701 	 18.9338 	 22.6391
| 29> C 	 -53.3195 	 17.2593 	 23.1089
| 30> H 	 -52.8636 	 16.559 	 23.7928
| 31> H 	 -53.089 	 18.2262 	 23.702
| 32> C 	 -52.571 	 17.1612 	 21.7341
| 33> H 	 -52.703 	 18.0833 	 21.2208
| 34> H 	 -53.036 	 16.3281 	 21.186
| 35> C 	 -51.0338 	 16.8702 	 21.7045
| 36> H 	 -50.9465 	 15.9693 	 22.3068
| 37> H 	 -50.4772 	 17.7105 	 22.1841
| 38> H 	 -50.6115 	 16.7013 	 20.6981
| 39> H 	 -54.4146 	 10.8133 	 24.4962
| 40> H 	 -57.8943 	 18.157 	 23.3567
| 41> *
| 42>
| 43>                          ****END OF INPUT****

CARTESIAN COORDINATES (ANGSTROEM)
---------------------------------
  S    -55.576800   13.096000   24.691600
  C    -54.364800   11.839000   24.140500
  C    -53.461300   12.410900   23.319900
  C    -53.716100   13.802300   23.072000
  C    -54.764900   14.370000   23.795600
  H    -53.059800   14.360900   22.380500
  C    -52.451600   11.518500   22.561300
  H    -51.634900   11.194300   23.134000
  H    -52.068600   12.116900   21.784700
  C    -52.998400   10.308900   21.781700
  H    -52.129400    9.703940   21.403200
  H    -53.434600    9.596030   22.566300
  C    -54.013500   10.651600   20.645200
  H    -54.405200    9.795840   20.025700
  H    -54.813500   11.102900   21.211500
  H    -53.498200   11.364100   19.996800
  S    -57.031800   15.813100   23.918300
  C    -57.048900   17.505300   23.448200
  C    -55.821900   17.941100   23.008600
  C    -54.802000   16.993300   23.206600
  C    -55.314500   15.754200   23.641900
  H    -55.701000   18.933800   22.639100
  C    -53.319500   17.259300   23.108900
  H    -52.863600   16.559000   23.792800
  H    -53.089000   18.226200   23.702000
  C    -52.571000   17.161200   21.734100
  H    -52.703000   18.083300   21.220800
  H    -53.036000   16.328100   21.186000
  C    -51.033800   16.870200   21.704500
  H    -50.946500   15.969300   22.306800
  H    -50.477200   17.710500   22.184100
  H    -50.611500   16.701300   20.698100
  H    -54.414600   10.813300   24.496200
  H    -57.894300   18.157000   23.356700

 Total Charge           Charge          ....    0
 Multiplicity           Mult            ....    1
 Number of Electrons    NEL             ....  134
 Basis Dimension        Dim             ....  322

ORBITAL ENERGIES
----------------

  NO   OCC          E(Eh)            E(eV)
   0   2.0000     -88.969900     -2420.9941
   1   2.0000     -88.966680     -2420.9064
   2   2.0000     -10.340985      -281.3925
   3   2.0000     -10.334510      -281.2163
   4   2.0000     -10.319837      -280.8171
   5   2.0000     -10.316004      -280.7127
   6   2.0000     -10.307622      -280.4847
   7   2.0000     -10.303868      -280.3825
   8   2.0000     -10.300925      -280.3024
   9   2.0000     -10.299073      -280.2520
  10   2.0000     -10.297369      -280.2057
  11   2.0000     -10.291878      -280.0562
  12   2.0000     -10.290872      -280.0289
  13   2.0000     -10.289373      -279.9881
  14   2.0000     -10.287027      -279.9242
  15   2.0000     -10.281841      -279.7831
  16   2.0000      -8.084637      -219.9942
  17   2.0000      -8.080323      -219.8768
  18   2.0000      -6.043077      -164.4405
  19   2.0000      -6.039203      -164.3351
  20   2.0000      -6.039124      -164.3329
  21   2.0000      -6.035404      -164.2317
  22   2.0000      -6.035002      -164.2208
  23   2.0000      -6.030809      -164.1067
  24   2.0000      -1.006764       -27.3954
  25   2.0000      -0.983148       -26.7528
  26   2.0000      -0.911289       -24.7974
  27   2.0000      -0.902876       -24.5685
  28   2.0000      -0.868457       -23.6319
  29   2.0000      -0.852954       -23.2100
  30   2.0000      -0.838066       -22.8049
  31   2.0000      -0.816468       -22.2172
  32   2.0000      -0.785797       -21.3826
  33   2.0000      -0.773348       -21.0439
  34   2.0000      -0.707180       -19.2433
  35   2.0000      -0.699357       -19.0305
  36   2.0000      -0.692478       -18.8433
  37   2.0000      -0.664946       -18.0941
  38   2.0000      -0.635667       -17.2974
  39   2.0000      -0.617837       -16.8122
  40   2.0000      -0.593958       -16.1624
  41   2.0000      -0.573931       -15.6175
  42   2.0000      -0.566322       -15.4104
  43   2.0000      -0.557149       -15.1608
  44   2.0000      -0.539242       -14.6735
  45   2.0000      -0.523086       -14.2339
  46   2.0000      -0.514668       -14.0048
  47   2.0000      -0.512157       -13.9365
  48   2.0000      -0.504259       -13.7216
  49   2.0000      -0.497377       -13.5343
  50   2.0000      -0.489915       -13.3313
  51   2.0000      -0.476450       -12.9649
  52   2.0000      -0.471459       -12.8291
  53   2.0000      -0.468841       -12.7578
  54   2.0000      -0.458801       -12.4846
  55   2.0000      -0.455253       -12.3881
  56   2.0000      -0.446339       -12.1455
  57   2.0000      -0.443203       -12.0602
  58   2.0000      -0.427825       -11.6417
  59   2.0000      -0.420892       -11.4531
  60   2.0000      -0.419062       -11.4032
  61   2.0000      -0.413479       -11.2513
  62   2.0000      -0.405435       -11.0325
  63   2.0000      -0.359607        -9.7854
  64   2.0000      -0.337239        -9.1767
  65   2.0000      -0.332243        -9.0408
  66   2.0000      -0.287172        -7.8143
  67   0.0000       0.017235         0.4690
  68   0.0000       0.079536         2.1643
  69   0.0000       0.091018         2.4767
  70   0.0000       0.121644         3.3101
  71   0.0000       0.128137         3.4868

MULLIKEN ATOMIC CHARGES
-----------------------
   0 S :    0.075256
   1 C :   -0.147909
   2 C :   -0.074614
   3 C :    0.002414
   4 C :   -0.084967
   5 H :    0.001086
   6 C :    0.120189
   7 H :    0.032522
   8 H :   -0.003973
   9 C :   -0.141519
  10 H :    0.034179
  11 H :    0.026596
  12 C :   -0.048166
  13 H :    0.052945
  14 H :    0.048922
  15 H :    0.031091
  16 S :    0.104429
  17 C :   -0.074744
  18 C :   -0.025414
  19 C :   -0.037472
  20 C :   -0.136903
  21 H :    0.009869
  22 C :    0.018641
  23 H :    0.016313
  24 H :    0.041380
  25 C :   -0.066251
  26 H :    0.025930
  27 H :    0.040300
  28 C :   -0.070941
  29 H :    0.029585
  30 H :    0.041814
  31 H :    0.049976
  32 H :    0.061823
  33 H :    0.047611
Sum of atomic charges:    0.0000000

LOEWDIN ATOMIC CHARGES
----------------------
   0 S :    0.360261
   1 C :   -0.163243
   2 C :   -0.066807
   3 C :   -0.073284
   4 C :   -0.184502
   5 H :    0.030515
   6 C :   -0.023157
   7 H :    0.029226
   8 H :    0.020762
   9 C :   -0.047250
  10 H :    0.025281
  11 H :    0.019913
  12 C :   -0.067835
  13 H :    0.035013
  14 H :    0.029264
  15 H :    0.024205
  16 S :    0.413455
  17 C :   -0.180705
  18 C :   -0.063047
  19 C :   -0.060510
  20 C :   -0.187549
  21 H :    0.030783
  22 C :   -0.044036
  23 H :    0.027858
  24 H :    0.041580
  25 C :   -0.041196
  26 H :    0.017692
  27 H :    0.024690
  28 C :   -0.067355
  29 H :    0.020923
  30 H :    0.028737
  31 H :    0.031941
  32 H :    0.031491
  33 H :    0.026883

  Mayer bond orders larger than 0.100000
B(  0-S ,  1-C ) :   1.1066 B(  0-S ,  4-C ) :   1.1461 B(  1-C ,  2-C ) :   1.6245
B(  1-C , 32-H ) :   0.9735 B(  2-C ,  3-C ) :   1.2525 B(  2-C ,  6-C ) :   1.0029
B(  3-C ,  4-C ) :   1.5613 B(  3-C ,  5-H ) :   0.9825 B(  4-C , 20-C ) :   1.0448
B(  6-C ,  7-H ) :   0.9350 B(  6-C ,  8-H ) :   0.9392 B(  6-C ,  9-C ) :   1.0794
B(  9-C , 10-H ) :   0.9549 B(  9-C , 11-H ) :   0.9541 B(  9-C , 12-C ) :   1.0534
B( 12-C , 13-H ) :   0.9759 B( 12-C , 14-H ) :   0.9764 B( 12-C , 15-H ) :   0.9763
B( 16-S , 17-C ) :   1.1516 B( 16-S , 20-C ) :   1.1518 B( 17-C , 18-C ) :   1.6098
B( 17-C , 33-H ) :   0.9679 B( 18-C , 19-C ) :   1.2593 B( 18-C , 21-H ) :   0.9950
B( 19-C , 20-C ) :   1.5687 B( 19-C , 22-C ) :   1.0420 B( 22-C , 23-H ) :   0.9373
B( 22-C , 24-H ) :   0.9359 B( 22-C , 25-C ) :   1.0366 B( 25-C , 26-H ) :   0.9562
B( 25-C , 27-H ) :   0.9574 B( 25-C , 28-C ) :   1.0783 B( 28-C , 29-H ) :   0.9755
B( 28-C , 30-H ) :   0.9763 B( 28-C , 31-H ) :   0.9751

Dispersion correction           -0.014503299
FINAL SINGLE POINT ENERGY     -1339.869881833796

DIPOLE MOMENT
-------------
                                X             Y             Z
Electronic contribution:    -22.55287       4.73504      16.82314
Nuclear contribution   :     23.05373      -4.64845     -17.26633
                        -----------------------------------------
Total Dipole Moment    :      0.50086       0.08659      -0.44318
                        -----------------------------------------
Magnitude (a.u.)       :      0.67437
Magnitude (Debye)      :      1.71411

Rotational constants in cm-1:     0.017256     0.009384     0.006845
Rotational constants in MHz :   517.320475   281.338198   205.213030

                             ****ORCA TERMINATED NORMALLY****
TOTAL RUN TIME: 0 days 0 hours 0 minutes 21 seconds 888 msec
