                         Program Version 4.2.1 -  RELEASE  -
|  1> ! wB97X-D3 SP def2-SVP
|  2> %pal
|  3> nprocs 24
|  4> end
|  5>
|  6> * xyz 0 1
|  7> S 	 -45.1391 	 27.0944 	 30.8476
|  8> C 	 -46.2592 	 28.0987 	 31.704
|  9> C 	 -47.3925 	 27.4361 	 32.042
| 10> C 	 -47.2348 	 26.0422 	 31.919
| 11> C 	 -46.0453 	 25.6356 	 31.321
| 12> H 	 -47.958 	 25.2877 	 32.0735
| 13> C 	 -48.6107 	 28.1669 	 32.5152
| 14> H 	 -49.4992 	 27.9541 	 31.7886
| 15> H 	 -48.5449 	 29.2602 	 32.5873
| 16> C 	 -48.9568 	 27.751 	 33.8891
| 17> H 	 -50.0016 	 28.1246 	 34.0493
| 18> H 	 -49.0548 	 26.6314 	 33.9065
| 19> C 	 -47.9237 	 28.1192 	 34.995
| 20> H 	 -48.3952 	 27.761 	 35.9444
| 21> H 	 -46.9742 	 27.6669 	 34.8358
| 22> H 	 -47.8523 	 29.2185 	 35.0661
| 23> S 	 -45.0468 	 23.9319 	 29.4829
| 24> C 	 -45.0563 	 22.2015 	 29.7445
| 25> C 	 -45.5633 	 21.8798 	 30.978
| 26> C 	 -45.9684 	 23.0678 	 31.7113
| 27> C 	 -45.6016 	 24.2705 	 31.0925
| 28> H 	 -45.6816 	 20.846 	 31.2792
| 29> C 	 -46.5681 	 22.9232 	 33.1261
| 30> H 	 -46.6344 	 23.9631 	 33.3823
| 31> H 	 -45.8308 	 22.4473 	 33.7796
| 32> C 	 -47.8976 	 22.2033 	 33.2115
| 33> H 	 -47.688 	 21.2447 	 32.7784
| 34> H 	 -48.6952 	 22.7102 	 32.6127
| 35> C 	 -48.3186 	 22.064 	 34.6504
| 36> H 	 -47.7076 	 21.2258 	 35.0696
| 37> H 	 -49.372 	 21.8584 	 34.7358
| 38> H 	 -48.1083 	 23.023 	 35.231
| 39> H 	 -46.1215 	 29.2221 	 31.8774
| 40> H 	 -44.8235 	 21.4634 	 29.0153
| 41> *
| 42>
| 43>                          ****END OF INPUT****

CARTESIAN COORDINATES (ANGSTROEM)
---------------------------------
  S    -45.139100   27.094400   30.847600
  C    -46.259200   28.098700   31.704000
  C    -47.392500   27.436100   32.042000
  C    -47.234800   26.042200   31.919000
  C    -46.045300   25.635600   31.321000
  H    -47.958000   25.287700   32.073500
  C    -48.610700   28.166900   32.515200
  H    -49.499200   27.954100   31.788600
  H    -48.544900   29.260200   32.587300
  C    -48.956800   27.751000   33.889100
  H    -50.001600   28.124600   34.049300
  H    -49.054800   26.631400   33.906500
  C    -47.923700   28.119200   34.995000
  H    -48.395200   27.761000   35.944400
  H    -46.974200   27.666900   34.835800
  H    -47.852300   29.218500   35.066100
  S    -45.046800   23.931900   29.482900
  C    -45.056300   22.201500   29.744500
  C    -45.563300   21.879800   30.978000
  C    -45.968400   23.067800   31.711300
  C    -45.601600   24.270500   31.092500
  H    -45.681600   20.846000   31.279200
  C    -46.568100   22.923200   33.126100
  H    -46.634400   23.963100   33.382300
  H    -45.830800   22.447300   33.779600
  C    -47.897600   22.203300   33.211500
  H    -47.688000   21.244700   32.778400
  H    -48.695200   22.710200   32.612700
  C    -48.318600   22.064000   34.650400
  H    -47.707600   21.225800   35.069600
  H    -49.372000   21.858400   34.735800
  H    -48.108300   23.023000   35.231000
  H    -46.121500   29.222100   31.877400
  H    -44.823500   21.463400   29.015300

 Total Charge           Charge          ....    0
 Multiplicity           Mult            ....    1
 Number of Electrons    NEL             ....  134
 Basis Dimension        Dim             ....  322

ORBITAL ENERGIES
----------------

  NO   OCC          E(Eh)            E(eV)
   0   2.0000     -88.965797     -2420.8824
   1   2.0000     -88.964490     -2420.8468
   2   2.0000     -10.334212      -281.2082
   3   2.0000     -10.328912      -281.0640
   4   2.0000     -10.316873      -280.7364
   5   2.0000     -10.314988      -280.6851
   6   2.0000     -10.307915      -280.4926
   7   2.0000     -10.296294      -280.1764
   8   2.0000     -10.296112      -280.1715
   9   2.0000     -10.295529      -280.1556
  10   2.0000     -10.292799      -280.0813
  11   2.0000     -10.287865      -279.9470
  12   2.0000     -10.287243      -279.9301
  13   2.0000     -10.286232      -279.9026
  14   2.0000     -10.284041      -279.8430
  15   2.0000     -10.281160      -279.7646
  16   2.0000      -8.080497      -219.8815
  17   2.0000      -8.079746      -219.8611
  18   2.0000      -6.039054      -164.3310
  19   2.0000      -6.038299      -164.3105
  20   2.0000      -6.035087      -164.2231
  21   2.0000      -6.034184      -164.1985
  22   2.0000      -6.031130      -164.1154
  23   2.0000      -6.030409      -164.0958
  24   2.0000      -1.009840       -27.4791
  25   2.0000      -0.988025       -26.8855
  26   2.0000      -0.919211       -25.0130
  27   2.0000      -0.915100       -24.9011
  28   2.0000      -0.873766       -23.7764
  29   2.0000      -0.851908       -23.1816
  30   2.0000      -0.842394       -22.9227
  31   2.0000      -0.817105       -22.2345
  32   2.0000      -0.783848       -21.3296
  33   2.0000      -0.770804       -20.9747
  34   2.0000      -0.709113       -19.2959
  35   2.0000      -0.696993       -18.9661
  36   2.0000      -0.682897       -18.5826
  37   2.0000      -0.660148       -17.9635
  38   2.0000      -0.639948       -17.4139
  39   2.0000      -0.627332       -17.0706
  40   2.0000      -0.594354       -16.1732
  41   2.0000      -0.576616       -15.6905
  42   2.0000      -0.572856       -15.5882
  43   2.0000      -0.550412       -14.9775
  44   2.0000      -0.538784       -14.6611
  45   2.0000      -0.525187       -14.2911
  46   2.0000      -0.519294       -14.1307
  47   2.0000      -0.512202       -13.9377
  48   2.0000      -0.508820       -13.8457
  49   2.0000      -0.495924       -13.4948
  50   2.0000      -0.494934       -13.4678
  51   2.0000      -0.484615       -13.1871
  52   2.0000      -0.472144       -12.8477
  53   2.0000      -0.467304       -12.7160
  54   2.0000      -0.464121       -12.6294
  55   2.0000      -0.448932       -12.2160
  56   2.0000      -0.438948       -11.9444
  57   2.0000      -0.436899       -11.8886
  58   2.0000      -0.434569       -11.8252
  59   2.0000      -0.419965       -11.4278
  60   2.0000      -0.416815       -11.3421
  61   2.0000      -0.414584       -11.2814
  62   2.0000      -0.409618       -11.1463
  63   2.0000      -0.359082        -9.7711
  64   2.0000      -0.332535        -9.0487
  65   2.0000      -0.327670        -8.9164
  66   2.0000      -0.286526        -7.7968
  67   0.0000       0.023807         0.6478
  68   0.0000       0.072128         1.9627
  69   0.0000       0.103670         2.8210
  70   0.0000       0.121711         3.3119
  71   0.0000       0.128085         3.4854

MULLIKEN ATOMIC CHARGES
-----------------------
   0 S :    0.111525
   1 C :   -0.160542
   2 C :   -0.056196
   3 C :    0.020352
   4 C :   -0.153119
   5 H :   -0.002453
   6 C :    0.054260
   7 H :    0.053714
   8 H :    0.019438
   9 C :   -0.124426
  10 H :    0.029185
  11 H :    0.026158
  12 C :   -0.038783
  13 H :    0.041005
  14 H :    0.049581
  15 H :    0.029249
  16 S :    0.088678
  17 C :   -0.073652
  18 C :   -0.021100
  19 C :   -0.097244
  20 C :   -0.084522
  21 H :    0.023923
  22 C :    0.043211
  23 H :    0.009711
  24 H :    0.036527
  25 C :   -0.072462
  26 H :    0.019544
  27 H :    0.037043
  28 C :   -0.049421
  29 H :    0.039312
  30 H :    0.035480
  31 H :    0.041342
  32 H :    0.076008
  33 H :    0.048672
Sum of atomic charges:   -0.0000000

LOEWDIN ATOMIC CHARGES
----------------------
   0 S :    0.394266
   1 C :   -0.207096
   2 C :   -0.071851
   3 C :   -0.061543
   4 C :   -0.180292
   5 H :    0.024529
   6 C :   -0.040464
   7 H :    0.045511
   8 H :    0.028806
   9 C :   -0.053226
  10 H :    0.025487
  11 H :    0.020970
  12 C :   -0.061184
  13 H :    0.034356
  14 H :    0.024008
  15 H :    0.024235
  16 S :    0.410419
  17 C :   -0.175605
  18 C :   -0.071784
  19 C :   -0.051768
  20 C :   -0.205855
  21 H :    0.032659
  22 C :   -0.033102
  23 H :    0.022153
  24 H :    0.033326
  25 C :   -0.044594
  26 H :    0.019302
  27 H :    0.026717
  28 C :   -0.067366
  29 H :    0.031774
  30 H :    0.023151
  31 H :    0.032970
  32 H :    0.045535
  33 H :    0.025555

  Mayer bond orders larger than 0.100000
B(  0-S ,  1-C ) :   1.1410 B(  0-S ,  4-C ) :   1.1383 B(  1-C ,  2-C ) :   1.6097
B(  1-C , 32-H ) :   0.9564 B(  2-C ,  3-C ) :   1.2371 B(  2-C ,  6-C ) :   1.0263
B(  3-C ,  4-C ) :   1.5773 B(  3-C ,  5-H ) :   0.9909 B(  4-C , 20-C ) :   1.0401
B(  6-C ,  7-H ) :   0.9328 B(  6-C ,  8-H ) :   0.9447 B(  6-C ,  9-C ) :   1.0746
B(  9-C , 10-H ) :   0.9546 B(  9-C , 11-H ) :   0.9554 B(  9-C , 12-C ) :   1.0628
B( 12-C , 13-H ) :   0.9737 B( 12-C , 14-H ) :   0.9736 B( 12-C , 15-H ) :   0.9755
B( 16-S , 17-C ) :   1.1608 B( 16-S , 20-C ) :   1.1304 B( 17-C , 18-C ) :   1.6137
B( 17-C , 33-H ) :   0.9692 B( 18-C , 19-C ) :   1.2280 B( 18-C , 21-H ) :   0.9910
B( 19-C , 20-C ) :   1.6008 B( 19-C , 22-C ) :   1.0279 B( 22-C , 23-H ) :   0.9337
B( 22-C , 24-H ) :   0.9427 B( 22-C , 25-C ) :   1.0621 B( 25-C , 26-H ) :   0.9558
B( 25-C , 27-H ) :   0.9507 B( 25-C , 28-C ) :   1.0842 B( 28-C , 29-H ) :   0.9733
B( 28-C , 30-H ) :   0.9746 B( 28-C , 31-H ) :   0.9727

Dispersion correction           -0.014531404
FINAL SINGLE POINT ENERGY     -1339.874960105414

DIPOLE MOMENT
-------------
                                X             Y             Z
Electronic contribution:     19.47768       1.96299     -24.58467
Nuclear contribution   :    -20.08115      -2.20752      24.95910
                        -----------------------------------------
Total Dipole Moment    :     -0.60347      -0.24453       0.37442
                        -----------------------------------------
Magnitude (a.u.)       :      0.75111
Magnitude (Debye)      :      1.90917

Rotational constants in cm-1:     0.016841     0.010328     0.006820
Rotational constants in MHz :   504.881920   309.631098   204.459235

                             ****ORCA TERMINATED NORMALLY****
TOTAL RUN TIME: 0 days 0 hours 0 minutes 22 seconds 514 msec
