                         Program Version 4.2.1 -  RELEASE  -
|  1> ! wB97X-D3 SP def2-SVP
|  2> %pal
|  3> nprocs 24
|  4> end
|  5>
|  6> * xyz 0 1
|  7> S 	 -98.2669 	 6.13685 	 0.573794
|  8> C 	 -99.7298 	 6.03728 	 -0.370642
|  9> C 	 -100.806 	 5.9565 	 0.481994
| 10> C 	 -100.42 	 6.04833 	 1.87366
| 11> C 	 -99.0998 	 6.25788 	 2.08206
| 12> H 	 -101.114 	 5.98925 	 2.74112
| 13> C 	 -102.261 	 5.89278 	 -0.0419997
| 14> H 	 -102.916 	 6.25789 	 0.752554
| 15> H 	 -102.544 	 4.82779 	 -0.198411
| 16> C 	 -102.558 	 6.6338 	 -1.30506
| 17> H 	 -102.112 	 7.66862 	 -1.24685
| 18> H 	 -102.041 	 6.11821 	 -2.13224
| 19> C 	 -104.043 	 6.53413 	 -1.56508
| 20> H 	 -104.636 	 7.14978 	 -0.882947
| 21> H 	 -104.235 	 6.89866 	 -2.57557
| 22> H 	 -104.42 	 5.49701 	 -1.4878
| 23> S 	 -98.5971 	 7.76147 	 4.36344
| 24> C 	 -97.3822 	 7.22702 	 5.49265
| 25> C 	 -96.8575 	 6.03105 	 5.10338
| 26> C 	 -97.3379 	 5.57342 	 3.83801
| 27> C 	 -98.3413 	 6.3815 	 3.31629
| 28> H 	 -96.1361 	 5.44185 	 5.61129
| 29> C 	 -96.861 	 4.22285 	 3.28208
| 30> H 	 -96.0564 	 3.76172 	 3.82031
| 31> H 	 -96.2843 	 4.64979 	 2.43672
| 32> C 	 -97.8184 	 3.2053 	 2.88638
| 33> H 	 -97.4204 	 2.56118 	 2.11698
| 34> H 	 -98.6066 	 3.60909 	 2.30659
| 35> C 	 -98.4408 	 2.48393 	 4.11286
| 36> H 	 -97.6109 	 1.97284 	 4.60752
| 37> H 	 -99.163 	 1.70506 	 3.84687
| 38> H 	 -98.9387 	 3.17144 	 4.87651
| 39> H 	 -99.723 	 6.00516 	 -1.47811
| 40> H 	 -97.1658 	 7.67111 	 6.42346
| 41> *
| 42>
| 43>                          ****END OF INPUT****

CARTESIAN COORDINATES (ANGSTROEM)
---------------------------------
  S    -98.266900    6.136850    0.573794
  C    -99.729800    6.037280   -0.370642
  C    -100.806000    5.956500    0.481994
  C    -100.420000    6.048330    1.873660
  C    -99.099800    6.257880    2.082060
  H    -101.114000    5.989250    2.741120
  C    -102.261000    5.892780   -0.042000
  H    -102.916000    6.257890    0.752554
  H    -102.544000    4.827790   -0.198411
  C    -102.558000    6.633800   -1.305060
  H    -102.112000    7.668620   -1.246850
  H    -102.041000    6.118210   -2.132240
  C    -104.043000    6.534130   -1.565080
  H    -104.636000    7.149780   -0.882947
  H    -104.235000    6.898660   -2.575570
  H    -104.420000    5.497010   -1.487800
  S    -98.597100    7.761470    4.363440
  C    -97.382200    7.227020    5.492650
  C    -96.857500    6.031050    5.103380
  C    -97.337900    5.573420    3.838010
  C    -98.341300    6.381500    3.316290
  H    -96.136100    5.441850    5.611290
  C    -96.861000    4.222850    3.282080
  H    -96.056400    3.761720    3.820310
  H    -96.284300    4.649790    2.436720
  C    -97.818400    3.205300    2.886380
  H    -97.420400    2.561180    2.116980
  H    -98.606600    3.609090    2.306590
  C    -98.440800    2.483930    4.112860
  H    -97.610900    1.972840    4.607520
  H    -99.163000    1.705060    3.846870
  H    -98.938700    3.171440    4.876510
  H    -99.723000    6.005160   -1.478110
  H    -97.165800    7.671110    6.423460

 Total Charge           Charge          ....    0
 Multiplicity           Mult            ....    1
 Number of Electrons    NEL             ....  134
 Basis Dimension        Dim             ....  322

ORBITAL ENERGIES
----------------

  NO   OCC          E(Eh)            E(eV)
   0   2.0000     -88.965921     -2420.8858
   1   2.0000     -88.960643     -2420.7422
   2   2.0000     -10.325367      -280.9675
   3   2.0000     -10.324788      -280.9518
   4   2.0000     -10.315753      -280.7059
   5   2.0000     -10.313028      -280.6318
   6   2.0000     -10.303475      -280.3718
   7   2.0000     -10.302395      -280.3424
   8   2.0000     -10.296356      -280.1781
   9   2.0000     -10.291976      -280.0589
  10   2.0000     -10.288996      -279.9778
  11   2.0000     -10.287639      -279.9409
  12   2.0000     -10.284508      -279.8557
  13   2.0000     -10.281066      -279.7620
  14   2.0000     -10.278964      -279.7048
  15   2.0000     -10.272071      -279.5173
  16   2.0000      -8.080606      -219.8845
  17   2.0000      -8.075984      -219.7587
  18   2.0000      -6.039134      -164.3332
  19   2.0000      -6.035074      -164.2227
  20   2.0000      -6.034539      -164.2081
  21   2.0000      -6.031400      -164.1227
  22   2.0000      -6.030329      -164.0936
  23   2.0000      -6.026723      -163.9955
  24   2.0000      -1.010231       -27.4898
  25   2.0000      -0.987515       -26.8716
  26   2.0000      -0.918824       -25.0025
  27   2.0000      -0.913855       -24.8672
  28   2.0000      -0.872515       -23.7423
  29   2.0000      -0.847653       -23.0658
  30   2.0000      -0.842022       -22.9126
  31   2.0000      -0.816674       -22.2228
  32   2.0000      -0.781383       -21.2625
  33   2.0000      -0.770574       -20.9684
  34   2.0000      -0.710229       -19.3263
  35   2.0000      -0.702328       -19.1113
  36   2.0000      -0.688179       -18.7263
  37   2.0000      -0.666341       -18.1321
  38   2.0000      -0.641923       -17.4676
  39   2.0000      -0.611196       -16.6315
  40   2.0000      -0.598996       -16.2995
  41   2.0000      -0.573952       -15.6180
  42   2.0000      -0.570434       -15.5223
  43   2.0000      -0.558399       -15.1948
  44   2.0000      -0.543010       -14.7761
  45   2.0000      -0.520743       -14.1701
  46   2.0000      -0.517044       -14.0695
  47   2.0000      -0.511132       -13.9086
  48   2.0000      -0.509802       -13.8724
  49   2.0000      -0.490591       -13.3496
  50   2.0000      -0.486481       -13.2378
  51   2.0000      -0.477618       -12.9967
  52   2.0000      -0.473413       -12.8822
  53   2.0000      -0.469222       -12.7682
  54   2.0000      -0.462442       -12.5837
  55   2.0000      -0.449491       -12.2313
  56   2.0000      -0.444615       -12.0986
  57   2.0000      -0.436316       -11.8727
  58   2.0000      -0.432488       -11.7686
  59   2.0000      -0.421426       -11.4676
  60   2.0000      -0.415983       -11.3195
  61   2.0000      -0.410874       -11.1804
  62   2.0000      -0.405320       -11.0293
  63   2.0000      -0.344079        -9.3629
  64   2.0000      -0.330858        -9.0031
  65   2.0000      -0.325419        -8.8551
  66   2.0000      -0.299796        -8.1579
  67   0.0000       0.037792         1.0284
  68   0.0000       0.069767         1.8984
  69   0.0000       0.114677         3.1205
  70   0.0000       0.126684         3.4472
  71   0.0000       0.134900         3.6708

MULLIKEN ATOMIC CHARGES
-----------------------
   0 S :    0.100131
   1 C :   -0.148590
   2 C :   -0.073166
   3 C :    0.027577
   4 C :   -0.167176
   5 H :    0.023180
   6 C :    0.045731
   7 H :    0.019675
   8 H :    0.039811
   9 C :   -0.105989
  10 H :    0.048282
  11 H :    0.028486
  12 C :   -0.032458
  13 H :    0.033787
  14 H :    0.030619
  15 H :    0.032004
  16 S :    0.118140
  17 C :   -0.062195
  18 C :   -0.014606
  19 C :   -0.053103
  20 C :   -0.175950
  21 H :    0.000858
  22 C :    0.071342
  23 H :    0.002197
  24 H :    0.031914
  25 C :    0.004210
  26 H :    0.016717
  27 H :    0.014665
  28 C :   -0.075143
  29 H :    0.020344
  30 H :    0.036224
  31 H :    0.052613
  32 H :    0.066338
  33 H :    0.043532
Sum of atomic charges:    0.0000000

LOEWDIN ATOMIC CHARGES
----------------------
   0 S :    0.414620
   1 C :   -0.202269
   2 C :   -0.066369
   3 C :   -0.069793
   4 C :   -0.200751
   5 H :    0.038209
   6 C :   -0.036579
   7 H :    0.026926
   8 H :    0.035497
   9 C :   -0.050484
  10 H :    0.033087
  11 H :    0.023072
  12 C :   -0.062217
  13 H :    0.025425
  14 H :    0.026465
  15 H :    0.029512
  16 S :    0.415316
  17 C :   -0.179281
  18 C :   -0.067259
  19 C :   -0.049095
  20 C :   -0.211423
  21 H :    0.025511
  22 C :   -0.039036
  23 H :    0.025397
  24 H :    0.040250
  25 C :   -0.048150
  26 H :    0.029548
  27 H :    0.020517
  28 C :   -0.068123
  29 H :    0.020260
  30 H :    0.025275
  31 H :    0.036183
  32 H :    0.036221
  33 H :    0.023536

  Mayer bond orders larger than 0.100000
B(  0-S ,  1-C ) :   1.1361 B(  0-S ,  4-C ) :   1.1536 B(  1-C ,  2-C ) :   1.6088
B(  1-C , 32-H ) :   0.9694 B(  2-C ,  3-C ) :   1.2362 B(  2-C ,  6-C ) :   1.0032
B(  3-C ,  4-C ) :   1.6031 B(  3-C ,  5-H ) :   0.9919 B(  4-C , 20-C ) :   1.0077
B(  6-C ,  7-H ) :   0.9520 B(  6-C ,  8-H ) :   0.9277 B(  6-C ,  9-C ) :   1.0834
B(  9-C , 10-H ) :   0.9569 B(  9-C , 11-H ) :   0.9407 B(  9-C , 12-C ) :   1.0871
B( 12-C , 13-H ) :   0.9746 B( 12-C , 14-H ) :   0.9715 B( 12-C , 15-H ) :   0.9699
B( 16-S , 17-C ) :   1.1564 B( 16-S , 20-C ) :   1.1485 B( 17-C , 18-C ) :   1.5828
B( 17-C , 33-H ) :   0.9728 B( 18-C , 19-C ) :   1.2692 B( 18-C , 21-H ) :   0.9952
B( 19-C , 20-C ) :   1.5818 B( 19-C , 22-C ) :   1.0188 B( 22-C , 23-H ) :   0.9382
B( 22-C , 24-H ) :   0.9119 B( 22-C , 25-C ) :   1.0924 B( 25-C , 26-H ) :   0.9391
B( 25-C , 27-H ) :   0.9434 B( 25-C , 28-C ) :   1.0622 B( 28-C , 29-H ) :   0.9766
B( 28-C , 30-H ) :   0.9755 B( 28-C , 31-H ) :   0.9765

Dispersion correction           -0.014864740
FINAL SINGLE POINT ENERGY     -1339.887645674803

DIPOLE MOMENT
-------------
                                X             Y             Z
Electronic contribution:     14.06247      14.13841       8.51532
Nuclear contribution   :    -14.31775     -14.52927      -8.62903
                        -----------------------------------------
Total Dipole Moment    :     -0.25528      -0.39086      -0.11372
                        -----------------------------------------
Magnitude (a.u.)       :      0.48049
Magnitude (Debye)      :      1.22130

Rotational constants in cm-1:     0.023384     0.007511     0.006675
Rotational constants in MHz :   701.041921   225.172151   200.112870

                             ****ORCA TERMINATED NORMALLY****
TOTAL RUN TIME: 0 days 0 hours 0 minutes 20 seconds 749 msec
