                         Program Version 4.2.1 -  RELEASE  -
|  1> ! wB97X-D3 SP def2-SVP
|  2> %pal
|  3> nprocs 24
|  4> end
|  5>
|  6> * xyz 0 1
|  7> S 	 -100.374 	 37.5121 	 -89.061
|  8> C 	 -101.326 	 36.4417 	 -88.0669
|  9> C 	 -102.166 	 37.1505 	 -87.2381
| 10> C 	 -101.99 	 38.5508 	 -87.3706
| 11> C 	 -101.106 	 38.8987 	 -88.3378
| 12> H 	 -102.594 	 39.3525 	 -86.922
| 13> C 	 -103.209 	 36.6224 	 -86.2757
| 14> H 	 -103.423 	 35.5793 	 -86.4859
| 15> H 	 -104.088 	 37.1634 	 -86.4589
| 16> C 	 -102.712 	 36.8774 	 -84.8058
| 17> H 	 -102.713 	 37.9613 	 -84.6309
| 18> H 	 -103.599 	 36.4734 	 -84.131
| 19> C 	 -101.418 	 36.2153 	 -84.4708
| 20> H 	 -101.633 	 35.1646 	 -84.378
| 21> H 	 -100.685 	 36.4086 	 -85.1912
| 22> H 	 -101.033 	 36.3922 	 -83.4702
| 23> S 	 -99.0548 	 40.4124 	 -89.5421
| 24> C 	 -98.9835 	 42.1582 	 -89.343
| 25> C 	 -100.259 	 42.5821 	 -88.9489
| 26> C 	 -101.236 	 41.5608 	 -88.5853
| 27> C 	 -100.68 	 40.2486 	 -88.7296
| 28> H 	 -100.476 	 43.6276 	 -88.9381
| 29> C 	 -102.721 	 41.8129 	 -88.1347
| 30> H 	 -102.897 	 42.8672 	 -88.1771
| 31> H 	 -103.011 	 41.5422 	 -87.1321
| 32> C 	 -103.756 	 41.2403 	 -89.1373
| 33> H 	 -103.822 	 40.1293 	 -89.0285
| 34> H 	 -103.443 	 41.2541 	 -90.1924
| 35> C 	 -105.163 	 41.849 	 -89.0251
| 36> H 	 -105.87 	 41.2482 	 -89.644
| 37> H 	 -105.119 	 42.9084 	 -89.3966
| 38> H 	 -105.503 	 41.7681 	 -87.9765
| 39> H 	 -101.41 	 35.3416 	 -88.225
| 40> H 	 -98.3152 	 42.8289 	 -89.7849
| 41> *
| 42>
| 43>                          ****END OF INPUT****

CARTESIAN COORDINATES (ANGSTROEM)
---------------------------------
  S    -100.374000   37.512100  -89.061000
  C    -101.326000   36.441700  -88.066900
  C    -102.166000   37.150500  -87.238100
  C    -101.990000   38.550800  -87.370600
  C    -101.106000   38.898700  -88.337800
  H    -102.594000   39.352500  -86.922000
  C    -103.209000   36.622400  -86.275700
  H    -103.423000   35.579300  -86.485900
  H    -104.088000   37.163400  -86.458900
  C    -102.712000   36.877400  -84.805800
  H    -102.713000   37.961300  -84.630900
  H    -103.599000   36.473400  -84.131000
  C    -101.418000   36.215300  -84.470800
  H    -101.633000   35.164600  -84.378000
  H    -100.685000   36.408600  -85.191200
  H    -101.033000   36.392200  -83.470200
  S    -99.054800   40.412400  -89.542100
  C    -98.983500   42.158200  -89.343000
  C    -100.259000   42.582100  -88.948900
  C    -101.236000   41.560800  -88.585300
  C    -100.680000   40.248600  -88.729600
  H    -100.476000   43.627600  -88.938100
  C    -102.721000   41.812900  -88.134700
  H    -102.897000   42.867200  -88.177100
  H    -103.011000   41.542200  -87.132100
  C    -103.756000   41.240300  -89.137300
  H    -103.822000   40.129300  -89.028500
  H    -103.443000   41.254100  -90.192400
  C    -105.163000   41.849000  -89.025100
  H    -105.870000   41.248200  -89.644000
  H    -105.119000   42.908400  -89.396600
  H    -105.503000   41.768100  -87.976500
  H    -101.410000   35.341600  -88.225000
  H    -98.315200   42.828900  -89.784900

 Total Charge           Charge          ....    0
 Multiplicity           Mult            ....    1
 Number of Electrons    NEL             ....  134
 Basis Dimension        Dim             ....  322

ORBITAL ENERGIES
----------------

  NO   OCC          E(Eh)            E(eV)
   0   2.0000     -88.966536     -2420.9025
   1   2.0000     -88.965490     -2420.8741
   2   2.0000     -10.341602      -281.4093
   3   2.0000     -10.330289      -281.1015
   4   2.0000     -10.319672      -280.8126
   5   2.0000     -10.318853      -280.7903
   6   2.0000     -10.316545      -280.7275
   7   2.0000     -10.300936      -280.3027
   8   2.0000     -10.300830      -280.2998
   9   2.0000     -10.300572      -280.2928
  10   2.0000     -10.296323      -280.1772
  11   2.0000     -10.291878      -280.0562
  12   2.0000     -10.290953      -280.0311
  13   2.0000     -10.287892      -279.9478
  14   2.0000     -10.287495      -279.9370
  15   2.0000     -10.265970      -279.3512
  16   2.0000      -8.081985      -219.9220
  17   2.0000      -8.078900      -219.8380
  18   2.0000      -6.040577      -164.3725
  19   2.0000      -6.037648      -164.2927
  20   2.0000      -6.036431      -164.2596
  21   2.0000      -6.033597      -164.1825
  22   2.0000      -6.032578      -164.1548
  23   2.0000      -6.029470      -164.0702
  24   2.0000      -1.009930       -27.4816
  25   2.0000      -0.976585       -26.5742
  26   2.0000      -0.914658       -24.8891
  27   2.0000      -0.904634       -24.6164
  28   2.0000      -0.867933       -23.6177
  29   2.0000      -0.852518       -23.1982
  30   2.0000      -0.840286       -22.8653
  31   2.0000      -0.815457       -22.1897
  32   2.0000      -0.786001       -21.3882
  33   2.0000      -0.775491       -21.1022
  34   2.0000      -0.708090       -19.2681
  35   2.0000      -0.694853       -18.9079
  36   2.0000      -0.689722       -18.7683
  37   2.0000      -0.661216       -17.9926
  38   2.0000      -0.641046       -17.4437
  39   2.0000      -0.624446       -16.9921
  40   2.0000      -0.596007       -16.2182
  41   2.0000      -0.568435       -15.4679
  42   2.0000      -0.561659       -15.2835
  43   2.0000      -0.551197       -14.9988
  44   2.0000      -0.544069       -14.8049
  45   2.0000      -0.522858       -14.2277
  46   2.0000      -0.517236       -14.0747
  47   2.0000      -0.510629       -13.8949
  48   2.0000      -0.506648       -13.7866
  49   2.0000      -0.496192       -13.5021
  50   2.0000      -0.493678       -13.4337
  51   2.0000      -0.489741       -13.3265
  52   2.0000      -0.471913       -12.8414
  53   2.0000      -0.462456       -12.5841
  54   2.0000      -0.458818       -12.4851
  55   2.0000      -0.448942       -12.2163
  56   2.0000      -0.446152       -12.1404
  57   2.0000      -0.440668       -11.9912
  58   2.0000      -0.436274       -11.8716
  59   2.0000      -0.420876       -11.4526
  60   2.0000      -0.414007       -11.2657
  61   2.0000      -0.411765       -11.2047
  62   2.0000      -0.407597       -11.0913
  63   2.0000      -0.361276        -9.8308
  64   2.0000      -0.335479        -9.1288
  65   2.0000      -0.325676        -8.8621
  66   2.0000      -0.284211        -7.7338
  67   0.0000       0.014123         0.3843
  68   0.0000       0.078641         2.1399
  69   0.0000       0.095877         2.6089
  70   0.0000       0.120061         3.2670
  71   0.0000       0.133914         3.6440

MULLIKEN ATOMIC CHARGES
-----------------------
   0 S :    0.103849
   1 C :   -0.128749
   2 C :   -0.121201
   3 C :   -0.009928
   4 C :   -0.102143
   5 H :    0.009250
   6 C :    0.125540
   7 H :    0.015408
   8 H :    0.017040
   9 C :   -0.135476
  10 H :    0.034598
  11 H :    0.039264
  12 C :    0.001935
  13 H :    0.015092
  14 H :    0.043820
  15 H :    0.027814
  16 S :    0.074404
  17 C :   -0.053441
  18 C :   -0.045253
  19 C :   -0.040821
  20 C :   -0.128942
  21 H :    0.012200
  22 C :    0.082223
  23 H :    0.002765
  24 H :    0.039858
  25 C :   -0.113657
  26 H :    0.030302
  27 H :    0.034851
  28 C :   -0.071792
  29 H :    0.043625
  30 H :    0.049711
  31 H :    0.034279
  32 H :    0.063856
  33 H :    0.049719
Sum of atomic charges:    0.0000000

LOEWDIN ATOMIC CHARGES
----------------------
   0 S :    0.412284
   1 C :   -0.208770
   2 C :   -0.062562
   3 C :   -0.069648
   4 C :   -0.191783
   5 H :    0.034879
   6 C :   -0.021465
   7 H :    0.026432
   8 H :    0.025560
   9 C :   -0.041508
  10 H :    0.019588
  11 H :    0.031673
  12 C :   -0.064437
  13 H :    0.026995
  14 H :    0.021384
  15 H :    0.029763
  16 S :    0.369330
  17 C :   -0.181694
  18 C :   -0.064899
  19 C :   -0.053012
  20 C :   -0.163743
  21 H :    0.024698
  22 C :   -0.029301
  23 H :    0.026344
  24 H :    0.026977
  25 C :   -0.054385
  26 H :    0.023441
  27 H :    0.027744
  28 C :   -0.070567
  29 H :    0.032592
  30 H :    0.030474
  31 H :    0.024685
  32 H :    0.038764
  33 H :    0.024167

  Mayer bond orders larger than 0.100000
B(  0-S ,  1-C ) :   1.1297 B(  0-S ,  4-C ) :   1.1497 B(  1-C ,  2-C ) :   1.6202
B(  1-C , 32-H ) :   0.9610 B(  2-C ,  3-C ) :   1.2271 B(  2-C ,  6-C ) :   1.0253
B(  3-C ,  4-C ) :   1.5880 B(  3-C ,  5-H ) :   0.9845 B(  4-C , 20-C ) :   1.0714
B(  6-C ,  7-H ) :   0.9424 B(  6-C ,  8-H ) :   0.9353 B(  6-C ,  9-C ) :   1.0602
B(  9-C , 10-H ) :   0.9584 B(  9-C , 11-H ) :   0.9574 B(  9-C , 12-C ) :   1.0723
B( 12-C , 13-H ) :   0.9689 B( 12-C , 14-H ) :   0.9735 B( 12-C , 15-H ) :   0.9682
B( 16-S , 17-C ) :   1.1394 B( 16-S , 20-C ) :   1.1347 B( 17-C , 18-C ) :   1.6059
B( 17-C , 20-C ) :   0.1077 B( 17-C , 33-H ) :   0.9700 B( 18-C , 19-C ) :   1.2642
B( 18-C , 21-H ) :   0.9850 B( 19-C , 20-C ) :   1.5524 B( 19-C , 22-C ) :   1.0314
B( 22-C , 23-H ) :   0.9339 B( 22-C , 24-H ) :   0.9363 B( 22-C , 25-C ) :   1.0465
B( 25-C , 26-H ) :   0.9510 B( 25-C , 27-H ) :   0.9560 B( 25-C , 28-C ) :   1.0861
B( 28-C , 29-H ) :   0.9731 B( 28-C , 30-H ) :   0.9746 B( 28-C , 31-H ) :   0.9742

Dispersion correction           -0.014613360
FINAL SINGLE POINT ENERGY     -1339.870811258409

DIPOLE MOMENT
-------------
                                X             Y             Z
Electronic contribution:     22.18603      -0.23089     -14.65159
Nuclear contribution   :    -22.87781       0.38531      14.87816
                        -----------------------------------------
Total Dipole Moment    :     -0.69178       0.15442       0.22657
                        -----------------------------------------
Magnitude (a.u.)       :      0.74413
Magnitude (Debye)      :      1.89144

Rotational constants in cm-1:     0.017356     0.009400     0.007217
Rotational constants in MHz :   520.319942   281.818900   216.371410

                             ****ORCA TERMINATED NORMALLY****
TOTAL RUN TIME: 0 days 0 hours 0 minutes 20 seconds 830 msec
