                         Program Version 4.2.1 -  RELEASE  -
|  1> ! wB97X-D3 SP def2-SVP
|  2> %pal
|  3> nprocs 24
|  4> end
|  5>
|  6> * xyz 0 1
|  7> S 	 -102.516 	 62.2041 	 -104.659
|  8> C 	 -101.365 	 61.0765 	 -104.22
|  9> C 	 -101.731 	 59.823 	 -104.664
| 10> C 	 -102.884 	 59.8025 	 -105.514
| 11> C 	 -103.524 	 61.0284 	 -105.555
| 12> H 	 -103.319 	 58.9121 	 -106.074
| 13> C 	 -101.137 	 58.4713 	 -104.203
| 14> H 	 -101.929 	 57.8501 	 -103.905
| 15> H 	 -100.684 	 58.5768 	 -103.23
| 16> C 	 -100.175 	 57.7931 	 -105.149
| 17> H 	 -99.3327 	 58.384 	 -105.409
| 18> H 	 -99.6548 	 56.8679 	 -104.792
| 19> C 	 -100.885 	 57.2767 	 -106.417
| 20> H 	 -101.268 	 58.0989 	 -107.017
| 21> H 	 -100.22 	 56.6668 	 -107.096
| 22> H 	 -101.713 	 56.6305 	 -106.277
| 23> S 	 -104.773 	 61.5835 	 -108.071
| 24> C 	 -106.536 	 61.8164 	 -107.989
| 25> C 	 -107.102 	 61.3736 	 -106.805
| 26> C 	 -106.056 	 61.2019 	 -105.814
| 27> C 	 -104.774 	 61.3775 	 -106.289
| 28> H 	 -108.162 	 61.398 	 -106.725
| 29> C 	 -106.441 	 61.0242 	 -104.349
| 30> H 	 -106.847 	 62.0977 	 -104.125
| 31> H 	 -105.609 	 60.7684 	 -103.808
| 32> C 	 -107.446 	 59.9882 	 -104.083
| 33> H 	 -107.108 	 59.1023 	 -104.448
| 34> H 	 -108.363 	 60.0763 	 -104.714
| 35> C 	 -107.974 	 59.9832 	 -102.68
| 36> H 	 -108.027 	 61.0223 	 -102.258
| 37> H 	 -107.311 	 59.3219 	 -101.981
| 38> H 	 -108.987 	 59.6044 	 -102.711
| 39> H 	 -100.599 	 61.1476 	 -103.511
| 40> H 	 -107.107 	 61.9811 	 -108.85
| 41> *
| 42>
| 43>                          ****END OF INPUT****

CARTESIAN COORDINATES (ANGSTROEM)
---------------------------------
  S    -102.516000   62.204100  -104.659000
  C    -101.365000   61.076500  -104.220000
  C    -101.731000   59.823000  -104.664000
  C    -102.884000   59.802500  -105.514000
  C    -103.524000   61.028400  -105.555000
  H    -103.319000   58.912100  -106.074000
  C    -101.137000   58.471300  -104.203000
  H    -101.929000   57.850100  -103.905000
  H    -100.684000   58.576800  -103.230000
  C    -100.175000   57.793100  -105.149000
  H    -99.332700   58.384000  -105.409000
  H    -99.654800   56.867900  -104.792000
  C    -100.885000   57.276700  -106.417000
  H    -101.268000   58.098900  -107.017000
  H    -100.220000   56.666800  -107.096000
  H    -101.713000   56.630500  -106.277000
  S    -104.773000   61.583500  -108.071000
  C    -106.536000   61.816400  -107.989000
  C    -107.102000   61.373600  -106.805000
  C    -106.056000   61.201900  -105.814000
  C    -104.774000   61.377500  -106.289000
  H    -108.162000   61.398000  -106.725000
  C    -106.441000   61.024200  -104.349000
  H    -106.847000   62.097700  -104.125000
  H    -105.609000   60.768400  -103.808000
  C    -107.446000   59.988200  -104.083000
  H    -107.108000   59.102300  -104.448000
  H    -108.363000   60.076300  -104.714000
  C    -107.974000   59.983200  -102.680000
  H    -108.027000   61.022300  -102.258000
  H    -107.311000   59.321900  -101.981000
  H    -108.987000   59.604400  -102.711000
  H    -100.599000   61.147600  -103.511000
  H    -107.107000   61.981100  -108.850000

 Total Charge           Charge          ....    0
 Multiplicity           Mult            ....    1
 Number of Electrons    NEL             ....  134
 Basis Dimension        Dim             ....  322

ORBITAL ENERGIES
----------------

  NO   OCC          E(Eh)            E(eV)
   0   2.0000     -88.964820     -2420.8558
   1   2.0000     -88.964690     -2420.8523
   2   2.0000     -10.331936      -281.1463
   3   2.0000     -10.327802      -281.0338
   4   2.0000     -10.318880      -280.7910
   5   2.0000     -10.307268      -280.4750
   6   2.0000     -10.306968      -280.4669
   7   2.0000     -10.299707      -280.2693
   8   2.0000     -10.299441      -280.2620
   9   2.0000     -10.296695      -280.1873
  10   2.0000     -10.286970      -279.9227
  11   2.0000     -10.286548      -279.9112
  12   2.0000     -10.285860      -279.8925
  13   2.0000     -10.284928      -279.8671
  14   2.0000     -10.273824      -279.5650
  15   2.0000     -10.273093      -279.5451
  16   2.0000      -8.080120      -219.8713
  17   2.0000      -8.078612      -219.8302
  18   2.0000      -6.038559      -164.3176
  19   2.0000      -6.037214      -164.2809
  20   2.0000      -6.034365      -164.2034
  21   2.0000      -6.033578      -164.1820
  22   2.0000      -6.031042      -164.1130
  23   2.0000      -6.029007      -164.0576
  24   2.0000      -1.004271       -27.3276
  25   2.0000      -0.983788       -26.7702
  26   2.0000      -0.920701       -25.0535
  27   2.0000      -0.908734       -24.7279
  28   2.0000      -0.870291       -23.6818
  29   2.0000      -0.848933       -23.1006
  30   2.0000      -0.843294       -22.9472
  31   2.0000      -0.817600       -22.2480
  32   2.0000      -0.783001       -21.3065
  33   2.0000      -0.771441       -20.9920
  34   2.0000      -0.704470       -19.1696
  35   2.0000      -0.702468       -19.1151
  36   2.0000      -0.699189       -19.0259
  37   2.0000      -0.658789       -17.9266
  38   2.0000      -0.642858       -17.4931
  39   2.0000      -0.615283       -16.7427
  40   2.0000      -0.601641       -16.3715
  41   2.0000      -0.576200       -15.6792
  42   2.0000      -0.569386       -15.4938
  43   2.0000      -0.544782       -14.8243
  44   2.0000      -0.540721       -14.7138
  45   2.0000      -0.529964       -14.4211
  46   2.0000      -0.519380       -14.1331
  47   2.0000      -0.509569       -13.8661
  48   2.0000      -0.507042       -13.7973
  49   2.0000      -0.495291       -13.4776
  50   2.0000      -0.482978       -13.1425
  51   2.0000      -0.480742       -13.0817
  52   2.0000      -0.474740       -12.9183
  53   2.0000      -0.467669       -12.7259
  54   2.0000      -0.459769       -12.5109
  55   2.0000      -0.452600       -12.3159
  56   2.0000      -0.439928       -11.9711
  57   2.0000      -0.437722       -11.9110
  58   2.0000      -0.433320       -11.7912
  59   2.0000      -0.418582       -11.3902
  60   2.0000      -0.418376       -11.3846
  61   2.0000      -0.407507       -11.0888
  62   2.0000      -0.406390       -11.0584
  63   2.0000      -0.338358        -9.2072
  64   2.0000      -0.330361        -8.9896
  65   2.0000      -0.319000        -8.6804
  66   2.0000      -0.311026        -8.4635
  67   0.0000       0.043314         1.1786
  68   0.0000       0.051402         1.3987
  69   0.0000       0.103970         2.8292
  70   0.0000       0.120531         3.2798
  71   0.0000       0.124819         3.3965

MULLIKEN ATOMIC CHARGES
-----------------------
   0 S :    0.118590
   1 C :   -0.057617
   2 C :   -0.136697
   3 C :    0.025511
   4 C :   -0.209410
   5 H :    0.047158
   6 C :    0.094981
   7 H :    0.013969
   8 H :    0.005103
   9 C :   -0.031493
  10 H :    0.021183
  11 H :    0.026944
  12 C :   -0.084912
  13 H :    0.035374
  14 H :    0.032450
  15 H :    0.017059
  16 S :    0.095050
  17 C :   -0.071141
  18 C :   -0.021433
  19 C :   -0.049788
  20 C :   -0.141259
  21 H :    0.021870
  22 C :    0.118397
  23 H :    0.054551
  24 H :    0.006634
  25 C :   -0.070497
  26 H :   -0.002148
  27 H :    0.012970
  28 C :   -0.053291
  29 H :    0.036655
  30 H :    0.047273
  31 H :    0.032438
  32 H :    0.026633
  33 H :    0.038894
Sum of atomic charges:    0.0000000

LOEWDIN ATOMIC CHARGES
----------------------
   0 S :    0.426462
   1 C :   -0.211599
   2 C :   -0.067216
   3 C :   -0.066129
   4 C :   -0.192179
   5 H :    0.047216
   6 C :   -0.029960
   7 H :    0.026020
   8 H :    0.028003
   9 C :   -0.040021
  10 H :    0.021412
  11 H :    0.029885
  12 C :   -0.072543
  13 H :    0.021835
  14 H :    0.030201
  15 H :    0.015389
  16 S :    0.368858
  17 C :   -0.150188
  18 C :   -0.066899
  19 C :   -0.040736
  20 C :   -0.202377
  21 H :    0.029697
  22 C :   -0.022327
  23 H :    0.048344
  24 H :    0.017670
  25 C :   -0.049484
  26 H :    0.013400
  27 H :    0.024754
  28 C :   -0.066519
  29 H :    0.031192
  30 H :    0.034246
  31 H :    0.025343
  32 H :    0.023254
  33 H :    0.014996

  Mayer bond orders larger than 0.100000
B(  0-S ,  1-C ) :   1.1617 B(  0-S ,  4-C ) :   1.1474 B(  1-C ,  2-C ) :   1.6133
B(  1-C , 32-H ) :   0.9685 B(  2-C ,  3-C ) :   1.2471 B(  2-C ,  6-C ) :   1.0061
B(  3-C ,  4-C ) :   1.5900 B(  3-C ,  5-H ) :   0.9791 B(  4-C , 20-C ) :   1.0095
B(  6-C ,  7-H ) :   0.9467 B(  6-C ,  8-H ) :   0.9367 B(  6-C ,  9-C ) :   1.0719
B(  9-C , 10-H ) :   0.9545 B(  9-C , 11-H ) :   0.9557 B(  9-C , 12-C ) :   1.0787
B( 12-C , 13-H ) :   0.9717 B( 12-C , 14-H ) :   0.9731 B( 12-C , 15-H ) :   0.9752
B( 16-S , 17-C ) :   1.1523 B( 16-S , 20-C ) :   1.1020 B( 17-C , 18-C ) :   1.6521
B( 17-C , 33-H ) :   0.9677 B( 18-C , 19-C ) :   1.1920 B( 18-C , 21-H ) :   0.9934
B( 19-C , 20-C ) :   1.6425 B( 19-C , 22-C ) :   1.0386 B( 22-C , 23-H ) :   0.9336
B( 22-C , 24-H ) :   0.9240 B( 22-C , 25-C ) :   1.0726 B( 25-C , 26-H ) :   0.9481
B( 25-C , 27-H ) :   0.9511 B( 25-C , 28-C ) :   1.0802 B( 28-C , 29-H ) :   0.9723
B( 28-C , 30-H ) :   0.9726 B( 28-C , 31-H ) :   0.9762

Dispersion correction           -0.014290977
FINAL SINGLE POINT ENERGY     -1339.845953727789

DIPOLE MOMENT
-------------
                                X             Y             Z
Electronic contribution:      3.23568      19.36893     -11.33832
Nuclear contribution   :     -3.60496     -19.91802      11.64406
                        -----------------------------------------
Total Dipole Moment    :     -0.36928      -0.54908       0.30574
                        -----------------------------------------
Magnitude (a.u.)       :      0.72893
Magnitude (Debye)      :      1.85279

Rotational constants in cm-1:     0.017081     0.008326     0.007312
Rotational constants in MHz :   512.078968   249.592549   219.207900

                             ****ORCA TERMINATED NORMALLY****
TOTAL RUN TIME: 0 days 0 hours 0 minutes 21 seconds 482 msec
