                         Program Version 4.2.1 -  RELEASE  -
|  1> ! wB97X-D3 SP def2-SVP
|  2> %pal
|  3> nprocs 24
|  4> end
|  5>
|  6> * xyz 0 1
|  7> S 	 -103.315 	 9.13192 	 -121.305
|  8> C 	 -104.928 	 8.77135 	 -121.923
|  9> C 	 -105.626 	 7.86017 	 -121.154
| 10> C 	 -104.959 	 7.69074 	 -119.877
| 11> C 	 -103.76 	 8.3803 	 -119.784
| 12> H 	 -105.228 	 7.12022 	 -118.985
| 13> C 	 -106.914 	 7.21553 	 -121.574
| 14> H 	 -107.183 	 6.39574 	 -120.865
| 15> H 	 -106.676 	 6.66721 	 -122.477
| 16> C 	 -108.179 	 8.11294 	 -121.675
| 17> H 	 -108.573 	 8.56037 	 -120.775
| 18> H 	 -107.74 	 8.95918 	 -122.134
| 19> C 	 -109.274 	 7.49323 	 -122.465
| 20> H 	 -110.079 	 8.16558 	 -122.683
| 21> H 	 -108.903 	 7.05019 	 -123.395
| 22> H 	 -109.616 	 6.66808 	 -121.894
| 23> S 	 -101.188 	 7.98384 	 -119.095
| 24> C 	 -100.768 	 7.60328 	 -117.479
| 25> C 	 -101.799 	 7.84191 	 -116.609
| 26> C 	 -103.044 	 8.1653 	 -117.27
| 27> C 	 -102.887 	 8.25304 	 -118.634
| 28> H 	 -101.571 	 7.65635 	 -115.576
| 29> C 	 -104.379 	 8.33837 	 -116.608
| 30> H 	 -104.036 	 8.47303 	 -115.576
| 31> H 	 -105.035 	 7.45514 	 -116.549
| 32> C 	 -105.203 	 9.65208 	 -116.994
| 33> H 	 -105.437 	 9.55161 	 -118.046
| 34> H 	 -104.646 	 10.5755 	 -116.981
| 35> C 	 -106.481 	 9.90081 	 -116.161
| 36> H 	 -106.312 	 9.33675 	 -115.199
| 37> H 	 -107.454 	 9.66323 	 -116.541
| 38> H 	 -106.586 	 11.0103 	 -115.934
| 39> H 	 -105.242 	 9.00867 	 -122.961
| 40> H 	 -99.7898 	 7.28697 	 -117.135
| 41> *
| 42>
| 43>                          ****END OF INPUT****

CARTESIAN COORDINATES (ANGSTROEM)
---------------------------------
  S    -103.315000    9.131920  -121.305000
  C    -104.928000    8.771350  -121.923000
  C    -105.626000    7.860170  -121.154000
  C    -104.959000    7.690740  -119.877000
  C    -103.760000    8.380300  -119.784000
  H    -105.228000    7.120220  -118.985000
  C    -106.914000    7.215530  -121.574000
  H    -107.183000    6.395740  -120.865000
  H    -106.676000    6.667210  -122.477000
  C    -108.179000    8.112940  -121.675000
  H    -108.573000    8.560370  -120.775000
  H    -107.740000    8.959180  -122.134000
  C    -109.274000    7.493230  -122.465000
  H    -110.079000    8.165580  -122.683000
  H    -108.903000    7.050190  -123.395000
  H    -109.616000    6.668080  -121.894000
  S    -101.188000    7.983840  -119.095000
  C    -100.768000    7.603280  -117.479000
  C    -101.799000    7.841910  -116.609000
  C    -103.044000    8.165300  -117.270000
  C    -102.887000    8.253040  -118.634000
  H    -101.571000    7.656350  -115.576000
  C    -104.379000    8.338370  -116.608000
  H    -104.036000    8.473030  -115.576000
  H    -105.035000    7.455140  -116.549000
  C    -105.203000    9.652080  -116.994000
  H    -105.437000    9.551610  -118.046000
  H    -104.646000   10.575500  -116.981000
  C    -106.481000    9.900810  -116.161000
  H    -106.312000    9.336750  -115.199000
  H    -107.454000    9.663230  -116.541000
  H    -106.586000   11.010300  -115.934000
  H    -105.242000    9.008670  -122.961000
  H    -99.789800    7.286970  -117.135000

 Total Charge           Charge          ....    0
 Multiplicity           Mult            ....    1
 Number of Electrons    NEL             ....  134
 Basis Dimension        Dim             ....  322

ORBITAL ENERGIES
----------------

  NO   OCC          E(Eh)            E(eV)
   0   2.0000     -88.970465     -2421.0094
   1   2.0000     -88.961005     -2420.7520
   2   2.0000     -10.329053      -281.0678
   3   2.0000     -10.325792      -280.9791
   4   2.0000     -10.316902      -280.7372
   5   2.0000     -10.313428      -280.6426
   6   2.0000     -10.306643      -280.4580
   7   2.0000     -10.306322      -280.4493
   8   2.0000     -10.297771      -280.2166
   9   2.0000     -10.296146      -280.1724
  10   2.0000     -10.295489      -280.1545
  11   2.0000     -10.293994      -280.1138
  12   2.0000     -10.283135      -279.8183
  13   2.0000     -10.281583      -279.7761
  14   2.0000     -10.280552      -279.7481
  15   2.0000     -10.272517      -279.5294
  16   2.0000      -8.084667      -219.9950
  17   2.0000      -8.076539      -219.7738
  18   2.0000      -6.043316      -164.4470
  19   2.0000      -6.039452      -164.3419
  20   2.0000      -6.035127      -164.2242
  21   2.0000      -6.034982      -164.2202
  22   2.0000      -6.031000      -164.1119
  23   2.0000      -6.027259      -164.0101
  24   2.0000      -1.008463       -27.4417
  25   2.0000      -0.983927       -26.7740
  26   2.0000      -0.917116       -24.9560
  27   2.0000      -0.901870       -24.5411
  28   2.0000      -0.873518       -23.7696
  29   2.0000      -0.853495       -23.2248
  30   2.0000      -0.846930       -23.0461
  31   2.0000      -0.815683       -22.1959
  32   2.0000      -0.781965       -21.2783
  33   2.0000      -0.770114       -20.9559
  34   2.0000      -0.710516       -19.3341
  35   2.0000      -0.708036       -19.2666
  36   2.0000      -0.691521       -18.8172
  37   2.0000      -0.665637       -18.1129
  38   2.0000      -0.638276       -17.3684
  39   2.0000      -0.614085       -16.7101
  40   2.0000      -0.594194       -16.1688
  41   2.0000      -0.574635       -15.6366
  42   2.0000      -0.559694       -15.2300
  43   2.0000      -0.551087       -14.9958
  44   2.0000      -0.533361       -14.5135
  45   2.0000      -0.522778       -14.2255
  46   2.0000      -0.517260       -14.0754
  47   2.0000      -0.512378       -13.9425
  48   2.0000      -0.509802       -13.8724
  49   2.0000      -0.496392       -13.5075
  50   2.0000      -0.489933       -13.3317
  51   2.0000      -0.486882       -13.2487
  52   2.0000      -0.474550       -12.9132
  53   2.0000      -0.461485       -12.5576
  54   2.0000      -0.455972       -12.4076
  55   2.0000      -0.451759       -12.2930
  56   2.0000      -0.444337       -12.0910
  57   2.0000      -0.442763       -12.0482
  58   2.0000      -0.435491       -11.8503
  59   2.0000      -0.427934       -11.6447
  60   2.0000      -0.422893       -11.5075
  61   2.0000      -0.405129       -11.0241
  62   2.0000      -0.401766       -10.9326
  63   2.0000      -0.353993        -9.6326
  64   2.0000      -0.333622        -9.0783
  65   2.0000      -0.329020        -8.9531
  66   2.0000      -0.285572        -7.7708
  67   0.0000       0.025929         0.7056
  68   0.0000       0.067373         1.8333
  69   0.0000       0.102863         2.7990
  70   0.0000       0.122624         3.3368
  71   0.0000       0.132673         3.6102

MULLIKEN ATOMIC CHARGES
-----------------------
   0 S :    0.116516
   1 C :   -0.127382
   2 C :   -0.078903
   3 C :    0.006980
   4 C :   -0.133461
   5 H :    0.017995
   6 C :    0.040167
   7 H :    0.020226
   8 H :    0.034122
   9 C :   -0.035509
  10 H :    0.025057
  11 H :   -0.000437
  12 C :   -0.006746
  13 H :    0.036659
  14 H :    0.020280
  15 H :    0.017946
  16 S :    0.086347
  17 C :   -0.084261
  18 C :   -0.038266
  19 C :   -0.028436
  20 C :   -0.143517
  21 H :    0.013637
  22 C :    0.017736
  23 H :    0.017136
  24 H :    0.055440
  25 C :   -0.062932
  26 H :    0.040966
  27 H :    0.029815
  28 C :   -0.071822
  29 H :    0.032700
  30 H :    0.031443
  31 H :    0.038164
  32 H :    0.059114
  33 H :    0.053227
Sum of atomic charges:    0.0000000

LOEWDIN ATOMIC CHARGES
----------------------
   0 S :    0.395139
   1 C :   -0.198051
   2 C :   -0.059864
   3 C :   -0.059801
   4 C :   -0.195204
   5 H :    0.035161
   6 C :   -0.033993
   7 H :    0.031297
   8 H :    0.034485
   9 C :   -0.039055
  10 H :    0.026743
  11 H :    0.014404
  12 C :   -0.057292
  13 H :    0.026780
  14 H :    0.025574
  15 H :    0.021972
  16 S :    0.396608
  17 C :   -0.190418
  18 C :   -0.073722
  19 C :   -0.062758
  20 C :   -0.173592
  21 H :    0.031310
  22 C :   -0.040052
  23 H :    0.031806
  24 H :    0.033820
  25 C :   -0.043175
  26 H :    0.023335
  27 H :    0.027887
  28 C :   -0.075221
  29 H :    0.029687
  30 H :    0.018517
  31 H :    0.034765
  32 H :    0.032311
  33 H :    0.030598

  Mayer bond orders larger than 0.100000
B(  0-S ,  1-C ) :   1.1237 B(  0-S ,  4-C ) :   1.1359 B(  1-C ,  2-C ) :   1.6294
B(  1-C , 32-H ) :   0.9603 B(  2-C ,  3-C ) :   1.2125 B(  2-C ,  6-C ) :   1.0265
B(  3-C ,  4-C ) :   1.5719 B(  3-C ,  5-H ) :   0.9931 B(  4-C , 20-C ) :   1.0677
B(  6-C ,  7-H ) :   0.9402 B(  6-C ,  8-H ) :   0.9374 B(  6-C ,  9-C ) :   1.0483
B(  9-C , 10-H ) :   0.9515 B(  9-C , 11-H ) :   0.9556 B(  9-C , 12-C ) :   1.0870
B( 12-C , 13-H ) :   0.9708 B( 12-C , 14-H ) :   0.9732 B( 12-C , 15-H ) :   0.9720
B( 16-S , 17-C ) :   1.1577 B( 16-S , 20-C ) :   1.1249 B( 17-C , 18-C ) :   1.6385
B( 17-C , 33-H ) :   0.9636 B( 18-C , 19-C ) :   1.2090 B( 18-C , 21-H ) :   0.9948
B( 19-C , 20-C ) :   1.6119 B( 19-C , 22-C ) :   1.0353 B( 22-C , 23-H ) :   0.9255
B( 22-C , 24-H ) :   0.9346 B( 22-C , 25-C ) :   1.0580 B( 25-C , 26-H ) :   0.9544
B( 25-C , 27-H ) :   0.9614 B( 25-C , 28-C ) :   1.0630 B( 28-C , 29-H ) :   0.9771
B( 28-C , 30-H ) :   0.9782 B( 28-C , 31-H ) :   0.9799

Dispersion correction           -0.014072220
FINAL SINGLE POINT ENERGY     -1339.864342546171

DIPOLE MOMENT
-------------
                                X             Y             Z
Electronic contribution:     30.43878      -0.05712      -5.33680
Nuclear contribution   :    -30.95667      -0.20512       5.53700
                        -----------------------------------------
Total Dipole Moment    :     -0.51789      -0.26224       0.20020
                        -----------------------------------------
Magnitude (a.u.)       :      0.61405
Magnitude (Debye)      :      1.56080

Rotational constants in cm-1:     0.019605     0.008472     0.006536
Rotational constants in MHz :   587.733423   253.973888   195.933781

                             ****ORCA TERMINATED NORMALLY****
TOTAL RUN TIME: 0 days 0 hours 0 minutes 20 seconds 592 msec
