                         Program Version 4.2.1 -  RELEASE  -
|  1> ! wB97X-D3 SP def2-SVP
|  2> %pal
|  3> nprocs 24
|  4> end
|  5>
|  6> * xyz 0 1
|  7> S 	 -100.241 	 19.1075 	 -122.255
|  8> C 	 -101.608 	 20.3278 	 -122.523
|  9> C 	 -102.812 	 19.7106 	 -122.269
| 10> C 	 -102.691 	 18.3326 	 -122.038
| 11> C 	 -101.401 	 17.8271 	 -122.095
| 12> H 	 -103.492 	 17.6327 	 -121.859
| 13> C 	 -104.177 	 20.4399 	 -122.216
| 14> H 	 -104.96 	 19.6566 	 -122.18
| 15> H 	 -104.19 	 20.9886 	 -123.156
| 16> C 	 -104.315 	 21.3152 	 -120.95
| 17> H 	 -104.169 	 20.7061 	 -120.066
| 18> H 	 -103.507 	 22.0712 	 -120.966
| 19> C 	 -105.77 	 21.9379 	 -120.794
| 20> H 	 -105.791 	 22.7794 	 -121.432
| 21> H 	 -106.585 	 21.2287 	 -121.099
| 22> H 	 -105.905 	 22.329 	 -119.74
| 23> S 	 -99.7657 	 16.1486 	 -120.543
| 24> C 	 -99.9897 	 14.4003 	 -120.767
| 25> C 	 -100.896 	 14.011 	 -121.755
| 26> C 	 -101.363 	 15.2008 	 -122.386
| 27> C 	 -101.021 	 16.4294 	 -121.769
| 28> H 	 -100.925 	 12.9799 	 -122.023
| 29> C 	 -102.196 	 15.0723 	 -123.648
| 30> H 	 -101.822 	 14.2301 	 -124.252
| 31> H 	 -102.002 	 15.917 	 -124.26
| 32> C 	 -103.743 	 15.0396 	 -123.492
| 33> H 	 -104.107 	 15.8651 	 -122.943
| 34> H 	 -104.149 	 14.1991 	 -122.93
| 35> C 	 -104.509 	 14.9868 	 -124.778
| 36> H 	 -104.602 	 13.9949 	 -125.185
| 37> H 	 -103.976 	 15.6383 	 -125.505
| 38> H 	 -105.503 	 15.4131 	 -124.819
| 39> H 	 -101.522 	 21.4284 	 -122.629
| 40> H 	 -99.5542 	 13.7387 	 -120.095
| 41> *
| 42>
| 43>                          ****END OF INPUT****

CARTESIAN COORDINATES (ANGSTROEM)
---------------------------------
  S    -100.241000   19.107500  -122.255000
  C    -101.608000   20.327800  -122.523000
  C    -102.812000   19.710600  -122.269000
  C    -102.691000   18.332600  -122.038000
  C    -101.401000   17.827100  -122.095000
  H    -103.492000   17.632700  -121.859000
  C    -104.177000   20.439900  -122.216000
  H    -104.960000   19.656600  -122.180000
  H    -104.190000   20.988600  -123.156000
  C    -104.315000   21.315200  -120.950000
  H    -104.169000   20.706100  -120.066000
  H    -103.507000   22.071200  -120.966000
  C    -105.770000   21.937900  -120.794000
  H    -105.791000   22.779400  -121.432000
  H    -106.585000   21.228700  -121.099000
  H    -105.905000   22.329000  -119.740000
  S    -99.765700   16.148600  -120.543000
  C    -99.989700   14.400300  -120.767000
  C    -100.896000   14.011000  -121.755000
  C    -101.363000   15.200800  -122.386000
  C    -101.021000   16.429400  -121.769000
  H    -100.925000   12.979900  -122.023000
  C    -102.196000   15.072300  -123.648000
  H    -101.822000   14.230100  -124.252000
  H    -102.002000   15.917000  -124.260000
  C    -103.743000   15.039600  -123.492000
  H    -104.107000   15.865100  -122.943000
  H    -104.149000   14.199100  -122.930000
  C    -104.509000   14.986800  -124.778000
  H    -104.602000   13.994900  -125.185000
  H    -103.976000   15.638300  -125.505000
  H    -105.503000   15.413100  -124.819000
  H    -101.522000   21.428400  -122.629000
  H    -99.554200   13.738700  -120.095000

 Total Charge           Charge          ....    0
 Multiplicity           Mult            ....    1
 Number of Electrons    NEL             ....  134
 Basis Dimension        Dim             ....  322

ORBITAL ENERGIES
----------------

  NO   OCC          E(Eh)            E(eV)
   0   2.0000     -88.969180     -2420.9745
   1   2.0000     -88.968963     -2420.9686
   2   2.0000     -10.333604      -281.1917
   3   2.0000     -10.332664      -281.1661
   4   2.0000     -10.322108      -280.8788
   5   2.0000     -10.318063      -280.7688
   6   2.0000     -10.309367      -280.5321
   7   2.0000     -10.301555      -280.3196
   8   2.0000     -10.299053      -280.2515
   9   2.0000     -10.297359      -280.2054
  10   2.0000     -10.293641      -280.1042
  11   2.0000     -10.290519      -280.0193
  12   2.0000     -10.289023      -279.9786
  13   2.0000     -10.286993      -279.9233
  14   2.0000     -10.279638      -279.7232
  15   2.0000     -10.272033      -279.5162
  16   2.0000      -8.083093      -219.9521
  17   2.0000      -8.082267      -219.9297
  18   2.0000      -6.041524      -164.3982
  19   2.0000      -6.040975      -164.3833
  20   2.0000      -6.037850      -164.2982
  21   2.0000      -6.037044      -164.2763
  22   2.0000      -6.033857      -164.1896
  23   2.0000      -6.032824      -164.1615
  24   2.0000      -1.000293       -27.2194
  25   2.0000      -0.978531       -26.6272
  26   2.0000      -0.908037       -24.7090
  27   2.0000      -0.906373       -24.6637
  28   2.0000      -0.864646       -23.5282
  29   2.0000      -0.853177       -23.2161
  30   2.0000      -0.841684       -22.9034
  31   2.0000      -0.813865       -22.1464
  32   2.0000      -0.781282       -21.2598
  33   2.0000      -0.768732       -20.9183
  34   2.0000      -0.707015       -19.2389
  35   2.0000      -0.701239       -19.0817
  36   2.0000      -0.695830       -18.9345
  37   2.0000      -0.664593       -18.0845
  38   2.0000      -0.636376       -17.3167
  39   2.0000      -0.616936       -16.7877
  40   2.0000      -0.596336       -16.2271
  41   2.0000      -0.571487       -15.5510
  42   2.0000      -0.567687       -15.4476
  43   2.0000      -0.556664       -15.1476
  44   2.0000      -0.524841       -14.2816
  45   2.0000      -0.522101       -14.2071
  46   2.0000      -0.511740       -13.9252
  47   2.0000      -0.510814       -13.8999
  48   2.0000      -0.504137       -13.7183
  49   2.0000      -0.501038       -13.6339
  50   2.0000      -0.493184       -13.4202
  51   2.0000      -0.475598       -12.9417
  52   2.0000      -0.470647       -12.8070
  53   2.0000      -0.463883       -12.6229
  54   2.0000      -0.457568       -12.4511
  55   2.0000      -0.452505       -12.3133
  56   2.0000      -0.442047       -12.0287
  57   2.0000      -0.439333       -11.9549
  58   2.0000      -0.430644       -11.7184
  59   2.0000      -0.425089       -11.5673
  60   2.0000      -0.422887       -11.5073
  61   2.0000      -0.413989       -11.2652
  62   2.0000      -0.412055       -11.2126
  63   2.0000      -0.344733        -9.3807
  64   2.0000      -0.335277        -9.1234
  65   2.0000      -0.331404        -9.0180
  66   2.0000      -0.289885        -7.8882
  67   0.0000       0.024032         0.6539
  68   0.0000       0.060508         1.6465
  69   0.0000       0.094117         2.5610
  70   0.0000       0.121504         3.3063
  71   0.0000       0.128471         3.4959

MULLIKEN ATOMIC CHARGES
-----------------------
   0 S :    0.094362
   1 C :   -0.144822
   2 C :   -0.073426
   3 C :    0.020543
   4 C :   -0.137083
   5 H :    0.009137
   6 C :    0.066382
   7 H :    0.022688
   8 H :    0.042134
   9 C :   -0.091367
  10 H :    0.035285
  11 H :    0.031800
  12 C :   -0.057611
  13 H :    0.024775
  14 H :    0.045486
  15 H :    0.048560
  16 S :    0.100544
  17 C :   -0.080916
  18 C :   -0.006780
  19 C :   -0.052483
  20 C :   -0.148161
  21 H :    0.026474
  22 C :    0.078382
  23 H :    0.025907
  24 H :    0.016478
  25 C :   -0.028561
  26 H :   -0.001928
  27 H :    0.018500
  28 C :   -0.056096
  29 H :    0.029957
  30 H :    0.018548
  31 H :    0.027813
  32 H :    0.059097
  33 H :    0.036379
Sum of atomic charges:   -0.0000000

LOEWDIN ATOMIC CHARGES
----------------------
   0 S :    0.374546
   1 C :   -0.181044
   2 C :   -0.060581
   3 C :   -0.067856
   4 C :   -0.193182
   5 H :    0.027719
   6 C :   -0.026579
   7 H :    0.029400
   8 H :    0.032973
   9 C :   -0.038618
  10 H :    0.024416
  11 H :    0.023608
  12 C :   -0.069643
  13 H :    0.016763
  14 H :    0.031425
  15 H :    0.034604
  16 S :    0.386300
  17 C :   -0.154625
  18 C :   -0.063667
  19 C :   -0.047725
  20 C :   -0.195324
  21 H :    0.036473
  22 C :   -0.028829
  23 H :    0.033722
  24 H :    0.026887
  25 C :   -0.040850
  26 H :    0.015352
  27 H :    0.023472
  28 C :   -0.068606
  29 H :    0.021191
  30 H :    0.025750
  31 H :    0.026694
  32 H :    0.035579
  33 H :    0.010256

  Mayer bond orders larger than 0.100000
B(  0-S ,  1-C ) :   1.1095 B(  0-S ,  4-C ) :   1.1497 B(  1-C ,  2-C ) :   1.6190
B(  1-C , 32-H ) :   0.9648 B(  2-C ,  3-C ) :   1.2555 B(  2-C ,  6-C ) :   0.9991
B(  3-C ,  4-C ) :   1.5671 B(  3-C ,  5-H ) :   0.9904 B(  4-C , 20-C ) :   1.0410
B(  6-C ,  7-H ) :   0.9441 B(  6-C ,  8-H ) :   0.9433 B(  6-C ,  9-C ) :   1.0619
B(  9-C , 10-H ) :   0.9606 B(  9-C , 11-H ) :   0.9596 B(  9-C , 12-C ) :   1.0662
B( 12-C , 13-H ) :   0.9784 B( 12-C , 14-H ) :   0.9752 B( 12-C , 15-H ) :   0.9775
B( 16-S , 17-C ) :   1.1668 B( 16-S , 20-C ) :   1.1222 B( 17-C , 18-C ) :   1.6115
B( 17-C , 20-C ) :   0.1010 B( 17-C , 33-H ) :   0.9688 B( 18-C , 19-C ) :   1.2307
B( 18-C , 21-H ) :   0.9948 B( 19-C , 20-C ) :   1.5955 B( 19-C , 22-C ) :   1.0536
B( 22-C , 23-H ) :   0.9415 B( 22-C , 24-H ) :   0.9206 B( 22-C , 25-C ) :   1.0617
B( 25-C , 26-H ) :   0.9517 B( 25-C , 27-H ) :   0.9530 B( 25-C , 28-C ) :   1.0846
B( 28-C , 29-H ) :   0.9778 B( 28-C , 30-H ) :   0.9709 B( 28-C , 31-H ) :   0.9727

Dispersion correction           -0.013897432
FINAL SINGLE POINT ENERGY     -1339.864328819619

DIPOLE MOMENT
-------------
                                X             Y             Z
Electronic contribution:     28.04353      -4.54705       7.69800
Nuclear contribution   :    -28.64063       4.46135      -7.77046
                        -----------------------------------------
Total Dipole Moment    :     -0.59710      -0.08570      -0.07246
                        -----------------------------------------
Magnitude (a.u.)       :      0.60756
Magnitude (Debye)      :      1.54430

Rotational constants in cm-1:     0.017519     0.008265     0.006466
Rotational constants in MHz :   525.214194   247.774044   193.834308

                             ****ORCA TERMINATED NORMALLY****
TOTAL RUN TIME: 0 days 0 hours 0 minutes 22 seconds 368 msec
