                         Program Version 4.2.1 -  RELEASE  -
|  1> ! wB97X-D3 SP def2-SVP
|  2> %pal
|  3> nprocs 24
|  4> end
|  5>
|  6> * xyz 0 1
|  7> S 	 -58.0463 	 9.41331 	 -103.127
|  8> C 	 -56.9924 	 10.73 	 -103.322
|  9> C 	 -55.645 	 10.4226 	 -103.146
| 10> C 	 -55.5128 	 8.9932 	 -102.937
| 11> C 	 -56.6993 	 8.32145 	 -103.049
| 12> H 	 -54.5834 	 8.47776 	 -102.843
| 13> C 	 -54.5379 	 11.4273 	 -103.36
| 14> H 	 -53.7362 	 11.1043 	 -102.776
| 15> H 	 -54.965 	 12.1918 	 -102.822
| 16> C 	 -54.0974 	 11.8264 	 -104.755
| 17> H 	 -54.9198 	 12.3192 	 -105.314
| 18> H 	 -53.207 	 12.4731 	 -104.691
| 19> C 	 -53.7448 	 10.6878 	 -105.734
| 20> H 	 -54.5692 	 10.0857 	 -105.789
| 21> H 	 -53.6061 	 11.0985 	 -106.757
| 22> H 	 -52.897 	 10.2115 	 -105.291
| 23> S 	 -58.6238 	 6.33667 	 -103.583
| 24> C 	 -58.2664 	 4.71684 	 -103.048
| 25> C 	 -56.95 	 4.49865 	 -102.828
| 26> C 	 -56.2075 	 5.76191 	 -102.81
| 27> C 	 -57.0108 	 6.881 	 -103.108
| 28> H 	 -56.6854 	 3.45039 	 -102.615
| 29> C 	 -54.689 	 5.84628 	 -102.62
| 30> H 	 -54.5177 	 6.28696 	 -101.616
| 31> H 	 -54.2419 	 6.34731 	 -103.447
| 32> C 	 -54.1236 	 4.41418 	 -102.703
| 33> H 	 -54.6458 	 3.68775 	 -103.4
| 34> H 	 -54.4048 	 4.09983 	 -101.694
| 35> C 	 -52.6666 	 4.38796 	 -102.896
| 36> H 	 -52.3655 	 3.43379 	 -102.816
| 37> H 	 -52.0902 	 4.88042 	 -102.07
| 38> H 	 -52.4558 	 4.80911 	 -103.916
| 39> H 	 -57.3725 	 11.7704 	 -103.446
| 40> H 	 -59.0182 	 3.96504 	 -103.042
| 41> *
| 42>
| 43>                          ****END OF INPUT****

CARTESIAN COORDINATES (ANGSTROEM)
---------------------------------
  S    -58.046300    9.413310  -103.127000
  C    -56.992400   10.730000  -103.322000
  C    -55.645000   10.422600  -103.146000
  C    -55.512800    8.993200  -102.937000
  C    -56.699300    8.321450  -103.049000
  H    -54.583400    8.477760  -102.843000
  C    -54.537900   11.427300  -103.360000
  H    -53.736200   11.104300  -102.776000
  H    -54.965000   12.191800  -102.822000
  C    -54.097400   11.826400  -104.755000
  H    -54.919800   12.319200  -105.314000
  H    -53.207000   12.473100  -104.691000
  C    -53.744800   10.687800  -105.734000
  H    -54.569200   10.085700  -105.789000
  H    -53.606100   11.098500  -106.757000
  H    -52.897000   10.211500  -105.291000
  S    -58.623800    6.336670  -103.583000
  C    -58.266400    4.716840  -103.048000
  C    -56.950000    4.498650  -102.828000
  C    -56.207500    5.761910  -102.810000
  C    -57.010800    6.881000  -103.108000
  H    -56.685400    3.450390  -102.615000
  C    -54.689000    5.846280  -102.620000
  H    -54.517700    6.286960  -101.616000
  H    -54.241900    6.347310  -103.447000
  C    -54.123600    4.414180  -102.703000
  H    -54.645800    3.687750  -103.400000
  H    -54.404800    4.099830  -101.694000
  C    -52.666600    4.387960  -102.896000
  H    -52.365500    3.433790  -102.816000
  H    -52.090200    4.880420  -102.070000
  H    -52.455800    4.809110  -103.916000
  H    -57.372500   11.770400  -103.446000
  H    -59.018200    3.965040  -103.042000

 Total Charge           Charge          ....    0
 Multiplicity           Mult            ....    1
 Number of Electrons    NEL             ....  134
 Basis Dimension        Dim             ....  322

ORBITAL ENERGIES
----------------

  NO   OCC          E(Eh)            E(eV)
   0   2.0000     -88.964054     -2420.8350
   1   2.0000     -88.962382     -2420.7895
   2   2.0000     -10.329281      -281.0740
   3   2.0000     -10.328571      -281.0547
   4   2.0000     -10.311439      -280.5885
   5   2.0000     -10.310348      -280.5588
   6   2.0000     -10.308129      -280.4984
   7   2.0000     -10.300987      -280.3041
   8   2.0000     -10.297071      -280.1976
   9   2.0000     -10.293064      -280.0885
  10   2.0000     -10.291909      -280.0571
  11   2.0000     -10.287062      -279.9252
  12   2.0000     -10.284252      -279.8487
  13   2.0000     -10.279666      -279.7239
  14   2.0000     -10.273019      -279.5430
  15   2.0000     -10.266929      -279.3773
  16   2.0000      -8.080196      -219.8733
  17   2.0000      -8.077240      -219.7929
  18   2.0000      -6.038595      -164.3185
  19   2.0000      -6.035836      -164.2434
  20   2.0000      -6.034553      -164.2085
  21   2.0000      -6.031848      -164.1349
  22   2.0000      -6.030951      -164.1105
  23   2.0000      -6.027806      -164.0249
  24   2.0000      -1.008855       -27.4523
  25   2.0000      -0.984842       -26.7989
  26   2.0000      -0.918775       -25.0011
  27   2.0000      -0.915479       -24.9115
  28   2.0000      -0.869380       -23.6570
  29   2.0000      -0.856150       -23.2970
  30   2.0000      -0.845141       -22.9974
  31   2.0000      -0.822223       -22.3738
  32   2.0000      -0.788534       -21.4571
  33   2.0000      -0.772350       -21.0167
  34   2.0000      -0.704472       -19.1697
  35   2.0000      -0.696854       -18.9624
  36   2.0000      -0.693079       -18.8597
  37   2.0000      -0.649260       -17.6673
  38   2.0000      -0.632956       -17.2236
  39   2.0000      -0.618576       -16.8323
  40   2.0000      -0.598743       -16.2926
  41   2.0000      -0.584145       -15.8954
  42   2.0000      -0.580711       -15.8019
  43   2.0000      -0.551442       -15.0055
  44   2.0000      -0.550164       -14.9707
  45   2.0000      -0.529809       -14.4168
  46   2.0000      -0.518060       -14.0971
  47   2.0000      -0.515314       -14.0224
  48   2.0000      -0.502959       -13.6862
  49   2.0000      -0.495061       -13.4713
  50   2.0000      -0.491417       -13.3721
  51   2.0000      -0.480981       -13.0882
  52   2.0000      -0.469488       -12.7754
  53   2.0000      -0.465171       -12.6580
  54   2.0000      -0.462775       -12.5927
  55   2.0000      -0.459297       -12.4981
  56   2.0000      -0.447497       -12.1770
  57   2.0000      -0.444434       -12.0937
  58   2.0000      -0.428353       -11.6561
  59   2.0000      -0.424477       -11.5506
  60   2.0000      -0.417491       -11.3605
  61   2.0000      -0.406846       -11.0708
  62   2.0000      -0.401992       -10.9388
  63   2.0000      -0.360573        -9.8117
  64   2.0000      -0.332639        -9.0516
  65   2.0000      -0.326684        -8.8895
  66   2.0000      -0.279488        -7.6052
  67   0.0000       0.022657         0.6165
  68   0.0000       0.088949         2.4204
  69   0.0000       0.096297         2.6204
  70   0.0000       0.115928         3.1546
  71   0.0000       0.138414         3.7664

MULLIKEN ATOMIC CHARGES
-----------------------
   0 S :    0.112635
   1 C :   -0.137787
   2 C :   -0.144189
   3 C :   -0.002677
   4 C :   -0.121128
   5 H :   -0.004938
   6 C :    0.160610
   7 H :   -0.001727
   8 H :    0.006801
   9 C :   -0.079415
  10 H :    0.024297
  11 H :    0.036606
  12 C :   -0.025851
  13 H :    0.024292
  14 H :    0.039040
  15 H :    0.023817
  16 S :    0.088485
  17 C :   -0.076601
  18 C :   -0.041297
  19 C :   -0.100562
  20 C :   -0.094776
  21 H :    0.035806
  22 C :    0.055231
  23 H :    0.057460
  24 H :    0.037550
  25 C :   -0.151835
  26 H :    0.051394
  27 H :    0.016908
  28 C :    0.043258
  29 H :   -0.000570
  30 H :    0.027977
  31 H :    0.040801
  32 H :    0.058878
  33 H :    0.041509
Sum of atomic charges:   -0.0000000

LOEWDIN ATOMIC CHARGES
----------------------
   0 S :    0.426733
   1 C :   -0.219418
   2 C :   -0.060307
   3 C :   -0.067975
   4 C :   -0.184660
   5 H :    0.025059
   6 C :   -0.029663
   7 H :    0.023501
   8 H :    0.028240
   9 C :   -0.036716
  10 H :    0.025167
  11 H :    0.026728
  12 C :   -0.053627
  13 H :    0.012955
  14 H :    0.033064
  15 H :    0.018911
  16 S :    0.384060
  17 C :   -0.174512
  18 C :   -0.081258
  19 C :   -0.053829
  20 C :   -0.192592
  21 H :    0.041818
  22 C :   -0.030093
  23 H :    0.042061
  24 H :    0.023173
  25 C :   -0.052358
  26 H :    0.032230
  27 H :    0.022389
  28 C :   -0.059179
  29 H :    0.010391
  30 H :    0.032847
  31 H :    0.032819
  32 H :    0.032856
  33 H :    0.021184

  Mayer bond orders larger than 0.100000
B(  0-S ,  1-C ) :   1.1540 B(  0-S ,  4-C ) :   1.1480 B(  1-C ,  2-C ) :   1.6066
B(  1-C , 32-H ) :   0.9621 B(  2-C ,  3-C ) :   1.2241 B(  2-C ,  6-C ) :   1.0043
B(  3-C ,  4-C ) :   1.5732 B(  3-C ,  5-H ) :   0.9960 B(  4-C , 20-C ) :   1.0804
B(  6-C ,  7-H ) :   0.9280 B(  6-C ,  8-H ) :   0.9244 B(  6-C ,  9-C ) :   1.0733
B(  9-C , 10-H ) :   0.9572 B(  9-C , 11-H ) :   0.9566 B(  9-C , 12-C ) :   1.0752
B( 12-C , 13-H ) :   0.9752 B( 12-C , 14-H ) :   0.9744 B( 12-C , 15-H ) :   0.9793
B( 16-S , 17-C ) :   1.1443 B( 16-S , 20-C ) :   1.1235 B( 17-C , 18-C ) :   1.6353
B( 17-C , 33-H ) :   0.9631 B( 18-C , 19-C ) :   1.2066 B( 18-C , 21-H ) :   0.9862
B( 19-C , 20-C ) :   1.6145 B( 19-C , 22-C ) :   1.0246 B( 22-C , 23-H ) :   0.9222
B( 22-C , 24-H ) :   0.9424 B( 22-C , 25-C ) :   1.0741 B( 25-C , 26-H ) :   0.9525
B( 25-C , 27-H ) :   0.9414 B( 25-C , 28-C ) :   1.0957 B( 28-C , 29-H ) :   0.9605
B( 28-C , 30-H ) :   0.9638 B( 28-C , 31-H ) :   0.9687

Dispersion correction           -0.013819501
FINAL SINGLE POINT ENERGY     -1339.848567452900

DIPOLE MOMENT
-------------
                                X             Y             Z
Electronic contribution:    -28.17975      -0.34922       4.02059
Nuclear contribution   :     28.78990       0.15702      -3.97047
                        -----------------------------------------
Total Dipole Moment    :      0.61015      -0.19220       0.05011
                        -----------------------------------------
Magnitude (a.u.)       :      0.64166
Magnitude (Debye)      :      1.63098

Rotational constants in cm-1:     0.017435     0.009188     0.006510
Rotational constants in MHz :   522.677000   275.444891   195.165474

                             ****ORCA TERMINATED NORMALLY****
TOTAL RUN TIME: 0 days 0 hours 0 minutes 21 seconds 748 msec
