                         Program Version 4.2.1 -  RELEASE  -
|  1> ! wB97X-D3 SP def2-SVP
|  2> %pal
|  3> nprocs 24
|  4> end
|  5>
|  6> * xyz 0 1
|  7> S 	 10.2284 	 -16.1627 	 -118.64
|  8> C 	 9.08651 	 -15.9664 	 -119.94
|  9> C 	 8.00852 	 -16.7922 	 -119.671
| 10> C 	 8.21119 	 -17.7401 	 -118.681
| 11> C 	 9.36551 	 -17.5153 	 -117.994
| 12> H 	 7.54644 	 -18.5983 	 -118.462
| 13> C 	 6.68959 	 -16.6997 	 -120.532
| 14> H 	 6.98599 	 -16.4483 	 -121.534
| 15> H 	 6.15591 	 -15.8511 	 -120.21
| 16> C 	 5.77975 	 -17.8844 	 -120.527
| 17> H 	 6.23891 	 -18.7652 	 -120.862
| 18> H 	 5.39609 	 -18.1666 	 -119.539
| 19> C 	 4.53453 	 -17.7971 	 -121.414
| 20> H 	 4.82096 	 -17.6092 	 -122.439
| 21> H 	 3.91167 	 -18.7424 	 -121.247
| 22> H 	 3.89992 	 -16.975 	 -121.197
| 23> S 	 9.79331 	 -20.0894 	 -116.958
| 24> C 	 10.8047 	 -20.2736 	 -115.493
| 25> C 	 11.1283 	 -19.0707 	 -114.976
| 26> C 	 10.6697 	 -17.9179 	 -115.754
| 27> C 	 9.9357 	 -18.3348 	 -116.919
| 28> H 	 11.7194 	 -19.0493 	 -114.096
| 29> C 	 10.8181 	 -16.5238 	 -115.237
| 30> H 	 10.5514 	 -15.7208 	 -115.936
| 31> H 	 11.8541 	 -16.426 	 -115.105
| 32> C 	 10.0954 	 -16.143 	 -113.949
| 33> H 	 10.4333 	 -15.1217 	 -113.687
| 34> H 	 10.5573 	 -16.6122 	 -113.135
| 35> C 	 8.59116 	 -16.296 	 -113.948
| 36> H 	 8.13106 	 -15.9048 	 -113.034
| 37> H 	 8.34506 	 -17.3479 	 -114.079
| 38> H 	 8.12553 	 -15.788 	 -114.835
| 39> H 	 9.08901 	 -15.234 	 -120.737
| 40> H 	 11.1245 	 -21.2537 	 -115.064
| 41> *
| 42>
| 43>                          ****END OF INPUT****

CARTESIAN COORDINATES (ANGSTROEM)
---------------------------------
  S     10.228400  -16.162700  -118.640000
  C      9.086510  -15.966400  -119.940000
  C      8.008520  -16.792200  -119.671000
  C      8.211190  -17.740100  -118.681000
  C      9.365510  -17.515300  -117.994000
  H      7.546440  -18.598300  -118.462000
  C      6.689590  -16.699700  -120.532000
  H      6.985990  -16.448300  -121.534000
  H      6.155910  -15.851100  -120.210000
  C      5.779750  -17.884400  -120.527000
  H      6.238910  -18.765200  -120.862000
  H      5.396090  -18.166600  -119.539000
  C      4.534530  -17.797100  -121.414000
  H      4.820960  -17.609200  -122.439000
  H      3.911670  -18.742400  -121.247000
  H      3.899920  -16.975000  -121.197000
  S      9.793310  -20.089400  -116.958000
  C     10.804700  -20.273600  -115.493000
  C     11.128300  -19.070700  -114.976000
  C     10.669700  -17.917900  -115.754000
  C      9.935700  -18.334800  -116.919000
  H     11.719400  -19.049300  -114.096000
  C     10.818100  -16.523800  -115.237000
  H     10.551400  -15.720800  -115.936000
  H     11.854100  -16.426000  -115.105000
  C     10.095400  -16.143000  -113.949000
  H     10.433300  -15.121700  -113.687000
  H     10.557300  -16.612200  -113.135000
  C      8.591160  -16.296000  -113.948000
  H      8.131060  -15.904800  -113.034000
  H      8.345060  -17.347900  -114.079000
  H      8.125530  -15.788000  -114.835000
  H      9.089010  -15.234000  -120.737000
  H     11.124500  -21.253700  -115.064000

 Total Charge           Charge          ....    0
 Multiplicity           Mult            ....    1
 Number of Electrons    NEL             ....  134
 Basis Dimension        Dim             ....  322

ORBITAL ENERGIES
----------------

  NO   OCC          E(Eh)            E(eV)
   0   2.0000     -88.967992     -2420.9421
   1   2.0000     -88.965881     -2420.8847
   2   2.0000     -10.334004      -281.2026
   3   2.0000     -10.327897      -281.0364
   4   2.0000     -10.321334      -280.8578
   5   2.0000     -10.311535      -280.5911
   6   2.0000     -10.309093      -280.5247
   7   2.0000     -10.299739      -280.2701
   8   2.0000     -10.293211      -280.0925
   9   2.0000     -10.290000      -280.0051
  10   2.0000     -10.287599      -279.9398
  11   2.0000     -10.283418      -279.8260
  12   2.0000     -10.279109      -279.7088
  13   2.0000     -10.278629      -279.6957
  14   2.0000     -10.278550      -279.6936
  15   2.0000     -10.274664      -279.5878
  16   2.0000      -8.082644      -219.9399
  17   2.0000      -8.079672      -219.8591
  18   2.0000      -6.041123      -164.3873
  19   2.0000      -6.038385      -164.3128
  20   2.0000      -6.037100      -164.2778
  21   2.0000      -6.034343      -164.2028
  22   2.0000      -6.033480      -164.1793
  23   2.0000      -6.030254      -164.0916
  24   2.0000      -1.009925       -27.4814
  25   2.0000      -0.980971       -26.6936
  26   2.0000      -0.913394       -24.8547
  27   2.0000      -0.910295       -24.7704
  28   2.0000      -0.871957       -23.7271
  29   2.0000      -0.852402       -23.1950
  30   2.0000      -0.840655       -22.8754
  31   2.0000      -0.819636       -22.3034
  32   2.0000      -0.786147       -21.3921
  33   2.0000      -0.770864       -20.9763
  34   2.0000      -0.714511       -19.4428
  35   2.0000      -0.700077       -19.0501
  36   2.0000      -0.686725       -18.6867
  37   2.0000      -0.662269       -18.0213
  38   2.0000      -0.631875       -17.1942
  39   2.0000      -0.622077       -16.9276
  40   2.0000      -0.596558       -16.2332
  41   2.0000      -0.572025       -15.5656
  42   2.0000      -0.567868       -15.4525
  43   2.0000      -0.557717       -15.1762
  44   2.0000      -0.539096       -14.6696
  45   2.0000      -0.530718       -14.4416
  46   2.0000      -0.513869       -13.9831
  47   2.0000      -0.505940       -13.7673
  48   2.0000      -0.504572       -13.7301
  49   2.0000      -0.493992       -13.4422
  50   2.0000      -0.490774       -13.3546
  51   2.0000      -0.482422       -13.1274
  52   2.0000      -0.472684       -12.8624
  53   2.0000      -0.466449       -12.6927
  54   2.0000      -0.463030       -12.5997
  55   2.0000      -0.448840       -12.2136
  56   2.0000      -0.443153       -12.0588
  57   2.0000      -0.441939       -12.0258
  58   2.0000      -0.436451       -11.8764
  59   2.0000      -0.420943       -11.4544
  60   2.0000      -0.419535       -11.4161
  61   2.0000      -0.411551       -11.1989
  62   2.0000      -0.404198       -10.9988
  63   2.0000      -0.356418        -9.6986
  64   2.0000      -0.334964        -9.1148
  65   2.0000      -0.327457        -8.9106
  66   2.0000      -0.283803        -7.7227
  67   0.0000       0.025281         0.6879
  68   0.0000       0.076564         2.0834
  69   0.0000       0.107110         2.9146
  70   0.0000       0.123109         3.3500
  71   0.0000       0.133923         3.6442

MULLIKEN ATOMIC CHARGES
-----------------------
   0 S :    0.120851
   1 C :   -0.130957
   2 C :   -0.084870
   3 C :   -0.033983
   4 C :   -0.103104
   5 H :    0.030610
   6 C :    0.120147
   7 H :    0.009318
   8 H :    0.022419
   9 C :   -0.086385
  10 H :    0.018331
  11 H :    0.025652
  12 C :   -0.047122
  13 H :    0.024197
  14 H :    0.047652
  15 H :    0.015640
  16 S :    0.090320
  17 C :   -0.108217
  18 C :   -0.011635
  19 C :   -0.060818
  20 C :   -0.130645
  21 H :    0.009601
  22 C :    0.062193
  23 H :    0.023482
  24 H :    0.016105
  25 C :   -0.042611
  26 H :    0.014246
  27 H :   -0.002397
  28 C :   -0.042048
  29 H :    0.038940
  30 H :    0.041109
  31 H :    0.034650
  32 H :    0.045560
  33 H :    0.073771
Sum of atomic charges:    0.0000000

LOEWDIN ATOMIC CHARGES
----------------------
   0 S :    0.435420
   1 C :   -0.208363
   2 C :   -0.055781
   3 C :   -0.079810
   4 C :   -0.190807
   5 H :    0.039508
   6 C :   -0.024128
   7 H :    0.027216
   8 H :    0.027306
   9 C :   -0.047465
  10 H :    0.018825
  11 H :    0.024030
  12 C :   -0.060928
  13 H :    0.020920
  14 H :    0.039030
  15 H :    0.015031
  16 S :    0.380214
  17 C :   -0.177818
  18 C :   -0.066527
  19 C :   -0.057097
  20 C :   -0.191179
  21 H :    0.027977
  22 C :   -0.040038
  23 H :    0.024018
  24 H :    0.029063
  25 C :   -0.041711
  26 H :    0.027262
  27 H :    0.011603
  28 C :   -0.065685
  29 H :    0.028387
  30 H :    0.028372
  31 H :    0.031457
  32 H :    0.029914
  33 H :    0.041782

  Mayer bond orders larger than 0.100000
B(  0-S ,  1-C ) :   1.1389 B(  0-S ,  4-C ) :   1.1691 B(  1-C ,  2-C ) :   1.5934
B(  1-C ,  4-C ) :   0.1011 B(  1-C , 32-H ) :   0.9752 B(  2-C ,  3-C ) :   1.2868
B(  2-C ,  6-C ) :   0.9901 B(  3-C ,  4-C ) :   1.5257 B(  3-C ,  5-H ) :   0.9890
B(  4-C , 20-C ) :   1.0582 B(  6-C ,  7-H ) :   0.9399 B(  6-C ,  8-H ) :   0.9308
B(  6-C ,  9-C ) :   1.0889 B(  9-C , 10-H ) :   0.9539 B(  9-C , 11-H ) :   0.9431
B(  9-C , 12-C ) :   1.0880 B( 12-C , 13-H ) :   0.9740 B( 12-C , 14-H ) :   0.9735
B( 12-C , 15-H ) :   0.9746 B( 16-S , 17-C ) :   1.1241 B( 16-S , 20-C ) :   1.1339
B( 17-C , 18-C ) :   1.6484 B( 17-C , 33-H ) :   0.9610 B( 18-C , 19-C ) :   1.2068
B( 18-C , 21-H ) :   0.9942 B( 19-C , 20-C ) :   1.5592 B( 19-C , 22-C ) :   1.0550
B( 22-C , 23-H ) :   0.9339 B( 22-C , 24-H ) :   0.9176 B( 22-C , 25-C ) :   1.0907
B( 25-C , 26-H ) :   0.9465 B( 25-C , 27-H ) :   0.9465 B( 25-C , 28-C ) :   1.0702
B( 28-C , 29-H ) :   0.9727 B( 28-C , 30-H ) :   0.9729 B( 28-C , 31-H ) :   0.9749

Dispersion correction           -0.014280415
FINAL SINGLE POINT ENERGY     -1339.877995770902

DIPOLE MOMENT
-------------
                                X             Y             Z
Electronic contribution:     17.26016      -7.21840      -0.99828
Nuclear contribution   :    -17.46911       7.38540       1.16166
                        -----------------------------------------
Total Dipole Moment    :     -0.20895       0.16700       0.16338
                        -----------------------------------------
Magnitude (a.u.)       :      0.31343
Magnitude (Debye)      :      0.79668

Rotational constants in cm-1:     0.020785     0.007669     0.006925
Rotational constants in MHz :   623.116468   229.913263   207.598972

                             ****ORCA TERMINATED NORMALLY****
TOTAL RUN TIME: 0 days 0 hours 0 minutes 20 seconds 184 msec
