                         Program Version 4.2.1 -  RELEASE  -
|  1> ! wB97X-D3 SP def2-SVP
|  2> %pal
|  3> nprocs 24
|  4> end
|  5>
|  6> * xyz 0 1
|  7> S 	 25.3857 	 -6.42621 	 -118.6
|  8> C 	 25.0428 	 -6.67252 	 -120.362
|  9> C 	 26.1929 	 -6.36245 	 -121.056
| 10> C 	 27.351 	 -6.14342 	 -120.214
| 11> C 	 27.0618 	 -6.25605 	 -118.842
| 12> H 	 28.2744 	 -5.77013 	 -120.476
| 13> C 	 26.2489 	 -6.27766 	 -122.582
| 14> H 	 27.0673 	 -5.55852 	 -122.78
| 15> H 	 25.2297 	 -5.81183 	 -122.883
| 16> C 	 26.4072 	 -7.60003 	 -123.292
| 17> H 	 25.6277 	 -8.28622 	 -122.805
| 18> H 	 26.1515 	 -7.48893 	 -124.313
| 19> C 	 27.8343 	 -8.01333 	 -123.195
| 20> H 	 28.2422 	 -7.88473 	 -122.189
| 21> H 	 27.9863 	 -9.04426 	 -123.574
| 22> H 	 28.3971 	 -7.28979 	 -123.697
| 23> S 	 27.4987 	 -4.85222 	 -116.581
| 24> C 	 29.0943 	 -4.80617 	 -115.783
| 25> C 	 29.9976 	 -5.51023 	 -116.535
| 26> C 	 29.3679 	 -6.10228 	 -117.672
| 27> C 	 28.0177 	 -5.9029 	 -117.834
| 28> H 	 31.0217 	 -5.59242 	 -116.283
| 29> C 	 30.1799 	 -6.88639 	 -118.605
| 30> H 	 29.4252 	 -7.50687 	 -119.167
| 31> H 	 30.8546 	 -7.59292 	 -118.148
| 32> C 	 30.928 	 -6.05188 	 -119.619
| 33> H 	 31.7145 	 -5.50585 	 -119.088
| 34> H 	 30.2457 	 -5.36382 	 -120.127
| 35> C 	 31.4795 	 -6.86347 	 -120.793
| 36> H 	 31.8805 	 -6.30174 	 -121.692
| 37> H 	 30.811 	 -7.64742 	 -121.143
| 38> H 	 32.2686 	 -7.41543 	 -120.346
| 39> H 	 24.0213 	 -6.74292 	 -120.678
| 40> H 	 29.2296 	 -4.25071 	 -114.881
| 41> *
| 42>
| 43>                          ****END OF INPUT****

CARTESIAN COORDINATES (ANGSTROEM)
---------------------------------
  S     25.385700   -6.426210  -118.600000
  C     25.042800   -6.672520  -120.362000
  C     26.192900   -6.362450  -121.056000
  C     27.351000   -6.143420  -120.214000
  C     27.061800   -6.256050  -118.842000
  H     28.274400   -5.770130  -120.476000
  C     26.248900   -6.277660  -122.582000
  H     27.067300   -5.558520  -122.780000
  H     25.229700   -5.811830  -122.883000
  C     26.407200   -7.600030  -123.292000
  H     25.627700   -8.286220  -122.805000
  H     26.151500   -7.488930  -124.313000
  C     27.834300   -8.013330  -123.195000
  H     28.242200   -7.884730  -122.189000
  H     27.986300   -9.044260  -123.574000
  H     28.397100   -7.289790  -123.697000
  S     27.498700   -4.852220  -116.581000
  C     29.094300   -4.806170  -115.783000
  C     29.997600   -5.510230  -116.535000
  C     29.367900   -6.102280  -117.672000
  C     28.017700   -5.902900  -117.834000
  H     31.021700   -5.592420  -116.283000
  C     30.179900   -6.886390  -118.605000
  H     29.425200   -7.506870  -119.167000
  H     30.854600   -7.592920  -118.148000
  C     30.928000   -6.051880  -119.619000
  H     31.714500   -5.505850  -119.088000
  H     30.245700   -5.363820  -120.127000
  C     31.479500   -6.863470  -120.793000
  H     31.880500   -6.301740  -121.692000
  H     30.811000   -7.647420  -121.143000
  H     32.268600   -7.415430  -120.346000
  H     24.021300   -6.742920  -120.678000
  H     29.229600   -4.250710  -114.881000

 Total Charge           Charge          ....    0
 Multiplicity           Mult            ....    1
 Number of Electrons    NEL             ....  134
 Basis Dimension        Dim             ....  322

ORBITAL ENERGIES
----------------

  NO   OCC          E(Eh)            E(eV)
   0   2.0000     -88.967434     -2420.9270
   1   2.0000     -88.960556     -2420.7398
   2   2.0000     -10.332121      -281.1513
   3   2.0000     -10.323654      -280.9209
   4   2.0000     -10.320523      -280.8357
   5   2.0000     -10.320452      -280.8338
   6   2.0000     -10.308968      -280.5213
   7   2.0000     -10.299626      -280.2671
   8   2.0000     -10.296987      -280.1953
   9   2.0000     -10.294078      -280.1161
  10   2.0000     -10.294015      -280.1144
  11   2.0000     -10.286369      -279.9063
  12   2.0000     -10.285262      -279.8762
  13   2.0000     -10.284025      -279.8426
  14   2.0000     -10.277864      -279.6749
  15   2.0000     -10.271805      -279.5100
  16   2.0000      -8.082181      -219.9273
  17   2.0000      -8.075963      -219.7581
  18   2.0000      -6.040721      -164.3764
  19   2.0000      -6.036677      -164.2663
  20   2.0000      -6.034482      -164.2066
  21   2.0000      -6.032891      -164.1633
  22   2.0000      -6.030333      -164.0937
  23   2.0000      -6.026687      -163.9945
  24   2.0000      -1.014360       -27.6021
  25   2.0000      -0.986305       -26.8387
  26   2.0000      -0.923104       -25.1189
  27   2.0000      -0.916926       -24.9508
  28   2.0000      -0.879046       -23.9200
  29   2.0000      -0.853180       -23.2162
  30   2.0000      -0.845847       -23.0167
  31   2.0000      -0.820456       -22.3257
  32   2.0000      -0.780548       -21.2398
  33   2.0000      -0.770340       -20.9620
  34   2.0000      -0.709360       -19.3027
  35   2.0000      -0.703429       -19.1413
  36   2.0000      -0.696912       -18.9639
  37   2.0000      -0.674052       -18.3419
  38   2.0000      -0.649389       -17.6708
  39   2.0000      -0.612521       -16.6675
  40   2.0000      -0.599798       -16.3213
  41   2.0000      -0.578479       -15.7412
  42   2.0000      -0.574332       -15.6284
  43   2.0000      -0.556874       -15.1533
  44   2.0000      -0.547022       -14.8852
  45   2.0000      -0.527963       -14.3666
  46   2.0000      -0.524844       -14.2817
  47   2.0000      -0.517658       -14.0862
  48   2.0000      -0.514633       -14.0039
  49   2.0000      -0.504851       -13.7377
  50   2.0000      -0.495743       -13.4899
  51   2.0000      -0.481916       -13.1136
  52   2.0000      -0.479241       -13.0408
  53   2.0000      -0.465415       -12.6646
  54   2.0000      -0.461489       -12.5577
  55   2.0000      -0.443122       -12.0580
  56   2.0000      -0.439550       -11.9608
  57   2.0000      -0.437675       -11.9098
  58   2.0000      -0.428491       -11.6598
  59   2.0000      -0.424817       -11.5599
  60   2.0000      -0.419982       -11.4283
  61   2.0000      -0.411562       -11.1992
  62   2.0000      -0.408536       -11.1168
  63   2.0000      -0.357360        -9.7242
  64   2.0000      -0.330868        -9.0034
  65   2.0000      -0.327925        -8.9233
  66   2.0000      -0.291234        -7.9249
  67   0.0000       0.020064         0.5460
  68   0.0000       0.075811         2.0629
  69   0.0000       0.100441         2.7331
  70   0.0000       0.124453         3.3865
  71   0.0000       0.128639         3.5005

MULLIKEN ATOMIC CHARGES
-----------------------
   0 S :    0.094250
   1 C :   -0.125833
   2 C :   -0.069485
   3 C :    0.054092
   4 C :   -0.110197
   5 H :   -0.049424
   6 C :   -0.010738
   7 H :    0.029733
   8 H :    0.039332
   9 C :   -0.018650
  10 H :    0.036917
  11 H :    0.024502
  12 C :   -0.022582
  13 H :    0.023041
  14 H :    0.046002
  15 H :    0.003597
  16 S :    0.076269
  17 C :   -0.086233
  18 C :    0.014059
  19 C :   -0.062780
  20 C :   -0.107367
  21 H :    0.008049
  22 C :    0.020477
  23 H :    0.026230
  24 H :    0.021273
  25 C :   -0.070115
  26 H :    0.028950
  27 H :    0.031158
  28 C :   -0.045807
  29 H :    0.051758
  30 H :    0.028601
  31 H :    0.011049
  32 H :    0.054429
  33 H :    0.055445
Sum of atomic charges:   -0.0000000

LOEWDIN ATOMIC CHARGES
----------------------
   0 S :    0.404755
   1 C :   -0.178062
   2 C :   -0.054535
   3 C :   -0.060038
   4 C :   -0.200895
   5 H :    0.011716
   6 C :   -0.035881
   7 H :    0.029002
   8 H :    0.038406
   9 C :   -0.041499
  10 H :    0.032635
  11 H :    0.019225
  12 C :   -0.063184
  13 H :    0.025029
  14 H :    0.031540
  15 H :    0.018431
  16 S :    0.398883
  17 C :   -0.159864
  18 C :   -0.061384
  19 C :   -0.063312
  20 C :   -0.202730
  21 H :    0.028949
  22 C :   -0.040036
  23 H :    0.034042
  24 H :    0.025965
  25 C :   -0.038330
  26 H :    0.024051
  27 H :    0.018741
  28 C :   -0.071369
  29 H :    0.034835
  30 H :    0.024532
  31 H :    0.019013
  32 H :    0.026548
  33 H :    0.024822

  Mayer bond orders larger than 0.100000
B(  0-S ,  1-C ) :   1.1180 B(  0-S ,  4-C ) :   1.1749 B(  1-C ,  2-C ) :   1.5931
B(  1-C , 32-H ) :   0.9787 B(  2-C ,  3-C ) :   1.2428 B(  2-C ,  6-C ) :   1.0196
B(  3-C ,  4-C ) :   1.5108 B(  3-C ,  5-H ) :   1.0018 B(  4-C , 20-C ) :   1.0638
B(  6-C ,  7-H ) :   0.9444 B(  6-C ,  8-H ) :   0.9392 B(  6-C ,  9-C ) :   1.0669
B(  9-C , 10-H ) :   0.9495 B(  9-C , 11-H ) :   0.9519 B(  9-C , 12-C ) :   1.0765
B( 12-C , 13-H ) :   0.9730 B( 12-C , 14-H ) :   0.9686 B( 12-C , 15-H ) :   0.9657
B( 16-S , 17-C ) :   1.1575 B( 16-S , 20-C ) :   1.1262 B( 17-C , 18-C ) :   1.5738
B( 17-C , 33-H ) :   0.9759 B( 18-C , 19-C ) :   1.2416 B( 18-C , 21-H ) :   1.0048
B( 19-C , 20-C ) :   1.5948 B( 19-C , 22-C ) :   1.0680 B( 22-C , 23-H ) :   0.9288
B( 22-C , 24-H ) :   0.9335 B( 22-C , 25-C ) :   1.0605 B( 25-C , 26-H ) :   0.9518
B( 25-C , 27-H ) :   0.9534 B( 25-C , 28-C ) :   1.0709 B( 28-C , 29-H ) :   0.9758
B( 28-C , 30-H ) :   0.9716 B( 28-C , 31-H ) :   0.9695

Dispersion correction           -0.015349246
FINAL SINGLE POINT ENERGY     -1339.868672945275

DIPOLE MOMENT
-------------
                                X             Y             Z
Electronic contribution:    -16.36030       8.59499      25.38146
Nuclear contribution   :     16.79374      -8.54043     -25.86236
                        -----------------------------------------
Total Dipole Moment    :      0.43344       0.05456      -0.48090
                        -----------------------------------------
Magnitude (a.u.)       :      0.64970
Magnitude (Debye)      :      1.65141

Rotational constants in cm-1:     0.018549     0.010500     0.007035
Rotational constants in MHz :   556.080698   314.785833   210.915491

                             ****ORCA TERMINATED NORMALLY****
TOTAL RUN TIME: 0 days 0 hours 0 minutes 23 seconds 243 msec
