                         Program Version 4.2.1 -  RELEASE  -
|  1> ! wB97X-D3 SP def2-SVP
|  2> %pal
|  3> nprocs 24
|  4> end
|  5>
|  6> * xyz 0 1
|  7> S 	 -131.058 	 65.7318 	 -59.6918
|  8> C 	 -132.133 	 67.1701 	 -59.5923
|  9> C 	 -133.413 	 66.7881 	 -59.2943
| 10> C 	 -133.542 	 65.3475 	 -59.275
| 11> C 	 -132.439 	 64.6096 	 -59.5745
| 12> H 	 -134.474 	 64.7941 	 -58.9944
| 13> C 	 -134.472 	 67.7906 	 -58.8379
| 14> H 	 -133.902 	 68.7235 	 -58.5435
| 15> H 	 -134.957 	 67.4014 	 -57.9276
| 16> C 	 -135.628 	 68.0328 	 -59.8493
| 17> H 	 -136.214 	 67.1024 	 -59.862
| 18> H 	 -136.387 	 68.6856 	 -59.4362
| 19> C 	 -135.131 	 68.4923 	 -61.2546
| 20> H 	 -135.035 	 69.6017 	 -61.2938
| 21> H 	 -134.272 	 67.969 	 -61.6795
| 22> H 	 -135.931 	 68.3007 	 -61.9964
| 23> S 	 -132.347 	 62.2157 	 -60.8628
| 24> C 	 -132.462 	 60.7398 	 -59.933
| 25> C 	 -132.266 	 60.9056 	 -58.5878
| 26> C 	 -132.296 	 62.3048 	 -58.233
| 27> C 	 -132.335 	 63.1478 	 -59.3948
| 28> H 	 -132.189 	 60.0005 	 -57.9839
| 29> C 	 -132.075 	 62.7596 	 -56.7616
| 30> H 	 -132.809 	 63.5615 	 -56.635
| 31> H 	 -131.108 	 63.3137 	 -56.718
| 32> C 	 -132.414 	 61.8466 	 -55.4771
| 33> H 	 -131.79 	 61.0138 	 -55.6199
| 34> H 	 -133.405 	 61.5307 	 -55.5713
| 35> C 	 -132.268 	 62.3667 	 -54.0559
| 36> H 	 -132.303 	 61.6602 	 -53.2709
| 37> H 	 -132.989 	 63.2046 	 -53.844
| 38> H 	 -131.234 	 62.8681 	 -53.8757
| 39> H 	 -131.859 	 68.2153 	 -59.4914
| 40> H 	 -132.58 	 59.7728 	 -60.3379
| 41> *
| 42>
| 43>                          ****END OF INPUT****

CARTESIAN COORDINATES (ANGSTROEM)
---------------------------------
  S    -131.058000   65.731800  -59.691800
  C    -132.133000   67.170100  -59.592300
  C    -133.413000   66.788100  -59.294300
  C    -133.542000   65.347500  -59.275000
  C    -132.439000   64.609600  -59.574500
  H    -134.474000   64.794100  -58.994400
  C    -134.472000   67.790600  -58.837900
  H    -133.902000   68.723500  -58.543500
  H    -134.957000   67.401400  -57.927600
  C    -135.628000   68.032800  -59.849300
  H    -136.214000   67.102400  -59.862000
  H    -136.387000   68.685600  -59.436200
  C    -135.131000   68.492300  -61.254600
  H    -135.035000   69.601700  -61.293800
  H    -134.272000   67.969000  -61.679500
  H    -135.931000   68.300700  -61.996400
  S    -132.347000   62.215700  -60.862800
  C    -132.462000   60.739800  -59.933000
  C    -132.266000   60.905600  -58.587800
  C    -132.296000   62.304800  -58.233000
  C    -132.335000   63.147800  -59.394800
  H    -132.189000   60.000500  -57.983900
  C    -132.075000   62.759600  -56.761600
  H    -132.809000   63.561500  -56.635000
  H    -131.108000   63.313700  -56.718000
  C    -132.414000   61.846600  -55.477100
  H    -131.790000   61.013800  -55.619900
  H    -133.405000   61.530700  -55.571300
  C    -132.268000   62.366700  -54.055900
  H    -132.303000   61.660200  -53.270900
  H    -132.989000   63.204600  -53.844000
  H    -131.234000   62.868100  -53.875700
  H    -131.859000   68.215300  -59.491400
  H    -132.580000   59.772800  -60.337900

 Total Charge           Charge          ....    0
 Multiplicity           Mult            ....    1
 Number of Electrons    NEL             ....  134
 Basis Dimension        Dim             ....  322

ORBITAL ENERGIES
----------------

  NO   OCC          E(Eh)            E(eV)
   0   2.0000     -88.968082     -2420.9446
   1   2.0000     -88.963629     -2420.8234
   2   2.0000     -10.331833      -281.1435
   3   2.0000     -10.330091      -281.0961
   4   2.0000     -10.319526      -280.8086
   5   2.0000     -10.317042      -280.7410
   6   2.0000     -10.312692      -280.6226
   7   2.0000     -10.301394      -280.3152
   8   2.0000     -10.300863      -280.3007
   9   2.0000     -10.299705      -280.2692
  10   2.0000     -10.297382      -280.2060
  11   2.0000     -10.295400      -280.1521
  12   2.0000     -10.291360      -280.0421
  13   2.0000     -10.289154      -279.9821
  14   2.0000     -10.287463      -279.9361
  15   2.0000     -10.280513      -279.7470
  16   2.0000      -8.082967      -219.9487
  17   2.0000      -8.077074      -219.7884
  18   2.0000      -6.041379      -164.3943
  19   2.0000      -6.037490      -164.2885
  20   2.0000      -6.035868      -164.2443
  21   2.0000      -6.033782      -164.1876
  22   2.0000      -6.031884      -164.1359
  23   2.0000      -6.027459      -164.0155
  24   2.0000      -1.000900       -27.2359
  25   2.0000      -0.979928       -26.6652
  26   2.0000      -0.904549       -24.6140
  27   2.0000      -0.898270       -24.4432
  28   2.0000      -0.867370       -23.6023
  29   2.0000      -0.850704       -23.1488
  30   2.0000      -0.835676       -22.7399
  31   2.0000      -0.817080       -22.2339
  32   2.0000      -0.780202       -21.2304
  33   2.0000      -0.770556       -20.9679
  34   2.0000      -0.711571       -19.3628
  35   2.0000      -0.701781       -19.0964
  36   2.0000      -0.693581       -18.8733
  37   2.0000      -0.650869       -17.7111
  38   2.0000      -0.635285       -17.2870
  39   2.0000      -0.614327       -16.7167
  40   2.0000      -0.590762       -16.0755
  41   2.0000      -0.565198       -15.3798
  42   2.0000      -0.564187       -15.3523
  43   2.0000      -0.543066       -14.7776
  44   2.0000      -0.541530       -14.7358
  45   2.0000      -0.521343       -14.1865
  46   2.0000      -0.518274       -14.1030
  47   2.0000      -0.510161       -13.8822
  48   2.0000      -0.497813       -13.5462
  49   2.0000      -0.494281       -13.4501
  50   2.0000      -0.482428       -13.1275
  51   2.0000      -0.480566       -13.0769
  52   2.0000      -0.469863       -12.7856
  53   2.0000      -0.463045       -12.6001
  54   2.0000      -0.458089       -12.4652
  55   2.0000      -0.456233       -12.4147
  56   2.0000      -0.444219       -12.0878
  57   2.0000      -0.434501       -11.8234
  58   2.0000      -0.426692       -11.6109
  59   2.0000      -0.425108       -11.5678
  60   2.0000      -0.420236       -11.4352
  61   2.0000      -0.413121       -11.2416
  62   2.0000      -0.404222       -10.9994
  63   2.0000      -0.338251        -9.2043
  64   2.0000      -0.327525        -8.9124
  65   2.0000      -0.323302        -8.7975
  66   2.0000      -0.307324        -8.3627
  67   0.0000       0.043601         1.1864
  68   0.0000       0.048210         1.3119
  69   0.0000       0.106319         2.8931
  70   0.0000       0.112970         3.0741
  71   0.0000       0.134952         3.6722

MULLIKEN ATOMIC CHARGES
-----------------------
   0 S :    0.088266
   1 C :   -0.110202
   2 C :   -0.096938
   3 C :    0.028920
   4 C :   -0.139424
   5 H :    0.030236
   6 C :    0.044995
   7 H :    0.030083
   8 H :    0.032959
   9 C :   -0.063187
  10 H :    0.024070
  11 H :    0.026170
  12 C :   -0.069797
  13 H :    0.037896
  14 H :    0.055361
  15 H :    0.028692
  16 S :    0.125592
  17 C :   -0.077986
  18 C :   -0.052207
  19 C :   -0.014780
  20 C :   -0.198558
  21 H :    0.031301
  22 C :    0.029703
  23 H :    0.021127
  24 H :    0.052796
  25 C :   -0.033979
  26 H :    0.022922
  27 H :    0.022001
  28 C :   -0.069822
  29 H :    0.034867
  30 H :    0.039880
  31 H :    0.032864
  32 H :    0.049320
  33 H :    0.036860
Sum of atomic charges:   -0.0000000

LOEWDIN ATOMIC CHARGES
----------------------
   0 S :    0.365119
   1 C :   -0.178613
   2 C :   -0.068883
   3 C :   -0.059772
   4 C :   -0.199259
   5 H :    0.038351
   6 C :   -0.031926
   7 H :    0.032265
   8 H :    0.033903
   9 C :   -0.045472
  10 H :    0.024663
  11 H :    0.024636
  12 C :   -0.075848
  13 H :    0.029798
  14 H :    0.029881
  15 H :    0.029483
  16 S :    0.424679
  17 C :   -0.177441
  18 C :   -0.077401
  19 C :   -0.041764
  20 C :   -0.213876
  21 H :    0.037708
  22 C :   -0.041061
  23 H :    0.031432
  24 H :    0.039487
  25 C :   -0.034624
  26 H :    0.015061
  27 H :    0.020065
  28 C :   -0.068648
  29 H :    0.023239
  30 H :    0.030094
  31 H :    0.033807
  32 H :    0.031587
  33 H :    0.019333

  Mayer bond orders larger than 0.100000
B(  0-S ,  1-C ) :   1.1238 B(  0-S ,  4-C ) :   1.1137 B(  1-C ,  2-C ) :   1.6404
B(  1-C , 32-H ) :   0.9623 B(  2-C ,  3-C ) :   1.2107 B(  2-C ,  6-C ) :   1.0184
B(  3-C ,  4-C ) :   1.6321 B(  3-C ,  5-H ) :   0.9852 B(  4-C , 20-C ) :   1.0133
B(  6-C ,  7-H ) :   0.9471 B(  6-C ,  8-H ) :   0.9433 B(  6-C ,  9-C ) :   1.0643
B(  9-C , 10-H ) :   0.9577 B(  9-C , 11-H ) :   0.9562 B(  9-C , 12-C ) :   1.0647
B( 12-C , 13-H ) :   0.9768 B( 12-C , 14-H ) :   0.9756 B( 12-C , 15-H ) :   0.9742
B( 16-S , 17-C ) :   1.1690 B( 16-S , 20-C ) :   1.1577 B( 17-C , 18-C ) :   1.6207
B( 17-C , 20-C ) :   0.1003 B( 17-C , 33-H ) :   0.9673 B( 18-C , 19-C ) :   1.2339
B( 18-C , 21-H ) :   0.9866 B( 19-C , 20-C ) :   1.5821 B( 19-C , 22-C ) :   1.0256
B( 22-C , 23-H ) :   0.9322 B( 22-C , 24-H ) :   0.9412 B( 22-C , 25-C ) :   1.0472
B( 25-C , 26-H ) :   0.9535 B( 25-C , 27-H ) :   0.9571 B( 25-C , 28-C ) :   1.0894
B( 28-C , 29-H ) :   0.9729 B( 28-C , 30-H ) :   0.9751 B( 28-C , 31-H ) :   0.9731

Dispersion correction           -0.013895318
FINAL SINGLE POINT ENERGY     -1339.854474487121

DIPOLE MOMENT
-------------
                                X             Y             Z
Electronic contribution:     12.69646      -8.75197     -16.66352
Nuclear contribution   :    -13.17594       8.71064      17.30002
                        -----------------------------------------
Total Dipole Moment    :     -0.47948      -0.04133       0.63650
                        -----------------------------------------
Magnitude (a.u.)       :      0.79796
Magnitude (Debye)      :      2.02826

Rotational constants in cm-1:     0.017700     0.007672     0.006398
Rotational constants in MHz :   530.635875   230.011892   191.808253

                             ****ORCA TERMINATED NORMALLY****
TOTAL RUN TIME: 0 days 0 hours 0 minutes 20 seconds 630 msec
