                         Program Version 4.2.1 -  RELEASE  -
|  1> ! wB97X-D3 SP def2-SVP
|  2> %pal
|  3> nprocs 24
|  4> end
|  5>
|  6> * xyz 0 1
|  7> S 	 -77.4015 	 -16.2242 	 -52.8991
|  8> C 	 -78.3362 	 -17.6622 	 -52.6459
|  9> C 	 -79.7021 	 -17.3604 	 -52.5531
| 10> C 	 -79.8923 	 -15.93 	 -52.3798
| 11> C 	 -78.7007 	 -15.217 	 -52.4386
| 12> H 	 -80.8619 	 -15.4437 	 -52.2464
| 13> C 	 -80.8547 	 -18.329 	 -52.541
| 14> H 	 -81.2943 	 -18.3495 	 -51.5036
| 15> H 	 -80.3725 	 -19.327 	 -52.7074
| 16> C 	 -81.9485 	 -18.1378 	 -53.6534
| 17> H 	 -82.7577 	 -18.8208 	 -53.5514
| 18> H 	 -82.3997 	 -17.1096 	 -53.4198
| 19> C 	 -81.3922 	 -18.2163 	 -55.0959
| 20> H 	 -80.699 	 -17.3575 	 -55.2767
| 21> H 	 -80.8856 	 -19.1319 	 -55.3058
| 22> H 	 -82.1479 	 -17.9199 	 -55.786
| 23> S 	 -77.6557 	 -12.8098 	 -53.3076
| 24> C 	 -77.7394 	 -11.3921 	 -52.2898
| 25> C 	 -78.4601 	 -11.6917 	 -51.1431
| 26> C 	 -78.9327 	 -13.0141 	 -51.0534
| 27> C 	 -78.4467 	 -13.7937 	 -52.0858
| 28> H 	 -78.6888 	 -10.8005 	 -50.5401
| 29> C 	 -79.8836 	 -13.5244 	 -49.9871
| 30> H 	 -79.7143 	 -14.6039 	 -49.858
| 31> H 	 -80.8439 	 -13.5048 	 -50.3806
| 32> C 	 -79.8687 	 -12.8942 	 -48.5567
| 33> H 	 -80.2361 	 -11.8616 	 -48.6325
| 34> H 	 -78.8374 	 -12.8686 	 -48.0997
| 35> C 	 -80.9267 	 -13.5795 	 -47.629
| 36> H 	 -80.6895 	 -13.2906 	 -46.6031
| 37> H 	 -80.761 	 -14.6696 	 -47.6746
| 38> H 	 -81.9943 	 -13.3409 	 -47.7281
| 39> H 	 -77.9806 	 -18.6133 	 -52.92
| 40> H 	 -77.4818 	 -10.3778 	 -52.5863
| 41> *
| 42>
| 43>                          ****END OF INPUT****

CARTESIAN COORDINATES (ANGSTROEM)
---------------------------------
  S    -77.401500  -16.224200  -52.899100
  C    -78.336200  -17.662200  -52.645900
  C    -79.702100  -17.360400  -52.553100
  C    -79.892300  -15.930000  -52.379800
  C    -78.700700  -15.217000  -52.438600
  H    -80.861900  -15.443700  -52.246400
  C    -80.854700  -18.329000  -52.541000
  H    -81.294300  -18.349500  -51.503600
  H    -80.372500  -19.327000  -52.707400
  C    -81.948500  -18.137800  -53.653400
  H    -82.757700  -18.820800  -53.551400
  H    -82.399700  -17.109600  -53.419800
  C    -81.392200  -18.216300  -55.095900
  H    -80.699000  -17.357500  -55.276700
  H    -80.885600  -19.131900  -55.305800
  H    -82.147900  -17.919900  -55.786000
  S    -77.655700  -12.809800  -53.307600
  C    -77.739400  -11.392100  -52.289800
  C    -78.460100  -11.691700  -51.143100
  C    -78.932700  -13.014100  -51.053400
  C    -78.446700  -13.793700  -52.085800
  H    -78.688800  -10.800500  -50.540100
  C    -79.883600  -13.524400  -49.987100
  H    -79.714300  -14.603900  -49.858000
  H    -80.843900  -13.504800  -50.380600
  C    -79.868700  -12.894200  -48.556700
  H    -80.236100  -11.861600  -48.632500
  H    -78.837400  -12.868600  -48.099700
  C    -80.926700  -13.579500  -47.629000
  H    -80.689500  -13.290600  -46.603100
  H    -80.761000  -14.669600  -47.674600
  H    -81.994300  -13.340900  -47.728100
  H    -77.980600  -18.613300  -52.920000
  H    -77.481800  -10.377800  -52.586300

 Total Charge           Charge          ....    0
 Multiplicity           Mult            ....    1
 Number of Electrons    NEL             ....  134
 Basis Dimension        Dim             ....  322

ORBITAL ENERGIES
----------------

  NO   OCC          E(Eh)            E(eV)
   0   2.0000     -88.964472     -2420.8463
   1   2.0000     -88.964333     -2420.8426
   2   2.0000     -10.328926      -281.0644
   3   2.0000     -10.326807      -281.0067
   4   2.0000     -10.316756      -280.7332
   5   2.0000     -10.310514      -280.5634
   6   2.0000     -10.305423      -280.4248
   7   2.0000     -10.303606      -280.3754
   8   2.0000     -10.301144      -280.3084
   9   2.0000     -10.296587      -280.1844
  10   2.0000     -10.296453      -280.1807
  11   2.0000     -10.296386      -280.1789
  12   2.0000     -10.293235      -280.0932
  13   2.0000     -10.288057      -279.9523
  14   2.0000     -10.283074      -279.8167
  15   2.0000     -10.276518      -279.6383
  16   2.0000      -8.080266      -219.8752
  17   2.0000      -8.079168      -219.8453
  18   2.0000      -6.038708      -164.3216
  19   2.0000      -6.037633      -164.2923
  20   2.0000      -6.034683      -164.2121
  21   2.0000      -6.033690      -164.1850
  22   2.0000      -6.030940      -164.1102
  23   2.0000      -6.029982      -164.0842
  24   2.0000      -1.008520       -27.4432
  25   2.0000      -0.986427       -26.8421
  26   2.0000      -0.907044       -24.6819
  27   2.0000      -0.903180       -24.5768
  28   2.0000      -0.865188       -23.5430
  29   2.0000      -0.850690       -23.1484
  30   2.0000      -0.842983       -22.9387
  31   2.0000      -0.813860       -22.1462
  32   2.0000      -0.782504       -21.2930
  33   2.0000      -0.773069       -21.0363
  34   2.0000      -0.707911       -19.2632
  35   2.0000      -0.700980       -19.0746
  36   2.0000      -0.693364       -18.8674
  37   2.0000      -0.650175       -17.6922
  38   2.0000      -0.638474       -17.3738
  39   2.0000      -0.621216       -16.9041
  40   2.0000      -0.596101       -16.2207
  41   2.0000      -0.565083       -15.3767
  42   2.0000      -0.562723       -15.3125
  43   2.0000      -0.552260       -15.0278
  44   2.0000      -0.541763       -14.7421
  45   2.0000      -0.523245       -14.2382
  46   2.0000      -0.517851       -14.0915
  47   2.0000      -0.510731       -13.8977
  48   2.0000      -0.501598       -13.6492
  49   2.0000      -0.497780       -13.5453
  50   2.0000      -0.487666       -13.2701
  51   2.0000      -0.479553       -13.0493
  52   2.0000      -0.468338       -12.7441
  53   2.0000      -0.465388       -12.6639
  54   2.0000      -0.458429       -12.4745
  55   2.0000      -0.447587       -12.1795
  56   2.0000      -0.442589       -12.0435
  57   2.0000      -0.438258       -11.9256
  58   2.0000      -0.435206       -11.8426
  59   2.0000      -0.423009       -11.5107
  60   2.0000      -0.419135       -11.4052
  61   2.0000      -0.417955       -11.3731
  62   2.0000      -0.413503       -11.2520
  63   2.0000      -0.345168        -9.3925
  64   2.0000      -0.330981        -9.0064
  65   2.0000      -0.327342        -8.9074
  66   2.0000      -0.292699        -7.9647
  67   0.0000       0.030894         0.8407
  68   0.0000       0.066934         1.8214
  69   0.0000       0.107584         2.9275
  70   0.0000       0.127514         3.4698
  71   0.0000       0.128090         3.4855

MULLIKEN ATOMIC CHARGES
-----------------------
   0 S :    0.118760
   1 C :   -0.089702
   2 C :   -0.119715
   3 C :    0.009133
   4 C :   -0.151155
   5 H :    0.019721
   6 C :    0.038569
   7 H :    0.053951
   8 H :    0.017352
   9 C :   -0.086312
  10 H :    0.031121
  11 H :    0.032612
  12 C :   -0.038379
  13 H :    0.038913
  14 H :    0.038698
  15 H :    0.028189
  16 S :    0.097978
  17 C :   -0.093400
  18 C :   -0.070329
  19 C :    0.003695
  20 C :   -0.146031
  21 H :    0.027476
  22 C :    0.058896
  23 H :    0.034722
  24 H :    0.020224
  25 C :   -0.092370
  26 H :    0.031696
  27 H :    0.053457
  28 C :   -0.065929
  29 H :    0.028956
  30 H :    0.032611
  31 H :    0.045198
  32 H :    0.032099
  33 H :    0.059296
Sum of atomic charges:    0.0000000

LOEWDIN ATOMIC CHARGES
----------------------
   0 S :    0.432918
   1 C :   -0.200446
   2 C :   -0.060877
   3 C :   -0.068944
   4 C :   -0.206182
   5 H :    0.031203
   6 C :   -0.040750
   7 H :    0.039927
   8 H :    0.029098
   9 C :   -0.039094
  10 H :    0.018937
  11 H :    0.028427
  12 C :   -0.066009
  13 H :    0.035258
  14 H :    0.022703
  15 H :    0.025851
  16 S :    0.402133
  17 C :   -0.188978
  18 C :   -0.078338
  19 C :   -0.056070
  20 C :   -0.196327
  21 H :    0.036468
  22 C :   -0.033215
  23 H :    0.035326
  24 H :    0.023871
  25 C :   -0.040775
  26 H :    0.022911
  27 H :    0.034284
  28 C :   -0.071866
  29 H :    0.027679
  30 H :    0.025159
  31 H :    0.028253
  32 H :    0.015354
  33 H :    0.032110

  Mayer bond orders larger than 0.100000
B(  0-S ,  1-C ) :   1.1485 B(  0-S ,  4-C ) :   1.1794 B(  1-C ,  2-C ) :   1.5993
B(  1-C , 32-H ) :   0.9672 B(  2-C ,  3-C ) :   1.2286 B(  2-C ,  6-C ) :   1.0240
B(  3-C ,  4-C ) :   1.5581 B(  3-C ,  5-H ) :   0.9983 B(  4-C , 20-C ) :   0.9970
B(  6-C ,  7-H ) :   0.9433 B(  6-C ,  8-H ) :   0.9413 B(  6-C ,  9-C ) :   1.0613
B(  9-C , 10-H ) :   0.9603 B(  9-C , 11-H ) :   0.9552 B(  9-C , 12-C ) :   1.0722
B( 12-C , 13-H ) :   0.9703 B( 12-C , 14-H ) :   0.9777 B( 12-C , 15-H ) :   0.9708
B( 16-S , 17-C ) :   1.1557 B( 16-S , 20-C ) :   1.1554 B( 17-C , 18-C ) :   1.6044
B( 17-C , 20-C ) :   0.1061 B( 17-C , 33-H ) :   0.9656 B( 18-C , 19-C ) :   1.2430
B( 18-C , 21-H ) :   0.9890 B( 19-C , 20-C ) :   1.5957 B( 19-C , 22-C ) :   1.0330
B( 22-C , 23-H ) :   0.9309 B( 22-C , 24-H ) :   0.9274 B( 22-C , 25-C ) :   1.0668
B( 25-C , 26-H ) :   0.9475 B( 25-C , 27-H ) :   0.9620 B( 25-C , 28-C ) :   1.0759
B( 28-C , 29-H ) :   0.9735 B( 28-C , 30-H ) :   0.9763 B( 28-C , 31-H ) :   0.9768

Dispersion correction           -0.014115672
FINAL SINGLE POINT ENERGY     -1339.878931179194

DIPOLE MOMENT
-------------
                                X             Y             Z
Electronic contribution:     21.55957       7.94802     -11.15187
Nuclear contribution   :    -22.28649      -7.94384      11.36344
                        -----------------------------------------
Total Dipole Moment    :     -0.72692       0.00417       0.21157
                        -----------------------------------------
Magnitude (a.u.)       :      0.75709
Magnitude (Debye)      :      1.92438

Rotational constants in cm-1:     0.017175     0.008663     0.006715
Rotational constants in MHz :   514.902078   259.715085   201.309038

                             ****ORCA TERMINATED NORMALLY****
TOTAL RUN TIME: 0 days 0 hours 0 minutes 21 seconds 335 msec
