                         Program Version 4.2.1 -  RELEASE  -
|  1> ! wB97X-D3 SP def2-SVP
|  2> %pal
|  3> nprocs 24
|  4> end
|  5>
|  6> * xyz 0 1
|  7> S 	 -117.983 	 58.4998 	 -34.0607
|  8> C 	 -118.388 	 58.8852 	 -32.358
|  9> C 	 -118.733 	 60.2016 	 -32.1478
| 10> C 	 -118.776 	 60.897 	 -33.4583
| 11> C 	 -118.392 	 60.1339 	 -34.5713
| 12> H 	 -118.969 	 61.9671 	 -33.5379
| 13> C 	 -118.983 	 60.7929 	 -30.8003
| 14> H 	 -118.029 	 61.2066 	 -30.3877
| 15> H 	 -119.225 	 59.9626 	 -30.0757
| 16> C 	 -120.089 	 61.8554 	 -30.6825
| 17> H 	 -120.217 	 62.1541 	 -29.6618
| 18> H 	 -119.737 	 62.7968 	 -31.0399
| 19> C 	 -121.45 	 61.5822 	 -31.3127
| 20> H 	 -121.448 	 61.3379 	 -32.3594
| 21> H 	 -121.946 	 60.7954 	 -30.7671
| 22> H 	 -122.148 	 62.4271 	 -31.197
| 23> S 	 -116.506 	 60.8398 	 -36.4603
| 24> C 	 -116.993 	 61.8612 	 -37.7739
| 25> C 	 -118.322 	 62.1598 	 -37.6786
| 26> C 	 -118.988 	 61.5735 	 -36.6058
| 27> C 	 -118.142 	 60.7376 	 -35.8648
| 28> H 	 -118.787 	 62.7385 	 -38.4481
| 29> C 	 -120.501 	 61.691 	 -36.4356
| 30> H 	 -120.677 	 61.5443 	 -35.4092
| 31> H 	 -120.945 	 60.7815 	 -36.8763
| 32> C 	 -121.151 	 63.0723 	 -36.7748
| 33> H 	 -122.255 	 62.9609 	 -36.6243
| 34> H 	 -121.101 	 63.3699 	 -37.812
| 35> C 	 -120.555 	 64.2093 	 -35.8723
| 36> H 	 -121.268 	 64.9352 	 -35.5619
| 37> H 	 -119.709 	 64.7226 	 -36.3514
| 38> H 	 -120.287 	 63.794 	 -34.9006
| 39> H 	 -118.571 	 58.2029 	 -31.5479
| 40> H 	 -116.367 	 62.1618 	 -38.5822
| 41> *
| 42>
| 43>                          ****END OF INPUT****

CARTESIAN COORDINATES (ANGSTROEM)
---------------------------------
  S    -117.983000   58.499800  -34.060700
  C    -118.388000   58.885200  -32.358000
  C    -118.733000   60.201600  -32.147800
  C    -118.776000   60.897000  -33.458300
  C    -118.392000   60.133900  -34.571300
  H    -118.969000   61.967100  -33.537900
  C    -118.983000   60.792900  -30.800300
  H    -118.029000   61.206600  -30.387700
  H    -119.225000   59.962600  -30.075700
  C    -120.089000   61.855400  -30.682500
  H    -120.217000   62.154100  -29.661800
  H    -119.737000   62.796800  -31.039900
  C    -121.450000   61.582200  -31.312700
  H    -121.448000   61.337900  -32.359400
  H    -121.946000   60.795400  -30.767100
  H    -122.148000   62.427100  -31.197000
  S    -116.506000   60.839800  -36.460300
  C    -116.993000   61.861200  -37.773900
  C    -118.322000   62.159800  -37.678600
  C    -118.988000   61.573500  -36.605800
  C    -118.142000   60.737600  -35.864800
  H    -118.787000   62.738500  -38.448100
  C    -120.501000   61.691000  -36.435600
  H    -120.677000   61.544300  -35.409200
  H    -120.945000   60.781500  -36.876300
  C    -121.151000   63.072300  -36.774800
  H    -122.255000   62.960900  -36.624300
  H    -121.101000   63.369900  -37.812000
  C    -120.555000   64.209300  -35.872300
  H    -121.268000   64.935200  -35.561900
  H    -119.709000   64.722600  -36.351400
  H    -120.287000   63.794000  -34.900600
  H    -118.571000   58.202900  -31.547900
  H    -116.367000   62.161800  -38.582200

 Total Charge           Charge          ....    0
 Multiplicity           Mult            ....    1
 Number of Electrons    NEL             ....  134
 Basis Dimension        Dim             ....  322

ORBITAL ENERGIES
----------------

  NO   OCC          E(Eh)            E(eV)
   0   2.0000     -88.968860     -2420.9658
   1   2.0000     -88.964565     -2420.8489
   2   2.0000     -10.332697      -281.1670
   3   2.0000     -10.323638      -280.9205
   4   2.0000     -10.314765      -280.6790
   5   2.0000     -10.310712      -280.5687
   6   2.0000     -10.305612      -280.4300
   7   2.0000     -10.303470      -280.3717
   8   2.0000     -10.300749      -280.2976
   9   2.0000     -10.298290      -280.2307
  10   2.0000     -10.295596      -280.1574
  11   2.0000     -10.289401      -279.9888
  12   2.0000     -10.284946      -279.8676
  13   2.0000     -10.283880      -279.8386
  14   2.0000     -10.278719      -279.6982
  15   2.0000     -10.276133      -279.6278
  16   2.0000      -8.082441      -219.9344
  17   2.0000      -8.079677      -219.8592
  18   2.0000      -6.041205      -164.3896
  19   2.0000      -6.038057      -164.3039
  20   2.0000      -6.037122      -164.2784
  21   2.0000      -6.034087      -164.1959
  22   2.0000      -6.032987      -164.1659
  23   2.0000      -6.030594      -164.1008
  24   2.0000      -1.005607       -27.3639
  25   2.0000      -0.979133       -26.6436
  26   2.0000      -0.913199       -24.8494
  27   2.0000      -0.904064       -24.6008
  28   2.0000      -0.871650       -23.7188
  29   2.0000      -0.846893       -23.0451
  30   2.0000      -0.842442       -22.9240
  31   2.0000      -0.811676       -22.0868
  32   2.0000      -0.786807       -21.4101
  33   2.0000      -0.775554       -21.1039
  34   2.0000      -0.714393       -19.4396
  35   2.0000      -0.705445       -19.1961
  36   2.0000      -0.698407       -19.0046
  37   2.0000      -0.654264       -17.8034
  38   2.0000      -0.633361       -17.2346
  39   2.0000      -0.617496       -16.8029
  40   2.0000      -0.599077       -16.3017
  41   2.0000      -0.566104       -15.4045
  42   2.0000      -0.555471       -15.1151
  43   2.0000      -0.553135       -15.0516
  44   2.0000      -0.541844       -14.7443
  45   2.0000      -0.535029       -14.5589
  46   2.0000      -0.518890       -14.1197
  47   2.0000      -0.506456       -13.7814
  48   2.0000      -0.503894       -13.7117
  49   2.0000      -0.495365       -13.4796
  50   2.0000      -0.484439       -13.1822
  51   2.0000      -0.477310       -12.9883
  52   2.0000      -0.472119       -12.8470
  53   2.0000      -0.466440       -12.6925
  54   2.0000      -0.453595       -12.3429
  55   2.0000      -0.446930       -12.1616
  56   2.0000      -0.443466       -12.0673
  57   2.0000      -0.441468       -12.0130
  58   2.0000      -0.439040       -11.9469
  59   2.0000      -0.430227       -11.7071
  60   2.0000      -0.424919       -11.5626
  61   2.0000      -0.416511       -11.3339
  62   2.0000      -0.411585       -11.1998
  63   2.0000      -0.345011        -9.3882
  64   2.0000      -0.330649        -8.9974
  65   2.0000      -0.327522        -8.9123
  66   2.0000      -0.291175        -7.9233
  67   0.0000       0.031093         0.8461
  68   0.0000       0.066626         1.8130
  69   0.0000       0.116383         3.1670
  70   0.0000       0.118733         3.2309
  71   0.0000       0.127593         3.4720

MULLIKEN ATOMIC CHARGES
-----------------------
   0 S :    0.109530
   1 C :   -0.113540
   2 C :   -0.099715
   3 C :    0.029397
   4 C :   -0.164375
   5 H :    0.018651
   6 C :    0.051861
   7 H :    0.055342
   8 H :    0.026476
   9 C :   -0.055624
  10 H :    0.014898
  11 H :    0.009367
  12 C :   -0.043426
  13 H :    0.039214
  14 H :    0.022958
  15 H :    0.029486
  16 S :    0.117066
  17 C :   -0.085322
  18 C :   -0.027699
  19 C :   -0.056543
  20 C :   -0.150502
  21 H :    0.005022
  22 C :    0.107491
  23 H :   -0.003196
  24 H :    0.048036
  25 C :   -0.092676
  26 H :    0.037218
  27 H :    0.031445
  28 C :   -0.041289
  29 H :    0.024289
  30 H :    0.049590
  31 H :    0.017994
  32 H :    0.042028
  33 H :    0.046548
Sum of atomic charges:   -0.0000000

LOEWDIN ATOMIC CHARGES
----------------------
   0 S :    0.383888
   1 C :   -0.185062
   2 C :   -0.061327
   3 C :   -0.055546
   4 C :   -0.198306
   5 H :    0.027722
   6 C :   -0.036175
   7 H :    0.045269
   8 H :    0.035447
   9 C :   -0.047642
  10 H :    0.026687
  11 H :    0.018195
  12 C :   -0.064864
  13 H :    0.022783
  14 H :    0.023276
  15 H :    0.030982
  16 S :    0.422134
  17 C :   -0.186023
  18 C :   -0.072692
  19 C :   -0.057091
  20 C :   -0.206743
  21 H :    0.027837
  22 C :   -0.029644
  23 H :    0.020866
  24 H :    0.040914
  25 C :   -0.041066
  26 H :    0.031896
  27 H :    0.018099
  28 C :   -0.065508
  29 H :    0.023298
  30 H :    0.031610
  31 H :    0.024080
  32 H :    0.026857
  33 H :    0.025849

  Mayer bond orders larger than 0.100000
B(  0-S ,  1-C ) :   1.1187 B(  0-S ,  4-C ) :   1.1298 B(  1-C ,  2-C ) :   1.6518
B(  1-C , 32-H ) :   0.9587 B(  2-C ,  3-C ) :   1.2143 B(  2-C ,  6-C ) :   1.0306
B(  3-C ,  4-C ) :   1.5852 B(  3-C ,  5-H ) :   0.9847 B(  4-C , 20-C ) :   1.0368
B(  6-C ,  7-H ) :   0.9319 B(  6-C ,  8-H ) :   0.9408 B(  6-C ,  9-C ) :   1.0730
B(  9-C , 10-H ) :   0.9482 B(  9-C , 11-H ) :   0.9463 B(  9-C , 12-C ) :   1.0844
B( 12-C , 13-H ) :   0.9727 B( 12-C , 14-H ) :   0.9747 B( 12-C , 15-H ) :   0.9710
B( 16-S , 17-C ) :   1.1668 B( 16-S , 20-C ) :   1.1606 B( 17-C , 18-C ) :   1.5790
B( 17-C , 20-C ) :   0.1050 B( 17-C , 33-H ) :   0.9701 B( 18-C , 19-C ) :   1.2822
B( 18-C , 21-H ) :   0.9956 B( 19-C , 20-C ) :   1.5612 B( 19-C , 22-C ) :   1.0242
B( 22-C , 23-H ) :   0.9257 B( 22-C , 24-H ) :   0.9343 B( 22-C , 25-C ) :   1.0709
B( 25-C , 26-H ) :   0.9583 B( 25-C , 27-H ) :   0.9595 B( 25-C , 28-C ) :   1.0592
B( 28-C , 29-H ) :   0.9731 B( 28-C , 30-H ) :   0.9753 B( 28-C , 31-H ) :   0.9781

Dispersion correction           -0.015353652
FINAL SINGLE POINT ENERGY     -1339.881077317231

DIPOLE MOMENT
-------------
                                X             Y             Z
Electronic contribution:     21.50161     -17.95950     -11.06963
Nuclear contribution   :    -22.00643      18.53220      11.36787
                        -----------------------------------------
Total Dipole Moment    :     -0.50482       0.57269       0.29824
                        -----------------------------------------
Magnitude (a.u.)       :      0.81961
Magnitude (Debye)      :      2.08329

Rotational constants in cm-1:     0.017065     0.010333     0.007262
Rotational constants in MHz :   511.591934   309.764029   217.709119

                             ****ORCA TERMINATED NORMALLY****
TOTAL RUN TIME: 0 days 0 hours 0 minutes 22 seconds 541 msec
