                         Program Version 4.2.1 -  RELEASE  -
|  1> ! wB97X-D3 SP def2-SVP
|  2> %pal
|  3> nprocs 24
|  4> end
|  5>
|  6> * xyz 0 1
|  7> S 	 -84.4587 	 -38.5068 	 -72.9212
|  8> C 	 -84.2565 	 -38.4038 	 -74.6592
|  9> C 	 -83.473 	 -39.4253 	 -75.209
| 10> C 	 -83.0193 	 -40.2472 	 -74.1703
| 11> C 	 -83.4937 	 -39.935 	 -72.8974
| 12> H 	 -82.4597 	 -41.1002 	 -74.4207
| 13> C 	 -83.1767 	 -39.7299 	 -76.6564
| 14> H 	 -84.1563 	 -39.8863 	 -77.1511
| 15> H 	 -82.7679 	 -40.7016 	 -76.6701
| 16> C 	 -82.3977 	 -38.6926 	 -77.4838
| 17> H 	 -82.5331 	 -38.8705 	 -78.5174
| 18> H 	 -82.8143 	 -37.7026 	 -77.2788
| 19> C 	 -80.8742 	 -38.6968 	 -77.1771
| 20> H 	 -80.7794 	 -38.4649 	 -76.1443
| 21> H 	 -80.4602 	 -39.6126 	 -77.4297
| 22> H 	 -80.2176 	 -38.0428 	 -77.727
| 23> S 	 -81.6177 	 -40.2916 	 -70.9373
| 24> C 	 -82.0609 	 -41.2301 	 -69.4973
| 25> C 	 -83.3094 	 -41.6994 	 -69.6157
| 26> C 	 -83.9824 	 -41.3174 	 -70.8021
| 27> C 	 -83.1847 	 -40.6058 	 -71.6777
| 28> H 	 -83.7425 	 -42.2532 	 -68.7896
| 29> C 	 -85.3996 	 -41.7267 	 -71.0977
| 30> H 	 -85.9381 	 -40.9953 	 -71.7364
| 31> H 	 -85.9199 	 -41.5469 	 -70.1657
| 32> C 	 -85.6282 	 -43.0063 	 -71.8524
| 33> H 	 -86.6729 	 -43.2915 	 -71.7841
| 34> H 	 -84.9795 	 -43.7232 	 -71.4171
| 35> C 	 -85.2756 	 -42.9643 	 -73.2904
| 36> H 	 -85.6084 	 -43.845 	 -73.7848
| 37> H 	 -84.1581 	 -43.051 	 -73.3023
| 38> H 	 -85.4023 	 -42.0336 	 -73.8853
| 39> H 	 -84.6993 	 -37.6154 	 -75.2451
| 40> H 	 -81.3806 	 -41.415 	 -68.6911
| 41> *
| 42>
| 43>                          ****END OF INPUT****

CARTESIAN COORDINATES (ANGSTROEM)
---------------------------------
  S    -84.458700  -38.506800  -72.921200
  C    -84.256500  -38.403800  -74.659200
  C    -83.473000  -39.425300  -75.209000
  C    -83.019300  -40.247200  -74.170300
  C    -83.493700  -39.935000  -72.897400
  H    -82.459700  -41.100200  -74.420700
  C    -83.176700  -39.729900  -76.656400
  H    -84.156300  -39.886300  -77.151100
  H    -82.767900  -40.701600  -76.670100
  C    -82.397700  -38.692600  -77.483800
  H    -82.533100  -38.870500  -78.517400
  H    -82.814300  -37.702600  -77.278800
  C    -80.874200  -38.696800  -77.177100
  H    -80.779400  -38.464900  -76.144300
  H    -80.460200  -39.612600  -77.429700
  H    -80.217600  -38.042800  -77.727000
  S    -81.617700  -40.291600  -70.937300
  C    -82.060900  -41.230100  -69.497300
  C    -83.309400  -41.699400  -69.615700
  C    -83.982400  -41.317400  -70.802100
  C    -83.184700  -40.605800  -71.677700
  H    -83.742500  -42.253200  -68.789600
  C    -85.399600  -41.726700  -71.097700
  H    -85.938100  -40.995300  -71.736400
  H    -85.919900  -41.546900  -70.165700
  C    -85.628200  -43.006300  -71.852400
  H    -86.672900  -43.291500  -71.784100
  H    -84.979500  -43.723200  -71.417100
  C    -85.275600  -42.964300  -73.290400
  H    -85.608400  -43.845000  -73.784800
  H    -84.158100  -43.051000  -73.302300
  H    -85.402300  -42.033600  -73.885300
  H    -84.699300  -37.615400  -75.245100
  H    -81.380600  -41.415000  -68.691100

 Total Charge           Charge          ....    0
 Multiplicity           Mult            ....    1
 Number of Electrons    NEL             ....  134
 Basis Dimension        Dim             ....  322

ORBITAL ENERGIES
----------------

  NO   OCC          E(Eh)            E(eV)
   0   2.0000     -88.971894     -2421.0483
   1   2.0000     -88.959696     -2420.7164
   2   2.0000     -10.323284      -280.9108
   3   2.0000     -10.320675      -280.8399
   4   2.0000     -10.313853      -280.6542
   5   2.0000     -10.313415      -280.6423
   6   2.0000     -10.298668      -280.2410
   7   2.0000     -10.298657      -280.2407
   8   2.0000     -10.292662      -280.0776
   9   2.0000     -10.288368      -279.9607
  10   2.0000     -10.287314      -279.9320
  11   2.0000     -10.287194      -279.9288
  12   2.0000     -10.282954      -279.8134
  13   2.0000     -10.274504      -279.5835
  14   2.0000     -10.267691      -279.3981
  15   2.0000     -10.266171      -279.3567
  16   2.0000      -8.086440      -220.0432
  17   2.0000      -8.074274      -219.7122
  18   2.0000      -6.044742      -164.4858
  19   2.0000      -6.040905      -164.3814
  20   2.0000      -6.037502      -164.2888
  21   2.0000      -6.032829      -164.1616
  22   2.0000      -6.028762      -164.0509
  23   2.0000      -6.025036      -163.9496
  24   2.0000      -1.009536       -27.4709
  25   2.0000      -0.985829       -26.8258
  26   2.0000      -0.915220       -24.9044
  27   2.0000      -0.913917       -24.8689
  28   2.0000      -0.871778       -23.7223
  29   2.0000      -0.854800       -23.2603
  30   2.0000      -0.847676       -23.0664
  31   2.0000      -0.813131       -22.1264
  32   2.0000      -0.788249       -21.4493
  33   2.0000      -0.772748       -21.0275
  34   2.0000      -0.713925       -19.4269
  35   2.0000      -0.705639       -19.2014
  36   2.0000      -0.690537       -18.7905
  37   2.0000      -0.659935       -17.9577
  38   2.0000      -0.643204       -17.5025
  39   2.0000      -0.618218       -16.8226
  40   2.0000      -0.603205       -16.4140
  41   2.0000      -0.576770       -15.6947
  42   2.0000      -0.562231       -15.2991
  43   2.0000      -0.553761       -15.0686
  44   2.0000      -0.545021       -14.8308
  45   2.0000      -0.538615       -14.6565
  46   2.0000      -0.515554       -14.0289
  47   2.0000      -0.510609       -13.8944
  48   2.0000      -0.501182       -13.6378
  49   2.0000      -0.494248       -13.4492
  50   2.0000      -0.491969       -13.3872
  51   2.0000      -0.476489       -12.9659
  52   2.0000      -0.472993       -12.8708
  53   2.0000      -0.463861       -12.6223
  54   2.0000      -0.462176       -12.5764
  55   2.0000      -0.451017       -12.2728
  56   2.0000      -0.444660       -12.0998
  57   2.0000      -0.437287       -11.8992
  58   2.0000      -0.430636       -11.7182
  59   2.0000      -0.429634       -11.6909
  60   2.0000      -0.421968       -11.4823
  61   2.0000      -0.410109       -11.1596
  62   2.0000      -0.401638       -10.9291
  63   2.0000      -0.339045        -9.2259
  64   2.0000      -0.334383        -9.0990
  65   2.0000      -0.323539        -8.8039
  66   2.0000      -0.301551        -8.2056
  67   0.0000       0.037696         1.0258
  68   0.0000       0.058222         1.5843
  69   0.0000       0.113692         3.0937
  70   0.0000       0.117636         3.2010
  71   0.0000       0.132685         3.6105

MULLIKEN ATOMIC CHARGES
-----------------------
   0 S :    0.148643
   1 C :   -0.143506
   2 C :   -0.090241
   3 C :    0.042380
   4 C :   -0.173730
   5 H :   -0.011714
   6 C :    0.087380
   7 H :    0.038136
   8 H :    0.000048
   9 C :   -0.043679
  10 H :    0.019987
  11 H :    0.027268
  12 C :   -0.015736
  13 H :    0.033300
  14 H :    0.005680
  15 H :    0.023630
  16 S :    0.098338
  17 C :   -0.088349
  18 C :   -0.023254
  19 C :   -0.047578
  20 C :   -0.157331
  21 H :    0.018248
  22 C :    0.065081
  23 H :    0.008910
  24 H :    0.017733
  25 C :   -0.000660
  26 H :    0.028766
  27 H :    0.011875
  28 C :   -0.062201
  29 H :    0.026539
  30 H :    0.017714
  31 H :    0.046948
  32 H :    0.039993
  33 H :    0.051381
Sum of atomic charges:   -0.0000000

LOEWDIN ATOMIC CHARGES
----------------------
   0 S :    0.438922
   1 C :   -0.196503
   2 C :   -0.064778
   3 C :   -0.051026
   4 C :   -0.213480
   5 H :    0.021718
   6 C :   -0.027630
   7 H :    0.042001
   8 H :    0.022850
   9 C :   -0.029237
  10 H :    0.018078
  11 H :    0.024400
  12 C :   -0.058445
  13 H :    0.024847
  14 H :    0.014529
  15 H :    0.025174
  16 S :    0.387469
  17 C :   -0.167462
  18 C :   -0.074807
  19 C :   -0.057887
  20 C :   -0.199350
  21 H :    0.034544
  22 C :   -0.039624
  23 H :    0.028438
  24 H :    0.030333
  25 C :   -0.036329
  26 H :    0.025046
  27 H :    0.020907
  28 C :   -0.071251
  29 H :    0.022323
  30 H :    0.028624
  31 H :    0.029668
  32 H :    0.020556
  33 H :    0.027383

  Mayer bond orders larger than 0.100000
B(  0-S ,  1-C ) :   1.1687 B(  0-S ,  4-C ) :   1.1661 B(  1-C ,  2-C ) :   1.5644
B(  1-C ,  4-C ) :   0.1067 B(  1-C , 32-H ) :   0.9673 B(  2-C ,  3-C ) :   1.2949
B(  2-C ,  6-C ) :   1.0141 B(  3-C ,  4-C ) :   1.5237 B(  3-C ,  5-H ) :   1.0011
B(  4-C , 20-C ) :   1.0444 B(  6-C ,  7-H ) :   0.9315 B(  6-C ,  8-H ) :   0.9383
B(  6-C ,  9-C ) :   1.0681 B(  9-C , 10-H ) :   0.9557 B(  9-C , 11-H ) :   0.9608
B(  9-C , 12-C ) :   1.0701 B( 12-C , 13-H ) :   0.9803 B( 12-C , 14-H ) :   0.9738
B( 12-C , 15-H ) :   0.9747 B( 16-S , 17-C ) :   1.1440 B( 16-S , 20-C ) :   1.1382
B( 17-C , 18-C ) :   1.6244 B( 17-C , 33-H ) :   0.9699 B( 18-C , 19-C ) :   1.2314
B( 18-C , 21-H ) :   0.9910 B( 19-C , 20-C ) :   1.5968 B( 19-C , 22-C ) :   1.0535
B( 22-C , 23-H ) :   0.9262 B( 22-C , 24-H ) :   0.9274 B( 22-C , 25-C ) :   1.0690
B( 25-C , 26-H ) :   0.9520 B( 25-C , 27-H ) :   0.9503 B( 25-C , 28-C ) :   1.0905
B( 28-C , 29-H ) :   0.9676 B( 28-C , 30-H ) :   0.9700 B( 28-C , 31-H ) :   0.9714

Dispersion correction           -0.015879069
FINAL SINGLE POINT ENERGY     -1339.877239823934

DIPOLE MOMENT
-------------
                                X             Y             Z
Electronic contribution:      2.88447       8.46890      18.61517
Nuclear contribution   :     -3.05848      -8.74202     -18.90849
                        -----------------------------------------
Total Dipole Moment    :     -0.17401      -0.27311      -0.29332
                        -----------------------------------------
Magnitude (a.u.)       :      0.43693
Magnitude (Debye)      :      1.11060

Rotational constants in cm-1:     0.021652     0.008528     0.007499
Rotational constants in MHz :   649.114718   255.667619   224.801629

                             ****ORCA TERMINATED NORMALLY****
TOTAL RUN TIME: 0 days 0 hours 0 minutes 21 seconds 476 msec
