                         Program Version 4.2.1 -  RELEASE  -
|  1> ! wB97X-D3 SP def2-SVP
|  2> %pal
|  3> nprocs 24
|  4> end
|  5>
|  6> * xyz 0 1
|  7> S 	 17.5829 	 -13.157 	 -123.159
|  8> C 	 16.0933 	 -14.0098 	 -123.553
|  9> C 	 15.4261 	 -14.1794 	 -122.325
| 10> C 	 16.2734 	 -13.9812 	 -121.23
| 11> C 	 17.548 	 -13.4684 	 -121.479
| 12> H 	 15.9856 	 -14.2498 	 -120.301
| 13> C 	 14.0865 	 -14.7925 	 -122.131
| 14> H 	 14.1028 	 -15.3533 	 -121.226
| 15> H 	 13.8858 	 -15.4961 	 -122.969
| 16> C 	 13.0186 	 -13.7291 	 -122.083
| 17> H 	 13.065 	 -13.3587 	 -120.998
| 18> H 	 13.0359 	 -12.9726 	 -122.82
| 19> C 	 11.5834 	 -14.3023 	 -122.259
| 20> H 	 11.2913 	 -14.9637 	 -121.405
| 21> H 	 10.8367 	 -13.4952 	 -122.168
| 22> H 	 11.4306 	 -14.6772 	 -123.311
| 23> S 	 19.4684 	 -11.5124 	 -120.849
| 24> C 	 20.419 	 -11.6204 	 -119.396
| 25> C 	 20.1689 	 -12.8274 	 -118.774
| 26> C 	 19.1319 	 -13.6184 	 -119.405
| 27> C 	 18.6446 	 -13.0226 	 -120.551
| 28> H 	 20.6679 	 -13.0589 	 -117.785
| 29> C 	 18.7833 	 -14.951 	 -118.809
| 30> H 	 18.1029 	 -15.4377 	 -119.464
| 31> H 	 18.2584 	 -14.7416 	 -117.866
| 32> C 	 20.0124 	 -15.8546 	 -118.538
| 33> H 	 20.7529 	 -15.3575 	 -117.883
| 34> H 	 20.3975 	 -16.1099 	 -119.485
| 35> C 	 19.5943 	 -17.1506 	 -117.826
| 36> H 	 20.1698 	 -17.9559 	 -118.066
| 37> H 	 18.5753 	 -17.3888 	 -117.921
| 38> H 	 19.6429 	 -17.0308 	 -116.687
| 39> H 	 15.6336 	 -14.0176 	 -124.513
| 40> H 	 21.0963 	 -10.8672 	 -118.995
| 41> *
| 42>
| 43>                          ****END OF INPUT****

CARTESIAN COORDINATES (ANGSTROEM)
---------------------------------
  S     17.582900  -13.157000  -123.159000
  C     16.093300  -14.009800  -123.553000
  C     15.426100  -14.179400  -122.325000
  C     16.273400  -13.981200  -121.230000
  C     17.548000  -13.468400  -121.479000
  H     15.985600  -14.249800  -120.301000
  C     14.086500  -14.792500  -122.131000
  H     14.102800  -15.353300  -121.226000
  H     13.885800  -15.496100  -122.969000
  C     13.018600  -13.729100  -122.083000
  H     13.065000  -13.358700  -120.998000
  H     13.035900  -12.972600  -122.820000
  C     11.583400  -14.302300  -122.259000
  H     11.291300  -14.963700  -121.405000
  H     10.836700  -13.495200  -122.168000
  H     11.430600  -14.677200  -123.311000
  S     19.468400  -11.512400  -120.849000
  C     20.419000  -11.620400  -119.396000
  C     20.168900  -12.827400  -118.774000
  C     19.131900  -13.618400  -119.405000
  C     18.644600  -13.022600  -120.551000
  H     20.667900  -13.058900  -117.785000
  C     18.783300  -14.951000  -118.809000
  H     18.102900  -15.437700  -119.464000
  H     18.258400  -14.741600  -117.866000
  C     20.012400  -15.854600  -118.538000
  H     20.752900  -15.357500  -117.883000
  H     20.397500  -16.109900  -119.485000
  C     19.594300  -17.150600  -117.826000
  H     20.169800  -17.955900  -118.066000
  H     18.575300  -17.388800  -117.921000
  H     19.642900  -17.030800  -116.687000
  H     15.633600  -14.017600  -124.513000
  H     21.096300  -10.867200  -118.995000

 Total Charge           Charge          ....    0
 Multiplicity           Mult            ....    1
 Number of Electrons    NEL             ....  134
 Basis Dimension        Dim             ....  322

ORBITAL ENERGIES
----------------

  NO   OCC          E(Eh)            E(eV)
   0   2.0000     -88.965977     -2420.8873
   1   2.0000     -88.963650     -2420.8240
   2   2.0000     -10.334543      -281.2172
   3   2.0000     -10.333462      -281.1878
   4   2.0000     -10.319790      -280.8158
   5   2.0000     -10.314724      -280.6779
   6   2.0000     -10.303457      -280.3713
   7   2.0000     -10.298738      -280.2429
   8   2.0000     -10.298060      -280.2245
   9   2.0000     -10.289935      -280.0034
  10   2.0000     -10.288839      -279.9735
  11   2.0000     -10.288138      -279.9545
  12   2.0000     -10.286402      -279.9072
  13   2.0000     -10.285752      -279.8895
  14   2.0000     -10.283182      -279.8196
  15   2.0000     -10.270824      -279.4833
  16   2.0000      -8.080951      -219.8939
  17   2.0000      -8.078794      -219.8352
  18   2.0000      -6.039556      -164.3447
  19   2.0000      -6.037200      -164.2806
  20   2.0000      -6.035389      -164.2313
  21   2.0000      -6.033071      -164.1682
  22   2.0000      -6.031619      -164.1287
  23   2.0000      -6.029793      -164.0790
  24   2.0000      -1.009546       -27.4711
  25   2.0000      -0.989469       -26.9248
  26   2.0000      -0.918532       -24.9945
  27   2.0000      -0.911991       -24.8165
  28   2.0000      -0.866544       -23.5799
  29   2.0000      -0.853374       -23.2215
  30   2.0000      -0.844772       -22.9874
  31   2.0000      -0.816606       -22.2210
  32   2.0000      -0.782006       -21.2795
  33   2.0000      -0.774177       -21.0664
  34   2.0000      -0.707660       -19.2564
  35   2.0000      -0.699444       -19.0328
  36   2.0000      -0.693598       -18.8738
  37   2.0000      -0.657586       -17.8938
  38   2.0000      -0.644738       -17.5442
  39   2.0000      -0.626837       -17.0571
  40   2.0000      -0.598023       -16.2730
  41   2.0000      -0.582158       -15.8413
  42   2.0000      -0.570394       -15.5212
  43   2.0000      -0.562212       -15.2986
  44   2.0000      -0.530792       -14.4436
  45   2.0000      -0.523567       -14.2470
  46   2.0000      -0.518806       -14.1174
  47   2.0000      -0.515535       -14.0284
  48   2.0000      -0.509996       -13.8777
  49   2.0000      -0.507090       -13.7986
  50   2.0000      -0.493705       -13.4344
  51   2.0000      -0.479649       -13.0519
  52   2.0000      -0.473628       -12.8881
  53   2.0000      -0.464127       -12.6295
  54   2.0000      -0.458981       -12.4895
  55   2.0000      -0.450809       -12.2671
  56   2.0000      -0.441851       -12.0234
  57   2.0000      -0.435612       -11.8536
  58   2.0000      -0.434315       -11.8183
  59   2.0000      -0.423151       -11.5145
  60   2.0000      -0.420328       -11.4377
  61   2.0000      -0.415539       -11.3074
  62   2.0000      -0.406363       -11.0577
  63   2.0000      -0.352982        -9.6051
  64   2.0000      -0.329443        -8.9646
  65   2.0000      -0.326765        -8.8917
  66   2.0000      -0.291668        -7.9367
  67   0.0000       0.027227         0.7409
  68   0.0000       0.072174         1.9639
  69   0.0000       0.113182         3.0798
  70   0.0000       0.120119         3.2686
  71   0.0000       0.136476         3.7137

MULLIKEN ATOMIC CHARGES
-----------------------
   0 S :    0.092966
   1 C :   -0.096419
   2 C :   -0.097507
   3 C :    0.058510
   4 C :   -0.127520
   5 H :   -0.049368
   6 C :    0.072678
   7 H :    0.017501
   8 H :    0.026617
   9 C :   -0.082720
  10 H :    0.037965
  11 H :    0.031313
  12 C :   -0.081300
  13 H :    0.038406
  14 H :    0.029022
  15 H :    0.043293
  16 S :    0.104679
  17 C :   -0.096213
  18 C :   -0.059814
  19 C :   -0.062553
  20 C :   -0.122586
  21 H :    0.043624
  22 C :    0.078578
  23 H :    0.013200
  24 H :    0.034054
  25 C :   -0.076544
  26 H :    0.041088
  27 H :    0.030557
  28 C :   -0.011468
  29 H :    0.018876
  30 H :    0.012142
  31 H :    0.025254
  32 H :    0.048409
  33 H :    0.065281
Sum of atomic charges:   -0.0000000

LOEWDIN ATOMIC CHARGES
----------------------
   0 S :    0.425147
   1 C :   -0.196205
   2 C :   -0.057288
   3 C :   -0.065188
   4 C :   -0.196573
   5 H :    0.006139
   6 C :   -0.031940
   7 H :    0.027332
   8 H :    0.032787
   9 C :   -0.038887
  10 H :    0.035162
  11 H :    0.019737
  12 C :   -0.078146
  13 H :    0.027720
  14 H :    0.024920
  15 H :    0.028867
  16 S :    0.408585
  17 C :   -0.190144
  18 C :   -0.078558
  19 C :   -0.059642
  20 C :   -0.199700
  21 H :    0.040125
  22 C :   -0.028678
  23 H :    0.023294
  24 H :    0.034024
  25 C :   -0.028218
  26 H :    0.027407
  27 H :    0.022033
  28 C :   -0.058931
  29 H :    0.012846
  30 H :    0.017465
  31 H :    0.033428
  32 H :    0.024491
  33 H :    0.036586

  Mayer bond orders larger than 0.100000
B(  0-S ,  1-C ) :   1.1539 B(  0-S ,  4-C ) :   1.1895 B(  1-C ,  2-C ) :   1.5359
B(  1-C ,  4-C ) :   0.1181 B(  1-C , 32-H ) :   0.9752 B(  2-C ,  3-C ) :   1.3075
B(  2-C ,  6-C ) :   1.0336 B(  3-C ,  4-C ) :   1.4979 B(  3-C ,  5-H ) :   1.0118
B(  4-C , 20-C ) :   1.0203 B(  6-C ,  7-H ) :   0.9423 B(  6-C ,  8-H ) :   0.9466
B(  6-C ,  9-C ) :   1.0550 B(  9-C , 10-H ) :   0.9524 B(  9-C , 11-H ) :   0.9655
B(  9-C , 12-C ) :   1.0875 B( 12-C , 13-H ) :   0.9727 B( 12-C , 14-H ) :   0.9750
B( 12-C , 15-H ) :   0.9733 B( 16-S , 17-C ) :   1.1527 B( 16-S , 20-C ) :   1.1341
B( 17-C , 18-C ) :   1.6202 B( 17-C , 33-H ) :   0.9672 B( 18-C , 19-C ) :   1.2318
B( 18-C , 21-H ) :   0.9761 B( 19-C , 20-C ) :   1.6127 B( 19-C , 22-C ) :   1.0491
B( 22-C , 23-H ) :   0.9277 B( 22-C , 24-H ) :   0.9285 B( 22-C , 25-C ) :   1.0737
B( 25-C , 26-H ) :   0.9568 B( 25-C , 27-H ) :   0.9600 B( 25-C , 28-C ) :   1.0777
B( 28-C , 29-H ) :   0.9762 B( 28-C , 30-H ) :   0.9735 B( 28-C , 31-H ) :   0.9734

Dispersion correction           -0.013112033
FINAL SINGLE POINT ENERGY     -1339.859759954028

DIPOLE MOMENT
-------------
                                X             Y             Z
Electronic contribution:     16.45878      18.36558     -11.62732
Nuclear contribution   :    -16.80340     -18.70505      12.13647
                        -----------------------------------------
Total Dipole Moment    :     -0.34462      -0.33947       0.50915
                        -----------------------------------------
Magnitude (a.u.)       :      0.70231
Magnitude (Debye)      :      1.78512

Rotational constants in cm-1:     0.018653     0.007481     0.006039
Rotational constants in MHz :   559.202574   224.261175   181.039898

                             ****ORCA TERMINATED NORMALLY****
TOTAL RUN TIME: 0 days 0 hours 0 minutes 20 seconds 742 msec
