                         Program Version 4.2.1 -  RELEASE  -
|  1> ! wB97X-D3 SP def2-SVP
|  2> %pal
|  3> nprocs 24
|  4> end
|  5>
|  6> * xyz 0 1
|  7> S 	 -46.3184 	 7.72525 	 25.769
|  8> C 	 -45.41 	 9.06327 	 25.08
|  9> C 	 -46.2904 	 10.0859 	 24.8025
| 10> C 	 -47.658 	 9.82678 	 25.0964
| 11> C 	 -47.8309 	 8.59237 	 25.7159
| 12> H 	 -48.5951 	 10.4163 	 24.9075
| 13> C 	 -45.8524 	 11.4758 	 24.2933
| 14> H 	 -44.7878 	 11.6007 	 24.6147
| 15> H 	 -46.4968 	 12.3126 	 24.6845
| 16> C 	 -45.9178 	 11.607 	 22.7414
| 17> H 	 -46.7769 	 10.9932 	 22.4285
| 18> H 	 -46.0914 	 12.6462 	 22.461
| 19> C 	 -44.6252 	 11.1727 	 22.0481
| 20> H 	 -44.438 	 10.1119 	 22.1952
| 21> H 	 -44.8223 	 11.3694 	 21.046
| 22> H 	 -43.6719 	 11.676 	 22.2879
| 23> S 	 -49.1503 	 6.26694 	 26.2973
| 24> C 	 -50.8156 	 6.32431 	 26.939
| 25> C 	 -51.3205 	 7.58769 	 26.9477
| 26> C 	 -50.36 	 8.56192 	 26.6097
| 27> C 	 -49.1148 	 7.98277 	 26.176
| 28> H 	 -52.4129 	 7.73498 	 27.1117
| 29> C 	 -50.7658 	 10.0412 	 26.6334
| 30> H 	 -51.8302 	 10.0033 	 26.9186
| 31> H 	 -50.7803 	 10.406 	 25.636
| 32> C 	 -49.9949 	 10.9856 	 27.6223
| 33> H 	 -50.2872 	 12.0279 	 27.4082
| 34> H 	 -48.9159 	 10.8219 	 27.5872
| 35> C 	 -50.2646 	 10.646 	 29.0913
| 36> H 	 -50.3059 	 11.569 	 29.6658
| 37> H 	 -49.4791 	 9.94433 	 29.385
| 38> H 	 -51.2786 	 10.0889 	 29.1939
| 39> H 	 -44.3355 	 9.05454 	 24.8979
| 40> H 	 -51.4969 	 5.4246 	 26.999
| 41> *
| 42>
| 43>                          ****END OF INPUT****

CARTESIAN COORDINATES (ANGSTROEM)
---------------------------------
  S    -46.318400    7.725250   25.769000
  C    -45.410000    9.063270   25.080000
  C    -46.290400   10.085900   24.802500
  C    -47.658000    9.826780   25.096400
  C    -47.830900    8.592370   25.715900
  H    -48.595100   10.416300   24.907500
  C    -45.852400   11.475800   24.293300
  H    -44.787800   11.600700   24.614700
  H    -46.496800   12.312600   24.684500
  C    -45.917800   11.607000   22.741400
  H    -46.776900   10.993200   22.428500
  H    -46.091400   12.646200   22.461000
  C    -44.625200   11.172700   22.048100
  H    -44.438000   10.111900   22.195200
  H    -44.822300   11.369400   21.046000
  H    -43.671900   11.676000   22.287900
  S    -49.150300    6.266940   26.297300
  C    -50.815600    6.324310   26.939000
  C    -51.320500    7.587690   26.947700
  C    -50.360000    8.561920   26.609700
  C    -49.114800    7.982770   26.176000
  H    -52.412900    7.734980   27.111700
  C    -50.765800   10.041200   26.633400
  H    -51.830200   10.003300   26.918600
  H    -50.780300   10.406000   25.636000
  C    -49.994900   10.985600   27.622300
  H    -50.287200   12.027900   27.408200
  H    -48.915900   10.821900   27.587200
  C    -50.264600   10.646000   29.091300
  H    -50.305900   11.569000   29.665800
  H    -49.479100    9.944330   29.385000
  H    -51.278600   10.088900   29.193900
  H    -44.335500    9.054540   24.897900
  H    -51.496900    5.424600   26.999000

 Total Charge           Charge          ....    0
 Multiplicity           Mult            ....    1
 Number of Electrons    NEL             ....  134
 Basis Dimension        Dim             ....  322

ORBITAL ENERGIES
----------------

  NO   OCC          E(Eh)            E(eV)
   0   2.0000     -88.970847     -2421.0198
   1   2.0000     -88.966969     -2420.9143
   2   2.0000     -10.336892      -281.2811
   3   2.0000     -10.335556      -281.2448
   4   2.0000     -10.320979      -280.8481
   5   2.0000     -10.317757      -280.7604
   6   2.0000     -10.309519      -280.5363
   7   2.0000     -10.304709      -280.4054
   8   2.0000     -10.298479      -280.2359
   9   2.0000     -10.297052      -280.1970
  10   2.0000     -10.296390      -280.1790
  11   2.0000     -10.295078      -280.1433
  12   2.0000     -10.286971      -279.9227
  13   2.0000     -10.286782      -279.9176
  14   2.0000     -10.278484      -279.6918
  15   2.0000     -10.271274      -279.4956
  16   2.0000      -8.085385      -220.0145
  17   2.0000      -8.081687      -219.9139
  18   2.0000      -6.043867      -164.4620
  19   2.0000      -6.040319      -164.3654
  20   2.0000      -6.039917      -164.3545
  21   2.0000      -6.036196      -164.2533
  22   2.0000      -6.036145      -164.2519
  23   2.0000      -6.032361      -164.1489
  24   2.0000      -1.007447       -27.4140
  25   2.0000      -0.985716       -26.8227
  26   2.0000      -0.907481       -24.6938
  27   2.0000      -0.903797       -24.5936
  28   2.0000      -0.870854       -23.6971
  29   2.0000      -0.849339       -23.1117
  30   2.0000      -0.844636       -22.9837
  31   2.0000      -0.815315       -22.1858
  32   2.0000      -0.779539       -21.2123
  33   2.0000      -0.769627       -20.9426
  34   2.0000      -0.705585       -19.1999
  35   2.0000      -0.693728       -18.8773
  36   2.0000      -0.682044       -18.5593
  37   2.0000      -0.659607       -17.9488
  38   2.0000      -0.637541       -17.3484
  39   2.0000      -0.616075       -16.7643
  40   2.0000      -0.590516       -16.0687
  41   2.0000      -0.570880       -15.5344
  42   2.0000      -0.553625       -15.0649
  43   2.0000      -0.551968       -15.0198
  44   2.0000      -0.544816       -14.8252
  45   2.0000      -0.530908       -14.4468
  46   2.0000      -0.519157       -14.1270
  47   2.0000      -0.507520       -13.8103
  48   2.0000      -0.504118       -13.7178
  49   2.0000      -0.497423       -13.5356
  50   2.0000      -0.485064       -13.1993
  51   2.0000      -0.482656       -13.1337
  52   2.0000      -0.471853       -12.8398
  53   2.0000      -0.468311       -12.7434
  54   2.0000      -0.456908       -12.4331
  55   2.0000      -0.450141       -12.2490
  56   2.0000      -0.437959       -11.9175
  57   2.0000      -0.432363       -11.7652
  58   2.0000      -0.428922       -11.6716
  59   2.0000      -0.421484       -11.4692
  60   2.0000      -0.419489       -11.4149
  61   2.0000      -0.414262       -11.2726
  62   2.0000      -0.409005       -11.1296
  63   2.0000      -0.360697        -9.8151
  64   2.0000      -0.337318        -9.1789
  65   2.0000      -0.328854        -8.9486
  66   2.0000      -0.284038        -7.7291
  67   0.0000       0.016930         0.4607
  68   0.0000       0.083690         2.2773
  69   0.0000       0.092654         2.5212
  70   0.0000       0.115792         3.1509
  71   0.0000       0.136900         3.7252

MULLIKEN ATOMIC CHARGES
-----------------------
   0 S :    0.094493
   1 C :   -0.123992
   2 C :   -0.078407
   3 C :   -0.002875
   4 C :   -0.120377
   5 H :    0.030862
   6 C :    0.032579
   7 H :    0.027693
   8 H :    0.040134
   9 C :   -0.073583
  10 H :    0.036703
  11 H :    0.027874
  12 C :   -0.040884
  13 H :    0.027784
  14 H :    0.021738
  15 H :    0.032897
  16 S :    0.101985
  17 C :   -0.111453
  18 C :   -0.050597
  19 C :   -0.064604
  20 C :   -0.132875
  21 H :    0.043443
  22 C :    0.044072
  23 H :    0.014857
  24 H :    0.034025
  25 C :   -0.072147
  26 H :    0.034339
  27 H :    0.050193
  28 C :   -0.082861
  29 H :    0.043096
  30 H :    0.050621
  31 H :    0.031951
  32 H :    0.057991
  33 H :    0.075326
Sum of atomic charges:    0.0000000

LOEWDIN ATOMIC CHARGES
----------------------
   0 S :    0.398201
   1 C :   -0.200959
   2 C :   -0.064555
   3 C :   -0.077477
   4 C :   -0.189319
   5 H :    0.043402
   6 C :   -0.034849
   7 H :    0.030156
   8 H :    0.035848
   9 C :   -0.038873
  10 H :    0.028818
  11 H :    0.021748
  12 C :   -0.066377
  13 H :    0.023178
  14 H :    0.019347
  15 H :    0.026950
  16 S :    0.410257
  17 C :   -0.190395
  18 C :   -0.077915
  19 C :   -0.061267
  20 C :   -0.201849
  21 H :    0.044157
  22 C :   -0.032604
  23 H :    0.030544
  24 H :    0.022335
  25 C :   -0.044369
  26 H :    0.024400
  27 H :    0.029907
  28 C :   -0.069967
  29 H :    0.026825
  30 H :    0.030343
  31 H :    0.028347
  32 H :    0.034416
  33 H :    0.041594

  Mayer bond orders larger than 0.100000
B(  0-S ,  1-C ) :   1.1214 B(  0-S ,  4-C ) :   1.1617 B(  1-C ,  2-C ) :   1.6075
B(  1-C , 32-H ) :   0.9703 B(  2-C ,  3-C ) :   1.2373 B(  2-C ,  6-C ) :   1.0224
B(  3-C ,  4-C ) :   1.5628 B(  3-C ,  5-H ) :   0.9847 B(  4-C , 20-C ) :   1.0577
B(  6-C ,  7-H ) :   0.9497 B(  6-C ,  8-H ) :   0.9494 B(  6-C ,  9-C ) :   1.0505
B(  9-C , 10-H ) :   0.9562 B(  9-C , 11-H ) :   0.9603 B(  9-C , 12-C ) :   1.0832
B( 12-C , 13-H ) :   0.9743 B( 12-C , 14-H ) :   0.9733 B( 12-C , 15-H ) :   0.9750
B( 16-S , 17-C ) :   1.1465 B( 16-S , 20-C ) :   1.1637 B( 17-C , 18-C ) :   1.6190
B( 17-C , 20-C ) :   0.1020 B( 17-C , 33-H ) :   0.9535 B( 18-C , 19-C ) :   1.2819
B( 18-C , 21-H ) :   0.9731 B( 19-C , 20-C ) :   1.5354 B( 19-C , 22-C ) :   1.0226
B( 22-C , 23-H ) :   0.9368 B( 22-C , 24-H ) :   0.9385 B( 22-C , 25-C ) :   1.0634
B( 25-C , 26-H ) :   0.9618 B( 25-C , 27-H ) :   0.9647 B( 25-C , 28-C ) :   1.0529
B( 28-C , 29-H ) :   0.9762 B( 28-C , 30-H ) :   0.9818 B( 28-C , 31-H ) :   0.9797

Dispersion correction           -0.014624953
FINAL SINGLE POINT ENERGY     -1339.874004810807

DIPOLE MOMENT
-------------
                                X             Y             Z
Electronic contribution:     -0.11272     -24.56205       3.97935
Nuclear contribution   :     -0.19258      25.13820      -4.21296
                        -----------------------------------------
Total Dipole Moment    :     -0.30531       0.57615      -0.23362
                        -----------------------------------------
Magnitude (a.u.)       :      0.69263
Magnitude (Debye)      :      1.76053

Rotational constants in cm-1:     0.020963     0.008279     0.006724
Rotational constants in MHz :   628.456994   248.211064   201.569592

                             ****ORCA TERMINATED NORMALLY****
TOTAL RUN TIME: 0 days 0 hours 0 minutes 21 seconds 886 msec
