                         Program Version 4.2.1 -  RELEASE  -
|  1> ! wB97X-D3 SP def2-SVP
|  2> %pal
|  3> nprocs 24
|  4> end
|  5>
|  6> * xyz 0 1
|  7> S 	 -45.3818 	 29.4159 	 31.3105
|  8> C 	 -47.0496 	 29.4859 	 31.7539
|  9> C 	 -47.7365 	 28.3713 	 31.3842
| 10> C 	 -46.9039 	 27.3879 	 30.7391
| 11> C 	 -45.6134 	 27.8418 	 30.5776
| 12> H 	 -47.2152 	 26.4905 	 30.2925
| 13> C 	 -49.1796 	 28.0713 	 31.6279
| 14> H 	 -49.3326 	 28.6318 	 32.5537
| 15> H 	 -49.2535 	 26.9431 	 31.7632
| 16> C 	 -50.233 	 28.6658 	 30.7126
| 17> H 	 -51.2173 	 28.5424 	 31.1449
| 18> H 	 -50.0395 	 29.7378 	 30.7062
| 19> C 	 -50.2445 	 28.0188 	 29.2938
| 20> H 	 -50.4388 	 26.9219 	 29.2913
| 21> H 	 -51.1433 	 28.445 	 28.7849
| 22> H 	 -49.2365 	 27.9986 	 28.9159
| 23> S 	 -44.5243 	 27.8028 	 28.1156
| 24> C 	 -43.3392 	 26.635 	 27.6459
| 25> C 	 -43.0164 	 25.8033 	 28.7212
| 26> C 	 -43.8225 	 26.0657 	 29.8657
| 27> C 	 -44.6353 	 27.2029 	 29.711
| 28> H 	 -42.2313 	 25.0526 	 28.4677
| 29> C 	 -43.832 	 25.2139 	 31.0982
| 30> H 	 -43.1989 	 24.4079 	 30.9404
| 31> H 	 -44.888 	 24.8111 	 31.3475
| 32> C 	 -43.2061 	 25.8797 	 32.2889
| 33> H 	 -43.6789 	 26.8861 	 32.2617
| 34> H 	 -42.1205 	 26.0669 	 32.1153
| 35> C 	 -43.5689 	 25.4804 	 33.6611
| 36> H 	 -44.6483 	 25.4522 	 33.9365
| 37> H 	 -43.0453 	 26.099 	 34.4123
| 38> H 	 -43.3069 	 24.4639 	 33.6639
| 39> H 	 -47.4394 	 30.3108 	 32.3528
| 40> H 	 -42.978 	 26.6089 	 26.6671
| 41> *
| 42>
| 43>                          ****END OF INPUT****

CARTESIAN COORDINATES (ANGSTROEM)
---------------------------------
  S    -45.381800   29.415900   31.310500
  C    -47.049600   29.485900   31.753900
  C    -47.736500   28.371300   31.384200
  C    -46.903900   27.387900   30.739100
  C    -45.613400   27.841800   30.577600
  H    -47.215200   26.490500   30.292500
  C    -49.179600   28.071300   31.627900
  H    -49.332600   28.631800   32.553700
  H    -49.253500   26.943100   31.763200
  C    -50.233000   28.665800   30.712600
  H    -51.217300   28.542400   31.144900
  H    -50.039500   29.737800   30.706200
  C    -50.244500   28.018800   29.293800
  H    -50.438800   26.921900   29.291300
  H    -51.143300   28.445000   28.784900
  H    -49.236500   27.998600   28.915900
  S    -44.524300   27.802800   28.115600
  C    -43.339200   26.635000   27.645900
  C    -43.016400   25.803300   28.721200
  C    -43.822500   26.065700   29.865700
  C    -44.635300   27.202900   29.711000
  H    -42.231300   25.052600   28.467700
  C    -43.832000   25.213900   31.098200
  H    -43.198900   24.407900   30.940400
  H    -44.888000   24.811100   31.347500
  C    -43.206100   25.879700   32.288900
  H    -43.678900   26.886100   32.261700
  H    -42.120500   26.066900   32.115300
  C    -43.568900   25.480400   33.661100
  H    -44.648300   25.452200   33.936500
  H    -43.045300   26.099000   34.412300
  H    -43.306900   24.463900   33.663900
  H    -47.439400   30.310800   32.352800
  H    -42.978000   26.608900   26.667100

 Total Charge           Charge          ....    0
 Multiplicity           Mult            ....    1
 Number of Electrons    NEL             ....  134
 Basis Dimension        Dim             ....  322

ORBITAL ENERGIES
----------------

  NO   OCC          E(Eh)            E(eV)
   0   2.0000     -88.967938     -2420.9407
   1   2.0000     -88.963199     -2420.8117
   2   2.0000     -10.328036      -281.0401
   3   2.0000     -10.321063      -280.8504
   4   2.0000     -10.312575      -280.6194
   5   2.0000     -10.311771      -280.5975
   6   2.0000     -10.304189      -280.3912
   7   2.0000     -10.299152      -280.2542
   8   2.0000     -10.298336      -280.2320
   9   2.0000     -10.291811      -280.0544
  10   2.0000     -10.291399      -280.0432
  11   2.0000     -10.286951      -279.9222
  12   2.0000     -10.285283      -279.8768
  13   2.0000     -10.280680      -279.7515
  14   2.0000     -10.273405      -279.5536
  15   2.0000     -10.268884      -279.4305
  16   2.0000      -8.082864      -219.9459
  17   2.0000      -8.079161      -219.8452
  18   2.0000      -6.041314      -164.3925
  19   2.0000      -6.037421      -164.2866
  20   2.0000      -6.037348      -164.2846
  21   2.0000      -6.033672      -164.1846
  22   2.0000      -6.033277      -164.1738
  23   2.0000      -6.030329      -164.0936
  24   2.0000      -1.011840       -27.5336
  25   2.0000      -0.989388       -26.9226
  26   2.0000      -0.916232       -24.9320
  27   2.0000      -0.914022       -24.8718
  28   2.0000      -0.871766       -23.7220
  29   2.0000      -0.853464       -23.2239
  30   2.0000      -0.849051       -23.1039
  31   2.0000      -0.816314       -22.2130
  32   2.0000      -0.783643       -21.3240
  33   2.0000      -0.771910       -21.0047
  34   2.0000      -0.704684       -19.1754
  35   2.0000      -0.702789       -19.1238
  36   2.0000      -0.681522       -18.5452
  37   2.0000      -0.664412       -18.0796
  38   2.0000      -0.649357       -17.6699
  39   2.0000      -0.612342       -16.6627
  40   2.0000      -0.594045       -16.1648
  41   2.0000      -0.573051       -15.5935
  42   2.0000      -0.566551       -15.4166
  43   2.0000      -0.558014       -15.1843
  44   2.0000      -0.542010       -14.7488
  45   2.0000      -0.526552       -14.3282
  46   2.0000      -0.517617       -14.0851
  47   2.0000      -0.514765       -14.0075
  48   2.0000      -0.510868       -13.9014
  49   2.0000      -0.499966       -13.6048
  50   2.0000      -0.489375       -13.3166
  51   2.0000      -0.481434       -13.1005
  52   2.0000      -0.476605       -12.9691
  53   2.0000      -0.473575       -12.8866
  54   2.0000      -0.456172       -12.4131
  55   2.0000      -0.449000       -12.2179
  56   2.0000      -0.437038       -11.8924
  57   2.0000      -0.433180       -11.7874
  58   2.0000      -0.430337       -11.7101
  59   2.0000      -0.428836       -11.6692
  60   2.0000      -0.426525       -11.6063
  61   2.0000      -0.403555       -10.9813
  62   2.0000      -0.384216       -10.4550
  63   2.0000      -0.342066        -9.3081
  64   2.0000      -0.328480        -8.9384
  65   2.0000      -0.320788        -8.7291
  66   2.0000      -0.305083        -8.3017
  67   0.0000       0.043425         1.1817
  68   0.0000       0.055177         1.5014
  69   0.0000       0.112448         3.0599
  70   0.0000       0.124729         3.3940
  71   0.0000       0.131654         3.5825

MULLIKEN ATOMIC CHARGES
-----------------------
   0 S :    0.129340
   1 C :   -0.138288
   2 C :   -0.078815
   3 C :    0.066557
   4 C :   -0.181103
   5 H :   -0.003122
   6 C :    0.034459
   7 H :    0.018860
   8 H :    0.039867
   9 C :   -0.036924
  10 H :    0.027612
  11 H :    0.025845
  12 C :   -0.064552
  13 H :    0.018525
  14 H :    0.050744
  15 H :    0.040188
  16 S :    0.125885
  17 C :   -0.101468
  18 C :   -0.049971
  19 C :   -0.034407
  20 C :   -0.181385
  21 H :    0.038297
  22 C :    0.136832
  23 H :   -0.011848
  24 H :    0.039409
  25 C :   -0.126151
  26 H :    0.018156
  27 H :    0.034749
  28 C :   -0.009784
  29 H :    0.033282
  30 H :    0.044158
  31 H :    0.003526
  32 H :    0.051553
  33 H :    0.039973
Sum of atomic charges:    0.0000000

LOEWDIN ATOMIC CHARGES
----------------------
   0 S :    0.418882
   1 C :   -0.204970
   2 C :   -0.068576
   3 C :   -0.050256
   4 C :   -0.199370
   5 H :    0.024190
   6 C :   -0.040312
   7 H :    0.034815
   8 H :    0.036798
   9 C :   -0.037039
  10 H :    0.022948
  11 H :    0.025166
  12 C :   -0.076666
  13 H :    0.025802
  14 H :    0.035880
  15 H :    0.026219
  16 S :    0.444873
  17 C :   -0.188075
  18 C :   -0.077718
  19 C :   -0.054878
  20 C :   -0.220001
  21 H :    0.042972
  22 C :   -0.032127
  23 H :    0.017348
  24 H :    0.041661
  25 C :   -0.057010
  26 H :    0.020752
  27 H :    0.030207
  28 C :   -0.064498
  29 H :    0.030429
  30 H :    0.034385
  31 H :    0.012081
  32 H :    0.030252
  33 H :    0.015835

  Mayer bond orders larger than 0.100000
B(  0-S ,  1-C ) :   1.1378 B(  0-S ,  4-C ) :   1.1541 B(  1-C ,  2-C ) :   1.6260
B(  1-C , 32-H ) :   0.9648 B(  2-C ,  3-C ) :   1.2192 B(  2-C ,  6-C ) :   1.0145
B(  3-C ,  4-C ) :   1.5927 B(  3-C ,  5-H ) :   1.0003 B(  4-C , 20-C ) :   1.0048
B(  6-C ,  7-H ) :   0.9292 B(  6-C ,  8-H ) :   0.9445 B(  6-C ,  9-C ) :   1.0848
B(  9-C , 10-H ) :   0.9545 B(  9-C , 11-H ) :   0.9506 B(  9-C , 12-C ) :   1.0702
B( 12-C , 13-H ) :   0.9728 B( 12-C , 14-H ) :   0.9737 B( 12-C , 15-H ) :   0.9760
B( 16-S , 17-C ) :   1.1875 B( 16-S , 20-C ) :   1.1841 B( 17-C , 18-C ) :   1.5689
B( 17-C , 20-C ) :   0.1112 B( 17-C , 33-H ) :   0.9771 B( 18-C , 19-C ) :   1.2649
B( 18-C , 21-H ) :   0.9893 B( 19-C , 20-C ) :   1.5503 B( 19-C , 22-C ) :   1.0591
B( 22-C , 23-H ) :   0.9105 B( 22-C , 24-H ) :   0.9308 B( 22-C , 25-C ) :   1.0597
B( 25-C , 26-H ) :   0.9615 B( 25-C , 27-H ) :   0.9468 B( 25-C , 28-C ) :   1.0830
B( 28-C , 29-H ) :   0.9718 B( 28-C , 30-H ) :   0.9681 B( 28-C , 31-H ) :   0.9699

Dispersion correction           -0.014878613
FINAL SINGLE POINT ENERGY     -1339.859508821184

DIPOLE MOMENT
-------------
                                X             Y             Z
Electronic contribution:     12.01494      10.29805     -10.90943
Nuclear contribution   :    -12.33086     -10.59597      10.99890
                        -----------------------------------------
Total Dipole Moment    :     -0.31592      -0.29792       0.08947
                        -----------------------------------------
Magnitude (a.u.)       :      0.44336
Magnitude (Debye)      :      1.12693

Rotational constants in cm-1:     0.018427     0.009137     0.007582
Rotational constants in MHz :   552.420595   273.934499   227.301865

                             ****ORCA TERMINATED NORMALLY****
TOTAL RUN TIME: 0 days 0 hours 0 minutes 22 seconds 165 msec
