                         Program Version 4.2.1 -  RELEASE  -
|  1> ! wB97X-D3 SP def2-SVP
|  2> %pal
|  3> nprocs 24
|  4> end
|  5>
|  6> * xyz 0 1
|  7> S 	 -22.0113 	 -35.8912 	 -92.4957
|  8> C 	 -20.4492 	 -36.6535 	 -92.9765
|  9> C 	 -19.6526 	 -35.6983 	 -93.5106
| 10> C 	 -20.2196 	 -34.3997 	 -93.4844
| 11> C 	 -21.4559 	 -34.3568 	 -92.9462
| 12> H 	 -19.7862 	 -33.5043 	 -93.9204
| 13> C 	 -18.3477 	 -35.9547 	 -94.2076
| 14> H 	 -18.3338 	 -35.3579 	 -95.0659
| 15> H 	 -18.3153 	 -36.9266 	 -94.5979
| 16> C 	 -17.1521 	 -35.709 	 -93.3636
| 17> H 	 -17.1956 	 -34.7022 	 -92.8407
| 18> H 	 -17.1481 	 -36.4496 	 -92.6064
| 19> C 	 -15.7812 	 -35.946 	 -94.0094
| 20> H 	 -15.7308 	 -37.0167 	 -94.3249
| 21> H 	 -15.52 	 -35.2897 	 -94.8798
| 22> H 	 -14.9583 	 -35.9257 	 -93.3003
| 23> S 	 -23.8086 	 -33.1303 	 -93.7797
| 24> C 	 -24.0847 	 -31.4351 	 -93.3881
| 25> C 	 -23.236 	 -31.1117 	 -92.3643
| 26> C 	 -22.2105 	 -32.0103 	 -92.0111
| 27> C 	 -22.3075 	 -33.1952 	 -92.8405
| 28> H 	 -23.2863 	 -30.107 	 -92.0238
| 29> C 	 -21.2385 	 -31.7716 	 -90.9361
| 30> H 	 -20.7025 	 -32.7232 	 -90.7686
| 31> H 	 -21.8535 	 -31.6032 	 -90.0106
| 32> C 	 -20.2416 	 -30.601 	 -91.0886
| 33> H 	 -19.725 	 -30.4077 	 -90.1402
| 34> H 	 -20.7675 	 -29.6697 	 -91.2295
| 35> C 	 -19.2195 	 -30.7989 	 -92.2146
| 36> H 	 -18.8131 	 -31.7287 	 -91.9944
| 37> H 	 -18.5065 	 -29.9996 	 -92.1313
| 38> H 	 -19.7562 	 -30.9006 	 -93.2108
| 39> H 	 -20.1947 	 -37.6897 	 -92.9627
| 40> H 	 -24.8089 	 -30.8012 	 -93.8045
| 41> *
| 42>
| 43>                          ****END OF INPUT****

CARTESIAN COORDINATES (ANGSTROEM)
---------------------------------
  S    -22.011300  -35.891200  -92.495700
  C    -20.449200  -36.653500  -92.976500
  C    -19.652600  -35.698300  -93.510600
  C    -20.219600  -34.399700  -93.484400
  C    -21.455900  -34.356800  -92.946200
  H    -19.786200  -33.504300  -93.920400
  C    -18.347700  -35.954700  -94.207600
  H    -18.333800  -35.357900  -95.065900
  H    -18.315300  -36.926600  -94.597900
  C    -17.152100  -35.709000  -93.363600
  H    -17.195600  -34.702200  -92.840700
  H    -17.148100  -36.449600  -92.606400
  C    -15.781200  -35.946000  -94.009400
  H    -15.730800  -37.016700  -94.324900
  H    -15.520000  -35.289700  -94.879800
  H    -14.958300  -35.925700  -93.300300
  S    -23.808600  -33.130300  -93.779700
  C    -24.084700  -31.435100  -93.388100
  C    -23.236000  -31.111700  -92.364300
  C    -22.210500  -32.010300  -92.011100
  C    -22.307500  -33.195200  -92.840500
  H    -23.286300  -30.107000  -92.023800
  C    -21.238500  -31.771600  -90.936100
  H    -20.702500  -32.723200  -90.768600
  H    -21.853500  -31.603200  -90.010600
  C    -20.241600  -30.601000  -91.088600
  H    -19.725000  -30.407700  -90.140200
  H    -20.767500  -29.669700  -91.229500
  C    -19.219500  -30.798900  -92.214600
  H    -18.813100  -31.728700  -91.994400
  H    -18.506500  -29.999600  -92.131300
  H    -19.756200  -30.900600  -93.210800
  H    -20.194700  -37.689700  -92.962700
  H    -24.808900  -30.801200  -93.804500

 Total Charge           Charge          ....    0
 Multiplicity           Mult            ....    1
 Number of Electrons    NEL             ....  134
 Basis Dimension        Dim             ....  322

ORBITAL ENERGIES
----------------

  NO   OCC          E(Eh)            E(eV)
   0   2.0000     -88.964057     -2420.8351
   1   2.0000     -88.963443     -2420.8184
   2   2.0000     -10.331165      -281.1253
   3   2.0000     -10.322017      -280.8764
   4   2.0000     -10.315159      -280.6898
   5   2.0000     -10.312489      -280.6171
   6   2.0000     -10.306332      -280.4496
   7   2.0000     -10.295490      -280.1545
   8   2.0000     -10.293318      -280.0954
   9   2.0000     -10.287308      -279.9319
  10   2.0000     -10.287092      -279.9260
  11   2.0000     -10.285409      -279.8802
  12   2.0000     -10.284382      -279.8522
  13   2.0000     -10.283741      -279.8348
  14   2.0000     -10.278540      -279.6933
  15   2.0000     -10.274470      -279.5825
  16   2.0000      -8.078703      -219.8327
  17   2.0000      -8.078289      -219.8214
  18   2.0000      -6.037304      -164.2834
  19   2.0000      -6.036782      -164.2692
  20   2.0000      -6.033113      -164.1694
  21   2.0000      -6.032828      -164.1616
  22   2.0000      -6.029340      -164.0667
  23   2.0000      -6.029120      -164.0607
  24   2.0000      -1.011512       -27.5246
  25   2.0000      -0.985006       -26.8034
  26   2.0000      -0.922552       -25.1039
  27   2.0000      -0.911039       -24.7906
  28   2.0000      -0.873169       -23.7601
  29   2.0000      -0.851085       -23.1592
  30   2.0000      -0.846183       -23.0258
  31   2.0000      -0.818448       -22.2711
  32   2.0000      -0.787411       -21.4266
  33   2.0000      -0.773886       -21.0585
  34   2.0000      -0.711863       -19.3708
  35   2.0000      -0.700660       -19.0659
  36   2.0000      -0.699492       -19.0342
  37   2.0000      -0.651851       -17.7378
  38   2.0000      -0.647250       -17.6126
  39   2.0000      -0.623003       -16.9528
  40   2.0000      -0.599615       -16.3163
  41   2.0000      -0.573915       -15.6170
  42   2.0000      -0.564680       -15.3657
  43   2.0000      -0.556672       -15.1478
  44   2.0000      -0.539472       -14.6798
  45   2.0000      -0.531025       -14.4499
  46   2.0000      -0.523381       -14.2419
  47   2.0000      -0.515158       -14.0182
  48   2.0000      -0.510617       -13.8946
  49   2.0000      -0.501374       -13.6431
  50   2.0000      -0.496309       -13.5052
  51   2.0000      -0.477151       -12.9839
  52   2.0000      -0.469148       -12.7662
  53   2.0000      -0.467398       -12.7186
  54   2.0000      -0.461996       -12.5715
  55   2.0000      -0.449764       -12.2387
  56   2.0000      -0.441920       -12.0253
  57   2.0000      -0.436082       -11.8664
  58   2.0000      -0.432161       -11.7597
  59   2.0000      -0.422989       -11.5101
  60   2.0000      -0.419101       -11.4043
  61   2.0000      -0.416339       -11.3292
  62   2.0000      -0.413898       -11.2627
  63   2.0000      -0.340503        -9.2655
  64   2.0000      -0.333649        -9.0790
  65   2.0000      -0.325287        -8.8515
  66   2.0000      -0.298286        -8.1168
  67   0.0000       0.035173         0.9571
  68   0.0000       0.060111         1.6357
  69   0.0000       0.108397         2.9496
  70   0.0000       0.122094         3.3223
  71   0.0000       0.134138         3.6501

MULLIKEN ATOMIC CHARGES
-----------------------
   0 S :    0.104501
   1 C :   -0.117434
   2 C :   -0.089561
   3 C :    0.032540
   4 C :   -0.150359
   5 H :    0.007432
   6 C :    0.150987
   7 H :    0.003652
   8 H :   -0.008303
   9 C :   -0.077892
  10 H :    0.038286
  11 H :    0.011415
  12 C :   -0.057971
  13 H :    0.023234
  14 H :    0.042232
  15 H :    0.031159
  16 S :    0.102523
  17 C :   -0.077569
  18 C :   -0.026076
  19 C :   -0.002782
  20 C :   -0.182380
  21 H :    0.005993
  22 C :    0.038630
  23 H :    0.034200
  24 H :    0.044829
  25 C :   -0.079803
  26 H :    0.025014
  27 H :    0.015706
  28 C :   -0.022399
  29 H :    0.012291
  30 H :    0.037509
  31 H :    0.054415
  32 H :    0.033754
  33 H :    0.042227
Sum of atomic charges:    0.0000000

LOEWDIN ATOMIC CHARGES
----------------------
   0 S :    0.406096
   1 C :   -0.177661
   2 C :   -0.056685
   3 C :   -0.064667
   4 C :   -0.212774
   5 H :    0.033310
   6 C :   -0.023497
   7 H :    0.024361
   8 H :    0.023094
   9 C :   -0.042910
  10 H :    0.029219
  11 H :    0.020689
  12 C :   -0.071730
  13 H :    0.027619
  14 H :    0.026294
  15 H :    0.025812
  16 S :    0.394143
  17 C :   -0.171260
  18 C :   -0.070897
  19 C :   -0.053445
  20 C :   -0.195707
  21 H :    0.024270
  22 C :   -0.039994
  23 H :    0.034780
  24 H :    0.044939
  25 C :   -0.039955
  26 H :    0.025215
  27 H :    0.016025
  28 C :   -0.057858
  29 H :    0.013009
  30 H :    0.026227
  31 H :    0.034765
  32 H :    0.025707
  33 H :    0.023466

  Mayer bond orders larger than 0.100000
B(  0-S ,  1-C ) :   1.1098 B(  0-S ,  4-C ) :   1.1588 B(  1-C ,  2-C ) :   1.6424
B(  1-C , 32-H ) :   0.9741 B(  2-C ,  3-C ) :   1.2196 B(  2-C ,  6-C ) :   1.0230
B(  3-C ,  4-C ) :   1.5977 B(  3-C ,  5-H ) :   0.9974 B(  4-C , 20-C ) :   1.0225
B(  6-C ,  7-H ) :   0.9305 B(  6-C ,  8-H ) :   0.9274 B(  6-C ,  9-C ) :   1.0704
B(  9-C , 10-H ) :   0.9553 B(  9-C , 11-H ) :   0.9494 B(  9-C , 12-C ) :   1.0859
B( 12-C , 13-H ) :   0.9697 B( 12-C , 14-H ) :   0.9756 B( 12-C , 15-H ) :   0.9741
B( 16-S , 17-C ) :   1.1475 B( 16-S , 20-C ) :   1.1574 B( 17-C , 18-C ) :   1.5985
B( 17-C , 20-C ) :   0.1137 B( 17-C , 33-H ) :   0.9774 B( 18-C , 19-C ) :   1.2541
B( 18-C , 21-H ) :   0.9878 B( 19-C , 20-C ) :   1.5247 B( 19-C , 22-C ) :   1.0596
B( 22-C , 23-H ) :   0.9319 B( 22-C , 24-H ) :   0.9278 B( 22-C , 25-C ) :   1.0725
B( 25-C , 26-H ) :   0.9535 B( 25-C , 27-H ) :   0.9551 B( 25-C , 28-C ) :   1.0684
B( 28-C , 29-H ) :   0.9746 B( 28-C , 30-H ) :   0.9710 B( 28-C , 31-H ) :   0.9722

Dispersion correction           -0.014755932
FINAL SINGLE POINT ENERGY     -1339.875012312721

DIPOLE MOMENT
-------------
                                X             Y             Z
Electronic contribution:    -29.37421      -6.52949      -2.04580
Nuclear contribution   :     29.93183       6.84415       2.10026
                        -----------------------------------------
Total Dipole Moment    :      0.55762       0.31467       0.05447
                        -----------------------------------------
Magnitude (a.u.)       :      0.64259
Magnitude (Debye)      :      1.63334

Rotational constants in cm-1:     0.019336     0.008775     0.006761
Rotational constants in MHz :   579.669516   263.066235   202.682589

                             ****ORCA TERMINATED NORMALLY****
TOTAL RUN TIME: 0 days 0 hours 0 minutes 22 seconds 113 msec
