                         Program Version 4.2.1 -  RELEASE  -
|  1> ! wB97X-D3 SP def2-SVP
|  2> %pal
|  3> nprocs 24
|  4> end
|  5>
|  6> * xyz 0 1
|  7> S 	 -85.7571 	 -47.1735 	 -85.7122
|  8> C 	 -87.2626 	 -46.4231 	 -86.0935
|  9> C 	 -87.9092 	 -45.8989 	 -85.0186
| 10> C 	 -87.2047 	 -46.1047 	 -83.8332
| 11> C 	 -86.1397 	 -46.9555 	 -83.9883
| 12> H 	 -87.604 	 -45.7673 	 -82.8513
| 13> C 	 -89.3133 	 -45.3991 	 -84.9722
| 14> H 	 -89.7815 	 -45.4543 	 -85.9024
| 15> H 	 -89.3359 	 -44.3373 	 -84.735
| 16> C 	 -90.1476 	 -46.0528 	 -83.864
| 17> H 	 -89.8941 	 -45.7599 	 -82.8835
| 18> H 	 -91.1282 	 -45.5404 	 -83.9342
| 19> C 	 -90.2215 	 -47.5639 	 -83.8413
| 20> H 	 -91.0806 	 -47.9227 	 -83.2717
| 21> H 	 -90.3292 	 -47.9025 	 -84.891
| 22> H 	 -89.302 	 -47.8774 	 -83.386
| 23> S 	 -85.593 	 -49.4523 	 -82.8011
| 24> C 	 -84.4638 	 -49.5077 	 -81.4272
| 25> C 	 -83.7619 	 -48.3105 	 -81.3415
| 26> C 	 -84.3609 	 -47.2931 	 -82.1643
| 27> C 	 -85.4103 	 -47.6606 	 -82.9657
| 28> H 	 -82.9085 	 -48.2119 	 -80.6593
| 29> C 	 -83.7086 	 -45.9508 	 -82.2226
| 30> H 	 -83.7227 	 -45.5997 	 -83.2282
| 31> H 	 -82.6428 	 -46.0603 	 -81.8638
| 32> C 	 -84.3641 	 -45.0004 	 -81.228
| 33> H 	 -84.3938 	 -45.4107 	 -80.2478
| 34> H 	 -85.4197 	 -44.8229 	 -81.5638
| 35> C 	 -83.5941 	 -43.7325 	 -81.1455
| 36> H 	 -83.2075 	 -43.4793 	 -82.1208
| 37> H 	 -82.6484 	 -43.9591 	 -80.736
| 38> H 	 -84.0372 	 -42.848 	 -80.587
| 39> H 	 -87.7332 	 -46.4852 	 -87.0767
| 40> H 	 -84.0908 	 -50.368 	 -80.9131
| 41> *
| 42>
| 43>                          ****END OF INPUT****

CARTESIAN COORDINATES (ANGSTROEM)
---------------------------------
  S    -85.757100  -47.173500  -85.712200
  C    -87.262600  -46.423100  -86.093500
  C    -87.909200  -45.898900  -85.018600
  C    -87.204700  -46.104700  -83.833200
  C    -86.139700  -46.955500  -83.988300
  H    -87.604000  -45.767300  -82.851300
  C    -89.313300  -45.399100  -84.972200
  H    -89.781500  -45.454300  -85.902400
  H    -89.335900  -44.337300  -84.735000
  C    -90.147600  -46.052800  -83.864000
  H    -89.894100  -45.759900  -82.883500
  H    -91.128200  -45.540400  -83.934200
  C    -90.221500  -47.563900  -83.841300
  H    -91.080600  -47.922700  -83.271700
  H    -90.329200  -47.902500  -84.891000
  H    -89.302000  -47.877400  -83.386000
  S    -85.593000  -49.452300  -82.801100
  C    -84.463800  -49.507700  -81.427200
  C    -83.761900  -48.310500  -81.341500
  C    -84.360900  -47.293100  -82.164300
  C    -85.410300  -47.660600  -82.965700
  H    -82.908500  -48.211900  -80.659300
  C    -83.708600  -45.950800  -82.222600
  H    -83.722700  -45.599700  -83.228200
  H    -82.642800  -46.060300  -81.863800
  C    -84.364100  -45.000400  -81.228000
  H    -84.393800  -45.410700  -80.247800
  H    -85.419700  -44.822900  -81.563800
  C    -83.594100  -43.732500  -81.145500
  H    -83.207500  -43.479300  -82.120800
  H    -82.648400  -43.959100  -80.736000
  H    -84.037200  -42.848000  -80.587000
  H    -87.733200  -46.485200  -87.076700
  H    -84.090800  -50.368000  -80.913100

 Total Charge           Charge          ....    0
 Multiplicity           Mult            ....    1
 Number of Electrons    NEL             ....  134
 Basis Dimension        Dim             ....  322

ORBITAL ENERGIES
----------------

  NO   OCC          E(Eh)            E(eV)
   0   2.0000     -88.966894     -2420.9123
   1   2.0000     -88.962996     -2420.8062
   2   2.0000     -10.330028      -281.0943
   3   2.0000     -10.325143      -280.9614
   4   2.0000     -10.321033      -280.8496
   5   2.0000     -10.309265      -280.5294
   6   2.0000     -10.300460      -280.2898
   7   2.0000     -10.297329      -280.2046
   8   2.0000     -10.295177      -280.1460
   9   2.0000     -10.291319      -280.0410
  10   2.0000     -10.286849      -279.9194
  11   2.0000     -10.286371      -279.9064
  12   2.0000     -10.280051      -279.7344
  13   2.0000     -10.279340      -279.7151
  14   2.0000     -10.271592      -279.5042
  15   2.0000     -10.270168      -279.4655
  16   2.0000      -8.081781      -219.9164
  17   2.0000      -8.076419      -219.7705
  18   2.0000      -6.040221      -164.3628
  19   2.0000      -6.036456      -164.2603
  20   2.0000      -6.035141      -164.2245
  21   2.0000      -6.032416      -164.1504
  22   2.0000      -6.031212      -164.1176
  23   2.0000      -6.026899      -164.0003
  24   2.0000      -1.008972       -27.4555
  25   2.0000      -0.983794       -26.7704
  26   2.0000      -0.917611       -24.9695
  27   2.0000      -0.915870       -24.9221
  28   2.0000      -0.871560       -23.7164
  29   2.0000      -0.850803       -23.1515
  30   2.0000      -0.848152       -23.0794
  31   2.0000      -0.818017       -22.2594
  32   2.0000      -0.785454       -21.3733
  33   2.0000      -0.767451       -20.8834
  34   2.0000      -0.711895       -19.3716
  35   2.0000      -0.697274       -18.9738
  36   2.0000      -0.691657       -18.8209
  37   2.0000      -0.663588       -18.0571
  38   2.0000      -0.639439       -17.4000
  39   2.0000      -0.629901       -17.1405
  40   2.0000      -0.593592       -16.1525
  41   2.0000      -0.570430       -15.5222
  42   2.0000      -0.564633       -15.3644
  43   2.0000      -0.556440       -15.1415
  44   2.0000      -0.539532       -14.6814
  45   2.0000      -0.527101       -14.3432
  46   2.0000      -0.520343       -14.1592
  47   2.0000      -0.512347       -13.9417
  48   2.0000      -0.510777       -13.8990
  49   2.0000      -0.497727       -13.5438
  50   2.0000      -0.491320       -13.3695
  51   2.0000      -0.478843       -13.0300
  52   2.0000      -0.470150       -12.7934
  53   2.0000      -0.464089       -12.6285
  54   2.0000      -0.457968       -12.4620
  55   2.0000      -0.448976       -12.2173
  56   2.0000      -0.444859       -12.1052
  57   2.0000      -0.439565       -11.9612
  58   2.0000      -0.430750       -11.7213
  59   2.0000      -0.423982       -11.5371
  60   2.0000      -0.415666       -11.3109
  61   2.0000      -0.412391       -11.2217
  62   2.0000      -0.411168       -11.1884
  63   2.0000      -0.339671        -9.2429
  64   2.0000      -0.325430        -8.8554
  65   2.0000      -0.324241        -8.8231
  66   2.0000      -0.304498        -8.2858
  67   0.0000       0.033306         0.9063
  68   0.0000       0.050760         1.3812
  69   0.0000       0.106391         2.8950
  70   0.0000       0.116564         3.1719
  71   0.0000       0.130850         3.5606

MULLIKEN ATOMIC CHARGES
-----------------------
   0 S :    0.123974
   1 C :   -0.129443
   2 C :   -0.089651
   3 C :    0.042881
   4 C :   -0.198728
   5 H :    0.030692
   6 C :    0.131927
   7 H :    0.000240
   8 H :    0.028088
   9 C :   -0.117627
  10 H :    0.006273
  11 H :    0.018855
  12 C :   -0.011319
  13 H :    0.037794
  14 H :    0.029426
  15 H :    0.036737
  16 S :    0.089433
  17 C :   -0.073733
  18 C :   -0.045352
  19 C :   -0.027319
  20 C :   -0.151058
  21 H :    0.031249
  22 C :    0.046288
  23 H :    0.029813
  24 H :    0.020136
  25 C :   -0.066088
  26 H :    0.019631
  27 H :    0.029200
  28 C :    0.005566
  29 H :    0.004022
  30 H :   -0.003996
  31 H :    0.052907
  32 H :    0.046084
  33 H :    0.053098
Sum of atomic charges:   -0.0000000

LOEWDIN ATOMIC CHARGES
----------------------
   0 S :    0.401197
   1 C :   -0.200718
   2 C :   -0.073453
   3 C :   -0.048923
   4 C :   -0.185987
   5 H :    0.038915
   6 C :   -0.023263
   7 H :    0.020915
   8 H :    0.038516
   9 C :   -0.046545
  10 H :    0.012645
  11 H :    0.025555
  12 C :   -0.060080
  13 H :    0.029334
  14 H :    0.027594
  15 H :    0.025458
  16 S :    0.368269
  17 C :   -0.167684
  18 C :   -0.073451
  19 C :   -0.048563
  20 C :   -0.194369
  21 H :    0.035592
  22 C :   -0.026478
  23 H :    0.025603
  24 H :    0.033238
  25 C :   -0.038684
  26 H :    0.019514
  27 H :    0.025000
  28 C :   -0.072078
  29 H :    0.022915
  30 H :    0.017519
  31 H :    0.035300
  32 H :    0.028937
  33 H :    0.028260

  Mayer bond orders larger than 0.100000
B(  0-S ,  1-C ) :   1.1313 B(  0-S ,  4-C ) :   1.1401 B(  1-C ,  2-C ) :   1.6334
B(  1-C , 32-H ) :   0.9580 B(  2-C ,  3-C ) :   1.2423 B(  2-C ,  6-C ) :   1.0363
B(  3-C ,  4-C ) :   1.5852 B(  3-C ,  5-H ) :   0.9805 B(  4-C , 20-C ) :   1.0645
B(  6-C ,  7-H ) :   0.9385 B(  6-C ,  8-H ) :   0.9201 B(  6-C ,  9-C ) :   1.0837
B(  9-C , 10-H ) :   0.9490 B(  9-C , 11-H ) :   0.9486 B(  9-C , 12-C ) :   1.0720
B( 12-C , 13-H ) :   0.9724 B( 12-C , 14-H ) :   0.9782 B( 12-C , 15-H ) :   0.9683
B( 16-S , 17-C ) :   1.1540 B( 16-S , 20-C ) :   1.0940 B( 17-C , 18-C ) :   1.6241
B( 17-C , 33-H ) :   0.9640 B( 18-C , 19-C ) :   1.2315 B( 18-C , 21-H ) :   0.9835
B( 19-C , 20-C ) :   1.6227 B( 19-C , 22-C ) :   1.0510 B( 22-C , 23-H ) :   0.9204
B( 22-C , 24-H ) :   0.9407 B( 22-C , 25-C ) :   1.0710 B( 25-C , 26-H ) :   0.9574
B( 25-C , 27-H ) :   0.9473 B( 25-C , 28-C ) :   1.0901 B( 28-C , 29-H ) :   0.9596
B( 28-C , 30-H ) :   0.9611 B( 28-C , 31-H ) :   0.9713

Dispersion correction           -0.015155658
FINAL SINGLE POINT ENERGY     -1339.864147697524

DIPOLE MOMENT
-------------
                                X             Y             Z
Electronic contribution:      8.02919     -16.26711      -9.65516
Nuclear contribution   :     -8.10262      16.60806       9.92822
                        -----------------------------------------
Total Dipole Moment    :     -0.07343       0.34096       0.27307
                        -----------------------------------------
Magnitude (a.u.)       :      0.44296
Magnitude (Debye)      :      1.12590

Rotational constants in cm-1:     0.017569     0.009443     0.008087
Rotational constants in MHz :   526.711408   283.085638   242.447822

                             ****ORCA TERMINATED NORMALLY****
TOTAL RUN TIME: 0 days 0 hours 0 minutes 22 seconds 348 msec
