                         Program Version 4.2.1 -  RELEASE  -
|  1> ! wB97X-D3 SP def2-SVP
|  2> %pal
|  3> nprocs 24
|  4> end
|  5>
|  6> * xyz 0 1
|  7> S 	 -104.962 	 50.3104 	 -98.0804
|  8> C 	 -104.468 	 51.0268 	 -96.6544
|  9> C 	 -104.296 	 50.1069 	 -95.6601
| 10> C 	 -104.605 	 48.7402 	 -96.0814
| 11> C 	 -105.154 	 48.7388 	 -97.3346
| 12> H 	 -104.565 	 47.8769 	 -95.4341
| 13> C 	 -103.745 	 50.533 	 -94.2942
| 14> H 	 -104.363 	 50.0191 	 -93.4953
| 15> H 	 -103.955 	 51.6115 	 -93.9601
| 16> C 	 -102.238 	 50.3342 	 -94.0749
| 17> H 	 -101.899 	 50.4864 	 -92.9772
| 18> H 	 -102.147 	 49.2464 	 -94.2879
| 19> C 	 -101.296 	 51.1324 	 -95.016
| 20> H 	 -101.504 	 51.0293 	 -96.0141
| 21> H 	 -101.401 	 52.1846 	 -94.6385
| 22> H 	 -100.233 	 50.8841 	 -94.8258
| 23> S 	 -105.035 	 46.7008 	 -99.261
| 24> C 	 -106.395 	 45.5405 	 -99.2858
| 25> C 	 -107.402 	 45.9662 	 -98.4397
| 26> C 	 -107.08 	 47.1648 	 -97.7089
| 27> C 	 -105.811 	 47.6579 	 -98.0031
| 28> H 	 -108.234 	 45.2807 	 -98.416
| 29> C 	 -108.082 	 47.7718 	 -96.7034
| 30> H 	 -108.148 	 48.8578 	 -96.9378
| 31> H 	 -107.656 	 47.6052 	 -95.7329
| 32> C 	 -109.527 	 47.2302 	 -96.8361
| 33> H 	 -109.959 	 47.6189 	 -95.8767
| 34> H 	 -109.528 	 46.1155 	 -96.7753
| 35> C 	 -110.189 	 47.7514 	 -98.0628
| 36> H 	 -110.38 	 48.7976 	 -97.9846
| 37> H 	 -111.115 	 47.1879 	 -98.1076
| 38> H 	 -109.73 	 47.4701 	 -98.9898
| 39> H 	 -104.132 	 52.0577 	 -96.4909
| 40> H 	 -106.517 	 44.7171 	 -99.9301
| 41> *
| 42>
| 43>                          ****END OF INPUT****

CARTESIAN COORDINATES (ANGSTROEM)
---------------------------------
  S    -104.962000   50.310400  -98.080400
  C    -104.468000   51.026800  -96.654400
  C    -104.296000   50.106900  -95.660100
  C    -104.605000   48.740200  -96.081400
  C    -105.154000   48.738800  -97.334600
  H    -104.565000   47.876900  -95.434100
  C    -103.745000   50.533000  -94.294200
  H    -104.363000   50.019100  -93.495300
  H    -103.955000   51.611500  -93.960100
  C    -102.238000   50.334200  -94.074900
  H    -101.899000   50.486400  -92.977200
  H    -102.147000   49.246400  -94.287900
  C    -101.296000   51.132400  -95.016000
  H    -101.504000   51.029300  -96.014100
  H    -101.401000   52.184600  -94.638500
  H    -100.233000   50.884100  -94.825800
  S    -105.035000   46.700800  -99.261000
  C    -106.395000   45.540500  -99.285800
  C    -107.402000   45.966200  -98.439700
  C    -107.080000   47.164800  -97.708900
  C    -105.811000   47.657900  -98.003100
  H    -108.234000   45.280700  -98.416000
  C    -108.082000   47.771800  -96.703400
  H    -108.148000   48.857800  -96.937800
  H    -107.656000   47.605200  -95.732900
  C    -109.527000   47.230200  -96.836100
  H    -109.959000   47.618900  -95.876700
  H    -109.528000   46.115500  -96.775300
  C    -110.189000   47.751400  -98.062800
  H    -110.380000   48.797600  -97.984600
  H    -111.115000   47.187900  -98.107600
  H    -109.730000   47.470100  -98.989800
  H    -104.132000   52.057700  -96.490900
  H    -106.517000   44.717100  -99.930100

 Total Charge           Charge          ....    0
 Multiplicity           Mult            ....    1
 Number of Electrons    NEL             ....  134
 Basis Dimension        Dim             ....  322

ORBITAL ENERGIES
----------------

  NO   OCC          E(Eh)            E(eV)
   0   2.0000     -88.964606     -2420.8500
   1   2.0000     -88.963620     -2420.8232
   2   2.0000     -10.326038      -280.9858
   3   2.0000     -10.322778      -280.8971
   4   2.0000     -10.317255      -280.7468
   5   2.0000     -10.308341      -280.5042
   6   2.0000     -10.305595      -280.4295
   7   2.0000     -10.301375      -280.3147
   8   2.0000     -10.301153      -280.3086
   9   2.0000     -10.299889      -280.2742
  10   2.0000     -10.294501      -280.1276
  11   2.0000     -10.294091      -280.1165
  12   2.0000     -10.290061      -280.0068
  13   2.0000     -10.289727      -279.9977
  14   2.0000     -10.276365      -279.6341
  15   2.0000     -10.269906      -279.4583
  16   2.0000      -8.080125      -219.8714
  17   2.0000      -8.078488      -219.8268
  18   2.0000      -6.038517      -164.3164
  19   2.0000      -6.037099      -164.2778
  20   2.0000      -6.034325      -164.2023
  21   2.0000      -6.033035      -164.1672
  22   2.0000      -6.030945      -164.1103
  23   2.0000      -6.029278      -164.0650
  24   2.0000      -1.011536       -27.5253
  25   2.0000      -0.983042       -26.7499
  26   2.0000      -0.910642       -24.7798
  27   2.0000      -0.904658       -24.6170
  28   2.0000      -0.875063       -23.8117
  29   2.0000      -0.846383       -23.0312
  30   2.0000      -0.843349       -22.9487
  31   2.0000      -0.818494       -22.2723
  32   2.0000      -0.783398       -21.3173
  33   2.0000      -0.772615       -21.0239
  34   2.0000      -0.710324       -19.3289
  35   2.0000      -0.694007       -18.8849
  36   2.0000      -0.683616       -18.6021
  37   2.0000      -0.650883       -17.7114
  38   2.0000      -0.644102       -17.5269
  39   2.0000      -0.619209       -16.8495
  40   2.0000      -0.597720       -16.2648
  41   2.0000      -0.573613       -15.6088
  42   2.0000      -0.559857       -15.2345
  43   2.0000      -0.550501       -14.9799
  44   2.0000      -0.537853       -14.6357
  45   2.0000      -0.534368       -14.5409
  46   2.0000      -0.524269       -14.2661
  47   2.0000      -0.510330       -13.8868
  48   2.0000      -0.498521       -13.5655
  49   2.0000      -0.497397       -13.5349
  50   2.0000      -0.497214       -13.5299
  51   2.0000      -0.475756       -12.9460
  52   2.0000      -0.472871       -12.8675
  53   2.0000      -0.464013       -12.6264
  54   2.0000      -0.459149       -12.4941
  55   2.0000      -0.448707       -12.2099
  56   2.0000      -0.442446       -12.0396
  57   2.0000      -0.439419       -11.9572
  58   2.0000      -0.437275       -11.8988
  59   2.0000      -0.418702       -11.3935
  60   2.0000      -0.416824       -11.3424
  61   2.0000      -0.406254       -11.0547
  62   2.0000      -0.397260       -10.8100
  63   2.0000      -0.340057        -9.2534
  64   2.0000      -0.330956        -9.0058
  65   2.0000      -0.322224        -8.7682
  66   2.0000      -0.306785        -8.3480
  67   0.0000       0.041651         1.1334
  68   0.0000       0.057197         1.5564
  69   0.0000       0.117931         3.2091
  70   0.0000       0.122376         3.3300
  71   0.0000       0.134410         3.6575

MULLIKEN ATOMIC CHARGES
-----------------------
   0 S :    0.127024
   1 C :   -0.092107
   2 C :   -0.126554
   3 C :    0.077629
   4 C :   -0.196003
   5 H :    0.018083
   6 C :    0.006182
   7 H :    0.035181
   8 H :    0.027080
   9 C :   -0.102260
  10 H :    0.045412
  11 H :    0.024833
  12 C :   -0.035922
  13 H :    0.033783
  14 H :    0.026152
  15 H :    0.039558
  16 S :    0.106607
  17 C :   -0.079821
  18 C :   -0.053872
  19 C :   -0.039589
  20 C :   -0.165834
  21 H :    0.018395
  22 C :    0.094535
  23 H :    0.037802
  24 H :    0.031891
  25 C :   -0.109830
  26 H :    0.036844
  27 H :    0.033136
  28 C :   -0.005870
  29 H :    0.035469
  30 H :    0.022617
  31 H :    0.035147
  32 H :    0.055259
  33 H :    0.039042
Sum of atomic charges:   -0.0000000

LOEWDIN ATOMIC CHARGES
----------------------
   0 S :    0.435909
   1 C :   -0.219057
   2 C :   -0.073583
   3 C :   -0.046559
   4 C :   -0.196870
   5 H :    0.033903
   6 C :   -0.049614
   7 H :    0.035031
   8 H :    0.030970
   9 C :   -0.052200
  10 H :    0.033259
  11 H :    0.020104
  12 C :   -0.062019
  13 H :    0.011604
  14 H :    0.028949
  15 H :    0.032423
  16 S :    0.385088
  17 C :   -0.165105
  18 C :   -0.077270
  19 C :   -0.046531
  20 C :   -0.213484
  21 H :    0.031554
  22 C :   -0.030714
  23 H :    0.037528
  24 H :    0.028049
  25 C :   -0.046354
  26 H :    0.032926
  27 H :    0.022825
  28 C :   -0.061526
  29 H :    0.025981
  30 H :    0.030196
  31 H :    0.025974
  32 H :    0.037128
  33 H :    0.021487

  Mayer bond orders larger than 0.100000
B(  0-S ,  1-C ) :   1.1518 B(  0-S ,  4-C ) :   1.1530 B(  1-C ,  2-C ) :   1.6250
B(  1-C , 32-H ) :   0.9610 B(  2-C ,  3-C ) :   1.2275 B(  2-C ,  6-C ) :   1.0174
B(  3-C ,  4-C ) :   1.5878 B(  3-C ,  5-H ) :   0.9971 B(  4-C , 20-C ) :   1.0379
B(  6-C ,  7-H ) :   0.9409 B(  6-C ,  8-H ) :   0.9514 B(  6-C ,  9-C ) :   1.0571
B(  9-C , 10-H ) :   0.9576 B(  9-C , 11-H ) :   0.9568 B(  9-C , 12-C ) :   1.0698
B( 12-C , 13-H ) :   0.9771 B( 12-C , 14-H ) :   0.9752 B( 12-C , 15-H ) :   0.9739
B( 16-S , 17-C ) :   1.1460 B( 16-S , 20-C ) :   1.1320 B( 17-C , 18-C ) :   1.6383
B( 17-C , 20-C ) :   0.1001 B( 17-C , 33-H ) :   0.9659 B( 18-C , 19-C ) :   1.2200
B( 18-C , 21-H ) :   0.9858 B( 19-C , 20-C ) :   1.6126 B( 19-C , 22-C ) :   1.0141
B( 22-C , 23-H ) :   0.9323 B( 22-C , 24-H ) :   0.9280 B( 22-C , 25-C ) :   1.0852
B( 25-C , 26-H ) :   0.9518 B( 25-C , 27-H ) :   0.9473 B( 25-C , 28-C ) :   1.0849
B( 28-C , 29-H ) :   0.9706 B( 28-C , 30-H ) :   0.9674 B( 28-C , 31-H ) :   0.9718

Dispersion correction           -0.014756232
FINAL SINGLE POINT ENERGY     -1339.870633582095

DIPOLE MOMENT
-------------
                                X             Y             Z
Electronic contribution:      4.83592      -4.78042     -16.86978
Nuclear contribution   :     -5.16425       4.67780      17.35829
                        -----------------------------------------
Total Dipole Moment    :     -0.32833      -0.10262       0.48851
                        -----------------------------------------
Magnitude (a.u.)       :      0.59747
Magnitude (Debye)      :      1.51866

Rotational constants in cm-1:     0.023632     0.007426     0.006590
Rotational constants in MHz :   708.466998   222.631389   197.554535

                             ****ORCA TERMINATED NORMALLY****
TOTAL RUN TIME: 0 days 0 hours 0 minutes 21 seconds 387 msec
