                         Program Version 4.2.1 -  RELEASE  -
|  1> ! wB97X-D3 SP def2-SVP
|  2> %pal
|  3> nprocs 24
|  4> end
|  5>
|  6> * xyz 0 1
|  7> S 	 -70.917 	 8.75605 	 -103.129
|  8> C 	 -69.5351 	 9.44249 	 -104.047
|  9> C 	 -70.0463 	 10.3202 	 -105.009
| 10> C 	 -71.4824 	 10.4554 	 -104.996
| 11> C 	 -72.1233 	 9.72095 	 -104.023
| 12> H 	 -72.1159 	 10.9747 	 -105.613
| 13> C 	 -69.2115 	 11.1295 	 -105.922
| 14> H 	 -68.1676 	 10.931 	 -105.841
| 15> H 	 -69.341 	 12.2155 	 -105.588
| 16> C 	 -69.6692 	 11.105 	 -107.316
| 17> H 	 -70.6902 	 11.4392 	 -107.396
| 18> H 	 -69.0525 	 11.8033 	 -107.917
| 19> C 	 -69.4483 	 9.71209 	 -107.973
| 20> H 	 -69.294 	 9.85451 	 -109.065
| 21> H 	 -68.5951 	 9.24632 	 -107.494
| 22> H 	 -70.3057 	 9.06986 	 -107.879
| 23> S 	 -74.3888 	 10.8325 	 -103.1
| 24> C 	 -75.7468 	 9.86008 	 -102.796
| 25> C 	 -75.5652 	 8.49482 	 -103.111
| 26> C 	 -74.2532 	 8.28006 	 -103.656
| 27> C 	 -73.54 	 9.50495 	 -103.808
| 28> H 	 -76.4121 	 7.7411 	 -102.907
| 29> C 	 -73.7782 	 6.93573 	 -104.047
| 30> H 	 -72.816 	 7.08615 	 -104.532
| 31> H 	 -74.5094 	 6.4646 	 -104.781
| 32> C 	 -73.6978 	 5.99103 	 -102.779
| 33> H 	 -74.6388 	 5.76829 	 -102.317
| 34> H 	 -73.0988 	 6.48352 	 -101.972
| 35> C 	 -73.0372 	 4.62898 	 -103.082
| 36> H 	 -71.9678 	 4.85308 	 -103.25
| 37> H 	 -73.3219 	 4.18437 	 -104.045
| 38> H 	 -73.1336 	 3.8326 	 -102.309
| 39> H 	 -68.4441 	 9.21319 	 -103.926
| 40> H 	 -76.6104 	 10.234 	 -102.36
| 41> *
| 42>
| 43>                          ****END OF INPUT****

CARTESIAN COORDINATES (ANGSTROEM)
---------------------------------
  S    -70.917000    8.756050  -103.129000
  C    -69.535100    9.442490  -104.047000
  C    -70.046300   10.320200  -105.009000
  C    -71.482400   10.455400  -104.996000
  C    -72.123300    9.720950  -104.023000
  H    -72.115900   10.974700  -105.613000
  C    -69.211500   11.129500  -105.922000
  H    -68.167600   10.931000  -105.841000
  H    -69.341000   12.215500  -105.588000
  C    -69.669200   11.105000  -107.316000
  H    -70.690200   11.439200  -107.396000
  H    -69.052500   11.803300  -107.917000
  C    -69.448300    9.712090  -107.973000
  H    -69.294000    9.854510  -109.065000
  H    -68.595100    9.246320  -107.494000
  H    -70.305700    9.069860  -107.879000
  S    -74.388800   10.832500  -103.100000
  C    -75.746800    9.860080  -102.796000
  C    -75.565200    8.494820  -103.111000
  C    -74.253200    8.280060  -103.656000
  C    -73.540000    9.504950  -103.808000
  H    -76.412100    7.741100  -102.907000
  C    -73.778200    6.935730  -104.047000
  H    -72.816000    7.086150  -104.532000
  H    -74.509400    6.464600  -104.781000
  C    -73.697800    5.991030  -102.779000
  H    -74.638800    5.768290  -102.317000
  H    -73.098800    6.483520  -101.972000
  C    -73.037200    4.628980  -103.082000
  H    -71.967800    4.853080  -103.250000
  H    -73.321900    4.184370  -104.045000
  H    -73.133600    3.832600  -102.309000
  H    -68.444100    9.213190  -103.926000
  H    -76.610400   10.234000  -102.360000

 Total Charge           Charge          ....    0
 Multiplicity           Mult            ....    1
 Number of Electrons    NEL             ....  134
 Basis Dimension        Dim             ....  322

ORBITAL ENERGIES
----------------

  NO   OCC          E(Eh)            E(eV)
   0   2.0000     -88.970242     -2421.0034
   1   2.0000     -88.963304     -2420.8146
   2   2.0000     -10.331144      -281.1247
   3   2.0000     -10.324911      -280.9551
   4   2.0000     -10.322924      -280.9010
   5   2.0000     -10.314198      -280.6636
   6   2.0000     -10.308998      -280.5221
   7   2.0000     -10.304715      -280.4055
   8   2.0000     -10.303654      -280.3767
   9   2.0000     -10.296368      -280.1784
  10   2.0000     -10.289842      -280.0008
  11   2.0000     -10.289541      -279.9926
  12   2.0000     -10.286442      -279.9083
  13   2.0000     -10.281365      -279.7702
  14   2.0000     -10.278101      -279.6814
  15   2.0000     -10.273648      -279.5602
  16   2.0000      -8.086134      -220.0349
  17   2.0000      -8.076469      -219.7719
  18   2.0000      -6.044404      -164.4766
  19   2.0000      -6.040364      -164.3667
  20   2.0000      -6.037191      -164.2803
  21   2.0000      -6.035240      -164.2272
  22   2.0000      -6.031076      -164.1139
  23   2.0000      -6.027163      -164.0074
  24   2.0000      -1.007690       -27.4206
  25   2.0000      -0.980685       -26.6858
  26   2.0000      -0.920863       -25.0579
  27   2.0000      -0.907067       -24.6826
  28   2.0000      -0.868192       -23.6247
  29   2.0000      -0.850653       -23.1474
  30   2.0000      -0.838442       -22.8152
  31   2.0000      -0.814407       -22.1611
  32   2.0000      -0.780877       -21.2487
  33   2.0000      -0.768258       -20.9054
  34   2.0000      -0.707548       -19.2533
  35   2.0000      -0.699743       -19.0410
  36   2.0000      -0.687294       -18.7022
  37   2.0000      -0.662105       -18.0168
  38   2.0000      -0.638462       -17.3734
  39   2.0000      -0.623907       -16.9774
  40   2.0000      -0.596475       -16.2309
  41   2.0000      -0.565308       -15.3828
  42   2.0000      -0.559213       -15.2170
  43   2.0000      -0.554993       -15.1021
  44   2.0000      -0.538003       -14.6398
  45   2.0000      -0.527015       -14.3408
  46   2.0000      -0.518889       -14.1197
  47   2.0000      -0.510914       -13.9027
  48   2.0000      -0.503795       -13.7089
  49   2.0000      -0.500947       -13.6315
  50   2.0000      -0.484548       -13.1852
  51   2.0000      -0.478129       -13.0105
  52   2.0000      -0.467005       -12.7079
  53   2.0000      -0.462978       -12.5983
  54   2.0000      -0.458875       -12.4866
  55   2.0000      -0.450236       -12.2516
  56   2.0000      -0.442719       -12.0470
  57   2.0000      -0.436031       -11.8650
  58   2.0000      -0.432341       -11.7646
  59   2.0000      -0.430299       -11.7090
  60   2.0000      -0.419437       -11.4135
  61   2.0000      -0.412890       -11.2353
  62   2.0000      -0.406534       -11.0624
  63   2.0000      -0.342591        -9.3224
  64   2.0000      -0.331927        -9.0322
  65   2.0000      -0.321754        -8.7554
  66   2.0000      -0.296038        -8.0556
  67   0.0000       0.031185         0.8486
  68   0.0000       0.063682         1.7329
  69   0.0000       0.103405         2.8138
  70   0.0000       0.115709         3.1486
  71   0.0000       0.125498         3.4150

MULLIKEN ATOMIC CHARGES
-----------------------
   0 S :    0.086638
   1 C :   -0.142070
   2 C :   -0.063292
   3 C :    0.061461
   4 C :   -0.153614
   5 H :   -0.025563
   6 C :    0.066432
   7 H :    0.008518
   8 H :    0.046574
   9 C :   -0.090679
  10 H :    0.030023
  11 H :    0.027759
  12 C :   -0.045272
  13 H :    0.036525
  14 H :    0.025245
  15 H :    0.035957
  16 S :    0.135534
  17 C :   -0.076741
  18 C :   -0.059746
  19 C :   -0.052205
  20 C :   -0.157691
  21 H :    0.056245
  22 C :    0.057151
  23 H :    0.031620
  24 H :    0.048780
  25 C :   -0.092652
  26 H :    0.025728
  27 H :    0.039753
  28 C :   -0.061466
  29 H :    0.030360
  30 H :    0.023006
  31 H :    0.045173
  32 H :    0.069839
  33 H :    0.032672
Sum of atomic charges:    0.0000000

LOEWDIN ATOMIC CHARGES
----------------------
   0 S :    0.372414
   1 C :   -0.197234
   2 C :   -0.059281
   3 C :   -0.056286
   4 C :   -0.177947
   5 H :    0.016993
   6 C :   -0.039704
   7 H :    0.022459
   8 H :    0.044859
   9 C :   -0.043501
  10 H :    0.020159
  11 H :    0.026905
  12 C :   -0.063363
  13 H :    0.029593
  14 H :    0.022946
  15 H :    0.023509
  16 S :    0.455566
  17 C :   -0.190394
  18 C :   -0.077762
  19 C :   -0.048671
  20 C :   -0.228080
  21 H :    0.049116
  22 C :   -0.035807
  23 H :    0.026029
  24 H :    0.042575
  25 C :   -0.038740
  26 H :    0.017225
  27 H :    0.028261
  28 C :   -0.076874
  29 H :    0.027737
  30 H :    0.022095
  31 H :    0.029273
  32 H :    0.043333
  33 H :    0.012595

  Mayer bond orders larger than 0.100000
B(  0-S ,  1-C ) :   1.1152 B(  0-S ,  4-C ) :   1.1250 B(  1-C ,  2-C ) :   1.6186
B(  1-C , 32-H ) :   0.9643 B(  2-C ,  3-C ) :   1.1899 B(  2-C ,  6-C ) :   1.0387
B(  3-C ,  4-C ) :   1.6097 B(  3-C ,  5-H ) :   1.0037 B(  4-C , 20-C ) :   1.0227
B(  6-C ,  7-H ) :   0.9411 B(  6-C ,  8-H ) :   0.9315 B(  6-C ,  9-C ) :   1.0933
B(  9-C , 10-H ) :   0.9517 B(  9-C , 11-H ) :   0.9555 B(  9-C , 12-C ) :   1.0614
B( 12-C , 13-H ) :   0.9785 B( 12-C , 14-H ) :   0.9779 B( 12-C , 15-H ) :   0.9747
B( 16-S , 17-C ) :   1.2014 B( 16-S , 20-C ) :   1.1623 B( 17-C , 18-C ) :   1.5625
B( 17-C , 20-C ) :   0.1006 B( 17-C , 33-H ) :   0.9755 B( 18-C , 19-C ) :   1.2616
B( 18-C , 21-H ) :   0.9793 B( 19-C , 20-C ) :   1.5357 B( 19-C , 22-C ) :   1.0663
B( 22-C , 23-H ) :   0.9332 B( 22-C , 24-H ) :   0.9308 B( 22-C , 25-C ) :   1.0419
B( 25-C , 26-H ) :   0.9597 B( 25-C , 27-H ) :   0.9586 B( 25-C , 28-C ) :   1.0766
B( 28-C , 29-H ) :   0.9756 B( 28-C , 30-H ) :   0.9725 B( 28-C , 31-H ) :   0.9766

Dispersion correction           -0.014709194
FINAL SINGLE POINT ENERGY     -1339.877137659136

DIPOLE MOMENT
-------------
                                X             Y             Z
Electronic contribution:     -8.46350      12.30025      13.28543
Nuclear contribution   :      8.41496     -12.36136     -13.53230
                        -----------------------------------------
Total Dipole Moment    :     -0.04854      -0.06111      -0.24686
                        -----------------------------------------
Magnitude (a.u.)       :      0.25891
Magnitude (Debye)      :      0.65809

Rotational constants in cm-1:     0.019159     0.008746     0.007108
Rotational constants in MHz :   574.370887   262.204212   213.096680

                             ****ORCA TERMINATED NORMALLY****
TOTAL RUN TIME: 0 days 0 hours 0 minutes 21 seconds 605 msec
