                         Program Version 4.2.1 -  RELEASE  -
|  1> ! wB97X-D3 SP def2-SVP
|  2> %pal
|  3> nprocs 24
|  4> end
|  5>
|  6> * xyz 0 1
|  7> S 	 -122.588 	 60.9505 	 -47.8568
|  8> C 	 -122.493 	 59.5385 	 -46.7679
|  9> C 	 -123.711 	 58.922 	 -46.6195
| 10> C 	 -124.719 	 59.526 	 -47.469
| 11> C 	 -124.271 	 60.6291 	 -48.1802
| 12> H 	 -125.753 	 59.1328 	 -47.5852
| 13> C 	 -123.994 	 57.7068 	 -45.7461
| 14> H 	 -123.173 	 56.9935 	 -45.9494
| 15> H 	 -124.894 	 57.2301 	 -46.1456
| 16> C 	 -124.331 	 58.0757 	 -44.2687
| 17> H 	 -124.369 	 57.2243 	 -43.6048
| 18> H 	 -123.633 	 58.7255 	 -43.7755
| 19> C 	 -125.627 	 58.9291 	 -44.0448
| 20> H 	 -125.497 	 59.9019 	 -44.5286
| 21> H 	 -126.568 	 58.5207 	 -44.3441
| 22> H 	 -125.782 	 59.112 	 -42.9858
| 23> S 	 -124.525 	 61.4882 	 -50.7608
| 24> C 	 -125.946 	 62.2643 	 -51.3378
| 25> C 	 -126.908 	 62.2177 	 -50.3646
| 26> C 	 -126.447 	 61.8028 	 -49.0242
| 27> C 	 -125.113 	 61.3866 	 -49.124
| 28> H 	 -127.795 	 62.7146 	 -50.5728
| 29> C 	 -127.269 	 61.5555 	 -47.8099
| 30> H 	 -127.664 	 62.5483 	 -47.6013
| 31> H 	 -126.644 	 61.4273 	 -46.9715
| 32> C 	 -128.375 	 60.4745 	 -48.0075
| 33> H 	 -127.882 	 59.5659 	 -48.3283
| 34> H 	 -128.988 	 60.8982 	 -48.8415
| 35> C 	 -129.316 	 60.2095 	 -46.7339
| 36> H 	 -128.79 	 60.3147 	 -45.765
| 37> H 	 -129.825 	 59.24 	 -46.812
| 38> H 	 -130.135 	 60.9463 	 -46.6172
| 39> H 	 -121.617 	 59.2412 	 -46.2759
| 40> H 	 -126.136 	 62.7781 	 -52.29
| 41> *
| 42>
| 43>                          ****END OF INPUT****

CARTESIAN COORDINATES (ANGSTROEM)
---------------------------------
  S    -122.588000   60.950500  -47.856800
  C    -122.493000   59.538500  -46.767900
  C    -123.711000   58.922000  -46.619500
  C    -124.719000   59.526000  -47.469000
  C    -124.271000   60.629100  -48.180200
  H    -125.753000   59.132800  -47.585200
  C    -123.994000   57.706800  -45.746100
  H    -123.173000   56.993500  -45.949400
  H    -124.894000   57.230100  -46.145600
  C    -124.331000   58.075700  -44.268700
  H    -124.369000   57.224300  -43.604800
  H    -123.633000   58.725500  -43.775500
  C    -125.627000   58.929100  -44.044800
  H    -125.497000   59.901900  -44.528600
  H    -126.568000   58.520700  -44.344100
  H    -125.782000   59.112000  -42.985800
  S    -124.525000   61.488200  -50.760800
  C    -125.946000   62.264300  -51.337800
  C    -126.908000   62.217700  -50.364600
  C    -126.447000   61.802800  -49.024200
  C    -125.113000   61.386600  -49.124000
  H    -127.795000   62.714600  -50.572800
  C    -127.269000   61.555500  -47.809900
  H    -127.664000   62.548300  -47.601300
  H    -126.644000   61.427300  -46.971500
  C    -128.375000   60.474500  -48.007500
  H    -127.882000   59.565900  -48.328300
  H    -128.988000   60.898200  -48.841500
  C    -129.316000   60.209500  -46.733900
  H    -128.790000   60.314700  -45.765000
  H    -129.825000   59.240000  -46.812000
  H    -130.135000   60.946300  -46.617200
  H    -121.617000   59.241200  -46.275900
  H    -126.136000   62.778100  -52.290000

 Total Charge           Charge          ....    0
 Multiplicity           Mult            ....    1
 Number of Electrons    NEL             ....  134
 Basis Dimension        Dim             ....  322

ORBITAL ENERGIES
----------------

  NO   OCC          E(Eh)            E(eV)
   0   2.0000     -88.967852     -2420.9383
   1   2.0000     -88.960882     -2420.7487
   2   2.0000     -10.330364      -281.1035
   3   2.0000     -10.325503      -280.9712
   4   2.0000     -10.315464      -280.6980
   5   2.0000     -10.313446      -280.6431
   6   2.0000     -10.306370      -280.4506
   7   2.0000     -10.303037      -280.3599
   8   2.0000     -10.300762      -280.2980
   9   2.0000     -10.300528      -280.2916
  10   2.0000     -10.298044      -280.2240
  11   2.0000     -10.290827      -280.0276
  12   2.0000     -10.290175      -280.0099
  13   2.0000     -10.289934      -280.0033
  14   2.0000     -10.286582      -279.9121
  15   2.0000     -10.276976      -279.6507
  16   2.0000      -8.082055      -219.9239
  17   2.0000      -8.076480      -219.7722
  18   2.0000      -6.040637      -164.3741
  19   2.0000      -6.036635      -164.2652
  20   2.0000      -6.035035      -164.2217
  21   2.0000      -6.032767      -164.1599
  22   2.0000      -6.030803      -164.1065
  23   2.0000      -6.027188      -164.0081
  24   2.0000      -1.004933       -27.3456
  25   2.0000      -0.982018       -26.7221
  26   2.0000      -0.907418       -24.6921
  27   2.0000      -0.906452       -24.6658
  28   2.0000      -0.867408       -23.6034
  29   2.0000      -0.845722       -23.0133
  30   2.0000      -0.839966       -22.8566
  31   2.0000      -0.815142       -22.1811
  32   2.0000      -0.784475       -21.3467
  33   2.0000      -0.773725       -21.0541
  34   2.0000      -0.709940       -19.3185
  35   2.0000      -0.707681       -19.2570
  36   2.0000      -0.697900       -18.9908
  37   2.0000      -0.658329       -17.9140
  38   2.0000      -0.638598       -17.3771
  39   2.0000      -0.615070       -16.7369
  40   2.0000      -0.591670       -16.1002
  41   2.0000      -0.571656       -15.5556
  42   2.0000      -0.559426       -15.2228
  43   2.0000      -0.551659       -15.0114
  44   2.0000      -0.537472       -14.6254
  45   2.0000      -0.524565       -14.2741
  46   2.0000      -0.516959       -14.0672
  47   2.0000      -0.513803       -13.9813
  48   2.0000      -0.507066       -13.7980
  49   2.0000      -0.493244       -13.4219
  50   2.0000      -0.485964       -13.2237
  51   2.0000      -0.479583       -13.0501
  52   2.0000      -0.467500       -12.7213
  53   2.0000      -0.464499       -12.6397
  54   2.0000      -0.454777       -12.3751
  55   2.0000      -0.451455       -12.2847
  56   2.0000      -0.444196       -12.0872
  57   2.0000      -0.440830       -11.9956
  58   2.0000      -0.438588       -11.9346
  59   2.0000      -0.425965       -11.5911
  60   2.0000      -0.421236       -11.4624
  61   2.0000      -0.419026       -11.4023
  62   2.0000      -0.414731       -11.2854
  63   2.0000      -0.344842        -9.3836
  64   2.0000      -0.331883        -9.0310
  65   2.0000      -0.323544        -8.8041
  66   2.0000      -0.297412        -8.0930
  67   0.0000       0.030342         0.8256
  68   0.0000       0.076854         2.0913
  69   0.0000       0.113421         3.0863
  70   0.0000       0.117781         3.2050
  71   0.0000       0.128928         3.5083

MULLIKEN ATOMIC CHARGES
-----------------------
   0 S :    0.113070
   1 C :   -0.108165
   2 C :   -0.098582
   3 C :    0.016004
   4 C :   -0.149596
   5 H :    0.017833
   6 C :    0.083314
   7 H :    0.044266
   8 H :    0.022695
   9 C :   -0.047518
  10 H :    0.027653
  11 H :    0.023324
  12 C :   -0.082014
  13 H :    0.047936
  14 H :    0.022153
  15 H :    0.029114
  16 S :    0.105336
  17 C :   -0.094690
  18 C :   -0.026773
  19 C :   -0.072163
  20 C :   -0.141354
  21 H :   -0.001885
  22 C :    0.093232
  23 H :    0.017700
  24 H :    0.010021
  25 C :   -0.080739
  26 H :    0.040127
  27 H :    0.043752
  28 C :   -0.064760
  29 H :    0.039188
  30 H :    0.044412
  31 H :    0.033076
  32 H :    0.026212
  33 H :    0.067823
Sum of atomic charges:    0.0000000

LOEWDIN ATOMIC CHARGES
----------------------
   0 S :    0.395661
   1 C :   -0.175899
   2 C :   -0.062161
   3 C :   -0.063234
   4 C :   -0.202391
   5 H :    0.035851
   6 C :   -0.031018
   7 H :    0.038125
   8 H :    0.031656
   9 C :   -0.036588
  10 H :    0.021884
  11 H :    0.023925
  12 C :   -0.066389
  13 H :    0.027459
  14 H :    0.014715
  15 H :    0.028112
  16 S :    0.415618
  17 C :   -0.197500
  18 C :   -0.070337
  19 C :   -0.051545
  20 C :   -0.199743
  21 H :    0.016115
  22 C :   -0.037702
  23 H :    0.032882
  24 H :    0.022460
  25 C :   -0.031690
  26 H :    0.020402
  27 H :    0.032940
  28 C :   -0.075525
  29 H :    0.028093
  30 H :    0.029447
  31 H :    0.028070
  32 H :    0.017311
  33 H :    0.040993

  Mayer bond orders larger than 0.100000
B(  0-S ,  1-C ) :   1.1269 B(  0-S ,  4-C ) :   1.1513 B(  1-C ,  2-C ) :   1.6273
B(  1-C , 32-H ) :   0.9760 B(  2-C ,  3-C ) :   1.2332 B(  2-C ,  6-C ) :   1.0103
B(  3-C ,  4-C ) :   1.5718 B(  3-C ,  5-H ) :   0.9837 B(  4-C , 20-C ) :   1.0175
B(  6-C ,  7-H ) :   0.9469 B(  6-C ,  8-H ) :   0.9449 B(  6-C ,  9-C ) :   1.0492
B(  9-C , 10-H ) :   0.9609 B(  9-C , 11-H ) :   0.9614 B(  9-C , 12-C ) :   1.0724
B( 12-C , 13-H ) :   0.9758 B( 12-C , 14-H ) :   0.9771 B( 12-C , 15-H ) :   0.9727
B( 16-S , 17-C ) :   1.1471 B( 16-S , 20-C ) :   1.1537 B( 17-C , 18-C ) :   1.6358
B( 17-C , 33-H ) :   0.9643 B( 18-C , 19-C ) :   1.2134 B( 18-C , 21-H ) :   0.9892
B( 19-C , 20-C ) :   1.5939 B( 19-C , 22-C ) :   1.0660 B( 22-C , 23-H ) :   0.9179
B( 22-C , 24-H ) :   0.9252 B( 22-C , 25-C ) :   1.0438 B( 25-C , 26-H ) :   0.9608
B( 25-C , 27-H ) :   0.9561 B( 25-C , 28-C ) :   1.0597 B( 28-C , 29-H ) :   0.9783
B( 28-C , 30-H ) :   0.9783 B( 28-C , 31-H ) :   0.9767

Dispersion correction           -0.015409249
FINAL SINGLE POINT ENERGY     -1339.877930930647

DIPOLE MOMENT
-------------
                                X             Y             Z
Electronic contribution:     20.75524      10.71684     -21.79877
Nuclear contribution   :    -21.31361     -10.97188      22.23295
                        -----------------------------------------
Total Dipole Moment    :     -0.55837      -0.25504       0.43417
                        -----------------------------------------
Magnitude (a.u.)       :      0.75189
Magnitude (Debye)      :      1.91115

Rotational constants in cm-1:     0.017086     0.010566     0.006978
Rotational constants in MHz :   512.237937   316.760294   209.190343

                             ****ORCA TERMINATED NORMALLY****
TOTAL RUN TIME: 0 days 0 hours 0 minutes 22 seconds 455 msec
