                         Program Version 4.2.1 -  RELEASE  -
|  1> ! wB97X-D3 SP def2-SVP
|  2> %pal
|  3> nprocs 24
|  4> end
|  5>
|  6> * xyz 0 1
|  7> S 	 -66.9181 	 -45.6863 	 -87.0405
|  8> C 	 -65.3069 	 -45.1293 	 -87.4449
|  9> C 	 -64.6362 	 -46.0345 	 -88.2284
| 10> C 	 -65.3469 	 -47.3074 	 -88.3681
| 11> C 	 -66.5265 	 -47.2818 	 -87.6349
| 12> H 	 -65.1498 	 -48.1997 	 -88.9222
| 13> C 	 -63.2818 	 -45.8546 	 -88.8763
| 14> H 	 -62.6483 	 -45.405 	 -88.2391
| 15> H 	 -63.3943 	 -45.183 	 -89.6589
| 16> C 	 -62.5605 	 -47.0403 	 -89.4251
| 17> H 	 -62.8704 	 -47.939 	 -88.7966
| 18> H 	 -62.8741 	 -47.2523 	 -90.4397
| 19> C 	 -61.0634 	 -46.8394 	 -89.3853
| 20> H 	 -60.6395 	 -46.8041 	 -88.358
| 21> H 	 -60.575 	 -47.738 	 -89.7021
| 22> H 	 -60.701 	 -45.9874 	 -90.0512
| 23> S 	 -68.9793 	 -48.2472 	 -87.1129
| 24> C 	 -69.2793 	 -49.9707 	 -86.9118
| 25> C 	 -68.042 	 -50.5739 	 -86.7066
| 26> C 	 -66.9371 	 -49.7218 	 -86.8459
| 27> C 	 -67.3029 	 -48.4425 	 -87.2642
| 28> H 	 -67.8464 	 -51.5856 	 -86.4111
| 29> C 	 -65.5886 	 -50.1913 	 -86.5224
| 30> H 	 -65.5539 	 -50.7484 	 -85.5892
| 31> H 	 -64.9863 	 -49.289 	 -86.2846
| 32> C 	 -64.9455 	 -51.0493 	 -87.6619
| 33> H 	 -64.8922 	 -50.3792 	 -88.5438
| 34> H 	 -65.6521 	 -51.8208 	 -88.0037
| 35> C 	 -63.5623 	 -51.6013 	 -87.4624
| 36> H 	 -63.0903 	 -52.1226 	 -88.3348
| 37> H 	 -63.6668 	 -52.3721 	 -86.655
| 38> H 	 -62.8507 	 -50.8409 	 -87.0563
| 39> H 	 -64.9885 	 -44.112 	 -87.2307
| 40> H 	 -70.1726 	 -50.3326 	 -86.6098
| 41> *
| 42>
| 43>                          ****END OF INPUT****

CARTESIAN COORDINATES (ANGSTROEM)
---------------------------------
  S    -66.918100  -45.686300  -87.040500
  C    -65.306900  -45.129300  -87.444900
  C    -64.636200  -46.034500  -88.228400
  C    -65.346900  -47.307400  -88.368100
  C    -66.526500  -47.281800  -87.634900
  H    -65.149800  -48.199700  -88.922200
  C    -63.281800  -45.854600  -88.876300
  H    -62.648300  -45.405000  -88.239100
  H    -63.394300  -45.183000  -89.658900
  C    -62.560500  -47.040300  -89.425100
  H    -62.870400  -47.939000  -88.796600
  H    -62.874100  -47.252300  -90.439700
  C    -61.063400  -46.839400  -89.385300
  H    -60.639500  -46.804100  -88.358000
  H    -60.575000  -47.738000  -89.702100
  H    -60.701000  -45.987400  -90.051200
  S    -68.979300  -48.247200  -87.112900
  C    -69.279300  -49.970700  -86.911800
  C    -68.042000  -50.573900  -86.706600
  C    -66.937100  -49.721800  -86.845900
  C    -67.302900  -48.442500  -87.264200
  H    -67.846400  -51.585600  -86.411100
  C    -65.588600  -50.191300  -86.522400
  H    -65.553900  -50.748400  -85.589200
  H    -64.986300  -49.289000  -86.284600
  C    -64.945500  -51.049300  -87.661900
  H    -64.892200  -50.379200  -88.543800
  H    -65.652100  -51.820800  -88.003700
  C    -63.562300  -51.601300  -87.462400
  H    -63.090300  -52.122600  -88.334800
  H    -63.666800  -52.372100  -86.655000
  H    -62.850700  -50.840900  -87.056300
  H    -64.988500  -44.112000  -87.230700
  H    -70.172600  -50.332600  -86.609800

 Total Charge           Charge          ....    0
 Multiplicity           Mult            ....    1
 Number of Electrons    NEL             ....  134
 Basis Dimension        Dim             ....  322

ORBITAL ENERGIES
----------------

  NO   OCC          E(Eh)            E(eV)
   0   2.0000     -88.965051     -2420.8621
   1   2.0000     -88.962044     -2420.7803
   2   2.0000     -10.328172      -281.0439
   3   2.0000     -10.322804      -280.8978
   4   2.0000     -10.314329      -280.6672
   5   2.0000     -10.312459      -280.6163
   6   2.0000     -10.306451      -280.4528
   7   2.0000     -10.296093      -280.1709
   8   2.0000     -10.295193      -280.1465
   9   2.0000     -10.291807      -280.0543
  10   2.0000     -10.290992      -280.0321
  11   2.0000     -10.290111      -280.0082
  12   2.0000     -10.287252      -279.9304
  13   2.0000     -10.287228      -279.9297
  14   2.0000     -10.284457      -279.8543
  15   2.0000     -10.272441      -279.5273
  16   2.0000      -8.080128      -219.8715
  17   2.0000      -8.078046      -219.8148
  18   2.0000      -6.038750      -164.3227
  19   2.0000      -6.036433      -164.2597
  20   2.0000      -6.034750      -164.2139
  21   2.0000      -6.032391      -164.1497
  22   2.0000      -6.030609      -164.1012
  23   2.0000      -6.028846      -164.0532
  24   2.0000      -1.013981       -27.5918
  25   2.0000      -0.987000       -26.8576
  26   2.0000      -0.923194       -25.1214
  27   2.0000      -0.911596       -24.8058
  28   2.0000      -0.875050       -23.8113
  29   2.0000      -0.856150       -23.2970
  30   2.0000      -0.846792       -23.0424
  31   2.0000      -0.818992       -22.2859
  32   2.0000      -0.783843       -21.3295
  33   2.0000      -0.773099       -21.0371
  34   2.0000      -0.711986       -19.3741
  35   2.0000      -0.698150       -18.9976
  36   2.0000      -0.694568       -18.9002
  37   2.0000      -0.669432       -18.2162
  38   2.0000      -0.647563       -17.6211
  39   2.0000      -0.621602       -16.9147
  40   2.0000      -0.604096       -16.4383
  41   2.0000      -0.579212       -15.7612
  42   2.0000      -0.564412       -15.3584
  43   2.0000      -0.559211       -15.2169
  44   2.0000      -0.528930       -14.3929
  45   2.0000      -0.522682       -14.2229
  46   2.0000      -0.521390       -14.1877
  47   2.0000      -0.520747       -14.1703
  48   2.0000      -0.514687       -14.0054
  49   2.0000      -0.499521       -13.5927
  50   2.0000      -0.492426       -13.3996
  51   2.0000      -0.487585       -13.2679
  52   2.0000      -0.475055       -12.9269
  53   2.0000      -0.465631       -12.6705
  54   2.0000      -0.462177       -12.5765
  55   2.0000      -0.448523       -12.2049
  56   2.0000      -0.445971       -12.1355
  57   2.0000      -0.433317       -11.7912
  58   2.0000      -0.431926       -11.7533
  59   2.0000      -0.429866       -11.6973
  60   2.0000      -0.424268       -11.5449
  61   2.0000      -0.416878       -11.3438
  62   2.0000      -0.407556       -11.0902
  63   2.0000      -0.352958        -9.6045
  64   2.0000      -0.331832        -9.0296
  65   2.0000      -0.325138        -8.8475
  66   2.0000      -0.285784        -7.7766
  67   0.0000       0.020706         0.5634
  68   0.0000       0.072945         1.9849
  69   0.0000       0.098361         2.6765
  70   0.0000       0.119919         3.2632
  71   0.0000       0.124260         3.3813

MULLIKEN ATOMIC CHARGES
-----------------------
   0 S :    0.104323
   1 C :   -0.132622
   2 C :   -0.083550
   3 C :   -0.009444
   4 C :   -0.111432
   5 H :    0.013798
   6 C :    0.178611
   7 H :   -0.012371
   8 H :    0.013816
   9 C :   -0.115228
  10 H :    0.036594
  11 H :    0.029316
  12 C :   -0.058199
  13 H :    0.036771
  14 H :    0.019819
  15 H :    0.050302
  16 S :    0.087069
  17 C :   -0.032075
  18 C :   -0.019587
  19 C :   -0.053549
  20 C :   -0.150698
  21 H :    0.007913
  22 C :    0.050337
  23 H :    0.022777
  24 H :    0.034390
  25 C :   -0.081146
  26 H :    0.011797
  27 H :    0.027967
  28 C :   -0.053869
  29 H :    0.051034
  30 H :    0.026880
  31 H :    0.038050
  32 H :    0.047465
  33 H :    0.024739
Sum of atomic charges:   -0.0000000

LOEWDIN ATOMIC CHARGES
----------------------
   0 S :    0.394772
   1 C :   -0.197259
   2 C :   -0.048507
   3 C :   -0.063812
   4 C :   -0.185888
   5 H :    0.028815
   6 C :   -0.027306
   7 H :    0.016956
   8 H :    0.029927
   9 C :   -0.044275
  10 H :    0.030063
  11 H :    0.022705
  12 C :   -0.072009
  13 H :    0.030757
  14 H :    0.023367
  15 H :    0.034994
  16 S :    0.425220
  17 C :   -0.168961
  18 C :   -0.056869
  19 C :   -0.067034
  20 C :   -0.208467
  21 H :    0.027722
  22 C :   -0.035106
  23 H :    0.029494
  24 H :    0.036247
  25 C :   -0.048029
  26 H :    0.018862
  27 H :    0.025372
  28 C :   -0.076704
  29 H :    0.034464
  30 H :    0.026085
  31 H :    0.029041
  32 H :    0.029046
  33 H :    0.006318

  Mayer bond orders larger than 0.100000
B(  0-S ,  1-C ) :   1.1179 B(  0-S ,  4-C ) :   1.1465 B(  1-C ,  2-C ) :   1.6461
B(  1-C , 32-H ) :   0.9742 B(  2-C ,  3-C ) :   1.1879 B(  2-C ,  6-C ) :   1.0079
B(  3-C ,  4-C ) :   1.5751 B(  3-C ,  5-H ) :   1.0016 B(  4-C , 20-C ) :   1.0546
B(  6-C ,  7-H ) :   0.9342 B(  6-C ,  8-H ) :   0.9057 B(  6-C ,  9-C ) :   1.0806
B(  9-C , 10-H ) :   0.9518 B(  9-C , 11-H ) :   0.9459 B(  9-C , 12-C ) :   1.1004
B( 12-C , 13-H ) :   0.9689 B( 12-C , 14-H ) :   0.9673 B( 12-C , 15-H ) :   0.9713
B( 16-S , 17-C ) :   1.1610 B( 16-S , 20-C ) :   1.1630 B( 17-C , 18-C ) :   1.5385
B( 17-C , 20-C ) :   0.1097 B( 17-C , 33-H ) :   0.9858 B( 18-C , 19-C ) :   1.3069
B( 18-C , 21-H ) :   0.9859 B( 19-C , 20-C ) :   1.5223 B( 19-C , 22-C ) :   1.0635
B( 22-C , 23-H ) :   0.9324 B( 22-C , 24-H ) :   0.9242 B( 22-C , 25-C ) :   1.0477
B( 25-C , 26-H ) :   0.9476 B( 25-C , 27-H ) :   0.9552 B( 25-C , 28-C ) :   1.0837
B( 28-C , 29-H ) :   0.9721 B( 28-C , 30-H ) :   0.9718 B( 28-C , 31-H ) :   0.9707

Dispersion correction           -0.014614760
FINAL SINGLE POINT ENERGY     -1339.861854335021

DIPOLE MOMENT
-------------
                                X             Y             Z
Electronic contribution:    -30.90392      12.43917       7.41104
Nuclear contribution   :     31.59977     -12.72884      -7.43693
                        -----------------------------------------
Total Dipole Moment    :      0.69585      -0.28967      -0.02588
                        -----------------------------------------
Magnitude (a.u.)       :      0.75418
Magnitude (Debye)      :      1.91696

Rotational constants in cm-1:     0.017270     0.010154     0.006706
Rotational constants in MHz :   517.747045   304.416664   201.044756

                             ****ORCA TERMINATED NORMALLY****
TOTAL RUN TIME: 0 days 0 hours 0 minutes 22 seconds 551 msec
