                         Program Version 4.2.1 -  RELEASE  -
|  1> ! wB97X-D3 SP def2-SVP
|  2> %pal
|  3> nprocs 24
|  4> end
|  5>
|  6> * xyz 0 1
|  7> S 	 -38.6735 	 19.2078 	 27.1973
|  8> C 	 -38.7923 	 17.4761 	 27.5645
|  9> C 	 -39.5415 	 16.772 	 26.6606
| 10> C 	 -39.9515 	 17.6642 	 25.5992
| 11> C 	 -39.6363 	 18.9704 	 25.7567
| 12> H 	 -40.4165 	 17.3201 	 24.704
| 13> C 	 -39.7842 	 15.2956 	 26.5548
| 14> H 	 -39.3284 	 14.9201 	 27.5217
| 15> H 	 -39.1256 	 14.9083 	 25.8052
| 16> C 	 -41.2674 	 14.9126 	 26.2676
| 17> H 	 -41.8313 	 15.4241 	 26.9931
| 18> H 	 -41.5133 	 15.3231 	 25.2448
| 19> C 	 -41.533 	 13.4769 	 26.3621
| 20> H 	 -42.5961 	 13.2238 	 26.3396
| 21> H 	 -41.1385 	 13.1015 	 25.4467
| 22> H 	 -41.025 	 12.9837 	 27.2422
| 23> S 	 -41.5988 	 20.3783 	 24.4618
| 24> C 	 -41.245 	 21.1724 	 22.966
| 25> C 	 -39.893 	 21.1558 	 22.7084
| 26> C 	 -39.1506 	 20.4786 	 23.7387
| 27> C 	 -39.9445 	 19.9214 	 24.7106
| 28> H 	 -39.4519 	 21.7003 	 21.8707
| 29> C 	 -37.6376 	 20.3871 	 23.6674
| 30> H 	 -37.444 	 19.9326 	 22.6658
| 31> H 	 -37.296 	 19.728 	 24.4451
| 32> C 	 -36.7695 	 21.6298 	 23.8438
| 33> H 	 -37.1305 	 22.5237 	 23.3187
| 34> H 	 -35.7471 	 21.6053 	 23.5321
| 35> C 	 -36.7152 	 22.2769 	 25.2255
| 36> H 	 -36.0126 	 23.0269 	 25.3134
| 37> H 	 -36.3439 	 21.5119 	 25.9605
| 38> H 	 -37.7308 	 22.6003 	 25.6284
| 39> H 	 -38.3767 	 17.054 	 28.431
| 40> H 	 -41.8326 	 21.882 	 22.5105
| 41> *
| 42>
| 43>                          ****END OF INPUT****

CARTESIAN COORDINATES (ANGSTROEM)
---------------------------------
  S    -38.673500   19.207800   27.197300
  C    -38.792300   17.476100   27.564500
  C    -39.541500   16.772000   26.660600
  C    -39.951500   17.664200   25.599200
  C    -39.636300   18.970400   25.756700
  H    -40.416500   17.320100   24.704000
  C    -39.784200   15.295600   26.554800
  H    -39.328400   14.920100   27.521700
  H    -39.125600   14.908300   25.805200
  C    -41.267400   14.912600   26.267600
  H    -41.831300   15.424100   26.993100
  H    -41.513300   15.323100   25.244800
  C    -41.533000   13.476900   26.362100
  H    -42.596100   13.223800   26.339600
  H    -41.138500   13.101500   25.446700
  H    -41.025000   12.983700   27.242200
  S    -41.598800   20.378300   24.461800
  C    -41.245000   21.172400   22.966000
  C    -39.893000   21.155800   22.708400
  C    -39.150600   20.478600   23.738700
  C    -39.944500   19.921400   24.710600
  H    -39.451900   21.700300   21.870700
  C    -37.637600   20.387100   23.667400
  H    -37.444000   19.932600   22.665800
  H    -37.296000   19.728000   24.445100
  C    -36.769500   21.629800   23.843800
  H    -37.130500   22.523700   23.318700
  H    -35.747100   21.605300   23.532100
  C    -36.715200   22.276900   25.225500
  H    -36.012600   23.026900   25.313400
  H    -36.343900   21.511900   25.960500
  H    -37.730800   22.600300   25.628400
  H    -38.376700   17.054000   28.431000
  H    -41.832600   21.882000   22.510500

 Total Charge           Charge          ....    0
 Multiplicity           Mult            ....    1
 Number of Electrons    NEL             ....  134
 Basis Dimension        Dim             ....  322

ORBITAL ENERGIES
----------------

  NO   OCC          E(Eh)            E(eV)
   0   2.0000     -88.967907     -2420.9398
   1   2.0000     -88.963301     -2420.8145
   2   2.0000     -10.323432      -280.9149
   3   2.0000     -10.322203      -280.8814
   4   2.0000     -10.312519      -280.6179
   5   2.0000     -10.308745      -280.5152
   6   2.0000     -10.300915      -280.3021
   7   2.0000     -10.298882      -280.2468
   8   2.0000     -10.296280      -280.1760
   9   2.0000     -10.293428      -280.0984
  10   2.0000     -10.291128      -280.0358
  11   2.0000     -10.286212      -279.9021
  12   2.0000     -10.286056      -279.8978
  13   2.0000     -10.281006      -279.7604
  14   2.0000     -10.276546      -279.6390
  15   2.0000     -10.271776      -279.5092
  16   2.0000      -8.081937      -219.9207
  17   2.0000      -8.078707      -219.8328
  18   2.0000      -6.040573      -164.3724
  19   2.0000      -6.037164      -164.2796
  20   2.0000      -6.036624      -164.2649
  21   2.0000      -6.033074      -164.1683
  22   2.0000      -6.032516      -164.1531
  23   2.0000      -6.029520      -164.0716
  24   2.0000      -1.010078       -27.4856
  25   2.0000      -0.986411       -26.8416
  26   2.0000      -0.918507       -24.9939
  27   2.0000      -0.906934       -24.6789
  28   2.0000      -0.877290       -23.8723
  29   2.0000      -0.853968       -23.2377
  30   2.0000      -0.849612       -23.1191
  31   2.0000      -0.816595       -22.2207
  32   2.0000      -0.783268       -21.3138
  33   2.0000      -0.773908       -21.0591
  34   2.0000      -0.710321       -19.3288
  35   2.0000      -0.697179       -18.9712
  36   2.0000      -0.692680       -18.8488
  37   2.0000      -0.663112       -18.0442
  38   2.0000      -0.642207       -17.4753
  39   2.0000      -0.619326       -16.8527
  40   2.0000      -0.596879       -16.2419
  41   2.0000      -0.579357       -15.7651
  42   2.0000      -0.564802       -15.3690
  43   2.0000      -0.557014       -15.1571
  44   2.0000      -0.539180       -14.6718
  45   2.0000      -0.528696       -14.3865
  46   2.0000      -0.520511       -14.1638
  47   2.0000      -0.512158       -13.9365
  48   2.0000      -0.507487       -13.8094
  49   2.0000      -0.503245       -13.6940
  50   2.0000      -0.490608       -13.3501
  51   2.0000      -0.475444       -12.9375
  52   2.0000      -0.470710       -12.8087
  53   2.0000      -0.466595       -12.6967
  54   2.0000      -0.454230       -12.3602
  55   2.0000      -0.452203       -12.3051
  56   2.0000      -0.444475       -12.0948
  57   2.0000      -0.437741       -11.9115
  58   2.0000      -0.428086       -11.6488
  59   2.0000      -0.427244       -11.6259
  60   2.0000      -0.421218       -11.4619
  61   2.0000      -0.416856       -11.3432
  62   2.0000      -0.397699       -10.8219
  63   2.0000      -0.338173        -9.2022
  64   2.0000      -0.332901        -9.0587
  65   2.0000      -0.325435        -8.8555
  66   2.0000      -0.305179        -8.3043
  67   0.0000       0.044315         1.2059
  68   0.0000       0.062988         1.7140
  69   0.0000       0.107479         2.9246
  70   0.0000       0.123642         3.3645
  71   0.0000       0.129073         3.5123

MULLIKEN ATOMIC CHARGES
-----------------------
   0 S :    0.114553
   1 C :   -0.122444
   2 C :   -0.057006
   3 C :    0.021306
   4 C :   -0.149477
   5 H :    0.006355
   6 C :    0.054650
   7 H :    0.016994
   8 H :    0.035716
   9 C :   -0.083383
  10 H :    0.023610
  11 H :    0.042394
  12 C :   -0.015993
  13 H :    0.037552
  14 H :    0.015364
  15 H :    0.041701
  16 S :    0.113141
  17 C :   -0.053542
  18 C :   -0.051329
  19 C :   -0.032901
  20 C :   -0.190568
  21 H :    0.026360
  22 C :    0.101633
  23 H :    0.039489
  24 H :    0.018877
  25 C :   -0.055422
  26 H :    0.015848
  27 H :    0.023131
  28 C :   -0.077155
  29 H :    0.017892
  30 H :    0.016551
  31 H :    0.045853
  32 H :    0.024394
  33 H :    0.035855
Sum of atomic charges:   -0.0000000

LOEWDIN ATOMIC CHARGES
----------------------
   0 S :    0.395471
   1 C :   -0.178718
   2 C :   -0.060736
   3 C :   -0.051429
   4 C :   -0.202089
   5 H :    0.024551
   6 C :   -0.031081
   7 H :    0.033644
   8 H :    0.029896
   9 C :   -0.039153
  10 H :    0.018245
  11 H :    0.032343
  12 C :   -0.065900
  13 H :    0.029288
  14 H :    0.022379
  15 H :    0.033612
  16 S :    0.424192
  17 C :   -0.184561
  18 C :   -0.066636
  19 C :   -0.057317
  20 C :   -0.203203
  21 H :    0.033826
  22 C :   -0.030700
  23 H :    0.041072
  24 H :    0.025364
  25 C :   -0.048416
  26 H :    0.023638
  27 H :    0.024954
  28 C :   -0.067498
  29 H :    0.013424
  30 H :    0.019847
  31 H :    0.030399
  32 H :    0.015371
  33 H :    0.015921

  Mayer bond orders larger than 0.100000
B(  0-S ,  1-C ) :   1.1243 B(  0-S ,  4-C ) :   1.1176 B(  1-C ,  2-C ) :   1.6436
B(  1-C , 32-H ) :   0.9685 B(  2-C ,  3-C ) :   1.1995 B(  2-C ,  6-C ) :   1.0292
B(  3-C ,  4-C ) :   1.6319 B(  3-C ,  5-H ) :   0.9913 B(  4-C , 20-C ) :   1.0131
B(  6-C ,  7-H ) :   0.9374 B(  6-C ,  8-H ) :   0.9357 B(  6-C ,  9-C ) :   1.0479
B(  9-C , 10-H ) :   0.9588 B(  9-C , 11-H ) :   0.9492 B(  9-C , 12-C ) :   1.0965
B( 12-C , 13-H ) :   0.9715 B( 12-C , 14-H ) :   0.9700 B( 12-C , 15-H ) :   0.9709
B( 16-S , 17-C ) :   1.1609 B( 16-S , 20-C ) :   1.1511 B( 17-C , 18-C ) :   1.6043
B( 17-C , 33-H ) :   0.9705 B( 18-C , 19-C ) :   1.2477 B( 18-C , 21-H ) :   0.9873
B( 19-C , 20-C ) :   1.5969 B( 19-C , 22-C ) :   1.0463 B( 22-C , 23-H ) :   0.9310
B( 22-C , 24-H ) :   0.9337 B( 22-C , 25-C ) :   1.0601 B( 25-C , 26-H ) :   0.9566
B( 25-C , 27-H ) :   0.9559 B( 25-C , 28-C ) :   1.0757 B( 28-C , 29-H ) :   0.9727
B( 28-C , 30-H ) :   0.9701 B( 28-C , 31-H ) :   0.9774

Dispersion correction           -0.014582864
FINAL SINGLE POINT ENERGY     -1339.868617176891

DIPOLE MOMENT
-------------
                                X             Y             Z
Electronic contribution:     -7.43563      11.08243       2.06724
Nuclear contribution   :      7.65559     -11.41951      -2.34688
                        -----------------------------------------
Total Dipole Moment    :      0.21996      -0.33708      -0.27965
                        -----------------------------------------
Magnitude (a.u.)       :      0.49011
Magnitude (Debye)      :      1.24575

Rotational constants in cm-1:     0.021149     0.008089     0.006658
Rotational constants in MHz :   634.039309   242.505476   199.598559

                             ****ORCA TERMINATED NORMALLY****
TOTAL RUN TIME: 0 days 0 hours 0 minutes 21 seconds 588 msec
