                         Program Version 4.2.1 -  RELEASE  -
|  1> ! wB97X-D3 SP def2-SVP
|  2> %pal
|  3> nprocs 24
|  4> end
|  5>
|  6> * xyz 0 1
|  7> S 	 -62.2728 	 4.93035 	 -76.4024
|  8> C 	 -61.9302 	 5.35645 	 -74.7359
|  9> C 	 -62.8476 	 6.33172 	 -74.3176
| 10> C 	 -63.7223 	 6.7771 	 -75.3698
| 11> C 	 -63.6032 	 6.06761 	 -76.5342
| 12> H 	 -64.5475 	 7.58117 	 -75.3062
| 13> C 	 -62.8393 	 6.92858 	 -72.9174
| 14> H 	 -63.0176 	 6.17524 	 -72.1656
| 15> H 	 -63.6847 	 7.59382 	 -72.8977
| 16> C 	 -61.5868 	 7.7054 	 -72.5479
| 17> H 	 -61.7175 	 7.90382 	 -71.4714
| 18> H 	 -60.7336 	 7.08563 	 -72.7277
| 19> C 	 -61.3645 	 8.98096 	 -73.3831
| 20> H 	 -60.3597 	 9.28496 	 -73.2187
| 21> H 	 -61.4733 	 8.69992 	 -74.4333
| 22> H 	 -62.0791 	 9.75311 	 -73.1734
| 23> S 	 -63.7053 	 7.06929 	 -79.172
| 24> C 	 -65.1316 	 6.68498 	 -80.1279
| 25> C 	 -66.1714 	 6.18498 	 -79.3703
| 26> C 	 -65.7901 	 5.90625 	 -78.0062
| 27> C 	 -64.447 	 6.33665 	 -77.7141
| 28> H 	 -67.0753 	 5.92755 	 -79.9082
| 29> C 	 -66.634 	 5.26817 	 -76.9189
| 30> H 	 -67.3726 	 6.0089 	 -76.4772
| 31> H 	 -65.9672 	 5.10411 	 -76.0747
| 32> C 	 -67.3758 	 3.97324 	 -77.3818
| 33> H 	 -66.5994 	 3.33358 	 -77.7039
| 34> H 	 -67.9917 	 4.18912 	 -78.2901
| 35> C 	 -68.1853 	 3.34667 	 -76.2602
| 36> H 	 -67.5954 	 3.08059 	 -75.3651
| 37> H 	 -68.7234 	 2.41585 	 -76.5604
| 38> H 	 -68.8819 	 4.16888 	 -75.962
| 39> H 	 -61.0629 	 5.01155 	 -74.1272
| 40> H 	 -65.2224 	 6.968 	 -81.1646
| 41> *
| 42>
| 43>                          ****END OF INPUT****

CARTESIAN COORDINATES (ANGSTROEM)
---------------------------------
  S    -62.272800    4.930350  -76.402400
  C    -61.930200    5.356450  -74.735900
  C    -62.847600    6.331720  -74.317600
  C    -63.722300    6.777100  -75.369800
  C    -63.603200    6.067610  -76.534200
  H    -64.547500    7.581170  -75.306200
  C    -62.839300    6.928580  -72.917400
  H    -63.017600    6.175240  -72.165600
  H    -63.684700    7.593820  -72.897700
  C    -61.586800    7.705400  -72.547900
  H    -61.717500    7.903820  -71.471400
  H    -60.733600    7.085630  -72.727700
  C    -61.364500    8.980960  -73.383100
  H    -60.359700    9.284960  -73.218700
  H    -61.473300    8.699920  -74.433300
  H    -62.079100    9.753110  -73.173400
  S    -63.705300    7.069290  -79.172000
  C    -65.131600    6.684980  -80.127900
  C    -66.171400    6.184980  -79.370300
  C    -65.790100    5.906250  -78.006200
  C    -64.447000    6.336650  -77.714100
  H    -67.075300    5.927550  -79.908200
  C    -66.634000    5.268170  -76.918900
  H    -67.372600    6.008900  -76.477200
  H    -65.967200    5.104110  -76.074700
  C    -67.375800    3.973240  -77.381800
  H    -66.599400    3.333580  -77.703900
  H    -67.991700    4.189120  -78.290100
  C    -68.185300    3.346670  -76.260200
  H    -67.595400    3.080590  -75.365100
  H    -68.723400    2.415850  -76.560400
  H    -68.881900    4.168880  -75.962000
  H    -61.062900    5.011550  -74.127200
  H    -65.222400    6.968000  -81.164600

 Total Charge           Charge          ....    0
 Multiplicity           Mult            ....    1
 Number of Electrons    NEL             ....  134
 Basis Dimension        Dim             ....  322

ORBITAL ENERGIES
----------------

  NO   OCC          E(Eh)            E(eV)
   0   2.0000     -88.968391     -2420.9530
   1   2.0000     -88.965767     -2420.8816
   2   2.0000     -10.333071      -281.1772
   3   2.0000     -10.329311      -281.0748
   4   2.0000     -10.321703      -280.8678
   5   2.0000     -10.320143      -280.8254
   6   2.0000     -10.314373      -280.6684
   7   2.0000     -10.303687      -280.3776
   8   2.0000     -10.300843      -280.3002
   9   2.0000     -10.298468      -280.2356
  10   2.0000     -10.294296      -280.1220
  11   2.0000     -10.285516      -279.8831
  12   2.0000     -10.285434      -279.8809
  13   2.0000     -10.283348      -279.8241
  14   2.0000     -10.283231      -279.8209
  15   2.0000     -10.269805      -279.4556
  16   2.0000      -8.082604      -219.9388
  17   2.0000      -8.079707      -219.8600
  18   2.0000      -6.041145      -164.3879
  19   2.0000      -6.038166      -164.3068
  20   2.0000      -6.037032      -164.2760
  21   2.0000      -6.034317      -164.2021
  22   2.0000      -6.033488      -164.1796
  23   2.0000      -6.030578      -164.1004
  24   2.0000      -1.000122       -27.2147
  25   2.0000      -0.977607       -26.6020
  26   2.0000      -0.913123       -24.8473
  27   2.0000      -0.904483       -24.6122
  28   2.0000      -0.866472       -23.5779
  29   2.0000      -0.846707       -23.0401
  30   2.0000      -0.842984       -22.9388
  31   2.0000      -0.814190       -22.1552
  32   2.0000      -0.782122       -21.2826
  33   2.0000      -0.764837       -20.8123
  34   2.0000      -0.703508       -19.1434
  35   2.0000      -0.700167       -19.0525
  36   2.0000      -0.694182       -18.8897
  37   2.0000      -0.648175       -17.6377
  38   2.0000      -0.636976       -17.3330
  39   2.0000      -0.609392       -16.5824
  40   2.0000      -0.592699       -16.1282
  41   2.0000      -0.577611       -15.7176
  42   2.0000      -0.563181       -15.3249
  43   2.0000      -0.551644       -15.0110
  44   2.0000      -0.539532       -14.6814
  45   2.0000      -0.522470       -14.2171
  46   2.0000      -0.515509       -14.0277
  47   2.0000      -0.513350       -13.9690
  48   2.0000      -0.503687       -13.7060
  49   2.0000      -0.498446       -13.5634
  50   2.0000      -0.481015       -13.0891
  51   2.0000      -0.474651       -12.9159
  52   2.0000      -0.469521       -12.7763
  53   2.0000      -0.465234       -12.6597
  54   2.0000      -0.460077       -12.5193
  55   2.0000      -0.444956       -12.1079
  56   2.0000      -0.440145       -11.9770
  57   2.0000      -0.436547       -11.8790
  58   2.0000      -0.432862       -11.7788
  59   2.0000      -0.424005       -11.5378
  60   2.0000      -0.421067       -11.4578
  61   2.0000      -0.416072       -11.3219
  62   2.0000      -0.414216       -11.2714
  63   2.0000      -0.338600        -9.2138
  64   2.0000      -0.329951        -8.9784
  65   2.0000      -0.323005        -8.7894
  66   2.0000      -0.304336        -8.2814
  67   0.0000       0.031671         0.8618
  68   0.0000       0.056632         1.5410
  69   0.0000       0.114932         3.1274
  70   0.0000       0.123653         3.3648
  71   0.0000       0.128166         3.4876

MULLIKEN ATOMIC CHARGES
-----------------------
   0 S :    0.124615
   1 C :   -0.145281
   2 C :   -0.117058
   3 C :    0.007211
   4 C :   -0.164307
   5 H :    0.050237
   6 C :    0.095622
   7 H :    0.032378
   8 H :    0.003340
   9 C :   -0.079459
  10 H :    0.033198
  11 H :    0.017254
  12 C :   -0.030971
  13 H :    0.028838
  14 H :    0.038889
  15 H :    0.028254
  16 S :    0.102692
  17 C :   -0.103078
  18 C :   -0.026584
  19 C :   -0.013481
  20 C :   -0.189650
  21 H :    0.026493
  22 C :    0.037462
  23 H :    0.040080
  24 H :    0.028826
  25 C :   -0.087853
  26 H :    0.026692
  27 H :    0.039062
  28 C :   -0.053602
  29 H :    0.037418
  30 H :    0.046740
  31 H :    0.031653
  32 H :    0.074174
  33 H :    0.060195
Sum of atomic charges:   -0.0000000

LOEWDIN ATOMIC CHARGES
----------------------
   0 S :    0.409457
   1 C :   -0.204774
   2 C :   -0.068564
   3 C :   -0.071743
   4 C :   -0.209665
   5 H :    0.048478
   6 C :   -0.032377
   7 H :    0.031241
   8 H :    0.023878
   9 C :   -0.035879
  10 H :    0.026028
  11 H :    0.016868
  12 C :   -0.058059
  13 H :    0.022856
  14 H :    0.030026
  15 H :    0.021201
  16 S :    0.386548
  17 C :   -0.173508
  18 C :   -0.077553
  19 C :   -0.039930
  20 C :   -0.196580
  21 H :    0.034248
  22 C :   -0.038142
  23 H :    0.035439
  24 H :    0.030851
  25 C :   -0.042664
  26 H :    0.019141
  27 H :    0.027399
  28 C :   -0.071865
  29 H :    0.028174
  30 H :    0.031049
  31 H :    0.029210
  32 H :    0.041161
  33 H :    0.028052

  Mayer bond orders larger than 0.100000
B(  0-S ,  1-C ) :   1.1470 B(  0-S ,  4-C ) :   1.1468 B(  1-C ,  2-C ) :   1.5858
B(  1-C , 32-H ) :   0.9650 B(  2-C ,  3-C ) :   1.2515 B(  2-C ,  6-C ) :   1.0181
B(  3-C ,  4-C ) :   1.5748 B(  3-C ,  5-H ) :   0.9761 B(  4-C , 20-C ) :   1.0416
B(  6-C ,  7-H ) :   0.9372 B(  6-C ,  8-H ) :   0.9393 B(  6-C ,  9-C ) :   1.0776
B(  9-C , 10-H ) :   0.9548 B(  9-C , 11-H ) :   0.9591 B(  9-C , 12-C ) :   1.0736
B( 12-C , 13-H ) :   0.9749 B( 12-C , 14-H ) :   0.9751 B( 12-C , 15-H ) :   0.9767
B( 16-S , 17-C ) :   1.1639 B( 16-S , 20-C ) :   1.1362 B( 17-C , 18-C ) :   1.6187
B( 17-C , 33-H ) :   0.9634 B( 18-C , 19-C ) :   1.2259 B( 18-C , 21-H ) :   0.9891
B( 19-C , 20-C ) :   1.5752 B( 19-C , 22-C ) :   1.0503 B( 22-C , 23-H ) :   0.9338
B( 22-C , 24-H ) :   0.9301 B( 22-C , 25-C ) :   1.0465 B( 25-C , 26-H ) :   0.9566
B( 25-C , 27-H ) :   0.9558 B( 25-C , 28-C ) :   1.0846 B( 28-C , 29-H ) :   0.9738
B( 28-C , 30-H ) :   0.9734 B( 28-C , 31-H ) :   0.9730

Dispersion correction           -0.014226105
FINAL SINGLE POINT ENERGY     -1339.887620508320

DIPOLE MOMENT
-------------
                                X             Y             Z
Electronic contribution:     10.08125      -0.47749     -18.28838
Nuclear contribution   :    -10.40788       0.49811      18.63539
                        -----------------------------------------
Total Dipole Moment    :     -0.32662       0.02062       0.34701
                        -----------------------------------------
Magnitude (a.u.)       :      0.47700
Magnitude (Debye)      :      1.21243

Rotational constants in cm-1:     0.018892     0.008037     0.006656
Rotational constants in MHz :   566.368866   240.949064   199.543419

                             ****ORCA TERMINATED NORMALLY****
TOTAL RUN TIME: 0 days 0 hours 0 minutes 21 seconds 274 msec
