                         Program Version 4.2.1 -  RELEASE  -
|  1> ! wB97X-D3 SP def2-SVP
|  2> %pal
|  3> nprocs 24
|  4> end
|  5>
|  6> * xyz 0 1
|  7> S 	 -30.3622 	 4.86029 	 6.38804
|  8> C 	 -29.7667 	 6.45059 	 6.65102
|  9> C 	 -30.7796 	 7.20296 	 7.27777
| 10> C 	 -32.0405 	 6.47919 	 7.37075
| 11> C 	 -31.9595 	 5.15293 	 6.94379
| 12> H 	 -32.9606 	 6.82092 	 7.76763
| 13> C 	 -30.6252 	 8.64918 	 7.69046
| 14> H 	 -29.678 	 8.78961 	 8.23813
| 15> H 	 -31.3886 	 8.72592 	 8.50033
| 16> C 	 -30.8324 	 9.69765 	 6.58049
| 17> H 	 -31.7878 	 9.47455 	 6.05336
| 18> H 	 -31.1033 	 10.5984 	 7.20963
| 19> C 	 -29.6649 	 9.92727 	 5.64595
| 20> H 	 -29.5382 	 9.14076 	 4.87763
| 21> H 	 -29.7703 	 10.8262 	 5.0907
| 22> H 	 -28.7251 	 9.88916 	 6.18281
| 23> S 	 -32.5709 	 2.50412 	 7.60412
| 24> C 	 -34.2631 	 1.95958 	 7.39081
| 25> C 	 -34.9552 	 2.95883 	 6.76361
| 26> C 	 -34.282 	 4.20224 	 6.55445
| 27> C 	 -32.957 	 4.13638 	 6.9537
| 28> H 	 -35.9876 	 2.83293 	 6.44491
| 29> C 	 -35.0769 	 5.34569 	 5.9164
| 30> H 	 -34.65 	 6.23625 	 6.11562
| 31> H 	 -36.0431 	 5.37866 	 6.41491
| 32> C 	 -35.2814 	 5.1321 	 4.36292
| 33> H 	 -35.832 	 6.04761 	 3.99628
| 34> H 	 -35.979 	 4.35645 	 4.10893
| 35> C 	 -33.9908 	 4.9287 	 3.52984
| 36> H 	 -33.4614 	 4.07888 	 3.81027
| 37> H 	 -33.2678 	 5.74373 	 3.67431
| 38> H 	 -34.0087 	 4.95773 	 2.44719
| 39> H 	 -28.8385 	 6.92339 	 6.2925
| 40> H 	 -34.6047 	 0.896959 	 7.42227
| 41> *
| 42>
| 43>                          ****END OF INPUT****

CARTESIAN COORDINATES (ANGSTROEM)
---------------------------------
  S    -30.362200    4.860290    6.388040
  C    -29.766700    6.450590    6.651020
  C    -30.779600    7.202960    7.277770
  C    -32.040500    6.479190    7.370750
  C    -31.959500    5.152930    6.943790
  H    -32.960600    6.820920    7.767630
  C    -30.625200    8.649180    7.690460
  H    -29.678000    8.789610    8.238130
  H    -31.388600    8.725920    8.500330
  C    -30.832400    9.697650    6.580490
  H    -31.787800    9.474550    6.053360
  H    -31.103300   10.598400    7.209630
  C    -29.664900    9.927270    5.645950
  H    -29.538200    9.140760    4.877630
  H    -29.770300   10.826200    5.090700
  H    -28.725100    9.889160    6.182810
  S    -32.570900    2.504120    7.604120
  C    -34.263100    1.959580    7.390810
  C    -34.955200    2.958830    6.763610
  C    -34.282000    4.202240    6.554450
  C    -32.957000    4.136380    6.953700
  H    -35.987600    2.832930    6.444910
  C    -35.076900    5.345690    5.916400
  H    -34.650000    6.236250    6.115620
  H    -36.043100    5.378660    6.414910
  C    -35.281400    5.132100    4.362920
  H    -35.832000    6.047610    3.996280
  H    -35.979000    4.356450    4.108930
  C    -33.990800    4.928700    3.529840
  H    -33.461400    4.078880    3.810270
  H    -33.267800    5.743730    3.674310
  H    -34.008700    4.957730    2.447190
  H    -28.838500    6.923390    6.292500
  H    -34.604700    0.896959    7.422270

 Total Charge           Charge          ....    0
 Multiplicity           Mult            ....    1
 Number of Electrons    NEL             ....  134
 Basis Dimension        Dim             ....  322

ORBITAL ENERGIES
----------------

  NO   OCC          E(Eh)            E(eV)
   0   2.0000     -88.965407     -2420.8718
   1   2.0000     -88.964635     -2420.8508
   2   2.0000     -10.331505      -281.1345
   3   2.0000     -10.327071      -281.0139
   4   2.0000     -10.322660      -280.8939
   5   2.0000     -10.315184      -280.6904
   6   2.0000     -10.303929      -280.3842
   7   2.0000     -10.303715      -280.3783
   8   2.0000     -10.295303      -280.1494
   9   2.0000     -10.294874      -280.1378
  10   2.0000     -10.294804      -280.1359
  11   2.0000     -10.294550      -280.1289
  12   2.0000     -10.292850      -280.0827
  13   2.0000     -10.292258      -280.0666
  14   2.0000     -10.279651      -279.7235
  15   2.0000     -10.267915      -279.4042
  16   2.0000      -8.080943      -219.8936
  17   2.0000      -8.078102      -219.8163
  18   2.0000      -6.039450      -164.3418
  19   2.0000      -6.036950      -164.2738
  20   2.0000      -6.035002      -164.2208
  21   2.0000      -6.032813      -164.1612
  22   2.0000      -6.031987      -164.1387
  23   2.0000      -6.028542      -164.0450
  24   2.0000      -1.007544       -27.4167
  25   2.0000      -0.980896       -26.6915
  26   2.0000      -0.911881       -24.8135
  27   2.0000      -0.902030       -24.5455
  28   2.0000      -0.872227       -23.7345
  29   2.0000      -0.848974       -23.1018
  30   2.0000      -0.840584       -22.8735
  31   2.0000      -0.813044       -22.1241
  32   2.0000      -0.787531       -21.4298
  33   2.0000      -0.778019       -21.1710
  34   2.0000      -0.712842       -19.3974
  35   2.0000      -0.701423       -19.0867
  36   2.0000      -0.697299       -18.9745
  37   2.0000      -0.659759       -17.9529
  38   2.0000      -0.641060       -17.4441
  39   2.0000      -0.616547       -16.7771
  40   2.0000      -0.596996       -16.2451
  41   2.0000      -0.567900       -15.4533
  42   2.0000      -0.550867       -14.9899
  43   2.0000      -0.547182       -14.8896
  44   2.0000      -0.539005       -14.6671
  45   2.0000      -0.530679       -14.4405
  46   2.0000      -0.522545       -14.2192
  47   2.0000      -0.510885       -13.9019
  48   2.0000      -0.508862       -13.8469
  49   2.0000      -0.499180       -13.5834
  50   2.0000      -0.488774       -13.3002
  51   2.0000      -0.480876       -13.0853
  52   2.0000      -0.470570       -12.8049
  53   2.0000      -0.469038       -12.7632
  54   2.0000      -0.463075       -12.6009
  55   2.0000      -0.446145       -12.1402
  56   2.0000      -0.442493       -12.0409
  57   2.0000      -0.438292       -11.9265
  58   2.0000      -0.435783       -11.8583
  59   2.0000      -0.425259       -11.5719
  60   2.0000      -0.421757       -11.4766
  61   2.0000      -0.411355       -11.1935
  62   2.0000      -0.402846       -10.9620
  63   2.0000      -0.353051        -9.6070
  64   2.0000      -0.329706        -8.9718
  65   2.0000      -0.326900        -8.8954
  66   2.0000      -0.289807        -7.8860
  67   0.0000       0.025660         0.6983
  68   0.0000       0.069869         1.9012
  69   0.0000       0.113943         3.1005
  70   0.0000       0.118415         3.2222
  71   0.0000       0.123872         3.3707

MULLIKEN ATOMIC CHARGES
-----------------------
   0 S :    0.118572
   1 C :   -0.115904
   2 C :   -0.118500
   3 C :    0.042057
   4 C :   -0.164092
   5 H :   -0.001513
   6 C :    0.021115
   7 H :    0.034255
   8 H :    0.025851
   9 C :   -0.067984
  10 H :    0.031410
  11 H :    0.035959
  12 C :   -0.020581
  13 H :    0.032910
  14 H :    0.034961
  15 H :    0.022991
  16 S :    0.089732
  17 C :   -0.098814
  18 C :   -0.038368
  19 C :   -0.068264
  20 C :   -0.146532
  21 H :    0.020025
  22 C :    0.165043
  23 H :   -0.021796
  24 H :    0.027466
  25 C :   -0.085268
  26 H :    0.032216
  27 H :    0.028300
  28 C :   -0.035788
  29 H :    0.029888
  30 H :    0.019762
  31 H :    0.028284
  32 H :    0.060993
  33 H :    0.081611
Sum of atomic charges:    0.0000000

LOEWDIN ATOMIC CHARGES
----------------------
   0 S :    0.439393
   1 C :   -0.221619
   2 C :   -0.063693
   3 C :   -0.063254
   4 C :   -0.206349
   5 H :    0.022304
   6 C :   -0.042797
   7 H :    0.032101
   8 H :    0.035152
   9 C :   -0.045004
  10 H :    0.028635
  11 H :    0.031750
  12 C :   -0.066372
  13 H :    0.029554
  14 H :    0.026485
  15 H :    0.023956
  16 S :    0.364728
  17 C :   -0.183684
  18 C :   -0.069226
  19 C :   -0.055384
  20 C :   -0.183321
  21 H :    0.030293
  22 C :   -0.011761
  23 H :    0.009752
  24 H :    0.037114
  25 C :   -0.034719
  26 H :    0.029594
  27 H :    0.018932
  28 C :   -0.070812
  29 H :    0.018035
  30 H :    0.028878
  31 H :    0.028248
  32 H :    0.038446
  33 H :    0.044645

  Mayer bond orders larger than 0.100000
B(  0-S ,  1-C ) :   1.1523 B(  0-S ,  4-C ) :   1.1703 B(  1-C ,  2-C ) :   1.5711
B(  1-C ,  4-C ) :   0.1017 B(  1-C , 32-H ) :   0.9679 B(  2-C ,  3-C ) :   1.2648
B(  2-C ,  6-C ) :   1.0230 B(  3-C ,  4-C ) :   1.5377 B(  3-C ,  5-H ) :   0.9963
B(  4-C , 20-C ) :   1.0686 B(  6-C ,  7-H ) :   0.9431 B(  6-C ,  8-H ) :   0.9413
B(  6-C ,  9-C ) :   1.0667 B(  9-C , 10-H ) :   0.9527 B(  9-C , 11-H ) :   0.9554
B(  9-C , 12-C ) :   1.0752 B( 12-C , 13-H ) :   0.9694 B( 12-C , 14-H ) :   0.9707
B( 12-C , 15-H ) :   0.9744 B( 16-S , 17-C ) :   1.1205 B( 16-S , 20-C ) :   1.1220
B( 17-C , 18-C ) :   1.6352 B( 17-C , 33-H ) :   0.9592 B( 18-C , 19-C ) :   1.2312
B( 18-C , 21-H ) :   0.9817 B( 19-C , 20-C ) :   1.5990 B( 19-C , 22-C ) :   1.0420
B( 22-C , 23-H ) :   0.9255 B( 22-C , 24-H ) :   0.9317 B( 22-C , 25-C ) :   1.0644
B( 25-C , 26-H ) :   0.9578 B( 25-C , 27-H ) :   0.9613 B( 25-C , 28-C ) :   1.0630
B( 28-C , 29-H ) :   0.9749 B( 28-C , 30-H ) :   0.9730 B( 28-C , 31-H ) :   0.9751

Dispersion correction           -0.015210082
FINAL SINGLE POINT ENERGY     -1339.876432507798

DIPOLE MOMENT
-------------
                                X             Y             Z
Electronic contribution:      5.21487     -22.87643      11.54826
Nuclear contribution   :     -5.60700      23.49683     -11.81425
                        -----------------------------------------
Total Dipole Moment    :     -0.39213       0.62040      -0.26599
                        -----------------------------------------
Magnitude (a.u.)       :      0.78065
Magnitude (Debye)      :      1.98425

Rotational constants in cm-1:     0.021915     0.008364     0.007035
Rotational constants in MHz :   657.003163   250.750287   210.906556

                             ****ORCA TERMINATED NORMALLY****
TOTAL RUN TIME: 0 days 0 hours 0 minutes 21 seconds 30 msec
