                         Program Version 4.2.1 -  RELEASE  -
|  1> ! wB97X-D3 SP def2-SVP
|  2> %pal
|  3> nprocs 24
|  4> end
|  5>
|  6> * xyz 0 1
|  7> S 	 -38.0755 	 -7.91344 	 17.9221
|  8> C 	 -36.8284 	 -9.07119 	 18.4301
|  9> C 	 -37.3031 	 -10.387 	 18.3139
| 10> C 	 -38.74 	 -10.4059 	 18.31
| 11> C 	 -39.3055 	 -9.19512 	 18.133
| 12> H 	 -39.3476 	 -11.2802 	 18.3673
| 13> C 	 -36.4812 	 -11.6506 	 18.4119
| 14> H 	 -36.4178 	 -12.0645 	 19.4375
| 15> H 	 -35.3894 	 -11.5522 	 18.1651
| 16> C 	 -37.0547 	 -12.838 	 17.5588
| 17> H 	 -36.287 	 -13.6386 	 17.7888
| 18> H 	 -38.0484 	 -13.1832 	 17.8007
| 19> C 	 -36.9863 	 -12.596 	 16.0797
| 20> H 	 -36.115 	 -11.965 	 15.9062
| 21> H 	 -37.0304 	 -13.4766 	 15.4497
| 22> H 	 -37.7595 	 -11.9835 	 15.8981
| 23> S 	 -41.1529 	 -7.27583 	 18.8811
| 24> C 	 -42.8862 	 -7.60207 	 18.6637
| 25> C 	 -43.0674 	 -8.77823 	 17.9826
| 26> C 	 -41.8865 	 -9.57832 	 17.8738
| 27> C 	 -40.7532 	 -8.92665 	 18.3012
| 28> H 	 -44.0083 	 -9.07338 	 17.5178
| 29> C 	 -41.9325 	 -10.8473 	 17.034
| 30> H 	 -42.9231 	 -11.3771 	 17.1717
| 31> H 	 -41.2096 	 -11.571 	 17.3641
| 32> C 	 -41.8568 	 -10.5935 	 15.4739
| 33> H 	 -42.5748 	 -9.87253 	 15.0399
| 34> H 	 -42.0009 	 -11.4668 	 14.8136
| 35> C 	 -40.4655 	 -10.3366 	 14.9324
| 36> H 	 -39.7318 	 -11.0481 	 15.2634
| 37> H 	 -40.116 	 -9.39046 	 15.3315
| 38> H 	 -40.4196 	 -10.2744 	 13.8644
| 39> H 	 -35.7179 	 -8.90653 	 18.4611
| 40> H 	 -43.654 	 -6.8333 	 18.8572
| 41> *
| 42>
| 43>                          ****END OF INPUT****

CARTESIAN COORDINATES (ANGSTROEM)
---------------------------------
  S    -38.075500   -7.913440   17.922100
  C    -36.828400   -9.071190   18.430100
  C    -37.303100  -10.387000   18.313900
  C    -38.740000  -10.405900   18.310000
  C    -39.305500   -9.195120   18.133000
  H    -39.347600  -11.280200   18.367300
  C    -36.481200  -11.650600   18.411900
  H    -36.417800  -12.064500   19.437500
  H    -35.389400  -11.552200   18.165100
  C    -37.054700  -12.838000   17.558800
  H    -36.287000  -13.638600   17.788800
  H    -38.048400  -13.183200   17.800700
  C    -36.986300  -12.596000   16.079700
  H    -36.115000  -11.965000   15.906200
  H    -37.030400  -13.476600   15.449700
  H    -37.759500  -11.983500   15.898100
  S    -41.152900   -7.275830   18.881100
  C    -42.886200   -7.602070   18.663700
  C    -43.067400   -8.778230   17.982600
  C    -41.886500   -9.578320   17.873800
  C    -40.753200   -8.926650   18.301200
  H    -44.008300   -9.073380   17.517800
  C    -41.932500  -10.847300   17.034000
  H    -42.923100  -11.377100   17.171700
  H    -41.209600  -11.571000   17.364100
  C    -41.856800  -10.593500   15.473900
  H    -42.574800   -9.872530   15.039900
  H    -42.000900  -11.466800   14.813600
  C    -40.465500  -10.336600   14.932400
  H    -39.731800  -11.048100   15.263400
  H    -40.116000   -9.390460   15.331500
  H    -40.419600  -10.274400   13.864400
  H    -35.717900   -8.906530   18.461100
  H    -43.654000   -6.833300   18.857200

 Total Charge           Charge          ....    0
 Multiplicity           Mult            ....    1
 Number of Electrons    NEL             ....  134
 Basis Dimension        Dim             ....  322

ORBITAL ENERGIES
----------------

  NO   OCC          E(Eh)            E(eV)
   0   2.0000     -88.970998     -2421.0240
   1   2.0000     -88.964538     -2420.8481
   2   2.0000     -10.334122      -281.2057
   3   2.0000     -10.333311      -281.1837
   4   2.0000     -10.322524      -280.8902
   5   2.0000     -10.321712      -280.8681
   6   2.0000     -10.307505      -280.4815
   7   2.0000     -10.306265      -280.4477
   8   2.0000     -10.304426      -280.3977
   9   2.0000     -10.302700      -280.3507
  10   2.0000     -10.297187      -280.2007
  11   2.0000     -10.291670      -280.0506
  12   2.0000     -10.290732      -280.0250
  13   2.0000     -10.290307      -280.0135
  14   2.0000     -10.264984      -279.3244
  15   2.0000     -10.263400      -279.2813
  16   2.0000      -8.084394      -219.9875
  17   2.0000      -8.078421      -219.8250
  18   2.0000      -6.043228      -164.4446
  19   2.0000      -6.039326      -164.3384
  20   2.0000      -6.037069      -164.2770
  21   2.0000      -6.034627      -164.2106
  22   2.0000      -6.033197      -164.1716
  23   2.0000      -6.028912      -164.0550
  24   2.0000      -1.004051       -27.3216
  25   2.0000      -0.981371       -26.7045
  26   2.0000      -0.914204       -24.8768
  27   2.0000      -0.904308       -24.6075
  28   2.0000      -0.868990       -23.6464
  29   2.0000      -0.854316       -23.2471
  30   2.0000      -0.845624       -23.0106
  31   2.0000      -0.817757       -22.2523
  32   2.0000      -0.783306       -21.3148
  33   2.0000      -0.774351       -21.0712
  34   2.0000      -0.704262       -19.1639
  35   2.0000      -0.694685       -18.9033
  36   2.0000      -0.691100       -18.8058
  37   2.0000      -0.662325       -18.0228
  38   2.0000      -0.638150       -17.3649
  39   2.0000      -0.627849       -17.0847
  40   2.0000      -0.598990       -16.2993
  41   2.0000      -0.566232       -15.4079
  42   2.0000      -0.556518       -15.1436
  43   2.0000      -0.551693       -15.0123
  44   2.0000      -0.543745       -14.7961
  45   2.0000      -0.536671       -14.6036
  46   2.0000      -0.520164       -14.1544
  47   2.0000      -0.508005       -13.8235
  48   2.0000      -0.500722       -13.6254
  49   2.0000      -0.497797       -13.5457
  50   2.0000      -0.493545       -13.4300
  51   2.0000      -0.478392       -13.0177
  52   2.0000      -0.474368       -12.9082
  53   2.0000      -0.467588       -12.7237
  54   2.0000      -0.457341       -12.4449
  55   2.0000      -0.448402       -12.2016
  56   2.0000      -0.440774       -11.9941
  57   2.0000      -0.436810       -11.8862
  58   2.0000      -0.432543       -11.7701
  59   2.0000      -0.431619       -11.7450
  60   2.0000      -0.427694       -11.6381
  61   2.0000      -0.410181       -11.1616
  62   2.0000      -0.394922       -10.7464
  63   2.0000      -0.358354        -9.7513
  64   2.0000      -0.331583        -9.0228
  65   2.0000      -0.328487        -8.9386
  66   2.0000      -0.287488        -7.8229
  67   0.0000       0.018350         0.4993
  68   0.0000       0.069835         1.9003
  69   0.0000       0.087682         2.3860
  70   0.0000       0.117850         3.2069
  71   0.0000       0.129267         3.5175

MULLIKEN ATOMIC CHARGES
-----------------------
   0 S :    0.108329
   1 C :   -0.133520
   2 C :   -0.071382
   3 C :    0.010214
   4 C :   -0.095652
   5 H :   -0.000356
   6 C :    0.028735
   7 H :    0.050820
   8 H :    0.030698
   9 C :   -0.140500
  10 H :    0.033547
  11 H :    0.031576
  12 C :    0.044308
  13 H :    0.014965
  14 H :    0.042343
  15 H :   -0.017568
  16 S :    0.082057
  17 C :   -0.098815
  18 C :   -0.023681
  19 C :   -0.039152
  20 C :   -0.138592
  21 H :    0.024520
  22 C :    0.063409
  23 H :    0.035324
  24 H :    0.013417
  25 C :   -0.087060
  26 H :    0.034567
  27 H :    0.025799
  28 C :   -0.028295
  29 H :    0.013217
  30 H :    0.020973
  31 H :    0.026537
  32 H :    0.066397
  33 H :    0.072821
Sum of atomic charges:   -0.0000000

LOEWDIN ATOMIC CHARGES
----------------------
   0 S :    0.372911
   1 C :   -0.197087
   2 C :   -0.061556
   3 C :   -0.060146
   4 C :   -0.170666
   5 H :    0.025137
   6 C :   -0.039446
   7 H :    0.039375
   8 H :    0.035083
   9 C :   -0.040318
  10 H :    0.029631
  11 H :    0.016848
  12 C :   -0.057087
  13 H :    0.028731
  14 H :    0.028832
  15 H :    0.005858
  16 S :    0.372369
  17 C :   -0.177514
  18 C :   -0.065120
  19 C :   -0.063973
  20 C :   -0.170712
  21 H :    0.033658
  22 C :   -0.027951
  23 H :    0.039697
  24 H :    0.023602
  25 C :   -0.046767
  26 H :    0.027621
  27 H :    0.029067
  28 C :   -0.063786
  29 H :    0.017943
  30 H :    0.018377
  31 H :    0.022696
  32 H :    0.038735
  33 H :    0.035961

  Mayer bond orders larger than 0.100000
B(  0-S ,  1-C ) :   1.1152 B(  0-S ,  4-C ) :   1.1139 B(  1-C ,  2-C ) :   1.6347
B(  1-C , 32-H ) :   0.9584 B(  2-C ,  3-C ) :   1.1972 B(  2-C ,  6-C ) :   1.0314
B(  3-C ,  4-C ) :   1.6243 B(  3-C ,  5-H ) :   0.9930 B(  4-C , 20-C ) :   1.0516
B(  6-C ,  7-H ) :   0.9395 B(  6-C ,  8-H ) :   0.9417 B(  6-C ,  9-C ) :   1.0749
B(  9-C , 10-H ) :   0.9573 B(  9-C , 11-H ) :   0.9565 B(  9-C , 12-C ) :   1.0704
B( 12-C , 13-H ) :   0.9580 B( 12-C , 14-H ) :   0.9715 B( 12-C , 15-H ) :   0.9708
B( 16-S , 17-C ) :   1.1351 B( 16-S , 20-C ) :   1.1248 B( 17-C , 18-C ) :   1.6178
B( 17-C , 33-H ) :   0.9660 B( 18-C , 19-C ) :   1.2375 B( 18-C , 21-H ) :   0.9865
B( 19-C , 20-C ) :   1.6045 B( 19-C , 22-C ) :   1.0490 B( 22-C , 23-H ) :   0.9332
B( 22-C , 24-H ) :   0.9421 B( 22-C , 25-C ) :   1.0536 B( 25-C , 26-H ) :   0.9580
B( 25-C , 27-H ) :   0.9606 B( 25-C , 28-C ) :   1.0759 B( 28-C , 29-H ) :   0.9738
B( 28-C , 30-H ) :   0.9689 B( 28-C , 31-H ) :   0.9692

Dispersion correction           -0.016488287
FINAL SINGLE POINT ENERGY     -1339.852944623328

DIPOLE MOMENT
-------------
                                X             Y             Z
Electronic contribution:     -4.57672      24.10757      14.86519
Nuclear contribution   :      4.51241     -24.74018     -15.22222
                        -----------------------------------------
Total Dipole Moment    :     -0.06431      -0.63261      -0.35703
                        -----------------------------------------
Magnitude (a.u.)       :      0.72925
Magnitude (Debye)      :      1.85360

Rotational constants in cm-1:     0.020189     0.010240     0.007808
Rotational constants in MHz :   605.238564   306.989185   234.068547

                             ****ORCA TERMINATED NORMALLY****
TOTAL RUN TIME: 0 days 0 hours 0 minutes 23 seconds 554 msec
