                         Program Version 4.2.1 -  RELEASE  -
|  1> ! wB97X-D3 SP def2-SVP
|  2> %pal
|  3> nprocs 24
|  4> end
|  5>
|  6> * xyz 0 1
|  7> S 	 -107.831 	 17.0411 	 -123.582
|  8> C 	 -107.678 	 15.5598 	 -122.729
|  9> C 	 -108.019 	 14.4708 	 -123.47
| 10> C 	 -108.514 	 14.87 	 -124.735
| 11> C 	 -108.452 	 16.2223 	 -125.004
| 12> H 	 -108.769 	 14.2961 	 -125.603
| 13> C 	 -108.037 	 13.0323 	 -122.99
| 14> H 	 -108.509 	 12.4661 	 -123.783
| 15> H 	 -108.614 	 12.8625 	 -122.137
| 16> C 	 -106.613 	 12.3827 	 -122.651
| 17> H 	 -106.249 	 12.9687 	 -121.74
| 18> H 	 -106.732 	 11.3628 	 -122.291
| 19> C 	 -105.742 	 12.4377 	 -123.899
| 20> H 	 -106.203 	 11.7809 	 -124.666
| 21> H 	 -105.567 	 13.3869 	 -124.347
| 22> H 	 -104.728 	 12.0227 	 -123.746
| 23> S 	 -110.395 	 17.6804 	 -126.132
| 24> C 	 -110.491 	 17.8629 	 -127.859
| 25> C 	 -109.446 	 17.261 	 -128.526
| 26> C 	 -108.452 	 16.7045 	 -127.571
| 27> C 	 -108.765 	 16.9533 	 -126.18
| 28> H 	 -109.32 	 17.4201 	 -129.605
| 29> C 	 -107.201 	 16.0182 	 -128.078
| 30> H 	 -106.408 	 15.9778 	 -127.278
| 31> H 	 -106.862 	 16.7246 	 -128.88
| 32> C 	 -107.544 	 14.6017 	 -128.673
| 33> H 	 -108.32 	 14.6279 	 -129.507
| 34> H 	 -107.935 	 14.0342 	 -127.911
| 35> C 	 -106.324 	 13.9731 	 -129.245
| 36> H 	 -106.175 	 14.2724 	 -130.288
| 37> H 	 -106.553 	 12.8976 	 -129.464
| 38> H 	 -105.39 	 13.9631 	 -128.612
| 39> H 	 -107.304 	 15.5199 	 -121.706
| 40> H 	 -111.234 	 18.5431 	 -128.388
| 41> *
| 42>
| 43>                          ****END OF INPUT****

CARTESIAN COORDINATES (ANGSTROEM)
---------------------------------
  S    -107.831000   17.041100  -123.582000
  C    -107.678000   15.559800  -122.729000
  C    -108.019000   14.470800  -123.470000
  C    -108.514000   14.870000  -124.735000
  C    -108.452000   16.222300  -125.004000
  H    -108.769000   14.296100  -125.603000
  C    -108.037000   13.032300  -122.990000
  H    -108.509000   12.466100  -123.783000
  H    -108.614000   12.862500  -122.137000
  C    -106.613000   12.382700  -122.651000
  H    -106.249000   12.968700  -121.740000
  H    -106.732000   11.362800  -122.291000
  C    -105.742000   12.437700  -123.899000
  H    -106.203000   11.780900  -124.666000
  H    -105.567000   13.386900  -124.347000
  H    -104.728000   12.022700  -123.746000
  S    -110.395000   17.680400  -126.132000
  C    -110.491000   17.862900  -127.859000
  C    -109.446000   17.261000  -128.526000
  C    -108.452000   16.704500  -127.571000
  C    -108.765000   16.953300  -126.180000
  H    -109.320000   17.420100  -129.605000
  C    -107.201000   16.018200  -128.078000
  H    -106.408000   15.977800  -127.278000
  H    -106.862000   16.724600  -128.880000
  C    -107.544000   14.601700  -128.673000
  H    -108.320000   14.627900  -129.507000
  H    -107.935000   14.034200  -127.911000
  C    -106.324000   13.973100  -129.245000
  H    -106.175000   14.272400  -130.288000
  H    -106.553000   12.897600  -129.464000
  H    -105.390000   13.963100  -128.612000
  H    -107.304000   15.519900  -121.706000
  H    -111.234000   18.543100  -128.388000

 Total Charge           Charge          ....    0
 Multiplicity           Mult            ....    1
 Number of Electrons    NEL             ....  134
 Basis Dimension        Dim             ....  322

ORBITAL ENERGIES
----------------

  NO   OCC          E(Eh)            E(eV)
   0   2.0000     -88.961564     -2420.7672
   1   2.0000     -88.960460     -2420.7372
   2   2.0000     -10.327434      -281.0238
   3   2.0000     -10.325976      -280.9841
   4   2.0000     -10.322844      -280.8989
   5   2.0000     -10.319337      -280.8034
   6   2.0000     -10.309914      -280.5470
   7   2.0000     -10.302187      -280.3367
   8   2.0000     -10.301096      -280.3071
   9   2.0000     -10.298147      -280.2268
  10   2.0000     -10.296835      -280.1911
  11   2.0000     -10.290687      -280.0238
  12   2.0000     -10.289296      -279.9860
  13   2.0000     -10.288414      -279.9620
  14   2.0000     -10.282310      -279.7959
  15   2.0000     -10.276849      -279.6473
  16   2.0000      -8.077210      -219.7921
  17   2.0000      -8.075163      -219.7364
  18   2.0000      -6.035479      -164.2337
  19   2.0000      -6.033800      -164.1880
  20   2.0000      -6.031530      -164.1263
  21   2.0000      -6.029575      -164.0731
  22   2.0000      -6.028220      -164.0362
  23   2.0000      -6.025851      -163.9717
  24   2.0000      -1.007228       -27.4081
  25   2.0000      -0.979260       -26.6470
  26   2.0000      -0.910057       -24.7639
  27   2.0000      -0.906789       -24.6750
  28   2.0000      -0.872292       -23.7363
  29   2.0000      -0.849750       -23.1229
  30   2.0000      -0.846337       -23.0300
  31   2.0000      -0.813162       -22.1273
  32   2.0000      -0.782600       -21.2956
  33   2.0000      -0.764200       -20.7949
  34   2.0000      -0.705058       -19.1856
  35   2.0000      -0.703803       -19.1514
  36   2.0000      -0.690739       -18.7960
  37   2.0000      -0.656607       -17.8672
  38   2.0000      -0.644497       -17.5376
  39   2.0000      -0.611119       -16.6294
  40   2.0000      -0.589366       -16.0375
  41   2.0000      -0.571673       -15.5560
  42   2.0000      -0.567180       -15.4338
  43   2.0000      -0.548655       -14.9297
  44   2.0000      -0.542427       -14.7602
  45   2.0000      -0.521532       -14.1916
  46   2.0000      -0.516055       -14.0426
  47   2.0000      -0.511709       -13.9243
  48   2.0000      -0.505410       -13.7529
  49   2.0000      -0.501612       -13.6496
  50   2.0000      -0.490847       -13.3566
  51   2.0000      -0.474871       -12.9219
  52   2.0000      -0.469407       -12.7732
  53   2.0000      -0.460712       -12.5366
  54   2.0000      -0.454232       -12.3603
  55   2.0000      -0.451734       -12.2923
  56   2.0000      -0.444704       -12.1010
  57   2.0000      -0.435184       -11.8420
  58   2.0000      -0.433802       -11.8044
  59   2.0000      -0.422864       -11.5067
  60   2.0000      -0.421160       -11.4604
  61   2.0000      -0.414953       -11.2915
  62   2.0000      -0.409008       -11.1297
  63   2.0000      -0.340579        -9.2676
  64   2.0000      -0.330974        -9.0062
  65   2.0000      -0.316817        -8.6210
  66   2.0000      -0.303228        -8.2513
  67   0.0000       0.031643         0.8610
  68   0.0000       0.060811         1.6547
  69   0.0000       0.109763         2.9868
  70   0.0000       0.123442         3.3590
  71   0.0000       0.126571         3.4442

MULLIKEN ATOMIC CHARGES
-----------------------
   0 S :    0.115296
   1 C :   -0.127689
   2 C :   -0.064910
   3 C :    0.051782
   4 C :   -0.191553
   5 H :   -0.002771
   6 C :    0.077608
   7 H :    0.012646
   8 H :    0.024446
   9 C :   -0.085685
  10 H :    0.035045
  11 H :    0.034069
  12 C :   -0.051137
  13 H :    0.026728
  14 H :    0.039783
  15 H :    0.031664
  16 S :    0.092019
  17 C :   -0.108011
  18 C :   -0.032350
  19 C :   -0.075226
  20 C :   -0.120190
  21 H :    0.036172
  22 C :    0.017594
  23 H :    0.047969
  24 H :    0.039279
  25 C :   -0.055822
  26 H :    0.040379
  27 H :    0.010261
  28 C :   -0.056628
  29 H :    0.030293
  30 H :    0.022806
  31 H :    0.050109
  32 H :    0.051038
  33 H :    0.084986
Sum of atomic charges:   -0.0000000

LOEWDIN ATOMIC CHARGES
----------------------
   0 S :    0.418965
   1 C :   -0.196962
   2 C :   -0.072245
   3 C :   -0.055492
   4 C :   -0.210239
   5 H :    0.027680
   6 C :   -0.023944
   7 H :    0.026231
   8 H :    0.023272
   9 C :   -0.037600
  10 H :    0.025911
  11 H :    0.024212
  12 C :   -0.071040
  13 H :    0.028955
  14 H :    0.022286
  15 H :    0.027024
  16 S :    0.397952
  17 C :   -0.187877
  18 C :   -0.086655
  19 C :   -0.034113
  20 C :   -0.216512
  21 H :    0.036826
  22 C :   -0.038115
  23 H :    0.038148
  24 H :    0.037937
  25 C :   -0.036402
  26 H :    0.036395
  27 H :    0.009649
  28 C :   -0.078545
  29 H :    0.027087
  30 H :    0.030125
  31 H :    0.032320
  32 H :    0.029040
  33 H :    0.045725

  Mayer bond orders larger than 0.100000
B(  0-S ,  1-C ) :   1.1672 B(  0-S ,  4-C ) :   1.1452 B(  1-C ,  2-C ) :   1.5936
B(  1-C , 32-H ) :   0.9684 B(  2-C ,  3-C ) :   1.2393 B(  2-C ,  6-C ) :   1.0133
B(  3-C ,  4-C ) :   1.5929 B(  3-C ,  5-H ) :   0.9963 B(  4-C , 20-C ) :   1.0117
B(  6-C ,  7-H ) :   0.9438 B(  6-C ,  8-H ) :   0.9438 B(  6-C ,  9-C ) :   1.0669
B(  9-C , 10-H ) :   0.9579 B(  9-C , 11-H ) :   0.9579 B(  9-C , 12-C ) :   1.0673
B( 12-C , 13-H ) :   0.9734 B( 12-C , 14-H ) :   0.9771 B( 12-C , 15-H ) :   0.9737
B( 16-S , 17-C ) :   1.1796 B( 16-S , 20-C ) :   1.1148 B( 17-C , 18-C ) :   1.6128
B( 17-C , 33-H ) :   0.9523 B( 18-C , 19-C ) :   1.2272 B( 18-C , 21-H ) :   0.9815
B( 19-C , 20-C ) :   1.5783 B( 19-C , 22-C ) :   1.0488 B( 22-C , 23-H ) :   0.9457
B( 22-C , 24-H ) :   0.9389 B( 22-C , 25-C ) :   1.0467 B( 25-C , 26-H ) :   0.9520
B( 25-C , 27-H ) :   0.9562 B( 25-C , 28-C ) :   1.0976 B( 28-C , 29-H ) :   0.9725
B( 28-C , 30-H ) :   0.9671 B( 28-C , 31-H ) :   0.9705

Dispersion correction           -0.014751010
FINAL SINGLE POINT ENERGY     -1339.866281973185

DIPOLE MOMENT
-------------
                                X             Y             Z
Electronic contribution:    -15.49953      24.56393       8.19363
Nuclear contribution   :     15.70481     -25.15232      -8.61984
                        -----------------------------------------
Total Dipole Moment    :      0.20528      -0.58839      -0.42621
                        -----------------------------------------
Magnitude (a.u.)       :      0.75499
Magnitude (Debye)      :      1.91903

Rotational constants in cm-1:     0.017363     0.009733     0.006928
Rotational constants in MHz :   520.532317   291.776911   207.704425

                             ****ORCA TERMINATED NORMALLY****
TOTAL RUN TIME: 0 days 0 hours 0 minutes 21 seconds 921 msec
