                         Program Version 4.2.1 -  RELEASE  -
|  1> ! wB97X-D3 SP def2-SVP
|  2> %pal
|  3> nprocs 24
|  4> end
|  5>
|  6> * xyz 0 1
|  7> S 	 -49.7255 	 22.8606 	 33.5172
|  8> C 	 -48.8091 	 21.9161 	 32.3603
|  9> C 	 -49.6897 	 20.9727 	 31.6836
| 10> C 	 -50.958 	 20.9027 	 32.2774
| 11> C 	 -51.1701 	 21.8978 	 33.2139
| 12> H 	 -51.7523 	 20.2202 	 32.0223
| 13> C 	 -49.2664 	 20.178 	 30.5089
| 14> H 	 -49.9466 	 19.347 	 30.2833
| 15> H 	 -48.2764 	 19.7409 	 30.8105
| 16> C 	 -49.1503 	 20.9345 	 29.1344
| 17> H 	 -48.4416 	 21.8114 	 29.3149
| 18> H 	 -48.7184 	 20.3194 	 28.4002
| 19> C 	 -50.5612 	 21.3509 	 28.7061
| 20> H 	 -50.5572 	 21.6164 	 27.6509
| 21> H 	 -51.277 	 20.5263 	 28.9054
| 22> H 	 -50.795 	 22.3142 	 29.2701
| 23> S 	 -52.3503 	 21.7678 	 35.6755
| 24> C 	 -54.097 	 21.8642 	 35.8393
| 25> C 	 -54.7117 	 22.1695 	 34.6226
| 26> C 	 -53.7497 	 22.1496 	 33.5251
| 27> C 	 -52.4259 	 22.056 	 33.9484
| 28> H 	 -55.8211 	 22.2306 	 34.4909
| 29> C 	 -54.233 	 22.4081 	 32.0852
| 30> H 	 -53.2704 	 22.5116 	 31.562
| 31> H 	 -54.8297 	 23.3078 	 31.9102
| 32> C 	 -54.924 	 21.2847 	 31.3772
| 33> H 	 -55.7859 	 21.1099 	 31.993
| 34> H 	 -54.338 	 20.3619 	 31.3913
| 35> C 	 -55.3335 	 21.5792 	 29.9642
| 36> H 	 -56.0831 	 20.8332 	 29.6758
| 37> H 	 -54.5418 	 21.4934 	 29.2099
| 38> H 	 -55.9007 	 22.5662 	 29.966
| 39> H 	 -47.7607 	 22.0001 	 32.1496
| 40> H 	 -54.6395 	 21.6988 	 36.6938
| 41> *
| 42>
| 43>                          ****END OF INPUT****

CARTESIAN COORDINATES (ANGSTROEM)
---------------------------------
  S    -49.725500   22.860600   33.517200
  C    -48.809100   21.916100   32.360300
  C    -49.689700   20.972700   31.683600
  C    -50.958000   20.902700   32.277400
  C    -51.170100   21.897800   33.213900
  H    -51.752300   20.220200   32.022300
  C    -49.266400   20.178000   30.508900
  H    -49.946600   19.347000   30.283300
  H    -48.276400   19.740900   30.810500
  C    -49.150300   20.934500   29.134400
  H    -48.441600   21.811400   29.314900
  H    -48.718400   20.319400   28.400200
  C    -50.561200   21.350900   28.706100
  H    -50.557200   21.616400   27.650900
  H    -51.277000   20.526300   28.905400
  H    -50.795000   22.314200   29.270100
  S    -52.350300   21.767800   35.675500
  C    -54.097000   21.864200   35.839300
  C    -54.711700   22.169500   34.622600
  C    -53.749700   22.149600   33.525100
  C    -52.425900   22.056000   33.948400
  H    -55.821100   22.230600   34.490900
  C    -54.233000   22.408100   32.085200
  H    -53.270400   22.511600   31.562000
  H    -54.829700   23.307800   31.910200
  C    -54.924000   21.284700   31.377200
  H    -55.785900   21.109900   31.993000
  H    -54.338000   20.361900   31.391300
  C    -55.333500   21.579200   29.964200
  H    -56.083100   20.833200   29.675800
  H    -54.541800   21.493400   29.209900
  H    -55.900700   22.566200   29.966000
  H    -47.760700   22.000100   32.149600
  H    -54.639500   21.698800   36.693800

 Total Charge           Charge          ....    0
 Multiplicity           Mult            ....    1
 Number of Electrons    NEL             ....  134
 Basis Dimension        Dim             ....  322

ORBITAL ENERGIES
----------------

  NO   OCC          E(Eh)            E(eV)
   0   2.0000     -88.974085     -2421.1079
   1   2.0000     -88.965515     -2420.8747
   2   2.0000     -10.330300      -281.1018
   3   2.0000     -10.328361      -281.0490
   4   2.0000     -10.320366      -280.8314
   5   2.0000     -10.315863      -280.7089
   6   2.0000     -10.308414      -280.5062
   7   2.0000     -10.305400      -280.4242
   8   2.0000     -10.301073      -280.3064
   9   2.0000     -10.294023      -280.1146
  10   2.0000     -10.293257      -280.0938
  11   2.0000     -10.289781      -279.9992
  12   2.0000     -10.286579      -279.9120
  13   2.0000     -10.284129      -279.8454
  14   2.0000     -10.282972      -279.8139
  15   2.0000     -10.278676      -279.6970
  16   2.0000      -8.087841      -220.0813
  17   2.0000      -8.080167      -219.8725
  18   2.0000      -6.046270      -164.5274
  19   2.0000      -6.042353      -164.4208
  20   2.0000      -6.038885      -164.3264
  21   2.0000      -6.038749      -164.3227
  22   2.0000      -6.034634      -164.2107
  23   2.0000      -6.030896      -164.1090
  24   2.0000      -1.003340       -27.3023
  25   2.0000      -0.979446       -26.6521
  26   2.0000      -0.914849       -24.8943
  27   2.0000      -0.910745       -24.7826
  28   2.0000      -0.866049       -23.5664
  29   2.0000      -0.853297       -23.2194
  30   2.0000      -0.846806       -23.0428
  31   2.0000      -0.813014       -22.1232
  32   2.0000      -0.779033       -21.1986
  33   2.0000      -0.765721       -20.8363
  34   2.0000      -0.703173       -19.1343
  35   2.0000      -0.698461       -19.0061
  36   2.0000      -0.691197       -18.8084
  37   2.0000      -0.661259       -17.9938
  38   2.0000      -0.641851       -17.4656
  39   2.0000      -0.612288       -16.6612
  40   2.0000      -0.595670       -16.2090
  41   2.0000      -0.576004       -15.6739
  42   2.0000      -0.575273       -15.6540
  43   2.0000      -0.553894       -15.0722
  44   2.0000      -0.543334       -14.7849
  45   2.0000      -0.518351       -14.1050
  46   2.0000      -0.513536       -13.9740
  47   2.0000      -0.513233       -13.9658
  48   2.0000      -0.505424       -13.7533
  49   2.0000      -0.497146       -13.5280
  50   2.0000      -0.485551       -13.2125
  51   2.0000      -0.481972       -13.1151
  52   2.0000      -0.470958       -12.8154
  53   2.0000      -0.467237       -12.7142
  54   2.0000      -0.461416       -12.5558
  55   2.0000      -0.446181       -12.1412
  56   2.0000      -0.441696       -12.0192
  57   2.0000      -0.432192       -11.7606
  58   2.0000      -0.430195       -11.7062
  59   2.0000      -0.427176       -11.6241
  60   2.0000      -0.422103       -11.4860
  61   2.0000      -0.418628       -11.3914
  62   2.0000      -0.406332       -11.0568
  63   2.0000      -0.345327        -9.3968
  64   2.0000      -0.329365        -8.9625
  65   2.0000      -0.326643        -8.8884
  66   2.0000      -0.292403        -7.9567
  67   0.0000       0.028572         0.7775
  68   0.0000       0.060493         1.6461
  69   0.0000       0.114669         3.1203
  70   0.0000       0.116468         3.1692
  71   0.0000       0.121296         3.3006

MULLIKEN ATOMIC CHARGES
-----------------------
   0 S :    0.134153
   1 C :   -0.118968
   2 C :   -0.087549
   3 C :    0.052348
   4 C :   -0.175483
   5 H :    0.010422
   6 C :    0.013145
   7 H :    0.021419
   8 H :    0.038996
   9 C :   -0.059078
  10 H :    0.036087
  11 H :    0.024034
  12 C :   -0.078483
  13 H :    0.036016
  14 H :    0.035036
  15 H :    0.061988
  16 S :    0.107953
  17 C :   -0.061213
  18 C :   -0.036420
  19 C :   -0.047842
  20 C :   -0.143054
  21 H :    0.041936
  22 C :    0.048706
  23 H :    0.018413
  24 H :    0.031106
  25 C :   -0.071621
  26 H :    0.009002
  27 H :    0.020826
  28 C :   -0.047118
  29 H :    0.030990
  30 H :    0.045016
  31 H :    0.033457
  32 H :    0.048373
  33 H :    0.027409
Sum of atomic charges:   -0.0000000

LOEWDIN ATOMIC CHARGES
----------------------
   0 S :    0.417926
   1 C :   -0.205240
   2 C :   -0.058230
   3 C :   -0.056926
   4 C :   -0.198957
   5 H :    0.033359
   6 C :   -0.041036
   7 H :    0.025852
   8 H :    0.036696
   9 C :   -0.036632
  10 H :    0.028655
  11 H :    0.014147
  12 C :   -0.072229
  13 H :    0.024484
  14 H :    0.025051
  15 H :    0.039962
  16 S :    0.406984
  17 C :   -0.169061
  18 C :   -0.072827
  19 C :   -0.052160
  20 C :   -0.201700
  21 H :    0.039309
  22 C :   -0.037269
  23 H :    0.029437
  24 H :    0.030692
  25 C :   -0.047438
  26 H :    0.017067
  27 H :    0.021510
  28 C :   -0.066915
  29 H :    0.029299
  30 H :    0.027356
  31 H :    0.031960
  32 H :    0.024635
  33 H :    0.012244

  Mayer bond orders larger than 0.100000
B(  0-S ,  1-C ) :   1.1553 B(  0-S ,  4-C ) :   1.1660 B(  1-C ,  2-C ) :   1.5352
B(  1-C ,  4-C ) :   0.1130 B(  1-C , 32-H ) :   0.9731 B(  2-C ,  3-C ) :   1.2830
B(  2-C ,  6-C ) :   1.0341 B(  3-C ,  4-C ) :   1.5347 B(  3-C ,  5-H ) :   0.9947
B(  4-C , 20-C ) :   1.0185 B(  6-C ,  7-H ) :   0.9492 B(  6-C ,  8-H ) :   0.9358
B(  6-C ,  9-C ) :   1.0646 B(  9-C , 10-H ) :   0.9567 B(  9-C , 11-H ) :   0.9585
B(  9-C , 12-C ) :   1.0667 B( 12-C , 13-H ) :   0.9743 B( 12-C , 14-H ) :   0.9745
B( 12-C , 15-H ) :   0.9735 B( 16-S , 17-C ) :   1.1581 B( 16-S , 20-C ) :   1.1373
B( 17-C , 18-C ) :   1.6097 B( 17-C , 33-H ) :   0.9778 B( 18-C , 19-C ) :   1.2290
B( 18-C , 21-H ) :   0.9790 B( 19-C , 20-C ) :   1.6167 B( 19-C , 22-C ) :   1.0368
B( 22-C , 23-H ) :   0.9308 B( 22-C , 24-H ) :   0.9429 B( 22-C , 25-C ) :   1.0704
B( 25-C , 26-H ) :   0.9513 B( 25-C , 27-H ) :   0.9453 B( 25-C , 28-C ) :   1.0964
B( 28-C , 29-H ) :   0.9708 B( 28-C , 30-H ) :   0.9745 B( 28-C , 31-H ) :   0.9680

Dispersion correction           -0.015060448
FINAL SINGLE POINT ENERGY     -1339.875272969280

DIPOLE MOMENT
-------------
                                X             Y             Z
Electronic contribution:      8.93532       6.38460      29.43228
Nuclear contribution   :     -9.19283      -6.69485     -30.01441
                        -----------------------------------------
Total Dipole Moment    :     -0.25751      -0.31025      -0.58213
                        -----------------------------------------
Magnitude (a.u.)       :      0.70812
Magnitude (Debye)      :      1.79991

Rotational constants in cm-1:     0.016818     0.010430     0.006957
Rotational constants in MHz :   504.197684   312.671086   208.551825

                             ****ORCA TERMINATED NORMALLY****
TOTAL RUN TIME: 0 days 0 hours 0 minutes 22 seconds 463 msec
