                         Program Version 4.2.1 -  RELEASE  -
|  1> ! wB97X-D3 SP def2-SVP
|  2> %pal
|  3> nprocs 24
|  4> end
|  5>
|  6> * xyz 0 1
|  7> S 	 -140.05 	 11.1591 	 2.51734
|  8> C 	 -141.375 	 10.1271 	 2.36119
|  9> C 	 -141.19 	 9.06471 	 1.44051
| 10> C 	 -139.847 	 9.02851 	 1.0349
| 11> C 	 -139.066 	 10.1179 	 1.48603
| 12> H 	 -139.565 	 8.3762 	 0.260089
| 13> C 	 -142.343 	 8.07522 	 1.00985
| 14> H 	 -143.028 	 8.65744 	 0.316382
| 15> H 	 -142.977 	 7.59642 	 1.82788
| 16> C 	 -141.93 	 6.88852 	 0.166428
| 17> H 	 -141.237 	 7.2515 	 -0.481737
| 18> H 	 -141.377 	 6.16334 	 0.86034
| 19> C 	 -143.044 	 6.1843 	 -0.574193
| 20> H 	 -142.799 	 5.29783 	 -1.13953
| 21> H 	 -143.801 	 5.92523 	 0.0875656
| 22> H 	 -143.588 	 6.74015 	 -1.35464
| 23> S 	 -137.35 	 12.0978 	 0.466927
| 24> C 	 -135.671 	 11.7707 	 0.458547
| 25> C 	 -135.402 	 10.4559 	 0.757508
| 26> C 	 -136.604 	 9.63757 	 0.935998
| 27> C 	 -137.709 	 10.4984 	 1.05986
| 28> H 	 -134.41 	 10.1847 	 0.870056
| 29> C 	 -136.493 	 8.18556 	 1.31176
| 30> H 	 -137.395 	 7.96374 	 2.00002
| 31> H 	 -135.593 	 8.03441 	 1.97711
| 32> C 	 -136.334 	 7.20648 	 0.0387449
| 33> H 	 -135.394 	 7.29894 	 -0.434424
| 34> H 	 -136.99 	 7.52794 	 -0.770552
| 35> C 	 -136.565 	 5.6943 	 0.311731
| 36> H 	 -136.264 	 5.20822 	 -0.649993
| 37> H 	 -137.587 	 5.48947 	 0.607078
| 38> H 	 -135.962 	 5.20577 	 1.07861
| 39> H 	 -142.342 	 10.3535 	 2.80566
| 40> H 	 -134.828 	 12.5631 	 0.344287
| 41> *
| 42>
| 43>                          ****END OF INPUT****

CARTESIAN COORDINATES (ANGSTROEM)
---------------------------------
  S    -140.050000   11.159100    2.517340
  C    -141.375000   10.127100    2.361190
  C    -141.190000    9.064710    1.440510
  C    -139.847000    9.028510    1.034900
  C    -139.066000   10.117900    1.486030
  H    -139.565000    8.376200    0.260089
  C    -142.343000    8.075220    1.009850
  H    -143.028000    8.657440    0.316382
  H    -142.977000    7.596420    1.827880
  C    -141.930000    6.888520    0.166428
  H    -141.237000    7.251500   -0.481737
  H    -141.377000    6.163340    0.860340
  C    -143.044000    6.184300   -0.574193
  H    -142.799000    5.297830   -1.139530
  H    -143.801000    5.925230    0.087566
  H    -143.588000    6.740150   -1.354640
  S    -137.350000   12.097800    0.466927
  C    -135.671000   11.770700    0.458547
  C    -135.402000   10.455900    0.757508
  C    -136.604000    9.637570    0.935998
  C    -137.709000   10.498400    1.059860
  H    -134.410000   10.184700    0.870056
  C    -136.493000    8.185560    1.311760
  H    -137.395000    7.963740    2.000020
  H    -135.593000    8.034410    1.977110
  C    -136.334000    7.206480    0.038745
  H    -135.394000    7.298940   -0.434424
  H    -136.990000    7.527940   -0.770552
  C    -136.565000    5.694300    0.311731
  H    -136.264000    5.208220   -0.649993
  H    -137.587000    5.489470    0.607078
  H    -135.962000    5.205770    1.078610
  H    -142.342000   10.353500    2.805660
  H    -134.828000   12.563100    0.344287

 Total Charge           Charge          ....    0
 Multiplicity           Mult            ....    1
 Number of Electrons    NEL             ....  134
 Basis Dimension        Dim             ....  322

ORBITAL ENERGIES
----------------

  NO   OCC          E(Eh)            E(eV)
   0   2.0000     -88.973155     -2421.0826
   1   2.0000     -88.965025     -2420.8614
   2   2.0000     -10.333601      -281.1916
   3   2.0000     -10.328671      -281.0574
   4   2.0000     -10.316577      -280.7283
   5   2.0000     -10.313588      -280.6470
   6   2.0000     -10.307740      -280.4879
   7   2.0000     -10.306431      -280.4523
   8   2.0000     -10.305264      -280.4205
   9   2.0000     -10.303728      -280.3787
  10   2.0000     -10.295119      -280.1444
  11   2.0000     -10.290353      -280.0147
  12   2.0000     -10.287843      -279.9464
  13   2.0000     -10.284273      -279.8493
  14   2.0000     -10.281554      -279.7753
  15   2.0000     -10.274844      -279.5927
  16   2.0000      -8.088321      -220.0944
  17   2.0000      -8.080527      -219.8823
  18   2.0000      -6.046526      -164.5343
  19   2.0000      -6.042603      -164.4276
  20   2.0000      -6.039551      -164.3445
  21   2.0000      -6.039033      -164.3305
  22   2.0000      -6.034999      -164.2207
  23   2.0000      -6.031176      -164.1166
  24   2.0000      -1.006959       -27.4007
  25   2.0000      -0.986648       -26.8481
  26   2.0000      -0.914521       -24.8854
  27   2.0000      -0.896681       -24.3999
  28   2.0000      -0.866070       -23.5670
  29   2.0000      -0.856251       -23.2998
  30   2.0000      -0.848184       -23.0802
  31   2.0000      -0.810772       -22.0622
  32   2.0000      -0.784250       -21.3405
  33   2.0000      -0.767468       -20.8839
  34   2.0000      -0.710697       -19.3390
  35   2.0000      -0.700333       -19.0570
  36   2.0000      -0.683943       -18.6110
  37   2.0000      -0.657170       -17.8825
  38   2.0000      -0.637575       -17.3493
  39   2.0000      -0.628412       -17.1000
  40   2.0000      -0.588354       -16.0099
  41   2.0000      -0.574176       -15.6241
  42   2.0000      -0.563818       -15.3423
  43   2.0000      -0.551233       -14.9998
  44   2.0000      -0.526753       -14.3337
  45   2.0000      -0.522580       -14.2201
  46   2.0000      -0.510849       -13.9009
  47   2.0000      -0.506300       -13.7771
  48   2.0000      -0.500904       -13.6303
  49   2.0000      -0.494968       -13.4688
  50   2.0000      -0.491019       -13.3613
  51   2.0000      -0.481052       -13.0901
  52   2.0000      -0.474584       -12.9141
  53   2.0000      -0.468334       -12.7440
  54   2.0000      -0.460330       -12.5262
  55   2.0000      -0.452272       -12.3070
  56   2.0000      -0.444567       -12.0973
  57   2.0000      -0.439097       -11.9484
  58   2.0000      -0.431613       -11.7448
  59   2.0000      -0.424491       -11.5510
  60   2.0000      -0.421981       -11.4827
  61   2.0000      -0.418275       -11.3819
  62   2.0000      -0.411675       -11.2022
  63   2.0000      -0.350044        -9.5252
  64   2.0000      -0.335423        -9.1273
  65   2.0000      -0.326273        -8.8783
  66   2.0000      -0.283933        -7.7262
  67   0.0000       0.025177         0.6851
  68   0.0000       0.072967         1.9855
  69   0.0000       0.115428         3.1410
  70   0.0000       0.124862         3.3977
  71   0.0000       0.129458         3.5227

MULLIKEN ATOMIC CHARGES
-----------------------
   0 S :    0.142054
   1 C :   -0.121073
   2 C :   -0.089696
   3 C :    0.044753
   4 C :   -0.171012
   5 H :   -0.003743
   6 C :    0.006598
   7 H :    0.045340
   8 H :    0.052725
   9 C :   -0.071626
  10 H :    0.009590
  11 H :    0.039923
  12 C :   -0.017208
  13 H :    0.029899
  14 H :    0.009275
  15 H :    0.022952
  16 S :    0.119222
  17 C :   -0.129584
  18 C :   -0.008728
  19 C :   -0.013129
  20 C :   -0.145383
  21 H :   -0.008474
  22 C :   -0.009612
  23 H :    0.053202
  24 H :    0.040944
  25 C :   -0.060507
  26 H :    0.017901
  27 H :    0.029536
  28 C :   -0.055139
  29 H :    0.039021
  30 H :    0.033713
  31 H :    0.030543
  32 H :    0.049884
  33 H :    0.087839
Sum of atomic charges:   -0.0000000

LOEWDIN ATOMIC CHARGES
----------------------
   0 S :    0.447688
   1 C :   -0.215944
   2 C :   -0.064562
   3 C :   -0.058636
   4 C :   -0.197305
   5 H :    0.023641
   6 C :   -0.036757
   7 H :    0.037957
   8 H :    0.038360
   9 C :   -0.045036
  10 H :    0.006062
  11 H :    0.032886
  12 C :   -0.064284
  13 H :    0.029699
  14 H :    0.016292
  15 H :    0.029292
  16 S :    0.415417
  17 C :   -0.219235
  18 C :   -0.063595
  19 C :   -0.056244
  20 C :   -0.203530
  21 H :    0.018094
  22 C :   -0.044109
  23 H :    0.041394
  24 H :    0.036093
  25 C :   -0.037024
  26 H :    0.018845
  27 H :    0.024683
  28 C :   -0.067996
  29 H :    0.033779
  30 H :    0.022156
  31 H :    0.023487
  32 H :    0.027351
  33 H :    0.051079

  Mayer bond orders larger than 0.100000
B(  0-S ,  1-C ) :   1.1932 B(  0-S ,  4-C ) :   1.1747 B(  1-C ,  2-C ) :   1.5499
B(  1-C ,  4-C ) :   0.1098 B(  1-C , 32-H ) :   0.9681 B(  2-C ,  3-C ) :   1.3480
B(  2-C ,  6-C ) :   0.9893 B(  3-C ,  4-C ) :   1.4849 B(  3-C ,  5-H ) :   0.9904
B(  4-C , 20-C ) :   1.0594 B(  6-C ,  7-H ) :   0.9431 B(  6-C ,  8-H ) :   0.9510
B(  6-C ,  9-C ) :   1.0774 B(  9-C , 10-H ) :   0.9466 B(  9-C , 11-H ) :   0.9519
B(  9-C , 12-C ) :   1.0882 B( 12-C , 13-H ) :   0.9707 B( 12-C , 14-H ) :   0.9727
B( 12-C , 15-H ) :   0.9695 B( 16-S , 17-C ) :   1.1406 B( 16-S , 20-C ) :   1.1498
B( 17-C , 18-C ) :   1.6400 B( 17-C , 33-H ) :   0.9521 B( 18-C , 19-C ) :   1.2060
B( 18-C , 21-H ) :   1.0007 B( 19-C , 20-C ) :   1.5704 B( 19-C , 22-C ) :   1.0570
B( 22-C , 23-H ) :   0.9432 B( 22-C , 24-H ) :   0.9435 B( 22-C , 25-C ) :   1.0260
B( 25-C , 26-H ) :   0.9576 B( 25-C , 27-H ) :   0.9599 B( 25-C , 28-C ) :   1.0795
B( 28-C , 29-H ) :   0.9746 B( 28-C , 30-H ) :   0.9783 B( 28-C , 31-H ) :   0.9764

Dispersion correction           -0.013807811
FINAL SINGLE POINT ENERGY     -1339.856470807694

DIPOLE MOMENT
-------------
                                X             Y             Z
Electronic contribution:      5.94224      31.26102       8.72039
Nuclear contribution   :     -5.99974     -31.77708      -8.89903
                        -----------------------------------------
Total Dipole Moment    :     -0.05750      -0.51606      -0.17863
                        -----------------------------------------
Magnitude (a.u.)       :      0.54912
Magnitude (Debye)      :      1.39576

Rotational constants in cm-1:     0.016166     0.009279     0.006480
Rotational constants in MHz :   484.649474   278.184460   194.269525

                             ****ORCA TERMINATED NORMALLY****
TOTAL RUN TIME: 0 days 0 hours 0 minutes 21 seconds 298 msec
