                         Program Version 4.2.1 -  RELEASE  -
|  1> ! wB97X-D3 SP def2-SVP
|  2> %pal
|  3> nprocs 24
|  4> end
|  5>
|  6> * xyz 0 1
|  7> S 	 -35.5549 	 -41.49 	 -77.2412
|  8> C 	 -36.2531 	 -39.9218 	 -76.8296
|  9> C 	 -37.165 	 -39.5634 	 -77.7793
| 10> C 	 -37.4408 	 -40.5436 	 -78.787
| 11> C 	 -36.6867 	 -41.7041 	 -78.6071
| 12> H 	 -38.0587 	 -40.438 	 -79.6493
| 13> C 	 -37.8623 	 -38.2381 	 -77.9371
| 14> H 	 -38.8931 	 -38.5484 	 -78.1541
| 15> H 	 -37.5733 	 -37.8448 	 -78.8226
| 16> C 	 -37.7232 	 -37.2825 	 -76.7819
| 17> H 	 -37.8881 	 -37.8435 	 -75.8825
| 18> H 	 -36.7383 	 -36.9367 	 -76.6541
| 19> C 	 -38.7144 	 -36.1191 	 -76.9855
| 20> H 	 -39.6307 	 -36.3752 	 -76.5754
| 21> H 	 -38.3381 	 -35.1966 	 -76.5626
| 22> H 	 -38.9264 	 -35.873 	 -78.0769
| 23> S 	 -34.9142 	 -43.5901 	 -79.6073
| 24> C 	 -35.5092 	 -44.9577 	 -80.5174
| 25> C 	 -36.8221 	 -44.769 	 -80.8121
| 26> C 	 -37.3752 	 -43.5979 	 -80.2118
| 27> C 	 -36.4676 	 -42.8514 	 -79.4932
| 28> H 	 -37.2408 	 -45.4519 	 -81.5683
| 29> C 	 -38.8309 	 -43.3388 	 -80.4417
| 30> H 	 -39.0341 	 -43.5393 	 -81.4554
| 31> H 	 -39.1009 	 -42.2486 	 -80.4027
| 32> C 	 -39.8799 	 -44.0717 	 -79.5515
| 33> H 	 -39.4736 	 -44.2833 	 -78.526
| 34> H 	 -40.1534 	 -44.9982 	 -79.9309
| 35> C 	 -41.1709 	 -43.2574 	 -79.5743
| 36> H 	 -42.025 	 -43.7835 	 -79.1708
| 37> H 	 -41.2021 	 -42.9257 	 -80.6327
| 38> H 	 -41.0977 	 -42.4077 	 -79.0052
| 39> H 	 -35.8294 	 -39.3513 	 -76.0452
| 40> H 	 -34.9084 	 -45.6711 	 -81.1187
| 41> *
| 42>
| 43>                          ****END OF INPUT****

CARTESIAN COORDINATES (ANGSTROEM)
---------------------------------
  S    -35.554900  -41.490000  -77.241200
  C    -36.253100  -39.921800  -76.829600
  C    -37.165000  -39.563400  -77.779300
  C    -37.440800  -40.543600  -78.787000
  C    -36.686700  -41.704100  -78.607100
  H    -38.058700  -40.438000  -79.649300
  C    -37.862300  -38.238100  -77.937100
  H    -38.893100  -38.548400  -78.154100
  H    -37.573300  -37.844800  -78.822600
  C    -37.723200  -37.282500  -76.781900
  H    -37.888100  -37.843500  -75.882500
  H    -36.738300  -36.936700  -76.654100
  C    -38.714400  -36.119100  -76.985500
  H    -39.630700  -36.375200  -76.575400
  H    -38.338100  -35.196600  -76.562600
  H    -38.926400  -35.873000  -78.076900
  S    -34.914200  -43.590100  -79.607300
  C    -35.509200  -44.957700  -80.517400
  C    -36.822100  -44.769000  -80.812100
  C    -37.375200  -43.597900  -80.211800
  C    -36.467600  -42.851400  -79.493200
  H    -37.240800  -45.451900  -81.568300
  C    -38.830900  -43.338800  -80.441700
  H    -39.034100  -43.539300  -81.455400
  H    -39.100900  -42.248600  -80.402700
  C    -39.879900  -44.071700  -79.551500
  H    -39.473600  -44.283300  -78.526000
  H    -40.153400  -44.998200  -79.930900
  C    -41.170900  -43.257400  -79.574300
  H    -42.025000  -43.783500  -79.170800
  H    -41.202100  -42.925700  -80.632700
  H    -41.097700  -42.407700  -79.005200
  H    -35.829400  -39.351300  -76.045200
  H    -34.908400  -45.671100  -81.118700

 Total Charge           Charge          ....    0
 Multiplicity           Mult            ....    1
 Number of Electrons    NEL             ....  134
 Basis Dimension        Dim             ....  322

ORBITAL ENERGIES
----------------

  NO   OCC          E(Eh)            E(eV)
   0   2.0000     -88.965161     -2420.8651
   1   2.0000     -88.961062     -2420.7536
   2   2.0000     -10.336623      -281.2738
   3   2.0000     -10.327794      -281.0336
   4   2.0000     -10.316000      -280.7126
   5   2.0000     -10.310457      -280.5618
   6   2.0000     -10.300598      -280.2935
   7   2.0000     -10.298979      -280.2495
   8   2.0000     -10.294803      -280.1358
   9   2.0000     -10.292366      -280.0695
  10   2.0000     -10.289565      -279.9933
  11   2.0000     -10.280761      -279.7537
  12   2.0000     -10.280517      -279.7471
  13   2.0000     -10.280201      -279.7385
  14   2.0000     -10.277406      -279.6624
  15   2.0000     -10.270112      -279.4640
  16   2.0000      -8.080392      -219.8786
  17   2.0000      -8.075322      -219.7407
  18   2.0000      -6.038992      -164.3293
  19   2.0000      -6.034762      -164.2142
  20   2.0000      -6.033942      -164.1919
  21   2.0000      -6.031056      -164.1134
  22   2.0000      -6.029959      -164.0835
  23   2.0000      -6.025923      -163.9737
  24   2.0000      -1.010160       -27.4879
  25   2.0000      -0.985131       -26.8068
  26   2.0000      -0.918353       -24.9897
  27   2.0000      -0.911315       -24.7981
  28   2.0000      -0.871998       -23.7283
  29   2.0000      -0.855920       -23.2908
  30   2.0000      -0.847600       -23.0644
  31   2.0000      -0.818362       -22.2688
  32   2.0000      -0.779997       -21.2248
  33   2.0000      -0.770842       -20.9757
  34   2.0000      -0.722985       -19.6734
  35   2.0000      -0.706435       -19.2231
  36   2.0000      -0.694323       -18.8935
  37   2.0000      -0.663725       -18.0609
  38   2.0000      -0.642935       -17.4951
  39   2.0000      -0.617886       -16.8135
  40   2.0000      -0.599511       -16.3135
  41   2.0000      -0.577660       -15.7189
  42   2.0000      -0.568539       -15.4707
  43   2.0000      -0.562589       -15.3088
  44   2.0000      -0.530633       -14.4392
  45   2.0000      -0.529073       -14.3968
  46   2.0000      -0.521542       -14.1919
  47   2.0000      -0.514081       -13.9888
  48   2.0000      -0.506448       -13.7812
  49   2.0000      -0.500389       -13.6163
  50   2.0000      -0.488107       -13.2821
  51   2.0000      -0.483653       -13.1609
  52   2.0000      -0.479851       -13.0574
  53   2.0000      -0.462792       -12.5932
  54   2.0000      -0.458677       -12.4812
  55   2.0000      -0.451377       -12.2826
  56   2.0000      -0.444564       -12.0972
  57   2.0000      -0.439002       -11.9459
  58   2.0000      -0.431023       -11.7287
  59   2.0000      -0.427494       -11.6327
  60   2.0000      -0.421373       -11.4661
  61   2.0000      -0.414570       -11.2810
  62   2.0000      -0.409779       -11.1506
  63   2.0000      -0.360754        -9.8166
  64   2.0000      -0.331198        -9.0124
  65   2.0000      -0.325124        -8.8471
  66   2.0000      -0.288889        -7.8611
  67   0.0000       0.023675         0.6442
  68   0.0000       0.080130         2.1805
  69   0.0000       0.103586         2.8187
  70   0.0000       0.122493         3.3332
  71   0.0000       0.139129         3.7859

MULLIKEN ATOMIC CHARGES
-----------------------
   0 S :    0.077102
   1 C :   -0.131935
   2 C :   -0.070293
   3 C :    0.004448
   4 C :   -0.108210
   5 H :    0.010813
   6 C :    0.080380
   7 H :    0.022588
   8 H :    0.005457
   9 C :   -0.035728
  10 H :    0.022679
  11 H :    0.016843
  12 C :   -0.025283
  13 H :    0.023300
  14 H :    0.028305
  15 H :    0.032607
  16 S :    0.097729
  17 C :   -0.101701
  18 C :   -0.045939
  19 C :   -0.044253
  20 C :   -0.120225
  21 H :    0.031441
  22 C :    0.037113
  23 H :    0.013094
  24 H :    0.007635
  25 C :   -0.032755
  26 H :    0.041200
  27 H :    0.009259
  28 C :   -0.037811
  29 H :    0.033493
  30 H :    0.030009
  31 H :    0.016221
  32 H :    0.041126
  33 H :    0.071292
Sum of atomic charges:    0.0000000

LOEWDIN ATOMIC CHARGES
----------------------
   0 S :    0.375961
   1 C :   -0.194587
   2 C :   -0.055583
   3 C :   -0.062960
   4 C :   -0.161664
   5 H :    0.026422
   6 C :   -0.025022
   7 H :    0.035486
   8 H :    0.018372
   9 C :   -0.035293
  10 H :    0.023890
  11 H :    0.017754
  12 C :   -0.055139
  13 H :    0.016667
  14 H :    0.024266
  15 H :    0.032656
  16 S :    0.414374
  17 C :   -0.195266
  18 C :   -0.073087
  19 C :   -0.063265
  20 C :   -0.205124
  21 H :    0.038369
  22 C :   -0.035980
  23 H :    0.025969
  24 H :    0.028610
  25 C :   -0.030827
  26 H :    0.029336
  27 H :    0.012051
  28 C :   -0.057325
  29 H :    0.026166
  30 H :    0.030456
  31 H :    0.011900
  32 H :    0.021411
  33 H :    0.041003

  Mayer bond orders larger than 0.100000
B(  0-S ,  1-C ) :   1.1049 B(  0-S ,  4-C ) :   1.1458 B(  1-C ,  2-C ) :   1.6266
B(  1-C , 32-H ) :   0.9771 B(  2-C ,  3-C ) :   1.2287 B(  2-C ,  6-C ) :   0.9975
B(  3-C ,  4-C ) :   1.5717 B(  3-C ,  5-H ) :   0.9955 B(  4-C , 20-C ) :   1.0588
B(  6-C ,  7-H ) :   0.9408 B(  6-C ,  8-H ) :   0.9236 B(  6-C ,  9-C ) :   1.0821
B(  9-C , 10-H ) :   0.9549 B(  9-C , 11-H ) :   0.9498 B(  9-C , 12-C ) :   1.0714
B( 12-C , 13-H ) :   0.9777 B( 12-C , 14-H ) :   0.9749 B( 12-C , 15-H ) :   0.9764
B( 16-S , 17-C ) :   1.1501 B( 16-S , 20-C ) :   1.1343 B( 17-C , 18-C ) :   1.6257
B( 17-C , 33-H ) :   0.9572 B( 18-C , 19-C ) :   1.2462 B( 18-C , 21-H ) :   0.9857
B( 19-C , 20-C ) :   1.5860 B( 19-C , 22-C ) :   1.0532 B( 22-C , 23-H ) :   0.9157
B( 22-C , 24-H ) :   0.9464 B( 22-C , 25-C ) :   1.0495 B( 25-C , 26-H ) :   0.9619
B( 25-C , 27-H ) :   0.9530 B( 25-C , 28-C ) :   1.0785 B( 28-C , 29-H ) :   0.9721
B( 28-C , 30-H ) :   0.9713 B( 28-C , 31-H ) :   0.9758

Dispersion correction           -0.013369155
FINAL SINGLE POINT ENERGY     -1339.860576779198

DIPOLE MOMENT
-------------
                                X             Y             Z
Electronic contribution:     25.40736     -15.15674       0.19194
Nuclear contribution   :    -25.92814      15.47168      -0.60033
                        -----------------------------------------
Total Dipole Moment    :     -0.52079       0.31493      -0.40839
                        -----------------------------------------
Magnitude (a.u.)       :      0.73293
Magnitude (Debye)      :      1.86296

Rotational constants in cm-1:     0.019664     0.007999     0.006085
Rotational constants in MHz :   589.516778   239.790121   182.431085

                             ****ORCA TERMINATED NORMALLY****
TOTAL RUN TIME: 0 days 0 hours 0 minutes 21 seconds 259 msec
