                         Program Version 4.2.1 -  RELEASE  -
|  1> ! wB97X-D3 SP def2-SVP
|  2> %pal
|  3> nprocs 24
|  4> end
|  5>
|  6> * xyz 0 1
|  7> S 	 -116.7 	 29.6503 	 -18.595
|  8> C 	 -118.201 	 28.8045 	 -18.3283
|  9> C 	 -118.964 	 29.4777 	 -17.3906
| 10> C 	 -118.475 	 30.8115 	 -17.1493
| 11> C 	 -117.342 	 31.1152 	 -17.8578
| 12> H 	 -119.025 	 31.5456 	 -16.6097
| 13> C 	 -120.173 	 28.8446 	 -16.7182
| 14> H 	 -120.018 	 28.7855 	 -15.6347
| 15> H 	 -120.349 	 27.8485 	 -17.1105
| 16> C 	 -121.521 	 29.5996 	 -16.9624
| 17> H 	 -121.512 	 30.6356 	 -16.838
| 18> H 	 -121.985 	 29.4504 	 -17.8891
| 19> C 	 -122.566 	 29.177 	 -15.9205
| 20> H 	 -123.448 	 29.7885 	 -16.2517
| 21> H 	 -122.834 	 28.1757 	 -16.0667
| 22> H 	 -122.276 	 29.4186 	 -14.927
| 23> S 	 -115.052 	 32.3845 	 -17.0961
| 24> C 	 -114.995 	 34.1843 	 -17.34
| 25> C 	 -116.127 	 34.6491 	 -17.9374
| 26> C 	 -117.064 	 33.6124 	 -18.2391
| 27> C 	 -116.646 	 32.3754 	 -17.804
| 28> H 	 -116.243 	 35.7131 	 -18.223
| 29> C 	 -118.484 	 33.9018 	 -18.7292
| 30> H 	 -118.591 	 35.016 	 -18.6648
| 31> H 	 -119.046 	 33.4897 	 -17.9246
| 32> C 	 -118.924 	 33.3766 	 -20.1408
| 33> H 	 -119.51 	 34.1257 	 -20.6431
| 34> H 	 -119.44 	 32.42 	 -20.0458
| 35> C 	 -117.821 	 33.1405 	 -21.1698
| 36> H 	 -117.086 	 32.3462 	 -20.8774
| 37> H 	 -117.219 	 34.042 	 -21.2839
| 38> H 	 -118.218 	 32.8497 	 -22.1842
| 39> H 	 -118.402 	 27.7717 	 -18.4967
| 40> H 	 -114.26 	 34.8588 	 -17.043
| 41> *
| 42>
| 43>                          ****END OF INPUT****

CARTESIAN COORDINATES (ANGSTROEM)
---------------------------------
  S    -116.700000   29.650300  -18.595000
  C    -118.201000   28.804500  -18.328300
  C    -118.964000   29.477700  -17.390600
  C    -118.475000   30.811500  -17.149300
  C    -117.342000   31.115200  -17.857800
  H    -119.025000   31.545600  -16.609700
  C    -120.173000   28.844600  -16.718200
  H    -120.018000   28.785500  -15.634700
  H    -120.349000   27.848500  -17.110500
  C    -121.521000   29.599600  -16.962400
  H    -121.512000   30.635600  -16.838000
  H    -121.985000   29.450400  -17.889100
  C    -122.566000   29.177000  -15.920500
  H    -123.448000   29.788500  -16.251700
  H    -122.834000   28.175700  -16.066700
  H    -122.276000   29.418600  -14.927000
  S    -115.052000   32.384500  -17.096100
  C    -114.995000   34.184300  -17.340000
  C    -116.127000   34.649100  -17.937400
  C    -117.064000   33.612400  -18.239100
  C    -116.646000   32.375400  -17.804000
  H    -116.243000   35.713100  -18.223000
  C    -118.484000   33.901800  -18.729200
  H    -118.591000   35.016000  -18.664800
  H    -119.046000   33.489700  -17.924600
  C    -118.924000   33.376600  -20.140800
  H    -119.510000   34.125700  -20.643100
  H    -119.440000   32.420000  -20.045800
  C    -117.821000   33.140500  -21.169800
  H    -117.086000   32.346200  -20.877400
  H    -117.219000   34.042000  -21.283900
  H    -118.218000   32.849700  -22.184200
  H    -118.402000   27.771700  -18.496700
  H    -114.260000   34.858800  -17.043000

 Total Charge           Charge          ....    0
 Multiplicity           Mult            ....    1
 Number of Electrons    NEL             ....  134
 Basis Dimension        Dim             ....  322

ORBITAL ENERGIES
----------------

  NO   OCC          E(Eh)            E(eV)
   0   2.0000     -88.967654     -2420.9330
   1   2.0000     -88.966450     -2420.9002
   2   2.0000     -10.328879      -281.0631
   3   2.0000     -10.322077      -280.8780
   4   2.0000     -10.315334      -280.6945
   5   2.0000     -10.310106      -280.5523
   6   2.0000     -10.302027      -280.3324
   7   2.0000     -10.300547      -280.2921
   8   2.0000     -10.297015      -280.1960
   9   2.0000     -10.295102      -280.1440
  10   2.0000     -10.293804      -280.1086
  11   2.0000     -10.293353      -280.0964
  12   2.0000     -10.283205      -279.8202
  13   2.0000     -10.277274      -279.6588
  14   2.0000     -10.273983      -279.5693
  15   2.0000     -10.272975      -279.5419
  16   2.0000      -8.081448      -219.9074
  17   2.0000      -8.080986      -219.8948
  18   2.0000      -6.040121      -164.3601
  19   2.0000      -6.039587      -164.3455
  20   2.0000      -6.036231      -164.2542
  21   2.0000      -6.035672      -164.2390
  22   2.0000      -6.031941      -164.1375
  23   2.0000      -6.031497      -164.1254
  24   2.0000      -1.007876       -27.4257
  25   2.0000      -0.982546       -26.7364
  26   2.0000      -0.912453       -24.8291
  27   2.0000      -0.900060       -24.4919
  28   2.0000      -0.875902       -23.8345
  29   2.0000      -0.850529       -23.1441
  30   2.0000      -0.845076       -22.9957
  31   2.0000      -0.819856       -22.3094
  32   2.0000      -0.780363       -21.2348
  33   2.0000      -0.768331       -20.9074
  34   2.0000      -0.712727       -19.3943
  35   2.0000      -0.701035       -19.0761
  36   2.0000      -0.686761       -18.6877
  37   2.0000      -0.663742       -18.0613
  38   2.0000      -0.643731       -17.5168
  39   2.0000      -0.622256       -16.9325
  40   2.0000      -0.578922       -15.7533
  41   2.0000      -0.574729       -15.6392
  42   2.0000      -0.566773       -15.4227
  43   2.0000      -0.562350       -15.3023
  44   2.0000      -0.540440       -14.7061
  45   2.0000      -0.525408       -14.2971
  46   2.0000      -0.518533       -14.1100
  47   2.0000      -0.507859       -13.8195
  48   2.0000      -0.502870       -13.6838
  49   2.0000      -0.497551       -13.5390
  50   2.0000      -0.492174       -13.3927
  51   2.0000      -0.477855       -13.0031
  52   2.0000      -0.468413       -12.7462
  53   2.0000      -0.463686       -12.6175
  54   2.0000      -0.461471       -12.5573
  55   2.0000      -0.449341       -12.2272
  56   2.0000      -0.443561       -12.0699
  57   2.0000      -0.437229       -11.8976
  58   2.0000      -0.432813       -11.7775
  59   2.0000      -0.429592       -11.6898
  60   2.0000      -0.413792       -11.2599
  61   2.0000      -0.413479       -11.2513
  62   2.0000      -0.411001       -11.1839
  63   2.0000      -0.347658        -9.4603
  64   2.0000      -0.332483        -9.0473
  65   2.0000      -0.325034        -8.8446
  66   2.0000      -0.296392        -8.0652
  67   0.0000       0.033139         0.9018
  68   0.0000       0.060209         1.6384
  69   0.0000       0.101058         2.7499
  70   0.0000       0.119835         3.2609
  71   0.0000       0.128734         3.5030

MULLIKEN ATOMIC CHARGES
-----------------------
   0 S :    0.110922
   1 C :   -0.091291
   2 C :   -0.104815
   3 C :    0.053192
   4 C :   -0.152215
   5 H :    0.007861
   6 C :    0.083575
   7 H :    0.039150
   8 H :    0.016129
   9 C :   -0.068143
  10 H :    0.011180
  11 H :    0.016933
  12 C :   -0.047165
  13 H :    0.029666
  14 H :    0.020491
  15 H :    0.032755
  16 S :    0.106268
  17 C :   -0.060169
  18 C :   -0.043977
  19 C :   -0.073965
  20 C :   -0.169260
  21 H :    0.033534
  22 C :    0.098031
  23 H :    0.018624
  24 H :    0.022660
  25 C :   -0.047952
  26 H :    0.028772
  27 H :    0.042740
  28 C :   -0.079886
  29 H :    0.037486
  30 H :    0.021252
  31 H :    0.041178
  32 H :    0.037879
  33 H :    0.028560
Sum of atomic charges:    0.0000000

LOEWDIN ATOMIC CHARGES
----------------------
   0 S :    0.400000
   1 C :   -0.199355
   2 C :   -0.059326
   3 C :   -0.054796
   4 C :   -0.187727
   5 H :    0.025122
   6 C :   -0.026364
   7 H :    0.035448
   8 H :    0.030175
   9 C :   -0.033273
  10 H :    0.013050
  11 H :    0.018198
  12 C :   -0.053508
  13 H :    0.033506
  14 H :    0.013485
  15 H :    0.017327
  16 S :    0.382722
  17 C :   -0.157188
  18 C :   -0.070328
  19 C :   -0.057089
  20 C :   -0.201557
  21 H :    0.039440
  22 C :   -0.029161
  23 H :    0.033918
  24 H :    0.029315
  25 C :   -0.041983
  26 H :    0.026089
  27 H :    0.028915
  28 C :   -0.074043
  29 H :    0.026157
  30 H :    0.019641
  31 H :    0.031020
  32 H :    0.023935
  33 H :    0.018234

  Mayer bond orders larger than 0.100000
B(  0-S ,  1-C ) :   1.1271 B(  0-S ,  4-C ) :   1.1368 B(  1-C ,  2-C ) :   1.6355
B(  1-C , 32-H ) :   0.9649 B(  2-C ,  3-C ) :   1.2243 B(  2-C ,  6-C ) :   1.0350
B(  3-C ,  4-C ) :   1.5830 B(  3-C ,  5-H ) :   0.9950 B(  4-C , 20-C ) :   1.0447
B(  6-C ,  7-H ) :   0.9451 B(  6-C ,  8-H ) :   0.9379 B(  6-C ,  9-C ) :   1.0508
B(  9-C , 10-H ) :   0.9646 B(  9-C , 11-H ) :   0.9584 B(  9-C , 12-C ) :   1.0811
B( 12-C , 13-H ) :   0.9758 B( 12-C , 14-H ) :   0.9774 B( 12-C , 15-H ) :   0.9792
B( 16-S , 17-C ) :   1.1206 B( 16-S , 20-C ) :   1.1300 B( 17-C , 18-C ) :   1.6581
B( 17-C , 33-H ) :   0.9701 B( 18-C , 19-C ) :   1.2306 B( 18-C , 21-H ) :   0.9747
B( 19-C , 20-C ) :   1.6246 B( 19-C , 22-C ) :   1.0258 B( 22-C , 23-H ) :   0.9331
B( 22-C , 24-H ) :   0.9405 B( 22-C , 25-C ) :   1.0498 B( 25-C , 26-H ) :   0.9592
B( 25-C , 27-H ) :   0.9531 B( 25-C , 28-C ) :   1.1070 B( 28-C , 29-H ) :   0.9628
B( 28-C , 30-H ) :   0.9740 B( 28-C , 31-H ) :   0.9744

Dispersion correction           -0.015113954
FINAL SINGLE POINT ENERGY     -1339.866147553409

DIPOLE MOMENT
-------------
                                X             Y             Z
Electronic contribution:     26.49343      -1.34348       3.44700
Nuclear contribution   :    -27.15808       1.55178      -3.28909
                        -----------------------------------------
Total Dipole Moment    :     -0.66465       0.20830       0.15791
                        -----------------------------------------
Magnitude (a.u.)       :      0.71420
Magnitude (Debye)      :      1.81535

Rotational constants in cm-1:     0.019843     0.008431     0.007573
Rotational constants in MHz :   594.890122   252.747153   227.031185

                             ****ORCA TERMINATED NORMALLY****
TOTAL RUN TIME: 0 days 0 hours 0 minutes 21 seconds 219 msec
