                         Program Version 4.2.1 -  RELEASE  -
|  1> ! wB97X-D3 SP def2-SVP
|  2> %pal
|  3> nprocs 24
|  4> end
|  5>
|  6> * xyz 0 1
|  7> S 	 -115.876 	 58.3585 	 -39.7075
|  8> C 	 -116.903 	 58.2272 	 -41.113
|  9> C 	 -118.223 	 58.2309 	 -40.7749
| 10> C 	 -118.391 	 58.3839 	 -39.3426
| 11> C 	 -117.221 	 58.6783 	 -38.6633
| 12> H 	 -119.255 	 58.4788 	 -38.7564
| 13> C 	 -119.292 	 58.2306 	 -41.7462
| 14> H 	 -119.471 	 57.2146 	 -42.1214
| 15> H 	 -118.974 	 58.7729 	 -42.637
| 16> C 	 -120.633 	 59.0501 	 -41.2989
| 17> H 	 -121.322 	 58.7798 	 -42.0776
| 18> H 	 -121.087 	 58.6773 	 -40.3677
| 19> C 	 -120.521 	 60.5817 	 -41.173
| 20> H 	 -120.146 	 61.0623 	 -42.0451
| 21> H 	 -121.478 	 60.9162 	 -40.8131
| 22> H 	 -119.771 	 60.7773 	 -40.3833
| 23> S 	 -117.026 	 60.8864 	 -37.1529
| 24> C 	 -117.382 	 60.7437 	 -35.4696
| 25> C 	 -117.416 	 59.4548 	 -34.9901
| 26> C 	 -117.357 	 58.5569 	 -36.0976
| 27> C 	 -117.082 	 59.1942 	 -37.3027
| 28> H 	 -117.552 	 59.3088 	 -33.9387
| 29> C 	 -117.348 	 57.0654 	 -35.8257
| 30> H 	 -117.518 	 56.5084 	 -36.7366
| 31> H 	 -118.205 	 56.7275 	 -35.2499
| 32> C 	 -116.039 	 56.6084 	 -35.1602
| 33> H 	 -115.93 	 57.19 	 -34.2472
| 34> H 	 -115.199 	 56.972 	 -35.766
| 35> C 	 -115.95 	 55.148 	 -34.9947
| 36> H 	 -115.025 	 54.9384 	 -34.456
| 37> H 	 -115.902 	 54.6453 	 -35.9689
| 38> H 	 -116.752 	 54.6061 	 -34.5323
| 39> H 	 -116.488 	 58.3278 	 -42.0861
| 40> H 	 -117.509 	 61.6593 	 -34.8615
| 41> *
| 42>
| 43>                          ****END OF INPUT****

CARTESIAN COORDINATES (ANGSTROEM)
---------------------------------
  S    -115.876000   58.358500  -39.707500
  C    -116.903000   58.227200  -41.113000
  C    -118.223000   58.230900  -40.774900
  C    -118.391000   58.383900  -39.342600
  C    -117.221000   58.678300  -38.663300
  H    -119.255000   58.478800  -38.756400
  C    -119.292000   58.230600  -41.746200
  H    -119.471000   57.214600  -42.121400
  H    -118.974000   58.772900  -42.637000
  C    -120.633000   59.050100  -41.298900
  H    -121.322000   58.779800  -42.077600
  H    -121.087000   58.677300  -40.367700
  C    -120.521000   60.581700  -41.173000
  H    -120.146000   61.062300  -42.045100
  H    -121.478000   60.916200  -40.813100
  H    -119.771000   60.777300  -40.383300
  S    -117.026000   60.886400  -37.152900
  C    -117.382000   60.743700  -35.469600
  C    -117.416000   59.454800  -34.990100
  C    -117.357000   58.556900  -36.097600
  C    -117.082000   59.194200  -37.302700
  H    -117.552000   59.308800  -33.938700
  C    -117.348000   57.065400  -35.825700
  H    -117.518000   56.508400  -36.736600
  H    -118.205000   56.727500  -35.249900
  C    -116.039000   56.608400  -35.160200
  H    -115.930000   57.190000  -34.247200
  H    -115.199000   56.972000  -35.766000
  C    -115.950000   55.148000  -34.994700
  H    -115.025000   54.938400  -34.456000
  H    -115.902000   54.645300  -35.968900
  H    -116.752000   54.606100  -34.532300
  H    -116.488000   58.327800  -42.086100
  H    -117.509000   61.659300  -34.861500

 Total Charge           Charge          ....    0
 Multiplicity           Mult            ....    1
 Number of Electrons    NEL             ....  134
 Basis Dimension        Dim             ....  322

ORBITAL ENERGIES
----------------

  NO   OCC          E(Eh)            E(eV)
   0   2.0000     -88.966379     -2420.8982
   1   2.0000     -88.956166     -2420.6203
   2   2.0000     -10.322945      -280.9016
   3   2.0000     -10.319393      -280.8050
   4   2.0000     -10.317095      -280.7424
   5   2.0000     -10.303891      -280.3831
   6   2.0000     -10.303653      -280.3767
   7   2.0000     -10.295655      -280.1590
   8   2.0000     -10.293104      -280.0896
   9   2.0000     -10.291909      -280.0571
  10   2.0000     -10.290051      -280.0065
  11   2.0000     -10.287979      -279.9501
  12   2.0000     -10.284073      -279.8438
  13   2.0000     -10.280245      -279.7397
  14   2.0000     -10.274657      -279.5876
  15   2.0000     -10.271091      -279.4906
  16   2.0000      -8.082689      -219.9411
  17   2.0000      -8.071768      -219.6440
  18   2.0000      -6.040944      -164.3824
  19   2.0000      -6.037013      -164.2755
  20   2.0000      -6.033577      -164.1820
  21   2.0000      -6.030185      -164.0897
  22   2.0000      -6.026159      -163.9801
  23   2.0000      -6.022592      -163.8831
  24   2.0000      -1.012501       -27.5516
  25   2.0000      -0.988281       -26.8925
  26   2.0000      -0.913398       -24.8548
  27   2.0000      -0.906434       -24.6653
  28   2.0000      -0.870065       -23.6757
  29   2.0000      -0.855786       -23.2871
  30   2.0000      -0.843693       -22.9580
  31   2.0000      -0.817785       -22.2531
  32   2.0000      -0.782999       -21.3065
  33   2.0000      -0.768718       -20.9179
  34   2.0000      -0.707344       -19.2478
  35   2.0000      -0.699416       -19.0321
  36   2.0000      -0.687646       -18.7118
  37   2.0000      -0.662354       -18.0236
  38   2.0000      -0.646115       -17.5817
  39   2.0000      -0.619946       -16.8696
  40   2.0000      -0.601632       -16.3712
  41   2.0000      -0.569543       -15.4980
  42   2.0000      -0.557186       -15.1618
  43   2.0000      -0.552335       -15.0298
  44   2.0000      -0.531025       -14.4499
  45   2.0000      -0.527138       -14.3442
  46   2.0000      -0.519660       -14.1407
  47   2.0000      -0.515029       -14.0147
  48   2.0000      -0.511144       -13.9089
  49   2.0000      -0.501595       -13.6491
  50   2.0000      -0.491122       -13.3641
  51   2.0000      -0.478835       -13.0298
  52   2.0000      -0.469502       -12.7758
  53   2.0000      -0.465107       -12.6562
  54   2.0000      -0.461039       -12.5455
  55   2.0000      -0.446741       -12.1564
  56   2.0000      -0.440843       -11.9959
  57   2.0000      -0.438383       -11.9290
  58   2.0000      -0.433724       -11.8022
  59   2.0000      -0.425282       -11.5725
  60   2.0000      -0.424426       -11.5492
  61   2.0000      -0.409112       -11.1325
  62   2.0000      -0.403436       -10.9781
  63   2.0000      -0.340581        -9.2677
  64   2.0000      -0.321937        -8.7603
  65   2.0000      -0.318533        -8.6677
  66   2.0000      -0.307711        -8.3733
  67   0.0000       0.045817         1.2467
  68   0.0000       0.059172         1.6102
  69   0.0000       0.116653         3.1743
  70   0.0000       0.123579         3.3627
  71   0.0000       0.131562         3.5800

MULLIKEN ATOMIC CHARGES
-----------------------
   0 S :    0.095070
   1 C :   -0.119527
   2 C :   -0.065636
   3 C :    0.081101
   4 C :   -0.198432
   5 H :   -0.013103
   6 C :    0.049472
   7 H :    0.047013
   8 H :    0.020131
   9 C :   -0.110774
  10 H :    0.023308
  11 H :    0.033184
  12 C :   -0.020494
  13 H :    0.029127
  14 H :    0.036888
  15 H :    0.034895
  16 S :    0.132903
  17 C :   -0.118979
  18 C :   -0.017849
  19 C :   -0.031328
  20 C :   -0.155644
  21 H :    0.021251
  22 C :    0.072396
  23 H :    0.009574
  24 H :    0.015687
  25 C :   -0.068490
  26 H :    0.018150
  27 H :    0.029078
  28 C :   -0.013962
  29 H :    0.033877
  30 H :    0.026848
  31 H :    0.020709
  32 H :    0.039601
  33 H :    0.063956
Sum of atomic charges:    0.0000000

LOEWDIN ATOMIC CHARGES
----------------------
   0 S :    0.398943
   1 C :   -0.192797
   2 C :   -0.068395
   3 C :   -0.056069
   4 C :   -0.201015
   5 H :    0.021204
   6 C :   -0.036060
   7 H :    0.038242
   8 H :    0.033058
   9 C :   -0.037349
  10 H :    0.018938
  11 H :    0.021749
  12 C :   -0.059560
  13 H :    0.019859
  14 H :    0.028365
  15 H :    0.030163
  16 S :    0.445611
  17 C :   -0.187046
  18 C :   -0.070673
  19 C :   -0.044950
  20 C :   -0.231418
  21 H :    0.033726
  22 C :   -0.033652
  23 H :    0.025010
  24 H :    0.027284
  25 C :   -0.039867
  26 H :    0.020254
  27 H :    0.030542
  28 C :   -0.066801
  29 H :    0.030781
  30 H :    0.029910
  31 H :    0.021126
  32 H :    0.020996
  33 H :    0.029892

  Mayer bond orders larger than 0.100000
B(  0-S ,  1-C ) :   1.1338 B(  0-S ,  4-C ) :   1.1569 B(  1-C ,  2-C ) :   1.6163
B(  1-C , 32-H ) :   0.9773 B(  2-C ,  3-C ) :   1.2014 B(  2-C ,  6-C ) :   1.0383
B(  3-C ,  4-C ) :   1.6031 B(  3-C ,  5-H ) :   1.0023 B(  4-C , 20-C ) :   0.9906
B(  6-C ,  7-H ) :   0.9304 B(  6-C ,  8-H ) :   0.9428 B(  6-C ,  9-C ) :   1.0595
B(  9-C , 10-H ) :   0.9582 B(  9-C , 11-H ) :   0.9576 B(  9-C , 12-C ) :   1.0747
B( 12-C , 13-H ) :   0.9751 B( 12-C , 14-H ) :   0.9723 B( 12-C , 15-H ) :   0.9733
B( 16-S , 17-C ) :   1.1860 B( 16-S , 20-C ) :   1.1567 B( 17-C , 18-C ) :   1.5960
B( 17-C , 33-H ) :   0.9620 B( 18-C , 19-C ) :   1.2230 B( 18-C , 21-H ) :   0.9989
B( 19-C , 20-C ) :   1.6004 B( 19-C , 22-C ) :   1.0589 B( 22-C , 23-H ) :   0.9315
B( 22-C , 24-H ) :   0.9304 B( 22-C , 25-C ) :   1.0592 B( 25-C , 26-H ) :   0.9540
B( 25-C , 27-H ) :   0.9480 B( 25-C , 28-C ) :   1.0935 B( 28-C , 29-H ) :   0.9688
B( 28-C , 30-H ) :   0.9685 B( 28-C , 31-H ) :   0.9725

Dispersion correction           -0.014637143
FINAL SINGLE POINT ENERGY     -1339.874199729828

DIPOLE MOMENT
-------------
                                X             Y             Z
Electronic contribution:     11.23928      10.63429      -0.65987
Nuclear contribution   :    -11.69396     -10.69260       0.80446
                        -----------------------------------------
Total Dipole Moment    :     -0.45468      -0.05830       0.14459
                        -----------------------------------------
Magnitude (a.u.)       :      0.48067
Magnitude (Debye)      :      1.22176

Rotational constants in cm-1:     0.019228     0.008581     0.007362
Rotational constants in MHz :   576.427967   257.262317   220.699939

                             ****ORCA TERMINATED NORMALLY****
TOTAL RUN TIME: 0 days 0 hours 0 minutes 21 seconds 822 msec
