                         Program Version 4.2.1 -  RELEASE  -
|  1> ! wB97X-D3 SP def2-SVP
|  2> %pal
|  3> nprocs 24
|  4> end
|  5>
|  6> * xyz 0 1
|  7> S 	 -85.2847 	 -45.6922 	 -74.8075
|  8> C 	 -83.8886 	 -45.8631 	 -73.8226
|  9> C 	 -84.1901 	 -45.8095 	 -72.4893
| 10> C 	 -85.5396 	 -45.6249 	 -72.2533
| 11> C 	 -86.3253 	 -45.4836 	 -73.4059
| 12> H 	 -85.9792 	 -45.5618 	 -71.2527
| 13> C 	 -83.1924 	 -46.1182 	 -71.3555
| 14> H 	 -82.8719 	 -45.1637 	 -70.9206
| 15> H 	 -82.3539 	 -46.4896 	 -71.8483
| 16> C 	 -83.5379 	 -47.3151 	 -70.4655
| 17> H 	 -82.763 	 -47.4839 	 -69.7227
| 18> H 	 -84.333 	 -46.923 	 -69.86
| 19> C 	 -83.9471 	 -48.6384 	 -71.1536
| 20> H 	 -84.763 	 -48.3316 	 -71.8007
| 21> H 	 -83.1702 	 -49.0722 	 -71.821
| 22> H 	 -84.3349 	 -49.3183 	 -70.4298
| 23> S 	 -88.1946 	 -43.5065 	 -73.1188
| 24> C 	 -89.861 	 -43.7718 	 -73.4734
| 25> C 	 -90.0273 	 -45.0571 	 -73.9046
| 26> C 	 -88.8019 	 -45.8308 	 -73.9082
| 27> C 	 -87.7044 	 -45.1585 	 -73.4395
| 28> H 	 -91.0297 	 -45.401 	 -74.1429
| 29> C 	 -88.7977 	 -47.2946 	 -74.2304
| 30> H 	 -89.871 	 -47.4798 	 -74.1937
| 31> H 	 -88.3329 	 -47.8088 	 -73.3792
| 32> C 	 -88.2052 	 -47.6951 	 -75.5053
| 33> H 	 -88.1596 	 -48.7844 	 -75.2582
| 34> H 	 -87.1708 	 -47.3814 	 -75.8533
| 35> C 	 -89.1871 	 -47.701 	 -76.6671
| 36> H 	 -90.1105 	 -48.1519 	 -76.4442
| 37> H 	 -88.7452 	 -48.3795 	 -77.3555
| 38> H 	 -89.3852 	 -46.7764 	 -77.1485
| 39> H 	 -82.8758 	 -46.1809 	 -74.0905
| 40> H 	 -90.7839 	 -43.1758 	 -73.338
| 41> *
| 42>
| 43>                          ****END OF INPUT****

CARTESIAN COORDINATES (ANGSTROEM)
---------------------------------
  S    -85.284700  -45.692200  -74.807500
  C    -83.888600  -45.863100  -73.822600
  C    -84.190100  -45.809500  -72.489300
  C    -85.539600  -45.624900  -72.253300
  C    -86.325300  -45.483600  -73.405900
  H    -85.979200  -45.561800  -71.252700
  C    -83.192400  -46.118200  -71.355500
  H    -82.871900  -45.163700  -70.920600
  H    -82.353900  -46.489600  -71.848300
  C    -83.537900  -47.315100  -70.465500
  H    -82.763000  -47.483900  -69.722700
  H    -84.333000  -46.923000  -69.860000
  C    -83.947100  -48.638400  -71.153600
  H    -84.763000  -48.331600  -71.800700
  H    -83.170200  -49.072200  -71.821000
  H    -84.334900  -49.318300  -70.429800
  S    -88.194600  -43.506500  -73.118800
  C    -89.861000  -43.771800  -73.473400
  C    -90.027300  -45.057100  -73.904600
  C    -88.801900  -45.830800  -73.908200
  C    -87.704400  -45.158500  -73.439500
  H    -91.029700  -45.401000  -74.142900
  C    -88.797700  -47.294600  -74.230400
  H    -89.871000  -47.479800  -74.193700
  H    -88.332900  -47.808800  -73.379200
  C    -88.205200  -47.695100  -75.505300
  H    -88.159600  -48.784400  -75.258200
  H    -87.170800  -47.381400  -75.853300
  C    -89.187100  -47.701000  -76.667100
  H    -90.110500  -48.151900  -76.444200
  H    -88.745200  -48.379500  -77.355500
  H    -89.385200  -46.776400  -77.148500
  H    -82.875800  -46.180900  -74.090500
  H    -90.783900  -43.175800  -73.338000

 Total Charge           Charge          ....    0
 Multiplicity           Mult            ....    1
 Number of Electrons    NEL             ....  134
 Basis Dimension        Dim             ....  322

ORBITAL ENERGIES
----------------

  NO   OCC          E(Eh)            E(eV)
   0   2.0000     -88.972214     -2421.0570
   1   2.0000     -88.959793     -2420.7190
   2   2.0000     -10.328189      -281.0443
   3   2.0000     -10.316960      -280.7387
   4   2.0000     -10.314914      -280.6831
   5   2.0000     -10.312277      -280.6113
   6   2.0000     -10.294964      -280.1402
   7   2.0000     -10.293161      -280.0911
   8   2.0000     -10.292568      -280.0750
   9   2.0000     -10.289438      -279.9898
  10   2.0000     -10.287529      -279.9379
  11   2.0000     -10.285602      -279.8855
  12   2.0000     -10.282700      -279.8065
  13   2.0000     -10.281538      -279.7749
  14   2.0000     -10.278979      -279.7052
  15   2.0000     -10.261518      -279.2301
  16   2.0000      -8.086452      -220.0435
  17   2.0000      -8.074968      -219.7310
  18   2.0000      -6.044897      -164.4900
  19   2.0000      -6.040901      -164.3813
  20   2.0000      -6.037412      -164.2863
  21   2.0000      -6.033626      -164.1833
  22   2.0000      -6.029197      -164.0628
  23   2.0000      -6.025721      -163.9682
  24   2.0000      -1.012052       -27.5393
  25   2.0000      -0.990151       -26.9434
  26   2.0000      -0.919067       -25.0091
  27   2.0000      -0.913266       -24.8512
  28   2.0000      -0.875572       -23.8255
  29   2.0000      -0.849329       -23.1114
  30   2.0000      -0.847592       -23.0642
  31   2.0000      -0.816532       -22.2190
  32   2.0000      -0.788429       -21.4543
  33   2.0000      -0.776374       -21.1262
  34   2.0000      -0.717787       -19.5320
  35   2.0000      -0.696249       -18.9459
  36   2.0000      -0.689632       -18.7658
  37   2.0000      -0.660313       -17.9680
  38   2.0000      -0.635453       -17.2915
  39   2.0000      -0.622302       -16.9337
  40   2.0000      -0.592108       -16.1121
  41   2.0000      -0.571004       -15.5378
  42   2.0000      -0.561350       -15.2751
  43   2.0000      -0.554076       -15.0772
  44   2.0000      -0.543500       -14.7894
  45   2.0000      -0.539922       -14.6920
  46   2.0000      -0.524199       -14.2642
  47   2.0000      -0.512699       -13.9512
  48   2.0000      -0.504299       -13.7227
  49   2.0000      -0.492493       -13.4014
  50   2.0000      -0.487299       -13.2601
  51   2.0000      -0.482229       -13.1221
  52   2.0000      -0.475962       -12.9516
  53   2.0000      -0.471883       -12.8406
  54   2.0000      -0.460432       -12.5290
  55   2.0000      -0.456453       -12.4207
  56   2.0000      -0.445181       -12.1140
  57   2.0000      -0.440958       -11.9991
  58   2.0000      -0.433570       -11.7981
  59   2.0000      -0.417180       -11.3520
  60   2.0000      -0.411386       -11.1944
  61   2.0000      -0.407736       -11.0951
  62   2.0000      -0.391757       -10.6603
  63   2.0000      -0.338885        -9.2215
  64   2.0000      -0.333153        -9.0656
  65   2.0000      -0.322804        -8.7839
  66   2.0000      -0.305721        -8.3191
  67   0.0000       0.033450         0.9102
  68   0.0000       0.061727         1.6797
  69   0.0000       0.117142         3.1876
  70   0.0000       0.126802         3.4505
  71   0.0000       0.131178         3.5695

MULLIKEN ATOMIC CHARGES
-----------------------
   0 S :    0.140876
   1 C :   -0.111151
   2 C :   -0.135403
   3 C :    0.022243
   4 C :   -0.167515
   5 H :    0.019448
   6 C :    0.123004
   7 H :    0.048341
   8 H :   -0.018048
   9 C :   -0.092811
  10 H :    0.027648
  11 H :    0.016879
  12 C :   -0.032981
  13 H :    0.037308
  14 H :    0.040520
  15 H :    0.038785
  16 S :    0.111013
  17 C :   -0.084346
  18 C :   -0.058778
  19 C :   -0.053742
  20 C :   -0.165760
  21 H :    0.015561
  22 C :    0.090785
  23 H :    0.007873
  24 H :    0.035999
  25 C :   -0.095436
  26 H :    0.025248
  27 H :    0.053771
  28 C :   -0.001508
  29 H :    0.002307
  30 H :    0.017533
  31 H :    0.030943
  32 H :    0.046475
  33 H :    0.064919
Sum of atomic charges:    0.0000000

LOEWDIN ATOMIC CHARGES
----------------------
   0 S :    0.442087
   1 C :   -0.209710
   2 C :   -0.076648
   3 C :   -0.055095
   4 C :   -0.201784
   5 H :    0.035144
   6 C :   -0.027376
   7 H :    0.038366
   8 H :    0.016251
   9 C :   -0.041688
  10 H :    0.023517
  11 H :    0.017370
  12 C :   -0.060198
  13 H :    0.029143
  14 H :    0.029758
  15 H :    0.026854
  16 S :    0.416129
  17 C :   -0.200444
  18 C :   -0.084635
  19 C :   -0.055028
  20 C :   -0.211703
  21 H :    0.029117
  22 C :   -0.036873
  23 H :    0.032837
  24 H :    0.035142
  25 C :   -0.052845
  26 H :    0.035586
  27 H :    0.024394
  28 C :   -0.056809
  29 H :    0.016219
  30 H :    0.025322
  31 H :    0.018400
  32 H :    0.033865
  33 H :    0.045335

  Mayer bond orders larger than 0.100000
B(  0-S ,  1-C ) :   1.1651 B(  0-S ,  4-C ) :   1.1470 B(  1-C ,  2-C ) :   1.5946
B(  1-C ,  4-C ) :   0.1048 B(  1-C , 32-H ) :   0.9527 B(  2-C ,  3-C ) :   1.2852
B(  2-C ,  6-C ) :   1.0077 B(  3-C ,  4-C ) :   1.5292 B(  3-C ,  5-H ) :   0.9961
B(  4-C , 20-C ) :   1.0735 B(  6-C ,  7-H ) :   0.9392 B(  6-C ,  8-H ) :   0.9319
B(  6-C ,  9-C ) :   1.0582 B(  9-C , 10-H ) :   0.9560 B(  9-C , 11-H ) :   0.9549
B(  9-C , 12-C ) :   1.0719 B( 12-C , 13-H ) :   0.9706 B( 12-C , 14-H ) :   0.9756
B( 12-C , 15-H ) :   0.9722 B( 16-S , 17-C ) :   1.1636 B( 16-S , 20-C ) :   1.1216
B( 17-C , 18-C ) :   1.6190 B( 17-C , 33-H ) :   0.9569 B( 18-C , 19-C ) :   1.2447
B( 18-C , 21-H ) :   0.9856 B( 19-C , 20-C ) :   1.5988 B( 19-C , 22-C ) :   1.0265
B( 22-C , 23-H ) :   0.9275 B( 22-C , 24-H ) :   0.9376 B( 22-C , 25-C ) :   1.0688
B( 25-C , 26-H ) :   0.9495 B( 25-C , 27-H ) :   0.9503 B( 25-C , 28-C ) :   1.0850
B( 28-C , 29-H ) :   0.9690 B( 28-C , 30-H ) :   0.9726 B( 28-C , 31-H ) :   0.9758

Dispersion correction           -0.015174600
FINAL SINGLE POINT ENERGY     -1339.856292533097

DIPOLE MOMENT
-------------
                                X             Y             Z
Electronic contribution:     -2.83675      20.16312      -3.02689
Nuclear contribution   :      2.79759     -20.69348       3.26468
                        -----------------------------------------
Total Dipole Moment    :     -0.03917      -0.53037       0.23779
                        -----------------------------------------
Magnitude (a.u.)       :      0.58255
Magnitude (Debye)      :      1.48073

Rotational constants in cm-1:     0.020213     0.008868     0.007633
Rotational constants in MHz :   605.971490   265.860947   228.841685

                             ****ORCA TERMINATED NORMALLY****
TOTAL RUN TIME: 0 days 0 hours 0 minutes 21 seconds 194 msec
