                         Program Version 4.2.1 -  RELEASE  -
|  1> ! wB97X-D3 SP def2-SVP
|  2> %pal
|  3> nprocs 24
|  4> end
|  5>
|  6> * xyz 0 1
|  7> S 	 36.7857 	 -5.95058 	 -108.879
|  8> C 	 38.0205 	 -5.62371 	 -110.081
|  9> C 	 37.4437 	 -5.33712 	 -111.327
| 10> C 	 36.0629 	 -5.25383 	 -111.319
| 11> C 	 35.559 	 -5.52418 	 -110.072
| 12> H 	 35.362 	 -5.03795 	 -112.111
| 13> C 	 38.2769 	 -5.05139 	 -112.582
| 14> H 	 39.3428 	 -5.14773 	 -112.319
| 15> H 	 38.4626 	 -3.94678 	 -112.886
| 16> C 	 37.819 	 -5.97263 	 -113.685
| 17> H 	 37.8304 	 -7.01337 	 -113.318
| 18> H 	 36.8403 	 -5.8044 	 -114.044
| 19> C 	 38.6082 	 -5.84444 	 -115.018
| 20> H 	 39.6825 	 -6.16167 	 -114.878
| 21> H 	 38.0907 	 -6.46088 	 -115.768
| 22> H 	 38.5804 	 -4.8408 	 -115.467
| 23> S 	 33.4902 	 -7.30518 	 -109.67
| 24> C 	 31.991 	 -6.78227 	 -109.046
| 25> C 	 31.9954 	 -5.46377 	 -108.831
| 26> C 	 33.181 	 -4.79422 	 -109.204
| 27> C 	 34.1444 	 -5.64578 	 -109.724
| 28> H 	 31.1602 	 -5.14373 	 -108.329
| 29> C 	 33.4059 	 -3.32102 	 -108.871
| 30> H 	 32.5436 	 -2.69448 	 -108.894
| 31> H 	 33.9867 	 -2.92257 	 -109.737
| 32> C 	 34.0523 	 -3.04174 	 -107.482
| 33> H 	 34.1846 	 -1.9929 	 -107.353
| 34> H 	 35.0981 	 -3.46881 	 -107.418
| 35> C 	 33.0491 	 -3.52913 	 -106.428
| 36> H 	 32.8439 	 -4.54544 	 -106.446
| 37> H 	 32.0595 	 -3.05976 	 -106.466
| 38> H 	 33.5209 	 -3.53454 	 -105.424
| 39> H 	 39.0601 	 -5.57411 	 -109.859
| 40> H 	 31.1406 	 -7.34052 	 -108.896
| 41> *
| 42>
| 43>                          ****END OF INPUT****

CARTESIAN COORDINATES (ANGSTROEM)
---------------------------------
  S     36.785700   -5.950580  -108.879000
  C     38.020500   -5.623710  -110.081000
  C     37.443700   -5.337120  -111.327000
  C     36.062900   -5.253830  -111.319000
  C     35.559000   -5.524180  -110.072000
  H     35.362000   -5.037950  -112.111000
  C     38.276900   -5.051390  -112.582000
  H     39.342800   -5.147730  -112.319000
  H     38.462600   -3.946780  -112.886000
  C     37.819000   -5.972630  -113.685000
  H     37.830400   -7.013370  -113.318000
  H     36.840300   -5.804400  -114.044000
  C     38.608200   -5.844440  -115.018000
  H     39.682500   -6.161670  -114.878000
  H     38.090700   -6.460880  -115.768000
  H     38.580400   -4.840800  -115.467000
  S     33.490200   -7.305180  -109.670000
  C     31.991000   -6.782270  -109.046000
  C     31.995400   -5.463770  -108.831000
  C     33.181000   -4.794220  -109.204000
  C     34.144400   -5.645780  -109.724000
  H     31.160200   -5.143730  -108.329000
  C     33.405900   -3.321020  -108.871000
  H     32.543600   -2.694480  -108.894000
  H     33.986700   -2.922570  -109.737000
  C     34.052300   -3.041740  -107.482000
  H     34.184600   -1.992900  -107.353000
  H     35.098100   -3.468810  -107.418000
  C     33.049100   -3.529130  -106.428000
  H     32.843900   -4.545440  -106.446000
  H     32.059500   -3.059760  -106.466000
  H     33.520900   -3.534540  -105.424000
  H     39.060100   -5.574110  -109.859000
  H     31.140600   -7.340520  -108.896000

 Total Charge           Charge          ....    0
 Multiplicity           Mult            ....    1
 Number of Electrons    NEL             ....  134
 Basis Dimension        Dim             ....  322

ORBITAL ENERGIES
----------------

  NO   OCC          E(Eh)            E(eV)
   0   2.0000     -88.969972     -2420.9960
   1   2.0000     -88.957906     -2420.6677
   2   2.0000     -10.328030      -281.0400
   3   2.0000     -10.324407      -280.9414
   4   2.0000     -10.315611      -280.7020
   5   2.0000     -10.302546      -280.3465
   6   2.0000     -10.301782      -280.3257
   7   2.0000     -10.301626      -280.3215
   8   2.0000     -10.298063      -280.2245
   9   2.0000     -10.291664      -280.0504
  10   2.0000     -10.287385      -279.9340
  11   2.0000     -10.286584      -279.9122
  12   2.0000     -10.284745      -279.8621
  13   2.0000     -10.283333      -279.8237
  14   2.0000     -10.276291      -279.6321
  15   2.0000     -10.269360      -279.4435
  16   2.0000      -8.084200      -219.9823
  17   2.0000      -8.073362      -219.6874
  18   2.0000      -6.042585      -164.4271
  19   2.0000      -6.038787      -164.3238
  20   2.0000      -6.035092      -164.2232
  21   2.0000      -6.031791      -164.1334
  22   2.0000      -6.027695      -164.0219
  23   2.0000      -6.024230      -163.9276
  24   2.0000      -1.008846       -27.4521
  25   2.0000      -0.988913       -26.9097
  26   2.0000      -0.910503       -24.7760
  27   2.0000      -0.904734       -24.6191
  28   2.0000      -0.870946       -23.6997
  29   2.0000      -0.852089       -23.1865
  30   2.0000      -0.842587       -22.9280
  31   2.0000      -0.819068       -22.2880
  32   2.0000      -0.781608       -21.2686
  33   2.0000      -0.769638       -20.9429
  34   2.0000      -0.713966       -19.4280
  35   2.0000      -0.697929       -18.9916
  36   2.0000      -0.690813       -18.7980
  37   2.0000      -0.660364       -17.9694
  38   2.0000      -0.650315       -17.6960
  39   2.0000      -0.624277       -16.9874
  40   2.0000      -0.593805       -16.1583
  41   2.0000      -0.572141       -15.5687
  42   2.0000      -0.559222       -15.2172
  43   2.0000      -0.553567       -15.0633
  44   2.0000      -0.539581       -14.6828
  45   2.0000      -0.528911       -14.3924
  46   2.0000      -0.519574       -14.1383
  47   2.0000      -0.509361       -13.8604
  48   2.0000      -0.505091       -13.7442
  49   2.0000      -0.495568       -13.4851
  50   2.0000      -0.483415       -13.1544
  51   2.0000      -0.481922       -13.1138
  52   2.0000      -0.476662       -12.9706
  53   2.0000      -0.461304       -12.5527
  54   2.0000      -0.454763       -12.3747
  55   2.0000      -0.453825       -12.3492
  56   2.0000      -0.441899       -12.0247
  57   2.0000      -0.431603       -11.7445
  58   2.0000      -0.423568       -11.5259
  59   2.0000      -0.419452       -11.4139
  60   2.0000      -0.418611       -11.3910
  61   2.0000      -0.414996       -11.2926
  62   2.0000      -0.407197       -11.0804
  63   2.0000      -0.342438        -9.3182
  64   2.0000      -0.328314        -8.9339
  65   2.0000      -0.323053        -8.7907
  66   2.0000      -0.306580        -8.3425
  67   0.0000       0.042530         1.1573
  68   0.0000       0.052270         1.4223
  69   0.0000       0.118094         3.2135
  70   0.0000       0.126482         3.4418
  71   0.0000       0.134442         3.6583

MULLIKEN ATOMIC CHARGES
-----------------------
   0 S :    0.126534
   1 C :   -0.115292
   2 C :   -0.055278
   3 C :    0.052308
   4 C :   -0.173316
   5 H :    0.020061
   6 C :    0.060049
   7 H :    0.001528
   8 H :    0.040800
   9 C :   -0.086449
  10 H :    0.043919
  11 H :    0.025546
  12 C :   -0.069330
  13 H :    0.041761
  14 H :    0.033806
  15 H :    0.032618
  16 S :    0.098210
  17 C :   -0.047639
  18 C :   -0.026890
  19 C :    0.005797
  20 C :   -0.199232
  21 H :   -0.020501
  22 C :    0.062402
  23 H :    0.008934
  24 H :    0.026840
  25 C :   -0.038898
  26 H :    0.026213
  27 H :    0.038685
  28 C :   -0.054109
  29 H :    0.020179
  30 H :    0.031853
  31 H :    0.027549
  32 H :    0.040989
  33 H :    0.020353
Sum of atomic charges:   -0.0000000

LOEWDIN ATOMIC CHARGES
----------------------
   0 S :    0.409555
   1 C :   -0.190813
   2 C :   -0.061620
   3 C :   -0.051421
   4 C :   -0.190846
   5 H :    0.039275
   6 C :   -0.046352
   7 H :    0.027472
   8 H :    0.040171
   9 C :   -0.043509
  10 H :    0.033360
  11 H :    0.019303
  12 C :   -0.070304
  13 H :    0.027275
  14 H :    0.027403
  15 H :    0.024709
  16 S :    0.403622
  17 C :   -0.178236
  18 C :   -0.072965
  19 C :   -0.049547
  20 C :   -0.195549
  21 H :    0.018318
  22 C :   -0.034969
  23 H :    0.023072
  24 H :    0.033082
  25 C :   -0.032864
  26 H :    0.020310
  27 H :    0.028579
  28 C :   -0.071489
  29 H :    0.016485
  30 H :    0.027463
  31 H :    0.032175
  32 H :    0.022032
  33 H :    0.016822

  Mayer bond orders larger than 0.100000
B(  0-S ,  1-C ) :   1.1445 B(  0-S ,  4-C ) :   1.1600 B(  1-C ,  2-C ) :   1.5925
B(  1-C ,  4-C ) :   0.1063 B(  1-C , 32-H ) :   0.9730 B(  2-C ,  3-C ) :   1.2375
B(  2-C ,  6-C ) :   1.0228 B(  3-C ,  4-C ) :   1.5890 B(  3-C ,  5-H ) :   0.9968
B(  4-C , 20-C ) :   1.0096 B(  6-C ,  7-H ) :   0.9352 B(  6-C ,  8-H ) :   0.9392
B(  6-C ,  9-C ) :   1.0487 B(  9-C , 10-H ) :   0.9553 B(  9-C , 11-H ) :   0.9569
B(  9-C , 12-C ) :   1.0851 B( 12-C , 13-H ) :   0.9757 B( 12-C , 14-H ) :   0.9757
B( 12-C , 15-H ) :   0.9734 B( 16-S , 17-C ) :   1.1572 B( 16-S , 20-C ) :   1.1459
B( 17-C , 18-C ) :   1.6292 B( 17-C , 33-H ) :   0.9699 B( 18-C , 19-C ) :   1.2208
B( 18-C , 21-H ) :   1.0070 B( 19-C , 20-C ) :   1.6023 B( 19-C , 22-C ) :   1.0452
B( 22-C , 23-H ) :   0.9401 B( 22-C , 24-H ) :   0.9289 B( 22-C , 25-C ) :   1.0705
B( 25-C , 26-H ) :   0.9562 B( 25-C , 27-H ) :   0.9543 B( 25-C , 28-C ) :   1.0697
B( 28-C , 29-H ) :   0.9700 B( 28-C , 30-H ) :   0.9733 B( 28-C , 31-H ) :   0.9664

Dispersion correction           -0.014706060
FINAL SINGLE POINT ENERGY     -1339.860397813858

DIPOLE MOMENT
-------------
                                X             Y             Z
Electronic contribution:     -5.01822     -12.35303       8.42388
Nuclear contribution   :      5.00561      12.68740      -8.57338
                        -----------------------------------------
Total Dipole Moment    :     -0.01260       0.33437      -0.14950
                        -----------------------------------------
Magnitude (a.u.)       :      0.36648
Magnitude (Debye)      :      0.93152

Rotational constants in cm-1:     0.023846     0.007445     0.006755
Rotational constants in MHz :   714.896445   223.208469   202.497944

                             ****ORCA TERMINATED NORMALLY****
TOTAL RUN TIME: 0 days 0 hours 0 minutes 21 seconds 639 msec
