                         Program Version 4.2.1 -  RELEASE  -
|  1> ! wB97X-D3 SP def2-SVP
|  2> %pal
|  3> nprocs 24
|  4> end
|  5>
|  6> * xyz 0 1
|  7> S 	 -111.49 	 59.9182 	 -24.8026
|  8> C 	 -111.702 	 60.8948 	 -23.3543
|  9> C 	 -113.03 	 61.0423 	 -22.9758
| 10> C 	 -113.906 	 60.3893 	 -23.9491
| 11> C 	 -113.255 	 59.6077 	 -24.87
| 12> H 	 -114.978 	 60.1867 	 -23.9174
| 13> C 	 -113.477 	 62.0677 	 -22.016
| 14> H 	 -113.017 	 61.914 	 -21.0162
| 15> H 	 -114.51 	 61.7228 	 -21.8541
| 16> C 	 -113.376 	 63.4709 	 -22.5078
| 17> H 	 -112.385 	 63.7717 	 -22.769
| 18> H 	 -113.933 	 63.5442 	 -23.3988
| 19> C 	 -114.017 	 64.4164 	 -21.4322
| 20> H 	 -113.758 	 65.4238 	 -21.5928
| 21> H 	 -115.094 	 64.4447 	 -21.316
| 22> H 	 -113.585 	 64.2008 	 -20.4656
| 23> S 	 -113.599 	 57.1966 	 -26.0195
| 24> C 	 -114.977 	 56.8802 	 -27.0892
| 25> C 	 -115.556 	 58.0469 	 -27.4133
| 26> C 	 -114.944 	 59.1679 	 -26.7952
| 27> C 	 -113.939 	 58.8583 	 -25.9005
| 28> H 	 -116.238 	 57.964 	 -28.1628
| 29> C 	 -115.398 	 60.5565 	 -27.157
| 30> H 	 -115.523 	 60.5424 	 -28.225
| 31> H 	 -114.583 	 61.2664 	 -27.0295
| 32> C 	 -116.665 	 61.0705 	 -26.3771
| 33> H 	 -116.336 	 61.1954 	 -25.3432
| 34> H 	 -117.463 	 60.372 	 -26.4044
| 35> C 	 -117.163 	 62.4222 	 -26.8443
| 36> H 	 -118.042 	 62.7978 	 -26.2201
| 37> H 	 -117.481 	 62.1608 	 -27.8239
| 38> H 	 -116.393 	 63.1618 	 -26.9005
| 39> H 	 -110.858 	 61.295 	 -22.8029
| 40> H 	 -115.132 	 55.9132 	 -27.6199
| 41> *
| 42>
| 43>                          ****END OF INPUT****

CARTESIAN COORDINATES (ANGSTROEM)
---------------------------------
  S    -111.490000   59.918200  -24.802600
  C    -111.702000   60.894800  -23.354300
  C    -113.030000   61.042300  -22.975800
  C    -113.906000   60.389300  -23.949100
  C    -113.255000   59.607700  -24.870000
  H    -114.978000   60.186700  -23.917400
  C    -113.477000   62.067700  -22.016000
  H    -113.017000   61.914000  -21.016200
  H    -114.510000   61.722800  -21.854100
  C    -113.376000   63.470900  -22.507800
  H    -112.385000   63.771700  -22.769000
  H    -113.933000   63.544200  -23.398800
  C    -114.017000   64.416400  -21.432200
  H    -113.758000   65.423800  -21.592800
  H    -115.094000   64.444700  -21.316000
  H    -113.585000   64.200800  -20.465600
  S    -113.599000   57.196600  -26.019500
  C    -114.977000   56.880200  -27.089200
  C    -115.556000   58.046900  -27.413300
  C    -114.944000   59.167900  -26.795200
  C    -113.939000   58.858300  -25.900500
  H    -116.238000   57.964000  -28.162800
  C    -115.398000   60.556500  -27.157000
  H    -115.523000   60.542400  -28.225000
  H    -114.583000   61.266400  -27.029500
  C    -116.665000   61.070500  -26.377100
  H    -116.336000   61.195400  -25.343200
  H    -117.463000   60.372000  -26.404400
  C    -117.163000   62.422200  -26.844300
  H    -118.042000   62.797800  -26.220100
  H    -117.481000   62.160800  -27.823900
  H    -116.393000   63.161800  -26.900500
  H    -110.858000   61.295000  -22.802900
  H    -115.132000   55.913200  -27.619900

 Total Charge           Charge          ....    0
 Multiplicity           Mult            ....    1
 Number of Electrons    NEL             ....  134
 Basis Dimension        Dim             ....  322

ORBITAL ENERGIES
----------------

  NO   OCC          E(Eh)            E(eV)
   0   2.0000     -88.966647     -2420.9055
   1   2.0000     -88.957707     -2420.6623
   2   2.0000     -10.330227      -281.0998
   3   2.0000     -10.321578      -280.8644
   4   2.0000     -10.316755      -280.7332
   5   2.0000     -10.316669      -280.7308
   6   2.0000     -10.302222      -280.3377
   7   2.0000     -10.300820      -280.2996
   8   2.0000     -10.297344      -280.2050
   9   2.0000     -10.288863      -279.9742
  10   2.0000     -10.287624      -279.9405
  11   2.0000     -10.283686      -279.8333
  12   2.0000     -10.283660      -279.8326
  13   2.0000     -10.282621      -279.8043
  14   2.0000     -10.275894      -279.6213
  15   2.0000     -10.273905      -279.5672
  16   2.0000      -8.080610      -219.8846
  17   2.0000      -8.073651      -219.6952
  18   2.0000      -6.039163      -164.3340
  19   2.0000      -6.035320      -164.2294
  20   2.0000      -6.032068      -164.1409
  21   2.0000      -6.031278      -164.1194
  22   2.0000      -6.027937      -164.0285
  23   2.0000      -6.024456      -163.9338
  24   2.0000      -1.011195       -27.5160
  25   2.0000      -0.984182       -26.7810
  26   2.0000      -0.919536       -25.0219
  27   2.0000      -0.907266       -24.6880
  28   2.0000      -0.877550       -23.8793
  29   2.0000      -0.852514       -23.1981
  30   2.0000      -0.846749       -23.0412
  31   2.0000      -0.823297       -22.4031
  32   2.0000      -0.779135       -21.2013
  33   2.0000      -0.766869       -20.8676
  34   2.0000      -0.715677       -19.4746
  35   2.0000      -0.705885       -19.2081
  36   2.0000      -0.695601       -18.9283
  37   2.0000      -0.666674       -18.1411
  38   2.0000      -0.644834       -17.5468
  39   2.0000      -0.617706       -16.8086
  40   2.0000      -0.594541       -16.1783
  41   2.0000      -0.574307       -15.6277
  42   2.0000      -0.568890       -15.4803
  43   2.0000      -0.562358       -15.3025
  44   2.0000      -0.528736       -14.3877
  45   2.0000      -0.526335       -14.3223
  46   2.0000      -0.524100       -14.2615
  47   2.0000      -0.514478       -13.9997
  48   2.0000      -0.506406       -13.7800
  49   2.0000      -0.500986       -13.6325
  50   2.0000      -0.493426       -13.4268
  51   2.0000      -0.477119       -12.9831
  52   2.0000      -0.469132       -12.7657
  53   2.0000      -0.465099       -12.6560
  54   2.0000      -0.459175       -12.4948
  55   2.0000      -0.448766       -12.2115
  56   2.0000      -0.443505       -12.0684
  57   2.0000      -0.439851       -11.9690
  58   2.0000      -0.434480       -11.8228
  59   2.0000      -0.426094       -11.5946
  60   2.0000      -0.423004       -11.5105
  61   2.0000      -0.415430       -11.3044
  62   2.0000      -0.410524       -11.1709
  63   2.0000      -0.350329        -9.5329
  64   2.0000      -0.330815        -9.0019
  65   2.0000      -0.323177        -8.7941
  66   2.0000      -0.298979        -8.1356
  67   0.0000       0.032115         0.8739
  68   0.0000       0.067156         1.8274
  69   0.0000       0.108638         2.9562
  70   0.0000       0.116916         3.1815
  71   0.0000       0.127198         3.4612

MULLIKEN ATOMIC CHARGES
-----------------------
   0 S :    0.104201
   1 C :   -0.124383
   2 C :   -0.074762
   3 C :   -0.003280
   4 C :   -0.128110
   5 H :    0.041163
   6 C :    0.034327
   7 H :    0.030810
   8 H :    0.019829
   9 C :   -0.002718
  10 H :    0.021137
  11 H :    0.014935
  12 C :   -0.028541
  13 H :    0.013443
  14 H :    0.034805
  15 H :    0.016959
  16 S :    0.090175
  17 C :   -0.112541
  18 C :    0.010174
  19 C :   -0.042291
  20 C :   -0.160872
  21 H :   -0.019704
  22 C :    0.062978
  23 H :    0.013460
  24 H :    0.021471
  25 C :   -0.062621
  26 H :    0.015189
  27 H :    0.020585
  28 C :   -0.025837
  29 H :    0.048066
  30 H :    0.015836
  31 H :    0.026988
  32 H :    0.054877
  33 H :    0.074250
Sum of atomic charges:   -0.0000000

LOEWDIN ATOMIC CHARGES
----------------------
   0 S :    0.378965
   1 C :   -0.183250
   2 C :   -0.066137
   3 C :   -0.059972
   4 C :   -0.184017
   5 H :    0.036006
   6 C :   -0.042419
   7 H :    0.033437
   8 H :    0.033857
   9 C :   -0.024198
  10 H :    0.023000
  11 H :    0.022350
  12 C :   -0.061420
  13 H :    0.018675
  14 H :    0.026564
  15 H :    0.022474
  16 S :    0.411458
  17 C :   -0.176227
  18 C :   -0.064909
  19 C :   -0.057590
  20 C :   -0.214713
  21 H :    0.018777
  22 C :   -0.029691
  23 H :    0.025872
  24 H :    0.030311
  25 C :   -0.034234
  26 H :    0.018373
  27 H :    0.017119
  28 C :   -0.062091
  29 H :    0.036125
  30 H :    0.019563
  31 H :    0.019624
  32 H :    0.028283
  33 H :    0.040035

  Mayer bond orders larger than 0.100000
B(  0-S ,  1-C ) :   1.1396 B(  0-S ,  4-C ) :   1.1201 B(  1-C ,  2-C ) :   1.6116
B(  1-C , 32-H ) :   0.9682 B(  2-C ,  3-C ) :   1.2061 B(  2-C ,  6-C ) :   1.0429
B(  3-C ,  4-C ) :   1.6281 B(  3-C ,  5-H ) :   0.9754 B(  4-C , 20-C ) :   1.0287
B(  6-C ,  7-H ) :   0.9305 B(  6-C ,  8-H ) :   0.9390 B(  6-C ,  9-C ) :   1.0666
B(  9-C , 10-H ) :   0.9548 B(  9-C , 11-H ) :   0.9502 B(  9-C , 12-C ) :   1.0737
B( 12-C , 13-H ) :   0.9731 B( 12-C , 14-H ) :   0.9781 B( 12-C , 15-H ) :   0.9747
B( 16-S , 17-C ) :   1.1539 B( 16-S , 20-C ) :   1.1445 B( 17-C , 18-C ) :   1.6150
B( 17-C , 33-H ) :   0.9611 B( 18-C , 19-C ) :   1.2248 B( 18-C , 21-H ) :   1.0109
B( 19-C , 20-C ) :   1.5898 B( 19-C , 22-C ) :   1.0506 B( 22-C , 23-H ) :   0.9362
B( 22-C , 24-H ) :   0.9324 B( 22-C , 25-C ) :   1.0534 B( 25-C , 26-H ) :   0.9478
B( 25-C , 27-H ) :   0.9613 B( 25-C , 28-C ) :   1.0815 B( 28-C , 29-H ) :   0.9721
B( 28-C , 30-H ) :   0.9768 B( 28-C , 31-H ) :   0.9738

Dispersion correction           -0.014393866
FINAL SINGLE POINT ENERGY     -1339.864557421238

DIPOLE MOMENT
-------------
                                X             Y             Z
Electronic contribution:     16.62409     -26.35996      -6.98151
Nuclear contribution   :    -17.05971      26.86993       6.94411
                        -----------------------------------------
Total Dipole Moment    :     -0.43563       0.50997      -0.03740
                        -----------------------------------------
Magnitude (a.u.)       :      0.67174
Magnitude (Debye)      :      1.70743

Rotational constants in cm-1:     0.018116     0.009138     0.006595
Rotational constants in MHz :   543.095914   273.962173   197.721226

                             ****ORCA TERMINATED NORMALLY****
TOTAL RUN TIME: 0 days 0 hours 0 minutes 21 seconds 939 msec
