                         Program Version 4.2.1 -  RELEASE  -
|  1> ! wB97X-D3 SP def2-SVP
|  2> %pal
|  3> nprocs 24
|  4> end
|  5>
|  6> * xyz 0 1
|  7> S 	 -83.1425 	 -42.9916 	 -89.7206
|  8> C 	 -81.5419 	 -42.3694 	 -89.1375
|  9> C 	 -81.0584 	 -43.2937 	 -88.2006
| 10> C 	 -81.8766 	 -44.4847 	 -88.0794
| 11> C 	 -83.0426 	 -44.5724 	 -88.8964
| 12> H 	 -81.5499 	 -45.1749 	 -87.3379
| 13> C 	 -79.7514 	 -43.0554 	 -87.4355
| 14> H 	 -79.9092 	 -42.0735 	 -86.8978
| 15> H 	 -78.9865 	 -42.7595 	 -88.2383
| 16> C 	 -79.226 	 -44.2163 	 -86.5207
| 17> H 	 -79.9692 	 -44.3229 	 -85.765
| 18> H 	 -79.0947 	 -45.1431 	 -87.1343
| 19> C 	 -77.8121 	 -44.0678 	 -85.952
| 20> H 	 -77.6266 	 -43.1121 	 -85.4215
| 21> H 	 -77.7497 	 -44.8527 	 -85.129
| 22> H 	 -77.1233 	 -44.1563 	 -86.7829
| 23> S 	 -85.6766 	 -45.0184 	 -88.4776
| 24> C 	 -86.1722 	 -46.6888 	 -88.6679
| 25> C 	 -85.2131 	 -47.579 	 -89.0218
| 26> C 	 -83.9297 	 -46.9431 	 -89.0119
| 27> C 	 -84.0314 	 -45.5279 	 -88.8969
| 28> H 	 -85.4329 	 -48.5686 	 -89.2945
| 29> C 	 -82.723 	 -47.7508 	 -89.2938
| 30> H 	 -83.1426 	 -48.7908 	 -89.3474
| 31> H 	 -82.0008 	 -47.8152 	 -88.4718
| 32> C 	 -81.9881 	 -47.2707 	 -90.5576
| 33> H 	 -80.9892 	 -47.7153 	 -90.7255
| 34> H 	 -81.83 	 -46.1912 	 -90.4523
| 35> C 	 -82.803 	 -47.3799 	 -91.7714
| 36> H 	 -82.221 	 -47.0328 	 -92.6899
| 37> H 	 -83.6793 	 -46.8079 	 -91.7464
| 38> H 	 -83.1534 	 -48.3962 	 -91.869
| 39> H 	 -81.1951 	 -41.4148 	 -89.3349
| 40> H 	 -87.1686 	 -47.0257 	 -88.7854
| 41> *
| 42>
| 43>                          ****END OF INPUT****

CARTESIAN COORDINATES (ANGSTROEM)
---------------------------------
  S    -83.142500  -42.991600  -89.720600
  C    -81.541900  -42.369400  -89.137500
  C    -81.058400  -43.293700  -88.200600
  C    -81.876600  -44.484700  -88.079400
  C    -83.042600  -44.572400  -88.896400
  H    -81.549900  -45.174900  -87.337900
  C    -79.751400  -43.055400  -87.435500
  H    -79.909200  -42.073500  -86.897800
  H    -78.986500  -42.759500  -88.238300
  C    -79.226000  -44.216300  -86.520700
  H    -79.969200  -44.322900  -85.765000
  H    -79.094700  -45.143100  -87.134300
  C    -77.812100  -44.067800  -85.952000
  H    -77.626600  -43.112100  -85.421500
  H    -77.749700  -44.852700  -85.129000
  H    -77.123300  -44.156300  -86.782900
  S    -85.676600  -45.018400  -88.477600
  C    -86.172200  -46.688800  -88.667900
  C    -85.213100  -47.579000  -89.021800
  C    -83.929700  -46.943100  -89.011900
  C    -84.031400  -45.527900  -88.896900
  H    -85.432900  -48.568600  -89.294500
  C    -82.723000  -47.750800  -89.293800
  H    -83.142600  -48.790800  -89.347400
  H    -82.000800  -47.815200  -88.471800
  C    -81.988100  -47.270700  -90.557600
  H    -80.989200  -47.715300  -90.725500
  H    -81.830000  -46.191200  -90.452300
  C    -82.803000  -47.379900  -91.771400
  H    -82.221000  -47.032800  -92.689900
  H    -83.679300  -46.807900  -91.746400
  H    -83.153400  -48.396200  -91.869000
  H    -81.195100  -41.414800  -89.334900
  H    -87.168600  -47.025700  -88.785400

 Total Charge           Charge          ....    0
 Multiplicity           Mult            ....    1
 Number of Electrons    NEL             ....  134
 Basis Dimension        Dim             ....  322

ORBITAL ENERGIES
----------------

  NO   OCC          E(Eh)            E(eV)
   0   2.0000     -88.971117     -2421.0272
   1   2.0000     -88.964525     -2420.8478
   2   2.0000     -10.334081      -281.2047
   3   2.0000     -10.325737      -280.9776
   4   2.0000     -10.316389      -280.7232
   5   2.0000     -10.311336      -280.5857
   6   2.0000     -10.307471      -280.4805
   7   2.0000     -10.306517      -280.4546
   8   2.0000     -10.305937      -280.4388
   9   2.0000     -10.296888      -280.1926
  10   2.0000     -10.294973      -280.1404
  11   2.0000     -10.291919      -280.0574
  12   2.0000     -10.289581      -279.9937
  13   2.0000     -10.288911      -279.9755
  14   2.0000     -10.276146      -279.6281
  15   2.0000     -10.262627      -279.2603
  16   2.0000      -8.085321      -220.0128
  17   2.0000      -8.077529      -219.8007
  18   2.0000      -6.043892      -164.4627
  19   2.0000      -6.040066      -164.3585
  20   2.0000      -6.036234      -164.2543
  21   2.0000      -6.035877      -164.2446
  22   2.0000      -6.032121      -164.1424
  23   2.0000      -6.028316      -164.0388
  24   2.0000      -1.004747       -27.3405
  25   2.0000      -0.973513       -26.4906
  26   2.0000      -0.915801       -24.9202
  27   2.0000      -0.907628       -24.6978
  28   2.0000      -0.878905       -23.9162
  29   2.0000      -0.852591       -23.2002
  30   2.0000      -0.840563       -22.8729
  31   2.0000      -0.813749       -22.1432
  32   2.0000      -0.782217       -21.2852
  33   2.0000      -0.767093       -20.8737
  34   2.0000      -0.721915       -19.6443
  35   2.0000      -0.696667       -18.9573
  36   2.0000      -0.684794       -18.6342
  37   2.0000      -0.663767       -18.0620
  38   2.0000      -0.636499       -17.3200
  39   2.0000      -0.619970       -16.8702
  40   2.0000      -0.595875       -16.2146
  41   2.0000      -0.575909       -15.6713
  42   2.0000      -0.564129       -15.3507
  43   2.0000      -0.549839       -14.9619
  44   2.0000      -0.548302       -14.9201
  45   2.0000      -0.529140       -14.3986
  46   2.0000      -0.516279       -14.0487
  47   2.0000      -0.510996       -13.9049
  48   2.0000      -0.503438       -13.6992
  49   2.0000      -0.497054       -13.5255
  50   2.0000      -0.489183       -13.3114
  51   2.0000      -0.478733       -13.0270
  52   2.0000      -0.474201       -12.9037
  53   2.0000      -0.467338       -12.7169
  54   2.0000      -0.455053       -12.3826
  55   2.0000      -0.450951       -12.2710
  56   2.0000      -0.439832       -11.9684
  57   2.0000      -0.433840       -11.8054
  58   2.0000      -0.430948       -11.7267
  59   2.0000      -0.423056       -11.5119
  60   2.0000      -0.420348       -11.4383
  61   2.0000      -0.409352       -11.1390
  62   2.0000      -0.404622       -11.0103
  63   2.0000      -0.346694        -9.4340
  64   2.0000      -0.331209        -9.0126
  65   2.0000      -0.324246        -8.8232
  66   2.0000      -0.284345        -7.7374
  67   0.0000       0.014409         0.3921
  68   0.0000       0.061191         1.6651
  69   0.0000       0.109692         2.9849
  70   0.0000       0.118565         3.2263
  71   0.0000       0.127209         3.4615

MULLIKEN ATOMIC CHARGES
-----------------------
   0 S :    0.082813
   1 C :   -0.105911
   2 C :   -0.095482
   3 C :    0.043207
   4 C :   -0.157365
   5 H :    0.000349
   6 C :    0.000319
   7 H :    0.047777
   8 H :    0.044028
   9 C :   -0.103487
  10 H :    0.040269
  11 H :    0.047214
  12 C :   -0.048475
  13 H :    0.032542
  14 H :    0.047822
  15 H :    0.042064
  16 S :    0.126771
  17 C :   -0.047770
  18 C :   -0.037351
  19 C :   -0.044366
  20 C :   -0.152260
  21 H :    0.007962
  22 C :    0.067665
  23 H :    0.017424
  24 H :    0.036250
  25 C :   -0.074205
  26 H :    0.029454
  27 H :    0.048028
  28 C :   -0.034273
  29 H :    0.041201
  30 H :    0.024813
  31 H :    0.009052
  32 H :    0.027369
  33 H :    0.036549
Sum of atomic charges:    0.0000000

LOEWDIN ATOMIC CHARGES
----------------------
   0 S :    0.369224
   1 C :   -0.172490
   2 C :   -0.060657
   3 C :   -0.061848
   4 C :   -0.192301
   5 H :    0.022534
   6 C :   -0.047725
   7 H :    0.038872
   8 H :    0.039123
   9 C :   -0.048177
  10 H :    0.019858
  11 H :    0.034532
  12 C :   -0.066108
  13 H :    0.023820
  14 H :    0.038767
  15 H :    0.025739
  16 S :    0.406611
  17 C :   -0.173789
  18 C :   -0.063185
  19 C :   -0.038350
  20 C :   -0.202845
  21 H :    0.027502
  22 C :   -0.036457
  23 H :    0.032128
  24 H :    0.033742
  25 C :   -0.046131
  26 H :    0.025363
  27 H :    0.031530
  28 C :   -0.063974
  29 H :    0.036037
  30 H :    0.016903
  31 H :    0.016484
  32 H :    0.014177
  33 H :    0.021091

  Mayer bond orders larger than 0.100000
B(  0-S ,  1-C ) :   1.1305 B(  0-S ,  4-C ) :   1.1303 B(  1-C ,  2-C ) :   1.5717
B(  1-C ,  4-C ) :   0.1139 B(  1-C , 32-H ) :   0.9870 B(  2-C ,  3-C ) :   1.3020
B(  2-C ,  6-C ) :   0.9974 B(  3-C ,  4-C ) :   1.4848 B(  3-C ,  5-H ) :   0.9881
B(  4-C , 20-C ) :   1.1518 B(  6-C ,  7-H ) :   0.9379 B(  6-C ,  8-H ) :   0.9474
B(  6-C ,  9-C ) :   1.0686 B(  9-C , 10-H ) :   0.9504 B(  9-C , 11-H ) :   0.9553
B(  9-C , 12-C ) :   1.0781 B( 12-C , 13-H ) :   0.9752 B( 12-C , 14-H ) :   0.9727
B( 12-C , 15-H ) :   0.9774 B( 16-S , 17-C ) :   1.1438 B( 16-S , 20-C ) :   1.1249
B( 17-C , 18-C ) :   1.6511 B( 17-C , 20-C ) :   0.1005 B( 17-C , 33-H ) :   0.9567
B( 18-C , 19-C ) :   1.2245 B( 18-C , 21-H ) :   0.9914 B( 19-C , 20-C ) :   1.5505
B( 19-C , 22-C ) :   1.0477 B( 22-C , 23-H ) :   0.9390 B( 22-C , 24-H ) :   0.9245
B( 22-C , 25-C ) :   1.0642 B( 25-C , 26-H ) :   0.9538 B( 25-C , 27-H ) :   0.9504
B( 25-C , 28-C ) :   1.0834 B( 28-C , 29-H ) :   0.9693 B( 28-C , 30-H ) :   0.9696
B( 28-C , 31-H ) :   0.9735

Dispersion correction           -0.014914236
FINAL SINGLE POINT ENERGY     -1339.851381690658

DIPOLE MOMENT
-------------
                                X             Y             Z
Electronic contribution:    -24.04939       9.72922      -2.21162
Nuclear contribution   :     24.55165     -10.03036       2.47885
                        -----------------------------------------
Total Dipole Moment    :      0.50226      -0.30115       0.26724
                        -----------------------------------------
Magnitude (a.u.)       :      0.64372
Magnitude (Debye)      :      1.63621

Rotational constants in cm-1:     0.019558     0.008381     0.007430
Rotational constants in MHz :   586.321191   251.266342   222.736769

                             ****ORCA TERMINATED NORMALLY****
TOTAL RUN TIME: 0 days 0 hours 0 minutes 21 seconds 166 msec
