                         Program Version 4.2.1 -  RELEASE  -
|  1> ! wB97X-D3 SP def2-SVP
|  2> %pal
|  3> nprocs 24
|  4> end
|  5>
|  6> * xyz 0 1
|  7> S 	 -64.5388 	 8.18186 	 -76.197
|  8> C 	 -64.0171 	 7.02705 	 -74.989
|  9> C 	 -65.0291 	 6.58297 	 -74.2086
| 10> C 	 -66.2164 	 7.32935 	 -74.3505
| 11> C 	 -66.0893 	 8.33063 	 -75.3217
| 12> H 	 -67.1339 	 7.07941 	 -73.7756
| 13> C 	 -64.8729 	 5.49016 	 -73.136
| 14> H 	 -64.4949 	 5.88229 	 -72.2276
| 15> H 	 -63.9577 	 5.02123 	 -73.5576
| 16> C 	 -65.9861 	 4.51794 	 -72.8305
| 17> H 	 -65.816 	 4.00867 	 -71.8651
| 18> H 	 -66.8154 	 5.18031 	 -72.5355
| 19> C 	 -66.465 	 3.78038 	 -74.089
| 20> H 	 -67.4934 	 3.5708 	 -73.9504
| 21> H 	 -66.3748 	 4.47841 	 -74.9224
| 22> H 	 -65.8446 	 2.89417 	 -74.2782
| 23> S 	 -67.5385 	 9.72699 	 -77.3667
| 24> C 	 -68.6403 	 10.9489 	 -76.8436
| 25> C 	 -68.6797 	 11.1318 	 -75.4968
| 26> C 	 -67.8996 	 10.1481 	 -74.8153
| 27> C 	 -67.0369 	 9.44648 	 -75.6582
| 28> H 	 -69.5601 	 11.6129 	 -75.0441
| 29> C 	 -68.0245 	 9.9292 	 -73.349
| 30> H 	 -67.5697 	 9.01705 	 -73.0419
| 31> H 	 -69.1057 	 9.80699 	 -73.0797
| 32> C 	 -67.4869 	 11.0574 	 -72.5285
| 33> H 	 -68.0349 	 11.9179 	 -72.8824
| 34> H 	 -66.4262 	 11.2007 	 -72.6357
| 35> C 	 -67.7647 	 10.9034 	 -71.0709
| 36> H 	 -68.8665 	 10.8736 	 -70.7488
| 37> H 	 -67.2252 	 11.6881 	 -70.5785
| 38> H 	 -67.512 	 9.91205 	 -70.6383
| 39> H 	 -63.0456 	 6.5247 	 -74.9501
| 40> H 	 -69.2571 	 11.5368 	 -77.4988
| 41> *
| 42>
| 43>                          ****END OF INPUT****

CARTESIAN COORDINATES (ANGSTROEM)
---------------------------------
  S    -64.538800    8.181860  -76.197000
  C    -64.017100    7.027050  -74.989000
  C    -65.029100    6.582970  -74.208600
  C    -66.216400    7.329350  -74.350500
  C    -66.089300    8.330630  -75.321700
  H    -67.133900    7.079410  -73.775600
  C    -64.872900    5.490160  -73.136000
  H    -64.494900    5.882290  -72.227600
  H    -63.957700    5.021230  -73.557600
  C    -65.986100    4.517940  -72.830500
  H    -65.816000    4.008670  -71.865100
  H    -66.815400    5.180310  -72.535500
  C    -66.465000    3.780380  -74.089000
  H    -67.493400    3.570800  -73.950400
  H    -66.374800    4.478410  -74.922400
  H    -65.844600    2.894170  -74.278200
  S    -67.538500    9.726990  -77.366700
  C    -68.640300   10.948900  -76.843600
  C    -68.679700   11.131800  -75.496800
  C    -67.899600   10.148100  -74.815300
  C    -67.036900    9.446480  -75.658200
  H    -69.560100   11.612900  -75.044100
  C    -68.024500    9.929200  -73.349000
  H    -67.569700    9.017050  -73.041900
  H    -69.105700    9.806990  -73.079700
  C    -67.486900   11.057400  -72.528500
  H    -68.034900   11.917900  -72.882400
  H    -66.426200   11.200700  -72.635700
  C    -67.764700   10.903400  -71.070900
  H    -68.866500   10.873600  -70.748800
  H    -67.225200   11.688100  -70.578500
  H    -67.512000    9.912050  -70.638300
  H    -63.045600    6.524700  -74.950100
  H    -69.257100   11.536800  -77.498800

 Total Charge           Charge          ....    0
 Multiplicity           Mult            ....    1
 Number of Electrons    NEL             ....  134
 Basis Dimension        Dim             ....  322

ORBITAL ENERGIES
----------------

  NO   OCC          E(Eh)            E(eV)
   0   2.0000     -88.969047     -2420.9709
   1   2.0000     -88.967239     -2420.9216
   2   2.0000     -10.339300      -281.3467
   3   2.0000     -10.331540      -281.1355
   4   2.0000     -10.316889      -280.7368
   5   2.0000     -10.310683      -280.5680
   6   2.0000     -10.302783      -280.3530
   7   2.0000     -10.298436      -280.2347
   8   2.0000     -10.296192      -280.1736
   9   2.0000     -10.291571      -280.0479
  10   2.0000     -10.290114      -280.0082
  11   2.0000     -10.288152      -279.9548
  12   2.0000     -10.284131      -279.8454
  13   2.0000     -10.279020      -279.7064
  14   2.0000     -10.276407      -279.6352
  15   2.0000     -10.275672      -279.6153
  16   2.0000      -8.083212      -219.9554
  17   2.0000      -8.081689      -219.9139
  18   2.0000      -6.041803      -164.4058
  19   2.0000      -6.040206      -164.3624
  20   2.0000      -6.038015      -164.3028
  21   2.0000      -6.036420      -164.2593
  22   2.0000      -6.033706      -164.1855
  23   2.0000      -6.032277      -164.1466
  24   2.0000      -1.003628       -27.3101
  25   2.0000      -0.986819       -26.8527
  26   2.0000      -0.920626       -25.0515
  27   2.0000      -0.914122       -24.8745
  28   2.0000      -0.866719       -23.5846
  29   2.0000      -0.854774       -23.2596
  30   2.0000      -0.844677       -22.9848
  31   2.0000      -0.816362       -22.2144
  32   2.0000      -0.786021       -21.3887
  33   2.0000      -0.773248       -21.0411
  34   2.0000      -0.710305       -19.3284
  35   2.0000      -0.696743       -18.9593
  36   2.0000      -0.692659       -18.8482
  37   2.0000      -0.656977       -17.8772
  38   2.0000      -0.631689       -17.1891
  39   2.0000      -0.626765       -17.0552
  40   2.0000      -0.602398       -16.3921
  41   2.0000      -0.571425       -15.5493
  42   2.0000      -0.563217       -15.3259
  43   2.0000      -0.557792       -15.1783
  44   2.0000      -0.538803       -14.6616
  45   2.0000      -0.534823       -14.5533
  46   2.0000      -0.518166       -14.1000
  47   2.0000      -0.506135       -13.7726
  48   2.0000      -0.504336       -13.7237
  49   2.0000      -0.493115       -13.4184
  50   2.0000      -0.489152       -13.3105
  51   2.0000      -0.482947       -13.1416
  52   2.0000      -0.468312       -12.7434
  53   2.0000      -0.461783       -12.5658
  54   2.0000      -0.455947       -12.4069
  55   2.0000      -0.454544       -12.3688
  56   2.0000      -0.443860       -12.0781
  57   2.0000      -0.440804       -11.9949
  58   2.0000      -0.436902       -11.8887
  59   2.0000      -0.431906       -11.7528
  60   2.0000      -0.422275       -11.4907
  61   2.0000      -0.411748       -11.2042
  62   2.0000      -0.403743       -10.9864
  63   2.0000      -0.349221        -9.5028
  64   2.0000      -0.333969        -9.0877
  65   2.0000      -0.330918        -9.0047
  66   2.0000      -0.287739        -7.8298
  67   0.0000       0.026052         0.7089
  68   0.0000       0.065704         1.7879
  69   0.0000       0.098066         2.6685
  70   0.0000       0.115080         3.1315
  71   0.0000       0.127877         3.4797

MULLIKEN ATOMIC CHARGES
-----------------------
   0 S :    0.113413
   1 C :   -0.127206
   2 C :   -0.114954
   3 C :    0.008568
   4 C :   -0.156388
   5 H :    0.041907
   6 C :    0.074170
   7 H :    0.028149
   8 H :    0.003711
   9 C :   -0.083480
  10 H :    0.034702
  11 H :    0.013160
  12 C :   -0.019057
  13 H :    0.026672
  14 H :    0.043812
  15 H :    0.043044
  16 S :    0.097903
  17 C :   -0.077944
  18 C :   -0.020808
  19 C :   -0.079700
  20 C :   -0.110360
  21 H :    0.037617
  22 C :    0.070611
  23 H :   -0.014096
  24 H :    0.026621
  25 C :   -0.046265
  26 H :    0.021641
  27 H :    0.034707
  28 C :   -0.054126
  29 H :    0.026656
  30 H :    0.037736
  31 H :    0.019940
  32 H :    0.046967
  33 H :    0.052677
Sum of atomic charges:    0.0000000

LOEWDIN ATOMIC CHARGES
----------------------
   0 S :    0.392261
   1 C :   -0.199762
   2 C :   -0.072518
   3 C :   -0.070802
   4 C :   -0.170935
   5 H :    0.037670
   6 C :   -0.035133
   7 H :    0.027010
   8 H :    0.027969
   9 C :   -0.049577
  10 H :    0.031678
  11 H :    0.021977
  12 C :   -0.056391
  13 H :    0.022030
  14 H :    0.032421
  15 H :    0.029486
  16 S :    0.389429
  17 C :   -0.174620
  18 C :   -0.085595
  19 C :   -0.045810
  20 C :   -0.192307
  21 H :    0.039295
  22 C :   -0.033345
  23 H :    0.018582
  24 H :    0.036981
  25 C :   -0.037167
  26 H :    0.024297
  27 H :    0.028596
  28 C :   -0.072487
  29 H :    0.029327
  30 H :    0.025496
  31 H :    0.023474
  32 H :    0.030856
  33 H :    0.027615

  Mayer bond orders larger than 0.100000
B(  0-S ,  1-C ) :   1.1251 B(  0-S ,  4-C ) :   1.1536 B(  1-C ,  2-C ) :   1.6517
B(  1-C , 32-H ) :   0.9558 B(  2-C ,  3-C ) :   1.2365 B(  2-C ,  6-C ) :   0.9917
B(  3-C ,  4-C ) :   1.5728 B(  3-C ,  5-H ) :   0.9759 B(  4-C , 20-C ) :   1.0269
B(  6-C ,  7-H ) :   0.9394 B(  6-C ,  8-H ) :   0.9350 B(  6-C ,  9-C ) :   1.0833
B(  9-C , 10-H ) :   0.9503 B(  9-C , 11-H ) :   0.9500 B(  9-C , 12-C ) :   1.0618
B( 12-C , 13-H ) :   0.9756 B( 12-C , 14-H ) :   0.9734 B( 12-C , 15-H ) :   0.9772
B( 16-S , 17-C ) :   1.1655 B( 16-S , 20-C ) :   1.1124 B( 17-C , 18-C ) :   1.6388
B( 17-C , 33-H ) :   0.9599 B( 18-C , 19-C ) :   1.2355 B( 18-C , 21-H ) :   0.9706
B( 19-C , 20-C ) :   1.6188 B( 19-C , 22-C ) :   1.0588 B( 22-C , 23-H ) :   0.9236
B( 22-C , 24-H ) :   0.9288 B( 22-C , 25-C ) :   1.0756 B( 25-C , 26-H ) :   0.9503
B( 25-C , 27-H ) :   0.9510 B( 25-C , 28-C ) :   1.0916 B( 28-C , 29-H ) :   0.9694
B( 28-C , 30-H ) :   0.9730 B( 28-C , 31-H ) :   0.9700

Dispersion correction           -0.014120889
FINAL SINGLE POINT ENERGY     -1339.862297907445

DIPOLE MOMENT
-------------
                                X             Y             Z
Electronic contribution:      5.59819       9.23568     -25.68216
Nuclear contribution   :     -5.98245      -9.46181      26.32062
                        -----------------------------------------
Total Dipole Moment    :     -0.38426      -0.22613       0.63846
                        -----------------------------------------
Magnitude (a.u.)       :      0.77873
Magnitude (Debye)      :      1.97938

Rotational constants in cm-1:     0.016730     0.009180     0.007139
Rotational constants in MHz :   501.543850   275.220907   214.016333

                             ****ORCA TERMINATED NORMALLY****
TOTAL RUN TIME: 0 days 0 hours 0 minutes 21 seconds 983 msec
