                         Program Version 4.2.1 -  RELEASE  -
|  1> ! wB97X-D3 SP def2-SVP
|  2> %pal
|  3> nprocs 24
|  4> end
|  5>
|  6> * xyz 0 1
|  7> S 	 -72.0909 	 7.4663 	 -109.884
|  8> C 	 -73.2248 	 6.63632 	 -108.823
|  9> C 	 -72.5983 	 5.86034 	 -107.859
| 10> C 	 -71.1907 	 6.07219 	 -107.812
| 11> C 	 -70.7567 	 6.95816 	 -108.799
| 12> H 	 -70.5255 	 5.49997 	 -107.188
| 13> C 	 -73.3565 	 5.07319 	 -106.84
| 14> H 	 -73.8655 	 5.76321 	 -106.221
| 15> H 	 -72.5786 	 4.5152 	 -106.252
| 16> C 	 -74.3928 	 4.11904 	 -107.419
| 17> H 	 -75.2606 	 4.62772 	 -107.787
| 18> H 	 -73.9857 	 3.66515 	 -108.308
| 19> C 	 -74.7755 	 2.90959 	 -106.513
| 20> H 	 -75.463 	 3.30562 	 -105.801
| 21> H 	 -75.3252 	 2.16746 	 -107.116
| 22> H 	 -73.9036 	 2.48721 	 -106.127
| 23> S 	 -69.0421 	 6.46673 	 -110.904
| 24> C 	 -67.4063 	 7.21037 	 -110.934
| 25> C 	 -67.1379 	 7.80669 	 -109.702
| 26> C 	 -68.2431 	 7.7871 	 -108.771
| 27> C 	 -69.3738 	 7.11073 	 -109.279
| 28> H 	 -66.2306 	 8.24999 	 -109.564
| 29> C 	 -68.0653 	 8.441 	 -107.439
| 30> H 	 -67.297 	 7.95367 	 -106.794
| 31> H 	 -69.0657 	 8.34533 	 -107.003
| 32> C 	 -67.6775 	 9.92606 	 -107.318
| 33> H 	 -68.356 	 10.5405 	 -107.823
| 34> H 	 -66.7672 	 10.108 	 -107.863
| 35> C 	 -67.4138 	 10.3497 	 -105.862
| 36> H 	 -66.6848 	 9.66699 	 -105.443
| 37> H 	 -68.3518 	 10.4015 	 -105.258
| 38> H 	 -67.122 	 11.3189 	 -105.984
| 39> H 	 -74.2984 	 6.66598 	 -108.985
| 40> H 	 -66.5627 	 7.12893 	 -111.593
| 41> *
| 42>
| 43>                          ****END OF INPUT****

CARTESIAN COORDINATES (ANGSTROEM)
---------------------------------
  S    -72.090900    7.466300  -109.884000
  C    -73.224800    6.636320  -108.823000
  C    -72.598300    5.860340  -107.859000
  C    -71.190700    6.072190  -107.812000
  C    -70.756700    6.958160  -108.799000
  H    -70.525500    5.499970  -107.188000
  C    -73.356500    5.073190  -106.840000
  H    -73.865500    5.763210  -106.221000
  H    -72.578600    4.515200  -106.252000
  C    -74.392800    4.119040  -107.419000
  H    -75.260600    4.627720  -107.787000
  H    -73.985700    3.665150  -108.308000
  C    -74.775500    2.909590  -106.513000
  H    -75.463000    3.305620  -105.801000
  H    -75.325200    2.167460  -107.116000
  H    -73.903600    2.487210  -106.127000
  S    -69.042100    6.466730  -110.904000
  C    -67.406300    7.210370  -110.934000
  C    -67.137900    7.806690  -109.702000
  C    -68.243100    7.787100  -108.771000
  C    -69.373800    7.110730  -109.279000
  H    -66.230600    8.249990  -109.564000
  C    -68.065300    8.441000  -107.439000
  H    -67.297000    7.953670  -106.794000
  H    -69.065700    8.345330  -107.003000
  C    -67.677500    9.926060  -107.318000
  H    -68.356000   10.540500  -107.823000
  H    -66.767200   10.108000  -107.863000
  C    -67.413800   10.349700  -105.862000
  H    -66.684800    9.666990  -105.443000
  H    -68.351800   10.401500  -105.258000
  H    -67.122000   11.318900  -105.984000
  H    -74.298400    6.665980  -108.985000
  H    -66.562700    7.128930  -111.593000

 Total Charge           Charge          ....    0
 Multiplicity           Mult            ....    1
 Number of Electrons    NEL             ....  134
 Basis Dimension        Dim             ....  322

ORBITAL ENERGIES
----------------

  NO   OCC          E(Eh)            E(eV)
   0   2.0000     -88.969549     -2420.9845
   1   2.0000     -88.966272     -2420.8953
   2   2.0000     -10.334879      -281.2263
   3   2.0000     -10.331775      -281.1419
   4   2.0000     -10.317754      -280.7604
   5   2.0000     -10.315567      -280.7008
   6   2.0000     -10.304257      -280.3931
   7   2.0000     -10.299702      -280.2691
   8   2.0000     -10.299436      -280.2619
   9   2.0000     -10.290402      -280.0161
  10   2.0000     -10.287556      -279.9386
  11   2.0000     -10.286015      -279.8967
  12   2.0000     -10.280862      -279.7565
  13   2.0000     -10.276792      -279.6457
  14   2.0000     -10.274706      -279.5890
  15   2.0000     -10.273602      -279.5589
  16   2.0000      -8.083310      -219.9580
  17   2.0000      -8.079391      -219.8514
  18   2.0000      -6.041855      -164.4072
  19   2.0000      -6.038189      -164.3075
  20   2.0000      -6.037995      -164.3022
  21   2.0000      -6.034070      -164.1954
  22   2.0000      -6.034037      -164.1945
  23   2.0000      -6.029965      -164.0837
  24   2.0000      -0.998260       -27.1640
  25   2.0000      -0.974223       -26.5100
  26   2.0000      -0.913964       -24.8702
  27   2.0000      -0.907329       -24.6897
  28   2.0000      -0.865337       -23.5470
  29   2.0000      -0.852650       -23.2018
  30   2.0000      -0.847811       -23.0701
  31   2.0000      -0.816500       -22.2181
  32   2.0000      -0.781032       -21.2530
  33   2.0000      -0.766419       -20.8553
  34   2.0000      -0.709536       -19.3075
  35   2.0000      -0.702974       -19.1289
  36   2.0000      -0.693593       -18.8736
  37   2.0000      -0.659831       -17.9549
  38   2.0000      -0.641108       -17.4454
  39   2.0000      -0.619803       -16.8657
  40   2.0000      -0.592936       -16.1346
  41   2.0000      -0.574723       -15.6390
  42   2.0000      -0.570946       -15.5362
  43   2.0000      -0.563727       -15.3398
  44   2.0000      -0.525940       -14.3116
  45   2.0000      -0.523361       -14.2414
  46   2.0000      -0.519985       -14.1495
  47   2.0000      -0.513811       -13.9815
  48   2.0000      -0.506506       -13.7827
  49   2.0000      -0.496708       -13.5161
  50   2.0000      -0.493171       -13.4199
  51   2.0000      -0.476917       -12.9776
  52   2.0000      -0.469245       -12.7688
  53   2.0000      -0.465379       -12.6636
  54   2.0000      -0.457260       -12.4427
  55   2.0000      -0.451087       -12.2747
  56   2.0000      -0.439844       -11.9688
  57   2.0000      -0.439077       -11.9479
  58   2.0000      -0.432993       -11.7823
  59   2.0000      -0.427306       -11.6276
  60   2.0000      -0.420219       -11.4347
  61   2.0000      -0.413959       -11.2644
  62   2.0000      -0.410683       -11.1753
  63   2.0000      -0.344728        -9.3805
  64   2.0000      -0.328665        -8.9434
  65   2.0000      -0.325140        -8.8475
  66   2.0000      -0.292939        -7.9713
  67   0.0000       0.029253         0.7960
  68   0.0000       0.054930         1.4947
  69   0.0000       0.107109         2.9146
  70   0.0000       0.117438         3.1956
  71   0.0000       0.128393         3.4938

MULLIKEN ATOMIC CHARGES
-----------------------
   0 S :    0.112675
   1 C :   -0.125292
   2 C :   -0.098495
   3 C :    0.054054
   4 C :   -0.156843
   5 H :    0.018484
   6 C :    0.093935
   7 H :    0.037210
   8 H :    0.019866
   9 C :   -0.115707
  10 H :    0.021505
  11 H :    0.022228
  12 C :   -0.012134
  13 H :    0.028709
  14 H :    0.034751
  15 H :    0.024786
  16 S :    0.100323
  17 C :   -0.078115
  18 C :   -0.016622
  19 C :   -0.002302
  20 C :   -0.169802
  21 H :   -0.016298
  22 C :    0.043315
  23 H :    0.031907
  24 H :    0.021232
  25 C :   -0.082306
  26 H :    0.013955
  27 H :    0.012246
  28 C :   -0.007144
  29 H :    0.034359
  30 H :    0.037480
  31 H :    0.015878
  32 H :    0.051939
  33 H :    0.050223
Sum of atomic charges:   -0.0000000

LOEWDIN ATOMIC CHARGES
----------------------
   0 S :    0.394109
   1 C :   -0.188815
   2 C :   -0.064624
   3 C :   -0.048228
   4 C :   -0.186700
   5 H :    0.033419
   6 C :   -0.029864
   7 H :    0.031023
   8 H :    0.033170
   9 C :   -0.041772
  10 H :    0.017564
  11 H :    0.020753
  12 C :   -0.050502
  13 H :    0.021537
  14 H :    0.030895
  15 H :    0.016134
  16 S :    0.379261
  17 C :   -0.177258
  18 C :   -0.056366
  19 C :   -0.056406
  20 C :   -0.192895
  21 H :    0.012724
  22 C :   -0.041432
  23 H :    0.034826
  24 H :    0.030924
  25 C :   -0.033669
  26 H :    0.015519
  27 H :    0.016963
  28 C :   -0.050756
  29 H :    0.025519
  30 H :    0.031101
  31 H :    0.016273
  32 H :    0.026207
  33 H :    0.031366

  Mayer bond orders larger than 0.100000
B(  0-S ,  1-C ) :   1.1404 B(  0-S ,  4-C ) :   1.1496 B(  1-C ,  2-C ) :   1.5934
B(  1-C , 32-H ) :   0.9707 B(  2-C ,  3-C ) :   1.2653 B(  2-C ,  6-C ) :   1.0254
B(  3-C ,  4-C ) :   1.5562 B(  3-C ,  5-H ) :   0.9896 B(  4-C , 20-C ) :   1.0264
B(  6-C ,  7-H ) :   0.9352 B(  6-C ,  8-H ) :   0.9423 B(  6-C ,  9-C ) :   1.0539
B(  9-C , 10-H ) :   0.9518 B(  9-C , 11-H ) :   0.9657 B(  9-C , 12-C ) :   1.0878
B( 12-C , 13-H ) :   0.9777 B( 12-C , 14-H ) :   0.9763 B( 12-C , 15-H ) :   0.9770
B( 16-S , 17-C ) :   1.1256 B( 16-S , 20-C ) :   1.1321 B( 17-C , 18-C ) :   1.6444
B( 17-C , 33-H ) :   0.9637 B( 18-C , 19-C ) :   1.2196 B( 18-C , 21-H ) :   0.9983
B( 19-C , 20-C ) :   1.5937 B( 19-C , 22-C ) :   1.0591 B( 22-C , 23-H ) :   0.9355
B( 22-C , 24-H ) :   0.9285 B( 22-C , 25-C ) :   1.0683 B( 25-C , 26-H ) :   0.9512
B( 25-C , 27-H ) :   0.9519 B( 25-C , 28-C ) :   1.0855 B( 28-C , 29-H ) :   0.9726
B( 28-C , 30-H ) :   0.9758 B( 28-C , 31-H ) :   0.9714

Dispersion correction           -0.013035285
FINAL SINGLE POINT ENERGY     -1339.858959740195

DIPOLE MOMENT
-------------
                                X             Y             Z
Electronic contribution:      3.13638       1.50361     -22.27611
Nuclear contribution   :     -3.13051      -1.57334      22.78051
                        -----------------------------------------
Total Dipole Moment    :      0.00587      -0.06972       0.50440
                        -----------------------------------------
Magnitude (a.u.)       :      0.50923
Magnitude (Debye)      :      1.29437

Rotational constants in cm-1:     0.020242     0.006906     0.005873
Rotational constants in MHz :   606.825034   207.023213   176.054572

                             ****ORCA TERMINATED NORMALLY****
TOTAL RUN TIME: 0 days 0 hours 0 minutes 20 seconds 218 msec
