                         Program Version 4.2.1 -  RELEASE  -
|  1> ! wB97X-D3 SP def2-SVP
|  2> %pal
|  3> nprocs 24
|  4> end
|  5>
|  6> * xyz 0 1
|  7> S 	 -101.133 	 9.82503 	 -6.51295
|  8> C 	 -100.056 	 11.0539 	 -5.93216
|  9> C 	 -100.68 	 11.7972 	 -4.95873
| 10> C 	 -101.927 	 11.2997 	 -4.59444
| 11> C 	 -102.372 	 10.2427 	 -5.34646
| 12> H 	 -102.532 	 11.6771 	 -3.82676
| 13> C 	 -100.116 	 12.9983 	 -4.296
| 14> H 	 -100.827 	 13.4791 	 -3.67751
| 15> H 	 -99.9155 	 13.7748 	 -5.05867
| 16> C 	 -98.7929 	 12.7365 	 -3.52117
| 17> H 	 -97.8965 	 12.4782 	 -4.08077
| 18> H 	 -98.5208 	 13.7202 	 -3.03686
| 19> C 	 -99.0085 	 11.689 	 -2.45196
| 20> H 	 -98.8095 	 10.6291 	 -2.74815
| 21> H 	 -98.3786 	 11.8843 	 -1.67306
| 22> H 	 -100.078 	 11.6905 	 -2.11906
| 23> S 	 -104.304 	 8.81723 	 -6.76608
| 24> C 	 -105.849 	 8.35258 	 -6.01078
| 25> C 	 -105.72 	 8.4905 	 -4.65328
| 26> C 	 -104.573 	 9.28298 	 -4.25204
| 27> C 	 -103.715 	 9.58719 	 -5.3173
| 28> H 	 -106.578 	 8.21014 	 -4.03297
| 29> C 	 -104.309 	 9.60284 	 -2.80237
| 30> H 	 -104.515 	 10.6884 	 -2.83572
| 31> H 	 -103.286 	 9.41943 	 -2.54958
| 32> C 	 -105.213 	 8.97396 	 -1.7259
| 33> H 	 -105.189 	 7.82319 	 -1.84021
| 34> H 	 -106.322 	 9.26231 	 -1.72736
| 35> C 	 -104.764 	 9.49822 	 -0.327586
| 36> H 	 -104.988 	 10.5875 	 -0.307414
| 37> H 	 -103.651 	 9.45096 	 -0.215552
| 38> H 	 -105.301 	 9.04738 	 0.49356
| 39> H 	 -99.2196 	 11.286 	 -6.48458
| 40> H 	 -106.64 	 7.93637 	 -6.58045
| 41> *
| 42>
| 43>                          ****END OF INPUT****

CARTESIAN COORDINATES (ANGSTROEM)
---------------------------------
  S    -101.133000    9.825030   -6.512950
  C    -100.056000   11.053900   -5.932160
  C    -100.680000   11.797200   -4.958730
  C    -101.927000   11.299700   -4.594440
  C    -102.372000   10.242700   -5.346460
  H    -102.532000   11.677100   -3.826760
  C    -100.116000   12.998300   -4.296000
  H    -100.827000   13.479100   -3.677510
  H    -99.915500   13.774800   -5.058670
  C    -98.792900   12.736500   -3.521170
  H    -97.896500   12.478200   -4.080770
  H    -98.520800   13.720200   -3.036860
  C    -99.008500   11.689000   -2.451960
  H    -98.809500   10.629100   -2.748150
  H    -98.378600   11.884300   -1.673060
  H    -100.078000   11.690500   -2.119060
  S    -104.304000    8.817230   -6.766080
  C    -105.849000    8.352580   -6.010780
  C    -105.720000    8.490500   -4.653280
  C    -104.573000    9.282980   -4.252040
  C    -103.715000    9.587190   -5.317300
  H    -106.578000    8.210140   -4.032970
  C    -104.309000    9.602840   -2.802370
  H    -104.515000   10.688400   -2.835720
  H    -103.286000    9.419430   -2.549580
  C    -105.213000    8.973960   -1.725900
  H    -105.189000    7.823190   -1.840210
  H    -106.322000    9.262310   -1.727360
  C    -104.764000    9.498220   -0.327586
  H    -104.988000   10.587500   -0.307414
  H    -103.651000    9.450960   -0.215552
  H    -105.301000    9.047380    0.493560
  H    -99.219600   11.286000   -6.484580
  H    -106.640000    7.936370   -6.580450

 Total Charge           Charge          ....    0
 Multiplicity           Mult            ....    1
 Number of Electrons    NEL             ....  134
 Basis Dimension        Dim             ....  322

ORBITAL ENERGIES
----------------

  NO   OCC          E(Eh)            E(eV)
   0   2.0000     -88.964423     -2420.8450
   1   2.0000     -88.961204     -2420.7574
   2   2.0000     -10.332557      -281.1632
   3   2.0000     -10.331448      -281.1330
   4   2.0000     -10.318808      -280.7891
   5   2.0000     -10.307824      -280.4902
   6   2.0000     -10.305380      -280.4236
   7   2.0000     -10.304822      -280.4085
   8   2.0000     -10.297789      -280.2171
   9   2.0000     -10.295162      -280.1456
  10   2.0000     -10.294386      -280.1245
  11   2.0000     -10.288993      -279.9777
  12   2.0000     -10.287898      -279.9479
  13   2.0000     -10.286734      -279.9163
  14   2.0000     -10.284652      -279.8596
  15   2.0000     -10.269729      -279.4535
  16   2.0000      -8.079525      -219.8551
  17   2.0000      -8.075917      -219.7569
  18   2.0000      -6.038023      -164.3030
  19   2.0000      -6.034501      -164.2071
  20   2.0000      -6.033883      -164.1903
  21   2.0000      -6.030491      -164.0980
  22   2.0000      -6.030384      -164.0951
  23   2.0000      -6.026540      -163.9905
  24   2.0000      -1.008586       -27.4450
  25   2.0000      -0.986582       -26.8463
  26   2.0000      -0.913801       -24.8658
  27   2.0000      -0.908757       -24.7285
  28   2.0000      -0.868496       -23.6330
  29   2.0000      -0.853740       -23.2314
  30   2.0000      -0.843727       -22.9590
  31   2.0000      -0.820153       -22.3175
  32   2.0000      -0.781146       -21.2561
  33   2.0000      -0.770319       -20.9614
  34   2.0000      -0.706298       -19.2194
  35   2.0000      -0.701836       -19.0979
  36   2.0000      -0.695784       -18.9332
  37   2.0000      -0.657702       -17.8970
  38   2.0000      -0.645226       -17.5575
  39   2.0000      -0.618760       -16.8373
  40   2.0000      -0.600335       -16.3360
  41   2.0000      -0.575611       -15.6632
  42   2.0000      -0.570742       -15.5307
  43   2.0000      -0.558279       -15.1915
  44   2.0000      -0.541848       -14.7444
  45   2.0000      -0.532602       -14.4928
  46   2.0000      -0.516679       -14.0596
  47   2.0000      -0.510617       -13.8946
  48   2.0000      -0.501950       -13.6588
  49   2.0000      -0.501456       -13.6453
  50   2.0000      -0.486454       -13.2371
  51   2.0000      -0.479571       -13.0498
  52   2.0000      -0.475169       -12.9300
  53   2.0000      -0.468875       -12.7587
  54   2.0000      -0.459065       -12.4918
  55   2.0000      -0.449735       -12.2379
  56   2.0000      -0.440401       -11.9839
  57   2.0000      -0.435988       -11.8638
  58   2.0000      -0.430656       -11.7187
  59   2.0000      -0.427822       -11.6416
  60   2.0000      -0.418486       -11.3876
  61   2.0000      -0.413038       -11.2393
  62   2.0000      -0.409486       -11.1427
  63   2.0000      -0.357744        -9.7347
  64   2.0000      -0.334274        -9.0961
  65   2.0000      -0.324100        -8.8192
  66   2.0000      -0.284868        -7.7517
  67   0.0000       0.022538         0.6133
  68   0.0000       0.074127         2.0171
  69   0.0000       0.108532         2.9533
  70   0.0000       0.127848         3.4789
  71   0.0000       0.133727         3.6389

MULLIKEN ATOMIC CHARGES
-----------------------
   0 S :    0.098504
   1 C :   -0.097756
   2 C :   -0.059091
   3 C :    0.005679
   4 C :   -0.117267
   5 H :   -0.021089
   6 C :    0.083535
   7 H :    0.008023
   8 H :    0.031896
   9 C :   -0.093041
  10 H :    0.033161
  11 H :    0.030250
  12 C :   -0.030534
  13 H :    0.042474
  14 H :    0.014099
  15 H :    0.023493
  16 S :    0.076450
  17 C :   -0.085548
  18 C :   -0.024091
  19 C :   -0.068497
  20 C :   -0.114827
  21 H :    0.032600
  22 C :    0.034474
  23 H :    0.051931
  24 H :    0.042300
  25 C :   -0.135188
  26 H :    0.052022
  27 H :    0.046650
  28 C :   -0.042748
  29 H :    0.029386
  30 H :    0.034990
  31 H :    0.040877
  32 H :    0.024525
  33 H :    0.052360
Sum of atomic charges:   -0.0000000

LOEWDIN ATOMIC CHARGES
----------------------
   0 S :    0.412177
   1 C :   -0.187475
   2 C :   -0.061818
   3 C :   -0.068678
   4 C :   -0.180509
   5 H :    0.020605
   6 C :   -0.031136
   7 H :    0.023651
   8 H :    0.036441
   9 C :   -0.040960
  10 H :    0.023310
  11 H :    0.027826
  12 C :   -0.065661
  13 H :    0.033056
  14 H :    0.011940
  15 H :    0.027482
  16 S :    0.386366
  17 C :   -0.162854
  18 C :   -0.074695
  19 C :   -0.057658
  20 C :   -0.198130
  21 H :    0.035903
  22 C :   -0.038908
  23 H :    0.041392
  24 H :    0.031493
  25 C :   -0.054040
  26 H :    0.030622
  27 H :    0.031859
  28 C :   -0.067657
  29 H :    0.028359
  30 H :    0.026745
  31 H :    0.024832
  32 H :    0.012004
  33 H :    0.024115

  Mayer bond orders larger than 0.100000
B(  0-S ,  1-C ) :   1.1471 B(  0-S ,  4-C ) :   1.1652 B(  1-C ,  2-C ) :   1.5670
B(  1-C ,  4-C ) :   0.1019 B(  1-C , 32-H ) :   0.9838 B(  2-C ,  3-C ) :   1.2703
B(  2-C ,  6-C ) :   1.0341 B(  3-C ,  4-C ) :   1.5387 B(  3-C ,  5-H ) :   1.0077
B(  4-C , 20-C ) :   1.0555 B(  6-C ,  7-H ) :   0.9408 B(  6-C ,  8-H ) :   0.9296
B(  6-C ,  9-C ) :   1.0794 B(  9-C , 10-H ) :   0.9566 B(  9-C , 11-H ) :   0.9597
B(  9-C , 12-C ) :   1.0671 B( 12-C , 13-H ) :   0.9710 B( 12-C , 14-H ) :   0.9729
B( 12-C , 15-H ) :   0.9784 B( 16-S , 17-C ) :   1.1508 B( 16-S , 20-C ) :   1.1327
B( 17-C , 18-C ) :   1.5924 B( 17-C , 33-H ) :   0.9748 B( 18-C , 19-C ) :   1.2551
B( 18-C , 21-H ) :   0.9804 B( 19-C , 20-C ) :   1.5823 B( 19-C , 22-C ) :   1.0192
B( 22-C , 23-H ) :   0.9236 B( 22-C , 24-H ) :   0.9379 B( 22-C , 25-C ) :   1.0819
B( 25-C , 26-H ) :   0.9497 B( 25-C , 27-H ) :   0.9501 B( 25-C , 28-C ) :   1.0688
B( 28-C , 29-H ) :   0.9746 B( 28-C , 30-H ) :   0.9755 B( 28-C , 31-H ) :   0.9735

Dispersion correction           -0.014054903
FINAL SINGLE POINT ENERGY     -1339.872736798764

DIPOLE MOMENT
-------------
                                X             Y             Z
Electronic contribution:     -4.81607      -9.45143     -28.19813
Nuclear contribution   :      4.69330       9.79467      28.82703
                        -----------------------------------------
Total Dipole Moment    :     -0.12277       0.34325       0.62889
                        -----------------------------------------
Magnitude (a.u.)       :      0.72691
Magnitude (Debye)      :      1.84765

Rotational constants in cm-1:     0.017380     0.009250     0.006356
Rotational constants in MHz :   521.030162   277.303982   190.555719

                             ****ORCA TERMINATED NORMALLY****
TOTAL RUN TIME: 0 days 0 hours 0 minutes 21 seconds 602 msec
