                         Program Version 4.2.1 -  RELEASE  -
|  1> ! wB97X-D3 SP def2-SVP
|  2> %pal
|  3> nprocs 24
|  4> end
|  5>
|  6> * xyz 0 1
|  7> S 	 -130.704 	 64.7731 	 -58.1077
|  8> C 	 -130.76 	 66.4925 	 -57.9555
|  9> C 	 -131.408 	 67.0234 	 -59.0878
| 10> C 	 -131.95 	 66.0067 	 -59.9488
| 11> C 	 -131.904 	 64.7296 	 -59.3482
| 12> H 	 -132.414 	 66.243 	 -60.909
| 13> C 	 -131.657 	 68.4753 	 -59.4676
| 14> H 	 -131.461 	 69.0638 	 -58.5654
| 15> H 	 -132.694 	 68.5826 	 -59.7914
| 16> C 	 -130.672 	 69.1756 	 -60.4884
| 17> H 	 -130.798 	 68.7042 	 -61.5182
| 18> H 	 -130.945 	 70.2759 	 -60.5772
| 19> C 	 -129.184 	 69.2032 	 -60.0175
| 20> H 	 -128.588 	 69.7783 	 -60.7376
| 21> H 	 -129.127 	 69.843 	 -59.0882
| 22> H 	 -128.697 	 68.2508 	 -59.8313
| 23> S 	 -133.434 	 62.5559 	 -58.8107
| 24> C 	 -133.787 	 61.3732 	 -59.9609
| 25> C 	 -133.138 	 61.7071 	 -61.1677
| 26> C 	 -132.378 	 62.9001 	 -61.1153
| 27> C 	 -132.471 	 63.5099 	 -59.8616
| 28> H 	 -133.317 	 61.0423 	 -62.0094
| 29> C 	 -131.488 	 63.3711 	 -62.2412
| 30> H 	 -131.155 	 64.332 	 -62.0486
| 31> H 	 -131.997 	 63.4472 	 -63.1618
| 32> C 	 -130.279 	 62.4535 	 -62.5098
| 33> H 	 -130.766 	 61.4581 	 -62.5984
| 34> H 	 -129.606 	 62.5288 	 -61.6351
| 35> C 	 -129.476 	 62.8794 	 -63.693
| 36> H 	 -130.107 	 62.9533 	 -64.5436
| 37> H 	 -128.672 	 62.157 	 -63.862
| 38> H 	 -129.064 	 63.9052 	 -63.5654
| 39> H 	 -130.298 	 67.1847 	 -57.2931
| 40> H 	 -134.573 	 60.6257 	 -59.927
| 41> *
| 42>
| 43>                          ****END OF INPUT****

CARTESIAN COORDINATES (ANGSTROEM)
---------------------------------
  S    -130.704000   64.773100  -58.107700
  C    -130.760000   66.492500  -57.955500
  C    -131.408000   67.023400  -59.087800
  C    -131.950000   66.006700  -59.948800
  C    -131.904000   64.729600  -59.348200
  H    -132.414000   66.243000  -60.909000
  C    -131.657000   68.475300  -59.467600
  H    -131.461000   69.063800  -58.565400
  H    -132.694000   68.582600  -59.791400
  C    -130.672000   69.175600  -60.488400
  H    -130.798000   68.704200  -61.518200
  H    -130.945000   70.275900  -60.577200
  C    -129.184000   69.203200  -60.017500
  H    -128.588000   69.778300  -60.737600
  H    -129.127000   69.843000  -59.088200
  H    -128.697000   68.250800  -59.831300
  S    -133.434000   62.555900  -58.810700
  C    -133.787000   61.373200  -59.960900
  C    -133.138000   61.707100  -61.167700
  C    -132.378000   62.900100  -61.115300
  C    -132.471000   63.509900  -59.861600
  H    -133.317000   61.042300  -62.009400
  C    -131.488000   63.371100  -62.241200
  H    -131.155000   64.332000  -62.048600
  H    -131.997000   63.447200  -63.161800
  C    -130.279000   62.453500  -62.509800
  H    -130.766000   61.458100  -62.598400
  H    -129.606000   62.528800  -61.635100
  C    -129.476000   62.879400  -63.693000
  H    -130.107000   62.953300  -64.543600
  H    -128.672000   62.157000  -63.862000
  H    -129.064000   63.905200  -63.565400
  H    -130.298000   67.184700  -57.293100
  H    -134.573000   60.625700  -59.927000

 Total Charge           Charge          ....    0
 Multiplicity           Mult            ....    1
 Number of Electrons    NEL             ....  134
 Basis Dimension        Dim             ....  322

ORBITAL ENERGIES
----------------

  NO   OCC          E(Eh)            E(eV)
   0   2.0000     -88.968342     -2420.9517
   1   2.0000     -88.965750     -2420.8811
   2   2.0000     -10.329956      -281.0924
   3   2.0000     -10.323212      -280.9089
   4   2.0000     -10.315749      -280.7058
   5   2.0000     -10.312868      -280.6274
   6   2.0000     -10.303696      -280.3778
   7   2.0000     -10.303499      -280.3725
   8   2.0000     -10.301510      -280.3183
   9   2.0000     -10.296170      -280.1730
  10   2.0000     -10.295756      -280.1618
  11   2.0000     -10.294341      -280.1233
  12   2.0000     -10.284661      -279.8599
  13   2.0000     -10.283300      -279.8228
  14   2.0000     -10.277717      -279.6709
  15   2.0000     -10.275029      -279.5978
  16   2.0000      -8.083354      -219.9592
  17   2.0000      -8.082125      -219.9258
  18   2.0000      -6.041902      -164.4085
  19   2.0000      -6.040345      -164.3661
  20   2.0000      -6.037881      -164.2991
  21   2.0000      -6.036081      -164.2501
  22   2.0000      -6.033992      -164.1933
  23   2.0000      -6.033390      -164.1769
  24   2.0000      -1.014266       -27.5996
  25   2.0000      -0.989769       -26.9330
  26   2.0000      -0.916051       -24.9270
  27   2.0000      -0.903508       -24.5857
  28   2.0000      -0.869387       -23.6572
  29   2.0000      -0.855479       -23.2788
  30   2.0000      -0.843706       -22.9584
  31   2.0000      -0.810538       -22.0559
  32   2.0000      -0.783806       -21.3285
  33   2.0000      -0.773941       -21.0600
  34   2.0000      -0.706411       -19.2224
  35   2.0000      -0.695504       -18.9256
  36   2.0000      -0.691521       -18.8173
  37   2.0000      -0.659627       -17.9494
  38   2.0000      -0.632348       -17.2071
  39   2.0000      -0.622946       -16.9512
  40   2.0000      -0.599190       -16.3048
  41   2.0000      -0.572369       -15.5750
  42   2.0000      -0.568815       -15.4782
  43   2.0000      -0.548595       -14.9280
  44   2.0000      -0.543021       -14.7764
  45   2.0000      -0.524964       -14.2850
  46   2.0000      -0.522486       -14.2176
  47   2.0000      -0.512602       -13.9486
  48   2.0000      -0.509920       -13.8756
  49   2.0000      -0.498755       -13.5718
  50   2.0000      -0.490932       -13.3589
  51   2.0000      -0.476645       -12.9702
  52   2.0000      -0.472275       -12.8513
  53   2.0000      -0.465534       -12.6678
  54   2.0000      -0.454698       -12.3730
  55   2.0000      -0.447249       -12.1703
  56   2.0000      -0.446659       -12.1542
  57   2.0000      -0.439128       -11.9493
  58   2.0000      -0.426363       -11.6019
  59   2.0000      -0.425769       -11.5858
  60   2.0000      -0.419658       -11.4195
  61   2.0000      -0.416678       -11.3384
  62   2.0000      -0.414853       -11.2887
  63   2.0000      -0.341232        -9.2854
  64   2.0000      -0.332352        -9.0437
  65   2.0000      -0.323319        -8.7979
  66   2.0000      -0.293800        -7.9947
  67   0.0000       0.028077         0.7640
  68   0.0000       0.064451         1.7538
  69   0.0000       0.106611         2.9010
  70   0.0000       0.128051         3.4845
  71   0.0000       0.131543         3.5795

MULLIKEN ATOMIC CHARGES
-----------------------
   0 S :    0.131210
   1 C :   -0.078572
   2 C :   -0.127441
   3 C :    0.032725
   4 C :   -0.154267
   5 H :    0.021135
   6 C :    0.061116
   7 H :    0.012253
   8 H :    0.041968
   9 C :   -0.106373
  10 H :    0.039186
  11 H :    0.045173
  12 C :   -0.079054
  13 H :    0.036691
  14 H :    0.028921
  15 H :    0.051393
  16 S :    0.135695
  17 C :   -0.093132
  18 C :   -0.080552
  19 C :    0.000234
  20 C :   -0.188137
  21 H :    0.022320
  22 C :    0.135643
  23 H :   -0.019774
  24 H :    0.002128
  25 C :   -0.105072
  26 H :    0.032194
  27 H :    0.035225
  28 C :   -0.013927
  29 H :    0.011532
  30 H :    0.043497
  31 H :    0.031668
  32 H :    0.030303
  33 H :    0.064091
Sum of atomic charges:    0.0000000

LOEWDIN ATOMIC CHARGES
----------------------
   0 S :    0.433678
   1 C :   -0.211718
   2 C :   -0.065035
   3 C :   -0.060267
   4 C :   -0.205188
   5 H :    0.030483
   6 C :   -0.036930
   7 H :    0.028698
   8 H :    0.032964
   9 C :   -0.044890
  10 H :    0.023522
  11 H :    0.032996
  12 C :   -0.074946
  13 H :    0.028334
  14 H :    0.028572
  15 H :    0.024146
  16 S :    0.462377
  17 C :   -0.213034
  18 C :   -0.075978
  19 C :   -0.049099
  20 C :   -0.222070
  21 H :    0.029950
  22 C :   -0.024647
  23 H :    0.014882
  24 H :    0.022709
  25 C :   -0.038030
  26 H :    0.025554
  27 H :    0.028007
  28 C :   -0.063689
  29 H :    0.016209
  30 H :    0.030956
  31 H :    0.030917
  32 H :    0.026073
  33 H :    0.034494

  Mayer bond orders larger than 0.100000
B(  0-S ,  1-C ) :   1.1388 B(  0-S ,  4-C ) :   1.1765 B(  1-C ,  2-C ) :   1.5750
B(  1-C ,  4-C ) :   0.1071 B(  1-C , 32-H ) :   0.9705 B(  2-C ,  3-C ) :   1.2702
B(  2-C ,  6-C ) :   1.0310 B(  3-C ,  4-C ) :   1.5167 B(  3-C ,  5-H ) :   0.9941
B(  4-C , 20-C ) :   1.0478 B(  6-C ,  7-H ) :   0.9372 B(  6-C ,  8-H ) :   0.9483
B(  6-C ,  9-C ) :   1.0577 B(  9-C , 10-H ) :   0.9579 B(  9-C , 11-H ) :   0.9577
B(  9-C , 12-C ) :   1.0661 B( 12-C , 13-H ) :   0.9742 B( 12-C , 14-H ) :   0.9735
B( 12-C , 15-H ) :   0.9772 B( 16-S , 17-C ) :   1.1965 B( 16-S , 20-C ) :   1.1780
B( 17-C , 18-C ) :   1.5526 B( 17-C , 20-C ) :   0.1085 B( 17-C , 33-H ) :   0.9673
B( 18-C , 19-C ) :   1.2788 B( 18-C , 21-H ) :   0.9898 B( 19-C , 20-C ) :   1.5304
B( 19-C , 22-C ) :   1.0558 B( 22-C , 23-H ) :   0.9165 B( 22-C , 24-H ) :   0.9252
B( 22-C , 25-C ) :   1.0658 B( 25-C , 26-H ) :   0.9565 B( 25-C , 27-H ) :   0.9526
B( 25-C , 28-C ) :   1.0938 B( 28-C , 29-H ) :   0.9703 B( 28-C , 30-H ) :   0.9713
B( 28-C , 31-H ) :   0.9691

Dispersion correction           -0.014132966
FINAL SINGLE POINT ENERGY     -1339.873335072806

DIPOLE MOMENT
-------------
                                X             Y             Z
Electronic contribution:    -13.15806     -15.11368      19.44559
Nuclear contribution   :     13.19603      15.42831     -20.04470
                        -----------------------------------------
Total Dipole Moment    :      0.03797       0.31463      -0.59910
                        -----------------------------------------
Magnitude (a.u.)       :      0.67776
Magnitude (Debye)      :      1.72273

Rotational constants in cm-1:     0.018555     0.008626     0.006763
Rotational constants in MHz :   556.272299   258.605180   202.743954

                             ****ORCA TERMINATED NORMALLY****
TOTAL RUN TIME: 0 days 0 hours 0 minutes 21 seconds 467 msec
