                         Program Version 4.2.1 -  RELEASE  -
|  1> ! wB97X-D3 SP def2-SVP
|  2> %pal
|  3> nprocs 24
|  4> end
|  5>
|  6> * xyz 0 1
|  7> S 	 -125.434 	 68.8476 	 -51.4546
|  8> C 	 -125.218 	 68.4233 	 -53.1314
|  9> C 	 -124.045 	 68.924 	 -53.6954
| 10> C 	 -123.253 	 69.5881 	 -52.6866
| 11> C 	 -123.813 	 69.511 	 -51.4254
| 12> H 	 -122.341 	 70.1414 	 -52.764
| 13> C 	 -123.57 	 68.5888 	 -55.0785
| 14> H 	 -123.867 	 67.5429 	 -55.3782
| 15> H 	 -122.526 	 68.5447 	 -54.9622
| 16> C 	 -124.095 	 69.5598 	 -56.2108
| 17> H 	 -123.826 	 70.5364 	 -55.9555
| 18> H 	 -123.643 	 69.3653 	 -57.1547
| 19> C 	 -125.602 	 69.4548 	 -56.3816
| 20> H 	 -125.991 	 68.4167 	 -56.4564
| 21> H 	 -126.018 	 69.9037 	 -55.4749
| 22> H 	 -125.758 	 70.1114 	 -57.2424
| 23> S 	 -124.39 	 71.468 	 -49.6001
| 24> C 	 -123.188 	 71.7905 	 -48.3819
| 25> C 	 -122.135 	 70.8757 	 -48.3855
| 26> C 	 -122.208 	 69.9501 	 -49.4684
| 27> C 	 -123.337 	 70.1772 	 -50.2081
| 28> H 	 -121.438 	 70.9614 	 -47.6039
| 29> C 	 -121.287 	 68.739 	 -49.6338
| 30> H 	 -120.756 	 68.8011 	 -50.577
| 31> H 	 -121.858 	 67.8606 	 -49.5591
| 32> C 	 -120.203 	 68.6149 	 -48.5255
| 33> H 	 -120.626 	 68.4729 	 -47.5444
| 34> H 	 -119.63 	 69.5658 	 -48.5524
| 35> C 	 -119.306 	 67.4111 	 -48.6966
| 36> H 	 -118.343 	 67.43 	 -48.2164
| 37> H 	 -119.084 	 67.2745 	 -49.7752
| 38> H 	 -119.759 	 66.4058 	 -48.3992
| 39> H 	 -125.958 	 67.8715 	 -53.7826
| 40> H 	 -123.357 	 72.4839 	 -47.5495
| 41> *
| 42>
| 43>                          ****END OF INPUT****

CARTESIAN COORDINATES (ANGSTROEM)
---------------------------------
  S    -125.434000   68.847600  -51.454600
  C    -125.218000   68.423300  -53.131400
  C    -124.045000   68.924000  -53.695400
  C    -123.253000   69.588100  -52.686600
  C    -123.813000   69.511000  -51.425400
  H    -122.341000   70.141400  -52.764000
  C    -123.570000   68.588800  -55.078500
  H    -123.867000   67.542900  -55.378200
  H    -122.526000   68.544700  -54.962200
  C    -124.095000   69.559800  -56.210800
  H    -123.826000   70.536400  -55.955500
  H    -123.643000   69.365300  -57.154700
  C    -125.602000   69.454800  -56.381600
  H    -125.991000   68.416700  -56.456400
  H    -126.018000   69.903700  -55.474900
  H    -125.758000   70.111400  -57.242400
  S    -124.390000   71.468000  -49.600100
  C    -123.188000   71.790500  -48.381900
  C    -122.135000   70.875700  -48.385500
  C    -122.208000   69.950100  -49.468400
  C    -123.337000   70.177200  -50.208100
  H    -121.438000   70.961400  -47.603900
  C    -121.287000   68.739000  -49.633800
  H    -120.756000   68.801100  -50.577000
  H    -121.858000   67.860600  -49.559100
  C    -120.203000   68.614900  -48.525500
  H    -120.626000   68.472900  -47.544400
  H    -119.630000   69.565800  -48.552400
  C    -119.306000   67.411100  -48.696600
  H    -118.343000   67.430000  -48.216400
  H    -119.084000   67.274500  -49.775200
  H    -119.759000   66.405800  -48.399200
  H    -125.958000   67.871500  -53.782600
  H    -123.357000   72.483900  -47.549500

 Total Charge           Charge          ....    0
 Multiplicity           Mult            ....    1
 Number of Electrons    NEL             ....  134
 Basis Dimension        Dim             ....  322

ORBITAL ENERGIES
----------------

  NO   OCC          E(Eh)            E(eV)
   0   2.0000     -88.966942     -2420.9136
   1   2.0000     -88.966034     -2420.8889
   2   2.0000     -10.324879      -280.9542
   3   2.0000     -10.322247      -280.8826
   4   2.0000     -10.316519      -280.7268
   5   2.0000     -10.316141      -280.7165
   6   2.0000     -10.302979      -280.3583
   7   2.0000     -10.301991      -280.3314
   8   2.0000     -10.293998      -280.1139
   9   2.0000     -10.291420      -280.0438
  10   2.0000     -10.291388      -280.0429
  11   2.0000     -10.290590      -280.0212
  12   2.0000     -10.287865      -279.9470
  13   2.0000     -10.281875      -279.7841
  14   2.0000     -10.279637      -279.7232
  15   2.0000     -10.277187      -279.6565
  16   2.0000      -8.081733      -219.9151
  17   2.0000      -8.080720      -219.8876
  18   2.0000      -6.040172      -164.3614
  19   2.0000      -6.039090      -164.3320
  20   2.0000      -6.036339      -164.2571
  21   2.0000      -6.035390      -164.2313
  22   2.0000      -6.032463      -164.1517
  23   2.0000      -6.031473      -164.1247
  24   2.0000      -1.005338       -27.3566
  25   2.0000      -0.981642       -26.7118
  26   2.0000      -0.911415       -24.8009
  27   2.0000      -0.909590       -24.7512
  28   2.0000      -0.864926       -23.5358
  29   2.0000      -0.854630       -23.2557
  30   2.0000      -0.847919       -23.0731
  31   2.0000      -0.811603       -22.0848
  32   2.0000      -0.782994       -21.3063
  33   2.0000      -0.770345       -20.9622
  34   2.0000      -0.704614       -19.1735
  35   2.0000      -0.699523       -19.0350
  36   2.0000      -0.690221       -18.7819
  37   2.0000      -0.653853       -17.7922
  38   2.0000      -0.639996       -17.4152
  39   2.0000      -0.615172       -16.7397
  40   2.0000      -0.597935       -16.2706
  41   2.0000      -0.577724       -15.7207
  42   2.0000      -0.569398       -15.4941
  43   2.0000      -0.549160       -14.9434
  44   2.0000      -0.544050       -14.8044
  45   2.0000      -0.521075       -14.1792
  46   2.0000      -0.516352       -14.0507
  47   2.0000      -0.510243       -13.8844
  48   2.0000      -0.501661       -13.6509
  49   2.0000      -0.487870       -13.2756
  50   2.0000      -0.482379       -13.1262
  51   2.0000      -0.480464       -13.0741
  52   2.0000      -0.468536       -12.7495
  53   2.0000      -0.465576       -12.6690
  54   2.0000      -0.460098       -12.5199
  55   2.0000      -0.456856       -12.4317
  56   2.0000      -0.446165       -12.1408
  57   2.0000      -0.435152       -11.8411
  58   2.0000      -0.430173       -11.7056
  59   2.0000      -0.425629       -11.5819
  60   2.0000      -0.422617       -11.5000
  61   2.0000      -0.418276       -11.3819
  62   2.0000      -0.417449       -11.3594
  63   2.0000      -0.340466        -9.2645
  64   2.0000      -0.334748        -9.1090
  65   2.0000      -0.325945        -8.8694
  66   2.0000      -0.294042        -8.0013
  67   0.0000       0.035964         0.9786
  68   0.0000       0.059980         1.6321
  69   0.0000       0.109701         2.9851
  70   0.0000       0.120179         3.2702
  71   0.0000       0.133803         3.6410

MULLIKEN ATOMIC CHARGES
-----------------------
   0 S :    0.112950
   1 C :   -0.126625
   2 C :   -0.098427
   3 C :    0.051362
   4 C :   -0.180528
   5 H :    0.008414
   6 C :    0.048497
   7 H :    0.033268
   8 H :    0.013589
   9 C :   -0.029108
  10 H :    0.012934
  11 H :    0.020659
  12 C :   -0.070385
  13 H :    0.037879
  14 H :    0.042837
  15 H :    0.041309
  16 S :    0.115311
  17 C :   -0.092594
  18 C :   -0.043703
  19 C :   -0.026257
  20 C :   -0.180175
  21 H :    0.002636
  22 C :    0.120832
  23 H :    0.028678
  24 H :    0.032267
  25 C :   -0.112110
  26 H :    0.034516
  27 H :    0.039475
  28 C :   -0.051454
  29 H :    0.034102
  30 H :    0.019094
  31 H :    0.037942
  32 H :    0.063607
  33 H :    0.059207
Sum of atomic charges:   -0.0000000

LOEWDIN ATOMIC CHARGES
----------------------
   0 S :    0.404333
   1 C :   -0.206395
   2 C :   -0.065913
   3 C :   -0.055877
   4 C :   -0.196056
   5 H :    0.030587
   6 C :   -0.031036
   7 H :    0.035352
   8 H :    0.022536
   9 C :   -0.028347
  10 H :    0.016266
  11 H :    0.016962
  12 C :   -0.066949
  13 H :    0.025128
  14 H :    0.026654
  15 H :    0.031438
  16 S :    0.399358
  17 C :   -0.189981
  18 C :   -0.066313
  19 C :   -0.056119
  20 C :   -0.193565
  21 H :    0.023640
  22 C :   -0.017467
  23 H :    0.032570
  24 H :    0.029575
  25 C :   -0.046320
  26 H :    0.023459
  27 H :    0.027140
  28 C :   -0.073567
  29 H :    0.024990
  30 H :    0.023877
  31 H :    0.032330
  32 H :    0.037718
  33 H :    0.029994

  Mayer bond orders larger than 0.100000
B(  0-S ,  1-C ) :   1.1376 B(  0-S ,  4-C ) :   1.1452 B(  1-C ,  2-C ) :   1.6201
B(  1-C , 32-H ) :   0.9559 B(  2-C ,  3-C ) :   1.2211 B(  2-C ,  6-C ) :   1.0089
B(  3-C ,  4-C ) :   1.6070 B(  3-C ,  5-H ) :   0.9927 B(  4-C , 20-C ) :   1.0167
B(  6-C ,  7-H ) :   0.9532 B(  6-C ,  8-H ) :   0.9436 B(  6-C ,  9-C ) :   1.0580
B(  9-C , 10-H ) :   0.9554 B(  9-C , 11-H ) :   0.9615 B(  9-C , 12-C ) :   1.0744
B( 12-C , 13-H ) :   0.9758 B( 12-C , 14-H ) :   0.9726 B( 12-C , 15-H ) :   0.9724
B( 16-S , 17-C ) :   1.1513 B( 16-S , 20-C ) :   1.1451 B( 17-C , 18-C ) :   1.6209
B( 17-C , 33-H ) :   0.9590 B( 18-C , 19-C ) :   1.2253 B( 18-C , 21-H ) :   0.9955
B( 19-C , 20-C ) :   1.6378 B( 19-C , 22-C ) :   1.0235 B( 22-C , 23-H ) :   0.9203
B( 22-C , 24-H ) :   0.9356 B( 22-C , 25-C ) :   1.0965 B( 25-C , 26-H ) :   0.9513
B( 25-C , 27-H ) :   0.9497 B( 25-C , 28-C ) :   1.0827 B( 28-C , 29-H ) :   0.9725
B( 28-C , 30-H ) :   0.9719 B( 28-C , 31-H ) :   0.9731

Dispersion correction           -0.013804410
FINAL SINGLE POINT ENERGY     -1339.876652914531

DIPOLE MOMENT
-------------
                                X             Y             Z
Electronic contribution:    -15.28852       9.70358      12.02179
Nuclear contribution   :     15.77878      -9.85302     -12.17256
                        -----------------------------------------
Total Dipole Moment    :      0.49026      -0.14944      -0.15077
                        -----------------------------------------
Magnitude (a.u.)       :      0.53425
Magnitude (Debye)      :      1.35795

Rotational constants in cm-1:     0.020520     0.007500     0.006193
Rotational constants in MHz :   615.183050   224.849442   185.651923

                             ****ORCA TERMINATED NORMALLY****
TOTAL RUN TIME: 0 days 0 hours 0 minutes 21 seconds 57 msec
