                         Program Version 4.2.1 -  RELEASE  -
|  1> ! wB97X-D3 SP def2-SVP
|  2> %pal
|  3> nprocs 24
|  4> end
|  5>
|  6> * xyz 0 1
|  7> S 	 -139.968 	 25.6902 	 -18.1369
|  8> C 	 -140.886 	 24.5159 	 -17.3356
|  9> C 	 -141.504 	 23.5633 	 -18.1562
| 10> C 	 -141.214 	 23.8963 	 -19.5307
| 11> C 	 -140.579 	 25.0959 	 -19.678
| 12> H 	 -141.521 	 23.3998 	 -20.4325
| 13> C 	 -142.126 	 22.1795 	 -17.7377
| 14> H 	 -143.178 	 22.1632 	 -17.9221
| 15> H 	 -142.006 	 21.9416 	 -16.6959
| 16> C 	 -141.668 	 21.027 	 -18.5929
| 17> H 	 -142.222 	 20.0889 	 -18.2955
| 18> H 	 -141.905 	 21.1983 	 -19.6674
| 19> C 	 -140.197 	 20.7182 	 -18.3646
| 20> H 	 -140.012 	 20.6097 	 -17.2616
| 21> H 	 -139.98 	 19.7601 	 -18.7331
| 22> H 	 -139.52 	 21.3726 	 -18.8223
| 23> S 	 -138.521 	 26.3943 	 -20.9051
| 24> C 	 -138.688 	 27.0127 	 -22.5059
| 25> C 	 -139.82 	 26.5161 	 -23.1106
| 26> C 	 -140.675 	 25.833 	 -22.2042
| 27> C 	 -140.214 	 25.7759 	 -20.9247
| 28> H 	 -140.013 	 26.7114 	 -24.1386
| 29> C 	 -141.925 	 25.2677 	 -22.698
| 30> H 	 -142.493 	 26.1459 	 -23.1249
| 31> H 	 -142.444 	 24.935 	 -21.839
| 32> C 	 -141.825 	 24.0147 	 -23.6554
| 33> H 	 -140.984 	 23.3937 	 -23.2523
| 34> H 	 -141.602 	 24.4653 	 -24.6219
| 35> C 	 -142.992 	 23.0355 	 -23.7338
| 36> H 	 -143.578 	 23.0131 	 -22.7955
| 37> H 	 -142.617 	 22.0038 	 -23.9282
| 38> H 	 -143.694 	 23.3614 	 -24.5018
| 39> H 	 -140.974 	 24.4195 	 -16.2763
| 40> H 	 -137.898 	 27.5611 	 -22.9954
| 41> *
| 42>
| 43>                          ****END OF INPUT****

CARTESIAN COORDINATES (ANGSTROEM)
---------------------------------
  S    -139.968000   25.690200  -18.136900
  C    -140.886000   24.515900  -17.335600
  C    -141.504000   23.563300  -18.156200
  C    -141.214000   23.896300  -19.530700
  C    -140.579000   25.095900  -19.678000
  H    -141.521000   23.399800  -20.432500
  C    -142.126000   22.179500  -17.737700
  H    -143.178000   22.163200  -17.922100
  H    -142.006000   21.941600  -16.695900
  C    -141.668000   21.027000  -18.592900
  H    -142.222000   20.088900  -18.295500
  H    -141.905000   21.198300  -19.667400
  C    -140.197000   20.718200  -18.364600
  H    -140.012000   20.609700  -17.261600
  H    -139.980000   19.760100  -18.733100
  H    -139.520000   21.372600  -18.822300
  S    -138.521000   26.394300  -20.905100
  C    -138.688000   27.012700  -22.505900
  C    -139.820000   26.516100  -23.110600
  C    -140.675000   25.833000  -22.204200
  C    -140.214000   25.775900  -20.924700
  H    -140.013000   26.711400  -24.138600
  C    -141.925000   25.267700  -22.698000
  H    -142.493000   26.145900  -23.124900
  H    -142.444000   24.935000  -21.839000
  C    -141.825000   24.014700  -23.655400
  H    -140.984000   23.393700  -23.252300
  H    -141.602000   24.465300  -24.621900
  C    -142.992000   23.035500  -23.733800
  H    -143.578000   23.013100  -22.795500
  H    -142.617000   22.003800  -23.928200
  H    -143.694000   23.361400  -24.501800
  H    -140.974000   24.419500  -16.276300
  H    -137.898000   27.561100  -22.995400

 Total Charge           Charge          ....    0
 Multiplicity           Mult            ....    1
 Number of Electrons    NEL             ....  134
 Basis Dimension        Dim             ....  322

ORBITAL ENERGIES
----------------

  NO   OCC          E(Eh)            E(eV)
   0   2.0000     -88.968571     -2420.9579
   1   2.0000     -88.958720     -2420.6898
   2   2.0000     -10.328476      -281.0521
   3   2.0000     -10.326329      -280.9937
   4   2.0000     -10.314807      -280.6802
   5   2.0000     -10.311339      -280.5858
   6   2.0000     -10.307778      -280.4889
   7   2.0000     -10.296963      -280.1946
   8   2.0000     -10.294381      -280.1244
   9   2.0000     -10.294299      -280.1221
  10   2.0000     -10.292462      -280.0721
  11   2.0000     -10.290918      -280.0301
  12   2.0000     -10.288490      -279.9640
  13   2.0000     -10.287738      -279.9436
  14   2.0000     -10.286045      -279.8975
  15   2.0000     -10.266249      -279.3588
  16   2.0000      -8.084101      -219.9796
  17   2.0000      -8.073807      -219.6995
  18   2.0000      -6.042498      -164.4247
  19   2.0000      -6.038647      -164.3199
  20   2.0000      -6.034770      -164.2144
  21   2.0000      -6.032339      -164.1483
  22   2.0000      -6.028460      -164.0427
  23   2.0000      -6.024337      -163.9305
  24   2.0000      -1.010527       -27.4978
  25   2.0000      -0.988069       -26.8867
  26   2.0000      -0.915094       -24.9010
  27   2.0000      -0.909900       -24.7596
  28   2.0000      -0.870793       -23.6955
  29   2.0000      -0.856729       -23.3128
  30   2.0000      -0.847459       -23.0605
  31   2.0000      -0.814106       -22.1530
  32   2.0000      -0.786251       -21.3950
  33   2.0000      -0.775502       -21.1025
  34   2.0000      -0.705762       -19.2048
  35   2.0000      -0.695985       -18.9387
  36   2.0000      -0.689711       -18.7680
  37   2.0000      -0.664291       -18.0763
  38   2.0000      -0.644495       -17.5376
  39   2.0000      -0.625996       -17.0342
  40   2.0000      -0.595590       -16.2068
  41   2.0000      -0.572549       -15.5798
  42   2.0000      -0.564073       -15.3492
  43   2.0000      -0.555916       -15.1272
  44   2.0000      -0.544846       -14.8260
  45   2.0000      -0.526743       -14.3334
  46   2.0000      -0.518857       -14.1188
  47   2.0000      -0.510351       -13.8874
  48   2.0000      -0.508123       -13.8267
  49   2.0000      -0.498179       -13.5561
  50   2.0000      -0.490280       -13.3412
  51   2.0000      -0.482494       -13.1293
  52   2.0000      -0.472298       -12.8519
  53   2.0000      -0.466256       -12.6875
  54   2.0000      -0.459641       -12.5075
  55   2.0000      -0.454203       -12.3595
  56   2.0000      -0.445343       -12.1184
  57   2.0000      -0.433642       -11.8000
  58   2.0000      -0.431520       -11.7423
  59   2.0000      -0.426804       -11.6139
  60   2.0000      -0.419574       -11.4172
  61   2.0000      -0.416921       -11.3450
  62   2.0000      -0.412536       -11.2257
  63   2.0000      -0.356346        -9.6967
  64   2.0000      -0.331783        -9.0283
  65   2.0000      -0.326662        -8.8889
  66   2.0000      -0.286150        -7.7865
  67   0.0000       0.026174         0.7122
  68   0.0000       0.073663         2.0045
  69   0.0000       0.098086         2.6691
  70   0.0000       0.122627         3.3368
  71   0.0000       0.127254         3.4628

MULLIKEN ATOMIC CHARGES
-----------------------
   0 S :    0.129130
   1 C :   -0.095198
   2 C :   -0.088643
   3 C :    0.013787
   4 C :   -0.148399
   5 H :   -0.002293
   6 C :    0.118344
   7 H :    0.024330
   8 H :    0.017413
   9 C :   -0.143632
  10 H :    0.035945
  11 H :    0.036807
  12 C :   -0.003660
  13 H :    0.022896
  14 H :    0.009644
  15 H :    0.034549
  16 S :    0.062402
  17 C :   -0.075101
  18 C :   -0.019285
  19 C :   -0.074830
  20 C :   -0.096736
  21 H :    0.006323
  22 C :    0.062602
  23 H :    0.045120
  24 H :   -0.009980
  25 C :   -0.097968
  26 H :    0.043424
  27 H :    0.036289
  28 C :   -0.053028
  29 H :    0.031185
  30 H :    0.048849
  31 H :    0.037306
  32 H :    0.035025
  33 H :    0.057381
Sum of atomic charges:    0.0000000

LOEWDIN ATOMIC CHARGES
----------------------
   0 S :    0.425523
   1 C :   -0.206092
   2 C :   -0.058808
   3 C :   -0.061842
   4 C :   -0.190238
   5 H :    0.026263
   6 C :   -0.026773
   7 H :    0.029534
   8 H :    0.025724
   9 C :   -0.046366
  10 H :    0.032216
  11 H :    0.024081
  12 C :   -0.060007
  13 H :    0.030799
  14 H :    0.017222
  15 H :    0.019223
  16 S :    0.377947
  17 C :   -0.178167
  18 C :   -0.068655
  19 C :   -0.065311
  20 C :   -0.172806
  21 H :    0.026808
  22 C :   -0.037353
  23 H :    0.039602
  24 H :    0.016887
  25 C :   -0.042339
  26 H :    0.031890
  27 H :    0.023847
  28 C :   -0.071111
  29 H :    0.026652
  30 H :    0.034475
  31 H :    0.026813
  32 H :    0.022435
  33 H :    0.027930

  Mayer bond orders larger than 0.100000
B(  0-S ,  1-C ) :   1.1573 B(  0-S ,  4-C ) :   1.1418 B(  1-C ,  2-C ) :   1.6232
B(  1-C , 32-H ) :   0.9647 B(  2-C ,  3-C ) :   1.2202 B(  2-C ,  6-C ) :   1.0080
B(  3-C ,  4-C ) :   1.6015 B(  3-C ,  5-H ) :   0.9866 B(  4-C , 20-C ) :   1.0336
B(  6-C ,  7-H ) :   0.9287 B(  6-C ,  8-H ) :   0.9491 B(  6-C ,  9-C ) :   1.0910
B(  9-C , 10-H ) :   0.9533 B(  9-C , 11-H ) :   0.9452 B(  9-C , 12-C ) :   1.0811
B( 12-C , 13-H ) :   0.9723 B( 12-C , 14-H ) :   0.9719 B( 12-C , 15-H ) :   0.9748
B( 16-S , 17-C ) :   1.1571 B( 16-S , 20-C ) :   1.1115 B( 17-C , 18-C ) :   1.6066
B( 17-C , 33-H ) :   0.9693 B( 18-C , 19-C ) :   1.2097 B( 18-C , 21-H ) :   1.0021
B( 19-C , 20-C ) :   1.6371 B( 19-C , 22-C ) :   1.0711 B( 22-C , 23-H ) :   0.9302
B( 22-C , 24-H ) :   0.9243 B( 22-C , 25-C ) :   1.0419 B( 25-C , 26-H ) :   0.9620
B( 25-C , 27-H ) :   0.9570 B( 25-C , 28-C ) :   1.0809 B( 28-C , 29-H ) :   0.9731
B( 28-C , 30-H ) :   0.9784 B( 28-C , 31-H ) :   0.9752

Dispersion correction           -0.014561558
FINAL SINGLE POINT ENERGY     -1339.870010556234

DIPOLE MOMENT
-------------
                                X             Y             Z
Electronic contribution:     14.59331      23.78494       8.42825
Nuclear contribution   :    -14.93515     -24.35072      -8.77136
                        -----------------------------------------
Total Dipole Moment    :     -0.34184      -0.56578      -0.34311
                        -----------------------------------------
Magnitude (a.u.)       :      0.74477
Magnitude (Debye)      :      1.89306

Rotational constants in cm-1:     0.016587     0.010292     0.007199
Rotational constants in MHz :   497.274408   308.540332   215.827859

                             ****ORCA TERMINATED NORMALLY****
TOTAL RUN TIME: 0 days 0 hours 0 minutes 22 seconds 212 msec
