                         Program Version 4.2.1 -  RELEASE  -
|  1> ! wB97X-D3 SP def2-SVP
|  2> %pal
|  3> nprocs 24
|  4> end
|  5>
|  6> * xyz 0 1
|  7> S 	 -50.7042 	 -49.7364 	 -78.8023
|  8> C 	 -50.107 	 -50.1722 	 -80.4277
|  9> C 	 -50.726 	 -51.363 	 -80.8402
| 10> C 	 -51.8133 	 -51.7443 	 -79.9748
| 11> C 	 -51.8889 	 -51.0475 	 -78.8033
| 12> H 	 -52.4424 	 -52.6578 	 -80.1986
| 13> C 	 -50.5173 	 -52.0115 	 -82.2408
| 14> H 	 -50.6433 	 -53.0315 	 -82.0592
| 15> H 	 -49.5176 	 -51.8366 	 -82.6503
| 16> C 	 -51.4947 	 -51.7574 	 -83.3887
| 17> H 	 -51.161 	 -52.2819 	 -84.3477
| 18> H 	 -52.4792 	 -52.2045 	 -83.1233
| 19> C 	 -51.5886 	 -50.2661 	 -83.6797
| 20> H 	 -51.9901 	 -49.516 	 -82.9349
| 21> H 	 -50.6639 	 -49.8948 	 -84.0833
| 22> H 	 -52.3046 	 -50.2602 	 -84.4629
| 23> S 	 -53.2273 	 -52.8464 	 -77.2245
| 24> C 	 -54.5137 	 -52.281 	 -76.1861
| 25> C 	 -54.6358 	 -50.8961 	 -76.305
| 26> C 	 -53.746 	 -50.2751 	 -77.1658
| 27> C 	 -52.9461 	 -51.2138 	 -77.8522
| 28> H 	 -55.385 	 -50.4186 	 -75.7341
| 29> C 	 -53.8231 	 -48.7821 	 -77.3557
| 30> H 	 -52.8402 	 -48.4517 	 -77.3962
| 31> H 	 -54.1283 	 -48.3761 	 -76.4083
| 32> C 	 -54.8316 	 -48.0881 	 -78.3862
| 33> H 	 -55.833 	 -48.6024 	 -78.507
| 34> H 	 -54.3655 	 -48.0692 	 -79.3777
| 35> C 	 -54.882 	 -46.6313 	 -77.9829
| 36> H 	 -55.2787 	 -46.4604 	 -76.9738
| 37> H 	 -55.5979 	 -46.1033 	 -78.6565
| 38> H 	 -53.8515 	 -46.0699 	 -78.018
| 39> H 	 -49.271 	 -49.78 	 -81.0169
| 40> H 	 -55.2333 	 -52.8418 	 -75.6064
| 41> *
| 42>
| 43>                          ****END OF INPUT****

CARTESIAN COORDINATES (ANGSTROEM)
---------------------------------
  S    -50.704200  -49.736400  -78.802300
  C    -50.107000  -50.172200  -80.427700
  C    -50.726000  -51.363000  -80.840200
  C    -51.813300  -51.744300  -79.974800
  C    -51.888900  -51.047500  -78.803300
  H    -52.442400  -52.657800  -80.198600
  C    -50.517300  -52.011500  -82.240800
  H    -50.643300  -53.031500  -82.059200
  H    -49.517600  -51.836600  -82.650300
  C    -51.494700  -51.757400  -83.388700
  H    -51.161000  -52.281900  -84.347700
  H    -52.479200  -52.204500  -83.123300
  C    -51.588600  -50.266100  -83.679700
  H    -51.990100  -49.516000  -82.934900
  H    -50.663900  -49.894800  -84.083300
  H    -52.304600  -50.260200  -84.462900
  S    -53.227300  -52.846400  -77.224500
  C    -54.513700  -52.281000  -76.186100
  C    -54.635800  -50.896100  -76.305000
  C    -53.746000  -50.275100  -77.165800
  C    -52.946100  -51.213800  -77.852200
  H    -55.385000  -50.418600  -75.734100
  C    -53.823100  -48.782100  -77.355700
  H    -52.840200  -48.451700  -77.396200
  H    -54.128300  -48.376100  -76.408300
  C    -54.831600  -48.088100  -78.386200
  H    -55.833000  -48.602400  -78.507000
  H    -54.365500  -48.069200  -79.377700
  C    -54.882000  -46.631300  -77.982900
  H    -55.278700  -46.460400  -76.973800
  H    -55.597900  -46.103300  -78.656500
  H    -53.851500  -46.069900  -78.018000
  H    -49.271000  -49.780000  -81.016900
  H    -55.233300  -52.841800  -75.606400

 Total Charge           Charge          ....    0
 Multiplicity           Mult            ....    1
 Number of Electrons    NEL             ....  134
 Basis Dimension        Dim             ....  322

ORBITAL ENERGIES
----------------

  NO   OCC          E(Eh)            E(eV)
   0   2.0000     -88.970535     -2421.0113
   1   2.0000     -88.969722     -2420.9892
   2   2.0000     -10.329647      -281.0840
   3   2.0000     -10.328321      -281.0479
   4   2.0000     -10.321070      -280.8506
   5   2.0000     -10.315794      -280.7070
   6   2.0000     -10.305847      -280.4364
   7   2.0000     -10.299343      -280.2594
   8   2.0000     -10.297670      -280.2138
   9   2.0000     -10.295632      -280.1584
  10   2.0000     -10.294684      -280.1326
  11   2.0000     -10.287545      -279.9383
  12   2.0000     -10.286938      -279.9218
  13   2.0000     -10.285187      -279.8742
  14   2.0000     -10.284584      -279.8577
  15   2.0000     -10.271395      -279.4989
  16   2.0000      -8.083731      -219.9695
  17   2.0000      -8.083601      -219.9660
  18   2.0000      -6.042493      -164.4246
  19   2.0000      -6.042076      -164.4133
  20   2.0000      -6.038386      -164.3128
  21   2.0000      -6.038132      -164.3059
  22   2.0000      -6.034552      -164.2085
  23   2.0000      -6.034380      -164.2038
  24   2.0000      -1.004639       -27.3376
  25   2.0000      -0.979846       -26.6630
  26   2.0000      -0.909915       -24.7600
  27   2.0000      -0.905091       -24.6288
  28   2.0000      -0.870406       -23.6849
  29   2.0000      -0.854983       -23.2653
  30   2.0000      -0.841967       -22.9111
  31   2.0000      -0.809720       -22.0336
  32   2.0000      -0.784005       -21.3339
  33   2.0000      -0.770314       -20.9613
  34   2.0000      -0.707963       -19.2646
  35   2.0000      -0.695919       -18.9369
  36   2.0000      -0.689424       -18.7602
  37   2.0000      -0.665709       -18.1149
  38   2.0000      -0.626130       -17.0379
  39   2.0000      -0.618629       -16.8338
  40   2.0000      -0.594723       -16.1832
  41   2.0000      -0.564820       -15.3695
  42   2.0000      -0.558746       -15.2042
  43   2.0000      -0.551691       -15.0123
  44   2.0000      -0.541601       -14.7377
  45   2.0000      -0.523377       -14.2418
  46   2.0000      -0.516042       -14.0422
  47   2.0000      -0.514141       -13.9905
  48   2.0000      -0.507135       -13.7998
  49   2.0000      -0.494120       -13.4457
  50   2.0000      -0.484971       -13.1967
  51   2.0000      -0.479531       -13.0487
  52   2.0000      -0.466326       -12.6894
  53   2.0000      -0.462835       -12.5944
  54   2.0000      -0.453341       -12.3360
  55   2.0000      -0.450658       -12.2630
  56   2.0000      -0.447655       -12.1813
  57   2.0000      -0.433034       -11.7835
  58   2.0000      -0.427022       -11.6199
  59   2.0000      -0.421273       -11.4634
  60   2.0000      -0.418678       -11.3928
  61   2.0000      -0.414340       -11.2748
  62   2.0000      -0.409183       -11.1344
  63   2.0000      -0.348913        -9.4944
  64   2.0000      -0.334411        -9.0998
  65   2.0000      -0.329164        -8.9570
  66   2.0000      -0.287083        -7.8119
  67   0.0000       0.021788         0.5929
  68   0.0000       0.073757         2.0070
  69   0.0000       0.107381         2.9220
  70   0.0000       0.115365         3.1392
  71   0.0000       0.122202         3.3253

MULLIKEN ATOMIC CHARGES
-----------------------
   0 S :    0.105795
   1 C :   -0.122345
   2 C :   -0.088074
   3 C :   -0.029895
   4 C :   -0.107253
   5 H :    0.041527
   6 C :    0.082422
   7 H :    0.009524
   8 H :    0.022115
   9 C :   -0.100715
  10 H :    0.045017
  11 H :    0.030212
  12 C :   -0.046030
  13 H :    0.057037
  14 H :    0.018562
  15 H :    0.015572
  16 S :    0.115371
  17 C :   -0.084955
  18 C :   -0.045573
  19 C :   -0.025031
  20 C :   -0.166946
  21 H :   -0.000465
  22 C :    0.104922
  23 H :   -0.003211
  24 H :   -0.003681
  25 C :   -0.039499
  26 H :    0.049649
  27 H :    0.039046
  28 C :   -0.108923
  29 H :    0.032664
  30 H :    0.038288
  31 H :    0.053679
  32 H :    0.057382
  33 H :    0.053812
Sum of atomic charges:   -0.0000000

LOEWDIN ATOMIC CHARGES
----------------------
   0 S :    0.392105
   1 C :   -0.192971
   2 C :   -0.059200
   3 C :   -0.070047
   4 C :   -0.192502
   5 H :    0.040238
   6 C :   -0.034542
   7 H :    0.021708
   8 H :    0.028267
   9 C :   -0.040935
  10 H :    0.037247
  11 H :    0.022918
  12 C :   -0.073617
  13 H :    0.036592
  14 H :    0.019549
  15 H :    0.020732
  16 S :    0.414115
  17 C :   -0.193408
  18 C :   -0.065696
  19 C :   -0.059930
  20 C :   -0.188414
  21 H :    0.024025
  22 C :   -0.030708
  23 H :    0.014149
  24 H :    0.027868
  25 C :   -0.037708
  26 H :    0.034857
  27 H :    0.029194
  28 C :   -0.079393
  29 H :    0.019579
  30 H :    0.028103
  31 H :    0.040010
  32 H :    0.036462
  33 H :    0.031355

  Mayer bond orders larger than 0.100000
B(  0-S ,  1-C ) :   1.1266 B(  0-S ,  4-C ) :   1.1191 B(  1-C ,  2-C ) :   1.6106
B(  1-C , 32-H ) :   0.9637 B(  2-C ,  3-C ) :   1.2328 B(  2-C ,  6-C ) :   1.0330
B(  3-C ,  4-C ) :   1.5755 B(  3-C ,  5-H ) :   0.9786 B(  4-C , 20-C ) :   1.0758
B(  6-C ,  7-H ) :   0.9321 B(  6-C ,  8-H ) :   0.9467 B(  6-C ,  9-C ) :   1.0783
B(  9-C , 10-H ) :   0.9507 B(  9-C , 11-H ) :   0.9539 B(  9-C , 12-C ) :   1.0743
B( 12-C , 13-H ) :   0.9732 B( 12-C , 14-H ) :   0.9740 B( 12-C , 15-H ) :   0.9729
B( 16-S , 17-C ) :   1.1555 B( 16-S , 20-C ) :   1.1543 B( 17-C , 18-C ) :   1.5810
B( 17-C , 20-C ) :   0.1112 B( 17-C , 33-H ) :   0.9660 B( 18-C , 19-C ) :   1.2829
B( 18-C , 21-H ) :   0.9958 B( 19-C , 20-C ) :   1.5195 B( 19-C , 22-C ) :   1.0442
B( 22-C , 23-H ) :   0.9180 B( 22-C , 24-H ) :   0.9331 B( 22-C , 25-C ) :   1.0388
B( 25-C , 26-H ) :   0.9589 B( 25-C , 27-H ) :   0.9529 B( 25-C , 28-C ) :   1.0727
B( 28-C , 29-H ) :   0.9752 B( 28-C , 30-H ) :   0.9716 B( 28-C , 31-H ) :   0.9721

Dispersion correction           -0.014164077
FINAL SINGLE POINT ENERGY     -1339.859948159446

DIPOLE MOMENT
-------------
                                X             Y             Z
Electronic contribution:      6.92583     -13.50483      17.23187
Nuclear contribution   :     -7.25545      13.64625     -17.62567
                        -----------------------------------------
Total Dipole Moment    :     -0.32962       0.14142      -0.39380
                        -----------------------------------------
Magnitude (a.u.)       :      0.53266
Magnitude (Debye)      :      1.35392

Rotational constants in cm-1:     0.017537     0.008727     0.007061
Rotational constants in MHz :   525.732117   261.631801   211.688859

                             ****ORCA TERMINATED NORMALLY****
TOTAL RUN TIME: 0 days 0 hours 0 minutes 20 seconds 100 msec
