                         Program Version 4.2.1 -  RELEASE  -
|  1> ! wB97X-D3 SP def2-SVP
|  2> %pal
|  3> nprocs 24
|  4> end
|  5>
|  6> * xyz 0 1
|  7> S 	 48.6425 	 -23.7404 	 -115.58
|  8> C 	 46.9126 	 -23.8965 	 -115.405
|  9> C 	 46.3042 	 -22.668 	 -115.21
| 10> C 	 47.2078 	 -21.5606 	 -115.17
| 11> C 	 48.5408 	 -21.9774 	 -115.348
| 12> H 	 47.0952 	 -20.4801 	 -115.13
| 13> C 	 44.8738 	 -22.5511 	 -114.847
| 14> H 	 44.3432 	 -23.4842 	 -115.238
| 15> H 	 44.5551 	 -21.7231 	 -115.388
| 16> C 	 44.5053 	 -22.3196 	 -113.402
| 17> H 	 45.1371 	 -21.5604 	 -112.973
| 18> H 	 43.4828 	 -21.9868 	 -113.353
| 19> C 	 44.6253 	 -23.6284 	 -112.569
| 20> H 	 45.6422 	 -23.8796 	 -112.383
| 21> H 	 44.1753 	 -23.4744 	 -111.615
| 22> H 	 44.0045 	 -24.3249 	 -113.063
| 23> S 	 50.3674 	 -20.6571 	 -116.97
| 24> C 	 51.732 	 -19.9026 	 -116.211
| 25> C 	 51.5611 	 -19.8042 	 -114.838
| 26> C 	 50.3847 	 -20.5075 	 -114.382
| 27> C 	 49.7106 	 -21.1513 	 -115.422
| 28> H 	 52.1796 	 -19.1664 	 -114.297
| 29> C 	 50.0903 	 -20.6669 	 -112.913
| 30> H 	 49.133 	 -21.2579 	 -112.778
| 31> H 	 49.9821 	 -19.6147 	 -112.587
| 32> C 	 51.1878 	 -21.3935 	 -112.13
| 33> H 	 52.2334 	 -20.9798 	 -112.226
| 34> H 	 51.2188 	 -22.4217 	 -112.515
| 35> C 	 50.9565 	 -21.4577 	 -110.644
| 36> H 	 49.9993 	 -21.9698 	 -110.383
| 37> H 	 50.8549 	 -20.4457 	 -110.253
| 38> H 	 51.748 	 -21.9404 	 -110.102
| 39> H 	 46.3411 	 -24.8667 	 -115.412
| 40> H 	 52.6542 	 -19.4217 	 -116.634
| 41> *
| 42>
| 43>                          ****END OF INPUT****

CARTESIAN COORDINATES (ANGSTROEM)
---------------------------------
  S     48.642500  -23.740400  -115.580000
  C     46.912600  -23.896500  -115.405000
  C     46.304200  -22.668000  -115.210000
  C     47.207800  -21.560600  -115.170000
  C     48.540800  -21.977400  -115.348000
  H     47.095200  -20.480100  -115.130000
  C     44.873800  -22.551100  -114.847000
  H     44.343200  -23.484200  -115.238000
  H     44.555100  -21.723100  -115.388000
  C     44.505300  -22.319600  -113.402000
  H     45.137100  -21.560400  -112.973000
  H     43.482800  -21.986800  -113.353000
  C     44.625300  -23.628400  -112.569000
  H     45.642200  -23.879600  -112.383000
  H     44.175300  -23.474400  -111.615000
  H     44.004500  -24.324900  -113.063000
  S     50.367400  -20.657100  -116.970000
  C     51.732000  -19.902600  -116.211000
  C     51.561100  -19.804200  -114.838000
  C     50.384700  -20.507500  -114.382000
  C     49.710600  -21.151300  -115.422000
  H     52.179600  -19.166400  -114.297000
  C     50.090300  -20.666900  -112.913000
  H     49.133000  -21.257900  -112.778000
  H     49.982100  -19.614700  -112.587000
  C     51.187800  -21.393500  -112.130000
  H     52.233400  -20.979800  -112.226000
  H     51.218800  -22.421700  -112.515000
  C     50.956500  -21.457700  -110.644000
  H     49.999300  -21.969800  -110.383000
  H     50.854900  -20.445700  -110.253000
  H     51.748000  -21.940400  -110.102000
  H     46.341100  -24.866700  -115.412000
  H     52.654200  -19.421700  -116.634000

 Total Charge           Charge          ....    0
 Multiplicity           Mult            ....    1
 Number of Electrons    NEL             ....  134
 Basis Dimension        Dim             ....  322

ORBITAL ENERGIES
----------------

  NO   OCC          E(Eh)            E(eV)
   0   2.0000     -88.966228     -2420.8941
   1   2.0000     -88.965635     -2420.8780
   2   2.0000     -10.329828      -281.0889
   3   2.0000     -10.321391      -280.8593
   4   2.0000     -10.320153      -280.8256
   5   2.0000     -10.318040      -280.7681
   6   2.0000     -10.303853      -280.3821
   7   2.0000     -10.300427      -280.2889
   8   2.0000     -10.299343      -280.2594
   9   2.0000     -10.295449      -280.1534
  10   2.0000     -10.288983      -279.9775
  11   2.0000     -10.286417      -279.9076
  12   2.0000     -10.283904      -279.8393
  13   2.0000     -10.281823      -279.7826
  14   2.0000     -10.274273      -279.5772
  15   2.0000     -10.267625      -279.3963
  16   2.0000      -8.080474      -219.8809
  17   2.0000      -8.080441      -219.8800
  18   2.0000      -6.038998      -164.3295
  19   2.0000      -6.038897      -164.3267
  20   2.0000      -6.035020      -164.2212
  21   2.0000      -6.034964      -164.2197
  22   2.0000      -6.031371      -164.1220
  23   2.0000      -6.031116      -164.1150
  24   2.0000      -1.004007       -27.3204
  25   2.0000      -0.982005       -26.7217
  26   2.0000      -0.916133       -24.9293
  27   2.0000      -0.909364       -24.7451
  28   2.0000      -0.870132       -23.6775
  29   2.0000      -0.851200       -23.1623
  30   2.0000      -0.848338       -23.0845
  31   2.0000      -0.814393       -22.1608
  32   2.0000      -0.783971       -21.3329
  33   2.0000      -0.768285       -20.9061
  34   2.0000      -0.709381       -19.3032
  35   2.0000      -0.693760       -18.8782
  36   2.0000      -0.689233       -18.7550
  37   2.0000      -0.657498       -17.8914
  38   2.0000      -0.642921       -17.4948
  39   2.0000      -0.614667       -16.7259
  40   2.0000      -0.590425       -16.0663
  41   2.0000      -0.572993       -15.5919
  42   2.0000      -0.565015       -15.3748
  43   2.0000      -0.553043       -15.0491
  44   2.0000      -0.548519       -14.9260
  45   2.0000      -0.523736       -14.2516
  46   2.0000      -0.519546       -14.1376
  47   2.0000      -0.517075       -14.0703
  48   2.0000      -0.503570       -13.7028
  49   2.0000      -0.497444       -13.5361
  50   2.0000      -0.484137       -13.1740
  51   2.0000      -0.474840       -12.9211
  52   2.0000      -0.471117       -12.8197
  53   2.0000      -0.462820       -12.5940
  54   2.0000      -0.459514       -12.5040
  55   2.0000      -0.449927       -12.2431
  56   2.0000      -0.442291       -12.0354
  57   2.0000      -0.437383       -11.9018
  58   2.0000      -0.431213       -11.7339
  59   2.0000      -0.427373       -11.6294
  60   2.0000      -0.420042       -11.4299
  61   2.0000      -0.415424       -11.3043
  62   2.0000      -0.413545       -11.2531
  63   2.0000      -0.336178        -9.1479
  64   2.0000      -0.326337        -8.8801
  65   2.0000      -0.320418        -8.7190
  66   2.0000      -0.306446        -8.3388
  67   0.0000       0.037721         1.0264
  68   0.0000       0.056319         1.5325
  69   0.0000       0.111178         3.0253
  70   0.0000       0.123863         3.3705
  71   0.0000       0.126005         3.4288

MULLIKEN ATOMIC CHARGES
-----------------------
   0 S :    0.116993
   1 C :   -0.132020
   2 C :   -0.089953
   3 C :    0.055502
   4 C :   -0.220586
   5 H :    0.022344
   6 C :    0.072825
   7 H :    0.023304
   8 H :    0.007818
   9 C :   -0.055960
  10 H :    0.021228
  11 H :    0.025401
  12 C :   -0.013345
  13 H :    0.039229
  14 H :    0.018183
  15 H :    0.012698
  16 S :    0.128086
  17 C :   -0.101217
  18 C :   -0.026862
  19 C :   -0.009074
  20 C :   -0.184503
  21 H :   -0.002966
  22 C :    0.058770
  23 H :    0.044494
  24 H :    0.031140
  25 C :   -0.099407
  26 H :    0.036058
  27 H :    0.034059
  28 C :   -0.033396
  29 H :    0.026857
  30 H :    0.019032
  31 H :    0.034702
  32 H :    0.068585
  33 H :    0.071981
Sum of atomic charges:   -0.0000000

LOEWDIN ATOMIC CHARGES
----------------------
   0 S :    0.398870
   1 C :   -0.205766
   2 C :   -0.070459
   3 C :   -0.053931
   4 C :   -0.190175
   5 H :    0.038405
   6 C :   -0.034988
   7 H :    0.034280
   8 H :    0.022532
   9 C :   -0.030697
  10 H :    0.020380
  11 H :    0.023290
  12 C :   -0.053767
  13 H :    0.023814
  14 H :    0.022438
  15 H :    0.017688
  16 S :    0.413237
  17 C :   -0.195574
  18 C :   -0.068653
  19 C :   -0.045968
  20 C :   -0.221177
  21 H :    0.019589
  22 C :   -0.036449
  23 H :    0.039778
  24 H :    0.034185
  25 C :   -0.048173
  26 H :    0.028602
  27 H :    0.027658
  28 C :   -0.067557
  29 H :    0.025818
  30 H :    0.021842
  31 H :    0.024472
  32 H :    0.041763
  33 H :    0.044690

  Mayer bond orders larger than 0.100000
B(  0-S ,  1-C ) :   1.1395 B(  0-S ,  4-C ) :   1.1494 B(  1-C ,  2-C ) :   1.6132
B(  1-C , 32-H ) :   0.9592 B(  2-C ,  3-C ) :   1.2091 B(  2-C ,  6-C ) :   1.0378
B(  3-C ,  4-C ) :   1.5851 B(  3-C ,  5-H ) :   0.9942 B(  4-C , 20-C ) :   1.0460
B(  6-C ,  7-H ) :   0.9407 B(  6-C ,  8-H ) :   0.9205 B(  6-C ,  9-C ) :   1.0825
B(  9-C , 10-H ) :   0.9522 B(  9-C , 11-H ) :   0.9532 B(  9-C , 12-C ) :   1.0810
B( 12-C , 13-H ) :   0.9780 B( 12-C , 14-H ) :   0.9719 B( 12-C , 15-H ) :   0.9751
B( 16-S , 17-C ) :   1.1563 B( 16-S , 20-C ) :   1.1329 B( 17-C , 18-C ) :   1.6228
B( 17-C , 33-H ) :   0.9582 B( 18-C , 19-C ) :   1.2273 B( 18-C , 21-H ) :   0.9964
B( 19-C , 20-C ) :   1.5884 B( 19-C , 22-C ) :   1.0551 B( 22-C , 23-H ) :   0.9307
B( 22-C , 24-H ) :   0.9240 B( 22-C , 25-C ) :   1.0682 B( 25-C , 26-H ) :   0.9530
B( 25-C , 27-H ) :   0.9516 B( 25-C , 28-C ) :   1.0928 B( 28-C , 29-H ) :   0.9715
B( 28-C , 30-H ) :   0.9721 B( 28-C , 31-H ) :   0.9734

Dispersion correction           -0.014486658
FINAL SINGLE POINT ENERGY     -1339.880120634195

DIPOLE MOMENT
-------------
                                X             Y             Z
Electronic contribution:     11.00184       0.45848     -25.06014
Nuclear contribution   :    -11.21514      -0.16351      25.58550
                        -----------------------------------------
Total Dipole Moment    :     -0.21330       0.29497       0.52536
                        -----------------------------------------
Magnitude (a.u.)       :      0.63915
Magnitude (Debye)      :      1.62458

Rotational constants in cm-1:     0.018044     0.008900     0.006971
Rotational constants in MHz :   540.931273   266.815340   208.978666

                             ****ORCA TERMINATED NORMALLY****
TOTAL RUN TIME: 0 days 0 hours 0 minutes 21 seconds 801 msec
