                         Program Version 4.2.1 -  RELEASE  -
|  1> ! wB97X-D3 SP def2-SVP
|  2> %pal
|  3> nprocs 24
|  4> end
|  5>
|  6> * xyz 0 1
|  7> S 	 45.6128 	 -12.0027 	 -104.624
|  8> C 	 46.8373 	 -11.4691 	 -105.813
|  9> C 	 46.3043 	 -11.5385 	 -107.113
| 10> C 	 44.9177 	 -11.8429 	 -107.092
| 11> C 	 44.3372 	 -11.9919 	 -105.84
| 12> H 	 44.2264 	 -11.9372 	 -107.97
| 13> C 	 47.1143 	 -11.2409 	 -108.354
| 14> H 	 47.9003 	 -10.4649 	 -108.054
| 15> H 	 46.6151 	 -10.878 	 -109.231
| 16> C 	 47.8788 	 -12.4396 	 -108.845
| 17> H 	 48.5941 	 -12.7552 	 -108.138
| 18> H 	 47.1321 	 -13.195 	 -109.113
| 19> C 	 48.5475 	 -12.241 	 -110.301
| 20> H 	 49.1837 	 -13.1274 	 -110.564
| 21> H 	 47.7796 	 -12.1365 	 -111.068
| 22> H 	 49.2039 	 -11.4327 	 -110.25
| 23> S 	 42.8053 	 -13.8041 	 -104.542
| 24> C 	 41.1013 	 -13.7965 	 -104.845
| 25> C 	 40.6573 	 -12.7572 	 -105.678
| 26> C 	 41.803 	 -11.9206 	 -106.012
| 27> C 	 43.0138 	 -12.3762 	 -105.476
| 28> H 	 39.6806 	 -12.6801 	 -106.043
| 29> C 	 41.5771 	 -10.7646 	 -106.943
| 30> H 	 42.4408 	 -10.13 	 -106.973
| 31> H 	 40.7834 	 -10.1621 	 -106.367
| 32> C 	 41.0158 	 -11.0687 	 -108.336
| 33> H 	 40.8734 	 -10.0826 	 -108.764
| 34> H 	 40.1033 	 -11.5978 	 -108.212
| 35> C 	 41.8616 	 -11.9605 	 -109.254
| 36> H 	 41.3826 	 -12.2635 	 -110.257
| 37> H 	 42.249 	 -12.8626 	 -108.753
| 38> H 	 42.7583 	 -11.3654 	 -109.505
| 39> H 	 47.9131 	 -11.554 	 -105.711
| 40> H 	 40.4384 	 -14.4958 	 -104.375
| 41> *
| 42>
| 43>                          ****END OF INPUT****

CARTESIAN COORDINATES (ANGSTROEM)
---------------------------------
  S     45.612800  -12.002700  -104.624000
  C     46.837300  -11.469100  -105.813000
  C     46.304300  -11.538500  -107.113000
  C     44.917700  -11.842900  -107.092000
  C     44.337200  -11.991900  -105.840000
  H     44.226400  -11.937200  -107.970000
  C     47.114300  -11.240900  -108.354000
  H     47.900300  -10.464900  -108.054000
  H     46.615100  -10.878000  -109.231000
  C     47.878800  -12.439600  -108.845000
  H     48.594100  -12.755200  -108.138000
  H     47.132100  -13.195000  -109.113000
  C     48.547500  -12.241000  -110.301000
  H     49.183700  -13.127400  -110.564000
  H     47.779600  -12.136500  -111.068000
  H     49.203900  -11.432700  -110.250000
  S     42.805300  -13.804100  -104.542000
  C     41.101300  -13.796500  -104.845000
  C     40.657300  -12.757200  -105.678000
  C     41.803000  -11.920600  -106.012000
  C     43.013800  -12.376200  -105.476000
  H     39.680600  -12.680100  -106.043000
  C     41.577100  -10.764600  -106.943000
  H     42.440800  -10.130000  -106.973000
  H     40.783400  -10.162100  -106.367000
  C     41.015800  -11.068700  -108.336000
  H     40.873400  -10.082600  -108.764000
  H     40.103300  -11.597800  -108.212000
  C     41.861600  -11.960500  -109.254000
  H     41.382600  -12.263500  -110.257000
  H     42.249000  -12.862600  -108.753000
  H     42.758300  -11.365400  -109.505000
  H     47.913100  -11.554000  -105.711000
  H     40.438400  -14.495800  -104.375000

 Total Charge           Charge          ....    0
 Multiplicity           Mult            ....    1
 Number of Electrons    NEL             ....  134
 Basis Dimension        Dim             ....  322

ORBITAL ENERGIES
----------------

  NO   OCC          E(Eh)            E(eV)
   0   2.0000     -88.969395     -2420.9803
   1   2.0000     -88.964890     -2420.8577
   2   2.0000     -10.329066      -281.0682
   3   2.0000     -10.322616      -280.8927
   4   2.0000     -10.320635      -280.8388
   5   2.0000     -10.316432      -280.7244
   6   2.0000     -10.306616      -280.4573
   7   2.0000     -10.305699      -280.4323
   8   2.0000     -10.297653      -280.2134
   9   2.0000     -10.296597      -280.1847
  10   2.0000     -10.294356      -280.1237
  11   2.0000     -10.294132      -280.1176
  12   2.0000     -10.288467      -279.9634
  13   2.0000     -10.288321      -279.9595
  14   2.0000     -10.284467      -279.8546
  15   2.0000     -10.281339      -279.7695
  16   2.0000      -8.085010      -220.0043
  17   2.0000      -8.078825      -219.8360
  18   2.0000      -6.043441      -164.4504
  19   2.0000      -6.039398      -164.3404
  20   2.0000      -6.037427      -164.2867
  21   2.0000      -6.035782      -164.2420
  22   2.0000      -6.033424      -164.1778
  23   2.0000      -6.029563      -164.0728
  24   2.0000      -1.009363       -27.4662
  25   2.0000      -0.980893       -26.6914
  26   2.0000      -0.915045       -24.8996
  27   2.0000      -0.912570       -24.8323
  28   2.0000      -0.870117       -23.6771
  29   2.0000      -0.852016       -23.1845
  30   2.0000      -0.840159       -22.8619
  31   2.0000      -0.813572       -22.1384
  32   2.0000      -0.784115       -21.3369
  33   2.0000      -0.771965       -21.0062
  34   2.0000      -0.710378       -19.3304
  35   2.0000      -0.697977       -18.9929
  36   2.0000      -0.694952       -18.9106
  37   2.0000      -0.665612       -18.1122
  38   2.0000      -0.639091       -17.3906
  39   2.0000      -0.615749       -16.7554
  40   2.0000      -0.600728       -16.3466
  41   2.0000      -0.581896       -15.8342
  42   2.0000      -0.564536       -15.3618
  43   2.0000      -0.548434       -14.9236
  44   2.0000      -0.545225       -14.8363
  45   2.0000      -0.525940       -14.3116
  46   2.0000      -0.513077       -13.9615
  47   2.0000      -0.510327       -13.8867
  48   2.0000      -0.505062       -13.7434
  49   2.0000      -0.499662       -13.5965
  50   2.0000      -0.494850       -13.4656
  51   2.0000      -0.476971       -12.9790
  52   2.0000      -0.473078       -12.8731
  53   2.0000      -0.462328       -12.5806
  54   2.0000      -0.458793       -12.4844
  55   2.0000      -0.455365       -12.3911
  56   2.0000      -0.446259       -12.1433
  57   2.0000      -0.442374       -12.0376
  58   2.0000      -0.435599       -11.8532
  59   2.0000      -0.426882       -11.6161
  60   2.0000      -0.421175       -11.4607
  61   2.0000      -0.411770       -11.2048
  62   2.0000      -0.407283       -11.0827
  63   2.0000      -0.347355        -9.4520
  64   2.0000      -0.331141        -9.0108
  65   2.0000      -0.328361        -8.9352
  66   2.0000      -0.289438        -7.8760
  67   0.0000       0.023462         0.6384
  68   0.0000       0.066680         1.8145
  69   0.0000       0.104358         2.8397
  70   0.0000       0.113362         3.0847
  71   0.0000       0.127040         3.4569

MULLIKEN ATOMIC CHARGES
-----------------------
   0 S :    0.085781
   1 C :   -0.092223
   2 C :   -0.093822
   3 C :    0.042319
   4 C :   -0.169787
   5 H :   -0.014314
   6 C :    0.056870
   7 H :    0.036884
   8 H :    0.015396
   9 C :   -0.092943
  10 H :    0.024874
  11 H :    0.032592
  12 C :   -0.052959
  13 H :    0.041720
  14 H :    0.037645
  15 H :    0.018917
  16 S :    0.126369
  17 C :   -0.089017
  18 C :   -0.019041
  19 C :   -0.067014
  20 C :   -0.117989
  21 H :    0.008793
  22 C :    0.027913
  23 H :    0.022774
  24 H :    0.046432
  25 C :   -0.032161
  26 H :    0.037226
  27 H :    0.020178
  28 C :   -0.100363
  29 H :    0.052912
  30 H :    0.058417
  31 H :    0.039450
  32 H :    0.054507
  33 H :    0.053666
Sum of atomic charges:    0.0000000

LOEWDIN ATOMIC CHARGES
----------------------
   0 S :    0.383874
   1 C :   -0.195652
   2 C :   -0.056007
   3 C :   -0.070496
   4 C :   -0.186084
   5 H :    0.035437
   6 C :   -0.036857
   7 H :    0.039164
   8 H :    0.026610
   9 C :   -0.033547
  10 H :    0.013942
  11 H :    0.026347
  12 C :   -0.062559
  13 H :    0.033556
  14 H :    0.024111
  15 H :    0.010722
  16 S :    0.433179
  17 C :   -0.179746
  18 C :   -0.061577
  19 C :   -0.049613
  20 C :   -0.226221
  21 H :    0.023972
  22 C :   -0.037823
  23 H :    0.024182
  24 H :    0.047214
  25 C :   -0.035491
  26 H :    0.029574
  27 H :    0.016970
  28 C :   -0.077989
  29 H :    0.038358
  30 H :    0.027963
  31 H :    0.022176
  32 H :    0.029214
  33 H :    0.023098

  Mayer bond orders larger than 0.100000
B(  0-S ,  1-C ) :   1.1323 B(  0-S ,  4-C ) :   1.1441 B(  1-C ,  2-C ) :   1.6025
B(  1-C ,  4-C ) :   0.1081 B(  1-C , 32-H ) :   0.9583 B(  2-C ,  3-C ) :   1.2580
B(  2-C ,  6-C ) :   1.0240 B(  3-C ,  4-C ) :   1.5594 B(  3-C ,  5-H ) :   0.9769
B(  4-C , 20-C ) :   1.0542 B(  6-C ,  7-H ) :   0.9395 B(  6-C ,  8-H ) :   0.9464
B(  6-C ,  9-C ) :   1.0626 B(  9-C , 10-H ) :   0.9611 B(  9-C , 11-H ) :   0.9599
B(  9-C , 12-C ) :   1.0731 B( 12-C , 13-H ) :   0.9767 B( 12-C , 14-H ) :   0.9772
B( 12-C , 15-H ) :   0.9780 B( 16-S , 17-C ) :   1.1770 B( 16-S , 20-C ) :   1.1379
B( 17-C , 18-C ) :   1.5875 B( 17-C , 33-H ) :   0.9683 B( 18-C , 19-C ) :   1.2317
B( 18-C , 21-H ) :   1.0023 B( 19-C , 20-C ) :   1.5773 B( 19-C , 22-C ) :   1.0516
B( 22-C , 23-H ) :   0.9345 B( 22-C , 24-H ) :   0.9303 B( 22-C , 25-C ) :   1.0726
B( 25-C , 26-H ) :   0.9534 B( 25-C , 27-H ) :   0.9540 B( 25-C , 28-C ) :   1.0766
B( 28-C , 29-H ) :   0.9681 B( 28-C , 30-H ) :   0.9660 B( 28-C , 31-H ) :   0.9622

Dispersion correction           -0.014723261
FINAL SINGLE POINT ENERGY     -1339.868439557676

DIPOLE MOMENT
-------------
                                X             Y             Z
Electronic contribution:     -4.86905      -5.99920      28.61588
Nuclear contribution   :      4.62420       5.97366     -29.34281
                        -----------------------------------------
Total Dipole Moment    :     -0.24484      -0.02554      -0.72693
                        -----------------------------------------
Magnitude (a.u.)       :      0.76748
Magnitude (Debye)      :      1.95077

Rotational constants in cm-1:     0.019414     0.008672     0.006756
Rotational constants in MHz :   582.011315   259.989643   202.545325

                             ****ORCA TERMINATED NORMALLY****
TOTAL RUN TIME: 0 days 0 hours 0 minutes 22 seconds 248 msec
