                         Program Version 4.2.1 -  RELEASE  -
|  1> ! wB97X-D3 SP def2-SVP
|  2> %pal
|  3> nprocs 24
|  4> end
|  5>
|  6> * xyz 0 1
|  7> S 	 -102.555 	 1.27031 	 -108.974
|  8> C 	 -101.7 	 -0.245769 	 -109.119
|  9> C 	 -101.944 	 -1.06265 	 -108.02
| 10> C 	 -102.874 	 -0.496177 	 -107.114
| 11> C 	 -103.271 	 0.781909 	 -107.451
| 12> H 	 -103.23 	 -0.909374 	 -106.233
| 13> C 	 -101.397 	 -2.43985 	 -107.727
| 14> H 	 -101.338 	 -2.93346 	 -108.679
| 15> H 	 -102.156 	 -3.10301 	 -107.252
| 16> C 	 -100.061 	 -2.54845 	 -107.043
| 17> H 	 -99.2716 	 -2.22346 	 -107.682
| 18> H 	 -100.087 	 -1.82678 	 -106.206
| 19> C 	 -99.6655 	 -3.95764 	 -106.535
| 20> H 	 -100.474 	 -4.2837 	 -105.878
| 21> H 	 -99.4993 	 -4.53595 	 -107.477
| 22> H 	 -98.731 	 -3.93679 	 -105.915
| 23> S 	 -103.582 	 3.33678 	 -106.719
| 24> C 	 -104.944 	 3.80097 	 -105.776
| 25> C 	 -105.519 	 2.73551 	 -105.17
| 26> C 	 -105.083 	 1.4511 	 -105.722
| 27> C 	 -104.028 	 1.67028 	 -106.64
| 28> H 	 -106.279 	 3.01024 	 -104.417
| 29> C 	 -105.585 	 0.156448 	 -105.27
| 30> H 	 -105.013 	 -0.277513 	 -104.386
| 31> H 	 -105.405 	 -0.521784 	 -106.125
| 32> C 	 -107.102 	 0.165619 	 -104.942
| 33> H 	 -107.811 	 0.432737 	 -105.766
| 34> H 	 -107.294 	 0.897264 	 -104.175
| 35> C 	 -107.551 	 -1.18296 	 -104.38
| 36> H 	 -107.396 	 -1.95948 	 -105.157
| 37> H 	 -108.63 	 -1.20721 	 -104.092
| 38> H 	 -106.941 	 -1.45136 	 -103.51
| 39> H 	 -100.994 	 -0.451706 	 -109.914
| 40> H 	 -105.14 	 4.80835 	 -105.468
| 41> *
| 42>
| 43>                          ****END OF INPUT****

CARTESIAN COORDINATES (ANGSTROEM)
---------------------------------
  S    -102.555000    1.270310  -108.974000
  C    -101.700000   -0.245769  -109.119000
  C    -101.944000   -1.062650  -108.020000
  C    -102.874000   -0.496177  -107.114000
  C    -103.271000    0.781909  -107.451000
  H    -103.230000   -0.909374  -106.233000
  C    -101.397000   -2.439850  -107.727000
  H    -101.338000   -2.933460  -108.679000
  H    -102.156000   -3.103010  -107.252000
  C    -100.061000   -2.548450  -107.043000
  H    -99.271600   -2.223460  -107.682000
  H    -100.087000   -1.826780  -106.206000
  C    -99.665500   -3.957640  -106.535000
  H    -100.474000   -4.283700  -105.878000
  H    -99.499300   -4.535950  -107.477000
  H    -98.731000   -3.936790  -105.915000
  S    -103.582000    3.336780  -106.719000
  C    -104.944000    3.800970  -105.776000
  C    -105.519000    2.735510  -105.170000
  C    -105.083000    1.451100  -105.722000
  C    -104.028000    1.670280  -106.640000
  H    -106.279000    3.010240  -104.417000
  C    -105.585000    0.156448  -105.270000
  H    -105.013000   -0.277513  -104.386000
  H    -105.405000   -0.521784  -106.125000
  C    -107.102000    0.165619  -104.942000
  H    -107.811000    0.432737  -105.766000
  H    -107.294000    0.897264  -104.175000
  C    -107.551000   -1.182960  -104.380000
  H    -107.396000   -1.959480  -105.157000
  H    -108.630000   -1.207210  -104.092000
  H    -106.941000   -1.451360  -103.510000
  H    -100.994000   -0.451706  -109.914000
  H    -105.140000    4.808350  -105.468000

 Total Charge           Charge          ....    0
 Multiplicity           Mult            ....    1
 Number of Electrons    NEL             ....  134
 Basis Dimension        Dim             ....  322

ORBITAL ENERGIES
----------------

  NO   OCC          E(Eh)            E(eV)
   0   2.0000     -88.968411     -2420.9536
   1   2.0000     -88.962704     -2420.7982
   2   2.0000     -10.326154      -280.9889
   3   2.0000     -10.324322      -280.9391
   4   2.0000     -10.316459      -280.7251
   5   2.0000     -10.307366      -280.4777
   6   2.0000     -10.306309      -280.4489
   7   2.0000     -10.302293      -280.3396
   8   2.0000     -10.298446      -280.2350
   9   2.0000     -10.294305      -280.1223
  10   2.0000     -10.289112      -279.9810
  11   2.0000     -10.288033      -279.9516
  12   2.0000     -10.287037      -279.9245
  13   2.0000     -10.286261      -279.9034
  14   2.0000     -10.282208      -279.7931
  15   2.0000     -10.281578      -279.7760
  16   2.0000      -8.083032      -219.9505
  17   2.0000      -8.078632      -219.8307
  18   2.0000      -6.041575      -164.3996
  19   2.0000      -6.037461      -164.2877
  20   2.0000      -6.037091      -164.2776
  21   2.0000      -6.033844      -164.1892
  22   2.0000      -6.033064      -164.1680
  23   2.0000      -6.029280      -164.0650
  24   2.0000      -1.012817       -27.5602
  25   2.0000      -0.986694       -26.8493
  26   2.0000      -0.914653       -24.8890
  27   2.0000      -0.912717       -24.8363
  28   2.0000      -0.875812       -23.8321
  29   2.0000      -0.856280       -23.3006
  30   2.0000      -0.846347       -23.0303
  31   2.0000      -0.817287       -22.2395
  32   2.0000      -0.781244       -21.2587
  33   2.0000      -0.767687       -20.8898
  34   2.0000      -0.706456       -19.2236
  35   2.0000      -0.701633       -19.0924
  36   2.0000      -0.696662       -18.9571
  37   2.0000      -0.657903       -17.9025
  38   2.0000      -0.639306       -17.3964
  39   2.0000      -0.625302       -17.0153
  40   2.0000      -0.598957       -16.2984
  41   2.0000      -0.571298       -15.5458
  42   2.0000      -0.567809       -15.4509
  43   2.0000      -0.563486       -15.3332
  44   2.0000      -0.530213       -14.4278
  45   2.0000      -0.520885       -14.1740
  46   2.0000      -0.519882       -14.1467
  47   2.0000      -0.512955       -13.9582
  48   2.0000      -0.505779       -13.7629
  49   2.0000      -0.502425       -13.6717
  50   2.0000      -0.497391       -13.5347
  51   2.0000      -0.476843       -12.9755
  52   2.0000      -0.472564       -12.8591
  53   2.0000      -0.462104       -12.5745
  54   2.0000      -0.456919       -12.4334
  55   2.0000      -0.451386       -12.2828
  56   2.0000      -0.449693       -12.2368
  57   2.0000      -0.436759       -11.8848
  58   2.0000      -0.434725       -11.8295
  59   2.0000      -0.425802       -11.5867
  60   2.0000      -0.419429       -11.4132
  61   2.0000      -0.415604       -11.3092
  62   2.0000      -0.410592       -11.1728
  63   2.0000      -0.358442        -9.7537
  64   2.0000      -0.333860        -9.0848
  65   2.0000      -0.326405        -8.8819
  66   2.0000      -0.283067        -7.7026
  67   0.0000       0.021630         0.5886
  68   0.0000       0.083161         2.2629
  69   0.0000       0.105557         2.8723
  70   0.0000       0.114307         3.1105
  71   0.0000       0.139999         3.8096

MULLIKEN ATOMIC CHARGES
-----------------------
   0 S :    0.117300
   1 C :   -0.124590
   2 C :   -0.057119
   3 C :    0.026542
   4 C :   -0.138614
   5 H :   -0.023049
   6 C :    0.057390
   7 H :    0.007106
   8 H :    0.021300
   9 C :   -0.062987
  10 H :    0.019540
  11 H :    0.023580
  12 C :   -0.067438
  13 H :    0.037145
  14 H :    0.045314
  15 H :    0.048681
  16 S :    0.103793
  17 C :   -0.087663
  18 C :   -0.051284
  19 C :   -0.026418
  20 C :   -0.128861
  21 H :    0.033744
  22 C :    0.013265
  23 H :    0.059221
  24 H :    0.037419
  25 C :   -0.095308
  26 H :    0.044897
  27 H :    0.025364
  28 C :   -0.054010
  29 H :    0.029890
  30 H :    0.042551
  31 H :    0.026506
  32 H :    0.049261
  33 H :    0.047531
Sum of atomic charges:    0.0000000

LOEWDIN ATOMIC CHARGES
----------------------
   0 S :    0.410294
   1 C :   -0.197191
   2 C :   -0.058102
   3 C :   -0.055155
   4 C :   -0.191445
   5 H :    0.018048
   6 C :   -0.040370
   7 H :    0.026434
   8 H :    0.033244
   9 C :   -0.044223
  10 H :    0.018677
  11 H :    0.022346
  12 C :   -0.067263
  13 H :    0.024106
  14 H :    0.031766
  15 H :    0.033667
  16 S :    0.419985
  17 C :   -0.194752
  18 C :   -0.073469
  19 C :   -0.058785
  20 C :   -0.199160
  21 H :    0.038271
  22 C :   -0.044402
  23 H :    0.042575
  24 H :    0.036762
  25 C :   -0.044076
  26 H :    0.033084
  27 H :    0.017682
  28 C :   -0.070198
  29 H :    0.024990
  30 H :    0.030258
  31 H :    0.021882
  32 H :    0.029077
  33 H :    0.025440

  Mayer bond orders larger than 0.100000
B(  0-S ,  1-C ) :   1.1370 B(  0-S ,  4-C ) :   1.1468 B(  1-C ,  2-C ) :   1.5919
B(  1-C , 32-H ) :   0.9716 B(  2-C ,  3-C ) :   1.2511 B(  2-C ,  6-C ) :   1.0222
B(  3-C ,  4-C ) :   1.5333 B(  3-C ,  5-H ) :   1.0069 B(  4-C , 20-C ) :   1.1029
B(  6-C ,  7-H ) :   0.9278 B(  6-C ,  8-H ) :   0.9443 B(  6-C ,  9-C ) :   1.0608
B(  9-C , 10-H ) :   0.9538 B(  9-C , 11-H ) :   0.9563 B(  9-C , 12-C ) :   1.0775
B( 12-C , 13-H ) :   0.9765 B( 12-C , 14-H ) :   0.9762 B( 12-C , 15-H ) :   0.9744
B( 16-S , 17-C ) :   1.1441 B( 16-S , 20-C ) :   1.1484 B( 17-C , 18-C ) :   1.6468
B( 17-C , 33-H ) :   0.9651 B( 18-C , 19-C ) :   1.2038 B( 18-C , 21-H ) :   0.9823
B( 19-C , 20-C ) :   1.5575 B( 19-C , 22-C ) :   1.0745 B( 22-C , 23-H ) :   0.9265
B( 22-C , 24-H ) :   0.9188 B( 22-C , 25-C ) :   1.0552 B( 25-C , 26-H ) :   0.9571
B( 25-C , 27-H ) :   0.9500 B( 25-C , 28-C ) :   1.0909 B( 28-C , 29-H ) :   0.9741
B( 28-C , 30-H ) :   0.9729 B( 28-C , 31-H ) :   0.9725

Dispersion correction           -0.013223452
FINAL SINGLE POINT ENERGY     -1339.884985672604

DIPOLE MOMENT
-------------
                                X             Y             Z
Electronic contribution:      2.78484      26.50238     -12.93513
Nuclear contribution   :     -2.83376     -26.93436      13.35172
                        -----------------------------------------
Total Dipole Moment    :     -0.04892      -0.43197       0.41659
                        -----------------------------------------
Magnitude (a.u.)       :      0.60212
Magnitude (Debye)      :      1.53046

Rotational constants in cm-1:     0.016951     0.008310     0.006180
Rotational constants in MHz :   508.187808   249.127084   185.269931

                             ****ORCA TERMINATED NORMALLY****
TOTAL RUN TIME: 0 days 0 hours 0 minutes 20 seconds 52 msec
