                         Program Version 4.2.1 -  RELEASE  -
|  1> ! wB97X-D3 SP def2-SVP
|  2> %pal
|  3> nprocs 24
|  4> end
|  5>
|  6> * xyz 0 1
|  7> S 	 -103.141 	 39.9162 	 -91.8167
|  8> C 	 -101.831 	 39.4371 	 -90.7543
|  9> C 	 -100.853 	 40.3597 	 -90.8543
| 10> C 	 -101.093 	 41.4387 	 -91.6876
| 11> C 	 -102.294 	 41.3264 	 -92.3878
| 12> H 	 -100.428 	 42.2539 	 -91.8047
| 13> C 	 -99.5601 	 40.2865 	 -90.053
| 14> H 	 -98.8641 	 40.7209 	 -90.687
| 15> H 	 -99.2558 	 39.2612 	 -89.8799
| 16> C 	 -99.5358 	 41.029 	 -88.728
| 17> H 	 -100.071 	 41.9171 	 -88.9361
| 18> H 	 -100.128 	 40.459 	 -88.064
| 19> C 	 -98.1497 	 41.3936 	 -88.1108
| 20> H 	 -98.2007 	 41.9107 	 -87.2634
| 21> H 	 -97.5687 	 40.4988 	 -88.0119
| 22> H 	 -97.5342 	 42.0125 	 -88.831
| 23> S 	 -102.761 	 43.8161 	 -93.1094
| 24> C 	 -103.704 	 44.2714 	 -94.4639
| 25> C 	 -103.9 	 43.1465 	 -95.2442
| 26> C 	 -103.369 	 41.8977 	 -94.6916
| 27> C 	 -102.782 	 42.1465 	 -93.4712
| 28> H 	 -104.347 	 43.2183 	 -96.2532
| 29> C 	 -103.647 	 40.5339 	 -95.3856
| 30> H 	 -104.444 	 40.7181 	 -96.0945
| 31> H 	 -103.984 	 39.8408 	 -94.6232
| 32> C 	 -102.428 	 40.049 	 -96.1691
| 33> H 	 -101.977 	 40.8797 	 -96.7093
| 34> H 	 -102.747 	 39.3153 	 -96.8908
| 35> C 	 -101.388 	 39.42 	 -95.2084
| 36> H 	 -100.663 	 40.1605 	 -94.9336
| 37> H 	 -100.841 	 38.5952 	 -95.7156
| 38> H 	 -101.801 	 38.9063 	 -94.3045
| 39> H 	 -101.866 	 38.5642 	 -90.151
| 40> H 	 -103.941 	 45.2606 	 -94.6896
| 41> *
| 42>
| 43>                          ****END OF INPUT****

CARTESIAN COORDINATES (ANGSTROEM)
---------------------------------
  S    -103.141000   39.916200  -91.816700
  C    -101.831000   39.437100  -90.754300
  C    -100.853000   40.359700  -90.854300
  C    -101.093000   41.438700  -91.687600
  C    -102.294000   41.326400  -92.387800
  H    -100.428000   42.253900  -91.804700
  C    -99.560100   40.286500  -90.053000
  H    -98.864100   40.720900  -90.687000
  H    -99.255800   39.261200  -89.879900
  C    -99.535800   41.029000  -88.728000
  H    -100.071000   41.917100  -88.936100
  H    -100.128000   40.459000  -88.064000
  C    -98.149700   41.393600  -88.110800
  H    -98.200700   41.910700  -87.263400
  H    -97.568700   40.498800  -88.011900
  H    -97.534200   42.012500  -88.831000
  S    -102.761000   43.816100  -93.109400
  C    -103.704000   44.271400  -94.463900
  C    -103.900000   43.146500  -95.244200
  C    -103.369000   41.897700  -94.691600
  C    -102.782000   42.146500  -93.471200
  H    -104.347000   43.218300  -96.253200
  C    -103.647000   40.533900  -95.385600
  H    -104.444000   40.718100  -96.094500
  H    -103.984000   39.840800  -94.623200
  C    -102.428000   40.049000  -96.169100
  H    -101.977000   40.879700  -96.709300
  H    -102.747000   39.315300  -96.890800
  C    -101.388000   39.420000  -95.208400
  H    -100.663000   40.160500  -94.933600
  H    -100.841000   38.595200  -95.715600
  H    -101.801000   38.906300  -94.304500
  H    -101.866000   38.564200  -90.151000
  H    -103.941000   45.260600  -94.689600

 Total Charge           Charge          ....    0
 Multiplicity           Mult            ....    1
 Number of Electrons    NEL             ....  134
 Basis Dimension        Dim             ....  322

ORBITAL ENERGIES
----------------

  NO   OCC          E(Eh)            E(eV)
   0   2.0000     -88.966036     -2420.8889
   1   2.0000     -88.961601     -2420.7682
   2   2.0000     -10.331449      -281.1330
   3   2.0000     -10.323045      -280.9043
   4   2.0000     -10.312402      -280.6147
   5   2.0000     -10.308944      -280.5206
   6   2.0000     -10.306441      -280.4525
   7   2.0000     -10.298518      -280.2369
   8   2.0000     -10.292998      -280.0867
   9   2.0000     -10.290421      -280.0166
  10   2.0000     -10.288694      -279.9696
  11   2.0000     -10.281275      -279.7677
  12   2.0000     -10.279628      -279.7229
  13   2.0000     -10.276723      -279.6438
  14   2.0000     -10.273326      -279.5514
  15   2.0000     -10.270395      -279.4717
  16   2.0000      -8.080475      -219.8809
  17   2.0000      -8.078005      -219.8137
  18   2.0000      -6.038911      -164.3271
  19   2.0000      -6.036482      -164.2610
  20   2.0000      -6.034899      -164.2179
  21   2.0000      -6.032120      -164.1423
  22   2.0000      -6.031455      -164.1242
  23   2.0000      -6.028849      -164.0533
  24   2.0000      -1.015553       -27.6346
  25   2.0000      -0.992694       -27.0126
  26   2.0000      -0.913669       -24.8622
  27   2.0000      -0.906262       -24.6606
  28   2.0000      -0.874355       -23.7924
  29   2.0000      -0.851789       -23.1784
  30   2.0000      -0.840890       -22.8818
  31   2.0000      -0.815551       -22.1923
  32   2.0000      -0.785480       -21.3740
  33   2.0000      -0.774548       -21.0765
  34   2.0000      -0.708638       -19.2830
  35   2.0000      -0.706486       -19.2245
  36   2.0000      -0.692902       -18.8548
  37   2.0000      -0.669440       -18.2164
  38   2.0000      -0.645411       -17.5625
  39   2.0000      -0.621634       -16.9155
  40   2.0000      -0.597275       -16.2527
  41   2.0000      -0.572393       -15.5756
  42   2.0000      -0.563613       -15.3367
  43   2.0000      -0.550603       -14.9827
  44   2.0000      -0.540214       -14.7000
  45   2.0000      -0.533413       -14.5149
  46   2.0000      -0.520647       -14.1675
  47   2.0000      -0.514787       -14.0081
  48   2.0000      -0.509924       -13.8757
  49   2.0000      -0.497439       -13.5360
  50   2.0000      -0.492658       -13.4059
  51   2.0000      -0.481802       -13.1105
  52   2.0000      -0.473751       -12.8914
  53   2.0000      -0.470765       -12.8102
  54   2.0000      -0.462826       -12.5941
  55   2.0000      -0.448181       -12.1956
  56   2.0000      -0.441561       -12.0155
  57   2.0000      -0.435503       -11.8506
  58   2.0000      -0.430299       -11.7090
  59   2.0000      -0.421884       -11.4800
  60   2.0000      -0.417358       -11.3569
  61   2.0000      -0.412361       -11.2209
  62   2.0000      -0.409150       -11.1335
  63   2.0000      -0.352593        -9.5945
  64   2.0000      -0.334196        -9.0939
  65   2.0000      -0.326866        -8.8945
  66   2.0000      -0.293437        -7.9848
  67   0.0000       0.029216         0.7950
  68   0.0000       0.077126         2.0987
  69   0.0000       0.116375         3.1667
  70   0.0000       0.125153         3.4056
  71   0.0000       0.131330         3.5737

MULLIKEN ATOMIC CHARGES
-----------------------
   0 S :    0.096261
   1 C :   -0.127190
   2 C :   -0.072761
   3 C :    0.030625
   4 C :   -0.116737
   5 H :   -0.001693
   6 C :    0.098873
   7 H :   -0.007626
   8 H :    0.013764
   9 C :   -0.040147
  10 H :    0.011442
  11 H :    0.011767
  12 C :   -0.001769
  13 H :    0.015489
  14 H :    0.023092
  15 H :    0.025229
  16 S :    0.104580
  17 C :   -0.058838
  18 C :   -0.059390
  19 C :   -0.070848
  20 C :   -0.161952
  21 H :    0.029924
  22 C :    0.088453
  23 H :    0.012157
  24 H :    0.034256
  25 C :   -0.045742
  26 H :    0.029748
  27 H :    0.028149
  28 C :   -0.071896
  29 H :    0.039886
  30 H :    0.028372
  31 H :    0.038452
  32 H :    0.037394
  33 H :    0.038677
Sum of atomic charges:    0.0000000

LOEWDIN ATOMIC CHARGES
----------------------
   0 S :    0.418172
   1 C :   -0.189702
   2 C :   -0.064057
   3 C :   -0.066003
   4 C :   -0.186600
   5 H :    0.024930
   6 C :   -0.021346
   7 H :    0.017288
   8 H :    0.025200
   9 C :   -0.031275
  10 H :    0.018139
  11 H :    0.016997
  12 C :   -0.049839
  13 H :    0.007849
  14 H :    0.023074
  15 H :    0.031690
  16 S :    0.442098
  17 C :   -0.189664
  18 C :   -0.073428
  19 C :   -0.056757
  20 C :   -0.214469
  21 H :    0.032875
  22 C :   -0.023345
  23 H :    0.027577
  24 H :    0.023907
  25 C :   -0.036718
  26 H :    0.026709
  27 H :    0.020395
  28 C :   -0.073343
  29 H :    0.023939
  30 H :    0.027116
  31 H :    0.024627
  32 H :    0.024836
  33 H :    0.019129

  Mayer bond orders larger than 0.100000
B(  0-S ,  1-C ) :   1.1285 B(  0-S ,  4-C ) :   1.1708 B(  1-C ,  2-C ) :   1.5868
B(  1-C , 32-H ) :   0.9830 B(  2-C ,  3-C ) :   1.2828 B(  2-C ,  6-C ) :   1.0258
B(  3-C ,  4-C ) :   1.5192 B(  3-C ,  5-H ) :   0.9995 B(  4-C , 20-C ) :   1.0266
B(  6-C ,  7-H ) :   0.9302 B(  6-C ,  8-H ) :   0.9392 B(  6-C ,  9-C ) :   1.0660
B(  9-C , 10-H ) :   0.9552 B(  9-C , 11-H ) :   0.9538 B(  9-C , 12-C ) :   1.0797
B( 12-C , 13-H ) :   0.9756 B( 12-C , 14-H ) :   0.9760 B( 12-C , 15-H ) :   0.9738
B( 16-S , 17-C ) :   1.1618 B( 16-S , 20-C ) :   1.1658 B( 17-C , 18-C ) :   1.5882
B( 17-C , 33-H ) :   0.9821 B( 18-C , 19-C ) :   1.2524 B( 18-C , 21-H ) :   0.9810
B( 19-C , 20-C ) :   1.5802 B( 19-C , 22-C ) :   1.0260 B( 22-C , 23-H ) :   0.9287
B( 22-C , 24-H ) :   0.9455 B( 22-C , 25-C ) :   1.0758 B( 25-C , 26-H ) :   0.9550
B( 25-C , 27-H ) :   0.9603 B( 25-C , 28-C ) :   1.0660 B( 28-C , 29-H ) :   0.9773
B( 28-C , 30-H ) :   0.9759 B( 28-C , 31-H ) :   0.9752

Dispersion correction           -0.015239324
FINAL SINGLE POINT ENERGY     -1339.876936856758

DIPOLE MOMENT
-------------
                                X             Y             Z
Electronic contribution:    -16.18992       8.96830      -2.75006
Nuclear contribution   :     16.44784      -9.04355       2.62921
                        -----------------------------------------
Total Dipole Moment    :      0.25792      -0.07525      -0.12085
                        -----------------------------------------
Magnitude (a.u.)       :      0.29460
Magnitude (Debye)      :      0.74883

Rotational constants in cm-1:     0.022096     0.008262     0.006964
Rotational constants in MHz :   662.427279   247.675309   208.761518

                             ****ORCA TERMINATED NORMALLY****
TOTAL RUN TIME: 0 days 0 hours 0 minutes 20 seconds 998 msec
