                         Program Version 4.2.1 -  RELEASE  -
|  1> ! wB97X-D3 SP def2-SVP
|  2> %pal
|  3> nprocs 24
|  4> end
|  5>
|  6> * xyz 0 1
|  7> S 	 -127.822 	 61.6948 	 -56.8171
|  8> C 	 -127.269 	 60.1214 	 -57.2309
|  9> C 	 -128.094 	 59.1458 	 -56.7638
| 10> C 	 -129.138 	 59.7154 	 -55.9519
| 11> C 	 -129.118 	 61.0679 	 -55.7968
| 12> H 	 -129.947 	 59.1155 	 -55.4861
| 13> C 	 -127.851 	 57.6684 	 -57.0909
| 14> H 	 -127.734 	 57.0793 	 -56.098
| 15> H 	 -126.936 	 57.6106 	 -57.69
| 16> C 	 -129.047 	 57.135 	 -57.8831
| 17> H 	 -129.806 	 56.8179 	 -57.187
| 18> H 	 -129.438 	 57.8935 	 -58.5647
| 19> C 	 -128.515 	 55.85 	 -58.6736
| 20> H 	 -128.314 	 54.9589 	 -57.9902
| 21> H 	 -129.218 	 55.635 	 -59.4108
| 22> H 	 -127.615 	 56.1726 	 -59.1401
| 23> S 	 -131.166 	 62.8681 	 -55.4786
| 24> C 	 -131.672 	 63.3377 	 -53.8914
| 25> C 	 -130.978 	 62.6731 	 -52.9516
| 26> C 	 -129.925 	 61.8421 	 -53.4838
| 27> C 	 -129.928 	 61.8344 	 -54.8663
| 28> H 	 -131.251 	 62.8339 	 -51.924
| 29> C 	 -128.949 	 61.0652 	 -52.6044
| 30> H 	 -128.527 	 61.6486 	 -51.7457
| 31> H 	 -128.063 	 60.9858 	 -53.2491
| 32> C 	 -129.471 	 59.7045 	 -52.0893
| 33> H 	 -129.403 	 59.0497 	 -53.0071
| 34> H 	 -130.455 	 59.7203 	 -51.7381
| 35> C 	 -128.622 	 59.2397 	 -50.9097
| 36> H 	 -127.583 	 59.1836 	 -51.1647
| 37> H 	 -129.033 	 58.2547 	 -50.6581
| 38> H 	 -128.722 	 59.8551 	 -50.0061
| 39> H 	 -126.415 	 59.8221 	 -57.9225
| 40> H 	 -132.549 	 63.8278 	 -53.5711
| 41> *
| 42>
| 43>                          ****END OF INPUT****

CARTESIAN COORDINATES (ANGSTROEM)
---------------------------------
  S    -127.822000   61.694800  -56.817100
  C    -127.269000   60.121400  -57.230900
  C    -128.094000   59.145800  -56.763800
  C    -129.138000   59.715400  -55.951900
  C    -129.118000   61.067900  -55.796800
  H    -129.947000   59.115500  -55.486100
  C    -127.851000   57.668400  -57.090900
  H    -127.734000   57.079300  -56.098000
  H    -126.936000   57.610600  -57.690000
  C    -129.047000   57.135000  -57.883100
  H    -129.806000   56.817900  -57.187000
  H    -129.438000   57.893500  -58.564700
  C    -128.515000   55.850000  -58.673600
  H    -128.314000   54.958900  -57.990200
  H    -129.218000   55.635000  -59.410800
  H    -127.615000   56.172600  -59.140100
  S    -131.166000   62.868100  -55.478600
  C    -131.672000   63.337700  -53.891400
  C    -130.978000   62.673100  -52.951600
  C    -129.925000   61.842100  -53.483800
  C    -129.928000   61.834400  -54.866300
  H    -131.251000   62.833900  -51.924000
  C    -128.949000   61.065200  -52.604400
  H    -128.527000   61.648600  -51.745700
  H    -128.063000   60.985800  -53.249100
  C    -129.471000   59.704500  -52.089300
  H    -129.403000   59.049700  -53.007100
  H    -130.455000   59.720300  -51.738100
  C    -128.622000   59.239700  -50.909700
  H    -127.583000   59.183600  -51.164700
  H    -129.033000   58.254700  -50.658100
  H    -128.722000   59.855100  -50.006100
  H    -126.415000   59.822100  -57.922500
  H    -132.549000   63.827800  -53.571100

 Total Charge           Charge          ....    0
 Multiplicity           Mult            ....    1
 Number of Electrons    NEL             ....  134
 Basis Dimension        Dim             ....  322

ORBITAL ENERGIES
----------------

  NO   OCC          E(Eh)            E(eV)
   0   2.0000     -88.963757     -2420.8269
   1   2.0000     -88.962516     -2420.7931
   2   2.0000     -10.327843      -281.0349
   3   2.0000     -10.323587      -280.9191
   4   2.0000     -10.314173      -280.6629
   5   2.0000     -10.307130      -280.4713
   6   2.0000     -10.302965      -280.3579
   7   2.0000     -10.301156      -280.3087
   8   2.0000     -10.296940      -280.1940
   9   2.0000     -10.296521      -280.1826
  10   2.0000     -10.289937      -280.0034
  11   2.0000     -10.288728      -279.9705
  12   2.0000     -10.286825      -279.9187
  13   2.0000     -10.284377      -279.8521
  14   2.0000     -10.279740      -279.7259
  15   2.0000     -10.275906      -279.6216
  16   2.0000      -8.078846      -219.8366
  17   2.0000      -8.078149      -219.8176
  18   2.0000      -6.037395      -164.2859
  19   2.0000      -6.036663      -164.2659
  20   2.0000      -6.033287      -164.1741
  21   2.0000      -6.032472      -164.1519
  22   2.0000      -6.029540      -164.0721
  23   2.0000      -6.028906      -164.0549
  24   2.0000      -1.011505       -27.5245
  25   2.0000      -0.990716       -26.9588
  26   2.0000      -0.911265       -24.7968
  27   2.0000      -0.906576       -24.6692
  28   2.0000      -0.875184       -23.8150
  29   2.0000      -0.848997       -23.1024
  30   2.0000      -0.842334       -22.9211
  31   2.0000      -0.821043       -22.3417
  32   2.0000      -0.777344       -21.1526
  33   2.0000      -0.767317       -20.8798
  34   2.0000      -0.712480       -19.3876
  35   2.0000      -0.697243       -18.9729
  36   2.0000      -0.689882       -18.7726
  37   2.0000      -0.657217       -17.8838
  38   2.0000      -0.638733       -17.3808
  39   2.0000      -0.620336       -16.8802
  40   2.0000      -0.594419       -16.1750
  41   2.0000      -0.575828       -15.6691
  42   2.0000      -0.565042       -15.3756
  43   2.0000      -0.559446       -15.2233
  44   2.0000      -0.532260       -14.4835
  45   2.0000      -0.524898       -14.2832
  46   2.0000      -0.512752       -13.9527
  47   2.0000      -0.510021       -13.8784
  48   2.0000      -0.504104       -13.7174
  49   2.0000      -0.500877       -13.6296
  50   2.0000      -0.494818       -13.4647
  51   2.0000      -0.478480       -13.0201
  52   2.0000      -0.466292       -12.6885
  53   2.0000      -0.464326       -12.6350
  54   2.0000      -0.456857       -12.4317
  55   2.0000      -0.447219       -12.1695
  56   2.0000      -0.444712       -12.1012
  57   2.0000      -0.441076       -12.0023
  58   2.0000      -0.439507       -11.9596
  59   2.0000      -0.430534       -11.7154
  60   2.0000      -0.420600       -11.4451
  61   2.0000      -0.410028       -11.1574
  62   2.0000      -0.406106       -11.0507
  63   2.0000      -0.341658        -9.2970
  64   2.0000      -0.328540        -8.9400
  65   2.0000      -0.326366        -8.8809
  66   2.0000      -0.307485        -8.3671
  67   0.0000       0.045102         1.2273
  68   0.0000       0.063397         1.7251
  69   0.0000       0.121549         3.3075
  70   0.0000       0.128410         3.4942
  71   0.0000       0.130288         3.5453

MULLIKEN ATOMIC CHARGES
-----------------------
   0 S :    0.117645
   1 C :   -0.137671
   2 C :   -0.115590
   3 C :    0.033058
   4 C :   -0.163901
   5 H :    0.027941
   6 C :    0.053190
   7 H :    0.054517
   8 H :    0.014511
   9 C :   -0.102090
  10 H :    0.036841
  11 H :    0.048296
  12 C :   -0.035883
  13 H :    0.048592
  14 H :    0.026019
  15 H :    0.020159
  16 S :    0.110849
  17 C :   -0.054644
  18 C :   -0.050837
  19 C :   -0.014180
  20 C :   -0.183834
  21 H :    0.012618
  22 C :    0.032738
  23 H :    0.026210
  24 H :    0.033973
  25 C :   -0.052266
  26 H :    0.034570
  27 H :    0.019362
  28 C :   -0.044457
  29 H :    0.031127
  30 H :    0.029689
  31 H :    0.036525
  32 H :    0.067447
  33 H :    0.039477
Sum of atomic charges:    0.0000000

LOEWDIN ATOMIC CHARGES
----------------------
   0 S :    0.405811
   1 C :   -0.215977
   2 C :   -0.077097
   3 C :   -0.060434
   4 C :   -0.199464
   5 H :    0.034803
   6 C :   -0.031064
   7 H :    0.042405
   8 H :    0.024232
   9 C :   -0.036172
  10 H :    0.022259
  11 H :    0.027582
  12 C :   -0.058086
  13 H :    0.036014
  14 H :    0.015575
  15 H :    0.016830
  16 S :    0.420403
  17 C :   -0.187455
  18 C :   -0.070010
  19 C :   -0.049916
  20 C :   -0.211711
  21 H :    0.030005
  22 C :   -0.039732
  23 H :    0.031226
  24 H :    0.034117
  25 C :   -0.035850
  26 H :    0.030786
  27 H :    0.015697
  28 C :   -0.062936
  29 H :    0.021537
  30 H :    0.027660
  31 H :    0.026667
  32 H :    0.045349
  33 H :    0.026946

  Mayer bond orders larger than 0.100000
B(  0-S ,  1-C ) :   1.1413 B(  0-S ,  4-C ) :   1.1320 B(  1-C ,  2-C ) :   1.6422
B(  1-C , 32-H ) :   0.9493 B(  2-C ,  3-C ) :   1.2253 B(  2-C ,  6-C ) :   1.0239
B(  3-C ,  4-C ) :   1.6056 B(  3-C ,  5-H ) :   0.9865 B(  4-C , 20-C ) :   1.0136
B(  6-C ,  7-H ) :   0.9371 B(  6-C ,  8-H ) :   0.9478 B(  6-C ,  9-C ) :   1.0494
B(  9-C , 10-H ) :   0.9532 B(  9-C , 11-H ) :   0.9635 B(  9-C , 12-C ) :   1.0763
B( 12-C , 13-H ) :   0.9746 B( 12-C , 14-H ) :   0.9772 B( 12-C , 15-H ) :   0.9811
B( 16-S , 17-C ) :   1.1430 B( 16-S , 20-C ) :   1.1505 B( 17-C , 18-C ) :   1.6491
B( 17-C , 33-H ) :   0.9642 B( 18-C , 19-C ) :   1.2208 B( 18-C , 21-H ) :   0.9921
B( 19-C , 20-C ) :   1.6148 B( 19-C , 22-C ) :   1.0400 B( 22-C , 23-H ) :   0.9477
B( 22-C , 24-H ) :   0.9261 B( 22-C , 25-C ) :   1.0511 B( 25-C , 26-H ) :   0.9475
B( 25-C , 27-H ) :   0.9624 B( 25-C , 28-C ) :   1.0844 B( 28-C , 29-H ) :   0.9746
B( 28-C , 30-H ) :   0.9724 B( 28-C , 31-H ) :   0.9746

Dispersion correction           -0.014224841
FINAL SINGLE POINT ENERGY     -1339.876818115498

DIPOLE MOMENT
-------------
                                X             Y             Z
Electronic contribution:     -5.16200      26.62765      -7.83894
Nuclear contribution   :      5.10008     -27.29062       8.16412
                        -----------------------------------------
Total Dipole Moment    :     -0.06193      -0.66297       0.32518
                        -----------------------------------------
Magnitude (a.u.)       :      0.74102
Magnitude (Debye)      :      1.88352

Rotational constants in cm-1:     0.017750     0.008313     0.006769
Rotational constants in MHz :   532.118723   249.211566   202.936792

                             ****ORCA TERMINATED NORMALLY****
TOTAL RUN TIME: 0 days 0 hours 0 minutes 21 seconds 544 msec
