                         Program Version 4.2.1 -  RELEASE  -
|  1> ! wB97X-D3 SP def2-SVP
|  2> %pal
|  3> nprocs 24
|  4> end
|  5>
|  6> * xyz 0 1
|  7> S 	 -45.0453 	 10.3242 	 26.4899
|  8> C 	 -43.5917 	 11.1564 	 26.0122
|  9> C 	 -43.8435 	 12.0971 	 25.0402
| 10> C 	 -45.2259 	 12.1323 	 24.668
| 11> C 	 -46.0347 	 11.22 	 25.3786
| 12> H 	 -45.6628 	 12.7472 	 23.8522
| 13> C 	 -42.8659 	 13.1825 	 24.6184
| 14> H 	 -41.874 	 12.8984 	 25.064
| 15> H 	 -43.0888 	 14.1242 	 25.0904
| 16> C 	 -42.6984 	 13.3514 	 23.0964
| 17> H 	 -43.6318 	 13.7175 	 22.6148
| 18> H 	 -41.9713 	 14.0959 	 22.9571
| 19> C 	 -42.1966 	 12.1152 	 22.4167
| 20> H 	 -43.0595 	 11.492 	 22.1246
| 21> H 	 -41.7339 	 12.3837 	 21.4815
| 22> H 	 -41.4927 	 11.4821 	 22.9626
| 23> S 	 -47.7452 	 9.57293 	 23.9118
| 24> C 	 -49.3925 	 9.72359 	 23.9873
| 25> C 	 -49.7843 	 10.7204 	 24.8804
| 26> C 	 -48.6792 	 11.3763 	 25.5343
| 27> C 	 -47.4826 	 10.8455 	 25.1204
| 28> H 	 -50.7999 	 10.7763 	 24.8827
| 29> C 	 -48.9729 	 12.6111 	 26.3547
| 30> H 	 -50.0776 	 12.8232 	 26.4105
| 31> H 	 -48.706 	 13.5333 	 25.827
| 32> C 	 -48.2002 	 12.6094 	 27.7211
| 33> H 	 -48.5191 	 13.5624 	 28.2147
| 34> H 	 -47.0994 	 12.6327 	 27.4709
| 35> C 	 -48.535 	 11.4387 	 28.6376
| 36> H 	 -47.825 	 11.4128 	 29.4103
| 37> H 	 -48.4285 	 10.4703 	 28.1389
| 38> H 	 -49.5695 	 11.4188 	 28.9238
| 39> H 	 -42.6505 	 10.9983 	 26.4896
| 40> H 	 -50.196 	 9.21104 	 23.4411
| 41> *
| 42>
| 43>                          ****END OF INPUT****

CARTESIAN COORDINATES (ANGSTROEM)
---------------------------------
  S    -45.045300   10.324200   26.489900
  C    -43.591700   11.156400   26.012200
  C    -43.843500   12.097100   25.040200
  C    -45.225900   12.132300   24.668000
  C    -46.034700   11.220000   25.378600
  H    -45.662800   12.747200   23.852200
  C    -42.865900   13.182500   24.618400
  H    -41.874000   12.898400   25.064000
  H    -43.088800   14.124200   25.090400
  C    -42.698400   13.351400   23.096400
  H    -43.631800   13.717500   22.614800
  H    -41.971300   14.095900   22.957100
  C    -42.196600   12.115200   22.416700
  H    -43.059500   11.492000   22.124600
  H    -41.733900   12.383700   21.481500
  H    -41.492700   11.482100   22.962600
  S    -47.745200    9.572930   23.911800
  C    -49.392500    9.723590   23.987300
  C    -49.784300   10.720400   24.880400
  C    -48.679200   11.376300   25.534300
  C    -47.482600   10.845500   25.120400
  H    -50.799900   10.776300   24.882700
  C    -48.972900   12.611100   26.354700
  H    -50.077600   12.823200   26.410500
  H    -48.706000   13.533300   25.827000
  C    -48.200200   12.609400   27.721100
  H    -48.519100   13.562400   28.214700
  H    -47.099400   12.632700   27.470900
  C    -48.535000   11.438700   28.637600
  H    -47.825000   11.412800   29.410300
  H    -48.428500   10.470300   28.138900
  H    -49.569500   11.418800   28.923800
  H    -42.650500   10.998300   26.489600
  H    -50.196000    9.211040   23.441100

 Total Charge           Charge          ....    0
 Multiplicity           Mult            ....    1
 Number of Electrons    NEL             ....  134
 Basis Dimension        Dim             ....  322

ORBITAL ENERGIES
----------------

  NO   OCC          E(Eh)            E(eV)
   0   2.0000     -88.966418     -2420.8993
   1   2.0000     -88.964364     -2420.8434
   2   2.0000     -10.335169      -281.2343
   3   2.0000     -10.328971      -281.0656
   4   2.0000     -10.313018      -280.6315
   5   2.0000     -10.309878      -280.5460
   6   2.0000     -10.306726      -280.4603
   7   2.0000     -10.300586      -280.2932
   8   2.0000     -10.299903      -280.2746
   9   2.0000     -10.294389      -280.1246
  10   2.0000     -10.294094      -280.1165
  11   2.0000     -10.288311      -279.9592
  12   2.0000     -10.282601      -279.8038
  13   2.0000     -10.282129      -279.7910
  14   2.0000     -10.271323      -279.4969
  15   2.0000     -10.263371      -279.2805
  16   2.0000      -8.081256      -219.9021
  17   2.0000      -8.080380      -219.8783
  18   2.0000      -6.039679      -164.3480
  19   2.0000      -6.038685      -164.3210
  20   2.0000      -6.035543      -164.2355
  21   2.0000      -6.034586      -164.2094
  22   2.0000      -6.032301      -164.1473
  23   2.0000      -6.031378      -164.1221
  24   2.0000      -1.006635       -27.3919
  25   2.0000      -0.988520       -26.8990
  26   2.0000      -0.913106       -24.8469
  27   2.0000      -0.903930       -24.5972
  28   2.0000      -0.864468       -23.5234
  29   2.0000      -0.848212       -23.0810
  30   2.0000      -0.844610       -22.9830
  31   2.0000      -0.813121       -22.1261
  32   2.0000      -0.785272       -21.3683
  33   2.0000      -0.775826       -21.1113
  34   2.0000      -0.708459       -19.2781
  35   2.0000      -0.694510       -18.8986
  36   2.0000      -0.681187       -18.5360
  37   2.0000      -0.656323       -17.8595
  38   2.0000      -0.639972       -17.4145
  39   2.0000      -0.621074       -16.9003
  40   2.0000      -0.591286       -16.0897
  41   2.0000      -0.573422       -15.6036
  42   2.0000      -0.554341       -15.0844
  43   2.0000      -0.548040       -14.9129
  44   2.0000      -0.542286       -14.7564
  45   2.0000      -0.536755       -14.6059
  46   2.0000      -0.517028       -14.0691
  47   2.0000      -0.511704       -13.9242
  48   2.0000      -0.501959       -13.6590
  49   2.0000      -0.491453       -13.3731
  50   2.0000      -0.488251       -13.2860
  51   2.0000      -0.476636       -12.9699
  52   2.0000      -0.473696       -12.8899
  53   2.0000      -0.465151       -12.6574
  54   2.0000      -0.461769       -12.5654
  55   2.0000      -0.441508       -12.0140
  56   2.0000      -0.438471       -11.9314
  57   2.0000      -0.434820       -11.8321
  58   2.0000      -0.429858       -11.6970
  59   2.0000      -0.424989       -11.5645
  60   2.0000      -0.415516       -11.3068
  61   2.0000      -0.412490       -11.2244
  62   2.0000      -0.408116       -11.1054
  63   2.0000      -0.333927        -9.0866
  64   2.0000      -0.328502        -8.9390
  65   2.0000      -0.319434        -8.6922
  66   2.0000      -0.314705        -8.5636
  67   0.0000       0.047584         1.2948
  68   0.0000       0.054798         1.4911
  69   0.0000       0.115871         3.1530
  70   0.0000       0.124961         3.4004
  71   0.0000       0.131213         3.5705

MULLIKEN ATOMIC CHARGES
-----------------------
   0 S :    0.119684
   1 C :   -0.121168
   2 C :   -0.068515
   3 C :    0.036500
   4 C :   -0.192191
   5 H :    0.029079
   6 C :    0.046359
   7 H :    0.014907
   8 H :    0.041098
   9 C :   -0.061177
  10 H :    0.034795
  11 H :    0.015402
  12 C :   -0.047977
  13 H :    0.036743
  14 H :    0.024598
  15 H :    0.032228
  16 S :    0.136793
  17 C :   -0.101545
  18 C :   -0.043758
  19 C :    0.037503
  20 C :   -0.194863
  21 H :   -0.025781
  22 C :    0.051214
  23 H :    0.021967
  24 H :    0.035994
  25 C :   -0.119208
  26 H :    0.032766
  27 H :    0.056209
  28 C :   -0.004348
  29 H :    0.026335
  30 H :    0.024563
  31 H :    0.023933
  32 H :    0.041483
  33 H :    0.060375
Sum of atomic charges:   -0.0000000

LOEWDIN ATOMIC CHARGES
----------------------
   0 S :    0.421281
   1 C :   -0.193034
   2 C :   -0.070091
   3 C :   -0.062694
   4 C :   -0.208231
   5 H :    0.037294
   6 C :   -0.027478
   7 H :    0.030508
   8 H :    0.030593
   9 C :   -0.042123
  10 H :    0.027522
  11 H :    0.017451
  12 C :   -0.067108
  13 H :    0.030913
  14 H :    0.024332
  15 H :    0.025480
  16 S :    0.443937
  17 C :   -0.217035
  18 C :   -0.074936
  19 C :   -0.046951
  20 C :   -0.206118
  21 H :    0.013422
  22 C :   -0.038967
  23 H :    0.033140
  24 H :    0.035746
  25 C :   -0.043545
  26 H :    0.026441
  27 H :    0.031511
  28 C :   -0.064741
  29 H :    0.021344
  30 H :    0.026152
  31 H :    0.023576
  32 H :    0.023711
  33 H :    0.038697

  Mayer bond orders larger than 0.100000
B(  0-S ,  1-C ) :   1.1538 B(  0-S ,  4-C ) :   1.1705 B(  1-C ,  2-C ) :   1.5966
B(  1-C , 32-H ) :   0.9700 B(  2-C ,  3-C ) :   1.2446 B(  2-C ,  6-C ) :   1.0166
B(  3-C ,  4-C ) :   1.5779 B(  3-C ,  5-H ) :   0.9888 B(  4-C , 20-C ) :   0.9813
B(  6-C ,  7-H ) :   0.9422 B(  6-C ,  8-H ) :   0.9468 B(  6-C ,  9-C ) :   1.0789
B(  9-C , 10-H ) :   0.9533 B(  9-C , 11-H ) :   0.9569 B(  9-C , 12-C ) :   1.0771
B( 12-C , 13-H ) :   0.9711 B( 12-C , 14-H ) :   0.9738 B( 12-C , 15-H ) :   0.9773
B( 16-S , 17-C ) :   1.1861 B( 16-S , 20-C ) :   1.1525 B( 17-C , 18-C ) :   1.6182
B( 17-C , 33-H ) :   0.9593 B( 18-C , 19-C ) :   1.2066 B( 18-C , 21-H ) :   1.0092
B( 19-C , 20-C ) :   1.6013 B( 19-C , 22-C ) :   1.0335 B( 22-C , 23-H ) :   0.9420
B( 22-C , 24-H ) :   0.9349 B( 22-C , 25-C ) :   1.0594 B( 25-C , 26-H ) :   0.9552
B( 25-C , 27-H ) :   0.9519 B( 25-C , 28-C ) :   1.0821 B( 28-C , 29-H ) :   0.9724
B( 28-C , 30-H ) :   0.9678 B( 28-C , 31-H ) :   0.9732

Dispersion correction           -0.015267602
FINAL SINGLE POINT ENERGY     -1339.877428045920

DIPOLE MOMENT
-------------
                                X             Y             Z
Electronic contribution:     -5.96065     -14.48862      -1.16696
Nuclear contribution   :      5.95863      15.00982       0.98754
                        -----------------------------------------
Total Dipole Moment    :     -0.00202       0.52120      -0.17942
                        -----------------------------------------
Magnitude (a.u.)       :      0.55122
Magnitude (Debye)      :      1.40109

Rotational constants in cm-1:     0.020799     0.008572     0.007406
Rotational constants in MHz :   623.544061   256.993579   222.032260

                             ****ORCA TERMINATED NORMALLY****
TOTAL RUN TIME: 0 days 0 hours 0 minutes 21 seconds 941 msec
