                         Program Version 4.2.1 -  RELEASE  -
|  1> ! wB97X-D3 SP def2-SVP
|  2> %pal
|  3> nprocs 24
|  4> end
|  5>
|  6> * xyz 0 1
|  7> S 	 -96.9141 	 15.0117 	 -117.066
|  8> C 	 -96.7873 	 14.7724 	 -115.318
|  9> C 	 -97.9721 	 14.1496 	 -114.806
| 10> C 	 -98.9223 	 13.8966 	 -115.849
| 11> C 	 -98.5561 	 14.3092 	 -117.106
| 12> H 	 -99.8851 	 13.2647 	 -115.71
| 13> C 	 -98.0982 	 13.5322 	 -113.505
| 14> H 	 -98.9246 	 14.085 	 -113.002
| 15> H 	 -97.1806 	 13.7601 	 -112.937
| 16> C 	 -98.4276 	 12.0133 	 -113.481
| 17> H 	 -98.7491 	 11.8125 	 -112.438
| 18> H 	 -99.1471 	 11.7737 	 -114.312
| 19> C 	 -97.1964 	 11.1212 	 -113.689
| 20> H 	 -97.3563 	 10.0781 	 -113.656
| 21> H 	 -96.7776 	 11.1849 	 -114.711
| 22> H 	 -96.4408 	 11.3759 	 -112.99
| 23> S 	 -99.6882 	 15.779 	 -119.24
| 24> C 	 -100.801 	 15.0832 	 -120.377
| 25> C 	 -101.002 	 13.7124 	 -120.024
| 26> C 	 -100.17 	 13.2688 	 -118.947
| 27> C 	 -99.4133 	 14.2603 	 -118.354
| 28> H 	 -101.748 	 13.1791 	 -120.57
| 29> C 	 -100.261 	 11.9289 	 -118.384
| 30> H 	 -101.079 	 11.9883 	 -117.649
| 31> H 	 -99.4273 	 11.696 	 -117.818
| 32> C 	 -100.529 	 10.8039 	 -119.368
| 33> H 	 -99.7438 	 10.7957 	 -120.113
| 34> H 	 -101.465 	 10.9989 	 -120.007
| 35> C 	 -100.717 	 9.46546 	 -118.648
| 36> H 	 -99.9092 	 9.29079 	 -117.956
| 37> H 	 -100.863 	 8.58316 	 -119.3
| 38> H 	 -101.527 	 9.5447 	 -117.855
| 39> H 	 -95.9233 	 14.9231 	 -114.754
| 40> H 	 -101.374 	 15.6267 	 -121.141
| 41> *
| 42>
| 43>                          ****END OF INPUT****

CARTESIAN COORDINATES (ANGSTROEM)
---------------------------------
  S    -96.914100   15.011700  -117.066000
  C    -96.787300   14.772400  -115.318000
  C    -97.972100   14.149600  -114.806000
  C    -98.922300   13.896600  -115.849000
  C    -98.556100   14.309200  -117.106000
  H    -99.885100   13.264700  -115.710000
  C    -98.098200   13.532200  -113.505000
  H    -98.924600   14.085000  -113.002000
  H    -97.180600   13.760100  -112.937000
  C    -98.427600   12.013300  -113.481000
  H    -98.749100   11.812500  -112.438000
  H    -99.147100   11.773700  -114.312000
  C    -97.196400   11.121200  -113.689000
  H    -97.356300   10.078100  -113.656000
  H    -96.777600   11.184900  -114.711000
  H    -96.440800   11.375900  -112.990000
  S    -99.688200   15.779000  -119.240000
  C    -100.801000   15.083200  -120.377000
  C    -101.002000   13.712400  -120.024000
  C    -100.170000   13.268800  -118.947000
  C    -99.413300   14.260300  -118.354000
  H    -101.748000   13.179100  -120.570000
  C    -100.261000   11.928900  -118.384000
  H    -101.079000   11.988300  -117.649000
  H    -99.427300   11.696000  -117.818000
  C    -100.529000   10.803900  -119.368000
  H    -99.743800   10.795700  -120.113000
  H    -101.465000   10.998900  -120.007000
  C    -100.717000    9.465460  -118.648000
  H    -99.909200    9.290790  -117.956000
  H    -100.863000    8.583160  -119.300000
  H    -101.527000    9.544700  -117.855000
  H    -95.923300   14.923100  -114.754000
  H    -101.374000   15.626700  -121.141000

 Total Charge           Charge          ....    0
 Multiplicity           Mult            ....    1
 Number of Electrons    NEL             ....  134
 Basis Dimension        Dim             ....  322

ORBITAL ENERGIES
----------------

  NO   OCC          E(Eh)            E(eV)
   0   2.0000     -88.969951     -2420.9954
   1   2.0000     -88.964009     -2420.8338
   2   2.0000     -10.339542      -281.3532
   3   2.0000     -10.331393      -281.1315
   4   2.0000     -10.324535      -280.9449
   5   2.0000     -10.319307      -280.8026
   6   2.0000     -10.304190      -280.3913
   7   2.0000     -10.303097      -280.3615
   8   2.0000     -10.302305      -280.3400
   9   2.0000     -10.299230      -280.2563
  10   2.0000     -10.297144      -280.1995
  11   2.0000     -10.293976      -280.1133
  12   2.0000     -10.291770      -280.0533
  13   2.0000     -10.284859      -279.8652
  14   2.0000     -10.282976      -279.8140
  15   2.0000     -10.272469      -279.5281
  16   2.0000      -8.083465      -219.9623
  17   2.0000      -8.078343      -219.8229
  18   2.0000      -6.042079      -164.4133
  19   2.0000      -6.038131      -164.3059
  20   2.0000      -6.036863      -164.2714
  21   2.0000      -6.034183      -164.1985
  22   2.0000      -6.032661      -164.1571
  23   2.0000      -6.029348      -164.0669
  24   2.0000      -1.000073       -27.2134
  25   2.0000      -0.981036       -26.6953
  26   2.0000      -0.917881       -24.9768
  27   2.0000      -0.914959       -24.8973
  28   2.0000      -0.863910       -23.5082
  29   2.0000      -0.852214       -23.1899
  30   2.0000      -0.845408       -23.0047
  31   2.0000      -0.815448       -22.1895
  32   2.0000      -0.781319       -21.2608
  33   2.0000      -0.771690       -20.9988
  34   2.0000      -0.710739       -19.3402
  35   2.0000      -0.704960       -19.1829
  36   2.0000      -0.695350       -18.9214
  37   2.0000      -0.654336       -17.8054
  38   2.0000      -0.637748       -17.3540
  39   2.0000      -0.623329       -16.9616
  40   2.0000      -0.601605       -16.3705
  41   2.0000      -0.573289       -15.6000
  42   2.0000      -0.566639       -15.4190
  43   2.0000      -0.552086       -15.0230
  44   2.0000      -0.541977       -14.7479
  45   2.0000      -0.532620       -14.4933
  46   2.0000      -0.520108       -14.1529
  47   2.0000      -0.512417       -13.9436
  48   2.0000      -0.503460       -13.6998
  49   2.0000      -0.497816       -13.5463
  50   2.0000      -0.485704       -13.2167
  51   2.0000      -0.477760       -13.0005
  52   2.0000      -0.473628       -12.8881
  53   2.0000      -0.467859       -12.7311
  54   2.0000      -0.457661       -12.4536
  55   2.0000      -0.451926       -12.2975
  56   2.0000      -0.445574       -12.1247
  57   2.0000      -0.442178       -12.0323
  58   2.0000      -0.439609       -11.9624
  59   2.0000      -0.426629       -11.6092
  60   2.0000      -0.416337       -11.3291
  61   2.0000      -0.412686       -11.2298
  62   2.0000      -0.410824       -11.1791
  63   2.0000      -0.345739        -9.4080
  64   2.0000      -0.327553        -8.9132
  65   2.0000      -0.324923        -8.8416
  66   2.0000      -0.293965        -7.9992
  67   0.0000       0.029870         0.8128
  68   0.0000       0.061251         1.6667
  69   0.0000       0.106759         2.9051
  70   0.0000       0.119459         3.2506
  71   0.0000       0.127209         3.4615

MULLIKEN ATOMIC CHARGES
-----------------------
   0 S :    0.113109
   1 C :   -0.095346
   2 C :   -0.088865
   3 C :   -0.014514
   4 C :   -0.152784
   5 H :    0.052487
   6 C :    0.046156
   7 H :    0.044803
   8 H :    0.017686
   9 C :   -0.078608
  10 H :    0.040757
  11 H :    0.042114
  12 C :   -0.039513
  13 H :    0.023482
  14 H :    0.031121
  15 H :    0.020695
  16 S :    0.100759
  17 C :   -0.106370
  18 C :   -0.051711
  19 C :   -0.015379
  20 C :   -0.145363
  21 H :    0.015102
  22 C :    0.063462
  23 H :    0.037994
  24 H :    0.007328
  25 C :   -0.095274
  26 H :    0.031751
  27 H :    0.037034
  28 C :   -0.034781
  29 H :    0.013666
  30 H :    0.051505
  31 H :    0.022238
  32 H :    0.031754
  33 H :    0.073502
Sum of atomic charges:   -0.0000000

LOEWDIN ATOMIC CHARGES
----------------------
   0 S :    0.390778
   1 C :   -0.184072
   2 C :   -0.064878
   3 C :   -0.073759
   4 C :   -0.185457
   5 H :    0.046393
   6 C :   -0.042278
   7 H :    0.040682
   8 H :    0.031480
   9 C :   -0.035903
  10 H :    0.031450
  11 H :    0.029670
  12 C :   -0.067717
  13 H :    0.021010
  14 H :    0.029795
  15 H :    0.018648
  16 S :    0.405737
  17 C :   -0.191953
  18 C :   -0.073076
  19 C :   -0.057868
  20 C :   -0.193383
  21 H :    0.025673
  22 C :   -0.033128
  23 H :    0.036828
  24 H :    0.021348
  25 C :   -0.042117
  26 H :    0.023539
  27 H :    0.028747
  28 C :   -0.072806
  29 H :    0.020590
  30 H :    0.031249
  31 H :    0.031006
  32 H :    0.015969
  33 H :    0.037806

  Mayer bond orders larger than 0.100000
B(  0-S ,  1-C ) :   1.1402 B(  0-S ,  4-C ) :   1.1477 B(  1-C ,  2-C ) :   1.5799
B(  1-C ,  4-C ) :   0.1006 B(  1-C , 32-H ) :   0.9739 B(  2-C ,  3-C ) :   1.2398
B(  2-C ,  6-C ) :   1.0533 B(  3-C ,  4-C ) :   1.5916 B(  3-C ,  5-H ) :   0.9680
B(  4-C , 20-C ) :   1.0114 B(  6-C ,  7-H ) :   0.9229 B(  6-C ,  8-H ) :   0.9402
B(  6-C ,  9-C ) :   1.0640 B(  9-C , 10-H ) :   0.9532 B(  9-C , 11-H ) :   0.9533
B(  9-C , 12-C ) :   1.0772 B( 12-C , 13-H ) :   0.9732 B( 12-C , 14-H ) :   0.9741
B( 12-C , 15-H ) :   0.9747 B( 16-S , 17-C ) :   1.1825 B( 16-S , 20-C ) :   1.1365
B( 17-C , 18-C ) :   1.5682 B( 17-C , 20-C ) :   0.1040 B( 17-C , 33-H ) :   0.9658
B( 18-C , 19-C ) :   1.2411 B( 18-C , 21-H ) :   0.9979 B( 19-C , 20-C ) :   1.5832
B( 19-C , 22-C ) :   1.0652 B( 22-C , 23-H ) :   0.9207 B( 22-C , 24-H ) :   0.9253
B( 22-C , 25-C ) :   1.0629 B( 25-C , 26-H ) :   0.9585 B( 25-C , 27-H ) :   0.9480
B( 25-C , 28-C ) :   1.0810 B( 28-C , 29-H ) :   0.9695 B( 28-C , 30-H ) :   0.9736
B( 28-C , 31-H ) :   0.9695

Dispersion correction           -0.014236280
FINAL SINGLE POINT ENERGY     -1339.869403318154

DIPOLE MOMENT
-------------
                                X             Y             Z
Electronic contribution:      5.27374      27.51026     -12.44074
Nuclear contribution   :     -5.55424     -28.15923      12.82340
                        -----------------------------------------
Total Dipole Moment    :     -0.28051      -0.64897       0.38266
                        -----------------------------------------
Magnitude (a.u.)       :      0.80391
Magnitude (Debye)      :      2.04337

Rotational constants in cm-1:     0.016533     0.009707     0.006687
Rotational constants in MHz :   495.657722   290.998059   200.469081

                             ****ORCA TERMINATED NORMALLY****
TOTAL RUN TIME: 0 days 0 hours 0 minutes 21 seconds 916 msec
