                         Program Version 4.2.1 -  RELEASE  -
|  1> ! wB97X-D3 SP def2-SVP
|  2> %pal
|  3> nprocs 24
|  4> end
|  5>
|  6> * xyz 0 1
|  7> S 	 -137.864 	 14.2872 	 -1.82504
|  8> C 	 -138.689 	 13.0401 	 -0.89242
|  9> C 	 -137.98 	 12.789 	 0.344356
| 10> C 	 -136.875 	 13.6873 	 0.44409
| 11> C 	 -136.53 	 14.3815 	 -0.690688
| 12> H 	 -136.16 	 13.5597 	 1.31029
| 13> C 	 -138.278 	 11.7694 	 1.39161
| 14> H 	 -139.131 	 11.2051 	 1.10598
| 15> H 	 -138.669 	 12.4354 	 2.2353
| 16> C 	 -137.194 	 10.7737 	 1.77328
| 17> H 	 -136.259 	 11.2996 	 2.09074
| 18> H 	 -137.418 	 10.2041 	 2.67018
| 19> C 	 -136.73 	 9.86187 	 0.647958
| 20> H 	 -137.307 	 9.02133 	 0.262989
| 21> H 	 -136.659 	 10.507 	 -0.298651
| 22> H 	 -135.76 	 9.38341 	 0.966706
| 23> S 	 -135.447 	 16.8406 	 -1.43717
| 24> C 	 -133.699 	 17.0153 	 -1.54809
| 25> C 	 -133.137 	 15.8883 	 -1.16943
| 26> C 	 -134.031 	 14.8411 	 -0.815123
| 27> C 	 -135.352 	 15.135 	 -1.04001
| 28> H 	 -132.087 	 15.7539 	 -1.27165
| 29> C 	 -133.388 	 13.5082 	 -0.49111
| 30> H 	 -132.484 	 13.3531 	 -0.997844
| 31> H 	 -133.857 	 12.641 	 -0.968755
| 32> C 	 -132.921 	 13.3323 	 0.905506
| 33> H 	 -133.795 	 13.0567 	 1.43163
| 34> H 	 -132.566 	 14.3245 	 1.22641
| 35> C 	 -131.689 	 12.4534 	 1.0987
| 36> H 	 -131.316 	 12.4603 	 2.14536
| 37> H 	 -130.869 	 12.8141 	 0.47678
| 38> H 	 -131.913 	 11.3927 	 0.811277
| 39> H 	 -139.592 	 12.4892 	 -1.2814
| 40> H 	 -133.225 	 17.8868 	 -1.95913
| 41> *
| 42>
| 43>                          ****END OF INPUT****

CARTESIAN COORDINATES (ANGSTROEM)
---------------------------------
  S    -137.864000   14.287200   -1.825040
  C    -138.689000   13.040100   -0.892420
  C    -137.980000   12.789000    0.344356
  C    -136.875000   13.687300    0.444090
  C    -136.530000   14.381500   -0.690688
  H    -136.160000   13.559700    1.310290
  C    -138.278000   11.769400    1.391610
  H    -139.131000   11.205100    1.105980
  H    -138.669000   12.435400    2.235300
  C    -137.194000   10.773700    1.773280
  H    -136.259000   11.299600    2.090740
  H    -137.418000   10.204100    2.670180
  C    -136.730000    9.861870    0.647958
  H    -137.307000    9.021330    0.262989
  H    -136.659000   10.507000   -0.298651
  H    -135.760000    9.383410    0.966706
  S    -135.447000   16.840600   -1.437170
  C    -133.699000   17.015300   -1.548090
  C    -133.137000   15.888300   -1.169430
  C    -134.031000   14.841100   -0.815123
  C    -135.352000   15.135000   -1.040010
  H    -132.087000   15.753900   -1.271650
  C    -133.388000   13.508200   -0.491110
  H    -132.484000   13.353100   -0.997844
  H    -133.857000   12.641000   -0.968755
  C    -132.921000   13.332300    0.905506
  H    -133.795000   13.056700    1.431630
  H    -132.566000   14.324500    1.226410
  C    -131.689000   12.453400    1.098700
  H    -131.316000   12.460300    2.145360
  H    -130.869000   12.814100    0.476780
  H    -131.913000   11.392700    0.811277
  H    -139.592000   12.489200   -1.281400
  H    -133.225000   17.886800   -1.959130

 Total Charge           Charge          ....    0
 Multiplicity           Mult            ....    1
 Number of Electrons    NEL             ....  134
 Basis Dimension        Dim             ....  322

ORBITAL ENERGIES
----------------

  NO   OCC          E(Eh)            E(eV)
   0   2.0000     -88.966357     -2420.8977
   1   2.0000     -88.959448     -2420.7097
   2   2.0000     -10.331043      -281.1220
   3   2.0000     -10.327581      -281.0278
   4   2.0000     -10.327056      -281.0135
   5   2.0000     -10.313262      -280.6381
   6   2.0000     -10.309909      -280.5469
   7   2.0000     -10.301075      -280.3065
   8   2.0000     -10.298942      -280.2485
   9   2.0000     -10.296710      -280.1877
  10   2.0000     -10.293712      -280.1061
  11   2.0000     -10.285549      -279.8840
  12   2.0000     -10.285433      -279.8809
  13   2.0000     -10.284527      -279.8562
  14   2.0000     -10.279427      -279.7174
  15   2.0000     -10.278660      -279.6965
  16   2.0000      -8.080801      -219.8898
  17   2.0000      -8.074706      -219.7239
  18   2.0000      -6.039261      -164.3367
  19   2.0000      -6.035221      -164.2267
  20   2.0000      -6.033395      -164.1770
  21   2.0000      -6.031757      -164.1325
  22   2.0000      -6.029154      -164.0616
  23   2.0000      -6.025204      -163.9541
  24   2.0000      -1.011126       -27.5141
  25   2.0000      -0.986029       -26.8312
  26   2.0000      -0.920176       -25.0393
  27   2.0000      -0.916861       -24.9491
  28   2.0000      -0.874275       -23.7902
  29   2.0000      -0.849879       -23.1264
  30   2.0000      -0.844745       -22.9867
  31   2.0000      -0.817467       -22.2444
  32   2.0000      -0.784312       -21.3422
  33   2.0000      -0.773938       -21.0599
  34   2.0000      -0.711907       -19.3720
  35   2.0000      -0.700224       -19.0541
  36   2.0000      -0.693030       -18.8583
  37   2.0000      -0.663024       -18.0418
  38   2.0000      -0.640496       -17.4288
  39   2.0000      -0.622106       -16.9284
  40   2.0000      -0.610629       -16.6161
  41   2.0000      -0.570354       -15.5201
  42   2.0000      -0.567338       -15.4381
  43   2.0000      -0.561199       -15.2710
  44   2.0000      -0.531980       -14.4759
  45   2.0000      -0.526821       -14.3355
  46   2.0000      -0.523972       -14.2580
  47   2.0000      -0.519852       -14.1459
  48   2.0000      -0.508730       -13.8432
  49   2.0000      -0.498736       -13.5713
  50   2.0000      -0.487169       -13.2565
  51   2.0000      -0.477265       -12.9870
  52   2.0000      -0.471752       -12.8370
  53   2.0000      -0.464675       -12.6445
  54   2.0000      -0.463670       -12.6171
  55   2.0000      -0.453541       -12.3415
  56   2.0000      -0.445564       -12.1244
  57   2.0000      -0.435654       -11.8547
  58   2.0000      -0.427389       -11.6298
  59   2.0000      -0.420889       -11.4530
  60   2.0000      -0.414071       -11.2674
  61   2.0000      -0.407890       -11.0993
  62   2.0000      -0.406611       -11.0644
  63   2.0000      -0.351439        -9.5631
  64   2.0000      -0.330767        -9.0006
  65   2.0000      -0.327464        -8.9107
  66   2.0000      -0.295415        -8.0387
  67   0.0000       0.026936         0.7330
  68   0.0000       0.068607         1.8669
  69   0.0000       0.114621         3.1190
  70   0.0000       0.118208         3.2166
  71   0.0000       0.122689         3.3385

MULLIKEN ATOMIC CHARGES
-----------------------
   0 S :    0.106231
   1 C :   -0.134985
   2 C :   -0.151931
   3 C :    0.036594
   4 C :   -0.168464
   5 H :    0.028062
   6 C :    0.075343
   7 H :    0.008878
   8 H :    0.057285
   9 C :   -0.046647
  10 H :    0.026002
  11 H :    0.030453
  12 C :   -0.103762
  13 H :    0.031705
  14 H :    0.052899
  15 H :    0.042210
  16 S :    0.079706
  17 C :   -0.075639
  18 C :   -0.006416
  19 C :   -0.026560
  20 C :   -0.106106
  21 H :    0.008677
  22 C :    0.072152
  23 H :   -0.025700
  24 H :    0.025243
  25 C :   -0.050427
  26 H :    0.015302
  27 H :    0.024327
  28 C :   -0.069751
  29 H :    0.045434
  30 H :    0.032545
  31 H :    0.036883
  32 H :    0.075149
  33 H :    0.055311
Sum of atomic charges:   -0.0000000

LOEWDIN ATOMIC CHARGES
----------------------
   0 S :    0.405337
   1 C :   -0.209006
   2 C :   -0.064363
   3 C :   -0.066656
   4 C :   -0.191722
   5 H :    0.036900
   6 C :   -0.040928
   7 H :    0.026128
   8 H :    0.051108
   9 C :   -0.046523
  10 H :    0.027483
  11 H :    0.026667
  12 C :   -0.080888
  13 H :    0.021048
  14 H :    0.037990
  15 H :    0.033272
  16 S :    0.387288
  17 C :   -0.165522
  18 C :   -0.070049
  19 C :   -0.051339
  20 C :   -0.196784
  21 H :    0.028988
  22 C :   -0.041938
  23 H :    0.021197
  24 H :    0.033693
  25 C :   -0.039620
  26 H :    0.013218
  27 H :    0.028569
  28 C :   -0.067754
  29 H :    0.032171
  30 H :    0.024250
  31 H :    0.026895
  32 H :    0.039468
  33 H :    0.031424

  Mayer bond orders larger than 0.100000
B(  0-S ,  1-C ) :   1.1563 B(  0-S ,  4-C ) :   1.1511 B(  1-C ,  2-C ) :   1.5598
B(  1-C ,  4-C ) :   0.1102 B(  1-C , 32-H ) :   0.9620 B(  2-C ,  3-C ) :   1.2605
B(  2-C ,  6-C ) :   1.0314 B(  3-C ,  4-C ) :   1.5753 B(  3-C ,  5-H ) :   0.9766
B(  4-C , 20-C ) :   1.0313 B(  6-C ,  7-H ) :   0.9388 B(  6-C ,  8-H ) :   0.9327
B(  6-C ,  9-C ) :   1.0680 B(  9-C , 10-H ) :   0.9555 B(  9-C , 11-H ) :   0.9516
B(  9-C , 12-C ) :   1.0616 B( 12-C , 13-H ) :   0.9760 B( 12-C , 14-H ) :   0.9730
B( 12-C , 15-H ) :   0.9745 B( 16-S , 17-C ) :   1.1343 B( 16-S , 20-C ) :   1.1254
B( 17-C , 18-C ) :   1.6278 B( 17-C , 33-H ) :   0.9707 B( 18-C , 19-C ) :   1.2235
B( 18-C , 21-H ) :   0.9945 B( 19-C , 20-C ) :   1.6234 B( 19-C , 22-C ) :   1.0502
B( 22-C , 23-H ) :   0.9283 B( 22-C , 24-H ) :   0.9287 B( 22-C , 25-C ) :   1.0459
B( 25-C , 26-H ) :   0.9504 B( 25-C , 27-H ) :   0.9532 B( 25-C , 28-C ) :   1.0884
B( 28-C , 29-H ) :   0.9744 B( 28-C , 30-H ) :   0.9690 B( 28-C , 31-H ) :   0.9740

Dispersion correction           -0.014965749
FINAL SINGLE POINT ENERGY     -1339.858127111458

DIPOLE MOMENT
-------------
                                X             Y             Z
Electronic contribution:    -12.83564      24.74731     -15.50854
Nuclear contribution   :     13.28292     -25.31343      15.82276
                        -----------------------------------------
Total Dipole Moment    :      0.44728      -0.56612       0.31422
                        -----------------------------------------
Magnitude (a.u.)       :      0.78694
Magnitude (Debye)      :      2.00025

Rotational constants in cm-1:     0.016539     0.010738     0.006990
Rotational constants in MHz :   495.817084   321.918739   209.564667

                             ****ORCA TERMINATED NORMALLY****
TOTAL RUN TIME: 0 days 0 hours 0 minutes 22 seconds 555 msec
