                         Program Version 4.2.1 -  RELEASE  -
|  1> ! wB97X-D3 SP def2-SVP
|  2> %pal
|  3> nprocs 24
|  4> end
|  5>
|  6> * xyz 0 1
|  7> S 	 -107.88 	 67.1045 	 -14.2819
|  8> C 	 -108.712 	 67.5608 	 -12.8062
|  9> C 	 -108.747 	 66.4979 	 -11.9488
| 10> C 	 -107.996 	 65.3708 	 -12.4174
| 11> C 	 -107.595 	 65.5047 	 -13.7326
| 12> H 	 -107.73 	 64.4764 	 -11.8584
| 13> C 	 -109.368 	 66.557 	 -10.6095
| 14> H 	 -109.116 	 65.5598 	 -10.169
| 15> H 	 -110.473 	 66.818 	 -10.6175
| 16> C 	 -108.87 	 67.6049 	 -9.61455
| 17> H 	 -107.814 	 67.592 	 -9.41011
| 18> H 	 -109.089 	 68.609 	 -9.98965
| 19> C 	 -109.61 	 67.431 	 -8.23809
| 20> H 	 -110.656 	 67.5176 	 -8.36282
| 21> H 	 -109.519 	 66.3864 	 -7.91444
| 22> H 	 -109.282 	 68.1742 	 -7.44783
| 23> S 	 -105.024 	 65.1471 	 -14.7134
| 24> C 	 -104.553 	 63.6003 	 -15.1811
| 25> C 	 -105.631 	 62.7384 	 -15.32
| 26> C 	 -106.934 	 63.338 	 -14.9558
| 27> C 	 -106.675 	 64.5912 	 -14.3974
| 28> H 	 -105.405 	 61.7406 	 -15.6762
| 29> C 	 -108.313 	 62.6229 	 -15.0241
| 30> H 	 -108.225 	 61.9671 	 -15.8466
| 31> H 	 -109.134 	 63.2689 	 -15.4144
| 32> C 	 -108.635 	 61.8458 	 -13.7409
| 33> H 	 -109.551 	 61.3638 	 -13.9747
| 34> H 	 -108.853 	 62.497 	 -12.905
| 35> C 	 -107.506 	 60.8566 	 -13.3795
| 36> H 	 -107.76 	 60.501 	 -12.409
| 37> H 	 -106.492 	 61.2684 	 -13.263
| 38> H 	 -107.332 	 59.9349 	 -13.9878
| 39> H 	 -109.194 	 68.4617 	 -12.584
| 40> H 	 -103.529 	 63.377 	 -15.5914
| 41> *
| 42>
| 43>                          ****END OF INPUT****

CARTESIAN COORDINATES (ANGSTROEM)
---------------------------------
  S    -107.880000   67.104500  -14.281900
  C    -108.712000   67.560800  -12.806200
  C    -108.747000   66.497900  -11.948800
  C    -107.996000   65.370800  -12.417400
  C    -107.595000   65.504700  -13.732600
  H    -107.730000   64.476400  -11.858400
  C    -109.368000   66.557000  -10.609500
  H    -109.116000   65.559800  -10.169000
  H    -110.473000   66.818000  -10.617500
  C    -108.870000   67.604900   -9.614550
  H    -107.814000   67.592000   -9.410110
  H    -109.089000   68.609000   -9.989650
  C    -109.610000   67.431000   -8.238090
  H    -110.656000   67.517600   -8.362820
  H    -109.519000   66.386400   -7.914440
  H    -109.282000   68.174200   -7.447830
  S    -105.024000   65.147100  -14.713400
  C    -104.553000   63.600300  -15.181100
  C    -105.631000   62.738400  -15.320000
  C    -106.934000   63.338000  -14.955800
  C    -106.675000   64.591200  -14.397400
  H    -105.405000   61.740600  -15.676200
  C    -108.313000   62.622900  -15.024100
  H    -108.225000   61.967100  -15.846600
  H    -109.134000   63.268900  -15.414400
  C    -108.635000   61.845800  -13.740900
  H    -109.551000   61.363800  -13.974700
  H    -108.853000   62.497000  -12.905000
  C    -107.506000   60.856600  -13.379500
  H    -107.760000   60.501000  -12.409000
  H    -106.492000   61.268400  -13.263000
  H    -107.332000   59.934900  -13.987800
  H    -109.194000   68.461700  -12.584000
  H    -103.529000   63.377000  -15.591400

 Total Charge           Charge          ....    0
 Multiplicity           Mult            ....    1
 Number of Electrons    NEL             ....  134
 Basis Dimension        Dim             ....  322

ORBITAL ENERGIES
----------------

  NO   OCC          E(Eh)            E(eV)
   0   2.0000     -88.965422     -2420.8722
   1   2.0000     -88.961738     -2420.7720
   2   2.0000     -10.324385      -280.9408
   3   2.0000     -10.323414      -280.9144
   4   2.0000     -10.315064      -280.6872
   5   2.0000     -10.311051      -280.5780
   6   2.0000     -10.307839      -280.4906
   7   2.0000     -10.296329      -280.1774
   8   2.0000     -10.296210      -280.1741
   9   2.0000     -10.295819      -280.1635
  10   2.0000     -10.293493      -280.1002
  11   2.0000     -10.293121      -280.0901
  12   2.0000     -10.287010      -279.9238
  13   2.0000     -10.286606      -279.9128
  14   2.0000     -10.281498      -279.7738
  15   2.0000     -10.276022      -279.6248
  16   2.0000      -8.080575      -219.8836
  17   2.0000      -8.077678      -219.8048
  18   2.0000      -6.039030      -164.3304
  19   2.0000      -6.036025      -164.2486
  20   2.0000      -6.034940      -164.2191
  21   2.0000      -6.032117      -164.1423
  22   2.0000      -6.031445      -164.1240
  23   2.0000      -6.028431      -164.0419
  24   2.0000      -1.009154       -27.4605
  25   2.0000      -0.985938       -26.8287
  26   2.0000      -0.914524       -24.8855
  27   2.0000      -0.908518       -24.7220
  28   2.0000      -0.868153       -23.6237
  29   2.0000      -0.848477       -23.0882
  30   2.0000      -0.840531       -22.8720
  31   2.0000      -0.811357       -22.0781
  32   2.0000      -0.785804       -21.3828
  33   2.0000      -0.770850       -20.9759
  34   2.0000      -0.711875       -19.3711
  35   2.0000      -0.704750       -19.1772
  36   2.0000      -0.690972       -18.8023
  37   2.0000      -0.654277       -17.8038
  38   2.0000      -0.642202       -17.4752
  39   2.0000      -0.616935       -16.7876
  40   2.0000      -0.593026       -16.1371
  41   2.0000      -0.570191       -15.5157
  42   2.0000      -0.564155       -15.3514
  43   2.0000      -0.546579       -14.8732
  44   2.0000      -0.542144       -14.7525
  45   2.0000      -0.523361       -14.2414
  46   2.0000      -0.515343       -14.0232
  47   2.0000      -0.511846       -13.9280
  48   2.0000      -0.502904       -13.6847
  49   2.0000      -0.494995       -13.4695
  50   2.0000      -0.487908       -13.2766
  51   2.0000      -0.478766       -13.0279
  52   2.0000      -0.471441       -12.8285
  53   2.0000      -0.463837       -12.6216
  54   2.0000      -0.457993       -12.4626
  55   2.0000      -0.445316       -12.1177
  56   2.0000      -0.438927       -11.9438
  57   2.0000      -0.438143       -11.9225
  58   2.0000      -0.433178       -11.7874
  59   2.0000      -0.429341       -11.6830
  60   2.0000      -0.426485       -11.6052
  61   2.0000      -0.416639       -11.3373
  62   2.0000      -0.413231       -11.2446
  63   2.0000      -0.337190        -9.1754
  64   2.0000      -0.329407        -8.9636
  65   2.0000      -0.324169        -8.8211
  66   2.0000      -0.300393        -8.1741
  67   0.0000       0.037962         1.0330
  68   0.0000       0.063420         1.7258
  69   0.0000       0.112499         3.0613
  70   0.0000       0.123501         3.3606
  71   0.0000       0.129801         3.5321

MULLIKEN ATOMIC CHARGES
-----------------------
   0 S :    0.112586
   1 C :   -0.100210
   2 C :   -0.049493
   3 C :    0.017435
   4 C :   -0.145131
   5 H :    0.026608
   6 C :    0.022078
   7 H :    0.023397
   8 H :    0.046902
   9 C :   -0.074414
  10 H :    0.030625
  11 H :    0.022775
  12 C :   -0.055031
  13 H :    0.012479
  14 H :    0.024428
  15 H :    0.052943
  16 S :    0.122431
  17 C :   -0.108230
  18 C :   -0.057290
  19 C :   -0.044549
  20 C :   -0.195304
  21 H :    0.017480
  22 C :    0.096613
  23 H :    0.004599
  24 H :    0.039471
  25 C :   -0.018957
  26 H :    0.022199
  27 H :    0.027335
  28 C :   -0.074878
  29 H :    0.016251
  30 H :    0.049127
  31 H :    0.034801
  32 H :    0.024201
  33 H :    0.076721
Sum of atomic charges:    0.0000000

LOEWDIN ATOMIC CHARGES
----------------------
   0 S :    0.420819
   1 C :   -0.184855
   2 C :   -0.069577
   3 C :   -0.058698
   4 C :   -0.209283
   5 H :    0.032700
   6 C :   -0.041977
   7 H :    0.033502
   8 H :    0.043654
   9 C :   -0.037483
  10 H :    0.020195
  11 H :    0.018592
  12 C :   -0.068573
  13 H :    0.014701
  14 H :    0.024751
  15 H :    0.035555
  16 S :    0.418551
  17 C :   -0.218775
  18 C :   -0.079449
  19 C :   -0.042488
  20 C :   -0.198605
  21 H :    0.027618
  22 C :   -0.030849
  23 H :    0.024450
  24 H :    0.038809
  25 C :   -0.028115
  26 H :    0.023411
  27 H :    0.023724
  28 C :   -0.073646
  29 H :    0.021265
  30 H :    0.030644
  31 H :    0.029164
  32 H :    0.018666
  33 H :    0.041601

  Mayer bond orders larger than 0.100000
B(  0-S ,  1-C ) :   1.1343 B(  0-S ,  4-C ) :   1.1677 B(  1-C ,  2-C ) :   1.5976
B(  1-C , 32-H ) :   0.9797 B(  2-C ,  3-C ) :   1.2487 B(  2-C ,  6-C ) :   1.0332
B(  3-C ,  4-C ) :   1.5742 B(  3-C ,  5-H ) :   0.9809 B(  4-C , 20-C ) :   1.0310
B(  6-C ,  7-H ) :   0.9420 B(  6-C ,  8-H ) :   0.9337 B(  6-C ,  9-C ) :   1.0676
B(  9-C , 10-H ) :   0.9583 B(  9-C , 11-H ) :   0.9530 B(  9-C , 12-C ) :   1.0746
B( 12-C , 13-H ) :   0.9733 B( 12-C , 14-H ) :   0.9743 B( 12-C , 15-H ) :   0.9745
B( 16-S , 17-C ) :   1.1620 B( 16-S , 20-C ) :   1.1483 B( 17-C , 18-C ) :   1.6250
B( 17-C , 33-H ) :   0.9578 B( 18-C , 19-C ) :   1.2097 B( 18-C , 21-H ) :   0.9890
B( 19-C , 20-C ) :   1.6045 B( 19-C , 22-C ) :   1.0384 B( 22-C , 23-H ) :   0.9272
B( 22-C , 24-H ) :   0.9354 B( 22-C , 25-C ) :   1.0709 B( 25-C , 26-H ) :   0.9513
B( 25-C , 27-H ) :   0.9562 B( 25-C , 28-C ) :   1.0699 B( 28-C , 29-H ) :   0.9711
B( 28-C , 30-H ) :   0.9695 B( 28-C , 31-H ) :   0.9760

Dispersion correction           -0.014547892
FINAL SINGLE POINT ENERGY     -1339.871202019731

DIPOLE MOMENT
-------------
                                X             Y             Z
Electronic contribution:     13.28064      10.56231     -20.14842
Nuclear contribution   :    -13.55098     -10.91231      20.45871
                        -----------------------------------------
Total Dipole Moment    :     -0.27034      -0.35000       0.31029
                        -----------------------------------------
Magnitude (a.u.)       :      0.54025
Magnitude (Debye)      :      1.37320

Rotational constants in cm-1:     0.020592     0.007931     0.006662
Rotational constants in MHz :   617.328720   237.755851   199.709521

                             ****ORCA TERMINATED NORMALLY****
TOTAL RUN TIME: 0 days 0 hours 0 minutes 21 seconds 515 msec
