                         Program Version 4.2.1 -  RELEASE  -
|  1> ! wB97X-D3 SP def2-SVP
|  2> %pal
|  3> nprocs 24
|  4> end
|  5>
|  6> * xyz 0 1
|  7> S 	 49.0216 	 -32.7001 	 -118.846
|  8> C 	 48.7254 	 -31.12 	 -119.682
|  9> C 	 47.5174 	 -30.5406 	 -119.32
| 10> C 	 46.8128 	 -31.445 	 -118.405
| 11> C 	 47.4738 	 -32.663 	 -118.153
| 12> H 	 45.8404 	 -31.1634 	 -117.969
| 13> C 	 46.9331 	 -29.2548 	 -119.875
| 14> H 	 45.8597 	 -29.4715 	 -119.951
| 15> H 	 47.3294 	 -29.1107 	 -120.884
| 16> C 	 47.0821 	 -28.028 	 -119.024
| 17> H 	 46.5368 	 -28.128 	 -118.084
| 18> H 	 48.1191 	 -27.8896 	 -118.718
| 19> C 	 46.6083 	 -26.759 	 -119.768
| 20> H 	 45.4828 	 -26.8528 	 -119.789
| 21> H 	 46.9443 	 -25.8998 	 -119.206
| 22> H 	 46.9098 	 -26.6007 	 -120.793
| 23> S 	 48.2186 	 -34.6231 	 -116.276
| 24> C 	 46.9332 	 -35.5309 	 -115.443
| 25> C 	 45.6825 	 -35.1828 	 -115.964
| 26> C 	 45.7255 	 -34.2704 	 -117.114
| 27> C 	 46.988 	 -33.7313 	 -117.29
| 28> H 	 44.7859 	 -35.5749 	 -115.539
| 29> C 	 44.4078 	 -33.7653 	 -117.759
| 30> H 	 44.5731 	 -33.2197 	 -118.683
| 31> H 	 43.9511 	 -33.1439 	 -117.048
| 32> C 	 43.4701 	 -34.9329 	 -118.103
| 33> H 	 43.3017 	 -35.6081 	 -117.329
| 34> H 	 43.8487 	 -35.613 	 -118.807
| 35> C 	 42.1722 	 -34.3521 	 -118.601
| 36> H 	 42.2178 	 -33.9057 	 -119.571
| 37> H 	 41.8134 	 -33.4103 	 -118.086
| 38> H 	 41.3856 	 -35.068 	 -118.584
| 39> H 	 49.5464 	 -30.7564 	 -120.259
| 40> H 	 47.1526 	 -36.1774 	 -114.606
| 41> *
| 42>
| 43>                          ****END OF INPUT****

CARTESIAN COORDINATES (ANGSTROEM)
---------------------------------
  S     49.021600  -32.700100  -118.846000
  C     48.725400  -31.120000  -119.682000
  C     47.517400  -30.540600  -119.320000
  C     46.812800  -31.445000  -118.405000
  C     47.473800  -32.663000  -118.153000
  H     45.840400  -31.163400  -117.969000
  C     46.933100  -29.254800  -119.875000
  H     45.859700  -29.471500  -119.951000
  H     47.329400  -29.110700  -120.884000
  C     47.082100  -28.028000  -119.024000
  H     46.536800  -28.128000  -118.084000
  H     48.119100  -27.889600  -118.718000
  C     46.608300  -26.759000  -119.768000
  H     45.482800  -26.852800  -119.789000
  H     46.944300  -25.899800  -119.206000
  H     46.909800  -26.600700  -120.793000
  S     48.218600  -34.623100  -116.276000
  C     46.933200  -35.530900  -115.443000
  C     45.682500  -35.182800  -115.964000
  C     45.725500  -34.270400  -117.114000
  C     46.988000  -33.731300  -117.290000
  H     44.785900  -35.574900  -115.539000
  C     44.407800  -33.765300  -117.759000
  H     44.573100  -33.219700  -118.683000
  H     43.951100  -33.143900  -117.048000
  C     43.470100  -34.932900  -118.103000
  H     43.301700  -35.608100  -117.329000
  H     43.848700  -35.613000  -118.807000
  C     42.172200  -34.352100  -118.601000
  H     42.217800  -33.905700  -119.571000
  H     41.813400  -33.410300  -118.086000
  H     41.385600  -35.068000  -118.584000
  H     49.546400  -30.756400  -120.259000
  H     47.152600  -36.177400  -114.606000

 Total Charge           Charge          ....    0
 Multiplicity           Mult            ....    1
 Number of Electrons    NEL             ....  134
 Basis Dimension        Dim             ....  322

ORBITAL ENERGIES
----------------

  NO   OCC          E(Eh)            E(eV)
   0   2.0000     -88.964458     -2420.8460
   1   2.0000     -88.961519     -2420.7660
   2   2.0000     -10.332398      -281.1589
   3   2.0000     -10.330473      -281.1065
   4   2.0000     -10.324290      -280.9382
   5   2.0000     -10.317754      -280.7604
   6   2.0000     -10.309279      -280.5298
   7   2.0000     -10.308994      -280.5220
   8   2.0000     -10.300497      -280.2908
   9   2.0000     -10.299732      -280.2699
  10   2.0000     -10.295273      -280.1486
  11   2.0000     -10.292674      -280.0779
  12   2.0000     -10.287295      -279.9315
  13   2.0000     -10.282738      -279.8075
  14   2.0000     -10.275787      -279.6184
  15   2.0000     -10.274033      -279.5706
  16   2.0000      -8.079640      -219.8582
  17   2.0000      -8.075055      -219.7334
  18   2.0000      -6.038074      -164.3043
  19   2.0000      -6.034213      -164.1993
  20   2.0000      -6.033728      -164.1861
  21   2.0000      -6.030327      -164.0935
  22   2.0000      -6.029870      -164.0811
  23   2.0000      -6.025574      -163.9642
  24   2.0000      -0.998925       -27.1821
  25   2.0000      -0.971753       -26.4428
  26   2.0000      -0.918019       -24.9806
  27   2.0000      -0.913047       -24.8453
  28   2.0000      -0.867720       -23.6119
  29   2.0000      -0.851381       -23.1673
  30   2.0000      -0.837885       -22.8000
  31   2.0000      -0.806838       -21.9552
  32   2.0000      -0.783298       -21.3146
  33   2.0000      -0.774062       -21.0633
  34   2.0000      -0.716681       -19.5019
  35   2.0000      -0.703575       -19.1452
  36   2.0000      -0.696639       -18.9565
  37   2.0000      -0.660107       -17.9624
  38   2.0000      -0.641307       -17.4509
  39   2.0000      -0.619157       -16.8481
  40   2.0000      -0.598626       -16.2894
  41   2.0000      -0.572493       -15.5783
  42   2.0000      -0.567614       -15.4456
  43   2.0000      -0.556663       -15.1476
  44   2.0000      -0.533077       -14.5058
  45   2.0000      -0.528979       -14.3942
  46   2.0000      -0.515592       -14.0300
  47   2.0000      -0.509866       -13.8742
  48   2.0000      -0.506016       -13.7694
  49   2.0000      -0.499394       -13.5892
  50   2.0000      -0.490793       -13.3552
  51   2.0000      -0.481197       -13.0940
  52   2.0000      -0.469368       -12.7721
  53   2.0000      -0.466038       -12.6815
  54   2.0000      -0.458823       -12.4852
  55   2.0000      -0.455361       -12.3910
  56   2.0000      -0.444873       -12.1056
  57   2.0000      -0.443121       -12.0579
  58   2.0000      -0.436609       -11.8807
  59   2.0000      -0.427367       -11.6292
  60   2.0000      -0.417030       -11.3480
  61   2.0000      -0.413165       -11.2428
  62   2.0000      -0.407724       -11.0947
  63   2.0000      -0.350757        -9.5446
  64   2.0000      -0.330266        -8.9870
  65   2.0000      -0.326616        -8.8877
  66   2.0000      -0.286702        -7.8016
  67   0.0000       0.023929         0.6511
  68   0.0000       0.074235         2.0200
  69   0.0000       0.094398         2.5687
  70   0.0000       0.113486         3.0881
  71   0.0000       0.135761         3.6942

MULLIKEN ATOMIC CHARGES
-----------------------
   0 S :    0.093103
   1 C :   -0.142305
   2 C :   -0.055934
   3 C :   -0.011200
   4 C :   -0.122672
   5 H :    0.019897
   6 C :    0.063301
   7 H :    0.024925
   8 H :    0.028966
   9 C :   -0.069017
  10 H :    0.030169
  11 H :    0.026676
  12 C :   -0.049795
  13 H :    0.033428
  14 H :    0.037688
  15 H :    0.031505
  16 S :    0.069837
  17 C :   -0.089449
  18 C :   -0.026963
  19 C :   -0.042469
  20 C :   -0.126387
  21 H :    0.019406
  22 C :    0.063529
  23 H :    0.034879
  24 H :    0.032846
  25 C :   -0.032712
  26 H :    0.003004
  27 H :    0.017789
  28 C :   -0.032091
  29 H :    0.016285
  30 H :    0.016914
  31 H :    0.026139
  32 H :    0.044727
  33 H :    0.065981
Sum of atomic charges:    0.0000000

LOEWDIN ATOMIC CHARGES
----------------------
   0 S :    0.399957
   1 C :   -0.173900
   2 C :   -0.053354
   3 C :   -0.070945
   4 C :   -0.207028
   5 H :    0.030513
   6 C :   -0.032380
   7 H :    0.033639
   8 H :    0.033936
   9 C :   -0.041145
  10 H :    0.027026
  11 H :    0.021954
  12 C :   -0.065060
  13 H :    0.030914
  14 H :    0.026599
  15 H :    0.022041
  16 S :    0.345651
  17 C :   -0.168402
  18 C :   -0.065887
  19 C :   -0.051470
  20 C :   -0.169382
  21 H :    0.024961
  22 C :   -0.016356
  23 H :    0.032501
  24 H :    0.026090
  25 C :   -0.034893
  26 H :    0.014242
  27 H :    0.024922
  28 C :   -0.065406
  29 H :    0.021694
  30 H :    0.029176
  31 H :    0.020801
  32 H :    0.018682
  33 H :    0.030308

  Mayer bond orders larger than 0.100000
B(  0-S ,  1-C ) :   1.1232 B(  0-S ,  4-C ) :   1.1634 B(  1-C ,  2-C ) :   1.6033
B(  1-C , 32-H ) :   0.9793 B(  2-C ,  3-C ) :   1.2397 B(  2-C ,  6-C ) :   1.0165
B(  3-C ,  4-C ) :   1.5470 B(  3-C ,  5-H ) :   0.9861 B(  4-C , 20-C ) :   1.0683
B(  6-C ,  7-H ) :   0.9363 B(  6-C ,  8-H ) :   0.9448 B(  6-C ,  9-C ) :   1.0708
B(  9-C , 10-H ) :   0.9512 B(  9-C , 11-H ) :   0.9576 B(  9-C , 12-C ) :   1.0767
B( 12-C , 13-H ) :   0.9756 B( 12-C , 14-H ) :   0.9756 B( 12-C , 15-H ) :   0.9777
B( 16-S , 17-C ) :   1.1325 B( 16-S , 20-C ) :   1.1036 B( 17-C , 18-C ) :   1.6391
B( 17-C , 33-H ) :   0.9707 B( 18-C , 19-C ) :   1.1884 B( 18-C , 21-H ) :   0.9883
B( 19-C , 20-C ) :   1.6373 B( 19-C , 22-C ) :   1.0397 B( 22-C , 23-H ) :   0.9390
B( 22-C , 24-H ) :   0.9414 B( 22-C , 25-C ) :   1.0572 B( 25-C , 26-H ) :   0.9549
B( 25-C , 27-H ) :   0.9477 B( 25-C , 28-C ) :   1.0868 B( 28-C , 29-H ) :   0.9697
B( 28-C , 30-H ) :   0.9709 B( 28-C , 31-H ) :   0.9728

Dispersion correction           -0.013133644
FINAL SINGLE POINT ENERGY     -1339.873860742519

DIPOLE MOMENT
-------------
                                X             Y             Z
Electronic contribution:     23.62506     -17.04502       8.43895
Nuclear contribution   :    -24.28073      17.45989      -8.52086
                        -----------------------------------------
Total Dipole Moment    :     -0.65567       0.41487      -0.08192
                        -----------------------------------------
Magnitude (a.u.)       :      0.78021
Magnitude (Debye)      :      1.98315

Rotational constants in cm-1:     0.017188     0.007901     0.005964
Rotational constants in MHz :   515.270781   236.870909   178.802753

                             ****ORCA TERMINATED NORMALLY****
TOTAL RUN TIME: 0 days 0 hours 0 minutes 20 seconds 678 msec
