                         Program Version 4.2.1 -  RELEASE  -
|  1> ! wB97X-D3 SP def2-SVP
|  2> %pal
|  3> nprocs 24
|  4> end
|  5>
|  6> * xyz 0 1
|  7> S 	 -43.4683 	 21.2195 	 22.0149
|  8> C 	 -42.247 	 20.1321 	 21.4459
|  9> C 	 -42.5139 	 18.8254 	 21.6913
| 10> C 	 -43.6292 	 18.7301 	 22.5742
| 11> C 	 -44.1789 	 19.9425 	 23.0051
| 12> H 	 -44.123 	 17.8825 	 23.0803
| 13> C 	 -41.6599 	 17.629 	 21.1488
| 14> H 	 -40.6529 	 17.9273 	 20.9718
| 15> H 	 -41.9974 	 17.317 	 20.1487
| 16> C 	 -41.756 	 16.4087 	 22.0791
| 17> H 	 -42.7891 	 16.2069 	 22.1793
| 18> H 	 -41.4969 	 15.5449 	 21.4114
| 19> C 	 -40.9884 	 16.3811 	 23.4147
| 20> H 	 -40.9968 	 17.3579 	 23.8379
| 21> H 	 -41.4781 	 15.723 	 24.1812
| 22> H 	 -39.9501 	 15.9938 	 23.2225
| 23> S 	 -46.8606 	 19.8143 	 23.7533
| 24> C 	 -47.155 	 19.9272 	 25.4672
| 25> C 	 -46.0753 	 20.4762 	 26.1601
| 26> C 	 -44.9385 	 20.7605 	 25.2919
| 27> C 	 -45.1429 	 20.1518 	 24.0599
| 28> H 	 -46.2336 	 20.8437 	 27.1901
| 29> C 	 -43.5949 	 21.0283 	 25.9162
| 30> H 	 -43.3883 	 22.1273 	 25.9448
| 31> H 	 -42.7536 	 20.7267 	 25.3264
| 32> C 	 -43.3327 	 20.5067 	 27.3312
| 33> H 	 -44.2234 	 20.4998 	 28.0303
| 34> H 	 -42.6339 	 21.0518 	 27.9577
| 35> C 	 -42.7831 	 19.1057 	 27.3787
| 36> H 	 -42.518 	 18.855 	 28.3994
| 37> H 	 -42.0366 	 18.8293 	 26.6857
| 38> H 	 -43.5754 	 18.4618 	 27.0681
| 39> H 	 -41.4596 	 20.4641 	 20.748
| 40> H 	 -48.1893 	 19.9174 	 25.7697
| 41> *
| 42>
| 43>                          ****END OF INPUT****

CARTESIAN COORDINATES (ANGSTROEM)
---------------------------------
  S    -43.468300   21.219500   22.014900
  C    -42.247000   20.132100   21.445900
  C    -42.513900   18.825400   21.691300
  C    -43.629200   18.730100   22.574200
  C    -44.178900   19.942500   23.005100
  H    -44.123000   17.882500   23.080300
  C    -41.659900   17.629000   21.148800
  H    -40.652900   17.927300   20.971800
  H    -41.997400   17.317000   20.148700
  C    -41.756000   16.408700   22.079100
  H    -42.789100   16.206900   22.179300
  H    -41.496900   15.544900   21.411400
  C    -40.988400   16.381100   23.414700
  H    -40.996800   17.357900   23.837900
  H    -41.478100   15.723000   24.181200
  H    -39.950100   15.993800   23.222500
  S    -46.860600   19.814300   23.753300
  C    -47.155000   19.927200   25.467200
  C    -46.075300   20.476200   26.160100
  C    -44.938500   20.760500   25.291900
  C    -45.142900   20.151800   24.059900
  H    -46.233600   20.843700   27.190100
  C    -43.594900   21.028300   25.916200
  H    -43.388300   22.127300   25.944800
  H    -42.753600   20.726700   25.326400
  C    -43.332700   20.506700   27.331200
  H    -44.223400   20.499800   28.030300
  H    -42.633900   21.051800   27.957700
  C    -42.783100   19.105700   27.378700
  H    -42.518000   18.855000   28.399400
  H    -42.036600   18.829300   26.685700
  H    -43.575400   18.461800   27.068100
  H    -41.459600   20.464100   20.748000
  H    -48.189300   19.917400   25.769700

 Total Charge           Charge          ....    0
 Multiplicity           Mult            ....    1
 Number of Electrons    NEL             ....  134
 Basis Dimension        Dim             ....  322

ORBITAL ENERGIES
----------------

  NO   OCC          E(Eh)            E(eV)
   0   2.0000     -88.965526     -2420.8750
   1   2.0000     -88.963567     -2420.8217
   2   2.0000     -10.329518      -281.0805
   3   2.0000     -10.326153      -280.9889
   4   2.0000     -10.318884      -280.7911
   5   2.0000     -10.311769      -280.5975
   6   2.0000     -10.310525      -280.5636
   7   2.0000     -10.302846      -280.3547
   8   2.0000     -10.302013      -280.3320
   9   2.0000     -10.297931      -280.2210
  10   2.0000     -10.297487      -280.2089
  11   2.0000     -10.291640      -280.0498
  12   2.0000     -10.284976      -279.8684
  13   2.0000     -10.284649      -279.8595
  14   2.0000     -10.283476      -279.8276
  15   2.0000     -10.261985      -279.2428
  16   2.0000      -8.080377      -219.8782
  17   2.0000      -8.078517      -219.8276
  18   2.0000      -6.038750      -164.3227
  19   2.0000      -6.036894      -164.2722
  20   2.0000      -6.035102      -164.2235
  21   2.0000      -6.033097      -164.1689
  22   2.0000      -6.031030      -164.1127
  23   2.0000      -6.029297      -164.0655
  24   2.0000      -1.005904       -27.3720
  25   2.0000      -0.984556       -26.7911
  26   2.0000      -0.911030       -24.7904
  27   2.0000      -0.907144       -24.6846
  28   2.0000      -0.870164       -23.6784
  29   2.0000      -0.851381       -23.1673
  30   2.0000      -0.840442       -22.8696
  31   2.0000      -0.811911       -22.0932
  32   2.0000      -0.787917       -21.4403
  33   2.0000      -0.776168       -21.1206
  34   2.0000      -0.708796       -19.2873
  35   2.0000      -0.699565       -19.0361
  36   2.0000      -0.686727       -18.6868
  37   2.0000      -0.657185       -17.8829
  38   2.0000      -0.639714       -17.4075
  39   2.0000      -0.618269       -16.8240
  40   2.0000      -0.606295       -16.4981
  41   2.0000      -0.561189       -15.2707
  42   2.0000      -0.555836       -15.1251
  43   2.0000      -0.548637       -14.9292
  44   2.0000      -0.531608       -14.4658
  45   2.0000      -0.526882       -14.3372
  46   2.0000      -0.521909       -14.2019
  47   2.0000      -0.509723       -13.8703
  48   2.0000      -0.506278       -13.7765
  49   2.0000      -0.495199       -13.4751
  50   2.0000      -0.483214       -13.1489
  51   2.0000      -0.479720       -13.0539
  52   2.0000      -0.472636       -12.8611
  53   2.0000      -0.464424       -12.6376
  54   2.0000      -0.463700       -12.6179
  55   2.0000      -0.443501       -12.0683
  56   2.0000      -0.442533       -12.0419
  57   2.0000      -0.438254       -11.9255
  58   2.0000      -0.435694       -11.8558
  59   2.0000      -0.426725       -11.6118
  60   2.0000      -0.424049       -11.5390
  61   2.0000      -0.408383       -11.1127
  62   2.0000      -0.400302       -10.8928
  63   2.0000      -0.335605        -9.1323
  64   2.0000      -0.327775        -8.9192
  65   2.0000      -0.326104        -8.8737
  66   2.0000      -0.304944        -8.2979
  67   0.0000       0.029812         0.8112
  68   0.0000       0.056034         1.5248
  69   0.0000       0.099242         2.7005
  70   0.0000       0.119159         3.2425
  71   0.0000       0.126402         3.4396

MULLIKEN ATOMIC CHARGES
-----------------------
   0 S :    0.119215
   1 C :   -0.145010
   2 C :   -0.058049
   3 C :    0.014827
   4 C :   -0.197017
   5 H :    0.022788
   6 C :    0.102621
   7 H :    0.011891
   8 H :    0.037775
   9 C :   -0.105379
  10 H :    0.018343
  11 H :    0.019366
  12 C :   -0.035077
  13 H :    0.033751
  14 H :    0.041939
  15 H :    0.046456
  16 S :    0.109323
  17 C :   -0.085897
  18 C :   -0.064134
  19 C :    0.045447
  20 C :   -0.200528
  21 H :    0.045694
  22 C :    0.059676
  23 H :    0.036897
  24 H :    0.025715
  25 C :   -0.094004
  26 H :    0.023587
  27 H :    0.018854
  28 C :   -0.024437
  29 H :    0.028146
  30 H :    0.018524
  31 H :    0.013732
  32 H :    0.055139
  33 H :    0.059825
Sum of atomic charges:   -0.0000000

LOEWDIN ATOMIC CHARGES
----------------------
   0 S :    0.401716
   1 C :   -0.198401
   2 C :   -0.072570
   3 C :   -0.062533
   4 C :   -0.201475
   5 H :    0.036093
   6 C :   -0.020105
   7 H :    0.023160
   8 H :    0.037637
   9 C :   -0.051744
  10 H :    0.016534
  11 H :    0.028313
  12 C :   -0.067578
  13 H :    0.021602
  14 H :    0.034961
  15 H :    0.034019
  16 S :    0.395633
  17 C :   -0.183602
  18 C :   -0.071808
  19 C :   -0.045478
  20 C :   -0.191421
  21 H :    0.037455
  22 C :   -0.036521
  23 H :    0.043606
  24 H :    0.031636
  25 C :   -0.046985
  26 H :    0.028133
  27 H :    0.022023
  28 C :   -0.062705
  29 H :    0.025496
  30 H :    0.017067
  31 H :    0.021802
  32 H :    0.031775
  33 H :    0.024266

  Mayer bond orders larger than 0.100000
B(  0-S ,  1-C ) :   1.1554 B(  0-S ,  4-C ) :   1.1330 B(  1-C ,  2-C ) :   1.6251
B(  1-C , 32-H ) :   0.9624 B(  2-C ,  3-C ) :   1.2241 B(  2-C ,  6-C ) :   0.9979
B(  3-C ,  4-C ) :   1.5971 B(  3-C ,  5-H ) :   0.9861 B(  4-C , 20-C ) :   1.0591
B(  6-C ,  7-H ) :   0.9471 B(  6-C ,  8-H ) :   0.9345 B(  6-C ,  9-C ) :   1.0875
B(  9-C , 10-H ) :   0.9494 B(  9-C , 11-H ) :   0.9533 B(  9-C , 12-C ) :   1.0628
B( 12-C , 13-H ) :   0.9775 B( 12-C , 14-H ) :   0.9749 B( 12-C , 15-H ) :   0.9756
B( 16-S , 17-C ) :   1.1494 B( 16-S , 20-C ) :   1.1447 B( 17-C , 18-C ) :   1.6266
B( 17-C , 33-H ) :   0.9660 B( 18-C , 19-C ) :   1.2211 B( 18-C , 21-H ) :   0.9737
B( 19-C , 20-C ) :   1.5782 B( 19-C , 22-C ) :   1.0527 B( 22-C , 23-H ) :   0.9182
B( 22-C , 24-H ) :   0.9442 B( 22-C , 25-C ) :   1.0652 B( 25-C , 26-H ) :   0.9485
B( 25-C , 27-H ) :   0.9574 B( 25-C , 28-C ) :   1.0842 B( 28-C , 29-H ) :   0.9729
B( 28-C , 30-H ) :   0.9735 B( 28-C , 31-H ) :   0.9731

Dispersion correction           -0.015050427
FINAL SINGLE POINT ENERGY     -1339.854648881817

DIPOLE MOMENT
-------------
                                X             Y             Z
Electronic contribution:    -18.66413      15.08264     -12.73552
Nuclear contribution   :     18.95640     -15.31491      12.93261
                        -----------------------------------------
Total Dipole Moment    :      0.29227      -0.23227       0.19709
                        -----------------------------------------
Magnitude (a.u.)       :      0.42215
Magnitude (Debye)      :      1.07303

Rotational constants in cm-1:     0.017160     0.009475     0.007982
Rotational constants in MHz :   514.454710   284.046136   239.301777

                             ****ORCA TERMINATED NORMALLY****
TOTAL RUN TIME: 0 days 0 hours 0 minutes 23 seconds 384 msec
