                         Program Version 4.2.1 -  RELEASE  -
|  1> ! wB97X-D3 SP def2-SVP
|  2> %pal
|  3> nprocs 24
|  4> end
|  5>
|  6> * xyz 0 1
|  7> S 	 -64.2883 	 17.2747 	 -116.245
|  8> C 	 -64.1052 	 15.9713 	 -115.108
|  9> C 	 -62.7773 	 15.7696 	 -114.784
| 10> C 	 -61.9051 	 16.7223 	 -115.389
| 11> C 	 -62.49 	 17.6199 	 -116.19
| 12> H 	 -60.8509 	 16.9097 	 -115.306
| 13> C 	 -62.2896 	 14.7769 	 -113.84
| 14> H 	 -61.8084 	 13.9453 	 -114.416
| 15> H 	 -63.1484 	 14.3027 	 -113.291
| 16> C 	 -61.2478 	 15.2832 	 -112.835
| 17> H 	 -60.2527 	 15.4347 	 -113.264
| 18> H 	 -61.6237 	 16.2241 	 -112.566
| 19> C 	 -61.0546 	 14.2796 	 -111.648
| 20> H 	 -62.0189 	 13.7381 	 -111.555
| 21> H 	 -60.2927 	 13.5804 	 -111.954
| 22> H 	 -60.797 	 14.7489 	 -110.729
| 23> S 	 -62.2912 	 18.7732 	 -118.73
| 24> C 	 -60.8851 	 19.8027 	 -118.888
| 25> C 	 -60.3967 	 20.2826 	 -117.695
| 26> C 	 -60.8826 	 19.5474 	 -116.634
| 27> C 	 -61.8498 	 18.6494 	 -117.011
| 28> H 	 -59.547 	 21.027 	 -117.73
| 29> C 	 -60.525 	 19.915 	 -115.213
| 30> H 	 -59.9486 	 20.8516 	 -115.205
| 31> H 	 -60.021 	 19.1242 	 -114.599
| 32> C 	 -61.6617 	 20.2493 	 -114.223
| 33> H 	 -62.4893 	 19.6313 	 -114.276
| 34> H 	 -62.2364 	 21.1509 	 -114.604
| 35> C 	 -61.2032 	 20.5785 	 -112.775
| 36> H 	 -60.1872 	 20.604 	 -112.82
| 37> H 	 -61.4182 	 19.7181 	 -112.049
| 38> H 	 -61.4621 	 21.5602 	 -112.311
| 39> H 	 -64.877 	 15.2652 	 -114.823
| 40> H 	 -60.6615 	 20.1976 	 -119.854
| 41> *
| 42>
| 43>                          ****END OF INPUT****

CARTESIAN COORDINATES (ANGSTROEM)
---------------------------------
  S    -64.288300   17.274700  -116.245000
  C    -64.105200   15.971300  -115.108000
  C    -62.777300   15.769600  -114.784000
  C    -61.905100   16.722300  -115.389000
  C    -62.490000   17.619900  -116.190000
  H    -60.850900   16.909700  -115.306000
  C    -62.289600   14.776900  -113.840000
  H    -61.808400   13.945300  -114.416000
  H    -63.148400   14.302700  -113.291000
  C    -61.247800   15.283200  -112.835000
  H    -60.252700   15.434700  -113.264000
  H    -61.623700   16.224100  -112.566000
  C    -61.054600   14.279600  -111.648000
  H    -62.018900   13.738100  -111.555000
  H    -60.292700   13.580400  -111.954000
  H    -60.797000   14.748900  -110.729000
  S    -62.291200   18.773200  -118.730000
  C    -60.885100   19.802700  -118.888000
  C    -60.396700   20.282600  -117.695000
  C    -60.882600   19.547400  -116.634000
  C    -61.849800   18.649400  -117.011000
  H    -59.547000   21.027000  -117.730000
  C    -60.525000   19.915000  -115.213000
  H    -59.948600   20.851600  -115.205000
  H    -60.021000   19.124200  -114.599000
  C    -61.661700   20.249300  -114.223000
  H    -62.489300   19.631300  -114.276000
  H    -62.236400   21.150900  -114.604000
  C    -61.203200   20.578500  -112.775000
  H    -60.187200   20.604000  -112.820000
  H    -61.418200   19.718100  -112.049000
  H    -61.462100   21.560200  -112.311000
  H    -64.877000   15.265200  -114.823000
  H    -60.661500   20.197600  -119.854000

 Total Charge           Charge          ....    0
 Multiplicity           Mult            ....    1
 Number of Electrons    NEL             ....  134
 Basis Dimension        Dim             ....  322

ORBITAL ENERGIES
----------------

  NO   OCC          E(Eh)            E(eV)
   0   2.0000     -88.971158     -2421.0283
   1   2.0000     -88.961196     -2420.7572
   2   2.0000     -10.329094      -281.0689
   3   2.0000     -10.328945      -281.0649
   4   2.0000     -10.317294      -280.7478
   5   2.0000     -10.312631      -280.6210
   6   2.0000     -10.303572      -280.3745
   7   2.0000     -10.299300      -280.2582
   8   2.0000     -10.298260      -280.2299
   9   2.0000     -10.297002      -280.1957
  10   2.0000     -10.291428      -280.0440
  11   2.0000     -10.287447      -279.9357
  12   2.0000     -10.282924      -279.8126
  13   2.0000     -10.279302      -279.7140
  14   2.0000     -10.278748      -279.6989
  15   2.0000     -10.278541      -279.6933
  16   2.0000      -8.085752      -220.0245
  17   2.0000      -8.075136      -219.7356
  18   2.0000      -6.043988      -164.4653
  19   2.0000      -6.040651      -164.3745
  20   2.0000      -6.036422      -164.2594
  21   2.0000      -6.033775      -164.1874
  22   2.0000      -6.029837      -164.0802
  23   2.0000      -6.025736      -163.9686
  24   2.0000      -1.010512       -27.4974
  25   2.0000      -0.987419       -26.8690
  26   2.0000      -0.913689       -24.8627
  27   2.0000      -0.908377       -24.7182
  28   2.0000      -0.872512       -23.7422
  29   2.0000      -0.857723       -23.3398
  30   2.0000      -0.845512       -23.0075
  31   2.0000      -0.818362       -22.2688
  32   2.0000      -0.781952       -21.2780
  33   2.0000      -0.766842       -20.8668
  34   2.0000      -0.715469       -19.4689
  35   2.0000      -0.702053       -19.1038
  36   2.0000      -0.691241       -18.8096
  37   2.0000      -0.663310       -18.0496
  38   2.0000      -0.647229       -17.6120
  39   2.0000      -0.619668       -16.8620
  40   2.0000      -0.606330       -16.4991
  41   2.0000      -0.574920       -15.6444
  42   2.0000      -0.563993       -15.3470
  43   2.0000      -0.555874       -15.1261
  44   2.0000      -0.522915       -14.2292
  45   2.0000      -0.520381       -14.1603
  46   2.0000      -0.515524       -14.0281
  47   2.0000      -0.514608       -14.0032
  48   2.0000      -0.502016       -13.6605
  49   2.0000      -0.495074       -13.4716
  50   2.0000      -0.490629       -13.3507
  51   2.0000      -0.477338       -12.9890
  52   2.0000      -0.473204       -12.8765
  53   2.0000      -0.464028       -12.6268
  54   2.0000      -0.459535       -12.5046
  55   2.0000      -0.455176       -12.3860
  56   2.0000      -0.445461       -12.1216
  57   2.0000      -0.438799       -11.9403
  58   2.0000      -0.433702       -11.8016
  59   2.0000      -0.431061       -11.7298
  60   2.0000      -0.422331       -11.4922
  61   2.0000      -0.417366       -11.3571
  62   2.0000      -0.398065       -10.8319
  63   2.0000      -0.353296        -9.6137
  64   2.0000      -0.340535        -9.2664
  65   2.0000      -0.324525        -8.8308
  66   2.0000      -0.287915        -7.8346
  67   0.0000       0.023951         0.6517
  68   0.0000       0.062592         1.7032
  69   0.0000       0.104450         2.8422
  70   0.0000       0.123996         3.3741
  71   0.0000       0.126851         3.4518

MULLIKEN ATOMIC CHARGES
-----------------------
   0 S :    0.077304
   1 C :   -0.111389
   2 C :   -0.070476
   3 C :    0.026514
   4 C :   -0.148725
   5 H :    0.003274
   6 C :    0.040618
   7 H :    0.041535
   8 H :    0.021809
   9 C :   -0.095927
  10 H :    0.035564
  11 H :    0.020623
  12 C :   -0.021656
  13 H :    0.026666
  14 H :    0.033630
  15 H :    0.035672
  16 S :    0.120430
  17 C :   -0.093205
  18 C :   -0.051055
  19 C :    0.012759
  20 C :   -0.154251
  21 H :    0.046350
  22 C :    0.041854
  23 H :    0.031782
  24 H :    0.038907
  25 C :   -0.091248
  26 H :    0.019754
  27 H :    0.018923
  28 C :   -0.040928
  29 H :   -0.004786
  30 H :    0.046745
  31 H :    0.047358
  32 H :    0.050124
  33 H :    0.045449
Sum of atomic charges:    0.0000000

LOEWDIN ATOMIC CHARGES
----------------------
   0 S :    0.355201
   1 C :   -0.196746
   2 C :   -0.068541
   3 C :   -0.063950
   4 C :   -0.158148
   5 H :    0.033731
   6 C :   -0.040766
   7 H :    0.037503
   8 H :    0.032065
   9 C :   -0.037849
  10 H :    0.024291
  11 H :    0.013750
  12 C :   -0.056190
  13 H :    0.026711
  14 H :    0.026028
  15 H :    0.022792
  16 S :    0.400835
  17 C :   -0.168950
  18 C :   -0.072206
  19 C :   -0.061318
  20 C :   -0.183742
  21 H :    0.047073
  22 C :   -0.034224
  23 H :    0.034718
  24 H :    0.034768
  25 C :   -0.048148
  26 H :    0.011970
  27 H :    0.028786
  28 C :   -0.069758
  29 H :    0.007869
  30 H :    0.037380
  31 H :    0.035283
  32 H :    0.031663
  33 H :    0.018118

  Mayer bond orders larger than 0.100000
B(  0-S ,  1-C ) :   1.1209 B(  0-S ,  4-C ) :   1.1009 B(  1-C ,  2-C ) :   1.6402
B(  1-C , 32-H ) :   0.9631 B(  2-C ,  3-C ) :   1.1759 B(  2-C ,  6-C ) :   1.0557
B(  3-C ,  4-C ) :   1.6513 B(  3-C ,  5-H ) :   0.9936 B(  4-C , 20-C ) :   1.0439
B(  6-C ,  7-H ) :   0.9193 B(  6-C ,  8-H ) :   0.9397 B(  6-C ,  9-C ) :   1.0646
B(  9-C , 10-H ) :   0.9478 B(  9-C , 11-H ) :   0.9658 B(  9-C , 12-C ) :   1.0718
B( 12-C , 13-H ) :   0.9792 B( 12-C , 14-H ) :   0.9777 B( 12-C , 15-H ) :   0.9769
B( 16-S , 17-C ) :   1.1658 B( 16-S , 20-C ) :   1.1343 B( 17-C , 18-C ) :   1.6044
B( 17-C , 20-C ) :   0.1076 B( 17-C , 33-H ) :   0.9687 B( 18-C , 19-C ) :   1.2515
B( 18-C , 21-H ) :   0.9798 B( 19-C , 20-C ) :   1.5877 B( 19-C , 22-C ) :   1.0392
B( 22-C , 23-H ) :   0.9427 B( 22-C , 24-H ) :   0.9298 B( 22-C , 25-C ) :   1.0539
B( 25-C , 26-H ) :   0.9598 B( 25-C , 27-H ) :   0.9527 B( 25-C , 28-C ) :   1.0565
B( 28-C , 29-H ) :   0.9747 B( 28-C , 30-H ) :   0.9730 B( 28-C , 31-H ) :   0.9758

Dispersion correction           -0.014684591
FINAL SINGLE POINT ENERGY     -1339.849594271095

DIPOLE MOMENT
-------------
                                X             Y             Z
Electronic contribution:    -12.04019       3.27680     -28.54143
Nuclear contribution   :     12.57507      -3.25480      28.89740
                        -----------------------------------------
Total Dipole Moment    :      0.53488       0.02199       0.35597
                        -----------------------------------------
Magnitude (a.u.)       :      0.64288
Magnitude (Debye)      :      1.63406

Rotational constants in cm-1:     0.018120     0.009210     0.007285
Rotational constants in MHz :   543.214393   276.123385   218.397533

                             ****ORCA TERMINATED NORMALLY****
TOTAL RUN TIME: 0 days 0 hours 0 minutes 21 seconds 185 msec
