                         Program Version 4.2.1 -  RELEASE  -
|  1> ! wB97X-D3 SP def2-SVP
|  2> %pal
|  3> nprocs 24
|  4> end
|  5>
|  6> * xyz 0 1
|  7> S 	 -101.928 	 14.1201 	 -120.862
|  8> C 	 -100.392 	 14.7701 	 -121.27
|  9> C 	 -99.8565 	 14.1914 	 -122.433
| 10> C 	 -100.807 	 13.2997 	 -122.985
| 11> C 	 -101.888 	 13.081 	 -122.272
| 12> H 	 -100.713 	 12.8235 	 -123.903
| 13> C 	 -98.4059 	 14.3351 	 -123.03
| 14> H 	 -98.0214 	 13.3469 	 -123.275
| 15> H 	 -97.9064 	 14.7875 	 -122.191
| 16> C 	 -98.3161 	 15.2304 	 -124.274
| 17> H 	 -98.961 	 14.8521 	 -125.104
| 18> H 	 -98.7847 	 16.1668 	 -124.012
| 19> C 	 -96.8546 	 15.3849 	 -124.675
| 20> H 	 -96.9924 	 15.5045 	 -125.758
| 21> H 	 -96.4207 	 16.314 	 -124.305
| 22> H 	 -96.2519 	 14.4996 	 -124.439
| 23> S 	 -104.639 	 12.7775 	 -122.372
| 24> C 	 -105.32 	 11.342 	 -123.067
| 25> C 	 -104.3 	 10.3964 	 -123.201
| 26> C 	 -103.014 	 10.8664 	 -122.878
| 27> C 	 -102.956 	 12.1661 	 -122.497
| 28> H 	 -104.432 	 9.40575 	 -123.454
| 29> C 	 -101.777 	 9.98366 	 -123.118
| 30> H 	 -100.841 	 10.5904 	 -123.211
| 31> H 	 -101.8 	 9.54426 	 -124.11
| 32> C 	 -101.636 	 8.80718 	 -122.239
| 33> H 	 -102.405 	 8.06949 	 -122.57
| 34> H 	 -101.8 	 9.1487 	 -121.247
| 35> C 	 -100.288 	 8.15058 	 -122.331
| 36> H 	 -100.083 	 7.60938 	 -121.437
| 37> H 	 -99.4504 	 8.83188 	 -122.447
| 38> H 	 -100.102 	 7.59834 	 -123.248
| 39> H 	 -99.8422 	 15.4169 	 -120.592
| 40> H 	 -106.343 	 11.0334 	 -123.196
| 41> *
| 42>
| 43>                          ****END OF INPUT****

CARTESIAN COORDINATES (ANGSTROEM)
---------------------------------
  S    -101.928000   14.120100  -120.862000
  C    -100.392000   14.770100  -121.270000
  C    -99.856500   14.191400  -122.433000
  C    -100.807000   13.299700  -122.985000
  C    -101.888000   13.081000  -122.272000
  H    -100.713000   12.823500  -123.903000
  C    -98.405900   14.335100  -123.030000
  H    -98.021400   13.346900  -123.275000
  H    -97.906400   14.787500  -122.191000
  C    -98.316100   15.230400  -124.274000
  H    -98.961000   14.852100  -125.104000
  H    -98.784700   16.166800  -124.012000
  C    -96.854600   15.384900  -124.675000
  H    -96.992400   15.504500  -125.758000
  H    -96.420700   16.314000  -124.305000
  H    -96.251900   14.499600  -124.439000
  S    -104.639000   12.777500  -122.372000
  C    -105.320000   11.342000  -123.067000
  C    -104.300000   10.396400  -123.201000
  C    -103.014000   10.866400  -122.878000
  C    -102.956000   12.166100  -122.497000
  H    -104.432000    9.405750  -123.454000
  C    -101.777000    9.983660  -123.118000
  H    -100.841000   10.590400  -123.211000
  H    -101.800000    9.544260  -124.110000
  C    -101.636000    8.807180  -122.239000
  H    -102.405000    8.069490  -122.570000
  H    -101.800000    9.148700  -121.247000
  C    -100.288000    8.150580  -122.331000
  H    -100.083000    7.609380  -121.437000
  H    -99.450400    8.831880  -122.447000
  H    -100.102000    7.598340  -123.248000
  H    -99.842200   15.416900  -120.592000
  H    -106.343000   11.033400  -123.196000

 Total Charge           Charge          ....    0
 Multiplicity           Mult            ....    1
 Number of Electrons    NEL             ....  134
 Basis Dimension        Dim             ....  322

ORBITAL ENERGIES
----------------

  NO   OCC          E(Eh)            E(eV)
   0   2.0000     -88.962990     -2420.8060
   1   2.0000     -88.962759     -2420.7998
   2   2.0000     -10.323338      -280.9123
   3   2.0000     -10.319361      -280.8041
   4   2.0000     -10.318473      -280.7799
   5   2.0000     -10.314971      -280.6846
   6   2.0000     -10.302271      -280.3391
   7   2.0000     -10.297253      -280.2025
   8   2.0000     -10.295910      -280.1659
   9   2.0000     -10.286990      -279.9232
  10   2.0000     -10.286132      -279.8999
  11   2.0000     -10.285862      -279.8925
  12   2.0000     -10.280353      -279.7426
  13   2.0000     -10.279826      -279.7283
  14   2.0000     -10.278793      -279.7002
  15   2.0000     -10.271450      -279.5004
  16   2.0000      -8.078707      -219.8328
  17   2.0000      -8.077268      -219.7936
  18   2.0000      -6.037123      -164.2785
  19   2.0000      -6.035941      -164.2463
  20   2.0000      -6.033114      -164.1694
  21   2.0000      -6.031722      -164.1315
  22   2.0000      -6.029470      -164.0702
  23   2.0000      -6.027929      -164.0283
  24   2.0000      -1.013824       -27.5875
  25   2.0000      -0.987857       -26.8809
  26   2.0000      -0.918489       -24.9934
  27   2.0000      -0.911575       -24.8052
  28   2.0000      -0.875774       -23.8310
  29   2.0000      -0.856446       -23.3051
  30   2.0000      -0.848535       -23.0898
  31   2.0000      -0.816368       -22.2145
  32   2.0000      -0.784309       -21.3421
  33   2.0000      -0.772869       -21.0308
  34   2.0000      -0.706048       -19.2125
  35   2.0000      -0.697808       -18.9883
  36   2.0000      -0.695745       -18.9322
  37   2.0000      -0.667665       -18.1681
  38   2.0000      -0.651172       -17.7193
  39   2.0000      -0.626398       -17.0452
  40   2.0000      -0.601179       -16.3589
  41   2.0000      -0.576031       -15.6746
  42   2.0000      -0.571404       -15.5487
  43   2.0000      -0.558375       -15.1942
  44   2.0000      -0.532581       -14.4923
  45   2.0000      -0.531070       -14.4511
  46   2.0000      -0.515904       -14.0385
  47   2.0000      -0.512318       -13.9409
  48   2.0000      -0.508079       -13.8255
  49   2.0000      -0.504793       -13.7361
  50   2.0000      -0.497891       -13.5483
  51   2.0000      -0.480011       -13.0618
  52   2.0000      -0.475369       -12.9354
  53   2.0000      -0.467954       -12.7337
  54   2.0000      -0.462166       -12.5762
  55   2.0000      -0.448850       -12.2138
  56   2.0000      -0.442071       -12.0294
  57   2.0000      -0.436992       -11.8912
  58   2.0000      -0.432381       -11.7657
  59   2.0000      -0.421675       -11.4744
  60   2.0000      -0.414503       -11.2792
  61   2.0000      -0.413764       -11.2591
  62   2.0000      -0.410128       -11.1602
  63   2.0000      -0.354034        -9.6338
  64   2.0000      -0.331351        -9.0165
  65   2.0000      -0.329209        -8.9582
  66   2.0000      -0.290804        -7.9132
  67   0.0000       0.032397         0.8816
  68   0.0000       0.069264         1.8848
  69   0.0000       0.108430         2.9505
  70   0.0000       0.121910         3.3173
  71   0.0000       0.139115         3.7855

MULLIKEN ATOMIC CHARGES
-----------------------
   0 S :    0.110153
   1 C :   -0.124923
   2 C :   -0.103900
   3 C :    0.033037
   4 C :   -0.125977
   5 H :   -0.013483
   6 C :    0.073731
   7 H :    0.032750
   8 H :    0.018873
   9 C :   -0.103180
  10 H :    0.035693
  11 H :    0.025340
  12 C :   -0.027503
  13 H :    0.032835
  14 H :    0.042423
  15 H :    0.041720
  16 S :    0.095452
  17 C :   -0.062747
  18 C :   -0.017562
  19 C :   -0.004914
  20 C :   -0.156213
  21 H :   -0.016550
  22 C :    0.032027
  23 H :    0.013811
  24 H :    0.012570
  25 C :   -0.055124
  26 H :    0.036711
  27 H :    0.025676
  28 C :   -0.020570
  29 H :    0.035130
  30 H :    0.008053
  31 H :    0.020002
  32 H :    0.048672
  33 H :    0.057988
Sum of atomic charges:   -0.0000000

LOEWDIN ATOMIC CHARGES
----------------------
   0 S :    0.411579
   1 C :   -0.205986
   2 C :   -0.059904
   3 C :   -0.058835
   4 C :   -0.188377
   5 H :    0.021913
   6 C :   -0.022819
   7 H :    0.028000
   8 H :    0.028233
   9 C :   -0.044954
  10 H :    0.025096
  11 H :    0.023817
  12 C :   -0.066919
  13 H :    0.033259
  14 H :    0.028761
  15 H :    0.027526
  16 S :    0.391582
  17 C :   -0.184387
  18 C :   -0.062765
  19 C :   -0.057026
  20 C :   -0.182005
  21 H :    0.015218
  22 C :   -0.037444
  23 H :    0.028271
  24 H :    0.027230
  25 C :   -0.041050
  26 H :    0.030377
  27 H :    0.021589
  28 C :   -0.065488
  29 H :    0.026703
  30 H :    0.023538
  31 H :    0.025722
  32 H :    0.025872
  33 H :    0.033673

  Mayer bond orders larger than 0.100000
B(  0-S ,  1-C ) :   1.1514 B(  0-S ,  4-C ) :   1.1285 B(  1-C ,  2-C ) :   1.6147
B(  1-C , 32-H ) :   0.9664 B(  2-C ,  3-C ) :   1.2223 B(  2-C ,  6-C ) :   1.0066
B(  3-C ,  4-C ) :   1.6300 B(  3-C ,  5-H ) :   1.0035 B(  4-C , 20-C ) :   1.0341
B(  6-C ,  7-H ) :   0.9450 B(  6-C ,  8-H ) :   0.9412 B(  6-C ,  9-C ) :   1.0684
B(  9-C , 10-H ) :   0.9669 B(  9-C , 11-H ) :   0.9516 B(  9-C , 12-C ) :   1.0610
B( 12-C , 13-H ) :   0.9766 B( 12-C , 14-H ) :   0.9766 B( 12-C , 15-H ) :   0.9746
B( 16-S , 17-C ) :   1.1563 B( 16-S , 20-C ) :   1.1151 B( 17-C , 18-C ) :   1.5819
B( 17-C , 20-C ) :   0.1049 B( 17-C , 33-H ) :   0.9690 B( 18-C , 19-C ) :   1.2627
B( 18-C , 21-H ) :   0.9957 B( 19-C , 20-C ) :   1.6146 B( 19-C , 22-C ) :   1.0346
B( 22-C , 23-H ) :   0.9393 B( 22-C , 24-H ) :   0.9334 B( 22-C , 25-C ) :   1.0647
B( 25-C , 26-H ) :   0.9491 B( 25-C , 27-H ) :   0.9567 B( 25-C , 28-C ) :   1.0954
B( 28-C , 29-H ) :   0.9743 B( 28-C , 30-H ) :   0.9691 B( 28-C , 31-H ) :   0.9684

Dispersion correction           -0.013418846
FINAL SINGLE POINT ENERGY     -1339.864079158615

DIPOLE MOMENT
-------------
                                X             Y             Z
Electronic contribution:    -25.51639       9.60730      11.00512
Nuclear contribution   :     26.10084      -9.95720     -11.35219
                        -----------------------------------------
Total Dipole Moment    :      0.58444      -0.34990      -0.34706
                        -----------------------------------------
Magnitude (a.u.)       :      0.76450
Magnitude (Debye)      :      1.94320

Rotational constants in cm-1:     0.017436     0.008212     0.006509
Rotational constants in MHz :   522.711507   246.177794   195.124148

                             ****ORCA TERMINATED NORMALLY****
TOTAL RUN TIME: 0 days 0 hours 0 minutes 21 seconds 187 msec
