                         Program Version 4.2.1 -  RELEASE  -
|  1> ! wB97X-D3 SP def2-SVP
|  2> %pal
|  3> nprocs 24
|  4> end
|  5>
|  6> * xyz 0 1
|  7> S 	 -63.6757 	 14.101 	 -91.4068
|  8> C 	 -63.4131 	 15.6723 	 -92.1867
|  9> C 	 -63.1176 	 16.6639 	 -91.3019
| 10> C 	 -63.0873 	 16.1159 	 -89.9515
| 11> C 	 -63.3247 	 14.7615 	 -89.8463
| 12> H 	 -62.8289 	 16.6445 	 -89.0648
| 13> C 	 -62.821 	 18.112 	 -91.4554
| 14> H 	 -63.2847 	 18.3387 	 -92.413
| 15> H 	 -61.735 	 18.2542 	 -91.7123
| 16> C 	 -63.1471 	 19.1152 	 -90.2714
| 17> H 	 -62.6683 	 18.8164 	 -89.3058
| 18> H 	 -62.7328 	 20.0912 	 -90.4443
| 19> C 	 -64.6263 	 19.3466 	 -89.983
| 20> H 	 -65.0335 	 18.3494 	 -89.7766
| 21> H 	 -64.7533 	 19.9682 	 -89.0123
| 22> H 	 -65.113 	 19.7639 	 -90.8656
| 23> S 	 -63.3331 	 12.2691 	 -88.8859
| 24> C 	 -62.9796 	 11.9355 	 -87.2399
| 25> C 	 -62.6682 	 13.1102 	 -86.547
| 26> C 	 -62.7765 	 14.281 	 -87.3731
| 27> C 	 -63.1824 	 13.983 	 -88.6067
| 28> H 	 -62.3264 	 12.9942 	 -85.5087
| 29> C 	 -62.3268 	 15.619 	 -86.8014
| 30> H 	 -63.0868 	 16.3861 	 -86.9984
| 31> H 	 -61.4054 	 16.0248 	 -87.2456
| 32> C 	 -62.1117 	 15.5732 	 -85.2618
| 33> H 	 -61.4343 	 14.7729 	 -84.9534
| 34> H 	 -63.0816 	 15.4624 	 -84.6962
| 35> C 	 -61.6836 	 16.9363 	 -84.6166
| 36> H 	 -62.4423 	 17.6689 	 -84.6669
| 37> H 	 -60.7818 	 17.2875 	 -85.1107
| 38> H 	 -61.3079 	 16.9456 	 -83.5733
| 39> H 	 -63.3654 	 15.7641 	 -93.2455
| 40> H 	 -62.9489 	 10.9386 	 -86.7704
| 41> *
| 42>
| 43>                          ****END OF INPUT****

CARTESIAN COORDINATES (ANGSTROEM)
---------------------------------
  S    -63.675700   14.101000  -91.406800
  C    -63.413100   15.672300  -92.186700
  C    -63.117600   16.663900  -91.301900
  C    -63.087300   16.115900  -89.951500
  C    -63.324700   14.761500  -89.846300
  H    -62.828900   16.644500  -89.064800
  C    -62.821000   18.112000  -91.455400
  H    -63.284700   18.338700  -92.413000
  H    -61.735000   18.254200  -91.712300
  C    -63.147100   19.115200  -90.271400
  H    -62.668300   18.816400  -89.305800
  H    -62.732800   20.091200  -90.444300
  C    -64.626300   19.346600  -89.983000
  H    -65.033500   18.349400  -89.776600
  H    -64.753300   19.968200  -89.012300
  H    -65.113000   19.763900  -90.865600
  S    -63.333100   12.269100  -88.885900
  C    -62.979600   11.935500  -87.239900
  C    -62.668200   13.110200  -86.547000
  C    -62.776500   14.281000  -87.373100
  C    -63.182400   13.983000  -88.606700
  H    -62.326400   12.994200  -85.508700
  C    -62.326800   15.619000  -86.801400
  H    -63.086800   16.386100  -86.998400
  H    -61.405400   16.024800  -87.245600
  C    -62.111700   15.573200  -85.261800
  H    -61.434300   14.772900  -84.953400
  H    -63.081600   15.462400  -84.696200
  C    -61.683600   16.936300  -84.616600
  H    -62.442300   17.668900  -84.666900
  H    -60.781800   17.287500  -85.110700
  H    -61.307900   16.945600  -83.573300
  H    -63.365400   15.764100  -93.245500
  H    -62.948900   10.938600  -86.770400

 Total Charge           Charge          ....    0
 Multiplicity           Mult            ....    1
 Number of Electrons    NEL             ....  134
 Basis Dimension        Dim             ....  322

ORBITAL ENERGIES
----------------

  NO   OCC          E(Eh)            E(eV)
   0   2.0000     -88.965715     -2420.8802
   1   2.0000     -88.964142     -2420.8374
   2   2.0000     -10.327734      -281.0319
   3   2.0000     -10.324262      -280.9374
   4   2.0000     -10.317402      -280.7508
   5   2.0000     -10.312386      -280.6143
   6   2.0000     -10.303456      -280.3713
   7   2.0000     -10.303373      -280.3690
   8   2.0000     -10.302404      -280.3427
   9   2.0000     -10.300921      -280.3023
  10   2.0000     -10.296877      -280.1923
  11   2.0000     -10.295511      -280.1551
  12   2.0000     -10.295206      -280.1468
  13   2.0000     -10.285384      -279.8795
  14   2.0000     -10.283228      -279.8209
  15   2.0000     -10.279732      -279.7257
  16   2.0000      -8.080338      -219.8772
  17   2.0000      -8.080029      -219.8688
  18   2.0000      -6.039121      -164.3328
  19   2.0000      -6.038506      -164.3161
  20   2.0000      -6.034930      -164.2188
  21   2.0000      -6.034463      -164.2061
  22   2.0000      -6.030772      -164.1057
  23   2.0000      -6.030680      -164.1031
  24   2.0000      -1.013706       -27.5843
  25   2.0000      -0.986721       -26.8500
  26   2.0000      -0.911791       -24.8111
  27   2.0000      -0.908142       -24.7118
  28   2.0000      -0.871578       -23.7169
  29   2.0000      -0.855912       -23.2906
  30   2.0000      -0.841967       -22.9111
  31   2.0000      -0.813553       -22.1379
  32   2.0000      -0.785714       -21.3804
  33   2.0000      -0.778116       -21.1736
  34   2.0000      -0.712054       -19.3760
  35   2.0000      -0.700795       -19.0696
  36   2.0000      -0.695105       -18.9148
  37   2.0000      -0.658046       -17.9063
  38   2.0000      -0.636703       -17.3256
  39   2.0000      -0.626550       -17.0493
  40   2.0000      -0.601709       -16.3733
  41   2.0000      -0.573330       -15.6011
  42   2.0000      -0.562131       -15.2964
  43   2.0000      -0.545476       -14.8431
  44   2.0000      -0.537120       -14.6158
  45   2.0000      -0.530537       -14.4367
  46   2.0000      -0.518214       -14.1013
  47   2.0000      -0.513268       -13.9667
  48   2.0000      -0.504403       -13.7255
  49   2.0000      -0.499358       -13.5882
  50   2.0000      -0.492313       -13.3965
  51   2.0000      -0.487017       -13.2524
  52   2.0000      -0.469107       -12.7651
  53   2.0000      -0.465271       -12.6607
  54   2.0000      -0.460326       -12.5261
  55   2.0000      -0.453576       -12.3424
  56   2.0000      -0.444061       -12.0835
  57   2.0000      -0.435625       -11.8540
  58   2.0000      -0.432065       -11.7571
  59   2.0000      -0.429459       -11.6862
  60   2.0000      -0.420547       -11.4437
  61   2.0000      -0.413146       -11.2423
  62   2.0000      -0.411286       -11.1916
  63   2.0000      -0.362417        -9.8619
  64   2.0000      -0.336043        -9.1442
  65   2.0000      -0.325030        -8.8445
  66   2.0000      -0.285205        -7.7608
  67   0.0000       0.025580         0.6961
  68   0.0000       0.089403         2.4328
  69   0.0000       0.092038         2.5045
  70   0.0000       0.120288         3.2732
  71   0.0000       0.126608         3.4452

MULLIKEN ATOMIC CHARGES
-----------------------
   0 S :    0.098076
   1 C :   -0.129106
   2 C :   -0.044395
   3 C :   -0.031564
   4 C :   -0.080383
   5 H :   -0.043749
   6 C :    0.065870
   7 H :    0.015065
   8 H :    0.052890
   9 C :   -0.078821
  10 H :    0.033688
  11 H :    0.023216
  12 C :   -0.068640
  13 H :    0.036894
  14 H :    0.049713
  15 H :    0.040424
  16 S :    0.092535
  17 C :   -0.080913
  18 C :   -0.073669
  19 C :   -0.063906
  20 C :   -0.094873
  21 H :    0.031376
  22 C :    0.040285
  23 H :    0.047226
  24 H :    0.050814
  25 C :   -0.118591
  26 H :    0.047244
  27 H :    0.045447
  28 C :   -0.034805
  29 H :    0.026956
  30 H :    0.014775
  31 H :    0.034510
  32 H :    0.033168
  33 H :    0.063241
Sum of atomic charges:   -0.0000000

LOEWDIN ATOMIC CHARGES
----------------------
   0 S :    0.390892
   1 C :   -0.186174
   2 C :   -0.059120
   3 C :   -0.071496
   4 C :   -0.190394
   5 H :    0.017423
   6 C :   -0.038225
   7 H :    0.031212
   8 H :    0.045881
   9 C :   -0.043243
  10 H :    0.026520
  11 H :    0.022329
  12 C :   -0.071533
  13 H :    0.024839
  14 H :    0.037876
  15 H :    0.024846
  16 S :    0.415471
  17 C :   -0.196996
  18 C :   -0.075468
  19 C :   -0.063844
  20 C :   -0.183239
  21 H :    0.036844
  22 C :   -0.032503
  23 H :    0.033567
  24 H :    0.035509
  25 C :   -0.045383
  26 H :    0.023189
  27 H :    0.033844
  28 C :   -0.069491
  29 H :    0.017203
  30 H :    0.019117
  31 H :    0.033202
  32 H :    0.021454
  33 H :    0.035893

  Mayer bond orders larger than 0.100000
B(  0-S ,  1-C ) :   1.1128 B(  0-S ,  4-C ) :   1.1310 B(  1-C ,  2-C ) :   1.6421
B(  1-C , 32-H ) :   0.9704 B(  2-C ,  3-C ) :   1.2045 B(  2-C ,  6-C ) :   1.0131
B(  3-C ,  4-C ) :   1.6107 B(  3-C ,  5-H ) :   0.9864 B(  4-C , 20-C ) :   1.0695
B(  6-C ,  7-H ) :   0.9375 B(  6-C ,  8-H ) :   0.9278 B(  6-C ,  9-C ) :   1.0650
B(  9-C , 10-H ) :   0.9503 B(  9-C , 11-H ) :   0.9532 B(  9-C , 12-C ) :   1.0774
B( 12-C , 13-H ) :   0.9755 B( 12-C , 14-H ) :   0.9720 B( 12-C , 15-H ) :   0.9747
B( 16-S , 17-C ) :   1.1630 B( 16-S , 20-C ) :   1.1251 B( 17-C , 18-C ) :   1.6125
B( 17-C , 33-H ) :   0.9605 B( 18-C , 19-C ) :   1.2337 B( 18-C , 21-H ) :   0.9823
B( 19-C , 20-C ) :   1.6565 B( 19-C , 22-C ) :   1.0285 B( 22-C , 23-H ) :   0.9220
B( 22-C , 24-H ) :   0.9284 B( 22-C , 25-C ) :   1.0743 B( 25-C , 26-H ) :   0.9453
B( 25-C , 27-H ) :   0.9595 B( 25-C , 28-C ) :   1.0709 B( 28-C , 29-H ) :   0.9791
B( 28-C , 30-H ) :   0.9727 B( 28-C , 31-H ) :   0.9730

Dispersion correction           -0.013904387
FINAL SINGLE POINT ENERGY     -1339.872998068737

DIPOLE MOMENT
-------------
                                X             Y             Z
Electronic contribution:     -4.39339     -28.27696     -15.40964
Nuclear contribution   :      4.80442      28.87000      15.80827
                        -----------------------------------------
Total Dipole Moment    :      0.41102       0.59304       0.39863
                        -----------------------------------------
Magnitude (a.u.)       :      0.82434
Magnitude (Debye)      :      2.09531

Rotational constants in cm-1:     0.015381     0.010607     0.006560
Rotational constants in MHz :   461.106709   317.985991   196.652391

                             ****ORCA TERMINATED NORMALLY****
TOTAL RUN TIME: 0 days 0 hours 0 minutes 20 seconds 855 msec
