                         Program Version 4.2.1 -  RELEASE  -
|  1> ! wB97X-D3 SP def2-SVP
|  2> %pal
|  3> nprocs 24
|  4> end
|  5>
|  6> * xyz 0 1
|  7> S 	 -53.7045 	 -47.2758 	 -80.9404
|  8> C 	 -53.3003 	 -46.0847 	 -79.8122
|  9> C 	 -52.5765 	 -46.5811 	 -78.7177
| 10> C 	 -52.6637 	 -48.0375 	 -78.7717
| 11> C 	 -53.4179 	 -48.5952 	 -79.7825
| 12> H 	 -52.1988 	 -48.6508 	 -77.9973
| 13> C 	 -51.9337 	 -45.7542 	 -77.6222
| 14> H 	 -52.6021 	 -46.0122 	 -76.8104
| 15> H 	 -51.9395 	 -44.6941 	 -77.7044
| 16> C 	 -50.5137 	 -46.1456 	 -77.0766
| 17> H 	 -50.2821 	 -45.4941 	 -76.2195
| 18> H 	 -50.631 	 -47.1269 	 -76.667
| 19> C 	 -49.4326 	 -46.2424 	 -78.1745
| 20> H 	 -49.7042 	 -47.0401 	 -78.9038
| 21> H 	 -49.3953 	 -45.2778 	 -78.6241
| 22> H 	 -48.4579 	 -46.3816 	 -77.7292
| 23> S 	 -54.8848 	 -50.7976 	 -79.6259
| 24> C 	 -54.3832 	 -52.3345 	 -80.2377
| 25> C 	 -53.1874 	 -52.2879 	 -80.9074
| 26> C 	 -52.7444 	 -50.9019 	 -80.9631
| 27> C 	 -53.4889 	 -49.9984 	 -80.223
| 28> H 	 -52.8557 	 -53.2538 	 -81.3222
| 29> C 	 -51.3861 	 -50.5401 	 -81.6209
| 30> H 	 -50.83 	 -51.4706 	 -81.6816
| 31> H 	 -50.8311 	 -49.8391 	 -80.9531
| 32> C 	 -51.5435 	 -49.8691 	 -82.9608
| 33> H 	 -52.1184 	 -48.9825 	 -82.7954
| 34> H 	 -52.1555 	 -50.5476 	 -83.6256
| 35> C 	 -50.2127 	 -49.5533 	 -83.6496
| 36> H 	 -49.7699 	 -48.6648 	 -83.0367
| 37> H 	 -50.2982 	 -49.312 	 -84.7117
| 38> H 	 -49.551 	 -50.3763 	 -83.5345
| 39> H 	 -53.2345 	 -45.0992 	 -80.1678
| 40> H 	 -54.9215 	 -53.2805 	 -80.0733
| 41> *
| 42>
| 43>                          ****END OF INPUT****

CARTESIAN COORDINATES (ANGSTROEM)
---------------------------------
  S    -53.704500  -47.275800  -80.940400
  C    -53.300300  -46.084700  -79.812200
  C    -52.576500  -46.581100  -78.717700
  C    -52.663700  -48.037500  -78.771700
  C    -53.417900  -48.595200  -79.782500
  H    -52.198800  -48.650800  -77.997300
  C    -51.933700  -45.754200  -77.622200
  H    -52.602100  -46.012200  -76.810400
  H    -51.939500  -44.694100  -77.704400
  C    -50.513700  -46.145600  -77.076600
  H    -50.282100  -45.494100  -76.219500
  H    -50.631000  -47.126900  -76.667000
  C    -49.432600  -46.242400  -78.174500
  H    -49.704200  -47.040100  -78.903800
  H    -49.395300  -45.277800  -78.624100
  H    -48.457900  -46.381600  -77.729200
  S    -54.884800  -50.797600  -79.625900
  C    -54.383200  -52.334500  -80.237700
  C    -53.187400  -52.287900  -80.907400
  C    -52.744400  -50.901900  -80.963100
  C    -53.488900  -49.998400  -80.223000
  H    -52.855700  -53.253800  -81.322200
  C    -51.386100  -50.540100  -81.620900
  H    -50.830000  -51.470600  -81.681600
  H    -50.831100  -49.839100  -80.953100
  C    -51.543500  -49.869100  -82.960800
  H    -52.118400  -48.982500  -82.795400
  H    -52.155500  -50.547600  -83.625600
  C    -50.212700  -49.553300  -83.649600
  H    -49.769900  -48.664800  -83.036700
  H    -50.298200  -49.312000  -84.711700
  H    -49.551000  -50.376300  -83.534500
  H    -53.234500  -45.099200  -80.167800
  H    -54.921500  -53.280500  -80.073300

 Total Charge           Charge          ....    0
 Multiplicity           Mult            ....    1
 Number of Electrons    NEL             ....  134
 Basis Dimension        Dim             ....  322

ORBITAL ENERGIES
----------------

  NO   OCC          E(Eh)            E(eV)
   0   2.0000     -88.962922     -2420.8042
   1   2.0000     -88.959842     -2420.7204
   2   2.0000     -10.334142      -281.2063
   3   2.0000     -10.324718      -280.9498
   4   2.0000     -10.314437      -280.6701
   5   2.0000     -10.311878      -280.6005
   6   2.0000     -10.310763      -280.5701
   7   2.0000     -10.309346      -280.5316
   8   2.0000     -10.304407      -280.3972
   9   2.0000     -10.298008      -280.2230
  10   2.0000     -10.294691      -280.1328
  11   2.0000     -10.290757      -280.0257
  12   2.0000     -10.287947      -279.9493
  13   2.0000     -10.278651      -279.6963
  14   2.0000     -10.278599      -279.6949
  15   2.0000     -10.277946      -279.6771
  16   2.0000      -8.078357      -219.8233
  17   2.0000      -8.075925      -219.7571
  18   2.0000      -6.036778      -164.2691
  19   2.0000      -6.034387      -164.2040
  20   2.0000      -6.032860      -164.1625
  21   2.0000      -6.030011      -164.0849
  22   2.0000      -6.029036      -164.0584
  23   2.0000      -6.026875      -163.9996
  24   2.0000      -1.009937       -27.4818
  25   2.0000      -0.989360       -26.9219
  26   2.0000      -0.910839       -24.7852
  27   2.0000      -0.906202       -24.6590
  28   2.0000      -0.873865       -23.7791
  29   2.0000      -0.847022       -23.0486
  30   2.0000      -0.843241       -22.9458
  31   2.0000      -0.820337       -22.3225
  32   2.0000      -0.784436       -21.3456
  33   2.0000      -0.767394       -20.8818
  34   2.0000      -0.708471       -19.2785
  35   2.0000      -0.693206       -18.8631
  36   2.0000      -0.685423       -18.6513
  37   2.0000      -0.658428       -17.9167
  38   2.0000      -0.646263       -17.5857
  39   2.0000      -0.627759       -17.0822
  40   2.0000      -0.589672       -16.0458
  41   2.0000      -0.572943       -15.5906
  42   2.0000      -0.562058       -15.2944
  43   2.0000      -0.552277       -15.0282
  44   2.0000      -0.545664       -14.8483
  45   2.0000      -0.521948       -14.2029
  46   2.0000      -0.513945       -13.9852
  47   2.0000      -0.509678       -13.8690
  48   2.0000      -0.505830       -13.7643
  49   2.0000      -0.499074       -13.5805
  50   2.0000      -0.494420       -13.4539
  51   2.0000      -0.480290       -13.0694
  52   2.0000      -0.470725       -12.8091
  53   2.0000      -0.467891       -12.7320
  54   2.0000      -0.458530       -12.4772
  55   2.0000      -0.447254       -12.1704
  56   2.0000      -0.443547       -12.0695
  57   2.0000      -0.436476       -11.8771
  58   2.0000      -0.431360       -11.7379
  59   2.0000      -0.425095       -11.5674
  60   2.0000      -0.418232       -11.3807
  61   2.0000      -0.411927       -11.2091
  62   2.0000      -0.406742       -11.0680
  63   2.0000      -0.336741        -9.1632
  64   2.0000      -0.332953        -9.0601
  65   2.0000      -0.315289        -8.5795
  66   2.0000      -0.312544        -8.5048
  67   0.0000       0.039360         1.0710
  68   0.0000       0.055473         1.5095
  69   0.0000       0.101199         2.7538
  70   0.0000       0.123651         3.3647
  71   0.0000       0.128599         3.4994

MULLIKEN ATOMIC CHARGES
-----------------------
   0 S :    0.102676
   1 C :   -0.085465
   2 C :   -0.105020
   3 C :    0.035560
   4 C :   -0.129242
   5 H :    0.019933
   6 C :    0.056103
   7 H :    0.043209
   8 H :    0.022023
   9 C :   -0.096273
  10 H :    0.037046
  11 H :    0.017638
  12 C :   -0.030812
  13 H :    0.054154
  14 H :    0.020467
  15 H :    0.033617
  16 S :    0.109036
  17 C :   -0.104068
  18 C :   -0.048097
  19 C :   -0.040073
  20 C :   -0.178881
  21 H :    0.035438
  22 C :    0.057403
  23 H :    0.013309
  24 H :    0.029839
  25 C :   -0.081194
  26 H :    0.018589
  27 H :    0.026239
  28 C :   -0.034020
  29 H :    0.037197
  30 H :    0.044024
  31 H :    0.018816
  32 H :    0.039597
  33 H :    0.061233
Sum of atomic charges:   -0.0000000

LOEWDIN ATOMIC CHARGES
----------------------
   0 S :    0.425680
   1 C :   -0.201791
   2 C :   -0.061849
   3 C :   -0.049985
   4 C :   -0.204855
   5 H :    0.031297
   6 C :   -0.033455
   7 H :    0.041729
   8 H :    0.025358
   9 C :   -0.038862
  10 H :    0.028709
  11 H :    0.014865
  12 C :   -0.063008
  13 H :    0.034560
  14 H :    0.019776
  15 H :    0.025626
  16 S :    0.432690
  17 C :   -0.192620
  18 C :   -0.082828
  19 C :   -0.049100
  20 C :   -0.219856
  21 H :    0.042933
  22 C :   -0.031296
  23 H :    0.023841
  24 H :    0.030942
  25 C :   -0.047307
  26 H :    0.010718
  27 H :    0.024788
  28 C :   -0.066135
  29 H :    0.036045
  30 H :    0.027622
  31 H :    0.016269
  32 H :    0.016572
  33 H :    0.032928

  Mayer bond orders larger than 0.100000
B(  0-S ,  1-C ) :   1.1835 B(  0-S ,  4-C ) :   1.1447 B(  1-C ,  2-C ) :   1.5740
B(  1-C , 32-H ) :   0.9687 B(  2-C ,  3-C ) :   1.2516 B(  2-C ,  6-C ) :   1.0119
B(  3-C ,  4-C ) :   1.5826 B(  3-C ,  5-H ) :   0.9920 B(  4-C , 20-C ) :   0.9966
B(  6-C ,  7-H ) :   0.9364 B(  6-C ,  8-H ) :   0.9525 B(  6-C ,  9-C ) :   1.0750
B(  9-C , 10-H ) :   0.9566 B(  9-C , 11-H ) :   0.9541 B(  9-C , 12-C ) :   1.0740
B( 12-C , 13-H ) :   0.9708 B( 12-C , 14-H ) :   0.9781 B( 12-C , 15-H ) :   0.9746
B( 16-S , 17-C ) :   1.1766 B( 16-S , 20-C ) :   1.1507 B( 17-C , 18-C ) :   1.6234
B( 17-C , 33-H ) :   0.9609 B( 18-C , 19-C ) :   1.2182 B( 18-C , 21-H ) :   0.9920
B( 19-C , 20-C ) :   1.6232 B( 19-C , 22-C ) :   1.0339 B( 22-C , 23-H ) :   0.9346
B( 22-C , 24-H ) :   0.9419 B( 22-C , 25-C ) :   1.0677 B( 25-C , 26-H ) :   0.9531
B( 25-C , 27-H ) :   0.9514 B( 25-C , 28-C ) :   1.0806 B( 28-C , 29-H ) :   0.9728
B( 28-C , 30-H ) :   0.9751 B( 28-C , 31-H ) :   0.9741

Dispersion correction           -0.014737340
FINAL SINGLE POINT ENERGY     -1339.866012936331

DIPOLE MOMENT
-------------
                                X             Y             Z
Electronic contribution:    -24.02896      -6.77650       0.81464
Nuclear contribution   :     24.64905       6.81495      -0.57003
                        -----------------------------------------
Total Dipole Moment    :      0.62009       0.03845       0.24461
                        -----------------------------------------
Magnitude (a.u.)       :      0.66770
Magnitude (Debye)      :      1.69716

Rotational constants in cm-1:     0.017564     0.008967     0.007541
Rotational constants in MHz :   526.566524   268.816454   226.082666

                             ****ORCA TERMINATED NORMALLY****
TOTAL RUN TIME: 0 days 0 hours 0 minutes 21 seconds 691 msec
