                         Program Version 4.2.1 -  RELEASE  -
|  1> ! wB97X-D3 SP def2-SVP
|  2> %pal
|  3> nprocs 24
|  4> end
|  5>
|  6> * xyz 0 1
|  7> S 	 -143.695 	 6.43749 	 2.04932
|  8> C 	 -143.103 	 7.75938 	 1.07674
|  9> C 	 -141.949 	 8.27296 	 1.53389
| 10> C 	 -141.596 	 7.80727 	 2.82606
| 11> C 	 -142.462 	 6.7565 	 3.25568
| 12> H 	 -140.689 	 7.95735 	 3.41783
| 13> C 	 -140.979 	 9.09713 	 0.663197
| 14> H 	 -140.386 	 8.50644 	 -0.0345294
| 15> H 	 -140.263 	 9.59347 	 1.25239
| 16> C 	 -141.771 	 10.1382 	 -0.217866
| 17> H 	 -142.414 	 9.61869 	 -0.984856
| 18> H 	 -142.47 	 10.7173 	 0.34291
| 19> C 	 -140.774 	 11.0808 	 -0.934561
| 20> H 	 -141.225 	 11.8958 	 -1.47453
| 21> H 	 -140.253 	 11.5931 	 -0.167753
| 22> H 	 -140.108 	 10.5541 	 -1.64981
| 23> S 	 -141.592 	 6.68656 	 5.92112
| 24> C 	 -141.646 	 5.17472 	 6.845
| 25> C 	 -142.233 	 4.20462 	 6.08449
| 26> C 	 -142.435 	 4.56851 	 4.75806
| 27> C 	 -142.238 	 5.94641 	 4.4789
| 28> H 	 -142.313 	 3.22851 	 6.52291
| 29> C 	 -142.958 	 3.48186 	 3.78679
| 30> H 	 -142.843 	 3.79075 	 2.72592
| 31> H 	 -144.018 	 3.41897 	 4.02504
| 32> C 	 -142.361 	 2.03595 	 4.02702
| 33> H 	 -142.077 	 1.89239 	 4.99718
| 34> H 	 -141.43 	 1.9552 	 3.37292
| 35> C 	 -143.26 	 0.87001 	 3.61995
| 36> H 	 -142.667 	 -0.0833107 	 3.51349
| 37> H 	 -143.617 	 1.05264 	 2.56047
| 38> H 	 -144.049 	 0.714915 	 4.36352
| 39> H 	 -143.316 	 7.93205 	 0.00703488
| 40> H 	 -141.524 	 5.09846 	 7.89137
| 41> *
| 42>
| 43>                          ****END OF INPUT****

CARTESIAN COORDINATES (ANGSTROEM)
---------------------------------
  S    -143.695000    6.437490    2.049320
  C    -143.103000    7.759380    1.076740
  C    -141.949000    8.272960    1.533890
  C    -141.596000    7.807270    2.826060
  C    -142.462000    6.756500    3.255680
  H    -140.689000    7.957350    3.417830
  C    -140.979000    9.097130    0.663197
  H    -140.386000    8.506440   -0.034529
  H    -140.263000    9.593470    1.252390
  C    -141.771000   10.138200   -0.217866
  H    -142.414000    9.618690   -0.984856
  H    -142.470000   10.717300    0.342910
  C    -140.774000   11.080800   -0.934561
  H    -141.225000   11.895800   -1.474530
  H    -140.253000   11.593100   -0.167753
  H    -140.108000   10.554100   -1.649810
  S    -141.592000    6.686560    5.921120
  C    -141.646000    5.174720    6.845000
  C    -142.233000    4.204620    6.084490
  C    -142.435000    4.568510    4.758060
  C    -142.238000    5.946410    4.478900
  H    -142.313000    3.228510    6.522910
  C    -142.958000    3.481860    3.786790
  H    -142.843000    3.790750    2.725920
  H    -144.018000    3.418970    4.025040
  C    -142.361000    2.035950    4.027020
  H    -142.077000    1.892390    4.997180
  H    -141.430000    1.955200    3.372920
  C    -143.260000    0.870010    3.619950
  H    -142.667000   -0.083311    3.513490
  H    -143.617000    1.052640    2.560470
  H    -144.049000    0.714915    4.363520
  H    -143.316000    7.932050    0.007035
  H    -141.524000    5.098460    7.891370

 Total Charge           Charge          ....    0
 Multiplicity           Mult            ....    1
 Number of Electrons    NEL             ....  134
 Basis Dimension        Dim             ....  322

ORBITAL ENERGIES
----------------

  NO   OCC          E(Eh)            E(eV)
   0   2.0000     -88.973516     -2421.0925
   1   2.0000     -88.966572     -2420.9035
   2   2.0000     -10.339328      -281.3474
   3   2.0000     -10.334126      -281.2059
   4   2.0000     -10.315189      -280.6906
   5   2.0000     -10.307766      -280.4886
   6   2.0000     -10.304743      -280.4063
   7   2.0000     -10.299021      -280.2506
   8   2.0000     -10.297666      -280.2137
   9   2.0000     -10.296286      -280.1762
  10   2.0000     -10.294244      -280.1206
  11   2.0000     -10.291787      -280.0538
  12   2.0000     -10.288721      -279.9703
  13   2.0000     -10.286434      -279.9081
  14   2.0000     -10.285342      -279.8784
  15   2.0000     -10.276694      -279.6430
  16   2.0000      -8.087390      -220.0691
  17   2.0000      -8.080796      -219.8897
  18   2.0000      -6.045977      -164.5194
  19   2.0000      -6.042055      -164.4127
  20   2.0000      -6.039327      -164.3384
  21   2.0000      -6.038077      -164.3044
  22   2.0000      -6.035299      -164.2288
  23   2.0000      -6.031630      -164.1290
  24   2.0000      -1.005999       -27.3746
  25   2.0000      -0.987873       -26.8814
  26   2.0000      -0.908057       -24.7095
  27   2.0000      -0.902159       -24.5490
  28   2.0000      -0.869783       -23.6680
  29   2.0000      -0.853332       -23.2203
  30   2.0000      -0.844300       -22.9746
  31   2.0000      -0.814386       -22.1606
  32   2.0000      -0.781171       -21.2567
  33   2.0000      -0.768162       -20.9027
  34   2.0000      -0.712755       -19.3950
  35   2.0000      -0.698318       -19.0022
  36   2.0000      -0.697912       -18.9912
  37   2.0000      -0.658890       -17.9293
  38   2.0000      -0.634000       -17.2520
  39   2.0000      -0.611870       -16.6498
  40   2.0000      -0.599004       -16.2997
  41   2.0000      -0.577726       -15.7207
  42   2.0000      -0.564617       -15.3640
  43   2.0000      -0.560504       -15.2521
  44   2.0000      -0.529946       -14.4206
  45   2.0000      -0.518472       -14.1084
  46   2.0000      -0.512952       -13.9581
  47   2.0000      -0.509019       -13.8511
  48   2.0000      -0.506940       -13.7945
  49   2.0000      -0.500352       -13.6153
  50   2.0000      -0.485140       -13.2013
  51   2.0000      -0.483227       -13.1493
  52   2.0000      -0.472623       -12.8607
  53   2.0000      -0.469191       -12.7673
  54   2.0000      -0.459806       -12.5120
  55   2.0000      -0.450247       -12.2518
  56   2.0000      -0.444496       -12.0954
  57   2.0000      -0.437188       -11.8965
  58   2.0000      -0.430149       -11.7050
  59   2.0000      -0.426278       -11.5996
  60   2.0000      -0.421775       -11.4771
  61   2.0000      -0.416829       -11.3425
  62   2.0000      -0.412982       -11.2378
  63   2.0000      -0.357836        -9.7372
  64   2.0000      -0.333986        -9.0882
  65   2.0000      -0.331103        -9.0098
  66   2.0000      -0.283777        -7.7220
  67   0.0000       0.018383         0.5002
  68   0.0000       0.078058         2.1241
  69   0.0000       0.105010         2.8575
  70   0.0000       0.122744         3.3400
  71   0.0000       0.134605         3.6628

MULLIKEN ATOMIC CHARGES
-----------------------
   0 S :    0.122045
   1 C :   -0.117549
   2 C :   -0.080236
   3 C :    0.001906
   4 C :   -0.145524
   5 H :    0.026408
   6 C :    0.097651
   7 H :    0.040368
   8 H :    0.005326
   9 C :   -0.125539
  10 H :    0.035422
  11 H :    0.030269
  12 C :   -0.029300
  13 H :    0.025355
  14 H :    0.020221
  15 H :    0.038215
  16 S :    0.092082
  17 C :   -0.078163
  18 C :   -0.040812
  19 C :   -0.058227
  20 C :   -0.130280
  21 H :    0.023000
  22 C :    0.051608
  23 H :    0.038178
  24 H :    0.040972
  25 C :   -0.069457
  26 H :    0.005613
  27 H :    0.040458
  28 C :   -0.089466
  29 H :    0.040778
  30 H :    0.042068
  31 H :    0.043388
  32 H :    0.055087
  33 H :    0.048133
Sum of atomic charges:    0.0000000

LOEWDIN ATOMIC CHARGES
----------------------
   0 S :    0.421909
   1 C :   -0.213827
   2 C :   -0.063746
   3 C :   -0.068880
   4 C :   -0.183918
   5 H :    0.031845
   6 C :   -0.017126
   7 H :    0.035079
   8 H :    0.020116
   9 C :   -0.038268
  10 H :    0.023276
  11 H :    0.019957
  12 C :   -0.065828
  13 H :    0.024019
  14 H :    0.020424
  15 H :    0.028390
  16 S :    0.405135
  17 C :   -0.172016
  18 C :   -0.072166
  19 C :   -0.062510
  20 C :   -0.200513
  21 H :    0.031909
  22 C :   -0.034752
  23 H :    0.025478
  24 H :    0.032706
  25 C :   -0.038944
  26 H :    0.004056
  27 H :    0.034164
  28 C :   -0.072768
  29 H :    0.032544
  30 H :    0.031489
  31 H :    0.023873
  32 H :    0.034785
  33 H :    0.024109

  Mayer bond orders larger than 0.100000
B(  0-S ,  1-C ) :   1.1209 B(  0-S ,  4-C ) :   1.1627 B(  1-C ,  2-C ) :   1.6422
B(  1-C , 32-H ) :   0.9548 B(  2-C ,  3-C ) :   1.2618 B(  2-C ,  6-C ) :   1.0131
B(  3-C ,  4-C ) :   1.5356 B(  3-C ,  5-H ) :   0.9865 B(  4-C , 20-C ) :   1.0623
B(  6-C ,  7-H ) :   0.9396 B(  6-C ,  8-H ) :   0.9473 B(  6-C ,  9-C ) :   1.0533
B(  9-C , 10-H ) :   0.9518 B(  9-C , 11-H ) :   0.9639 B(  9-C , 12-C ) :   1.0849
B( 12-C , 13-H ) :   0.9728 B( 12-C , 14-H ) :   0.9744 B( 12-C , 15-H ) :   0.9755
B( 16-S , 17-C ) :   1.1563 B( 16-S , 20-C ) :   1.1496 B( 17-C , 18-C ) :   1.6026
B( 17-C , 20-C ) :   0.1028 B( 17-C , 33-H ) :   0.9677 B( 18-C , 19-C ) :   1.2776
B( 18-C , 21-H ) :   0.9838 B( 19-C , 20-C ) :   1.5418 B( 19-C , 22-C ) :   1.0227
B( 22-C , 23-H ) :   0.9377 B( 22-C , 24-H ) :   0.9450 B( 22-C , 25-C ) :   1.0458
B( 25-C , 26-H ) :   0.9623 B( 25-C , 27-H ) :   0.9556 B( 25-C , 28-C ) :   1.0870
B( 28-C , 29-H ) :   0.9734 B( 28-C , 30-H ) :   0.9748 B( 28-C , 31-H ) :   0.9749

Dispersion correction           -0.013100174
FINAL SINGLE POINT ENERGY     -1339.865935120369

DIPOLE MOMENT
-------------
                                X             Y             Z
Electronic contribution:     -4.24746       3.51978      15.51557
Nuclear contribution   :      4.52912      -3.78218     -15.73666
                        -----------------------------------------
Total Dipole Moment    :      0.28166      -0.26240      -0.22109
                        -----------------------------------------
Magnitude (a.u.)       :      0.44392
Magnitude (Debye)      :      1.12835

Rotational constants in cm-1:     0.023786     0.006538     0.005480
Rotational constants in MHz :   713.090405   195.995976   164.292067

                             ****ORCA TERMINATED NORMALLY****
TOTAL RUN TIME: 0 days 0 hours 0 minutes 20 seconds 397 msec
