                         Program Version 4.2.1 -  RELEASE  -
|  1> ! wB97X-D3 SP def2-SVP
|  2> %pal
|  3> nprocs 24
|  4> end
|  5>
|  6> * xyz 0 1
|  7> S 	 -124.278 	 66.4494 	 -53.0035
|  8> C 	 -123.036 	 67.4449 	 -53.794
|  9> C 	 -122.025 	 67.782 	 -52.9702
| 10> C 	 -122.162 	 67.1131 	 -51.68
| 11> C 	 -123.234 	 66.256 	 -51.5554
| 12> H 	 -121.556 	 67.3784 	 -50.8695
| 13> C 	 -120.939 	 68.8031 	 -53.2168
| 14> H 	 -120.823 	 68.7697 	 -54.3108
| 15> H 	 -119.998 	 68.4509 	 -52.8275
| 16> C 	 -121.306 	 70.1735 	 -52.8434
| 17> H 	 -120.351 	 70.6825 	 -53.0829
| 18> H 	 -122.065 	 70.4053 	 -53.5771
| 19> C 	 -121.605 	 70.2843 	 -51.285
| 20> H 	 -121.692 	 71.3335 	 -50.9558
| 21> H 	 -122.645 	 69.8859 	 -51.0853
| 22> H 	 -120.924 	 69.8004 	 -50.5915
| 23> S 	 -125.509 	 65.7855 	 -50.1939
| 24> C 	 -125.518 	 65.1026 	 -48.5995
| 25> C 	 -124.25 	 64.7081 	 -48.2472
| 26> C 	 -123.236 	 64.9696 	 -49.2138
| 27> C 	 -123.757 	 65.6328 	 -50.3498
| 28> H 	 -123.949 	 64.1775 	 -47.3744
| 29> C 	 -121.792 	 64.7199 	 -48.894
| 30> H 	 -121.521 	 64.8093 	 -47.8452
| 31> H 	 -121.076 	 65.4766 	 -49.4059
| 32> C 	 -121.097 	 63.3998 	 -49.4507
| 33> H 	 -121.409 	 63.0856 	 -50.4694
| 34> H 	 -121.619 	 62.7388 	 -48.7421
| 35> C 	 -119.624 	 63.3306 	 -49.2509
| 36> H 	 -119.087 	 62.399 	 -49.5506
| 37> H 	 -119.469 	 63.3898 	 -48.238
| 38> H 	 -119.16 	 64.1601 	 -49.7465
| 39> H 	 -123.129 	 67.995 	 -54.6736
| 40> H 	 -126.399 	 64.9267 	 -48.0082
| 41> *
| 42>
| 43>                          ****END OF INPUT****

CARTESIAN COORDINATES (ANGSTROEM)
---------------------------------
  S    -124.278000   66.449400  -53.003500
  C    -123.036000   67.444900  -53.794000
  C    -122.025000   67.782000  -52.970200
  C    -122.162000   67.113100  -51.680000
  C    -123.234000   66.256000  -51.555400
  H    -121.556000   67.378400  -50.869500
  C    -120.939000   68.803100  -53.216800
  H    -120.823000   68.769700  -54.310800
  H    -119.998000   68.450900  -52.827500
  C    -121.306000   70.173500  -52.843400
  H    -120.351000   70.682500  -53.082900
  H    -122.065000   70.405300  -53.577100
  C    -121.605000   70.284300  -51.285000
  H    -121.692000   71.333500  -50.955800
  H    -122.645000   69.885900  -51.085300
  H    -120.924000   69.800400  -50.591500
  S    -125.509000   65.785500  -50.193900
  C    -125.518000   65.102600  -48.599500
  C    -124.250000   64.708100  -48.247200
  C    -123.236000   64.969600  -49.213800
  C    -123.757000   65.632800  -50.349800
  H    -123.949000   64.177500  -47.374400
  C    -121.792000   64.719900  -48.894000
  H    -121.521000   64.809300  -47.845200
  H    -121.076000   65.476600  -49.405900
  C    -121.097000   63.399800  -49.450700
  H    -121.409000   63.085600  -50.469400
  H    -121.619000   62.738800  -48.742100
  C    -119.624000   63.330600  -49.250900
  H    -119.087000   62.399000  -49.550600
  H    -119.469000   63.389800  -48.238000
  H    -119.160000   64.160100  -49.746500
  H    -123.129000   67.995000  -54.673600
  H    -126.399000   64.926700  -48.008200

 Total Charge           Charge          ....    0
 Multiplicity           Mult            ....    1
 Number of Electrons    NEL             ....  134
 Basis Dimension        Dim             ....  322

ORBITAL ENERGIES
----------------

  NO   OCC          E(Eh)            E(eV)
   0   2.0000     -88.966741     -2420.9081
   1   2.0000     -88.964935     -2420.8590
   2   2.0000     -10.334353      -281.2120
   3   2.0000     -10.334004      -281.2025
   4   2.0000     -10.317542      -280.7546
   5   2.0000     -10.308221      -280.5010
   6   2.0000     -10.307883      -280.4917
   7   2.0000     -10.301285      -280.3122
   8   2.0000     -10.295793      -280.1628
   9   2.0000     -10.292286      -280.0673
  10   2.0000     -10.292248      -280.0663
  11   2.0000     -10.290573      -280.0207
  12   2.0000     -10.288348      -279.9602
  13   2.0000     -10.287701      -279.9426
  14   2.0000     -10.285774      -279.8901
  15   2.0000     -10.270990      -279.4878
  16   2.0000      -8.081583      -219.9111
  17   2.0000      -8.078620      -219.8304
  18   2.0000      -6.040136      -164.3604
  19   2.0000      -6.037487      -164.2884
  20   2.0000      -6.035977      -164.2473
  21   2.0000      -6.033515      -164.1803
  22   2.0000      -6.032364      -164.1490
  23   2.0000      -6.028818      -164.0525
  24   2.0000      -1.005357       -27.3572
  25   2.0000      -0.982371       -26.7317
  26   2.0000      -0.922436       -25.1008
  27   2.0000      -0.908755       -24.7285
  28   2.0000      -0.871532       -23.7156
  29   2.0000      -0.858133       -23.3510
  30   2.0000      -0.835258       -22.7285
  31   2.0000      -0.816415       -22.2158
  32   2.0000      -0.786027       -21.3889
  33   2.0000      -0.775647       -21.1064
  34   2.0000      -0.709734       -19.3128
  35   2.0000      -0.705029       -19.1848
  36   2.0000      -0.689890       -18.7729
  37   2.0000      -0.668697       -18.1962
  38   2.0000      -0.637767       -17.3545
  39   2.0000      -0.619104       -16.8467
  40   2.0000      -0.603011       -16.4088
  41   2.0000      -0.583390       -15.8748
  42   2.0000      -0.568380       -15.4664
  43   2.0000      -0.547745       -14.9049
  44   2.0000      -0.535674       -14.5764
  45   2.0000      -0.522594       -14.2205
  46   2.0000      -0.516974       -14.0676
  47   2.0000      -0.514776       -14.0078
  48   2.0000      -0.507287       -13.8040
  49   2.0000      -0.500765       -13.6265
  50   2.0000      -0.492297       -13.3961
  51   2.0000      -0.480119       -13.0647
  52   2.0000      -0.478101       -13.0098
  53   2.0000      -0.463054       -12.6003
  54   2.0000      -0.458199       -12.4682
  55   2.0000      -0.455525       -12.3955
  56   2.0000      -0.442654       -12.0452
  57   2.0000      -0.439858       -11.9692
  58   2.0000      -0.432352       -11.7649
  59   2.0000      -0.430133       -11.7045
  60   2.0000      -0.419165       -11.4061
  61   2.0000      -0.408890       -11.1265
  62   2.0000      -0.395616       -10.7653
  63   2.0000      -0.357714        -9.7339
  64   2.0000      -0.332970        -9.0606
  65   2.0000      -0.324609        -8.8331
  66   2.0000      -0.286295        -7.7905
  67   0.0000       0.019670         0.5353
  68   0.0000       0.071928         1.9573
  69   0.0000       0.100281         2.7288
  70   0.0000       0.116975         3.1830
  71   0.0000       0.136481         3.7138

MULLIKEN ATOMIC CHARGES
-----------------------
   0 S :    0.076797
   1 C :   -0.070722
   2 C :   -0.126523
   3 C :    0.027290
   4 C :   -0.091543
   5 H :   -0.009150
   6 C :    0.051337
   7 H :    0.017198
   8 H :    0.022310
   9 C :   -0.020552
  10 H :    0.038096
  11 H :    0.030528
  12 C :   -0.094218
  13 H :    0.038909
  14 H :    0.059643
  15 H :    0.040802
  16 S :    0.092784
  17 C :   -0.072504
  18 C :   -0.014010
  19 C :    0.010386
  20 C :   -0.149417
  21 H :    0.004279
  22 C :   -0.037999
  23 H :    0.029036
  24 H :    0.025129
  25 C :   -0.084256
  26 H :    0.045484
  27 H :    0.015968
  28 C :   -0.001937
  29 H :    0.043391
  30 H :    0.003586
  31 H :    0.025480
  32 H :    0.015642
  33 H :    0.058756
Sum of atomic charges:   -0.0000000

LOEWDIN ATOMIC CHARGES
----------------------
   0 S :    0.362118
   1 C :   -0.178602
   2 C :   -0.059235
   3 C :   -0.051143
   4 C :   -0.176644
   5 H :    0.017228
   6 C :   -0.035819
   7 H :    0.032513
   8 H :    0.024491
   9 C :   -0.035527
  10 H :    0.031395
  11 H :    0.028128
  12 C :   -0.074567
  13 H :    0.028109
  14 H :    0.038516
  15 H :    0.024706
  16 S :    0.411377
  17 C :   -0.188927
  18 C :   -0.066413
  19 C :   -0.060540
  20 C :   -0.180581
  21 H :    0.026403
  22 C :   -0.040795
  23 H :    0.028070
  24 H :    0.032872
  25 C :   -0.043664
  26 H :    0.027531
  27 H :    0.019875
  28 C :   -0.062676
  29 H :    0.037233
  30 H :    0.014670
  31 H :    0.022313
  32 H :    0.016799
  33 H :    0.030787

  Mayer bond orders larger than 0.100000
B(  0-S ,  1-C ) :   1.1057 B(  0-S ,  4-C ) :   1.1132 B(  1-C ,  2-C ) :   1.6826
B(  1-C , 32-H ) :   0.9600 B(  2-C ,  3-C ) :   1.2129 B(  2-C ,  6-C ) :   1.0128
B(  3-C ,  4-C ) :   1.5941 B(  3-C ,  5-H ) :   0.9958 B(  4-C , 20-C ) :   1.0704
B(  6-C ,  7-H ) :   0.9359 B(  6-C ,  8-H ) :   0.9410 B(  6-C ,  9-C ) :   1.0723
B(  9-C , 10-H ) :   0.9543 B(  9-C , 11-H ) :   0.9566 B(  9-C , 12-C ) :   1.0633
B( 12-C , 13-H ) :   0.9754 B( 12-C , 14-H ) :   0.9696 B( 12-C , 15-H ) :   0.9753
B( 16-S , 17-C ) :   1.1563 B( 16-S , 20-C ) :   1.1497 B( 17-C , 18-C ) :   1.5670
B( 17-C , 20-C ) :   0.1001 B( 17-C , 33-H ) :   0.9733 B( 18-C , 19-C ) :   1.2815
B( 18-C , 21-H ) :   0.9908 B( 19-C , 20-C ) :   1.5563 B( 19-C , 22-C ) :   1.0415
B( 22-C , 23-H ) :   0.9469 B( 22-C , 24-H ) :   0.9455 B( 22-C , 25-C ) :   1.0227
B( 25-C , 26-H ) :   0.9622 B( 25-C , 27-H ) :   0.9584 B( 25-C , 28-C ) :   1.0825
B( 28-C , 29-H ) :   0.9704 B( 28-C , 30-H ) :   0.9689 B( 28-C , 31-H ) :   0.9725

Dispersion correction           -0.014172077
FINAL SINGLE POINT ENERGY     -1339.850044391344

DIPOLE MOMENT
-------------
                                X             Y             Z
Electronic contribution:    -24.50786      -4.87582      -5.90020
Nuclear contribution   :     25.08639       5.19738       6.26070
                        -----------------------------------------
Total Dipole Moment    :      0.57853       0.32157       0.36050
                        -----------------------------------------
Magnitude (a.u.)       :      0.75370
Magnitude (Debye)      :      1.91576

Rotational constants in cm-1:     0.016691     0.009235     0.007301
Rotational constants in MHz :   500.372465   276.854163   218.876389

                             ****ORCA TERMINATED NORMALLY****
TOTAL RUN TIME: 0 days 0 hours 0 minutes 21 seconds 775 msec
