                         Program Version 4.2.1 -  RELEASE  -
|  1> ! wB97X-D3 SP def2-SVP
|  2> %pal
|  3> nprocs 24
|  4> end
|  5>
|  6> * xyz 0 1
|  7> S 	 -128.696 	 67.9748 	 -50.1907
|  8> C 	 -128.598 	 69.0947 	 -51.5077
|  9> C 	 -127.37 	 69.7356 	 -51.526
| 10> C 	 -126.435 	 69.2786 	 -50.557
| 11> C 	 -126.951 	 68.1846 	 -49.9214
| 12> H 	 -125.323 	 69.4338 	 -50.4214
| 13> C 	 -126.934 	 70.8769 	 -52.4608
| 14> H 	 -127.482 	 70.7359 	 -53.4373
| 15> H 	 -125.892 	 70.6697 	 -52.7762
| 16> C 	 -126.894 	 72.339 	 -52.0196
| 17> H 	 -126.457 	 72.322 	 -51.0379
| 18> H 	 -126.346 	 72.983 	 -52.6924
| 19> C 	 -128.311 	 72.805 	 -51.8354
| 20> H 	 -128.821 	 72.435 	 -50.9165
| 21> H 	 -128.479 	 73.878 	 -51.6087
| 22> H 	 -128.965 	 72.5172 	 -52.6182
| 23> S 	 -127.077 	 67.5843 	 -47.2824
| 24> C 	 -125.571 	 67.1002 	 -46.5622
| 25> C 	 -124.633 	 66.7433 	 -47.4896
| 26> C 	 -125.03 	 67.0469 	 -48.8217
| 27> C 	 -126.297 	 67.5564 	 -48.8482
| 28> H 	 -123.652 	 66.3597 	 -47.1075
| 29> C 	 -124.077 	 66.79 	 -50.0256
| 30> H 	 -124.488 	 67.114 	 -50.974
| 31> H 	 -123.946 	 65.7116 	 -50.1505
| 32> C 	 -122.754 	 67.3666 	 -49.8814
| 33> H 	 -122.016 	 66.9448 	 -50.5625
| 34> H 	 -122.338 	 67.1173 	 -48.8886
| 35> C 	 -122.841 	 68.8923 	 -49.9906
| 36> H 	 -123.296 	 69.3405 	 -49.2508
| 37> H 	 -123.275 	 69.2194 	 -50.9307
| 38> H 	 -121.826 	 69.289 	 -50.0235
| 39> H 	 -129.395 	 69.3728 	 -52.0843
| 40> H 	 -125.337 	 67.0385 	 -45.5007
| 41> *
| 42>
| 43>                          ****END OF INPUT****

CARTESIAN COORDINATES (ANGSTROEM)
---------------------------------
  S    -128.696000   67.974800  -50.190700
  C    -128.598000   69.094700  -51.507700
  C    -127.370000   69.735600  -51.526000
  C    -126.435000   69.278600  -50.557000
  C    -126.951000   68.184600  -49.921400
  H    -125.323000   69.433800  -50.421400
  C    -126.934000   70.876900  -52.460800
  H    -127.482000   70.735900  -53.437300
  H    -125.892000   70.669700  -52.776200
  C    -126.894000   72.339000  -52.019600
  H    -126.457000   72.322000  -51.037900
  H    -126.346000   72.983000  -52.692400
  C    -128.311000   72.805000  -51.835400
  H    -128.821000   72.435000  -50.916500
  H    -128.479000   73.878000  -51.608700
  H    -128.965000   72.517200  -52.618200
  S    -127.077000   67.584300  -47.282400
  C    -125.571000   67.100200  -46.562200
  C    -124.633000   66.743300  -47.489600
  C    -125.030000   67.046900  -48.821700
  C    -126.297000   67.556400  -48.848200
  H    -123.652000   66.359700  -47.107500
  C    -124.077000   66.790000  -50.025600
  H    -124.488000   67.114000  -50.974000
  H    -123.946000   65.711600  -50.150500
  C    -122.754000   67.366600  -49.881400
  H    -122.016000   66.944800  -50.562500
  H    -122.338000   67.117300  -48.888600
  C    -122.841000   68.892300  -49.990600
  H    -123.296000   69.340500  -49.250800
  H    -123.275000   69.219400  -50.930700
  H    -121.826000   69.289000  -50.023500
  H    -129.395000   69.372800  -52.084300
  H    -125.337000   67.038500  -45.500700

 Total Charge           Charge          ....    0
 Multiplicity           Mult            ....    1
 Number of Electrons    NEL             ....  134
 Basis Dimension        Dim             ....  322

ORBITAL ENERGIES
----------------

  NO   OCC          E(Eh)            E(eV)
   0   2.0000     -88.965857     -2420.8840
   1   2.0000     -88.965630     -2420.8779
   2   2.0000     -10.321532      -280.8632
   3   2.0000     -10.317819      -280.7621
   4   2.0000     -10.314334      -280.6673
   5   2.0000     -10.307921      -280.4928
   6   2.0000     -10.303110      -280.3619
   7   2.0000     -10.302513      -280.3456
   8   2.0000     -10.294647      -280.1316
   9   2.0000     -10.293093      -280.0893
  10   2.0000     -10.293085      -280.0891
  11   2.0000     -10.288268      -279.9580
  12   2.0000     -10.283854      -279.8379
  13   2.0000     -10.283409      -279.8258
  14   2.0000     -10.269589      -279.4497
  15   2.0000     -10.266470      -279.3648
  16   2.0000      -8.081160      -219.8995
  17   2.0000      -8.080551      -219.8830
  18   2.0000      -6.039726      -164.3493
  19   2.0000      -6.038987      -164.3292
  20   2.0000      -6.035788      -164.2422
  21   2.0000      -6.035259      -164.2278
  22   2.0000      -6.031617      -164.1286
  23   2.0000      -6.031165      -164.1163
  24   2.0000      -1.014406       -27.6034
  25   2.0000      -0.986677       -26.8488
  26   2.0000      -0.923976       -25.1427
  27   2.0000      -0.911184       -24.7946
  28   2.0000      -0.877477       -23.8774
  29   2.0000      -0.854068       -23.2404
  30   2.0000      -0.846657       -23.0387
  31   2.0000      -0.812629       -22.1128
  32   2.0000      -0.791035       -21.5252
  33   2.0000      -0.773649       -21.0521
  34   2.0000      -0.713069       -19.4036
  35   2.0000      -0.700487       -19.0612
  36   2.0000      -0.698938       -19.0191
  37   2.0000      -0.656158       -17.8550
  38   2.0000      -0.643562       -17.5122
  39   2.0000      -0.616572       -16.7778
  40   2.0000      -0.603429       -16.4201
  41   2.0000      -0.564585       -15.3631
  42   2.0000      -0.562488       -15.3061
  43   2.0000      -0.549625       -14.9561
  44   2.0000      -0.545944       -14.8559
  45   2.0000      -0.542124       -14.7520
  46   2.0000      -0.521388       -14.1877
  47   2.0000      -0.517657       -14.0862
  48   2.0000      -0.502747       -13.6804
  49   2.0000      -0.500516       -13.6197
  50   2.0000      -0.488280       -13.2868
  51   2.0000      -0.484739       -13.1904
  52   2.0000      -0.471536       -12.8312
  53   2.0000      -0.466314       -12.6891
  54   2.0000      -0.454181       -12.3589
  55   2.0000      -0.451181       -12.2773
  56   2.0000      -0.443436       -12.0665
  57   2.0000      -0.434676       -11.8281
  58   2.0000      -0.427685       -11.6379
  59   2.0000      -0.423540       -11.5251
  60   2.0000      -0.421794       -11.4776
  61   2.0000      -0.418873       -11.3981
  62   2.0000      -0.412307       -11.2194
  63   2.0000      -0.352845        -9.6014
  64   2.0000      -0.335139        -9.1196
  65   2.0000      -0.328551        -8.9403
  66   2.0000      -0.287225        -7.8158
  67   0.0000       0.031532         0.8580
  68   0.0000       0.065158         1.7731
  69   0.0000       0.103980         2.8294
  70   0.0000       0.119045         3.2394
  71   0.0000       0.128293         3.4910

MULLIKEN ATOMIC CHARGES
-----------------------
   0 S :    0.095845
   1 C :   -0.059165
   2 C :   -0.069124
   3 C :    0.021456
   4 C :   -0.166477
   5 H :    0.009992
   6 C :   -0.002247
   7 H :    0.026002
   8 H :    0.020382
   9 C :    0.011395
  10 H :    0.023383
  11 H :    0.037271
  12 C :   -0.075950
  13 H :    0.029849
  14 H :    0.026132
  15 H :    0.014924
  16 S :    0.118181
  17 C :   -0.097698
  18 C :   -0.060966
  19 C :   -0.048828
  20 C :   -0.141446
  21 H :    0.036348
  22 C :    0.105633
  23 H :    0.017888
  24 H :    0.031938
  25 C :   -0.080617
  26 H :    0.027586
  27 H :    0.020510
  28 C :   -0.004161
  29 H :    0.018204
  30 H :    0.030032
  31 H :    0.021921
  32 H :    0.008143
  33 H :    0.053666
Sum of atomic charges:   -0.0000000

LOEWDIN ATOMIC CHARGES
----------------------
   0 S :    0.392503
   1 C :   -0.185473
   2 C :   -0.058855
   3 C :   -0.064742
   4 C :   -0.177614
   5 H :    0.047745
   6 C :   -0.039079
   7 H :    0.029602
   8 H :    0.028562
   9 C :   -0.035195
  10 H :    0.027531
  11 H :    0.027563
  12 C :   -0.078007
  13 H :    0.031524
  14 H :    0.026290
  15 H :    0.014116
  16 S :    0.404266
  17 C :   -0.188504
  18 C :   -0.077335
  19 C :   -0.056034
  20 C :   -0.197142
  21 H :    0.039036
  22 C :   -0.029329
  23 H :    0.026772
  24 H :    0.035561
  25 C :   -0.040809
  26 H :    0.026301
  27 H :    0.023006
  28 C :   -0.050337
  29 H :    0.002670
  30 H :    0.023286
  31 H :    0.031011
  32 H :    0.009518
  33 H :    0.031592

  Mayer bond orders larger than 0.100000
B(  0-S ,  1-C ) :   1.1227 B(  0-S ,  4-C ) :   1.1343 B(  1-C ,  2-C ) :   1.6231
B(  1-C , 32-H ) :   0.9801 B(  2-C ,  3-C ) :   1.2147 B(  2-C ,  6-C ) :   1.0193
B(  3-C ,  4-C ) :   1.5923 B(  3-C ,  5-H ) :   0.9681 B(  4-C , 20-C ) :   1.0642
B(  6-C ,  7-H ) :   0.9454 B(  6-C ,  8-H ) :   0.9412 B(  6-C ,  9-C ) :   1.0766
B(  9-C , 10-H ) :   0.9485 B(  9-C , 11-H ) :   0.9542 B(  9-C , 12-C ) :   1.0746
B( 12-C , 13-H ) :   0.9720 B( 12-C , 14-H ) :   0.9712 B( 12-C , 15-H ) :   0.9783
B( 16-S , 17-C ) :   1.1418 B( 16-S , 20-C ) :   1.1238 B( 17-C , 18-C ) :   1.6549
B( 17-C , 33-H ) :   0.9639 B( 18-C , 19-C ) :   1.2031 B( 18-C , 21-H ) :   0.9799
B( 19-C , 20-C ) :   1.6317 B( 19-C , 22-C ) :   1.0303 B( 22-C , 23-H ) :   0.9379
B( 22-C , 24-H ) :   0.9286 B( 22-C , 25-C ) :   1.0854 B( 25-C , 26-H ) :   0.9513
B( 25-C , 27-H ) :   0.9492 B( 25-C , 28-C ) :   1.0822 B( 28-C , 29-H ) :   0.9670
B( 28-C , 30-H ) :   0.9614 B( 28-C , 31-H ) :   0.9616

Dispersion correction           -0.015361561
FINAL SINGLE POINT ENERGY     -1339.853425650892

DIPOLE MOMENT
-------------
                                X             Y             Z
Electronic contribution:    -15.79904     -16.00462      13.78012
Nuclear contribution   :     16.46994      16.22153     -13.90824
                        -----------------------------------------
Total Dipole Moment    :      0.67089       0.21691      -0.12813
                        -----------------------------------------
Magnitude (a.u.)       :      0.71663
Magnitude (Debye)      :      1.82154

Rotational constants in cm-1:     0.019481     0.009434     0.007436
Rotational constants in MHz :   584.035791   282.829645   222.928285

                             ****ORCA TERMINATED NORMALLY****
TOTAL RUN TIME: 0 days 0 hours 0 minutes 22 seconds 895 msec
