                         Program Version 4.2.1 -  RELEASE  -
|  1> ! wB97X-D3 SP def2-SVP
|  2> %pal
|  3> nprocs 24
|  4> end
|  5>
|  6> * xyz 0 1
|  7> S 	 -37.2068 	 19.3532 	 26.8843
|  8> C 	 -36.4455 	 17.8972 	 27.5506
|  9> C 	 -36.6341 	 17.963 	 28.9007
| 10> C 	 -37.3212 	 19.0999 	 29.3965
| 11> C 	 -37.5849 	 20.0312 	 28.43
| 12> H 	 -37.5615 	 19.1651 	 30.462
| 13> C 	 -36.2148 	 16.8393 	 29.8206
| 14> H 	 -35.1502 	 16.6586 	 29.7396
| 15> H 	 -36.7377 	 15.9114 	 29.4448
| 16> C 	 -36.5177 	 16.8465 	 31.31
| 17> H 	 -36.0937 	 17.6595 	 31.9242
| 18> H 	 -37.5795 	 16.907 	 31.4174
| 19> C 	 -36.2249 	 15.481 	 31.9977
| 20> H 	 -35.1863 	 15.2944 	 32.1423
| 21> H 	 -36.6285 	 15.3548 	 33.0391
| 22> H 	 -36.4272 	 14.66 	 31.3223
| 23> S 	 -39.4994 	 21.6526 	 29.3782
| 24> C 	 -39.3689 	 23.3757 	 28.9353
| 25> C 	 -38.17 	 23.7129 	 28.2863
| 26> C 	 -37.3698 	 22.5705 	 28.1609
| 27> C 	 -37.9188 	 21.3667 	 28.6889
| 28> H 	 -38.0139 	 24.6872 	 27.9552
| 29> C 	 -35.995 	 22.6892 	 27.3648
| 30> H 	 -36.141 	 23.4432 	 26.5867
| 31> H 	 -35.79 	 21.7185 	 26.8867
| 32> C 	 -34.7588 	 23.1374 	 28.2221
| 33> H 	 -34.7291 	 24.1794 	 28.2581
| 34> H 	 -33.9378 	 22.8814 	 27.5636
| 35> C 	 -34.58 	 22.4437 	 29.569
| 36> H 	 -35.3996 	 22.6381 	 30.2156
| 37> H 	 -33.6181 	 22.8646 	 30.0115
| 38> H 	 -34.565 	 21.3186 	 29.51
| 39> H 	 -36.0389 	 17.0628 	 26.9752
| 40> H 	 -40.1239 	 24.2068 	 29.0369
| 41> *
| 42>
| 43>                          ****END OF INPUT****

CARTESIAN COORDINATES (ANGSTROEM)
---------------------------------
  S    -37.206800   19.353200   26.884300
  C    -36.445500   17.897200   27.550600
  C    -36.634100   17.963000   28.900700
  C    -37.321200   19.099900   29.396500
  C    -37.584900   20.031200   28.430000
  H    -37.561500   19.165100   30.462000
  C    -36.214800   16.839300   29.820600
  H    -35.150200   16.658600   29.739600
  H    -36.737700   15.911400   29.444800
  C    -36.517700   16.846500   31.310000
  H    -36.093700   17.659500   31.924200
  H    -37.579500   16.907000   31.417400
  C    -36.224900   15.481000   31.997700
  H    -35.186300   15.294400   32.142300
  H    -36.628500   15.354800   33.039100
  H    -36.427200   14.660000   31.322300
  S    -39.499400   21.652600   29.378200
  C    -39.368900   23.375700   28.935300
  C    -38.170000   23.712900   28.286300
  C    -37.369800   22.570500   28.160900
  C    -37.918800   21.366700   28.688900
  H    -38.013900   24.687200   27.955200
  C    -35.995000   22.689200   27.364800
  H    -36.141000   23.443200   26.586700
  H    -35.790000   21.718500   26.886700
  C    -34.758800   23.137400   28.222100
  H    -34.729100   24.179400   28.258100
  H    -33.937800   22.881400   27.563600
  C    -34.580000   22.443700   29.569000
  H    -35.399600   22.638100   30.215600
  H    -33.618100   22.864600   30.011500
  H    -34.565000   21.318600   29.510000
  H    -36.038900   17.062800   26.975200
  H    -40.123900   24.206800   29.036900

 Total Charge           Charge          ....    0
 Multiplicity           Mult            ....    1
 Number of Electrons    NEL             ....  134
 Basis Dimension        Dim             ....  322

ORBITAL ENERGIES
----------------

  NO   OCC          E(Eh)            E(eV)
   0   2.0000     -88.972723     -2421.0709
   1   2.0000     -88.965194     -2420.8660
   2   2.0000     -10.325888      -280.9817
   3   2.0000     -10.324018      -280.9308
   4   2.0000     -10.323632      -280.9203
   5   2.0000     -10.314814      -280.6804
   6   2.0000     -10.307552      -280.4827
   7   2.0000     -10.298049      -280.2242
   8   2.0000     -10.292983      -280.0863
   9   2.0000     -10.291956      -280.0584
  10   2.0000     -10.291700      -280.0514
  11   2.0000     -10.289827      -280.0004
  12   2.0000     -10.288300      -279.9589
  13   2.0000     -10.279699      -279.7248
  14   2.0000     -10.277309      -279.6598
  15   2.0000     -10.275758      -279.6176
  16   2.0000      -8.086461      -220.0438
  17   2.0000      -8.079509      -219.8546
  18   2.0000      -6.044977      -164.4922
  19   2.0000      -6.041109      -164.3869
  20   2.0000      -6.038107      -164.3052
  21   2.0000      -6.037262      -164.2822
  22   2.0000      -6.033913      -164.1911
  23   2.0000      -6.030315      -164.0932
  24   2.0000      -1.010996       -27.5106
  25   2.0000      -0.982338       -26.7308
  26   2.0000      -0.913138       -24.8477
  27   2.0000      -0.896308       -24.3898
  28   2.0000      -0.877975       -23.8909
  29   2.0000      -0.849801       -23.1243
  30   2.0000      -0.840032       -22.8584
  31   2.0000      -0.813277       -22.1304
  32   2.0000      -0.779689       -21.2164
  33   2.0000      -0.768796       -20.9200
  34   2.0000      -0.717412       -19.5218
  35   2.0000      -0.698197       -18.9989
  36   2.0000      -0.684634       -18.6298
  37   2.0000      -0.666286       -18.1306
  38   2.0000      -0.634335       -17.2611
  39   2.0000      -0.624556       -16.9950
  40   2.0000      -0.582816       -15.8592
  41   2.0000      -0.572027       -15.5656
  42   2.0000      -0.570607       -15.5270
  43   2.0000      -0.549903       -14.9636
  44   2.0000      -0.535266       -14.5653
  45   2.0000      -0.522404       -14.2153
  46   2.0000      -0.517399       -14.0791
  47   2.0000      -0.511337       -13.9142
  48   2.0000      -0.504220       -13.7205
  49   2.0000      -0.494360       -13.4522
  50   2.0000      -0.488089       -13.2816
  51   2.0000      -0.483425       -13.1547
  52   2.0000      -0.469198       -12.7675
  53   2.0000      -0.459330       -12.4990
  54   2.0000      -0.457810       -12.4577
  55   2.0000      -0.451597       -12.2886
  56   2.0000      -0.449091       -12.2204
  57   2.0000      -0.433738       -11.8026
  58   2.0000      -0.426918       -11.6170
  59   2.0000      -0.423990       -11.5374
  60   2.0000      -0.415628       -11.3098
  61   2.0000      -0.411664       -11.2020
  62   2.0000      -0.403441       -10.9782
  63   2.0000      -0.348039        -9.4706
  64   2.0000      -0.333916        -9.0863
  65   2.0000      -0.326109        -8.8739
  66   2.0000      -0.288024        -7.8375
  67   0.0000       0.024759         0.6737
  68   0.0000       0.062042         1.6883
  69   0.0000       0.107117         2.9148
  70   0.0000       0.121214         3.2984
  71   0.0000       0.128602         3.4994

MULLIKEN ATOMIC CHARGES
-----------------------
   0 S :    0.111477
   1 C :   -0.147309
   2 C :   -0.057711
   3 C :    0.008501
   4 C :   -0.098894
   5 H :    0.022025
   6 C :    0.015568
   7 H :    0.035532
   8 H :    0.039981
   9 C :   -0.080522
  10 H :    0.042733
  11 H :    0.027096
  12 C :   -0.049975
  13 H :    0.011399
  14 H :    0.047933
  15 H :    0.018547
  16 S :    0.123070
  17 C :   -0.112564
  18 C :   -0.019938
  19 C :   -0.054028
  20 C :   -0.166016
  21 H :    0.000793
  22 C :    0.048827
  23 H :    0.023738
  24 H :    0.029404
  25 C :   -0.041808
  26 H :    0.011035
  27 H :    0.023705
  28 C :   -0.061041
  29 H :    0.036994
  30 H :    0.042639
  31 H :    0.042122
  32 H :    0.056342
  33 H :    0.070345
Sum of atomic charges:    0.0000000

LOEWDIN ATOMIC CHARGES
----------------------
   0 S :    0.419737
   1 C :   -0.196501
   2 C :   -0.067073
   3 C :   -0.068435
   4 C :   -0.203734
   5 H :    0.034705
   6 C :   -0.039823
   7 H :    0.030419
   8 H :    0.040920
   9 C :   -0.047548
  10 H :    0.026168
  11 H :    0.020755
  12 C :   -0.069550
  13 H :    0.017606
  14 H :    0.036110
  15 H :    0.023644
  16 S :    0.412533
  17 C :   -0.183537
  18 C :   -0.063991
  19 C :   -0.047246
  20 C :   -0.212337
  21 H :    0.025087
  22 C :   -0.029115
  23 H :    0.028582
  24 H :    0.017427
  25 C :   -0.038860
  26 H :    0.012527
  27 H :    0.026159
  28 C :   -0.068825
  29 H :    0.019342
  30 H :    0.034748
  31 H :    0.033448
  32 H :    0.036537
  33 H :    0.040121

  Mayer bond orders larger than 0.100000
B(  0-S ,  1-C ) :   1.1204 B(  0-S ,  4-C ) :   1.1621 B(  1-C ,  2-C ) :   1.5898
B(  1-C , 32-H ) :   0.9819 B(  2-C ,  3-C ) :   1.2962 B(  2-C ,  6-C ) :   0.9997
B(  3-C ,  4-C ) :   1.4933 B(  3-C ,  5-H ) :   0.9890 B(  4-C , 20-C ) :   1.0608
B(  6-C ,  7-H ) :   0.9440 B(  6-C ,  8-H ) :   0.9384 B(  6-C ,  9-C ) :   1.0881
B(  9-C , 10-H ) :   0.9506 B(  9-C , 11-H ) :   0.9472 B(  9-C , 12-C ) :   1.0764
B( 12-C , 13-H ) :   0.9725 B( 12-C , 14-H ) :   0.9743 B( 12-C , 15-H ) :   0.9709
B( 16-S , 17-C ) :   1.1643 B( 16-S , 20-C ) :   1.1366 B( 17-C , 18-C ) :   1.5945
B( 17-C , 20-C ) :   0.1103 B( 17-C , 33-H ) :   0.9566 B( 18-C , 19-C ) :   1.2616
B( 18-C , 21-H ) :   1.0024 B( 19-C , 20-C ) :   1.5495 B( 19-C , 22-C ) :   1.0249
B( 22-C , 23-H ) :   0.9433 B( 22-C , 24-H ) :   0.9359 B( 22-C , 25-C ) :   1.0681
B( 25-C , 26-H ) :   0.9564 B( 25-C , 27-H ) :   0.9547 B( 25-C , 28-C ) :   1.0807
B( 28-C , 29-H ) :   0.9709 B( 28-C , 30-H ) :   0.9726 B( 28-C , 31-H ) :   0.9745

Dispersion correction           -0.014772216
FINAL SINGLE POINT ENERGY     -1339.857824272414

DIPOLE MOMENT
-------------
                                X             Y             Z
Electronic contribution:    -17.45034       7.90301     -12.29866
Nuclear contribution   :     17.74077      -7.93397      12.41451
                        -----------------------------------------
Total Dipole Moment    :      0.29043      -0.03096       0.11585
                        -----------------------------------------
Magnitude (a.u.)       :      0.31421
Magnitude (Debye)      :      0.79866

Rotational constants in cm-1:     0.019882     0.008073     0.007534
Rotational constants in MHz :   596.040851   242.010232   225.872999

                             ****ORCA TERMINATED NORMALLY****
TOTAL RUN TIME: 0 days 0 hours 0 minutes 22 seconds 997 msec
