                         Program Version 4.2.1 -  RELEASE  -
|  1> ! wB97X-D3 SP def2-SVP
|  2> %pal
|  3> nprocs 24
|  4> end
|  5>
|  6> * xyz 0 1
|  7> S 	 -61.9621 	 8.73557 	 -18.7747
|  8> C 	 -61.9765 	 7.56806 	 -20.1243
|  9> C 	 -62.507 	 6.37621 	 -19.7575
| 10> C 	 -62.9894 	 6.37001 	 -18.3995
| 11> C 	 -62.8245 	 7.55603 	 -17.7444
| 12> H 	 -63.3993 	 5.49794 	 -17.8442
| 13> C 	 -62.4153 	 5.10733 	 -20.6625
| 14> H 	 -61.9635 	 5.31996 	 -21.6482
| 15> H 	 -63.3908 	 4.65593 	 -20.8029
| 16> C 	 -61.4467 	 3.98232 	 -20.1811
| 17> H 	 -60.4455 	 4.30671 	 -20.3995
| 18> H 	 -61.5623 	 3.64386 	 -19.1691
| 19> C 	 -61.7377 	 2.72125 	 -21.0397
| 20> H 	 -61.7306 	 3.01779 	 -22.056
| 21> H 	 -60.9315 	 1.96267 	 -20.9098
| 22> H 	 -62.7355 	 2.34618 	 -20.9261
| 23> S 	 -61.879 	 6.8785 	 -15.1759
| 24> C 	 -62.6219 	 7.6628 	 -13.7678
| 25> C 	 -63.7109 	 8.4585 	 -14.1418
| 26> C 	 -63.8152 	 8.6044 	 -15.542
| 27> C 	 -63.0388 	 7.72135 	 -16.2929
| 28> H 	 -64.3881 	 8.94978 	 -13.4045
| 29> C 	 -64.9043 	 9.40808 	 -16.1907
| 30> H 	 -64.7664 	 9.59646 	 -17.244
| 31> H 	 -65.0664 	 10.4341 	 -15.6979
| 32> C 	 -66.3339 	 8.78925 	 -15.9573
| 33> H 	 -67.0147 	 9.50521 	 -16.3659
| 34> H 	 -66.6282 	 8.6537 	 -14.9529
| 35> C 	 -66.619 	 7.48505 	 -16.7401
| 36> H 	 -65.982 	 6.68408 	 -16.4593
| 37> H 	 -66.5227 	 7.66501 	 -17.7571
| 38> H 	 -67.587 	 7.16035 	 -16.5059
| 39> H 	 -61.5126 	 7.71259 	 -21.0924
| 40> H 	 -62.3701 	 7.4405 	 -12.7922
| 41> *
| 42>
| 43>                          ****END OF INPUT****

CARTESIAN COORDINATES (ANGSTROEM)
---------------------------------
  S    -61.962100    8.735570  -18.774700
  C    -61.976500    7.568060  -20.124300
  C    -62.507000    6.376210  -19.757500
  C    -62.989400    6.370010  -18.399500
  C    -62.824500    7.556030  -17.744400
  H    -63.399300    5.497940  -17.844200
  C    -62.415300    5.107330  -20.662500
  H    -61.963500    5.319960  -21.648200
  H    -63.390800    4.655930  -20.802900
  C    -61.446700    3.982320  -20.181100
  H    -60.445500    4.306710  -20.399500
  H    -61.562300    3.643860  -19.169100
  C    -61.737700    2.721250  -21.039700
  H    -61.730600    3.017790  -22.056000
  H    -60.931500    1.962670  -20.909800
  H    -62.735500    2.346180  -20.926100
  S    -61.879000    6.878500  -15.175900
  C    -62.621900    7.662800  -13.767800
  C    -63.710900    8.458500  -14.141800
  C    -63.815200    8.604400  -15.542000
  C    -63.038800    7.721350  -16.292900
  H    -64.388100    8.949780  -13.404500
  C    -64.904300    9.408080  -16.190700
  H    -64.766400    9.596460  -17.244000
  H    -65.066400   10.434100  -15.697900
  C    -66.333900    8.789250  -15.957300
  H    -67.014700    9.505210  -16.365900
  H    -66.628200    8.653700  -14.952900
  C    -66.619000    7.485050  -16.740100
  H    -65.982000    6.684080  -16.459300
  H    -66.522700    7.665010  -17.757100
  H    -67.587000    7.160350  -16.505900
  H    -61.512600    7.712590  -21.092400
  H    -62.370100    7.440500  -12.792200

 Total Charge           Charge          ....    0
 Multiplicity           Mult            ....    1
 Number of Electrons    NEL             ....  134
 Basis Dimension        Dim             ....  322

ORBITAL ENERGIES
----------------

  NO   OCC          E(Eh)            E(eV)
   0   2.0000     -88.966818     -2420.9102
   1   2.0000     -88.965558     -2420.8759
   2   2.0000     -10.332497      -281.1615
   3   2.0000     -10.331077      -281.1229
   4   2.0000     -10.319965      -280.8205
   5   2.0000     -10.315639      -280.7028
   6   2.0000     -10.304304      -280.3944
   7   2.0000     -10.303644      -280.3764
   8   2.0000     -10.300160      -280.2816
   9   2.0000     -10.299350      -280.2596
  10   2.0000     -10.298680      -280.2413
  11   2.0000     -10.294523      -280.1282
  12   2.0000     -10.285440      -279.8811
  13   2.0000     -10.279245      -279.7125
  14   2.0000     -10.275591      -279.6130
  15   2.0000     -10.256832      -279.1026
  16   2.0000      -8.080306      -219.8763
  17   2.0000      -8.078861      -219.8370
  18   2.0000      -6.039015      -164.3299
  19   2.0000      -6.037470      -164.2879
  20   2.0000      -6.035091      -164.2232
  21   2.0000      -6.033545      -164.1811
  22   2.0000      -6.030810      -164.1067
  23   2.0000      -6.029620      -164.0743
  24   2.0000      -0.998673       -27.1753
  25   2.0000      -0.977979       -26.6122
  26   2.0000      -0.907917       -24.7057
  27   2.0000      -0.902496       -24.5582
  28   2.0000      -0.868594       -23.6356
  29   2.0000      -0.847073       -23.0500
  30   2.0000      -0.842350       -22.9215
  31   2.0000      -0.812893       -22.1199
  32   2.0000      -0.780823       -21.2473
  33   2.0000      -0.770229       -20.9590
  34   2.0000      -0.706833       -19.2339
  35   2.0000      -0.699772       -19.0418
  36   2.0000      -0.696396       -18.9499
  37   2.0000      -0.662419       -18.0253
  38   2.0000      -0.636294       -17.3144
  39   2.0000      -0.615234       -16.7414
  40   2.0000      -0.601109       -16.3570
  41   2.0000      -0.571767       -15.5586
  42   2.0000      -0.565224       -15.3805
  43   2.0000      -0.542519       -14.7627
  44   2.0000      -0.538616       -14.6565
  45   2.0000      -0.524846       -14.2818
  46   2.0000      -0.518862       -14.1189
  47   2.0000      -0.507139       -13.7999
  48   2.0000      -0.503687       -13.7060
  49   2.0000      -0.493504       -13.4289
  50   2.0000      -0.488401       -13.2901
  51   2.0000      -0.475757       -12.9460
  52   2.0000      -0.470006       -12.7895
  53   2.0000      -0.463761       -12.6196
  54   2.0000      -0.460653       -12.5350
  55   2.0000      -0.446404       -12.1473
  56   2.0000      -0.441127       -12.0037
  57   2.0000      -0.438840       -11.9415
  58   2.0000      -0.435792       -11.8585
  59   2.0000      -0.428907       -11.6711
  60   2.0000      -0.419850       -11.4247
  61   2.0000      -0.415407       -11.3038
  62   2.0000      -0.411236       -11.1903
  63   2.0000      -0.335473        -9.1287
  64   2.0000      -0.333954        -9.0873
  65   2.0000      -0.326377        -8.8812
  66   2.0000      -0.304064        -8.2740
  67   0.0000       0.035233         0.9587
  68   0.0000       0.052988         1.4419
  69   0.0000       0.106695         2.9033
  70   0.0000       0.114922         3.1272
  71   0.0000       0.124753         3.3947

MULLIKEN ATOMIC CHARGES
-----------------------
   0 S :    0.106633
   1 C :   -0.128070
   2 C :   -0.038283
   3 C :    0.003007
   4 C :   -0.132536
   5 H :    0.033329
   6 C :    0.026665
   7 H :    0.023874
   8 H :    0.030548
   9 C :   -0.061299
  10 H :    0.029819
  11 H :    0.034854
  12 C :   -0.051177
  13 H :    0.005948
  14 H :    0.045526
  15 H :    0.027842
  16 S :    0.095653
  17 C :   -0.062998
  18 C :   -0.043438
  19 C :   -0.000223
  20 C :   -0.173315
  21 H :    0.040247
  22 C :    0.028516
  23 H :    0.027558
  24 H :    0.036725
  25 C :   -0.079815
  26 H :    0.019801
  27 H :    0.018078
  28 C :    0.003319
  29 H :    0.022938
  30 H :    0.017567
  31 H :    0.012660
  32 H :    0.046800
  33 H :    0.033248
Sum of atomic charges:   -0.0000000

LOEWDIN ATOMIC CHARGES
----------------------
   0 S :    0.372119
   1 C :   -0.180444
   2 C :   -0.065835
   3 C :   -0.059928
   4 C :   -0.186654
   5 H :    0.040106
   6 C :   -0.026810
   7 H :    0.032317
   8 H :    0.026132
   9 C :   -0.031123
  10 H :    0.022347
  11 H :    0.018991
  12 C :   -0.063867
  13 H :    0.015245
  14 H :    0.031945
  15 H :    0.021263
  16 S :    0.372990
  17 C :   -0.156743
  18 C :   -0.071264
  19 C :   -0.054468
  20 C :   -0.184519
  21 H :    0.040819
  22 C :   -0.032586
  23 H :    0.026169
  24 H :    0.040475
  25 C :   -0.028967
  26 H :    0.021011
  27 H :    0.014331
  28 C :   -0.051635
  29 H :    0.019739
  30 H :    0.016722
  31 H :    0.019157
  32 H :    0.030212
  33 H :    0.012751

  Mayer bond orders larger than 0.100000
B(  0-S ,  1-C ) :   1.1171 B(  0-S ,  4-C ) :   1.1165 B(  1-C ,  2-C ) :   1.6655
B(  1-C , 32-H ) :   0.9630 B(  2-C ,  3-C ) :   1.1947 B(  2-C ,  6-C ) :   1.0160
B(  3-C ,  4-C ) :   1.6130 B(  3-C ,  5-H ) :   0.9912 B(  4-C , 20-C ) :   1.0426
B(  6-C ,  7-H ) :   0.9490 B(  6-C ,  8-H ) :   0.9489 B(  6-C ,  9-C ) :   1.0528
B(  9-C , 10-H ) :   0.9601 B(  9-C , 11-H ) :   0.9616 B(  9-C , 12-C ) :   1.0757
B( 12-C , 13-H ) :   0.9713 B( 12-C , 14-H ) :   0.9737 B( 12-C , 15-H ) :   0.9761
B( 16-S , 17-C ) :   1.1625 B( 16-S , 20-C ) :   1.1117 B( 17-C , 18-C ) :   1.5988
B( 17-C , 20-C ) :   0.1050 B( 17-C , 33-H ) :   0.9758 B( 18-C , 19-C ) :   1.2364
B( 18-C , 21-H ) :   0.9810 B( 19-C , 20-C ) :   1.5870 B( 19-C , 22-C ) :   1.0696
B( 22-C , 23-H ) :   0.9380 B( 22-C , 24-H ) :   0.9321 B( 22-C , 25-C ) :   1.0663
B( 25-C , 26-H ) :   0.9555 B( 25-C , 27-H ) :   0.9596 B( 25-C , 28-C ) :   1.0811
B( 28-C , 29-H ) :   0.9754 B( 28-C , 30-H ) :   0.9758 B( 28-C , 31-H ) :   0.9708

Dispersion correction           -0.014669816
FINAL SINGLE POINT ENERGY     -1339.873173085069

DIPOLE MOMENT
-------------
                                X             Y             Z
Electronic contribution:     12.60586      13.05942      10.57143
Nuclear contribution   :    -12.90923     -13.33554     -10.64609
                        -----------------------------------------
Total Dipole Moment    :     -0.30337      -0.27612      -0.07466
                        -----------------------------------------
Magnitude (a.u.)       :      0.41695
Magnitude (Debye)      :      1.05980

Rotational constants in cm-1:     0.020343     0.007644     0.007203
Rotational constants in MHz :   609.861464   229.167446   215.938248

                             ****ORCA TERMINATED NORMALLY****
TOTAL RUN TIME: 0 days 0 hours 0 minutes 20 seconds 418 msec
