                         Program Version 4.2.1 -  RELEASE  -
|  1> ! wB97X-D3 SP def2-SVP
|  2> %pal
|  3> nprocs 24
|  4> end
|  5>
|  6> * xyz 0 1
|  7> S 	 -68.4509 	 18.9025 	 -107.833
|  8> C 	 -69.5507 	 17.57 	 -108.364
|  9> C 	 -68.8135 	 16.4364 	 -108.627
| 10> C 	 -67.4255 	 16.5589 	 -108.304
| 11> C 	 -67.0523 	 17.8815 	 -107.975
| 12> H 	 -66.6106 	 15.8076 	 -108.503
| 13> C 	 -69.3188 	 15.1225 	 -109.194
| 14> H 	 -69.6456 	 15.3072 	 -110.218
| 15> H 	 -70.2442 	 14.8774 	 -108.663
| 16> C 	 -68.5098 	 13.8425 	 -109.016
| 17> H 	 -67.7304 	 13.8158 	 -109.73
| 18> H 	 -68.0588 	 13.8001 	 -107.961
| 19> C 	 -69.4316 	 12.5449 	 -109.175
| 20> H 	 -69.7748 	 12.2639 	 -110.164
| 21> H 	 -69.029 	 11.7119 	 -108.66
| 22> H 	 -70.3047 	 12.7125 	 -108.552
| 23> S 	 -64.4751 	 17.2791 	 -107.119
| 24> C 	 -63.386 	 18.5979 	 -107.234
| 25> C 	 -63.8097 	 19.7528 	 -107.798
| 26> C 	 -65.14 	 19.6482 	 -108.162
| 27> C 	 -65.6466 	 18.3762 	 -107.833
| 28> H 	 -63.0507 	 20.5435 	 -107.842
| 29> C 	 -65.9717 	 20.7625 	 -108.835
| 30> H 	 -66.592 	 21.2433 	 -108.125
| 31> H 	 -66.6682 	 20.3672 	 -109.649
| 32> C 	 -65.2282 	 21.9023 	 -109.645
| 33> H 	 -64.5085 	 22.4171 	 -108.958
| 34> H 	 -65.9298 	 22.7172 	 -109.953
| 35> C 	 -64.4514 	 21.4343 	 -110.868
| 36> H 	 -63.8796 	 22.2796 	 -111.362
| 37> H 	 -64.9378 	 20.8075 	 -111.585
| 38> H 	 -63.5293 	 20.9426 	 -110.541
| 39> H 	 -70.6435 	 17.5388 	 -108.385
| 40> H 	 -62.3374 	 18.4875 	 -106.886
| 41> *
| 42>
| 43>                          ****END OF INPUT****

CARTESIAN COORDINATES (ANGSTROEM)
---------------------------------
  S    -68.450900   18.902500  -107.833000
  C    -69.550700   17.570000  -108.364000
  C    -68.813500   16.436400  -108.627000
  C    -67.425500   16.558900  -108.304000
  C    -67.052300   17.881500  -107.975000
  H    -66.610600   15.807600  -108.503000
  C    -69.318800   15.122500  -109.194000
  H    -69.645600   15.307200  -110.218000
  H    -70.244200   14.877400  -108.663000
  C    -68.509800   13.842500  -109.016000
  H    -67.730400   13.815800  -109.730000
  H    -68.058800   13.800100  -107.961000
  C    -69.431600   12.544900  -109.175000
  H    -69.774800   12.263900  -110.164000
  H    -69.029000   11.711900  -108.660000
  H    -70.304700   12.712500  -108.552000
  S    -64.475100   17.279100  -107.119000
  C    -63.386000   18.597900  -107.234000
  C    -63.809700   19.752800  -107.798000
  C    -65.140000   19.648200  -108.162000
  C    -65.646600   18.376200  -107.833000
  H    -63.050700   20.543500  -107.842000
  C    -65.971700   20.762500  -108.835000
  H    -66.592000   21.243300  -108.125000
  H    -66.668200   20.367200  -109.649000
  C    -65.228200   21.902300  -109.645000
  H    -64.508500   22.417100  -108.958000
  H    -65.929800   22.717200  -109.953000
  C    -64.451400   21.434300  -110.868000
  H    -63.879600   22.279600  -111.362000
  H    -64.937800   20.807500  -111.585000
  H    -63.529300   20.942600  -110.541000
  H    -70.643500   17.538800  -108.385000
  H    -62.337400   18.487500  -106.886000

 Total Charge           Charge          ....    0
 Multiplicity           Mult            ....    1
 Number of Electrons    NEL             ....  134
 Basis Dimension        Dim             ....  322

ORBITAL ENERGIES
----------------

  NO   OCC          E(Eh)            E(eV)
   0   2.0000     -88.973680     -2421.0969
   1   2.0000     -88.968096     -2420.9450
   2   2.0000     -10.332619      -281.1649
   3   2.0000     -10.329996      -281.0935
   4   2.0000     -10.313440      -280.6430
   5   2.0000     -10.312538      -280.6184
   6   2.0000     -10.307761      -280.4884
   7   2.0000     -10.300553      -280.2923
   8   2.0000     -10.297261      -280.2027
   9   2.0000     -10.295432      -280.1529
  10   2.0000     -10.295307      -280.1496
  11   2.0000     -10.293730      -280.1066
  12   2.0000     -10.291350      -280.0419
  13   2.0000     -10.289338      -279.9871
  14   2.0000     -10.278759      -279.6992
  15   2.0000     -10.276592      -279.6403
  16   2.0000      -8.088711      -220.1050
  17   2.0000      -8.081227      -219.9014
  18   2.0000      -6.046845      -164.5430
  19   2.0000      -6.043500      -164.4520
  20   2.0000      -6.039955      -164.3555
  21   2.0000      -6.039545      -164.3444
  22   2.0000      -6.035881      -164.2447
  23   2.0000      -6.031930      -164.1372
  24   2.0000      -1.008970       -27.4555
  25   2.0000      -0.981521       -26.7085
  26   2.0000      -0.908097       -24.7106
  27   2.0000      -0.901609       -24.5340
  28   2.0000      -0.865362       -23.5477
  29   2.0000      -0.855950       -23.2916
  30   2.0000      -0.838011       -22.8034
  31   2.0000      -0.810426       -22.0528
  32   2.0000      -0.783316       -21.3151
  33   2.0000      -0.774046       -21.0629
  34   2.0000      -0.710373       -19.3302
  35   2.0000      -0.697564       -18.9817
  36   2.0000      -0.685284       -18.6475
  37   2.0000      -0.658430       -17.9168
  38   2.0000      -0.621858       -16.9216
  39   2.0000      -0.616766       -16.7831
  40   2.0000      -0.599133       -16.3032
  41   2.0000      -0.570726       -15.5303
  42   2.0000      -0.563633       -15.3372
  43   2.0000      -0.554246       -15.0818
  44   2.0000      -0.531860       -14.4726
  45   2.0000      -0.521580       -14.1929
  46   2.0000      -0.515323       -14.0227
  47   2.0000      -0.501107       -13.6358
  48   2.0000      -0.496023       -13.4975
  49   2.0000      -0.491478       -13.3738
  50   2.0000      -0.486003       -13.2248
  51   2.0000      -0.472486       -12.8570
  52   2.0000      -0.470214       -12.7952
  53   2.0000      -0.464405       -12.6371
  54   2.0000      -0.460609       -12.5338
  55   2.0000      -0.456507       -12.4222
  56   2.0000      -0.443873       -12.0784
  57   2.0000      -0.441126       -12.0036
  58   2.0000      -0.436223       -11.8702
  59   2.0000      -0.424209       -11.5433
  60   2.0000      -0.419053       -11.4030
  61   2.0000      -0.411909       -11.2086
  62   2.0000      -0.406797       -11.0695
  63   2.0000      -0.351865        -9.5747
  64   2.0000      -0.341153        -9.2833
  65   2.0000      -0.327928        -8.9234
  66   2.0000      -0.279363        -7.6019
  67   0.0000       0.023455         0.6383
  68   0.0000       0.080645         2.1945
  69   0.0000       0.103364         2.8127
  70   0.0000       0.118054         3.2124
  71   0.0000       0.136387         3.7113

MULLIKEN ATOMIC CHARGES
-----------------------
   0 S :    0.100034
   1 C :   -0.134816
   2 C :   -0.078789
   3 C :   -0.033025
   4 C :   -0.120549
   5 H :    0.036675
   6 C :    0.058105
   7 H :    0.042838
   8 H :    0.014493
   9 C :   -0.098026
  10 H :    0.032170
  11 H :    0.050045
  12 C :   -0.030108
  13 H :    0.042047
  14 H :    0.021928
  15 H :    0.015423
  16 S :    0.131791
  17 C :   -0.102244
  18 C :   -0.054133
  19 C :   -0.004984
  20 C :   -0.151659
  21 H :    0.025807
  22 C :    0.032792
  23 H :    0.041371
  24 H :    0.054428
  25 C :   -0.095156
  26 H :    0.025108
  27 H :    0.041886
  28 C :   -0.051630
  29 H :    0.029700
  30 H :    0.042162
  31 H :    0.016678
  32 H :    0.046045
  33 H :    0.053592
Sum of atomic charges:    0.0000000

LOEWDIN ATOMIC CHARGES
----------------------
   0 S :    0.406874
   1 C :   -0.202425
   2 C :   -0.058809
   3 C :   -0.092425
   4 C :   -0.186400
   5 H :    0.034713
   6 C :   -0.040052
   7 H :    0.036348
   8 H :    0.030446
   9 C :   -0.037616
  10 H :    0.015174
  11 H :    0.037855
  12 C :   -0.062617
  13 H :    0.025247
  14 H :    0.022911
  15 H :    0.024065
  16 S :    0.427937
  17 C :   -0.192952
  18 C :   -0.077701
  19 C :   -0.054779
  20 C :   -0.191865
  21 H :    0.041292
  22 C :   -0.041469
  23 H :    0.023952
  24 H :    0.039596
  25 C :   -0.047193
  26 H :    0.022871
  27 H :    0.030892
  28 C :   -0.078999
  29 H :    0.035812
  30 H :    0.021949
  31 H :    0.025494
  32 H :    0.033239
  33 H :    0.028636

  Mayer bond orders larger than 0.100000
B(  0-S ,  1-C ) :   1.1053 B(  0-S ,  4-C ) :   1.1690 B(  1-C ,  2-C ) :   1.6300
B(  1-C , 32-H ) :   0.9695 B(  2-C ,  3-C ) :   1.2704 B(  2-C ,  6-C ) :   1.0040
B(  3-C ,  4-C ) :   1.5363 B(  3-C ,  5-H ) :   0.9723 B(  4-C , 20-C ) :   1.0365
B(  6-C ,  7-H ) :   0.9317 B(  6-C ,  8-H ) :   0.9412 B(  6-C ,  9-C ) :   1.0769
B(  9-C , 10-H ) :   0.9501 B(  9-C , 11-H ) :   0.9540 B(  9-C , 12-C ) :   1.0736
B( 12-C , 13-H ) :   0.9790 B( 12-C , 14-H ) :   0.9751 B( 12-C , 15-H ) :   0.9721
B( 16-S , 17-C ) :   1.1619 B( 16-S , 20-C ) :   1.1556 B( 17-C , 18-C ) :   1.6332
B( 17-C , 33-H ) :   0.9538 B( 18-C , 19-C ) :   1.2376 B( 18-C , 21-H ) :   0.9901
B( 19-C , 20-C ) :   1.5785 B( 19-C , 22-C ) :   1.0082 B( 22-C , 23-H ) :   0.9352
B( 22-C , 24-H ) :   0.9412 B( 22-C , 25-C ) :   1.0750 B( 25-C , 26-H ) :   0.9479
B( 25-C , 27-H ) :   0.9578 B( 25-C , 28-C ) :   1.0834 B( 28-C , 29-H ) :   0.9672
B( 28-C , 30-H ) :   0.9775 B( 28-C , 31-H ) :   0.9683

Dispersion correction           -0.013756012
FINAL SINGLE POINT ENERGY     -1339.862019349867

DIPOLE MOMENT
-------------
                                X             Y             Z
Electronic contribution:      3.70967       4.55178      13.67789
Nuclear contribution   :     -3.58923      -4.66531     -13.91999
                        -----------------------------------------
Total Dipole Moment    :      0.12045      -0.11353      -0.24209
                        -----------------------------------------
Magnitude (a.u.)       :      0.29327
Magnitude (Debye)      :      0.74543

Rotational constants in cm-1:     0.021902     0.007315     0.006281
Rotational constants in MHz :   656.592121   219.292183   188.300168

                             ****ORCA TERMINATED NORMALLY****
TOTAL RUN TIME: 0 days 0 hours 0 minutes 21 seconds 26 msec
