                         Program Version 4.2.1 -  RELEASE  -
|  1> ! wB97X-D3 SP def2-SVP
|  2> %pal
|  3> nprocs 24
|  4> end
|  5>
|  6> * xyz 0 1
|  7> S 	 -34.3314 	 0.6781 	 11.1925
|  8> C 	 -32.902 	 0.321444 	 12.1946
|  9> C 	 -33.2486 	 -0.08185 	 13.4808
| 10> C 	 -34.6668 	 0.0631502 	 13.7041
| 11> C 	 -35.3771 	 0.456328 	 12.5686
| 12> H 	 -35.0583 	 -0.101227 	 14.6747
| 13> C 	 -32.2974 	 -0.505994 	 14.589
| 14> H 	 -31.4933 	 -1.03253 	 14.085
| 15> H 	 -32.8625 	 -1.30374 	 15.0603
| 16> C 	 -31.9029 	 0.604174 	 15.657
| 17> H 	 -31.0771 	 0.350163 	 16.3908
| 18> H 	 -31.5451 	 1.51405 	 15.0533
| 19> C 	 -33.0444 	 1.07853 	 16.5407
| 20> H 	 -33.7983 	 1.55045 	 15.9106
| 21> H 	 -33.4966 	 0.241375 	 17.0742
| 22> H 	 -32.7478 	 1.89669 	 17.1012
| 23> S 	 -37.6465 	 -0.00473018 	 11.2492
| 24> C 	 -39.1008 	 0.818496 	 11.7569
| 25> C 	 -38.924 	 1.71025 	 12.7512
| 26> C 	 -37.5493 	 1.79536 	 13.173
| 27> C 	 -36.7426 	 0.842391 	 12.4915
| 28> H 	 -39.7581 	 2.23957 	 13.0742
| 29> C 	 -37.144 	 2.90832 	 14.1267
| 30> H 	 -36.6208 	 3.64081 	 13.4149
| 31> H 	 -36.4038 	 2.4876 	 14.7529
| 32> C 	 -38.1952 	 3.51765 	 15.1396
| 33> H 	 -38.7457 	 2.73122 	 15.5635
| 34> H 	 -38.9949 	 4.00457 	 14.5151
| 35> C 	 -37.4986 	 4.45112 	 16.1066
| 36> H 	 -38.2259 	 4.90016 	 16.8105
| 37> H 	 -37.2046 	 5.38266 	 15.5391
| 38> H 	 -36.5577 	 4.04436 	 16.4683
| 39> H 	 -31.8659 	 0.392061 	 11.8256
| 40> H 	 -40.1126 	 0.778951 	 11.4289
| 41> *
| 42>
| 43>                          ****END OF INPUT****

CARTESIAN COORDINATES (ANGSTROEM)
---------------------------------
  S    -34.331400    0.678100   11.192500
  C    -32.902000    0.321444   12.194600
  C    -33.248600   -0.081850   13.480800
  C    -34.666800    0.063150   13.704100
  C    -35.377100    0.456328   12.568600
  H    -35.058300   -0.101227   14.674700
  C    -32.297400   -0.505994   14.589000
  H    -31.493300   -1.032530   14.085000
  H    -32.862500   -1.303740   15.060300
  C    -31.902900    0.604174   15.657000
  H    -31.077100    0.350163   16.390800
  H    -31.545100    1.514050   15.053300
  C    -33.044400    1.078530   16.540700
  H    -33.798300    1.550450   15.910600
  H    -33.496600    0.241375   17.074200
  H    -32.747800    1.896690   17.101200
  S    -37.646500   -0.004730   11.249200
  C    -39.100800    0.818496   11.756900
  C    -38.924000    1.710250   12.751200
  C    -37.549300    1.795360   13.173000
  C    -36.742600    0.842391   12.491500
  H    -39.758100    2.239570   13.074200
  C    -37.144000    2.908320   14.126700
  H    -36.620800    3.640810   13.414900
  H    -36.403800    2.487600   14.752900
  C    -38.195200    3.517650   15.139600
  H    -38.745700    2.731220   15.563500
  H    -38.994900    4.004570   14.515100
  C    -37.498600    4.451120   16.106600
  H    -38.225900    4.900160   16.810500
  H    -37.204600    5.382660   15.539100
  H    -36.557700    4.044360   16.468300
  H    -31.865900    0.392061   11.825600
  H    -40.112600    0.778951   11.428900

 Total Charge           Charge          ....    0
 Multiplicity           Mult            ....    1
 Number of Electrons    NEL             ....  134
 Basis Dimension        Dim             ....  322

ORBITAL ENERGIES
----------------

  NO   OCC          E(Eh)            E(eV)
   0   2.0000     -88.966883     -2420.9120
   1   2.0000     -88.965384     -2420.8712
   2   2.0000     -10.326848      -281.0078
   3   2.0000     -10.323692      -280.9219
   4   2.0000     -10.318029      -280.7679
   5   2.0000     -10.308183      -280.4999
   6   2.0000     -10.306707      -280.4597
   7   2.0000     -10.302409      -280.3428
   8   2.0000     -10.302291      -280.3396
   9   2.0000     -10.297334      -280.2047
  10   2.0000     -10.294911      -280.1388
  11   2.0000     -10.292752      -280.0800
  12   2.0000     -10.292540      -280.0742
  13   2.0000     -10.287552      -279.9385
  14   2.0000     -10.281897      -279.7846
  15   2.0000     -10.273872      -279.5663
  16   2.0000      -8.081274      -219.9026
  17   2.0000      -8.080019      -219.8685
  18   2.0000      -6.039844      -164.3525
  19   2.0000      -6.038613      -164.3190
  20   2.0000      -6.035860      -164.2441
  21   2.0000      -6.034556      -164.2086
  22   2.0000      -6.031948      -164.1377
  23   2.0000      -6.030679      -164.1031
  24   2.0000      -1.004508       -27.3341
  25   2.0000      -0.978739       -26.6328
  26   2.0000      -0.909446       -24.7473
  27   2.0000      -0.905830       -24.6489
  28   2.0000      -0.872803       -23.7502
  29   2.0000      -0.850859       -23.1530
  30   2.0000      -0.847229       -23.0543
  31   2.0000      -0.816616       -22.2213
  32   2.0000      -0.785246       -21.3676
  33   2.0000      -0.765969       -20.8431
  34   2.0000      -0.712418       -19.3859
  35   2.0000      -0.700914       -19.0729
  36   2.0000      -0.698801       -19.0153
  37   2.0000      -0.653405       -17.7801
  38   2.0000      -0.635363       -17.2891
  39   2.0000      -0.620793       -16.8926
  40   2.0000      -0.591985       -16.1087
  41   2.0000      -0.569727       -15.5031
  42   2.0000      -0.563437       -15.3319
  43   2.0000      -0.552121       -15.0240
  44   2.0000      -0.544836       -14.8258
  45   2.0000      -0.526455       -14.3256
  46   2.0000      -0.517597       -14.0845
  47   2.0000      -0.511453       -13.9173
  48   2.0000      -0.506592       -13.7851
  49   2.0000      -0.497298       -13.5322
  50   2.0000      -0.485401       -13.2084
  51   2.0000      -0.483261       -13.1502
  52   2.0000      -0.475563       -12.9407
  53   2.0000      -0.458572       -12.4784
  54   2.0000      -0.455918       -12.4062
  55   2.0000      -0.452945       -12.3253
  56   2.0000      -0.444245       -12.0885
  57   2.0000      -0.438172       -11.9233
  58   2.0000      -0.428784       -11.6678
  59   2.0000      -0.422898       -11.5076
  60   2.0000      -0.420374       -11.4389
  61   2.0000      -0.418527       -11.3887
  62   2.0000      -0.414685       -11.2842
  63   2.0000      -0.342931        -9.3316
  64   2.0000      -0.332079        -9.0363
  65   2.0000      -0.326932        -8.8963
  66   2.0000      -0.287942        -7.8353
  67   0.0000       0.033087         0.9003
  68   0.0000       0.064626         1.7586
  69   0.0000       0.105957         2.8832
  70   0.0000       0.123276         3.3545
  71   0.0000       0.127915         3.4808

MULLIKEN ATOMIC CHARGES
-----------------------
   0 S :    0.114943
   1 C :   -0.139788
   2 C :   -0.122643
   3 C :    0.049429
   4 C :   -0.150359
   5 H :   -0.004736
   6 C :    0.089981
   7 H :    0.026305
   8 H :    0.022208
   9 C :   -0.102814
  10 H :    0.048168
  11 H :    0.039556
  12 C :   -0.031023
  13 H :    0.024181
  14 H :    0.039846
  15 H :    0.021066
  16 S :    0.111486
  17 C :   -0.037212
  18 C :   -0.058524
  19 C :   -0.018829
  20 C :   -0.175050
  21 H :   -0.008788
  22 C :    0.043343
  23 H :    0.063460
  24 H :    0.007709
  25 C :   -0.076330
  26 H :    0.020851
  27 H :    0.033410
  28 C :   -0.026074
  29 H :    0.043667
  30 H :    0.028874
  31 H :    0.039152
  32 H :    0.055501
  33 H :    0.029036
Sum of atomic charges:    0.0000000

LOEWDIN ATOMIC CHARGES
----------------------
   0 S :    0.398332
   1 C :   -0.192983
   2 C :   -0.063241
   3 C :   -0.054900
   4 C :   -0.204836
   5 H :    0.023513
   6 C :   -0.034014
   7 H :    0.032288
   8 H :    0.030311
   9 C :   -0.044197
  10 H :    0.030970
  11 H :    0.032067
  12 C :   -0.066485
  13 H :    0.024922
  14 H :    0.026019
  15 H :    0.020497
  16 S :    0.406865
  17 C :   -0.182415
  18 C :   -0.071353
  19 C :   -0.045017
  20 C :   -0.208463
  21 H :    0.021257
  22 C :   -0.037207
  23 H :    0.049639
  24 H :    0.020539
  25 C :   -0.041181
  26 H :    0.016415
  27 H :    0.026856
  28 C :   -0.068725
  29 H :    0.033838
  30 H :    0.034769
  31 H :    0.027096
  32 H :    0.031651
  33 H :    0.027174

  Mayer bond orders larger than 0.100000
B(  0-S ,  1-C ) :   1.1314 B(  0-S ,  4-C ) :   1.1495 B(  1-C ,  2-C ) :   1.6174
B(  1-C , 32-H ) :   0.9661 B(  2-C ,  3-C ) :   1.2370 B(  2-C ,  6-C ) :   1.0106
B(  3-C ,  4-C ) :   1.5629 B(  3-C ,  5-H ) :   1.0016 B(  4-C , 20-C ) :   1.0500
B(  6-C ,  7-H ) :   0.9425 B(  6-C ,  8-H ) :   0.9436 B(  6-C ,  9-C ) :   1.0388
B(  9-C , 10-H ) :   0.9610 B(  9-C , 11-H ) :   0.9569 B(  9-C , 12-C ) :   1.0871
B( 12-C , 13-H ) :   0.9678 B( 12-C , 14-H ) :   0.9736 B( 12-C , 15-H ) :   0.9649
B( 16-S , 17-C ) :   1.1355 B( 16-S , 20-C ) :   1.1332 B( 17-C , 18-C ) :   1.6638
B( 17-C , 33-H ) :   0.9564 B( 18-C , 19-C ) :   1.2128 B( 18-C , 21-H ) :   0.9961
B( 19-C , 20-C ) :   1.5908 B( 19-C , 22-C ) :   1.0292 B( 22-C , 23-H ) :   0.9305
B( 22-C , 24-H ) :   0.9301 B( 22-C , 25-C ) :   1.0634 B( 25-C , 26-H ) :   0.9579
B( 25-C , 27-H ) :   0.9461 B( 25-C , 28-C ) :   1.0819 B( 28-C , 29-H ) :   0.9697
B( 28-C , 30-H ) :   0.9703 B( 28-C , 31-H ) :   0.9740

Dispersion correction           -0.014343932
FINAL SINGLE POINT ENERGY     -1339.857280415273

DIPOLE MOMENT
-------------
                                X             Y             Z
Electronic contribution:     -5.49919     -12.95492     -27.41931
Nuclear contribution   :      5.53773      13.36539      28.09863
                        -----------------------------------------
Total Dipole Moment    :      0.03854       0.41047       0.67933
                        -----------------------------------------
Magnitude (a.u.)       :      0.79464
Magnitude (Debye)      :      2.01981

Rotational constants in cm-1:     0.015643     0.010098     0.006719
Rotational constants in MHz :   468.972359   302.739008   201.417823

                             ****ORCA TERMINATED NORMALLY****
TOTAL RUN TIME: 0 days 0 hours 0 minutes 21 seconds 686 msec
