                         Program Version 4.2.1 -  RELEASE  -
|  1> ! wB97X-D3 SP def2-SVP
|  2> %pal
|  3> nprocs 24
|  4> end
|  5>
|  6> * xyz 0 1
|  7> S 	 -80.04 	 -2.9561 	 -57.7426
|  8> C 	 -80.2997 	 -1.53878 	 -58.6638
|  9> C 	 -80.6663 	 -1.8352 	 -59.9413
| 10> C 	 -80.5172 	 -3.18045 	 -60.2664
| 11> C 	 -80.1072 	 -3.89531 	 -59.161
| 12> H 	 -80.6414 	 -3.76869 	 -61.1332
| 13> C 	 -81.122 	 -0.812837 	 -60.9739
| 14> H 	 -80.7965 	 0.119058 	 -60.5729
| 15> H 	 -82.1018 	 -0.967705 	 -61.2258
| 16> C 	 -80.4013 	 -0.942142 	 -62.3774
| 17> H 	 -79.3141 	 -0.844845 	 -62.2043
| 18> H 	 -80.5219 	 -1.96287 	 -62.6829
| 19> C 	 -80.8484 	 0.0412851 	 -63.4118
| 20> H 	 -80.5053 	 1.03304 	 -63.0532
| 21> H 	 -80.3377 	 -0.252097 	 -64.3339
| 22> H 	 -81.9797 	 0.00993237 	 -63.6218
| 23> S 	 -78.2689 	 -5.58566 	 -58.1637
| 24> C 	 -78.0952 	 -7.27513 	 -58.6806
| 25> C 	 -79.1832 	 -7.57778 	 -59.3936
| 26> C 	 -80.0503 	 -6.50091 	 -59.7526
| 27> C 	 -79.6354 	 -5.33627 	 -59.1802
| 28> H 	 -79.4471 	 -8.56229 	 -59.7193
| 29> C 	 -81.2976 	 -6.74976 	 -60.573
| 30> H 	 -81.3675 	 -7.7762 	 -61.0829
| 31> H 	 -81.2261 	 -6.05981 	 -61.3674
| 32> C 	 -82.7087 	 -6.57063 	 -59.9283
| 33> H 	 -82.7595 	 -6.96258 	 -58.8886
| 34> H 	 -83.4357 	 -7.09024 	 -60.6171
| 35> C 	 -83.2378 	 -5.13174 	 -59.8407
| 36> H 	 -82.7301 	 -4.60885 	 -58.9263
| 37> H 	 -84.2909 	 -5.05559 	 -59.7826
| 38> H 	 -83.0077 	 -4.65014 	 -60.8091
| 39> H 	 -80.3711 	 -0.56473 	 -58.1211
| 40> H 	 -77.5003 	 -8.06576 	 -58.2343
| 41> *
| 42>
| 43>                          ****END OF INPUT****

CARTESIAN COORDINATES (ANGSTROEM)
---------------------------------
  S    -80.040000   -2.956100  -57.742600
  C    -80.299700   -1.538780  -58.663800
  C    -80.666300   -1.835200  -59.941300
  C    -80.517200   -3.180450  -60.266400
  C    -80.107200   -3.895310  -59.161000
  H    -80.641400   -3.768690  -61.133200
  C    -81.122000   -0.812837  -60.973900
  H    -80.796500    0.119058  -60.572900
  H    -82.101800   -0.967705  -61.225800
  C    -80.401300   -0.942142  -62.377400
  H    -79.314100   -0.844845  -62.204300
  H    -80.521900   -1.962870  -62.682900
  C    -80.848400    0.041285  -63.411800
  H    -80.505300    1.033040  -63.053200
  H    -80.337700   -0.252097  -64.333900
  H    -81.979700    0.009932  -63.621800
  S    -78.268900   -5.585660  -58.163700
  C    -78.095200   -7.275130  -58.680600
  C    -79.183200   -7.577780  -59.393600
  C    -80.050300   -6.500910  -59.752600
  C    -79.635400   -5.336270  -59.180200
  H    -79.447100   -8.562290  -59.719300
  C    -81.297600   -6.749760  -60.573000
  H    -81.367500   -7.776200  -61.082900
  H    -81.226100   -6.059810  -61.367400
  C    -82.708700   -6.570630  -59.928300
  H    -82.759500   -6.962580  -58.888600
  H    -83.435700   -7.090240  -60.617100
  C    -83.237800   -5.131740  -59.840700
  H    -82.730100   -4.608850  -58.926300
  H    -84.290900   -5.055590  -59.782600
  H    -83.007700   -4.650140  -60.809100
  H    -80.371100   -0.564730  -58.121100
  H    -77.500300   -8.065760  -58.234300

 Total Charge           Charge          ....    0
 Multiplicity           Mult            ....    1
 Number of Electrons    NEL             ....  134
 Basis Dimension        Dim             ....  322

ORBITAL ENERGIES
----------------

  NO   OCC          E(Eh)            E(eV)
   0   2.0000     -88.968114     -2420.9455
   1   2.0000     -88.960886     -2420.7488
   2   2.0000     -10.327563      -281.0273
   3   2.0000     -10.327086      -281.0143
   4   2.0000     -10.310774      -280.5704
   5   2.0000     -10.310772      -280.5704
   6   2.0000     -10.298762      -280.2436
   7   2.0000     -10.297722      -280.2152
   8   2.0000     -10.297261      -280.2027
   9   2.0000     -10.291872      -280.0561
  10   2.0000     -10.286308      -279.9047
  11   2.0000     -10.286222      -279.9023
  12   2.0000     -10.285798      -279.8908
  13   2.0000     -10.282436      -279.7993
  14   2.0000     -10.282065      -279.7892
  15   2.0000     -10.276891      -279.6484
  16   2.0000      -8.084361      -219.9867
  17   2.0000      -8.075992      -219.7589
  18   2.0000      -6.042594      -164.4274
  19   2.0000      -6.038724      -164.3220
  20   2.0000      -6.035253      -164.2276
  21   2.0000      -6.034677      -164.2119
  22   2.0000      -6.030423      -164.0962
  23   2.0000      -6.026523      -163.9900
  24   2.0000      -1.019022       -27.7290
  25   2.0000      -0.995508       -27.0892
  26   2.0000      -0.913071       -24.8459
  27   2.0000      -0.903988       -24.5988
  28   2.0000      -0.871616       -23.7179
  29   2.0000      -0.857146       -23.3241
  30   2.0000      -0.845490       -23.0069
  31   2.0000      -0.822417       -22.3791
  32   2.0000      -0.780493       -21.2383
  33   2.0000      -0.773315       -21.0430
  34   2.0000      -0.702713       -19.1218
  35   2.0000      -0.688890       -18.7457
  36   2.0000      -0.685754       -18.6603
  37   2.0000      -0.665584       -18.1115
  38   2.0000      -0.648967       -17.6593
  39   2.0000      -0.621099       -16.9010
  40   2.0000      -0.598575       -16.2880
  41   2.0000      -0.582295       -15.8451
  42   2.0000      -0.562424       -15.3043
  43   2.0000      -0.548390       -14.9225
  44   2.0000      -0.535890       -14.5823
  45   2.0000      -0.524017       -14.2592
  46   2.0000      -0.517064       -14.0700
  47   2.0000      -0.514292       -13.9946
  48   2.0000      -0.509182       -13.8555
  49   2.0000      -0.495804       -13.4915
  50   2.0000      -0.493317       -13.4238
  51   2.0000      -0.488826       -13.3016
  52   2.0000      -0.474101       -12.9009
  53   2.0000      -0.467759       -12.7284
  54   2.0000      -0.462475       -12.5846
  55   2.0000      -0.451188       -12.2775
  56   2.0000      -0.436578       -11.8799
  57   2.0000      -0.426772       -11.6131
  58   2.0000      -0.426615       -11.6088
  59   2.0000      -0.423987       -11.5373
  60   2.0000      -0.419746       -11.4219
  61   2.0000      -0.415034       -11.2937
  62   2.0000      -0.407130       -11.0786
  63   2.0000      -0.354535        -9.6474
  64   2.0000      -0.334808        -9.1106
  65   2.0000      -0.326788        -8.8924
  66   2.0000      -0.293369        -7.9830
  67   0.0000       0.030804         0.8382
  68   0.0000       0.078746         2.1428
  69   0.0000       0.110492         3.0066
  70   0.0000       0.122455         3.3322
  71   0.0000       0.133742         3.6393

MULLIKEN ATOMIC CHARGES
-----------------------
   0 S :    0.125591
   1 C :   -0.162477
   2 C :   -0.060735
   3 C :    0.041344
   4 C :   -0.157049
   5 H :   -0.011309
   6 C :    0.161241
   7 H :    0.006737
   8 H :    0.013010
   9 C :   -0.146339
  10 H :    0.032778
  11 H :    0.019835
  12 C :   -0.040274
  13 H :    0.039005
  14 H :    0.040348
  15 H :    0.043154
  16 S :    0.083272
  17 C :   -0.066142
  18 C :   -0.031355
  19 C :   -0.036795
  20 C :   -0.149421
  21 H :    0.001217
  22 C :    0.055910
  23 H :    0.036142
  24 H :    0.007791
  25 C :   -0.090692
  26 H :    0.043238
  27 H :    0.032839
  28 C :   -0.063184
  29 H :    0.067043
  30 H :    0.026095
  31 H :    0.012985
  32 H :    0.065147
  33 H :    0.061052
Sum of atomic charges:    0.0000000

LOEWDIN ATOMIC CHARGES
----------------------
   0 S :    0.439391
   1 C :   -0.218430
   2 C :   -0.060182
   3 C :   -0.059451
   4 C :   -0.200095
   5 H :    0.024606
   6 C :   -0.012758
   7 H :    0.024622
   8 H :    0.019357
   9 C :   -0.046000
  10 H :    0.026684
  11 H :    0.012441
  12 C :   -0.069089
  13 H :    0.029399
  14 H :    0.030928
  15 H :    0.032764
  16 S :    0.402018
  17 C :   -0.187874
  18 C :   -0.062571
  19 C :   -0.073915
  20 C :   -0.191149
  21 H :    0.024966
  22 C :   -0.036383
  23 H :    0.042551
  24 H :    0.021019
  25 C :   -0.044111
  26 H :    0.028361
  27 H :    0.028447
  28 C :   -0.074406
  29 H :    0.039763
  30 H :    0.017123
  31 H :    0.019119
  32 H :    0.036153
  33 H :    0.036702

  Mayer bond orders larger than 0.100000
B(  0-S ,  1-C ) :   1.1430 B(  0-S ,  4-C ) :   1.1847 B(  1-C ,  2-C ) :   1.5965
B(  1-C , 32-H ) :   0.9650 B(  2-C ,  3-C ) :   1.2326 B(  2-C ,  6-C ) :   1.0285
B(  3-C ,  4-C ) :   1.5660 B(  3-C ,  5-H ) :   1.0047 B(  4-C , 20-C ) :   0.9883
B(  6-C ,  7-H ) :   0.9412 B(  6-C ,  8-H ) :   0.9295 B(  6-C ,  9-C ) :   1.0631
B(  9-C , 10-H ) :   0.9558 B(  9-C , 11-H ) :   0.9539 B(  9-C , 12-C ) :   1.0909
B( 12-C , 13-H ) :   0.9730 B( 12-C , 14-H ) :   0.9702 B( 12-C , 15-H ) :   0.9711
B( 16-S , 17-C ) :   1.1173 B( 16-S , 20-C ) :   1.1544 B( 17-C , 18-C ) :   1.6319
B( 17-C , 33-H ) :   0.9634 B( 18-C , 19-C ) :   1.2561 B( 18-C , 21-H ) :   0.9845
B( 19-C , 20-C ) :   1.6095 B( 19-C , 22-C ) :   1.0302 B( 22-C , 23-H ) :   0.9402
B( 22-C , 24-H ) :   0.9296 B( 22-C , 25-C ) :   1.0635 B( 25-C , 26-H ) :   0.9587
B( 25-C , 27-H ) :   0.9555 B( 25-C , 28-C ) :   1.0834 B( 28-C , 29-H ) :   0.9706
B( 28-C , 30-H ) :   0.9717 B( 28-C , 31-H ) :   0.9685

Dispersion correction           -0.015174729
FINAL SINGLE POINT ENERGY     -1339.857952222265

DIPOLE MOMENT
-------------
                                X             Y             Z
Electronic contribution:     16.08967      -7.49118      21.02467
Nuclear contribution   :    -16.53816       7.43304     -21.46245
                        -----------------------------------------
Total Dipole Moment    :     -0.44849      -0.05813      -0.43778
                        -----------------------------------------
Magnitude (a.u.)       :      0.62943
Magnitude (Debye)      :      1.59987

Rotational constants in cm-1:     0.019654     0.008754     0.007567
Rotational constants in MHz :   589.218588   262.440855   226.865888

                             ****ORCA TERMINATED NORMALLY****
TOTAL RUN TIME: 0 days 0 hours 0 minutes 21 seconds 412 msec
