                         Program Version 4.2.1 -  RELEASE  -
|  1> ! wB97X-D3 SP def2-SVP
|  2> %pal
|  3> nprocs 24
|  4> end
|  5>
|  6> * xyz 0 1
|  7> S 	 -142.924 	 28.0014 	 -12.4779
|  8> C 	 -142.574 	 27.1211 	 -13.919
|  9> C 	 -142.39 	 27.9801 	 -15.0028
| 10> C 	 -142.384 	 29.3246 	 -14.5891
| 11> C 	 -142.466 	 29.5115 	 -13.2224
| 12> H 	 -142.303 	 30.0778 	 -15.3331
| 13> C 	 -142.247 	 27.4558 	 -16.4739
| 14> H 	 -142.427 	 26.3919 	 -16.5485
| 15> H 	 -141.234 	 27.5514 	 -16.731
| 16> C 	 -142.991 	 28.3169 	 -17.4974
| 17> H 	 -143.995 	 28.5669 	 -17.2563
| 18> H 	 -142.56 	 29.2164 	 -17.6031
| 19> C 	 -142.942 	 27.6555 	 -18.8846
| 20> H 	 -141.967 	 27.2672 	 -19.1805
| 21> H 	 -143.501 	 26.6698 	 -18.9217
| 22> H 	 -143.33 	 28.2125 	 -19.7374
| 23> S 	 -142.968 	 30.6403 	 -10.8039
| 24> C 	 -142.521 	 32.3021 	 -10.5461
| 25> C 	 -141.862 	 32.8279 	 -11.6197
| 26> C 	 -141.749 	 31.9246 	 -12.6888
| 27> C 	 -142.307 	 30.6804 	 -12.4356
| 28> H 	 -141.475 	 33.7202 	 -11.6553
| 29> C 	 -141.178 	 32.4271 	 -14.0111
| 30> H 	 -140.937 	 31.5399 	 -14.5357
| 31> H 	 -140.248 	 33.0305 	 -13.8859
| 32> C 	 -142.141 	 33.3538 	 -14.7646
| 33> H 	 -141.744 	 33.8814 	 -15.6505
| 34> H 	 -142.327 	 34.2976 	 -14.2238
| 35> C 	 -143.506 	 32.74 	 -15.1471
| 36> H 	 -143.874 	 31.9222 	 -14.4526
| 37> H 	 -143.394 	 32.3002 	 -16.1146
| 38> H 	 -144.383 	 33.4204 	 -15.245
| 39> H 	 -142.718 	 26.0137 	 -14.0433
| 40> H 	 -142.538 	 33.0219 	 -9.72884
| 41> *
| 42>
| 43>                          ****END OF INPUT****

CARTESIAN COORDINATES (ANGSTROEM)
---------------------------------
  S    -142.924000   28.001400  -12.477900
  C    -142.574000   27.121100  -13.919000
  C    -142.390000   27.980100  -15.002800
  C    -142.384000   29.324600  -14.589100
  C    -142.466000   29.511500  -13.222400
  H    -142.303000   30.077800  -15.333100
  C    -142.247000   27.455800  -16.473900
  H    -142.427000   26.391900  -16.548500
  H    -141.234000   27.551400  -16.731000
  C    -142.991000   28.316900  -17.497400
  H    -143.995000   28.566900  -17.256300
  H    -142.560000   29.216400  -17.603100
  C    -142.942000   27.655500  -18.884600
  H    -141.967000   27.267200  -19.180500
  H    -143.501000   26.669800  -18.921700
  H    -143.330000   28.212500  -19.737400
  S    -142.968000   30.640300  -10.803900
  C    -142.521000   32.302100  -10.546100
  C    -141.862000   32.827900  -11.619700
  C    -141.749000   31.924600  -12.688800
  C    -142.307000   30.680400  -12.435600
  H    -141.475000   33.720200  -11.655300
  C    -141.178000   32.427100  -14.011100
  H    -140.937000   31.539900  -14.535700
  H    -140.248000   33.030500  -13.885900
  C    -142.141000   33.353800  -14.764600
  H    -141.744000   33.881400  -15.650500
  H    -142.327000   34.297600  -14.223800
  C    -143.506000   32.740000  -15.147100
  H    -143.874000   31.922200  -14.452600
  H    -143.394000   32.300200  -16.114600
  H    -144.383000   33.420400  -15.245000
  H    -142.718000   26.013700  -14.043300
  H    -142.538000   33.021900   -9.728840

 Total Charge           Charge          ....    0
 Multiplicity           Mult            ....    1
 Number of Electrons    NEL             ....  134
 Basis Dimension        Dim             ....  322

ORBITAL ENERGIES
----------------

  NO   OCC          E(Eh)            E(eV)
   0   2.0000     -88.970145     -2421.0007
   1   2.0000     -88.966541     -2420.9027
   2   2.0000     -10.330276      -281.1011
   3   2.0000     -10.327459      -281.0245
   4   2.0000     -10.314951      -280.6841
   5   2.0000     -10.314098      -280.6609
   6   2.0000     -10.301261      -280.3116
   7   2.0000     -10.298862      -280.2463
   8   2.0000     -10.294593      -280.1301
   9   2.0000     -10.293810      -280.1088
  10   2.0000     -10.291284      -280.0401
  11   2.0000     -10.290990      -280.0321
  12   2.0000     -10.282522      -279.8016
  13   2.0000     -10.279542      -279.7206
  14   2.0000     -10.278052      -279.6800
  15   2.0000     -10.275774      -279.6180
  16   2.0000      -8.084621      -219.9937
  17   2.0000      -8.081880      -219.9191
  18   2.0000      -6.043351      -164.4480
  19   2.0000      -6.040401      -164.3677
  20   2.0000      -6.039238      -164.3360
  21   2.0000      -6.036436      -164.2598
  22   2.0000      -6.035086      -164.2230
  23   2.0000      -6.032483      -164.1522
  24   2.0000      -1.014893       -27.6166
  25   2.0000      -0.989211       -26.9178
  26   2.0000      -0.915620       -24.9153
  27   2.0000      -0.908599       -24.7242
  28   2.0000      -0.878208       -23.8973
  29   2.0000      -0.852333       -23.1932
  30   2.0000      -0.845237       -23.0001
  31   2.0000      -0.817140       -22.2355
  32   2.0000      -0.785007       -21.3611
  33   2.0000      -0.773208       -21.0401
  34   2.0000      -0.723381       -19.6842
  35   2.0000      -0.704596       -19.1730
  36   2.0000      -0.698528       -19.0079
  37   2.0000      -0.672687       -18.3048
  38   2.0000      -0.638595       -17.3770
  39   2.0000      -0.632351       -17.2071
  40   2.0000      -0.588870       -16.0240
  41   2.0000      -0.573632       -15.6093
  42   2.0000      -0.565610       -15.3910
  43   2.0000      -0.551806       -15.0154
  44   2.0000      -0.545424       -14.8417
  45   2.0000      -0.525404       -14.2970
  46   2.0000      -0.514251       -13.9935
  47   2.0000      -0.512347       -13.9417
  48   2.0000      -0.508901       -13.8479
  49   2.0000      -0.502048       -13.6614
  50   2.0000      -0.489573       -13.3220
  51   2.0000      -0.479371       -13.0443
  52   2.0000      -0.471642       -12.8340
  53   2.0000      -0.464521       -12.6403
  54   2.0000      -0.461452       -12.5567
  55   2.0000      -0.451853       -12.2955
  56   2.0000      -0.448243       -12.1973
  57   2.0000      -0.445252       -12.1159
  58   2.0000      -0.437650       -11.9091
  59   2.0000      -0.428046       -11.6477
  60   2.0000      -0.421403       -11.4670
  61   2.0000      -0.415307       -11.3011
  62   2.0000      -0.402290       -10.9469
  63   2.0000      -0.364593        -9.9211
  64   2.0000      -0.339655        -9.2425
  65   2.0000      -0.328858        -8.9487
  66   2.0000      -0.277222        -7.5436
  67   0.0000       0.015479         0.4212
  68   0.0000       0.082515         2.2453
  69   0.0000       0.098375         2.6769
  70   0.0000       0.123579         3.3628
  71   0.0000       0.133212         3.6249

MULLIKEN ATOMIC CHARGES
-----------------------
   0 S :    0.103446
   1 C :   -0.141991
   2 C :   -0.091908
   3 C :   -0.005839
   4 C :   -0.091104
   5 H :   -0.021928
   6 C :    0.099190
   7 H :    0.016271
   8 H :    0.022306
   9 C :   -0.016624
  10 H :    0.027310
  11 H :    0.005409
  12 C :   -0.079265
  13 H :    0.016799
  14 H :    0.025501
  15 H :    0.037970
  16 S :    0.106437
  17 C :   -0.039056
  18 C :    0.019009
  19 C :   -0.084218
  20 C :   -0.114428
  21 H :   -0.062484
  22 C :    0.097170
  23 H :    0.017281
  24 H :    0.033105
  25 C :   -0.072736
  26 H :    0.025006
  27 H :    0.018944
  28 C :   -0.086556
  29 H :    0.058546
  30 H :    0.026067
  31 H :    0.037638
  32 H :    0.065283
  33 H :    0.049447
Sum of atomic charges:    0.0000000

LOEWDIN ATOMIC CHARGES
----------------------
   0 S :    0.413968
   1 C :   -0.216271
   2 C :   -0.059258
   3 C :   -0.069837
   4 C :   -0.185555
   5 H :    0.020550
   6 C :   -0.015839
   7 H :    0.028071
   8 H :    0.028430
   9 C :   -0.029569
  10 H :    0.024046
  11 H :    0.009478
  12 C :   -0.071809
  13 H :    0.021605
  14 H :    0.029071
  15 H :    0.025823
  16 S :    0.405809
  17 C :   -0.186261
  18 C :   -0.049516
  19 C :   -0.051650
  20 C :   -0.192492
  21 H :    0.001531
  22 C :   -0.025830
  23 H :    0.021764
  24 H :    0.039137
  25 C :   -0.050846
  26 H :    0.027790
  27 H :    0.024042
  28 C :   -0.079359
  29 H :    0.036977
  30 H :    0.017056
  31 H :    0.031023
  32 H :    0.038228
  33 H :    0.039689

  Mayer bond orders larger than 0.100000
B(  0-S ,  1-C ) :   1.1464 B(  0-S ,  4-C ) :   1.1493 B(  1-C ,  2-C ) :   1.5950
B(  1-C ,  4-C ) :   0.1039 B(  1-C , 32-H ) :   0.9601 B(  2-C ,  3-C ) :   1.2951
B(  2-C ,  6-C ) :   1.0069 B(  3-C ,  4-C ) :   1.5048 B(  3-C ,  5-H ) :   0.9952
B(  4-C , 20-C ) :   1.1231 B(  6-C ,  7-H ) :   0.9540 B(  6-C ,  8-H ) :   0.9288
B(  6-C ,  9-C ) :   1.0611 B(  9-C , 10-H ) :   0.9621 B(  9-C , 11-H ) :   0.9410
B(  9-C , 12-C ) :   1.0843 B( 12-C , 13-H ) :   0.9720 B( 12-C , 14-H ) :   0.9747
B( 12-C , 15-H ) :   0.9755 B( 16-S , 17-C ) :   1.1372 B( 16-S , 20-C ) :   1.1147
B( 17-C , 18-C ) :   1.6124 B( 17-C , 33-H ) :   0.9591 B( 18-C , 19-C ) :   1.2557
B( 18-C , 21-H ) :   1.0074 B( 19-C , 20-C ) :   1.5806 B( 19-C , 22-C ) :   1.0480
B( 22-C , 23-H ) :   0.9332 B( 22-C , 24-H ) :   0.9298 B( 22-C , 25-C ) :   1.0651
B( 25-C , 26-H ) :   0.9559 B( 25-C , 27-H ) :   0.9560 B( 25-C , 28-C ) :   1.0599
B( 28-C , 29-H ) :   0.9760 B( 28-C , 30-H ) :   0.9730 B( 28-C , 31-H ) :   0.9737

Dispersion correction           -0.015004871
FINAL SINGLE POINT ENERGY     -1339.850829736016

DIPOLE MOMENT
-------------
                                X             Y             Z
Electronic contribution:     -0.40952      -5.86438      30.86296
Nuclear contribution   :      0.58075       6.22445     -31.53556
                        -----------------------------------------
Total Dipole Moment    :      0.17122       0.36006      -0.67260
                        -----------------------------------------
Magnitude (a.u.)       :      0.78189
Magnitude (Debye)      :      1.98741

Rotational constants in cm-1:     0.020476     0.009213     0.006748
Rotational constants in MHz :   613.856734   276.211485   202.307756

                             ****ORCA TERMINATED NORMALLY****
TOTAL RUN TIME: 0 days 0 hours 0 minutes 21 seconds 505 msec
