                         Program Version 4.2.1 -  RELEASE  -
|  1> ! wB97X-D3 SP def2-SVP
|  2> %pal
|  3> nprocs 24
|  4> end
|  5>
|  6> * xyz 0 1
|  7> S 	 -99.1837 	 5.48603 	 -120.717
|  8> C 	 -99.9845 	 4.69926 	 -122.067
|  9> C 	 -101.148 	 4.09461 	 -121.72
| 10> C 	 -101.467 	 4.3659 	 -120.304
| 11> C 	 -100.449 	 4.98906 	 -119.64
| 12> H 	 -102.305 	 4.03872 	 -119.859
| 13> C 	 -102.081 	 3.26423 	 -122.645
| 14> H 	 -101.952 	 3.74741 	 -123.614
| 15> H 	 -103.13 	 3.44967 	 -122.356
| 16> C 	 -101.98 	 1.70617 	 -122.892
| 17> H 	 -102.167 	 1.2338 	 -121.934
| 18> H 	 -102.818 	 1.29697 	 -123.433
| 19> C 	 -100.68 	 1.15614 	 -123.45
| 20> H 	 -100.393 	 1.56112 	 -124.399
| 21> H 	 -99.9575 	 1.60364 	 -122.717
| 22> H 	 -100.66 	 0.095809 	 -123.56
| 23> S 	 -102.11 	 5.60794 	 -117.529
| 24> C 	 -101.463 	 6.15072 	 -116.023
| 25> C 	 -100.129 	 6.18566 	 -116.084
| 26> C 	 -99.544 	 5.83294 	 -117.344
| 27> C 	 -100.497 	 5.35665 	 -118.209
| 28> H 	 -99.5782 	 6.41588 	 -115.201
| 29> C 	 -98.0602 	 5.98555 	 -117.619
| 30> H 	 -97.8224 	 6.69134 	 -116.869
| 31> H 	 -97.7893 	 6.39884 	 -118.613
| 32> C 	 -97.0954 	 4.77565 	 -117.527
| 33> H 	 -97.3998 	 4.06042 	 -118.235
| 34> H 	 -97.2212 	 4.29763 	 -116.61
| 35> C 	 -95.587 	 5.16025 	 -117.898
| 36> H 	 -94.8841 	 4.32618 	 -117.727
| 37> H 	 -95.4342 	 5.93445 	 -117.262
| 38> H 	 -95.4936 	 5.475 	 -118.933
| 39> H 	 -99.6523 	 4.89044 	 -123.127
| 40> H 	 -101.978 	 6.55833 	 -115.206
| 41> *
| 42>
| 43>                          ****END OF INPUT****

CARTESIAN COORDINATES (ANGSTROEM)
---------------------------------
  S    -99.183700    5.486030  -120.717000
  C    -99.984500    4.699260  -122.067000
  C    -101.148000    4.094610  -121.720000
  C    -101.467000    4.365900  -120.304000
  C    -100.449000    4.989060  -119.640000
  H    -102.305000    4.038720  -119.859000
  C    -102.081000    3.264230  -122.645000
  H    -101.952000    3.747410  -123.614000
  H    -103.130000    3.449670  -122.356000
  C    -101.980000    1.706170  -122.892000
  H    -102.167000    1.233800  -121.934000
  H    -102.818000    1.296970  -123.433000
  C    -100.680000    1.156140  -123.450000
  H    -100.393000    1.561120  -124.399000
  H    -99.957500    1.603640  -122.717000
  H    -100.660000    0.095809  -123.560000
  S    -102.110000    5.607940  -117.529000
  C    -101.463000    6.150720  -116.023000
  C    -100.129000    6.185660  -116.084000
  C    -99.544000    5.832940  -117.344000
  C    -100.497000    5.356650  -118.209000
  H    -99.578200    6.415880  -115.201000
  C    -98.060200    5.985550  -117.619000
  H    -97.822400    6.691340  -116.869000
  H    -97.789300    6.398840  -118.613000
  C    -97.095400    4.775650  -117.527000
  H    -97.399800    4.060420  -118.235000
  H    -97.221200    4.297630  -116.610000
  C    -95.587000    5.160250  -117.898000
  H    -94.884100    4.326180  -117.727000
  H    -95.434200    5.934450  -117.262000
  H    -95.493600    5.475000  -118.933000
  H    -99.652300    4.890440  -123.127000
  H    -101.978000    6.558330  -115.206000

 Total Charge           Charge          ....    0
 Multiplicity           Mult            ....    1
 Number of Electrons    NEL             ....  134
 Basis Dimension        Dim             ....  322

ORBITAL ENERGIES
----------------

  NO   OCC          E(Eh)            E(eV)
   0   2.0000     -88.968865     -2420.9659
   1   2.0000     -88.963531     -2420.8208
   2   2.0000     -10.331934      -281.1462
   3   2.0000     -10.328705      -281.0583
   4   2.0000     -10.318221      -280.7731
   5   2.0000     -10.309365      -280.5321
   6   2.0000     -10.308767      -280.5158
   7   2.0000     -10.302922      -280.3568
   8   2.0000     -10.301150      -280.3086
   9   2.0000     -10.290418      -280.0165
  10   2.0000     -10.287783      -279.9448
  11   2.0000     -10.287422      -279.9350
  12   2.0000     -10.286925      -279.9215
  13   2.0000     -10.277328      -279.6603
  14   2.0000     -10.274609      -279.5863
  15   2.0000     -10.273010      -279.5428
  16   2.0000      -8.083440      -219.9616
  17   2.0000      -8.078533      -219.8280
  18   2.0000      -6.042138      -164.4149
  19   2.0000      -6.038076      -164.3044
  20   2.0000      -6.037165      -164.2796
  21   2.0000      -6.033919      -164.1913
  22   2.0000      -6.033054      -164.1678
  23   2.0000      -6.029102      -164.0602
  24   2.0000      -1.011451       -27.5230
  25   2.0000      -0.989117       -26.9152
  26   2.0000      -0.907268       -24.6880
  27   2.0000      -0.903194       -24.5772
  28   2.0000      -0.874145       -23.7867
  29   2.0000      -0.854073       -23.2405
  30   2.0000      -0.846245       -23.0275
  31   2.0000      -0.817909       -22.2564
  32   2.0000      -0.785001       -21.3610
  33   2.0000      -0.776792       -21.1376
  34   2.0000      -0.714099       -19.4316
  35   2.0000      -0.703555       -19.1447
  36   2.0000      -0.693279       -18.8651
  37   2.0000      -0.669657       -18.2223
  38   2.0000      -0.644469       -17.5369
  39   2.0000      -0.615093       -16.7375
  40   2.0000      -0.600643       -16.3443
  41   2.0000      -0.567849       -15.4520
  42   2.0000      -0.565647       -15.3920
  43   2.0000      -0.554899       -15.0996
  44   2.0000      -0.540303       -14.7024
  45   2.0000      -0.526530       -14.3276
  46   2.0000      -0.518392       -14.1062
  47   2.0000      -0.512607       -13.9488
  48   2.0000      -0.506935       -13.7944
  49   2.0000      -0.495327       -13.4785
  50   2.0000      -0.490437       -13.3455
  51   2.0000      -0.481984       -13.1154
  52   2.0000      -0.479232       -13.0406
  53   2.0000      -0.471485       -12.8298
  54   2.0000      -0.455541       -12.3959
  55   2.0000      -0.447952       -12.1894
  56   2.0000      -0.446762       -12.1570
  57   2.0000      -0.441365       -12.0102
  58   2.0000      -0.432661       -11.7733
  59   2.0000      -0.430138       -11.7047
  60   2.0000      -0.422069       -11.4851
  61   2.0000      -0.408752       -11.1227
  62   2.0000      -0.405963       -11.0468
  63   2.0000      -0.364673        -9.9232
  64   2.0000      -0.332738        -9.0543
  65   2.0000      -0.328646        -8.9429
  66   2.0000      -0.290269        -7.8986
  67   0.0000       0.025562         0.6956
  68   0.0000       0.083816         2.2808
  69   0.0000       0.109759         2.9867
  70   0.0000       0.113383         3.0853
  71   0.0000       0.126962         3.4548

MULLIKEN ATOMIC CHARGES
-----------------------
   0 S :    0.087711
   1 C :   -0.143243
   2 C :   -0.074267
   3 C :    0.021498
   4 C :   -0.082330
   5 H :   -0.033743
   6 C :    0.052416
   7 H :    0.021783
   8 H :    0.031393
   9 C :   -0.050754
  10 H :    0.017487
  11 H :    0.019666
  12 C :   -0.042430
  13 H :    0.015678
  14 H :    0.042808
  15 H :    0.036680
  16 S :    0.077204
  17 C :   -0.045269
  18 C :   -0.032381
  19 C :   -0.071071
  20 C :   -0.097699
  21 H :    0.006486
  22 C :    0.029546
  23 H :    0.007549
  24 H :    0.034904
  25 C :   -0.024859
  26 H :    0.014392
  27 H :    0.009613
  28 C :   -0.031950
  29 H :    0.044673
  30 H :    0.012532
  31 H :    0.037279
  32 H :    0.070974
  33 H :    0.037724
Sum of atomic charges:   -0.0000000

LOEWDIN ATOMIC CHARGES
----------------------
   0 S :    0.410290
   1 C :   -0.202243
   2 C :   -0.058982
   3 C :   -0.056440
   4 C :   -0.182484
   5 H :    0.004412
   6 C :   -0.031963
   7 H :    0.028831
   8 H :    0.035796
   9 C :   -0.042583
  10 H :    0.022724
  11 H :    0.021498
  12 C :   -0.066700
  13 H :    0.017172
  14 H :    0.036816
  15 H :    0.024593
  16 S :    0.404093
  17 C :   -0.180159
  18 C :   -0.069486
  19 C :   -0.062474
  20 C :   -0.176495
  21 H :    0.027328
  22 C :   -0.038051
  23 H :    0.024219
  24 H :    0.025062
  25 C :   -0.025601
  26 H :    0.014319
  27 H :    0.012533
  28 C :   -0.051355
  29 H :    0.032770
  30 H :    0.008718
  31 H :    0.027206
  32 H :    0.040472
  33 H :    0.026165

  Mayer bond orders larger than 0.100000
B(  0-S ,  1-C ) :   1.1173 B(  0-S ,  4-C ) :   1.1324 B(  1-C ,  2-C ) :   1.6595
B(  1-C , 32-H ) :   0.9560 B(  2-C ,  3-C ) :   1.2067 B(  2-C ,  6-C ) :   1.0103
B(  3-C ,  4-C ) :   1.5781 B(  3-C ,  5-H ) :   1.0130 B(  4-C , 20-C ) :   1.0696
B(  6-C ,  7-H ) :   0.9442 B(  6-C ,  8-H ) :   0.9436 B(  6-C ,  9-C ) :   1.0637
B(  9-C , 10-H ) :   0.9532 B(  9-C , 11-H ) :   0.9522 B(  9-C , 12-C ) :   1.0778
B( 12-C , 13-H ) :   0.9761 B( 12-C , 14-H ) :   0.9757 B( 12-C , 15-H ) :   0.9731
B( 16-S , 17-C ) :   1.1361 B( 16-S , 20-C ) :   1.1307 B( 17-C , 18-C ) :   1.6468
B( 17-C , 33-H ) :   0.9694 B( 18-C , 19-C ) :   1.2291 B( 18-C , 21-H ) :   0.9895
B( 19-C , 20-C ) :   1.6047 B( 19-C , 22-C ) :   1.0384 B( 22-C , 23-H ) :   0.9211
B( 22-C , 24-H ) :   0.9374 B( 22-C , 25-C ) :   1.0631 B( 25-C , 26-H ) :   0.9548
B( 25-C , 27-H ) :   0.9553 B( 25-C , 28-C ) :   1.0656 B( 28-C , 29-H ) :   0.9758
B( 28-C , 30-H ) :   0.9821 B( 28-C , 31-H ) :   0.9757

Dispersion correction           -0.013837475
FINAL SINGLE POINT ENERGY     -1339.857528294081

DIPOLE MOMENT
-------------
                                X             Y             Z
Electronic contribution:    -11.07124      12.85561       8.82301
Nuclear contribution   :     11.10920     -12.92375      -8.83935
                        -----------------------------------------
Total Dipole Moment    :      0.03796      -0.06813      -0.01634
                        -----------------------------------------
Magnitude (a.u.)       :      0.07969
Magnitude (Debye)      :      0.20254

Rotational constants in cm-1:     0.018993     0.008275     0.006390
Rotational constants in MHz :   569.405766   248.086090   191.562515

                             ****ORCA TERMINATED NORMALLY****
TOTAL RUN TIME: 0 days 0 hours 0 minutes 21 seconds 135 msec
