                         Program Version 4.2.1 -  RELEASE  -
|  1> ! wB97X-D3 SP def2-SVP
|  2> %pal
|  3> nprocs 24
|  4> end
|  5>
|  6> * xyz 0 1
|  7> S 	 40.8423 	 -23.6089 	 -123.115
|  8> C 	 39.1241 	 -23.6292 	 -123.418
|  9> C 	 38.4707 	 -24.3744 	 -122.452
| 10> C 	 39.3708 	 -24.9222 	 -121.512
| 11> C 	 40.7109 	 -24.6577 	 -121.744
| 12> H 	 38.999 	 -25.4018 	 -120.659
| 13> C 	 36.992 	 -24.552 	 -122.387
| 14> H 	 36.5845 	 -25.1773 	 -121.626
| 15> H 	 36.743 	 -24.8286 	 -123.404
| 16> C 	 36.2719 	 -23.1924 	 -122.207
| 17> H 	 36.5914 	 -22.5878 	 -123.083
| 18> H 	 35.2499 	 -23.3796 	 -122.186
| 19> C 	 36.6004 	 -22.4863 	 -120.886
| 20> H 	 36.0356 	 -22.7327 	 -120.034
| 21> H 	 37.6599 	 -22.453 	 -120.674
| 22> H 	 36.2428 	 -21.4377 	 -121.095
| 23> S 	 42.803 	 -23.6214 	 -120.278
| 24> C 	 43.9567 	 -24.6319 	 -119.534
| 25> C 	 43.6177 	 -25.9691 	 -119.657
| 26> C 	 42.4195 	 -26.1574 	 -120.415
| 27> C 	 41.8784 	 -24.9271 	 -120.96
| 28> H 	 44.2398 	 -26.7659 	 -119.182
| 29> C 	 41.8461 	 -27.5084 	 -120.711
| 30> H 	 40.8253 	 -27.4836 	 -121.035
| 31> H 	 41.9011 	 -27.9516 	 -119.679
| 32> C 	 42.6863 	 -28.4696 	 -121.553
| 33> H 	 43.678 	 -28.3639 	 -121.189
| 34> H 	 42.8775 	 -28.1315 	 -122.562
| 35> C 	 42.2895 	 -29.9126 	 -121.549
| 36> H 	 42.5606 	 -30.4615 	 -120.678
| 37> H 	 42.7742 	 -30.4346 	 -122.352
| 38> H 	 41.1694 	 -30.0809 	 -121.666
| 39> H 	 38.643 	 -23.1333 	 -124.269
| 40> H 	 44.8768 	 -24.2618 	 -118.981
| 41> *
| 42>
| 43>                          ****END OF INPUT****

CARTESIAN COORDINATES (ANGSTROEM)
---------------------------------
  S     40.842300  -23.608900  -123.115000
  C     39.124100  -23.629200  -123.418000
  C     38.470700  -24.374400  -122.452000
  C     39.370800  -24.922200  -121.512000
  C     40.710900  -24.657700  -121.744000
  H     38.999000  -25.401800  -120.659000
  C     36.992000  -24.552000  -122.387000
  H     36.584500  -25.177300  -121.626000
  H     36.743000  -24.828600  -123.404000
  C     36.271900  -23.192400  -122.207000
  H     36.591400  -22.587800  -123.083000
  H     35.249900  -23.379600  -122.186000
  C     36.600400  -22.486300  -120.886000
  H     36.035600  -22.732700  -120.034000
  H     37.659900  -22.453000  -120.674000
  H     36.242800  -21.437700  -121.095000
  S     42.803000  -23.621400  -120.278000
  C     43.956700  -24.631900  -119.534000
  C     43.617700  -25.969100  -119.657000
  C     42.419500  -26.157400  -120.415000
  C     41.878400  -24.927100  -120.960000
  H     44.239800  -26.765900  -119.182000
  C     41.846100  -27.508400  -120.711000
  H     40.825300  -27.483600  -121.035000
  H     41.901100  -27.951600  -119.679000
  C     42.686300  -28.469600  -121.553000
  H     43.678000  -28.363900  -121.189000
  H     42.877500  -28.131500  -122.562000
  C     42.289500  -29.912600  -121.549000
  H     42.560600  -30.461500  -120.678000
  H     42.774200  -30.434600  -122.352000
  H     41.169400  -30.080900  -121.666000
  H     38.643000  -23.133300  -124.269000
  H     44.876800  -24.261800  -118.981000

 Total Charge           Charge          ....    0
 Multiplicity           Mult            ....    1
 Number of Electrons    NEL             ....  134
 Basis Dimension        Dim             ....  322

ORBITAL ENERGIES
----------------

  NO   OCC          E(Eh)            E(eV)
   0   2.0000     -88.965862     -2420.8842
   1   2.0000     -88.965698     -2420.8797
   2   2.0000     -10.327915      -281.0369
   3   2.0000     -10.326923      -281.0099
   4   2.0000     -10.320403      -280.8324
   5   2.0000     -10.313701      -280.6501
   6   2.0000     -10.308462      -280.5075
   7   2.0000     -10.298189      -280.2280
   8   2.0000     -10.296872      -280.1921
   9   2.0000     -10.288270      -279.9580
  10   2.0000     -10.287818      -279.9458
  11   2.0000     -10.285486      -279.8823
  12   2.0000     -10.283009      -279.8149
  13   2.0000     -10.275909      -279.6217
  14   2.0000     -10.274562      -279.5850
  15   2.0000     -10.271186      -279.4932
  16   2.0000      -8.081302      -219.9034
  17   2.0000      -8.080771      -219.8890
  18   2.0000      -6.039646      -164.3471
  19   2.0000      -6.039182      -164.3345
  20   2.0000      -6.035482      -164.2338
  21   2.0000      -6.035065      -164.2225
  22   2.0000      -6.032410      -164.1502
  23   2.0000      -6.031773      -164.1329
  24   2.0000      -1.010032       -27.4844
  25   2.0000      -0.987734       -26.8776
  26   2.0000      -0.918143       -24.9839
  27   2.0000      -0.911818       -24.8118
  28   2.0000      -0.869620       -23.6636
  29   2.0000      -0.853332       -23.2204
  30   2.0000      -0.846525       -23.0351
  31   2.0000      -0.814733       -22.1700
  32   2.0000      -0.786447       -21.4003
  33   2.0000      -0.769502       -20.9392
  34   2.0000      -0.708005       -19.2658
  35   2.0000      -0.701172       -19.0798
  36   2.0000      -0.694984       -18.9115
  37   2.0000      -0.654605       -17.8127
  38   2.0000      -0.638426       -17.3724
  39   2.0000      -0.621076       -16.9003
  40   2.0000      -0.598528       -16.2868
  41   2.0000      -0.585225       -15.9248
  42   2.0000      -0.559463       -15.2238
  43   2.0000      -0.552675       -15.0391
  44   2.0000      -0.546213       -14.8632
  45   2.0000      -0.521620       -14.1940
  46   2.0000      -0.514989       -14.0136
  47   2.0000      -0.510957       -13.9039
  48   2.0000      -0.508991       -13.8503
  49   2.0000      -0.501108       -13.6358
  50   2.0000      -0.491778       -13.3820
  51   2.0000      -0.478753       -13.0275
  52   2.0000      -0.474354       -12.9078
  53   2.0000      -0.467426       -12.7193
  54   2.0000      -0.460365       -12.5272
  55   2.0000      -0.453823       -12.3491
  56   2.0000      -0.448686       -12.2094
  57   2.0000      -0.435812       -11.8591
  58   2.0000      -0.433489       -11.7958
  59   2.0000      -0.421540       -11.4707
  60   2.0000      -0.418156       -11.3786
  61   2.0000      -0.410908       -11.1814
  62   2.0000      -0.405743       -11.0408
  63   2.0000      -0.345322        -9.3967
  64   2.0000      -0.328557        -8.9405
  65   2.0000      -0.326929        -8.8962
  66   2.0000      -0.289152        -7.8682
  67   0.0000       0.029139         0.7929
  68   0.0000       0.067728         1.8430
  69   0.0000       0.115586         3.1453
  70   0.0000       0.122463         3.3324
  71   0.0000       0.134479         3.6594

MULLIKEN ATOMIC CHARGES
-----------------------
   0 S :    0.118075
   1 C :   -0.147128
   2 C :   -0.108371
   3 C :    0.068135
   4 C :   -0.171582
   5 H :   -0.013728
   6 C :    0.110021
   7 H :    0.016138
   8 H :    0.027962
   9 C :   -0.081267
  10 H :    0.029233
  11 H :    0.018677
  12 C :   -0.055318
  13 H :    0.024007
  14 H :    0.048095
  15 H :    0.029739
  16 S :    0.125738
  17 C :   -0.120014
  18 C :   -0.058687
  19 C :   -0.035090
  20 C :   -0.149710
  21 H :    0.039347
  22 C :    0.070828
  23 H :    0.018688
  24 H :    0.026315
  25 C :   -0.034404
  26 H :   -0.002697
  27 H :    0.020425
  28 C :   -0.037801
  29 H :    0.021439
  30 H :    0.027117
  31 H :    0.034552
  32 H :    0.057545
  33 H :    0.083720
Sum of atomic charges:   -0.0000000

LOEWDIN ATOMIC CHARGES
----------------------
   0 S :    0.427684
   1 C :   -0.207286
   2 C :   -0.063817
   3 C :   -0.057408
   4 C :   -0.203691
   5 H :    0.021795
   6 C :   -0.028523
   7 H :    0.024973
   8 H :    0.035770
   9 C :   -0.030064
  10 H :    0.023562
  11 H :    0.015092
  12 C :   -0.068380
  13 H :    0.017345
  14 H :    0.026051
  15 H :    0.036057
  16 S :    0.438691
  17 C :   -0.213013
  18 C :   -0.086082
  19 C :   -0.048642
  20 C :   -0.221521
  21 H :    0.040536
  22 C :   -0.033356
  23 H :    0.024078
  24 H :    0.040788
  25 C :   -0.045112
  26 H :    0.019390
  27 H :    0.024674
  28 C :   -0.065269
  29 H :    0.019145
  30 H :    0.027385
  31 H :    0.031952
  32 H :    0.030701
  33 H :    0.046495

  Mayer bond orders larger than 0.100000
B(  0-S ,  1-C ) :   1.1535 B(  0-S ,  4-C ) :   1.1745 B(  1-C ,  2-C ) :   1.5613
B(  1-C ,  4-C ) :   0.1067 B(  1-C , 32-H ) :   0.9671 B(  2-C ,  3-C ) :   1.2864
B(  2-C ,  6-C ) :   1.0259 B(  3-C ,  4-C ) :   1.5174 B(  3-C ,  5-H ) :   1.0082
B(  4-C , 20-C ) :   1.0535 B(  6-C ,  7-H ) :   0.9474 B(  6-C ,  8-H ) :   0.9303
B(  6-C ,  9-C ) :   1.0788 B(  9-C , 10-H ) :   0.9598 B(  9-C , 11-H ) :   0.9562
B(  9-C , 12-C ) :   1.0746 B( 12-C , 13-H ) :   0.9765 B( 12-C , 14-H ) :   0.9761
B( 12-C , 15-H ) :   0.9711 B( 16-S , 17-C ) :   1.1899 B( 16-S , 20-C ) :   1.1620
B( 17-C , 18-C ) :   1.5595 B( 17-C , 20-C ) :   0.1072 B( 17-C , 33-H ) :   0.9582
B( 18-C , 19-C ) :   1.2850 B( 18-C , 21-H ) :   0.9827 B( 19-C , 20-C ) :   1.5156
B( 19-C , 22-C ) :   1.0566 B( 22-C , 23-H ) :   0.9341 B( 22-C , 24-H ) :   0.9283
B( 22-C , 25-C ) :   1.0645 B( 25-C , 26-H ) :   0.9439 B( 25-C , 27-H ) :   0.9511
B( 25-C , 28-C ) :   1.0889 B( 28-C , 29-H ) :   0.9736 B( 28-C , 30-H ) :   0.9708
B( 28-C , 31-H ) :   0.9745

Dispersion correction           -0.013885692
FINAL SINGLE POINT ENERGY     -1339.874142166212

DIPOLE MOMENT
-------------
                                X             Y             Z
Electronic contribution:     14.71869      14.45535      -1.34898
Nuclear contribution   :    -15.03646     -14.81162       1.53480
                        -----------------------------------------
Total Dipole Moment    :     -0.31777      -0.35627       0.18581
                        -----------------------------------------
Magnitude (a.u.)       :      0.51228
Magnitude (Debye)      :      1.30212

Rotational constants in cm-1:     0.019553     0.008013     0.006665
Rotational constants in MHz :   586.184265   240.225810   199.802316

                             ****ORCA TERMINATED NORMALLY****
TOTAL RUN TIME: 0 days 0 hours 0 minutes 21 seconds 234 msec
