                         Program Version 4.2.1 -  RELEASE  -
|  1> ! wB97X-D3 SP def2-SVP
|  2> %pal
|  3> nprocs 24
|  4> end
|  5>
|  6> * xyz 0 1
|  7> S 	 -55.5075 	 8.33769 	 -19.6848
|  8> C 	 -54.7858 	 6.74806 	 -19.2432
|  9> C 	 -53.5619 	 6.60016 	 -19.9353
| 10> C 	 -53.3687 	 7.55173 	 -20.9776
| 11> C 	 -54.3755 	 8.51677 	 -21.0346
| 12> H 	 -52.5198 	 7.64825 	 -21.6365
| 13> C 	 -52.4809 	 5.57395 	 -19.5972
| 14> H 	 -52.7746 	 5.19961 	 -18.6415
| 15> H 	 -51.5974 	 6.20935 	 -19.4187
| 16> C 	 -52.3042 	 4.37702 	 -20.5872
| 17> H 	 -53.2063 	 3.80628 	 -20.5569
| 18> H 	 -52.216 	 4.67248 	 -21.617
| 19> C 	 -51.0933 	 3.60702 	 -20.2735
| 20> H 	 -50.3524 	 4.37772 	 -19.9742
| 21> H 	 -51.252 	 3.01919 	 -19.3596
| 22> H 	 -50.7366 	 2.89151 	 -21.055
| 23> S 	 -54.0863 	 9.63312 	 -23.5524
| 24> C 	 -54.1058 	 11.3166 	 -23.7516
| 25> C 	 -54.1565 	 11.9668 	 -22.5264
| 26> C 	 -54.2398 	 11.0741 	 -21.4207
| 27> C 	 -54.2398 	 9.73099 	 -21.7647
| 28> H 	 -53.9717 	 13.0461 	 -22.5114
| 29> C 	 -54.1517 	 11.6135 	 -20.0125
| 30> H 	 -53.2962 	 12.2466 	 -20.099
| 31> H 	 -53.9787 	 10.7667 	 -19.2738
| 32> C 	 -55.4371 	 12.4461 	 -19.5902
| 33> H 	 -56.4298 	 11.9978 	 -19.707
| 34> H 	 -55.5262 	 13.2496 	 -20.3584
| 35> C 	 -55.2025 	 12.9776 	 -18.1946
| 36> H 	 -55.9434 	 13.7137 	 -17.9656
| 37> H 	 -54.3683 	 13.6415 	 -18.0831
| 38> H 	 -55.1868 	 12.1252 	 -17.4531
| 39> H 	 -55.0328 	 6.18658 	 -18.3177
| 40> H 	 -53.9003 	 11.888 	 -24.6532
| 41> *
| 42>
| 43>                          ****END OF INPUT****

CARTESIAN COORDINATES (ANGSTROEM)
---------------------------------
  S    -55.507500    8.337690  -19.684800
  C    -54.785800    6.748060  -19.243200
  C    -53.561900    6.600160  -19.935300
  C    -53.368700    7.551730  -20.977600
  C    -54.375500    8.516770  -21.034600
  H    -52.519800    7.648250  -21.636500
  C    -52.480900    5.573950  -19.597200
  H    -52.774600    5.199610  -18.641500
  H    -51.597400    6.209350  -19.418700
  C    -52.304200    4.377020  -20.587200
  H    -53.206300    3.806280  -20.556900
  H    -52.216000    4.672480  -21.617000
  C    -51.093300    3.607020  -20.273500
  H    -50.352400    4.377720  -19.974200
  H    -51.252000    3.019190  -19.359600
  H    -50.736600    2.891510  -21.055000
  S    -54.086300    9.633120  -23.552400
  C    -54.105800   11.316600  -23.751600
  C    -54.156500   11.966800  -22.526400
  C    -54.239800   11.074100  -21.420700
  C    -54.239800    9.730990  -21.764700
  H    -53.971700   13.046100  -22.511400
  C    -54.151700   11.613500  -20.012500
  H    -53.296200   12.246600  -20.099000
  H    -53.978700   10.766700  -19.273800
  C    -55.437100   12.446100  -19.590200
  H    -56.429800   11.997800  -19.707000
  H    -55.526200   13.249600  -20.358400
  C    -55.202500   12.977600  -18.194600
  H    -55.943400   13.713700  -17.965600
  H    -54.368300   13.641500  -18.083100
  H    -55.186800   12.125200  -17.453100
  H    -55.032800    6.186580  -18.317700
  H    -53.900300   11.888000  -24.653200

 Total Charge           Charge          ....    0
 Multiplicity           Mult            ....    1
 Number of Electrons    NEL             ....  134
 Basis Dimension        Dim             ....  322

ORBITAL ENERGIES
----------------

  NO   OCC          E(Eh)            E(eV)
   0   2.0000     -88.970713     -2421.0162
   1   2.0000     -88.962710     -2420.7984
   2   2.0000     -10.331514      -281.1348
   3   2.0000     -10.324604      -280.9468
   4   2.0000     -10.324010      -280.9306
   5   2.0000     -10.314039      -280.6593
   6   2.0000     -10.307526      -280.4820
   7   2.0000     -10.300321      -280.2860
   8   2.0000     -10.296099      -280.1711
   9   2.0000     -10.295195      -280.1465
  10   2.0000     -10.292802      -280.0814
  11   2.0000     -10.291376      -280.0426
  12   2.0000     -10.289144      -279.9818
  13   2.0000     -10.281119      -279.7635
  14   2.0000     -10.278884      -279.7026
  15   2.0000     -10.274321      -279.5785
  16   2.0000      -8.083696      -219.9686
  17   2.0000      -8.077721      -219.8060
  18   2.0000      -6.042283      -164.4189
  19   2.0000      -6.038543      -164.3171
  20   2.0000      -6.036215      -164.2538
  21   2.0000      -6.034378      -164.2038
  22   2.0000      -6.032111      -164.1421
  23   2.0000      -6.028555      -164.0453
  24   2.0000      -1.004491       -27.3336
  25   2.0000      -0.979717       -26.6594
  26   2.0000      -0.915491       -24.9118
  27   2.0000      -0.904625       -24.6161
  28   2.0000      -0.873738       -23.7756
  29   2.0000      -0.852344       -23.1934
  30   2.0000      -0.849338       -23.1117
  31   2.0000      -0.810755       -22.0618
  32   2.0000      -0.779373       -21.2078
  33   2.0000      -0.765103       -20.8195
  34   2.0000      -0.707965       -19.2647
  35   2.0000      -0.701585       -19.0911
  36   2.0000      -0.695523       -18.9261
  37   2.0000      -0.663304       -18.0494
  38   2.0000      -0.635182       -17.2842
  39   2.0000      -0.616015       -16.7626
  40   2.0000      -0.591623       -16.0989
  41   2.0000      -0.571072       -15.5397
  42   2.0000      -0.563449       -15.3322
  43   2.0000      -0.556960       -15.1556
  44   2.0000      -0.534741       -14.5510
  45   2.0000      -0.522573       -14.2199
  46   2.0000      -0.516439       -14.0530
  47   2.0000      -0.509605       -13.8671
  48   2.0000      -0.508502       -13.8370
  49   2.0000      -0.505176       -13.7465
  50   2.0000      -0.490378       -13.3439
  51   2.0000      -0.476374       -12.9628
  52   2.0000      -0.468926       -12.7601
  53   2.0000      -0.463736       -12.6189
  54   2.0000      -0.458509       -12.4767
  55   2.0000      -0.447312       -12.1720
  56   2.0000      -0.446385       -12.1468
  57   2.0000      -0.437541       -11.9061
  58   2.0000      -0.431314       -11.7366
  59   2.0000      -0.422255       -11.4902
  60   2.0000      -0.417586       -11.3631
  61   2.0000      -0.416370       -11.3300
  62   2.0000      -0.405336       -11.0297
  63   2.0000      -0.348259        -9.4766
  64   2.0000      -0.329525        -8.9668
  65   2.0000      -0.327196        -8.9035
  66   2.0000      -0.288462        -7.8494
  67   0.0000       0.023045         0.6271
  68   0.0000       0.070030         1.9056
  69   0.0000       0.094157         2.5621
  70   0.0000       0.120957         3.2914
  71   0.0000       0.130158         3.5418

MULLIKEN ATOMIC CHARGES
-----------------------
   0 S :    0.098274
   1 C :   -0.123364
   2 C :   -0.115540
   3 C :    0.025686
   4 C :   -0.121916
   5 H :    0.019851
   6 C :    0.053758
   7 H :    0.002438
   8 H :    0.040007
   9 C :   -0.027458
  10 H :    0.022559
  11 H :    0.023391
  12 C :   -0.053294
  13 H :    0.028453
  14 H :    0.023295
  15 H :    0.050289
  16 S :    0.102712
  17 C :   -0.083250
  18 C :   -0.061962
  19 C :   -0.023786
  20 C :   -0.171451
  21 H :    0.027642
  22 C :    0.036383
  23 H :    0.030007
  24 H :    0.041173
  25 C :   -0.097421
  26 H :    0.037755
  27 H :    0.019446
  28 C :   -0.014473
  29 H :    0.016886
  30 H :    0.016560
  31 H :    0.049278
  32 H :    0.067849
  33 H :    0.060227
Sum of atomic charges:    0.0000000

LOEWDIN ATOMIC CHARGES
----------------------
   0 S :    0.390605
   1 C :   -0.200028
   2 C :   -0.056119
   3 C :   -0.055784
   4 C :   -0.186684
   5 H :    0.031313
   6 C :   -0.027286
   7 H :    0.023460
   8 H :    0.036149
   9 C :   -0.039711
  10 H :    0.023051
  11 H :    0.022746
  12 C :   -0.071809
  13 H :    0.029727
  14 H :    0.023785
  15 H :    0.032726
  16 S :    0.409781
  17 C :   -0.201898
  18 C :   -0.083873
  19 C :   -0.059529
  20 C :   -0.192250
  21 H :    0.033624
  22 C :   -0.030302
  23 H :    0.030865
  24 H :    0.028752
  25 C :   -0.043475
  26 H :    0.027844
  27 H :    0.023233
  28 C :   -0.071367
  29 H :    0.023624
  30 H :    0.022988
  31 H :    0.034940
  32 H :    0.036244
  33 H :    0.034658

  Mayer bond orders larger than 0.100000
B(  0-S ,  1-C ) :   1.1224 B(  0-S ,  4-C ) :   1.1446 B(  1-C ,  2-C ) :   1.5996
B(  1-C , 32-H ) :   0.9606 B(  2-C ,  3-C ) :   1.2558 B(  2-C ,  6-C ) :   1.0241
B(  3-C ,  4-C ) :   1.5395 B(  3-C ,  5-H ) :   0.9926 B(  4-C , 20-C ) :   1.0636
B(  6-C ,  7-H ) :   0.9365 B(  6-C ,  8-H ) :   0.9402 B(  6-C ,  9-C ) :   1.0541
B(  9-C , 10-H ) :   0.9504 B(  9-C , 11-H ) :   0.9590 B(  9-C , 12-C ) :   1.0837
B( 12-C , 13-H ) :   0.9722 B( 12-C , 14-H ) :   0.9722 B( 12-C , 15-H ) :   0.9721
B( 16-S , 17-C ) :   1.1782 B( 16-S , 20-C ) :   1.1160 B( 17-C , 18-C ) :   1.5968
B( 17-C , 33-H ) :   0.9615 B( 18-C , 19-C ) :   1.2473 B( 18-C , 21-H ) :   0.9843
B( 19-C , 20-C ) :   1.5863 B( 19-C , 22-C ) :   1.0281 B( 22-C , 23-H ) :   0.9381
B( 22-C , 24-H ) :   0.9424 B( 22-C , 25-C ) :   1.0442 B( 25-C , 26-H ) :   0.9586
B( 25-C , 27-H ) :   0.9532 B( 25-C , 28-C ) :   1.0911 B( 28-C , 29-H ) :   0.9672
B( 28-C , 30-H ) :   0.9696 B( 28-C , 31-H ) :   0.9725

Dispersion correction           -0.013837604
FINAL SINGLE POINT ENERGY     -1339.866839358144

DIPOLE MOMENT
-------------
                                X             Y             Z
Electronic contribution:     -9.39872       3.18704     -13.34373
Nuclear contribution   :      9.91747      -3.02825      13.66671
                        -----------------------------------------
Total Dipole Moment    :      0.51875       0.15879       0.32298
                        -----------------------------------------
Magnitude (a.u.)       :      0.63138
Magnitude (Debye)      :      1.60483

Rotational constants in cm-1:     0.020461     0.007622     0.006126
Rotational constants in MHz :   613.406689   228.492986   183.657362

                             ****ORCA TERMINATED NORMALLY****
TOTAL RUN TIME: 0 days 0 hours 0 minutes 20 seconds 34 msec
