                         Program Version 4.2.1 -  RELEASE  -
|  1> ! wB97X-D3 SP def2-SVP
|  2> %pal
|  3> nprocs 24
|  4> end
|  5>
|  6> * xyz 0 1
|  7> S 	 -69.6955 	 18.4551 	 -79.6898
|  8> C 	 -70.2069 	 18.9428 	 -78.0602
|  9> C 	 -69.3205 	 18.3253 	 -77.1705
| 10> C 	 -68.3501 	 17.4228 	 -77.7316
| 11> C 	 -68.5139 	 17.3028 	 -79.0879
| 12> H 	 -67.6363 	 16.7359 	 -77.2712
| 13> C 	 -69.4805 	 18.3976 	 -75.634
| 14> H 	 -69.1892 	 19.3978 	 -75.2994
| 15> H 	 -68.8362 	 17.7208 	 -75.1186
| 16> C 	 -70.8737 	 18.275 	 -75.0892
| 17> H 	 -71.5124 	 19.119 	 -75.3219
| 18> H 	 -71.3709 	 17.3742 	 -75.4744
| 19> C 	 -70.8713 	 18.2935 	 -73.5399
| 20> H 	 -70.6487 	 17.3064 	 -73.2274
| 21> H 	 -70.1941 	 18.9708 	 -73.0171
| 22> H 	 -71.8741 	 18.512 	 -73.25
| 23> S 	 -69.0063 	 14.9971 	 -80.5126
| 24> C 	 -67.8783 	 14.4443 	 -81.7516
| 25> C 	 -66.7941 	 15.2376 	 -81.6854
| 26> C 	 -66.8069 	 16.3087 	 -80.7259
| 27> C 	 -67.9913 	 16.3506 	 -80.0585
| 28> H 	 -66.0969 	 15.1291 	 -82.4684
| 29> C 	 -65.7972 	 17.4404 	 -80.7919
| 30> H 	 -65.9653 	 18.1261 	 -79.9637
| 31> H 	 -66.0324 	 17.9925 	 -81.7281
| 32> C 	 -64.2897 	 17.1233 	 -80.719
| 33> H 	 -63.7011 	 18.0055 	 -81.1131
| 34> H 	 -64.0553 	 16.3865 	 -81.5041
| 35> C 	 -63.9803 	 16.4972 	 -79.3499
| 36> H 	 -63.0638 	 15.9623 	 -79.0872
| 37> H 	 -64.8521 	 15.9932 	 -79.0033
| 38> H 	 -63.8651 	 17.352 	 -78.7518
| 39> H 	 -71.1259 	 19.4273 	 -77.7922
| 40> H 	 -68.1657 	 13.8808 	 -82.6616
| 41> *
| 42>
| 43>                          ****END OF INPUT****

CARTESIAN COORDINATES (ANGSTROEM)
---------------------------------
  S    -69.695500   18.455100  -79.689800
  C    -70.206900   18.942800  -78.060200
  C    -69.320500   18.325300  -77.170500
  C    -68.350100   17.422800  -77.731600
  C    -68.513900   17.302800  -79.087900
  H    -67.636300   16.735900  -77.271200
  C    -69.480500   18.397600  -75.634000
  H    -69.189200   19.397800  -75.299400
  H    -68.836200   17.720800  -75.118600
  C    -70.873700   18.275000  -75.089200
  H    -71.512400   19.119000  -75.321900
  H    -71.370900   17.374200  -75.474400
  C    -70.871300   18.293500  -73.539900
  H    -70.648700   17.306400  -73.227400
  H    -70.194100   18.970800  -73.017100
  H    -71.874100   18.512000  -73.250000
  S    -69.006300   14.997100  -80.512600
  C    -67.878300   14.444300  -81.751600
  C    -66.794100   15.237600  -81.685400
  C    -66.806900   16.308700  -80.725900
  C    -67.991300   16.350600  -80.058500
  H    -66.096900   15.129100  -82.468400
  C    -65.797200   17.440400  -80.791900
  H    -65.965300   18.126100  -79.963700
  H    -66.032400   17.992500  -81.728100
  C    -64.289700   17.123300  -80.719000
  H    -63.701100   18.005500  -81.113100
  H    -64.055300   16.386500  -81.504100
  C    -63.980300   16.497200  -79.349900
  H    -63.063800   15.962300  -79.087200
  H    -64.852100   15.993200  -79.003300
  H    -63.865100   17.352000  -78.751800
  H    -71.125900   19.427300  -77.792200
  H    -68.165700   13.880800  -82.661600

 Total Charge           Charge          ....    0
 Multiplicity           Mult            ....    1
 Number of Electrons    NEL             ....  134
 Basis Dimension        Dim             ....  322

ORBITAL ENERGIES
----------------

  NO   OCC          E(Eh)            E(eV)
   0   2.0000     -88.962474     -2420.7920
   1   2.0000     -88.959828     -2420.7200
   2   2.0000     -10.329296      -281.0744
   3   2.0000     -10.325574      -280.9731
   4   2.0000     -10.317500      -280.7534
   5   2.0000     -10.316936      -280.7381
   6   2.0000     -10.307760      -280.4884
   7   2.0000     -10.303827      -280.3814
   8   2.0000     -10.299395      -280.2608
   9   2.0000     -10.293789      -280.1082
  10   2.0000     -10.292833      -280.0822
  11   2.0000     -10.288337      -279.9599
  12   2.0000     -10.286534      -279.9108
  13   2.0000     -10.283918      -279.8396
  14   2.0000     -10.272448      -279.5275
  15   2.0000     -10.269723      -279.4534
  16   2.0000      -8.076842      -219.7821
  17   2.0000      -8.074851      -219.7279
  18   2.0000      -6.035418      -164.2321
  19   2.0000      -6.033533      -164.1808
  20   2.0000      -6.031287      -164.1197
  21   2.0000      -6.029248      -164.0642
  22   2.0000      -6.027649      -164.0207
  23   2.0000      -6.025436      -163.9604
  24   2.0000      -1.008880       -27.4530
  25   2.0000      -0.983766       -26.7696
  26   2.0000      -0.913484       -24.8572
  27   2.0000      -0.909514       -24.7491
  28   2.0000      -0.872694       -23.7472
  29   2.0000      -0.846460       -23.0334
  30   2.0000      -0.844542       -22.9811
  31   2.0000      -0.820155       -22.3176
  32   2.0000      -0.782330       -21.2883
  33   2.0000      -0.773254       -21.0413
  34   2.0000      -0.708293       -19.2736
  35   2.0000      -0.702077       -19.1045
  36   2.0000      -0.695626       -18.9290
  37   2.0000      -0.655633       -17.8407
  38   2.0000      -0.647912       -17.6306
  39   2.0000      -0.612896       -16.6778
  40   2.0000      -0.596703       -16.2371
  41   2.0000      -0.574321       -15.6281
  42   2.0000      -0.567294       -15.4369
  43   2.0000      -0.563265       -15.3272
  44   2.0000      -0.535948       -14.5839
  45   2.0000      -0.526485       -14.3264
  46   2.0000      -0.520794       -14.1715
  47   2.0000      -0.513255       -13.9664
  48   2.0000      -0.508281       -13.8310
  49   2.0000      -0.501481       -13.6460
  50   2.0000      -0.486936       -13.2502
  51   2.0000      -0.483565       -13.1585
  52   2.0000      -0.472269       -12.8511
  53   2.0000      -0.462343       -12.5810
  54   2.0000      -0.457566       -12.4510
  55   2.0000      -0.447114       -12.1666
  56   2.0000      -0.441635       -12.0175
  57   2.0000      -0.440364       -11.9829
  58   2.0000      -0.433238       -11.7890
  59   2.0000      -0.419684       -11.4202
  60   2.0000      -0.417881       -11.3711
  61   2.0000      -0.410195       -11.1620
  62   2.0000      -0.402572       -10.9545
  63   2.0000      -0.338333        -9.2065
  64   2.0000      -0.327052        -8.8995
  65   2.0000      -0.323459        -8.8018
  66   2.0000      -0.313105        -8.5200
  67   0.0000       0.031085         0.8459
  68   0.0000       0.060914         1.6576
  69   0.0000       0.113725         3.0946
  70   0.0000       0.121252         3.2994
  71   0.0000       0.130918         3.5625

MULLIKEN ATOMIC CHARGES
-----------------------
   0 S :    0.100196
   1 C :   -0.115292
   2 C :   -0.082224
   3 C :    0.060897
   4 C :   -0.194156
   5 H :    0.023889
   6 C :    0.089220
   7 H :    0.025297
   8 H :    0.011179
   9 C :   -0.115114
  10 H :    0.024936
  11 H :    0.037002
  12 C :   -0.025980
  13 H :    0.020879
  14 H :    0.031667
  15 H :    0.022021
  16 S :    0.099585
  17 C :   -0.101755
  18 C :   -0.027451
  19 C :    0.003991
  20 C :   -0.180344
  21 H :    0.006185
  22 C :    0.024394
  23 H :    0.027592
  24 H :    0.050044
  25 C :   -0.075796
  26 H :    0.041168
  27 H :    0.019471
  28 C :   -0.024011
  29 H :    0.040014
  30 H :    0.034133
  31 H :    0.009521
  32 H :    0.056347
  33 H :    0.082495
Sum of atomic charges:   -0.0000000

LOEWDIN ATOMIC CHARGES
----------------------
   0 S :    0.394054
   1 C :   -0.192724
   2 C :   -0.055914
   3 C :   -0.062904
   4 C :   -0.187220
   5 H :    0.040100
   6 C :   -0.033128
   7 H :    0.034114
   8 H :    0.022683
   9 C :   -0.040790
  10 H :    0.018507
  11 H :    0.025599
  12 C :   -0.056970
  13 H :    0.019336
  14 H :    0.025831
  15 H :    0.023157
  16 S :    0.391983
  17 C :   -0.185469
  18 C :   -0.066064
  19 C :   -0.061451
  20 C :   -0.203225
  21 H :    0.022768
  22 C :   -0.031254
  23 H :    0.029237
  24 H :    0.040915
  25 C :   -0.046087
  26 H :    0.032744
  27 H :    0.016320
  28 C :   -0.068408
  29 H :    0.030272
  30 H :    0.025309
  31 H :    0.022930
  32 H :    0.030188
  33 H :    0.045561

  Mayer bond orders larger than 0.100000
B(  0-S ,  1-C ) :   1.1231 B(  0-S ,  4-C ) :   1.1627 B(  1-C ,  2-C ) :   1.6156
B(  1-C , 32-H ) :   0.9745 B(  2-C ,  3-C ) :   1.2047 B(  2-C ,  6-C ) :   1.0178
B(  3-C ,  4-C ) :   1.6113 B(  3-C ,  5-H ) :   0.9955 B(  4-C , 20-C ) :   0.9894
B(  6-C ,  7-H ) :   0.9267 B(  6-C ,  8-H ) :   0.9550 B(  6-C ,  9-C ) :   1.0734
B(  9-C , 10-H ) :   0.9540 B(  9-C , 11-H ) :   0.9591 B(  9-C , 12-C ) :   1.0774
B( 12-C , 13-H ) :   0.9764 B( 12-C , 14-H ) :   0.9757 B( 12-C , 15-H ) :   0.9764
B( 16-S , 17-C ) :   1.1292 B( 16-S , 20-C ) :   1.1477 B( 17-C , 18-C ) :   1.6636
B( 17-C , 33-H ) :   0.9571 B( 18-C , 19-C ) :   1.1950 B( 18-C , 21-H ) :   0.9894
B( 19-C , 20-C ) :   1.6189 B( 19-C , 22-C ) :   1.0499 B( 22-C , 23-H ) :   0.9355
B( 22-C , 24-H ) :   0.9360 B( 22-C , 25-C ) :   1.0675 B( 25-C , 26-H ) :   0.9593
B( 25-C , 27-H ) :   0.9573 B( 25-C , 28-C ) :   1.0389 B( 28-C , 29-H ) :   0.9754
B( 28-C , 30-H ) :   0.9769 B( 28-C , 31-H ) :   0.9714

Dispersion correction           -0.014035063
FINAL SINGLE POINT ENERGY     -1339.858912778182

DIPOLE MOMENT
-------------
                                X             Y             Z
Electronic contribution:    -10.06019      -5.58217     -18.26743
Nuclear contribution   :     10.27829       5.72405      18.45439
                        -----------------------------------------
Total Dipole Moment    :      0.21810       0.14187       0.18696
                        -----------------------------------------
Magnitude (a.u.)       :      0.32039
Magnitude (Debye)      :      0.81437

Rotational constants in cm-1:     0.021962     0.007190     0.006387
Rotational constants in MHz :   658.412490   215.536063   191.482589

                             ****ORCA TERMINATED NORMALLY****
TOTAL RUN TIME: 0 days 0 hours 0 minutes 20 seconds 68 msec
