                         Program Version 4.2.1 -  RELEASE  -
|  1> ! wB97X-D3 SP def2-SVP
|  2> %pal
|  3> nprocs 24
|  4> end
|  5>
|  6> * xyz 0 1
|  7> S 	 -100.896 	 -29.4291 	 -66.1051
|  8> C 	 -101.069 	 -27.8037 	 -66.717
|  9> C 	 -100.14 	 -26.9805 	 -66.2007
| 10> C 	 -99.4002 	 -27.6505 	 -65.1259
| 11> C 	 -99.8052 	 -28.9503 	 -64.89
| 12> H 	 -98.6583 	 -27.3572 	 -64.4098
| 13> C 	 -99.8885 	 -25.543 	 -66.7014
| 14> H 	 -99.8922 	 -25.594 	 -67.7876
| 15> H 	 -98.8418 	 -25.4007 	 -66.4489
| 16> C 	 -100.763 	 -24.4149 	 -66.0739
| 17> H 	 -101.788 	 -24.7633 	 -66.1648
| 18> H 	 -100.566 	 -24.3187 	 -64.9809
| 19> C 	 -100.649 	 -23.0404 	 -66.7244
| 20> H 	 -101.418 	 -22.4283 	 -66.2953
| 21> H 	 -99.739 	 -22.5096 	 -66.5049
| 22> H 	 -100.712 	 -23.1083 	 -67.823
| 23> S 	 -98.3222 	 -31.2783 	 -64.5666
| 24> C 	 -97.8748 	 -31.8508 	 -63.0305
| 25> C 	 -98.2271 	 -30.9427 	 -62.0565
| 26> C 	 -99.024 	 -29.8194 	 -62.5548
| 27> C 	 -99.1989 	 -29.9438 	 -63.9407
| 28> H 	 -97.9499 	 -31.0817 	 -61.0049
| 29> C 	 -99.5247 	 -28.8229 	 -61.5463
| 30> H 	 -99.8511 	 -29.3999 	 -60.6638
| 31> H 	 -100.287 	 -28.2106 	 -62.0198
| 32> C 	 -98.4665 	 -27.8304 	 -61.0233
| 33> H 	 -98.0721 	 -27.2561 	 -61.8795
| 34> H 	 -97.6243 	 -28.3813 	 -60.7503
| 35> C 	 -98.9867 	 -26.9179 	 -59.8951
| 36> H 	 -99.9638 	 -26.4785 	 -60.2168
| 37> H 	 -98.3309 	 -26.1244 	 -59.6955
| 38> H 	 -99.315 	 -27.3802 	 -58.9787
| 39> H 	 -101.71 	 -27.6661 	 -67.6053
| 40> H 	 -97.2239 	 -32.7093 	 -62.9391
| 41> *
| 42>
| 43>                          ****END OF INPUT****

CARTESIAN COORDINATES (ANGSTROEM)
---------------------------------
  S    -100.896000  -29.429100  -66.105100
  C    -101.069000  -27.803700  -66.717000
  C    -100.140000  -26.980500  -66.200700
  C    -99.400200  -27.650500  -65.125900
  C    -99.805200  -28.950300  -64.890000
  H    -98.658300  -27.357200  -64.409800
  C    -99.888500  -25.543000  -66.701400
  H    -99.892200  -25.594000  -67.787600
  H    -98.841800  -25.400700  -66.448900
  C    -100.763000  -24.414900  -66.073900
  H    -101.788000  -24.763300  -66.164800
  H    -100.566000  -24.318700  -64.980900
  C    -100.649000  -23.040400  -66.724400
  H    -101.418000  -22.428300  -66.295300
  H    -99.739000  -22.509600  -66.504900
  H    -100.712000  -23.108300  -67.823000
  S    -98.322200  -31.278300  -64.566600
  C    -97.874800  -31.850800  -63.030500
  C    -98.227100  -30.942700  -62.056500
  C    -99.024000  -29.819400  -62.554800
  C    -99.198900  -29.943800  -63.940700
  H    -97.949900  -31.081700  -61.004900
  C    -99.524700  -28.822900  -61.546300
  H    -99.851100  -29.399900  -60.663800
  H    -100.287000  -28.210600  -62.019800
  C    -98.466500  -27.830400  -61.023300
  H    -98.072100  -27.256100  -61.879500
  H    -97.624300  -28.381300  -60.750300
  C    -98.986700  -26.917900  -59.895100
  H    -99.963800  -26.478500  -60.216800
  H    -98.330900  -26.124400  -59.695500
  H    -99.315000  -27.380200  -58.978700
  H    -101.710000  -27.666100  -67.605300
  H    -97.223900  -32.709300  -62.939100

 Total Charge           Charge          ....    0
 Multiplicity           Mult            ....    1
 Number of Electrons    NEL             ....  134
 Basis Dimension        Dim             ....  322

ORBITAL ENERGIES
----------------

  NO   OCC          E(Eh)            E(eV)
   0   2.0000     -88.964213     -2420.8393
   1   2.0000     -88.958418     -2420.6816
   2   2.0000     -10.328992      -281.0662
   3   2.0000     -10.325956      -280.9835
   4   2.0000     -10.314501      -280.6718
   5   2.0000     -10.311599      -280.5929
   6   2.0000     -10.306141      -280.4443
   7   2.0000     -10.305464      -280.4259
   8   2.0000     -10.295687      -280.1599
   9   2.0000     -10.294748      -280.1343
  10   2.0000     -10.294654      -280.1318
  11   2.0000     -10.291997      -280.0595
  12   2.0000     -10.291285      -280.0401
  13   2.0000     -10.284597      -279.8581
  14   2.0000     -10.278071      -279.6805
  15   2.0000     -10.277417      -279.6627
  16   2.0000      -8.080638      -219.8853
  17   2.0000      -8.074743      -219.7249
  18   2.0000      -6.039031      -164.3304
  19   2.0000      -6.034803      -164.2153
  20   2.0000      -6.033065      -164.1680
  21   2.0000      -6.031528      -164.1262
  22   2.0000      -6.029094      -164.0600
  23   2.0000      -6.025527      -163.9629
  24   2.0000      -1.011355       -27.5204
  25   2.0000      -0.991020       -26.9670
  26   2.0000      -0.912219       -24.8227
  27   2.0000      -0.906930       -24.6788
  28   2.0000      -0.869531       -23.6611
  29   2.0000      -0.851703       -23.1760
  30   2.0000      -0.844290       -22.9743
  31   2.0000      -0.815880       -22.2012
  32   2.0000      -0.784371       -21.3438
  33   2.0000      -0.775942       -21.1145
  34   2.0000      -0.708257       -19.2726
  35   2.0000      -0.701852       -19.0984
  36   2.0000      -0.688772       -18.7425
  37   2.0000      -0.662532       -18.0284
  38   2.0000      -0.648152       -17.6371
  39   2.0000      -0.612280       -16.6610
  40   2.0000      -0.598260       -16.2795
  41   2.0000      -0.566441       -15.4136
  42   2.0000      -0.565013       -15.3748
  43   2.0000      -0.556222       -15.1356
  44   2.0000      -0.530097       -14.4247
  45   2.0000      -0.526020       -14.3137
  46   2.0000      -0.516501       -14.0547
  47   2.0000      -0.512133       -13.9358
  48   2.0000      -0.510021       -13.8784
  49   2.0000      -0.501595       -13.6491
  50   2.0000      -0.493502       -13.4289
  51   2.0000      -0.482879       -13.1398
  52   2.0000      -0.471070       -12.8185
  53   2.0000      -0.466111       -12.6835
  54   2.0000      -0.458448       -12.4750
  55   2.0000      -0.450411       -12.2563
  56   2.0000      -0.441456       -12.0126
  57   2.0000      -0.439880       -11.9698
  58   2.0000      -0.439088       -11.9482
  59   2.0000      -0.426356       -11.6017
  60   2.0000      -0.421084       -11.4583
  61   2.0000      -0.418472       -11.3872
  62   2.0000      -0.412341       -11.2204
  63   2.0000      -0.345768        -9.4088
  64   2.0000      -0.328906        -8.9500
  65   2.0000      -0.323959        -8.8154
  66   2.0000      -0.303818        -8.2673
  67   0.0000       0.041103         1.1185
  68   0.0000       0.072686         1.9779
  69   0.0000       0.114435         3.1139
  70   0.0000       0.119251         3.2450
  71   0.0000       0.133020         3.6196

MULLIKEN ATOMIC CHARGES
-----------------------
   0 S :    0.093899
   1 C :   -0.134506
   2 C :   -0.082564
   3 C :    0.048305
   4 C :   -0.185103
   5 H :   -0.007672
   6 C :    0.075796
   7 H :    0.026312
   8 H :    0.017663
   9 C :   -0.070134
  10 H :    0.026960
  11 H :    0.036016
  12 C :   -0.030140
  13 H :    0.032704
  14 H :    0.026354
  15 H :    0.033236
  16 S :    0.118783
  17 C :   -0.090237
  18 C :   -0.045895
  19 C :   -0.048376
  20 C :   -0.144785
  21 H :    0.026993
  22 C :    0.061148
  23 H :    0.034386
  24 H :    0.028649
  25 C :   -0.062860
  26 H :    0.022564
  27 H :    0.005378
  28 C :   -0.013754
  29 H :    0.019050
  30 H :    0.031664
  31 H :    0.025986
  32 H :    0.062274
  33 H :    0.061904
Sum of atomic charges:   -0.0000000

LOEWDIN ATOMIC CHARGES
----------------------
   0 S :    0.415738
   1 C :   -0.195370
   2 C :   -0.064413
   3 C :   -0.067158
   4 C :   -0.209449
   5 H :    0.027056
   6 C :   -0.031002
   7 H :    0.029662
   8 H :    0.029335
   9 C :   -0.039905
  10 H :    0.022962
  11 H :    0.030727
  12 C :   -0.064627
  13 H :    0.027706
  14 H :    0.022196
  15 H :    0.027272
  16 S :    0.441502
  17 C :   -0.201070
  18 C :   -0.073772
  19 C :   -0.055471
  20 C :   -0.217211
  21 H :    0.031630
  22 C :   -0.030255
  23 H :    0.036562
  24 H :    0.030376
  25 C :   -0.036066
  26 H :    0.025071
  27 H :    0.011300
  28 C :   -0.062555
  29 H :    0.030533
  30 H :    0.021304
  31 H :    0.024284
  32 H :    0.033176
  33 H :    0.029932

  Mayer bond orders larger than 0.100000
B(  0-S ,  1-C ) :   1.1427 B(  0-S ,  4-C ) :   1.1666 B(  1-C ,  2-C ) :   1.6308
B(  1-C , 32-H ) :   0.9703 B(  2-C ,  3-C ) :   1.2012 B(  2-C ,  6-C ) :   1.0090
B(  3-C ,  4-C ) :   1.6034 B(  3-C ,  5-H ) :   1.0015 B(  4-C , 20-C ) :   0.9845
B(  6-C ,  7-H ) :   0.9448 B(  6-C ,  8-H ) :   0.9378 B(  6-C ,  9-C ) :   1.0571
B(  9-C , 10-H ) :   0.9600 B(  9-C , 11-H ) :   0.9537 B(  9-C , 12-C ) :   1.0854
B( 12-C , 13-H ) :   0.9723 B( 12-C , 14-H ) :   0.9751 B( 12-C , 15-H ) :   0.9746
B( 16-S , 17-C ) :   1.1712 B( 16-S , 20-C ) :   1.1712 B( 17-C , 18-C ) :   1.5876
B( 17-C , 33-H ) :   0.9711 B( 18-C , 19-C ) :   1.2445 B( 18-C , 21-H ) :   0.9867
B( 19-C , 20-C ) :   1.5859 B( 19-C , 22-C ) :   1.0595 B( 22-C , 23-H ) :   0.9360
B( 22-C , 24-H ) :   0.9282 B( 22-C , 25-C ) :   1.0678 B( 25-C , 26-H ) :   0.9485
B( 25-C , 27-H ) :   0.9535 B( 25-C , 28-C ) :   1.0785 B( 28-C , 29-H ) :   0.9703
B( 28-C , 30-H ) :   0.9750 B( 28-C , 31-H ) :   0.9742

Dispersion correction           -0.013555892
FINAL SINGLE POINT ENERGY     -1339.884588329684

DIPOLE MOMENT
-------------
                                X             Y             Z
Electronic contribution:      0.58099     -29.26665     -11.01334
Nuclear contribution   :     -0.33043      29.82102      11.29719
                        -----------------------------------------
Total Dipole Moment    :      0.25056       0.55437       0.28385
                        -----------------------------------------
Magnitude (a.u.)       :      0.67132
Magnitude (Debye)      :      1.70637

Rotational constants in cm-1:     0.017431     0.008281     0.006032
Rotational constants in MHz :   522.564780   248.269862   180.821716

                             ****ORCA TERMINATED NORMALLY****
TOTAL RUN TIME: 0 days 0 hours 0 minutes 20 seconds 902 msec
