                         Program Version 4.2.1 -  RELEASE  -
|  1> ! wB97X-D3 SP def2-SVP
|  2> %pal
|  3> nprocs 24
|  4> end
|  5>
|  6> * xyz 0 1
|  7> S 	 -103.304 	 61.4906 	 -9.83793
|  8> C 	 -103.705 	 62.8714 	 -8.82796
|  9> C 	 -103.742 	 64.076 	 -9.52179
| 10> C 	 -103.237 	 63.8147 	 -10.8749
| 11> C 	 -102.925 	 62.547 	 -11.1924
| 12> H 	 -103.135 	 64.5751 	 -11.617
| 13> C 	 -104.169 	 65.4314 	 -8.94379
| 14> H 	 -103.788 	 66.243 	 -9.63438
| 15> H 	 -103.771 	 65.5116 	 -7.96703
| 16> C 	 -105.655 	 65.5791 	 -8.73649
| 17> H 	 -106.115 	 65.7669 	 -9.70658
| 18> H 	 -106.14 	 64.6811 	 -8.33246
| 19> C 	 -106.013 	 66.7344 	 -7.88404
| 20> H 	 -105.812 	 66.6173 	 -6.80676
| 21> H 	 -105.755 	 67.7185 	 -8.18502
| 22> H 	 -107.056 	 66.8883 	 -8.03378
| 23> S 	 -103.472 	 60.9505 	 -13.3779
| 24> C 	 -102.182 	 60.7165 	 -14.5655
| 25> C 	 -101.129 	 61.5895 	 -14.3663
| 26> C 	 -101.258 	 62.3278 	 -13.1157
| 27> C 	 -102.435 	 62.0521 	 -12.4385
| 28> H 	 -100.366 	 61.6557 	 -15.046
| 29> C 	 -100.155 	 63.2499 	 -12.6906
| 30> H 	 -100.502 	 64.2701 	 -12.5074
| 31> H 	 -99.3974 	 63.4186 	 -13.5412
| 32> C 	 -99.2535 	 62.8843 	 -11.5156
| 33> H 	 -98.3932 	 63.5501 	 -11.5622
| 34> H 	 -99.0055 	 61.806 	 -11.6425
| 35> C 	 -99.9622 	 63.2313 	 -10.1803
| 36> H 	 -100.83 	 62.6903 	 -9.97062
| 37> H 	 -100.344 	 64.2814 	 -10.1443
| 38> H 	 -99.239 	 63.2306 	 -9.35408
| 39> H 	 -104.02 	 62.7632 	 -7.76707
| 40> H 	 -102.382 	 60.1373 	 -15.4846
| 41> *
| 42>
| 43>                          ****END OF INPUT****

CARTESIAN COORDINATES (ANGSTROEM)
---------------------------------
  S    -103.304000   61.490600   -9.837930
  C    -103.705000   62.871400   -8.827960
  C    -103.742000   64.076000   -9.521790
  C    -103.237000   63.814700  -10.874900
  C    -102.925000   62.547000  -11.192400
  H    -103.135000   64.575100  -11.617000
  C    -104.169000   65.431400   -8.943790
  H    -103.788000   66.243000   -9.634380
  H    -103.771000   65.511600   -7.967030
  C    -105.655000   65.579100   -8.736490
  H    -106.115000   65.766900   -9.706580
  H    -106.140000   64.681100   -8.332460
  C    -106.013000   66.734400   -7.884040
  H    -105.812000   66.617300   -6.806760
  H    -105.755000   67.718500   -8.185020
  H    -107.056000   66.888300   -8.033780
  S    -103.472000   60.950500  -13.377900
  C    -102.182000   60.716500  -14.565500
  C    -101.129000   61.589500  -14.366300
  C    -101.258000   62.327800  -13.115700
  C    -102.435000   62.052100  -12.438500
  H    -100.366000   61.655700  -15.046000
  C    -100.155000   63.249900  -12.690600
  H    -100.502000   64.270100  -12.507400
  H    -99.397400   63.418600  -13.541200
  C    -99.253500   62.884300  -11.515600
  H    -98.393200   63.550100  -11.562200
  H    -99.005500   61.806000  -11.642500
  C    -99.962200   63.231300  -10.180300
  H    -100.830000   62.690300   -9.970620
  H    -100.344000   64.281400  -10.144300
  H    -99.239000   63.230600   -9.354080
  H    -104.020000   62.763200   -7.767070
  H    -102.382000   60.137300  -15.484600

 Total Charge           Charge          ....    0
 Multiplicity           Mult            ....    1
 Number of Electrons    NEL             ....  134
 Basis Dimension        Dim             ....  322

ORBITAL ENERGIES
----------------

  NO   OCC          E(Eh)            E(eV)
   0   2.0000     -88.965554     -2420.8758
   1   2.0000     -88.964050     -2420.8349
   2   2.0000     -10.326660      -281.0027
   3   2.0000     -10.323219      -280.9091
   4   2.0000     -10.321868      -280.8723
   5   2.0000     -10.319958      -280.8203
   6   2.0000     -10.307612      -280.4844
   7   2.0000     -10.306832      -280.4632
   8   2.0000     -10.296166      -280.1729
   9   2.0000     -10.292758      -280.0802
  10   2.0000     -10.292639      -280.0770
  11   2.0000     -10.290767      -280.0260
  12   2.0000     -10.284726      -279.8616
  13   2.0000     -10.283930      -279.8400
  14   2.0000     -10.271177      -279.4929
  15   2.0000     -10.263074      -279.2724
  16   2.0000      -8.079694      -219.8597
  17   2.0000      -8.078336      -219.8227
  18   2.0000      -6.038341      -164.3116
  19   2.0000      -6.036869      -164.2716
  20   2.0000      -6.034303      -164.2017
  21   2.0000      -6.032980      -164.1657
  22   2.0000      -6.030287      -164.0925
  23   2.0000      -6.029017      -164.0579
  24   2.0000      -1.005292       -27.3554
  25   2.0000      -0.979094       -26.6425
  26   2.0000      -0.921478       -25.0747
  27   2.0000      -0.905052       -24.6277
  28   2.0000      -0.874564       -23.7981
  29   2.0000      -0.849542       -23.1172
  30   2.0000      -0.842442       -22.9240
  31   2.0000      -0.816611       -22.2211
  32   2.0000      -0.785160       -21.3653
  33   2.0000      -0.769478       -20.9386
  34   2.0000      -0.705692       -19.2028
  35   2.0000      -0.700634       -19.0652
  36   2.0000      -0.685432       -18.6516
  37   2.0000      -0.665239       -18.1021
  38   2.0000      -0.644474       -17.5370
  39   2.0000      -0.621332       -16.9073
  40   2.0000      -0.597916       -16.2701
  41   2.0000      -0.578130       -15.7317
  42   2.0000      -0.566753       -15.4221
  43   2.0000      -0.552403       -15.0316
  44   2.0000      -0.537197       -14.6179
  45   2.0000      -0.522307       -14.2127
  46   2.0000      -0.516514       -14.0550
  47   2.0000      -0.510107       -13.8807
  48   2.0000      -0.507137       -13.7999
  49   2.0000      -0.498728       -13.5711
  50   2.0000      -0.489144       -13.3103
  51   2.0000      -0.483505       -13.1568
  52   2.0000      -0.466617       -12.6973
  53   2.0000      -0.462825       -12.5941
  54   2.0000      -0.459285       -12.4978
  55   2.0000      -0.447703       -12.1826
  56   2.0000      -0.440500       -11.9866
  57   2.0000      -0.430274       -11.7084
  58   2.0000      -0.425916       -11.5898
  59   2.0000      -0.424518       -11.5517
  60   2.0000      -0.421983       -11.4827
  61   2.0000      -0.419932       -11.4269
  62   2.0000      -0.400400       -10.8954
  63   2.0000      -0.343301        -9.3417
  64   2.0000      -0.330497        -8.9933
  65   2.0000      -0.327116        -8.9013
  66   2.0000      -0.298816        -8.1312
  67   0.0000       0.034179         0.9301
  68   0.0000       0.060125         1.6361
  69   0.0000       0.105516         2.8712
  70   0.0000       0.118568         3.2264
  71   0.0000       0.128037         3.4841

MULLIKEN ATOMIC CHARGES
-----------------------
   0 S :    0.112835
   1 C :   -0.149018
   2 C :   -0.080348
   3 C :    0.045762
   4 C :   -0.193315
   5 H :   -0.004386
   6 C :    0.101554
   7 H :    0.035959
   8 H :    0.014879
   9 C :   -0.080170
  10 H :    0.022668
  11 H :    0.034842
  12 C :   -0.022377
  13 H :    0.039534
  14 H :    0.009951
  15 H :    0.013881
  16 S :    0.100363
  17 C :   -0.101260
  18 C :    0.003283
  19 C :    0.012403
  20 C :   -0.156019
  21 H :   -0.011964
  22 C :    0.006940
  23 H :    0.019515
  24 H :    0.023297
  25 C :   -0.041680
  26 H :    0.028013
  27 H :    0.041332
  28 C :   -0.027420
  29 H :    0.029250
  30 H :    0.013601
  31 H :    0.024636
  32 H :    0.060928
  33 H :    0.072531
Sum of atomic charges:   -0.0000000

LOEWDIN ATOMIC CHARGES
----------------------
   0 S :    0.398836
   1 C :   -0.194708
   2 C :   -0.059303
   3 C :   -0.052470
   4 C :   -0.202081
   5 H :    0.024944
   6 C :   -0.028983
   7 H :    0.039486
   8 H :    0.026917
   9 C :   -0.042453
  10 H :    0.026124
  11 H :    0.028886
  12 C :   -0.071204
  13 H :    0.027158
  14 H :    0.021517
  15 H :    0.029307
  16 S :    0.382936
  17 C :   -0.175902
  18 C :   -0.055615
  19 C :   -0.048818
  20 C :   -0.190857
  21 H :    0.017194
  22 C :   -0.044934
  23 H :    0.026744
  24 H :    0.036344
  25 C :   -0.033644
  26 H :    0.025772
  27 H :    0.030266
  28 C :   -0.067121
  29 H :    0.009325
  30 H :    0.026320
  31 H :    0.022542
  32 H :    0.033182
  33 H :    0.034292

  Mayer bond orders larger than 0.100000
B(  0-S ,  1-C ) :   1.1400 B(  0-S ,  4-C ) :   1.1176 B(  1-C ,  2-C ) :   1.6249
B(  1-C , 32-H ) :   0.9607 B(  2-C ,  3-C ) :   1.2128 B(  2-C ,  6-C ) :   1.0201
B(  3-C ,  4-C ) :   1.6272 B(  3-C ,  5-H ) :   1.0006 B(  4-C , 20-C ) :   1.0421
B(  6-C ,  7-H ) :   0.9391 B(  6-C ,  8-H ) :   0.9373 B(  6-C ,  9-C ) :   1.0708
B(  9-C , 10-H ) :   0.9496 B(  9-C , 11-H ) :   0.9550 B(  9-C , 12-C ) :   1.1017
B( 12-C , 13-H ) :   0.9717 B( 12-C , 14-H ) :   0.9644 B( 12-C , 15-H ) :   0.9637
B( 16-S , 17-C ) :   1.1450 B( 16-S , 20-C ) :   1.1324 B( 17-C , 18-C ) :   1.6205
B( 17-C , 33-H ) :   0.9615 B( 18-C , 19-C ) :   1.2178 B( 18-C , 21-H ) :   1.0034
B( 19-C , 20-C ) :   1.6083 B( 19-C , 22-C ) :   1.0486 B( 22-C , 23-H ) :   0.9299
B( 22-C , 24-H ) :   0.9367 B( 22-C , 25-C ) :   1.0785 B( 25-C , 26-H ) :   0.9511
B( 25-C , 27-H ) :   0.9518 B( 25-C , 28-C ) :   1.0833 B( 28-C , 29-H ) :   0.9727
B( 28-C , 30-H ) :   0.9656 B( 28-C , 31-H ) :   0.9719

Dispersion correction           -0.015462119
FINAL SINGLE POINT ENERGY     -1339.872508926691

DIPOLE MOMENT
-------------
                                X             Y             Z
Electronic contribution:     -3.60989     -21.93567     -12.65616
Nuclear contribution   :      3.62551      22.62982      12.65510
                        -----------------------------------------
Total Dipole Moment    :      0.01561       0.69415      -0.00106
                        -----------------------------------------
Magnitude (a.u.)       :      0.69432
Magnitude (Debye)      :      1.76483

Rotational constants in cm-1:     0.022834     0.007898     0.007002
Rotational constants in MHz :   684.538682   236.789797   209.916392

                             ****ORCA TERMINATED NORMALLY****
TOTAL RUN TIME: 0 days 0 hours 0 minutes 22 seconds 352 msec
