                         Program Version 4.2.1 -  RELEASE  -
|  1> ! wB97X-D3 SP def2-SVP
|  2> %pal
|  3> nprocs 24
|  4> end
|  5>
|  6> * xyz 0 1
|  7> S 	 43.7596 	 -18.9031 	 -111.876
|  8> C 	 44.93 	 -17.8812 	 -110.978
|  9> C 	 45.533 	 -18.646 	 -109.967
| 10> C 	 45.1752 	 -20.0438 	 -110.092
| 11> C 	 44.33 	 -20.3732 	 -111.149
| 12> H 	 45.5385 	 -20.8838 	 -109.444
| 13> C 	 46.6249 	 -18.1252 	 -109.038
| 14> H 	 46.1128 	 -17.4094 	 -108.41
| 15> H 	 47.3947 	 -17.5558 	 -109.543
| 16> C 	 47.3005 	 -19.2373 	 -108.217
| 17> H 	 47.4761 	 -20.1375 	 -108.66
| 18> H 	 48.2948 	 -18.8449 	 -107.821
| 19> C 	 46.6245 	 -19.574 	 -106.874
| 20> H 	 46.5024 	 -18.6773 	 -106.212
| 21> H 	 45.5904 	 -19.8361 	 -107.125
| 22> H 	 47.1515 	 -20.4133 	 -106.423
| 23> S 	 42.1977 	 -21.7711 	 -112.282
| 24> C 	 42.2924 	 -23.488 	 -112.613
| 25> C 	 43.5376 	 -23.9557 	 -112.219
| 26> C 	 44.4012 	 -22.9384 	 -111.671
| 27> C 	 43.8799 	 -21.6797 	 -111.694
| 28> H 	 43.7412 	 -25.1054 	 -112.214
| 29> C 	 45.7612 	 -23.3423 	 -111.157
| 30> H 	 45.7239 	 -24.3 	 -110.626
| 31> H 	 46.0319 	 -22.6012 	 -110.328
| 32> C 	 46.9754 	 -23.4276 	 -112.097
| 33> H 	 47.0378 	 -22.5727 	 -112.771
| 34> H 	 46.8568 	 -24.2045 	 -112.848
| 35> C 	 48.4081 	 -23.5127 	 -111.328
| 36> H 	 48.4928 	 -22.6299 	 -110.663
| 37> H 	 49.1939 	 -23.4953 	 -112.067
| 38> H 	 48.4162 	 -24.2885 	 -110.636
| 39> H 	 45.1481 	 -16.8311 	 -111.068
| 40> H 	 41.4219 	 -24.02 	 -112.914
| 41> *
| 42>
| 43>                          ****END OF INPUT****

CARTESIAN COORDINATES (ANGSTROEM)
---------------------------------
  S     43.759600  -18.903100  -111.876000
  C     44.930000  -17.881200  -110.978000
  C     45.533000  -18.646000  -109.967000
  C     45.175200  -20.043800  -110.092000
  C     44.330000  -20.373200  -111.149000
  H     45.538500  -20.883800  -109.444000
  C     46.624900  -18.125200  -109.038000
  H     46.112800  -17.409400  -108.410000
  H     47.394700  -17.555800  -109.543000
  C     47.300500  -19.237300  -108.217000
  H     47.476100  -20.137500  -108.660000
  H     48.294800  -18.844900  -107.821000
  C     46.624500  -19.574000  -106.874000
  H     46.502400  -18.677300  -106.212000
  H     45.590400  -19.836100  -107.125000
  H     47.151500  -20.413300  -106.423000
  S     42.197700  -21.771100  -112.282000
  C     42.292400  -23.488000  -112.613000
  C     43.537600  -23.955700  -112.219000
  C     44.401200  -22.938400  -111.671000
  C     43.879900  -21.679700  -111.694000
  H     43.741200  -25.105400  -112.214000
  C     45.761200  -23.342300  -111.157000
  H     45.723900  -24.300000  -110.626000
  H     46.031900  -22.601200  -110.328000
  C     46.975400  -23.427600  -112.097000
  H     47.037800  -22.572700  -112.771000
  H     46.856800  -24.204500  -112.848000
  C     48.408100  -23.512700  -111.328000
  H     48.492800  -22.629900  -110.663000
  H     49.193900  -23.495300  -112.067000
  H     48.416200  -24.288500  -110.636000
  H     45.148100  -16.831100  -111.068000
  H     41.421900  -24.020000  -112.914000

 Total Charge           Charge          ....    0
 Multiplicity           Mult            ....    1
 Number of Electrons    NEL             ....  134
 Basis Dimension        Dim             ....  322

ORBITAL ENERGIES
----------------

  NO   OCC          E(Eh)            E(eV)
   0   2.0000     -88.967060     -2420.9168
   1   2.0000     -88.964446     -2420.8456
   2   2.0000     -10.337069      -281.2859
   3   2.0000     -10.335867      -281.2533
   4   2.0000     -10.322318      -280.8846
   5   2.0000     -10.318772      -280.7880
   6   2.0000     -10.309040      -280.5232
   7   2.0000     -10.307864      -280.4913
   8   2.0000     -10.307010      -280.4680
   9   2.0000     -10.302292      -280.3396
  10   2.0000     -10.298622      -280.2398
  11   2.0000     -10.297030      -280.1964
  12   2.0000     -10.290425      -280.0167
  13   2.0000     -10.286182      -279.9012
  14   2.0000     -10.282664      -279.8055
  15   2.0000     -10.280968      -279.7594
  16   2.0000      -8.081128      -219.8987
  17   2.0000      -8.079092      -219.8433
  18   2.0000      -6.039841      -164.3524
  19   2.0000      -6.037726      -164.2949
  20   2.0000      -6.035659      -164.2386
  21   2.0000      -6.033591      -164.1823
  22   2.0000      -6.031756      -164.1324
  23   2.0000      -6.029733      -164.0774
  24   2.0000      -1.005058       -27.3490
  25   2.0000      -0.981750       -26.7148
  26   2.0000      -0.914636       -24.8885
  27   2.0000      -0.901732       -24.5374
  28   2.0000      -0.869037       -23.6477
  29   2.0000      -0.848079       -23.0774
  30   2.0000      -0.836863       -22.7722
  31   2.0000      -0.816235       -22.2109
  32   2.0000      -0.782919       -21.3043
  33   2.0000      -0.776381       -21.1264
  34   2.0000      -0.712011       -19.3748
  35   2.0000      -0.702355       -19.1120
  36   2.0000      -0.693885       -18.8816
  37   2.0000      -0.662107       -18.0169
  38   2.0000      -0.641922       -17.4676
  39   2.0000      -0.620699       -16.8901
  40   2.0000      -0.599695       -16.3185
  41   2.0000      -0.568394       -15.4668
  42   2.0000      -0.554928       -15.1004
  43   2.0000      -0.549259       -14.9461
  44   2.0000      -0.531153       -14.4534
  45   2.0000      -0.529262       -14.4020
  46   2.0000      -0.527926       -14.3656
  47   2.0000      -0.514025       -13.9873
  48   2.0000      -0.502647       -13.6777
  49   2.0000      -0.499809       -13.6005
  50   2.0000      -0.493127       -13.4187
  51   2.0000      -0.489838       -13.3292
  52   2.0000      -0.472447       -12.8559
  53   2.0000      -0.462553       -12.5867
  54   2.0000      -0.458467       -12.4755
  55   2.0000      -0.449426       -12.2295
  56   2.0000      -0.446965       -12.1625
  57   2.0000      -0.442206       -12.0330
  58   2.0000      -0.433080       -11.7847
  59   2.0000      -0.421279       -11.4636
  60   2.0000      -0.414133       -11.2691
  61   2.0000      -0.409897       -11.1539
  62   2.0000      -0.406709       -11.0671
  63   2.0000      -0.356307        -9.6956
  64   2.0000      -0.332781        -9.0554
  65   2.0000      -0.327383        -8.9085
  66   2.0000      -0.289818        -7.8863
  67   0.0000       0.020429         0.5559
  68   0.0000       0.070439         1.9167
  69   0.0000       0.096595         2.6285
  70   0.0000       0.111603         3.0369
  71   0.0000       0.131716         3.5842

MULLIKEN ATOMIC CHARGES
-----------------------
   0 S :    0.101592
   1 C :   -0.112954
   2 C :   -0.101613
   3 C :   -0.022556
   4 C :   -0.123552
   5 H :    0.041137
   6 C :    0.094324
   7 H :    0.031253
   8 H :    0.042922
   9 C :   -0.083587
  10 H :    0.012763
  11 H :    0.031070
  12 C :   -0.074244
  13 H :    0.037894
  14 H :    0.024106
  15 H :    0.043883
  16 S :    0.076577
  17 C :   -0.088009
  18 C :   -0.049277
  19 C :   -0.065164
  20 C :   -0.088684
  21 H :    0.057557
  22 C :    0.039870
  23 H :    0.025416
  24 H :    0.002288
  25 C :   -0.059758
  26 H :    0.025560
  27 H :    0.020417
  28 C :   -0.035459
  29 H :    0.028622
  30 H :    0.044901
  31 H :    0.019061
  32 H :    0.043597
  33 H :    0.060045
Sum of atomic charges:   -0.0000000

LOEWDIN ATOMIC CHARGES
----------------------
   0 S :    0.396660
   1 C :   -0.188253
   2 C :   -0.057561
   3 C :   -0.080624
   4 C :   -0.189847
   5 H :    0.034403
   6 C :   -0.028042
   7 H :    0.035501
   8 H :    0.036212
   9 C :   -0.040047
  10 H :    0.007275
  11 H :    0.032732
  12 C :   -0.066961
  13 H :    0.027891
  14 H :    0.019223
  15 H :    0.027388
  16 S :    0.385716
  17 C :   -0.174967
  18 C :   -0.080599
  19 C :   -0.064962
  20 C :   -0.179725
  21 H :    0.050032
  22 C :   -0.040181
  23 H :    0.031518
  24 H :    0.031651
  25 C :   -0.038578
  26 H :    0.024075
  27 H :    0.019372
  28 C :   -0.053757
  29 H :    0.027816
  30 H :    0.028105
  31 H :    0.012811
  32 H :    0.029207
  33 H :    0.026516

  Mayer bond orders larger than 0.100000
B(  0-S ,  1-C ) :   1.1289 B(  0-S ,  4-C ) :   1.1531 B(  1-C ,  2-C ) :   1.6194
B(  1-C ,  4-C ) :   0.1078 B(  1-C , 32-H ) :   0.9742 B(  2-C ,  3-C ) :   1.2470
B(  2-C ,  6-C ) :   0.9969 B(  3-C ,  4-C ) :   1.5779 B(  3-C ,  5-H ) :   0.9654
B(  4-C , 20-C ) :   1.0274 B(  6-C ,  7-H ) :   0.9337 B(  6-C ,  8-H ) :   0.9484
B(  6-C ,  9-C ) :   1.0777 B(  9-C , 10-H ) :   0.9563 B(  9-C , 11-H ) :   0.9568
B(  9-C , 12-C ) :   1.0755 B( 12-C , 13-H ) :   0.9743 B( 12-C , 14-H ) :   0.9771
B( 12-C , 15-H ) :   0.9752 B( 16-S , 17-C ) :   1.1561 B( 16-S , 20-C ) :   1.1216
B( 17-C , 18-C ) :   1.5999 B( 17-C , 33-H ) :   0.9750 B( 18-C , 19-C ) :   1.2334
B( 18-C , 21-H ) :   0.9748 B( 19-C , 20-C ) :   1.6344 B( 19-C , 22-C ) :   1.0477
B( 22-C , 23-H ) :   0.9296 B( 22-C , 24-H ) :   0.9359 B( 22-C , 25-C ) :   1.0610
B( 25-C , 26-H ) :   0.9569 B( 25-C , 27-H ) :   0.9556 B( 25-C , 28-C ) :   1.0638
B( 28-C , 29-H ) :   0.9761 B( 28-C , 30-H ) :   0.9769 B( 28-C , 31-H ) :   0.9805

Dispersion correction           -0.014147924
FINAL SINGLE POINT ENERGY     -1339.859875874860

DIPOLE MOMENT
-------------
                                X             Y             Z
Electronic contribution:    -26.33779       5.89479     -16.22528
Nuclear contribution   :     26.90740      -6.15319      16.61736
                        -----------------------------------------
Total Dipole Moment    :      0.56960      -0.25839       0.39208
                        -----------------------------------------
Magnitude (a.u.)       :      0.73820
Magnitude (Debye)      :      1.87636

Rotational constants in cm-1:     0.016138     0.009900     0.007067
Rotational constants in MHz :   483.804643   296.792839   211.851620

                             ****ORCA TERMINATED NORMALLY****
TOTAL RUN TIME: 0 days 0 hours 0 minutes 21 seconds 955 msec
