                         Program Version 4.2.1 -  RELEASE  -
|  1> ! wB97X-D3 SP def2-SVP
|  2> %pal
|  3> nprocs 24
|  4> end
|  5>
|  6> * xyz 0 1
|  7> S 	 -39.4753 	 -11.6947 	 13.3934
|  8> C 	 -40.6616 	 -11.0736 	 14.4706
|  9> C 	 -40.4862 	 -11.5162 	 15.7589
| 10> C 	 -39.2824 	 -12.2818 	 15.9614
| 11> C 	 -38.5661 	 -12.3427 	 14.7762
| 12> H 	 -38.8298 	 -12.6756 	 16.8897
| 13> C 	 -41.3104 	 -11.0339 	 16.8723
| 14> H 	 -41.1746 	 -11.6332 	 17.7905
| 15> H 	 -42.3509 	 -11.2022 	 16.5419
| 16> C 	 -41.3047 	 -9.54825 	 17.0683
| 17> H 	 -40.3515 	 -9.03655 	 16.7738
| 18> H 	 -41.9724 	 -9.10921 	 16.3164
| 19> C 	 -41.7371 	 -9.20743 	 18.4682
| 20> H 	 -41.4151 	 -9.96347 	 19.1654
| 21> H 	 -41.3934 	 -8.2331 	 18.8572
| 22> H 	 -42.8188 	 -9.15148 	 18.4896
| 23> S 	 -37.0934 	 -14.6663 	 15.2015
| 24> C 	 -35.3712 	 -14.5922 	 14.9289
| 25> C 	 -35.0294 	 -13.3734 	 14.478
| 26> C 	 -36.1051 	 -12.4946 	 14.2132
| 27> C 	 -37.2988 	 -13.0052 	 14.6289
| 28> H 	 -34.0171 	 -13.1355 	 14.3588
| 29> C 	 -35.9002 	 -11.1672 	 13.5513
| 30> H 	 -36.6947 	 -10.4806 	 13.6739
| 31> H 	 -35.9598 	 -11.3782 	 12.4591
| 32> C 	 -34.6197 	 -10.3595 	 13.709
| 33> H 	 -34.5847 	 -9.57051 	 12.9316
| 34> H 	 -33.7659 	 -11.0017 	 13.5725
| 35> C 	 -34.5986 	 -9.63091 	 15.0832
| 36> H 	 -35.5801 	 -9.15494 	 15.0749
| 37> H 	 -33.9065 	 -8.83183 	 15.1359
| 38> H 	 -34.3945 	 -10.3707 	 15.8592
| 39> H 	 -41.5111 	 -10.4274 	 14.2271
| 40> H 	 -34.7095 	 -15.4206 	 15.0167
| 41> *
| 42>
| 43>                          ****END OF INPUT****

CARTESIAN COORDINATES (ANGSTROEM)
---------------------------------
  S    -39.475300  -11.694700   13.393400
  C    -40.661600  -11.073600   14.470600
  C    -40.486200  -11.516200   15.758900
  C    -39.282400  -12.281800   15.961400
  C    -38.566100  -12.342700   14.776200
  H    -38.829800  -12.675600   16.889700
  C    -41.310400  -11.033900   16.872300
  H    -41.174600  -11.633200   17.790500
  H    -42.350900  -11.202200   16.541900
  C    -41.304700   -9.548250   17.068300
  H    -40.351500   -9.036550   16.773800
  H    -41.972400   -9.109210   16.316400
  C    -41.737100   -9.207430   18.468200
  H    -41.415100   -9.963470   19.165400
  H    -41.393400   -8.233100   18.857200
  H    -42.818800   -9.151480   18.489600
  S    -37.093400  -14.666300   15.201500
  C    -35.371200  -14.592200   14.928900
  C    -35.029400  -13.373400   14.478000
  C    -36.105100  -12.494600   14.213200
  C    -37.298800  -13.005200   14.628900
  H    -34.017100  -13.135500   14.358800
  C    -35.900200  -11.167200   13.551300
  H    -36.694700  -10.480600   13.673900
  H    -35.959800  -11.378200   12.459100
  C    -34.619700  -10.359500   13.709000
  H    -34.584700   -9.570510   12.931600
  H    -33.765900  -11.001700   13.572500
  C    -34.598600   -9.630910   15.083200
  H    -35.580100   -9.154940   15.074900
  H    -33.906500   -8.831830   15.135900
  H    -34.394500  -10.370700   15.859200
  H    -41.511100  -10.427400   14.227100
  H    -34.709500  -15.420600   15.016700

 Total Charge           Charge          ....    0
 Multiplicity           Mult            ....    1
 Number of Electrons    NEL             ....  134
 Basis Dimension        Dim             ....  322

ORBITAL ENERGIES
----------------

  NO   OCC          E(Eh)            E(eV)
   0   2.0000     -88.967881     -2420.9391
   1   2.0000     -88.961831     -2420.7745
   2   2.0000     -10.326949      -281.0106
   3   2.0000     -10.319388      -280.8048
   4   2.0000     -10.311861      -280.6000
   5   2.0000     -10.307094      -280.4703
   6   2.0000     -10.298771      -280.2438
   7   2.0000     -10.296038      -280.1694
   8   2.0000     -10.294678      -280.1324
   9   2.0000     -10.285880      -279.8930
  10   2.0000     -10.284772      -279.8629
  11   2.0000     -10.284757      -279.8625
  12   2.0000     -10.283813      -279.8368
  13   2.0000     -10.283656      -279.8325
  14   2.0000     -10.274753      -279.5902
  15   2.0000     -10.271843      -279.5111
  16   2.0000      -8.082179      -219.9273
  17   2.0000      -8.076555      -219.7742
  18   2.0000      -6.040699      -164.3758
  19   2.0000      -6.036812      -164.2700
  20   2.0000      -6.035092      -164.2232
  21   2.0000      -6.032899      -164.1635
  22   2.0000      -6.031114      -164.1150
  23   2.0000      -6.027231      -164.0093
  24   2.0000      -1.009334       -27.4654
  25   2.0000      -0.987842       -26.8805
  26   2.0000      -0.921447       -25.0738
  27   2.0000      -0.911499       -24.8032
  28   2.0000      -0.874565       -23.7981
  29   2.0000      -0.853072       -23.2133
  30   2.0000      -0.847287       -23.0559
  31   2.0000      -0.817106       -22.2346
  32   2.0000      -0.783214       -21.3123
  33   2.0000      -0.768527       -20.9127
  34   2.0000      -0.708080       -19.2678
  35   2.0000      -0.701129       -19.0787
  36   2.0000      -0.698044       -18.9947
  37   2.0000      -0.659450       -17.9445
  38   2.0000      -0.638204       -17.3664
  39   2.0000      -0.614614       -16.7245
  40   2.0000      -0.607499       -16.5309
  41   2.0000      -0.575179       -15.6514
  42   2.0000      -0.561854       -15.2888
  43   2.0000      -0.553345       -15.0573
  44   2.0000      -0.546137       -14.8611
  45   2.0000      -0.525875       -14.3098
  46   2.0000      -0.518865       -14.1190
  47   2.0000      -0.517586       -14.0842
  48   2.0000      -0.504544       -13.7293
  49   2.0000      -0.500368       -13.6157
  50   2.0000      -0.486522       -13.2389
  51   2.0000      -0.479763       -13.0550
  52   2.0000      -0.471009       -12.8168
  53   2.0000      -0.465285       -12.6610
  54   2.0000      -0.456922       -12.4335
  55   2.0000      -0.452959       -12.3257
  56   2.0000      -0.446121       -12.1396
  57   2.0000      -0.441708       -12.0195
  58   2.0000      -0.431782       -11.7494
  59   2.0000      -0.425408       -11.5759
  60   2.0000      -0.423554       -11.5255
  61   2.0000      -0.413367       -11.2483
  62   2.0000      -0.400999       -10.9117
  63   2.0000      -0.345289        -9.3958
  64   2.0000      -0.332532        -9.0487
  65   2.0000      -0.323545        -8.8041
  66   2.0000      -0.291767        -7.9394
  67   0.0000       0.033163         0.9024
  68   0.0000       0.071139         1.9358
  69   0.0000       0.109307         2.9744
  70   0.0000       0.122484         3.3330
  71   0.0000       0.132223         3.5980

MULLIKEN ATOMIC CHARGES
-----------------------
   0 S :    0.123789
   1 C :   -0.129907
   2 C :   -0.069283
   3 C :    0.009173
   4 C :   -0.173297
   5 H :    0.032988
   6 C :    0.045897
   7 H :    0.027416
   8 H :    0.027870
   9 C :   -0.083179
  10 H :    0.035709
  11 H :    0.019664
  12 C :   -0.029022
  13 H :    0.028033
  14 H :    0.032843
  15 H :    0.025491
  16 S :    0.103359
  17 C :   -0.075074
  18 C :   -0.020431
  19 C :    0.015930
  20 C :   -0.169421
  21 H :   -0.005675
  22 C :    0.054475
  23 H :    0.005707
  24 H :    0.043146
  25 C :   -0.088349
  26 H :    0.029205
  27 H :    0.022028
  28 C :   -0.024827
  29 H :    0.024878
  30 H :    0.023325
  31 H :    0.044051
  32 H :    0.046439
  33 H :    0.047052
Sum of atomic charges:   -0.0000000

LOEWDIN ATOMIC CHARGES
----------------------
   0 S :    0.411343
   1 C :   -0.216108
   2 C :   -0.062959
   3 C :   -0.061218
   4 C :   -0.179640
   5 H :    0.040053
   6 C :   -0.041629
   7 H :    0.030179
   8 H :    0.039450
   9 C :   -0.047723
  10 H :    0.025221
  11 H :    0.022183
  12 C :   -0.063164
  13 H :    0.022821
  14 H :    0.028930
  15 H :    0.025898
  16 S :    0.395107
  17 C :   -0.173284
  18 C :   -0.069466
  19 C :   -0.050367
  20 C :   -0.198411
  21 H :    0.021726
  22 C :   -0.038186
  23 H :    0.018114
  24 H :    0.044675
  25 C :   -0.037503
  26 H :    0.028973
  27 H :    0.013578
  28 C :   -0.059877
  29 H :    0.027996
  30 H :    0.017027
  31 H :    0.028093
  32 H :    0.031292
  33 H :    0.026877

  Mayer bond orders larger than 0.100000
B(  0-S ,  1-C ) :   1.1260 B(  0-S ,  4-C ) :   1.1458 B(  1-C ,  2-C ) :   1.6140
B(  1-C , 32-H ) :   0.9684 B(  2-C ,  3-C ) :   1.2201 B(  2-C ,  6-C ) :   1.0447
B(  3-C ,  4-C ) :   1.5842 B(  3-C ,  5-H ) :   0.9924 B(  4-C , 20-C ) :   1.0432
B(  6-C ,  7-H ) :   0.9540 B(  6-C ,  8-H ) :   0.9236 B(  6-C ,  9-C ) :   1.0485
B(  9-C , 10-H ) :   0.9643 B(  9-C , 11-H ) :   0.9491 B(  9-C , 12-C ) :   1.0778
B( 12-C , 13-H ) :   0.9803 B( 12-C , 14-H ) :   0.9740 B( 12-C , 15-H ) :   0.9740
B( 16-S , 17-C ) :   1.1461 B( 16-S , 20-C ) :   1.1269 B( 17-C , 18-C ) :   1.6195
B( 17-C , 33-H ) :   0.9699 B( 18-C , 19-C ) :   1.2325 B( 18-C , 21-H ) :   1.0000
B( 19-C , 20-C ) :   1.5918 B( 19-C , 22-C ) :   1.0427 B( 22-C , 23-H ) :   0.9270
B( 22-C , 24-H ) :   0.9206 B( 22-C , 25-C ) :   1.0916 B( 25-C , 26-H ) :   0.9506
B( 25-C , 27-H ) :   0.9514 B( 25-C , 28-C ) :   1.0699 B( 28-C , 29-H ) :   0.9746
B( 28-C , 30-H ) :   0.9774 B( 28-C , 31-H ) :   0.9784

Dispersion correction           -0.014093559
FINAL SINGLE POINT ENERGY     -1339.876614482155

DIPOLE MOMENT
-------------
                                X             Y             Z
Electronic contribution:     -0.06499     -21.53521     -11.12002
Nuclear contribution   :      0.21586      21.96611      11.29726
                        -----------------------------------------
Total Dipole Moment    :      0.15087       0.43090       0.17724
                        -----------------------------------------
Magnitude (a.u.)       :      0.48975
Magnitude (Debye)      :      1.24484

Rotational constants in cm-1:     0.019359     0.007913     0.007009
Rotational constants in MHz :   580.370941   237.223047   210.129610

                             ****ORCA TERMINATED NORMALLY****
TOTAL RUN TIME: 0 days 0 hours 0 minutes 20 seconds 338 msec
