                         Program Version 4.2.1 -  RELEASE  -
|  1> ! wB97X-D3 SP def2-SVP
|  2> %pal
|  3> nprocs 24
|  4> end
|  5>
|  6> * xyz 0 1
|  7> S 	 -137.587 	 7.98919 	 -9.54242
|  8> C 	 -137.784 	 9.61414 	 -8.85191
|  9> C 	 -136.689 	 9.96413 	 -8.13666
| 10> C 	 -135.65 	 8.87873 	 -8.08568
| 11> C 	 -135.949 	 7.83426 	 -8.87032
| 12> H 	 -134.644 	 9.01044 	 -7.67587
| 13> C 	 -136.461 	 11.2841 	 -7.47104
| 14> H 	 -136.847 	 11.9094 	 -8.22124
| 15> H 	 -135.428 	 11.4495 	 -7.29523
| 16> C 	 -137.093 	 11.2945 	 -6.03441
| 17> H 	 -136.839 	 12.2537 	 -5.5674
| 18> H 	 -138.135 	 11.1871 	 -6.06193
| 19> C 	 -136.609 	 10.2917 	 -5.00473
| 20> H 	 -136.811 	 9.29973 	 -5.22409
| 21> H 	 -135.549 	 10.464 	 -4.92434
| 22> H 	 -137.028 	 10.5733 	 -4.0505
| 23> S 	 -135.872 	 5.28857 	 -9.98042
| 24> C 	 -134.407 	 4.39066 	 -10.0502
| 25> C 	 -133.39 	 5.09687 	 -9.48249
| 26> C 	 -133.782 	 6.36611 	 -8.91068
| 27> C 	 -135.114 	 6.62985 	 -9.14933
| 28> H 	 -132.351 	 4.68701 	 -9.46984
| 29> C 	 -132.794 	 7.26425 	 -8.23172
| 30> H 	 -133.383 	 7.47603 	 -7.34075
| 31> H 	 -132.638 	 8.16331 	 -8.84694
| 32> C 	 -131.454 	 6.58587 	 -7.86343
| 33> H 	 -131.095 	 6.12888 	 -8.73895
| 34> H 	 -131.604 	 5.85824 	 -7.14942
| 35> C 	 -130.502 	 7.66259 	 -7.36076
| 36> H 	 -130.597 	 8.5842 	 -7.92585
| 37> H 	 -129.515 	 7.28221 	 -7.46615
| 38> H 	 -130.634 	 7.74699 	 -6.2298
| 39> H 	 -138.664 	 10.2733 	 -8.90111
| 40> H 	 -134.242 	 3.38356 	 -10.3046
| 41> *
| 42>
| 43>                          ****END OF INPUT****

CARTESIAN COORDINATES (ANGSTROEM)
---------------------------------
  S    -137.587000    7.989190   -9.542420
  C    -137.784000    9.614140   -8.851910
  C    -136.689000    9.964130   -8.136660
  C    -135.650000    8.878730   -8.085680
  C    -135.949000    7.834260   -8.870320
  H    -134.644000    9.010440   -7.675870
  C    -136.461000   11.284100   -7.471040
  H    -136.847000   11.909400   -8.221240
  H    -135.428000   11.449500   -7.295230
  C    -137.093000   11.294500   -6.034410
  H    -136.839000   12.253700   -5.567400
  H    -138.135000   11.187100   -6.061930
  C    -136.609000   10.291700   -5.004730
  H    -136.811000    9.299730   -5.224090
  H    -135.549000   10.464000   -4.924340
  H    -137.028000   10.573300   -4.050500
  S    -135.872000    5.288570   -9.980420
  C    -134.407000    4.390660  -10.050200
  C    -133.390000    5.096870   -9.482490
  C    -133.782000    6.366110   -8.910680
  C    -135.114000    6.629850   -9.149330
  H    -132.351000    4.687010   -9.469840
  C    -132.794000    7.264250   -8.231720
  H    -133.383000    7.476030   -7.340750
  H    -132.638000    8.163310   -8.846940
  C    -131.454000    6.585870   -7.863430
  H    -131.095000    6.128880   -8.738950
  H    -131.604000    5.858240   -7.149420
  C    -130.502000    7.662590   -7.360760
  H    -130.597000    8.584200   -7.925850
  H    -129.515000    7.282210   -7.466150
  H    -130.634000    7.746990   -6.229800
  H    -138.664000   10.273300   -8.901110
  H    -134.242000    3.383560  -10.304600

 Total Charge           Charge          ....    0
 Multiplicity           Mult            ....    1
 Number of Electrons    NEL             ....  134
 Basis Dimension        Dim             ....  322

ORBITAL ENERGIES
----------------

  NO   OCC          E(Eh)            E(eV)
   0   2.0000     -88.964451     -2420.8458
   1   2.0000     -88.961114     -2420.7550
   2   2.0000     -10.332903      -281.1726
   3   2.0000     -10.328052      -281.0406
   4   2.0000     -10.313215      -280.6369
   5   2.0000     -10.310259      -280.5564
   6   2.0000     -10.301653      -280.3222
   7   2.0000     -10.300074      -280.2793
   8   2.0000     -10.293594      -280.1029
   9   2.0000     -10.292972      -280.0860
  10   2.0000     -10.292582      -280.0754
  11   2.0000     -10.285988      -279.8960
  12   2.0000     -10.282235      -279.7938
  13   2.0000     -10.281694      -279.7791
  14   2.0000     -10.279847      -279.7289
  15   2.0000     -10.267670      -279.3975
  16   2.0000      -8.079690      -219.8595
  17   2.0000      -8.075276      -219.7394
  18   2.0000      -6.038301      -164.3105
  19   2.0000      -6.034261      -164.2006
  20   2.0000      -6.034089      -164.1959
  21   2.0000      -6.030351      -164.0942
  22   2.0000      -6.030016      -164.0851
  23   2.0000      -6.025402      -163.9595
  24   2.0000      -1.007133       -27.4055
  25   2.0000      -0.982884       -26.7456
  26   2.0000      -0.919682       -25.0258
  27   2.0000      -0.913853       -24.8672
  28   2.0000      -0.872351       -23.7379
  29   2.0000      -0.856301       -23.3011
  30   2.0000      -0.841139       -22.8885
  31   2.0000      -0.822469       -22.3805
  32   2.0000      -0.782691       -21.2981
  33   2.0000      -0.774313       -21.0701
  34   2.0000      -0.716399       -19.4942
  35   2.0000      -0.701957       -19.1012
  36   2.0000      -0.698731       -19.0134
  37   2.0000      -0.652901       -17.7663
  38   2.0000      -0.632607       -17.2141
  39   2.0000      -0.615842       -16.7579
  40   2.0000      -0.597186       -16.2503
  41   2.0000      -0.586069       -15.9478
  42   2.0000      -0.581748       -15.8302
  43   2.0000      -0.555845       -15.1253
  44   2.0000      -0.543623       -14.7927
  45   2.0000      -0.531562       -14.4645
  46   2.0000      -0.519830       -14.1453
  47   2.0000      -0.512291       -13.9402
  48   2.0000      -0.507447       -13.8083
  49   2.0000      -0.501195       -13.6382
  50   2.0000      -0.487983       -13.2787
  51   2.0000      -0.480351       -13.0710
  52   2.0000      -0.472761       -12.8645
  53   2.0000      -0.463375       -12.6091
  54   2.0000      -0.461503       -12.5581
  55   2.0000      -0.455173       -12.3859
  56   2.0000      -0.448712       -12.2101
  57   2.0000      -0.447861       -12.1869
  58   2.0000      -0.439186       -11.9509
  59   2.0000      -0.424935       -11.5631
  60   2.0000      -0.416783       -11.3412
  61   2.0000      -0.411326       -11.1927
  62   2.0000      -0.404589       -11.0094
  63   2.0000      -0.364324        -9.9138
  64   2.0000      -0.331618        -9.0238
  65   2.0000      -0.321363        -8.7447
  66   2.0000      -0.289523        -7.8783
  67   0.0000       0.027312         0.7432
  68   0.0000       0.091752         2.4967
  69   0.0000       0.096204         2.6178
  70   0.0000       0.123608         3.3635
  71   0.0000       0.138327         3.7641

MULLIKEN ATOMIC CHARGES
-----------------------
   0 S :    0.080317
   1 C :   -0.113917
   2 C :   -0.137294
   3 C :   -0.040322
   4 C :   -0.071236
   5 H :    0.014117
   6 C :    0.130336
   7 H :    0.024762
   8 H :    0.007164
   9 C :   -0.080151
  10 H :    0.025248
  11 H :    0.015566
  12 C :   -0.016850
  13 H :    0.036751
  14 H :    0.011504
  15 H :    0.029416
  16 S :    0.101308
  17 C :   -0.043442
  18 C :   -0.078652
  19 C :   -0.083750
  20 C :   -0.120485
  21 H :    0.032086
  22 C :    0.001811
  23 H :    0.052763
  24 H :    0.053782
  25 C :   -0.037195
  26 H :    0.024453
  27 H :    0.014814
  28 C :   -0.020417
  29 H :    0.035383
  30 H :    0.020330
  31 H :    0.041914
  32 H :    0.052236
  33 H :    0.037649
Sum of atomic charges:   -0.0000000

LOEWDIN ATOMIC CHARGES
----------------------
   0 S :    0.361014
   1 C :   -0.196569
   2 C :   -0.055001
   3 C :   -0.081455
   4 C :   -0.165382
   5 H :    0.030370
   6 C :   -0.025000
   7 H :    0.030401
   8 H :    0.024930
   9 C :   -0.029892
  10 H :    0.023795
  11 H :    0.012463
  12 C :   -0.051245
  13 H :    0.015527
  14 H :    0.020724
  15 H :    0.029880
  16 S :    0.413613
  17 C :   -0.189667
  18 C :   -0.081986
  19 C :   -0.059983
  20 C :   -0.194070
  21 H :    0.036957
  22 C :   -0.034897
  23 H :    0.036662
  24 H :    0.036627
  25 C :   -0.027787
  26 H :    0.015233
  27 H :    0.017691
  28 C :   -0.059560
  29 H :    0.025037
  30 H :    0.020932
  31 H :    0.036673
  32 H :    0.037525
  33 H :    0.026439

  Mayer bond orders larger than 0.100000
B(  0-S ,  1-C ) :   1.0874 B(  0-S ,  4-C ) :   1.1099 B(  1-C ,  2-C ) :   1.7032
B(  1-C , 32-H ) :   0.9601 B(  2-C ,  3-C ) :   1.1574 B(  2-C ,  6-C ) :   1.0158
B(  3-C ,  4-C ) :   1.6577 B(  3-C ,  5-H ) :   0.9758 B(  4-C , 20-C ) :   1.0595
B(  6-C ,  7-H ) :   0.9421 B(  6-C ,  8-H ) :   0.9363 B(  6-C ,  9-C ) :   1.0618
B(  9-C , 10-H ) :   0.9607 B(  9-C , 11-H ) :   0.9605 B(  9-C , 12-C ) :   1.0844
B( 12-C , 13-H ) :   0.9742 B( 12-C , 14-H ) :   0.9735 B( 12-C , 15-H ) :   0.9703
B( 16-S , 17-C ) :   1.1534 B( 16-S , 20-C ) :   1.1326 B( 17-C , 18-C ) :   1.6201
B( 17-C , 33-H ) :   0.9644 B( 18-C , 19-C ) :   1.2552 B( 18-C , 21-H ) :   0.9747
B( 19-C , 20-C ) :   1.6110 B( 19-C , 22-C ) :   1.0190 B( 22-C , 23-H ) :   0.9213
B( 22-C , 24-H ) :   0.9303 B( 22-C , 25-C ) :   1.0913 B( 25-C , 26-H ) :   0.9423
B( 25-C , 27-H ) :   0.9513 B( 25-C , 28-C ) :   1.0907 B( 28-C , 29-H ) :   0.9749
B( 28-C , 30-H ) :   0.9721 B( 28-C , 31-H ) :   0.9734

Dispersion correction           -0.013777658
FINAL SINGLE POINT ENERGY     -1339.863361829159

DIPOLE MOMENT
-------------
                                X             Y             Z
Electronic contribution:    -17.16483     -14.92767     -19.42359
Nuclear contribution   :     17.86113      15.22054      19.87843
                        -----------------------------------------
Total Dipole Moment    :      0.69630       0.29287       0.45483
                        -----------------------------------------
Magnitude (a.u.)       :      0.88175
Magnitude (Debye)      :      2.24122

Rotational constants in cm-1:     0.017014     0.009317     0.006433
Rotational constants in MHz :   510.054814   279.320660   192.868438

                             ****ORCA TERMINATED NORMALLY****
TOTAL RUN TIME: 0 days 0 hours 0 minutes 21 seconds 578 msec
