                         Program Version 4.2.1 -  RELEASE  -
|  1> ! wB97X-D3 SP def2-SVP
|  2> %pal
|  3> nprocs 24
|  4> end
|  5>
|  6> * xyz 0 1
|  7> S 	 -54.3468 	 6.7198 	 -33.6713
|  8> C 	 -55.5278 	 5.538 	 -33.2358
|  9> C 	 -54.8875 	 4.35073 	 -32.9128
| 10> C 	 -53.4359 	 4.45728 	 -32.93
| 11> C 	 -52.9479 	 5.74062 	 -33.1956
| 12> H 	 -52.7573 	 3.67783 	 -32.7486
| 13> C 	 -55.5619 	 2.95856 	 -32.6011
| 14> H 	 -56.6029 	 2.89156 	 -32.967
| 15> H 	 -55.6073 	 2.70776 	 -31.5734
| 16> C 	 -54.8977 	 1.67678 	 -33.2349
| 17> H 	 -55.2185 	 1.7782 	 -34.2269
| 18> H 	 -53.8147 	 1.68028 	 -33.2559
| 19> C 	 -55.1816 	 0.349335 	 -32.6325
| 20> H 	 -56.2505 	 0.135933 	 -32.493
| 21> H 	 -54.8751 	 -0.509881 	 -33.255
| 22> H 	 -54.651 	 0.201718 	 -31.6931
| 23> S 	 -51.3864 	 7.40271 	 -34.7079
| 24> C 	 -49.6971 	 7.73815 	 -34.1584
| 25> C 	 -49.3295 	 6.90943 	 -33.1308
| 26> C 	 -50.3986 	 6.02897 	 -32.6945
| 27> C 	 -51.5968 	 6.20667 	 -33.4074
| 28> H 	 -48.2535 	 6.98826 	 -32.9174
| 29> C 	 -50.1401 	 4.99822 	 -31.6528
| 30> H 	 -50.2092 	 3.99641 	 -32.1196
| 31> H 	 -51.0244 	 4.94451 	 -31.0633
| 32> C 	 -48.8045 	 4.99705 	 -30.8786
| 33> H 	 -48.895 	 5.59627 	 -30.0157
| 34> H 	 -47.9221 	 5.36304 	 -31.4289
| 35> C 	 -48.4615 	 3.56478 	 -30.3483
| 36> H 	 -48.3624 	 2.90172 	 -31.1521
| 37> H 	 -49.3197 	 3.13093 	 -29.7098
| 38> H 	 -47.6462 	 3.57214 	 -29.672
| 39> H 	 -56.6103 	 5.61525 	 -33.3535
| 40> H 	 -48.8396 	 8.01972 	 -34.7332
| 41> *
| 42>
| 43>                          ****END OF INPUT****

CARTESIAN COORDINATES (ANGSTROEM)
---------------------------------
  S    -54.346800    6.719800  -33.671300
  C    -55.527800    5.538000  -33.235800
  C    -54.887500    4.350730  -32.912800
  C    -53.435900    4.457280  -32.930000
  C    -52.947900    5.740620  -33.195600
  H    -52.757300    3.677830  -32.748600
  C    -55.561900    2.958560  -32.601100
  H    -56.602900    2.891560  -32.967000
  H    -55.607300    2.707760  -31.573400
  C    -54.897700    1.676780  -33.234900
  H    -55.218500    1.778200  -34.226900
  H    -53.814700    1.680280  -33.255900
  C    -55.181600    0.349335  -32.632500
  H    -56.250500    0.135933  -32.493000
  H    -54.875100   -0.509881  -33.255000
  H    -54.651000    0.201718  -31.693100
  S    -51.386400    7.402710  -34.707900
  C    -49.697100    7.738150  -34.158400
  C    -49.329500    6.909430  -33.130800
  C    -50.398600    6.028970  -32.694500
  C    -51.596800    6.206670  -33.407400
  H    -48.253500    6.988260  -32.917400
  C    -50.140100    4.998220  -31.652800
  H    -50.209200    3.996410  -32.119600
  H    -51.024400    4.944510  -31.063300
  C    -48.804500    4.997050  -30.878600
  H    -48.895000    5.596270  -30.015700
  H    -47.922100    5.363040  -31.428900
  C    -48.461500    3.564780  -30.348300
  H    -48.362400    2.901720  -31.152100
  H    -49.319700    3.130930  -29.709800
  H    -47.646200    3.572140  -29.672000
  H    -56.610300    5.615250  -33.353500
  H    -48.839600    8.019720  -34.733200

 Total Charge           Charge          ....    0
 Multiplicity           Mult            ....    1
 Number of Electrons    NEL             ....  134
 Basis Dimension        Dim             ....  322

ORBITAL ENERGIES
----------------

  NO   OCC          E(Eh)            E(eV)
   0   2.0000     -88.967148     -2420.9192
   1   2.0000     -88.966359     -2420.8977
   2   2.0000     -10.336498      -281.2704
   3   2.0000     -10.335297      -281.2377
   4   2.0000     -10.319311      -280.8027
   5   2.0000     -10.315463      -280.6980
   6   2.0000     -10.312928      -280.6290
   7   2.0000     -10.311983      -280.6033
   8   2.0000     -10.299312      -280.2585
   9   2.0000     -10.297609      -280.2122
  10   2.0000     -10.297379      -280.2059
  11   2.0000     -10.292453      -280.0719
  12   2.0000     -10.291218      -280.0383
  13   2.0000     -10.281631      -279.7774
  14   2.0000     -10.280483      -279.7462
  15   2.0000     -10.280000      -279.7330
  16   2.0000      -8.081061      -219.8969
  17   2.0000      -8.080412      -219.8792
  18   2.0000      -6.039777      -164.3507
  19   2.0000      -6.039195      -164.3349
  20   2.0000      -6.035468      -164.2334
  21   2.0000      -6.035202      -164.2262
  22   2.0000      -6.031654      -164.1296
  23   2.0000      -6.030866      -164.1082
  24   2.0000      -1.004152       -27.3244
  25   2.0000      -0.979204       -26.6455
  26   2.0000      -0.910819       -24.7846
  27   2.0000      -0.907795       -24.7024
  28   2.0000      -0.877672       -23.8827
  29   2.0000      -0.852012       -23.1844
  30   2.0000      -0.842803       -22.9338
  31   2.0000      -0.822307       -22.3761
  32   2.0000      -0.782575       -21.2950
  33   2.0000      -0.772455       -21.0196
  34   2.0000      -0.716274       -19.4908
  35   2.0000      -0.707902       -19.2630
  36   2.0000      -0.695322       -18.9207
  37   2.0000      -0.654804       -17.8181
  38   2.0000      -0.641496       -17.4560
  39   2.0000      -0.624408       -16.9910
  40   2.0000      -0.594669       -16.1818
  41   2.0000      -0.572347       -15.5744
  42   2.0000      -0.571644       -15.5552
  43   2.0000      -0.569990       -15.5102
  44   2.0000      -0.529211       -14.4006
  45   2.0000      -0.522052       -14.2058
  46   2.0000      -0.516506       -14.0548
  47   2.0000      -0.512905       -13.9569
  48   2.0000      -0.506439       -13.7809
  49   2.0000      -0.502365       -13.6700
  50   2.0000      -0.495522       -13.4838
  51   2.0000      -0.479919       -13.0593
  52   2.0000      -0.469827       -12.7846
  53   2.0000      -0.464772       -12.6471
  54   2.0000      -0.459812       -12.5121
  55   2.0000      -0.455683       -12.3998
  56   2.0000      -0.450071       -12.2470
  57   2.0000      -0.433306       -11.7909
  58   2.0000      -0.430162       -11.7053
  59   2.0000      -0.426182       -11.5970
  60   2.0000      -0.421041       -11.4571
  61   2.0000      -0.415710       -11.3120
  62   2.0000      -0.408659       -11.1202
  63   2.0000      -0.361924        -9.8485
  64   2.0000      -0.330998        -9.0069
  65   2.0000      -0.326897        -8.8953
  66   2.0000      -0.286199        -7.7879
  67   0.0000       0.016473         0.4483
  68   0.0000       0.069225         1.8837
  69   0.0000       0.096498         2.6258
  70   0.0000       0.124449         3.3864
  71   0.0000       0.130590         3.5535

MULLIKEN ATOMIC CHARGES
-----------------------
   0 S :    0.099061
   1 C :   -0.111952
   2 C :   -0.066072
   3 C :    0.021698
   4 C :   -0.126871
   5 H :   -0.008403
   6 C :    0.069568
   7 H :    0.025090
   8 H :    0.025852
   9 C :   -0.084968
  10 H :    0.022392
  11 H :    0.026386
  12 C :   -0.063226
  13 H :    0.025039
  14 H :    0.035394
  15 H :    0.033870
  16 S :    0.082651
  17 C :   -0.065460
  18 C :   -0.093693
  19 C :   -0.017205
  20 C :   -0.135828
  21 H :    0.038308
  22 C :    0.045651
  23 H :    0.034348
  24 H :    0.020801
  25 C :   -0.040238
  26 H :    0.027519
  27 H :    0.039251
  28 C :   -0.066904
  29 H :    0.030356
  30 H :    0.031940
  31 H :    0.029938
  32 H :    0.058502
  33 H :    0.057206
Sum of atomic charges:   -0.0000000

LOEWDIN ATOMIC CHARGES
----------------------
   0 S :    0.407915
   1 C :   -0.203791
   2 C :   -0.061027
   3 C :   -0.060113
   4 C :   -0.185209
   5 H :    0.018440
   6 C :   -0.026413
   7 H :    0.031347
   8 H :    0.021763
   9 C :   -0.044733
  10 H :    0.018329
  11 H :    0.022233
  12 C :   -0.070014
  13 H :    0.022452
  14 H :    0.034037
  15 H :    0.026002
  16 S :    0.369163
  17 C :   -0.179429
  18 C :   -0.070555
  19 C :   -0.048534
  20 C :   -0.185148
  21 H :    0.040003
  22 C :   -0.040180
  23 H :    0.036447
  24 H :    0.031948
  25 C :   -0.032711
  26 H :    0.021115
  27 H :    0.027304
  28 C :   -0.059329
  29 H :    0.014391
  30 H :    0.032921
  31 H :    0.020601
  32 H :    0.037782
  33 H :    0.032992

  Mayer bond orders larger than 0.100000
B(  0-S ,  1-C ) :   1.1426 B(  0-S ,  4-C ) :   1.1412 B(  1-C ,  2-C ) :   1.6068
B(  1-C , 32-H ) :   0.9685 B(  2-C ,  3-C ) :   1.2467 B(  2-C ,  6-C ) :   1.0099
B(  3-C ,  4-C ) :   1.5461 B(  3-C ,  5-H ) :   1.0004 B(  4-C , 20-C ) :   1.0912
B(  6-C ,  7-H ) :   0.9512 B(  6-C ,  8-H ) :   0.9503 B(  6-C ,  9-C ) :   1.0408
B(  9-C , 10-H ) :   0.9615 B(  9-C , 11-H ) :   0.9549 B(  9-C , 12-C ) :   1.0961
B( 12-C , 13-H ) :   0.9733 B( 12-C , 14-H ) :   0.9692 B( 12-C , 15-H ) :   0.9714
B( 16-S , 17-C ) :   1.1234 B( 16-S , 20-C ) :   1.1173 B( 17-C , 18-C ) :   1.6712
B( 17-C , 33-H ) :   0.9487 B( 18-C , 19-C ) :   1.2136 B( 18-C , 21-H ) :   0.9794
B( 19-C , 20-C ) :   1.5875 B( 19-C , 22-C ) :   1.0432 B( 22-C , 23-H ) :   0.9393
B( 22-C , 24-H ) :   0.9114 B( 22-C , 25-C ) :   1.0569 B( 25-C , 26-H ) :   0.9521
B( 25-C , 27-H ) :   0.9523 B( 25-C , 28-C ) :   1.0852 B( 28-C , 29-H ) :   0.9785
B( 28-C , 30-H ) :   0.9752 B( 28-C , 31-H ) :   0.9745

Dispersion correction           -0.013048941
FINAL SINGLE POINT ENERGY     -1339.845470974865

DIPOLE MOMENT
-------------
                                X             Y             Z
Electronic contribution:     -5.02890      28.32590     -14.50353
Nuclear contribution   :      5.35155     -29.15114      14.76755
                        -----------------------------------------
Total Dipole Moment    :      0.32265      -0.82523       0.26402
                        -----------------------------------------
Magnitude (a.u.)       :      0.92457
Magnitude (Debye)      :      2.35006

Rotational constants in cm-1:     0.015672     0.008688     0.006013
Rotational constants in MHz :   469.849652   260.463388   180.251983

                             ****ORCA TERMINATED NORMALLY****
TOTAL RUN TIME: 0 days 0 hours 0 minutes 20 seconds 714 msec
