                         Program Version 4.2.1 -  RELEASE  -
|  1> ! wB97X-D3 SP def2-SVP
|  2> %pal
|  3> nprocs 24
|  4> end
|  5>
|  6> * xyz 0 1
|  7> S 	 -106.587 	 54.8973 	 -107.581
|  8> C 	 -105.488 	 55.3373 	 -108.908
|  9> C 	 -106.039 	 56.129 	 -109.854
| 10> C 	 -107.447 	 56.2574 	 -109.601
| 11> C 	 -107.911 	 55.6398 	 -108.42
| 12> H 	 -108.196 	 56.7861 	 -110.262
| 13> C 	 -105.376 	 56.603 	 -111.125
| 14> H 	 -106.089 	 56.4816 	 -111.903
| 15> H 	 -104.643 	 55.9817 	 -111.499
| 16> C 	 -104.669 	 57.9158 	 -111.141
| 17> H 	 -103.786 	 57.8471 	 -110.468
| 18> H 	 -104.314 	 58.123 	 -112.136
| 19> C 	 -105.62 	 59.0751 	 -110.878
| 20> H 	 -105.111 	 60.0652 	 -110.802
| 21> H 	 -106.303 	 59.1907 	 -111.673
| 22> H 	 -106.011 	 59.1125 	 -109.903
| 23> S 	 -109.493 	 56.4079 	 -106.263
| 24> C 	 -111.27 	 56.4585 	 -106.423
| 25> C 	 -111.66 	 55.8906 	 -107.625
| 26> C 	 -110.517 	 55.4988 	 -108.448
| 27> C 	 -109.288 	 55.8153 	 -107.904
| 28> H 	 -112.677 	 55.9605 	 -107.866
| 29> C 	 -110.725 	 54.6741 	 -109.734
| 30> H 	 -109.794 	 54.6767 	 -110.261
| 31> H 	 -111.456 	 55.1447 	 -110.44
| 32> C 	 -111.154 	 53.1518 	 -109.481
| 33> H 	 -112.19 	 53.0873 	 -109.132
| 34> H 	 -110.447 	 52.8943 	 -108.617
| 35> C 	 -110.787 	 52.334 	 -110.756
| 36> H 	 -109.709 	 52.1116 	 -110.894
| 37> H 	 -111.058 	 52.9091 	 -111.595
| 38> H 	 -111.331 	 51.4134 	 -110.696
| 39> H 	 -104.366 	 55.1196 	 -108.9
| 40> H 	 -111.897 	 57.0725 	 -105.865
| 41> *
| 42>
| 43>                          ****END OF INPUT****

CARTESIAN COORDINATES (ANGSTROEM)
---------------------------------
  S    -106.587000   54.897300  -107.581000
  C    -105.488000   55.337300  -108.908000
  C    -106.039000   56.129000  -109.854000
  C    -107.447000   56.257400  -109.601000
  C    -107.911000   55.639800  -108.420000
  H    -108.196000   56.786100  -110.262000
  C    -105.376000   56.603000  -111.125000
  H    -106.089000   56.481600  -111.903000
  H    -104.643000   55.981700  -111.499000
  C    -104.669000   57.915800  -111.141000
  H    -103.786000   57.847100  -110.468000
  H    -104.314000   58.123000  -112.136000
  C    -105.620000   59.075100  -110.878000
  H    -105.111000   60.065200  -110.802000
  H    -106.303000   59.190700  -111.673000
  H    -106.011000   59.112500  -109.903000
  S    -109.493000   56.407900  -106.263000
  C    -111.270000   56.458500  -106.423000
  C    -111.660000   55.890600  -107.625000
  C    -110.517000   55.498800  -108.448000
  C    -109.288000   55.815300  -107.904000
  H    -112.677000   55.960500  -107.866000
  C    -110.725000   54.674100  -109.734000
  H    -109.794000   54.676700  -110.261000
  H    -111.456000   55.144700  -110.440000
  C    -111.154000   53.151800  -109.481000
  H    -112.190000   53.087300  -109.132000
  H    -110.447000   52.894300  -108.617000
  C    -110.787000   52.334000  -110.756000
  H    -109.709000   52.111600  -110.894000
  H    -111.058000   52.909100  -111.595000
  H    -111.331000   51.413400  -110.696000
  H    -104.366000   55.119600  -108.900000
  H    -111.897000   57.072500  -105.865000

 Total Charge           Charge          ....    0
 Multiplicity           Mult            ....    1
 Number of Electrons    NEL             ....  134
 Basis Dimension        Dim             ....  322

ORBITAL ENERGIES
----------------

  NO   OCC          E(Eh)            E(eV)
   0   2.0000     -88.971431     -2421.0357
   1   2.0000     -88.962182     -2420.7840
   2   2.0000     -10.333965      -281.2015
   3   2.0000     -10.331530      -281.1352
   4   2.0000     -10.319870      -280.8179
   5   2.0000     -10.315975      -280.7120
   6   2.0000     -10.307062      -280.4694
   7   2.0000     -10.301517      -280.3185
   8   2.0000     -10.301198      -280.3098
   9   2.0000     -10.294768      -280.1349
  10   2.0000     -10.293917      -280.1117
  11   2.0000     -10.291367      -280.0423
  12   2.0000     -10.285715      -279.8885
  13   2.0000     -10.281435      -279.7721
  14   2.0000     -10.274678      -279.5882
  15   2.0000     -10.267502      -279.3929
  16   2.0000      -8.085746      -220.0243
  17   2.0000      -8.076566      -219.7745
  18   2.0000      -6.044314      -164.4741
  19   2.0000      -6.040409      -164.3679
  20   2.0000      -6.036365      -164.2578
  21   2.0000      -6.035220      -164.2267
  22   2.0000      -6.031160      -164.1162
  23   2.0000      -6.027144      -164.0069
  24   2.0000      -1.003283       -27.3007
  25   2.0000      -0.980829       -26.6897
  26   2.0000      -0.921903       -25.0863
  27   2.0000      -0.894746       -24.3473
  28   2.0000      -0.870306       -23.6822
  29   2.0000      -0.847789       -23.0695
  30   2.0000      -0.840619       -22.8744
  31   2.0000      -0.813200       -22.1283
  32   2.0000      -0.792256       -21.5584
  33   2.0000      -0.767331       -20.8801
  34   2.0000      -0.705267       -19.1913
  35   2.0000      -0.700872       -19.0717
  36   2.0000      -0.693507       -18.8713
  37   2.0000      -0.662097       -18.0166
  38   2.0000      -0.634540       -17.2667
  39   2.0000      -0.615015       -16.7354
  40   2.0000      -0.590239       -16.0612
  41   2.0000      -0.582600       -15.8534
  42   2.0000      -0.559585       -15.2271
  43   2.0000      -0.555855       -15.1256
  44   2.0000      -0.543726       -14.7955
  45   2.0000      -0.522822       -14.2267
  46   2.0000      -0.517710       -14.0876
  47   2.0000      -0.514661       -14.0046
  48   2.0000      -0.504821       -13.7369
  49   2.0000      -0.495132       -13.4732
  50   2.0000      -0.482043       -13.1171
  51   2.0000      -0.478449       -13.0193
  52   2.0000      -0.474543       -12.9130
  53   2.0000      -0.467141       -12.7116
  54   2.0000      -0.455937       -12.4067
  55   2.0000      -0.443309       -12.0631
  56   2.0000      -0.438139       -11.9224
  57   2.0000      -0.432839       -11.7781
  58   2.0000      -0.429382       -11.6841
  59   2.0000      -0.425238       -11.5713
  60   2.0000      -0.417593       -11.3633
  61   2.0000      -0.413730       -11.2582
  62   2.0000      -0.411035       -11.1848
  63   2.0000      -0.348227        -9.4757
  64   2.0000      -0.336054        -9.1445
  65   2.0000      -0.326116        -8.8741
  66   2.0000      -0.293937        -7.9984
  67   0.0000       0.033138         0.9017
  68   0.0000       0.061558         1.6751
  69   0.0000       0.109540         2.9807
  70   0.0000       0.117907         3.2084
  71   0.0000       0.128812         3.5051

MULLIKEN ATOMIC CHARGES
-----------------------
   0 S :    0.119679
   1 C :   -0.153873
   2 C :   -0.050591
   3 C :    0.001749
   4 C :   -0.157752
   5 H :    0.037529
   6 C :    0.103702
   7 H :    0.007301
   8 H :   -0.003035
   9 C :   -0.054821
  10 H :    0.032371
  11 H :    0.022103
  12 C :   -0.038855
  13 H :    0.017362
  14 H :    0.024326
  15 H :    0.028976
  16 S :    0.083579
  17 C :   -0.077089
  18 C :   -0.010021
  19 C :   -0.059408
  20 C :   -0.138599
  21 H :    0.009385
  22 C :    0.043231
  23 H :    0.009440
  24 H :    0.031523
  25 C :   -0.108478
  26 H :    0.042912
  27 H :    0.049641
  28 C :   -0.026027
  29 H :    0.045187
  30 H :    0.021010
  31 H :    0.033714
  32 H :    0.069916
  33 H :    0.043915
Sum of atomic charges:   -0.0000000

LOEWDIN ATOMIC CHARGES
----------------------
   0 S :    0.403043
   1 C :   -0.192064
   2 C :   -0.066619
   3 C :   -0.062381
   4 C :   -0.206506
   5 H :    0.039275
   6 C :   -0.030313
   7 H :    0.028598
   8 H :    0.025345
   9 C :   -0.033666
  10 H :    0.027529
  11 H :    0.025356
  12 C :   -0.068034
  13 H :    0.030708
  14 H :    0.020140
  15 H :    0.021049
  16 S :    0.378584
  17 C :   -0.162253
  18 C :   -0.058465
  19 C :   -0.059505
  20 C :   -0.190704
  21 H :    0.024887
  22 C :   -0.037020
  23 H :    0.020882
  24 H :    0.027863
  25 C :   -0.038315
  26 H :    0.023009
  27 H :    0.034562
  28 C :   -0.061921
  29 H :    0.034184
  30 H :    0.017197
  31 H :    0.024698
  32 H :    0.042664
  33 H :    0.018192

  Mayer bond orders larger than 0.100000
B(  0-S ,  1-C ) :   1.1293 B(  0-S ,  4-C ) :   1.1472 B(  1-C ,  2-C ) :   1.6462
B(  1-C , 32-H ) :   0.9508 B(  2-C ,  3-C ) :   1.2362 B(  2-C ,  6-C ) :   1.0016
B(  3-C ,  4-C ) :   1.5760 B(  3-C ,  5-H ) :   0.9802 B(  4-C , 20-C ) :   1.0306
B(  6-C ,  7-H ) :   0.9370 B(  6-C ,  8-H ) :   0.9337 B(  6-C ,  9-C ) :   1.0874
B(  9-C , 10-H ) :   0.9539 B(  9-C , 11-H ) :   0.9502 B(  9-C , 12-C ) :   1.0858
B( 12-C , 13-H ) :   0.9679 B( 12-C , 14-H ) :   0.9754 B( 12-C , 15-H ) :   0.9728
B( 16-S , 17-C ) :   1.1376 B( 16-S , 20-C ) :   1.1219 B( 17-C , 18-C ) :   1.6442
B( 17-C , 33-H ) :   0.9710 B( 18-C , 19-C ) :   1.1964 B( 18-C , 21-H ) :   0.9972
B( 19-C , 20-C ) :   1.6315 B( 19-C , 22-C ) :   1.0551 B( 22-C , 23-H ) :   0.9356
B( 22-C , 24-H ) :   0.9344 B( 22-C , 25-C ) :   1.0426 B( 25-C , 26-H ) :   0.9608
B( 25-C , 27-H ) :   0.9609 B( 25-C , 28-C ) :   1.0690 B( 28-C , 29-H ) :   0.9745
B( 28-C , 30-H ) :   0.9760 B( 28-C , 31-H ) :   0.9752

Dispersion correction           -0.014111723
FINAL SINGLE POINT ENERGY     -1339.856908046942

DIPOLE MOMENT
-------------
                                X             Y             Z
Electronic contribution:     -0.34426      -0.46461      23.09040
Nuclear contribution   :      0.29711       0.61465     -23.80795
                        -----------------------------------------
Total Dipole Moment    :     -0.04714       0.15004      -0.71755
                        -----------------------------------------
Magnitude (a.u.)       :      0.73458
Magnitude (Debye)      :      1.86716

Rotational constants in cm-1:     0.017803     0.008236     0.007159
Rotational constants in MHz :   533.708381   246.923024   214.616832

                             ****ORCA TERMINATED NORMALLY****
TOTAL RUN TIME: 0 days 0 hours 0 minutes 21 seconds 211 msec
