                         Program Version 4.2.1 -  RELEASE  -
|  1> ! wB97X-D3 SP def2-SVP
|  2> %pal
|  3> nprocs 24
|  4> end
|  5>
|  6> * xyz 0 1
|  7> S 	 -112.583 	 49.6591 	 -73.9997
|  8> C 	 -112.718 	 49.1758 	 -75.6791
|  9> C 	 -111.418 	 48.9194 	 -76.2084
| 10> C 	 -110.411 	 48.9788 	 -75.1893
| 11> C 	 -110.852 	 49.4343 	 -73.9705
| 12> H 	 -109.34 	 48.7021 	 -75.2532
| 13> C 	 -111.119 	 48.5356 	 -77.5889
| 14> H 	 -111.332 	 47.5054 	 -77.6047
| 15> H 	 -110.078 	 48.7301 	 -77.6229
| 16> C 	 -111.888 	 49.1812 	 -78.7179
| 17> H 	 -111.73 	 48.4298 	 -79.4498
| 18> H 	 -112.946 	 49.2985 	 -78.5313
| 19> C 	 -111.33 	 50.5841 	 -79.2136
| 20> H 	 -110.314 	 50.4079 	 -79.5517
| 21> H 	 -111.965 	 50.913 	 -80.0179
| 22> H 	 -111.229 	 51.2944 	 -78.4218
| 23> S 	 -110.489 	 47.9728 	 -71.5729
| 24> C 	 -109.182 	 48.4352 	 -70.4413
| 25> C 	 -108.43 	 49.4137 	 -70.9792
| 26> C 	 -109.044 	 49.9484 	 -72.1568
| 27> C 	 -110.06 	 49.2666 	 -72.7219
| 28> H 	 -107.705 	 49.892 	 -70.2822
| 29> C 	 -108.341 	 51.1051 	 -72.8449
| 30> H 	 -108.557 	 51.1594 	 -73.9277
| 31> H 	 -107.265 	 50.9366 	 -72.8265
| 32> C 	 -108.583 	 52.5164 	 -72.4483
| 33> H 	 -108.075 	 52.7032 	 -71.5209
| 34> H 	 -109.642 	 52.7788 	 -72.3582
| 35> C 	 -107.816 	 53.4626 	 -73.4395
| 36> H 	 -107.762 	 54.4802 	 -73.04
| 37> H 	 -108.29 	 53.4506 	 -74.42
| 38> H 	 -106.752 	 53.1971 	 -73.4502
| 39> H 	 -113.64 	 49.2343 	 -76.2285
| 40> H 	 -108.834 	 47.8837 	 -69.4988
| 41> *
| 42>
| 43>                          ****END OF INPUT****

CARTESIAN COORDINATES (ANGSTROEM)
---------------------------------
  S    -112.583000   49.659100  -73.999700
  C    -112.718000   49.175800  -75.679100
  C    -111.418000   48.919400  -76.208400
  C    -110.411000   48.978800  -75.189300
  C    -110.852000   49.434300  -73.970500
  H    -109.340000   48.702100  -75.253200
  C    -111.119000   48.535600  -77.588900
  H    -111.332000   47.505400  -77.604700
  H    -110.078000   48.730100  -77.622900
  C    -111.888000   49.181200  -78.717900
  H    -111.730000   48.429800  -79.449800
  H    -112.946000   49.298500  -78.531300
  C    -111.330000   50.584100  -79.213600
  H    -110.314000   50.407900  -79.551700
  H    -111.965000   50.913000  -80.017900
  H    -111.229000   51.294400  -78.421800
  S    -110.489000   47.972800  -71.572900
  C    -109.182000   48.435200  -70.441300
  C    -108.430000   49.413700  -70.979200
  C    -109.044000   49.948400  -72.156800
  C    -110.060000   49.266600  -72.721900
  H    -107.705000   49.892000  -70.282200
  C    -108.341000   51.105100  -72.844900
  H    -108.557000   51.159400  -73.927700
  H    -107.265000   50.936600  -72.826500
  C    -108.583000   52.516400  -72.448300
  H    -108.075000   52.703200  -71.520900
  H    -109.642000   52.778800  -72.358200
  C    -107.816000   53.462600  -73.439500
  H    -107.762000   54.480200  -73.040000
  H    -108.290000   53.450600  -74.420000
  H    -106.752000   53.197100  -73.450200
  H    -113.640000   49.234300  -76.228500
  H    -108.834000   47.883700  -69.498800

 Total Charge           Charge          ....    0
 Multiplicity           Mult            ....    1
 Number of Electrons    NEL             ....  134
 Basis Dimension        Dim             ....  322

ORBITAL ENERGIES
----------------

  NO   OCC          E(Eh)            E(eV)
   0   2.0000     -88.967470     -2420.9279
   1   2.0000     -88.959069     -2420.6993
   2   2.0000     -10.330151      -281.0977
   3   2.0000     -10.328167      -281.0437
   4   2.0000     -10.323277      -280.9107
   5   2.0000     -10.318640      -280.7845
   6   2.0000     -10.303667      -280.3770
   7   2.0000     -10.298710      -280.2422
   8   2.0000     -10.297215      -280.2015
   9   2.0000     -10.291805      -280.0543
  10   2.0000     -10.286434      -279.9081
  11   2.0000     -10.280855      -279.7563
  12   2.0000     -10.280434      -279.7448
  13   2.0000     -10.278502      -279.6923
  14   2.0000     -10.278246      -279.6853
  15   2.0000     -10.277849      -279.6745
  16   2.0000      -8.081919      -219.9202
  17   2.0000      -8.073153      -219.6817
  18   2.0000      -6.040397      -164.3676
  19   2.0000      -6.036339      -164.2571
  20   2.0000      -6.032851      -164.1622
  21   2.0000      -6.031871      -164.1355
  22   2.0000      -6.027799      -164.0247
  23   2.0000      -6.023628      -163.9112
  24   2.0000      -1.004844       -27.3432
  25   2.0000      -0.984583       -26.7919
  26   2.0000      -0.920529       -25.0489
  27   2.0000      -0.908862       -24.7314
  28   2.0000      -0.868231       -23.6258
  29   2.0000      -0.850927       -23.1549
  30   2.0000      -0.840815       -22.8797
  31   2.0000      -0.818815       -22.2811
  32   2.0000      -0.783355       -21.3162
  33   2.0000      -0.767502       -20.8848
  34   2.0000      -0.717103       -19.5134
  35   2.0000      -0.699903       -19.0453
  36   2.0000      -0.687118       -18.6974
  37   2.0000      -0.654553       -17.8113
  38   2.0000      -0.643721       -17.5165
  39   2.0000      -0.608731       -16.5644
  40   2.0000      -0.593397       -16.1472
  41   2.0000      -0.579459       -15.7679
  42   2.0000      -0.570164       -15.5149
  43   2.0000      -0.564437       -15.3591
  44   2.0000      -0.540623       -14.7111
  45   2.0000      -0.525386       -14.2965
  46   2.0000      -0.517066       -14.0701
  47   2.0000      -0.509620       -13.8675
  48   2.0000      -0.503283       -13.6950
  49   2.0000      -0.500946       -13.6314
  50   2.0000      -0.486037       -13.2257
  51   2.0000      -0.477020       -12.9804
  52   2.0000      -0.470946       -12.8151
  53   2.0000      -0.465613       -12.6700
  54   2.0000      -0.459385       -12.5005
  55   2.0000      -0.446412       -12.1475
  56   2.0000      -0.440091       -11.9755
  57   2.0000      -0.435016       -11.8374
  58   2.0000      -0.432534       -11.7699
  59   2.0000      -0.429302       -11.6819
  60   2.0000      -0.417656       -11.3650
  61   2.0000      -0.408709       -11.1215
  62   2.0000      -0.405398       -11.0314
  63   2.0000      -0.345619        -9.4048
  64   2.0000      -0.327105        -8.9010
  65   2.0000      -0.323788        -8.8107
  66   2.0000      -0.304853        -8.2955
  67   0.0000       0.036275         0.9871
  68   0.0000       0.060297         1.6408
  69   0.0000       0.119065         3.2399
  70   0.0000       0.120888         3.2895
  71   0.0000       0.126503         3.4423

MULLIKEN ATOMIC CHARGES
-----------------------
   0 S :    0.114986
   1 C :   -0.131039
   2 C :   -0.115608
   3 C :    0.017075
   4 C :   -0.149939
   5 H :    0.035157
   6 C :    0.108608
   7 H :    0.036399
   8 H :    0.011931
   9 C :   -0.074347
  10 H :    0.021732
  11 H :    0.026950
  12 C :   -0.032723
  13 H :    0.022356
  14 H :    0.041665
  15 H :    0.035797
  16 S :    0.079606
  17 C :   -0.117141
  18 C :   -0.027227
  19 C :   -0.022906
  20 C :   -0.137328
  21 H :    0.045843
  22 C :    0.013361
  23 H :    0.010179
  24 H :    0.016415
  25 C :   -0.044610
  26 H :    0.009494
  27 H :    0.038066
  28 C :   -0.073937
  29 H :    0.030635
  30 H :    0.045398
  31 H :    0.026882
  32 H :    0.053751
  33 H :    0.084521
Sum of atomic charges:   -0.0000000

LOEWDIN ATOMIC CHARGES
----------------------
   0 S :    0.414992
   1 C :   -0.199995
   2 C :   -0.059587
   3 C :   -0.060961
   4 C :   -0.205022
   5 H :    0.040952
   6 C :   -0.032961
   7 H :    0.036950
   8 H :    0.029270
   9 C :   -0.031695
  10 H :    0.023425
  11 H :    0.020504
  12 C :   -0.055340
  13 H :    0.023488
  14 H :    0.026316
  15 H :    0.022999
  16 S :    0.364308
  17 C :   -0.174572
  18 C :   -0.087796
  19 C :   -0.061814
  20 C :   -0.182672
  21 H :    0.044149
  22 C :   -0.042521
  23 H :    0.027522
  24 H :    0.028533
  25 C :   -0.036724
  26 H :    0.015972
  27 H :    0.026060
  28 C :   -0.065002
  29 H :    0.026165
  30 H :    0.024261
  31 H :    0.025519
  32 H :    0.024504
  33 H :    0.050768

  Mayer bond orders larger than 0.100000
B(  0-S ,  1-C ) :   1.1532 B(  0-S ,  4-C ) :   1.1621 B(  1-C ,  2-C ) :   1.5554
B(  1-C ,  4-C ) :   0.1005 B(  1-C , 32-H ) :   0.9730 B(  2-C ,  3-C ) :   1.2623
B(  2-C ,  6-C ) :   1.0171 B(  3-C ,  4-C ) :   1.5719 B(  3-C ,  5-H ) :   0.9811
B(  4-C , 20-C ) :   1.0013 B(  6-C ,  7-H ) :   0.9241 B(  6-C ,  8-H ) :   0.9387
B(  6-C ,  9-C ) :   1.0770 B(  9-C , 10-H ) :   0.9548 B(  9-C , 11-H ) :   0.9586
B(  9-C , 12-C ) :   1.0722 B( 12-C , 13-H ) :   0.9750 B( 12-C , 14-H ) :   0.9770
B( 12-C , 15-H ) :   0.9811 B( 16-S , 17-C ) :   1.1405 B( 16-S , 20-C ) :   1.0979
B( 17-C , 18-C ) :   1.6716 B( 17-C , 33-H ) :   0.9499 B( 18-C , 19-C ) :   1.2069
B( 18-C , 21-H ) :   0.9749 B( 19-C , 20-C ) :   1.6786 B( 19-C , 22-C ) :   1.0304
B( 22-C , 23-H ) :   0.9420 B( 22-C , 24-H ) :   0.9392 B( 22-C , 25-C ) :   1.0745
B( 25-C , 26-H ) :   0.9498 B( 25-C , 27-H ) :   0.9550 B( 25-C , 28-C ) :   1.0817
B( 28-C , 29-H ) :   0.9749 B( 28-C , 30-H ) :   0.9765 B( 28-C , 31-H ) :   0.9727

Dispersion correction           -0.013586517
FINAL SINGLE POINT ENERGY     -1339.856886187314

DIPOLE MOMENT
-------------
                                X             Y             Z
Electronic contribution:    -11.20954     -15.47571      19.49194
Nuclear contribution   :     11.62524      15.58482     -19.93537
                        -----------------------------------------
Total Dipole Moment    :      0.41570       0.10911      -0.44343
                        -----------------------------------------
Magnitude (a.u.)       :      0.61753
Magnitude (Debye)      :      1.56964

Rotational constants in cm-1:     0.018549     0.008197     0.006450
Rotational constants in MHz :   556.086552   245.739901   193.361519

                             ****ORCA TERMINATED NORMALLY****
TOTAL RUN TIME: 0 days 0 hours 0 minutes 21 seconds 128 msec
