                         Program Version 4.2.1 -  RELEASE  -
|  1> ! wB97X-D3 SP def2-SVP
|  2> %pal
|  3> nprocs 24
|  4> end
|  5>
|  6> * xyz 0 1
|  7> S 	 -33.0463 	 -27.1522 	 -97.223
|  8> C 	 -34.2577 	 -25.8446 	 -97.1064
|  9> C 	 -34.9678 	 -25.872 	 -95.9129
| 10> C 	 -34.4372 	 -26.8156 	 -95.0508
| 11> C 	 -33.4499 	 -27.6645 	 -95.5294
| 12> H 	 -34.7177 	 -27.0149 	 -94.0716
| 13> C 	 -36.0788 	 -24.9334 	 -95.3636
| 14> H 	 -36.2827 	 -24.1406 	 -96.0652
| 15> H 	 -35.698 	 -24.4366 	 -94.4848
| 16> C 	 -37.3964 	 -25.6037 	 -94.9479
| 17> H 	 -37.0793 	 -26.2391 	 -94.0891
| 18> H 	 -38.2358 	 -24.9891 	 -94.6248
| 19> C 	 -38.0516 	 -26.545 	 -96.0454
| 20> H 	 -39.0908 	 -26.8318 	 -95.7358
| 21> H 	 -38.1988 	 -25.9714 	 -96.9792
| 22> H 	 -37.3633 	 -27.3654 	 -96.2465
| 23> S 	 -32.4627 	 -30.1866 	 -96.1457
| 24> C 	 -31.9484 	 -31.1255 	 -94.797
| 25> C 	 -32.4306 	 -30.6687 	 -93.5978
| 26> C 	 -32.892 	 -29.3025 	 -93.6647
| 27> C 	 -32.9781 	 -28.9406 	 -94.9606
| 28> H 	 -32.2891 	 -31.3164 	 -92.7266
| 29> C 	 -33.068 	 -28.443 	 -92.4008
| 30> H 	 -32.8671 	 -27.424 	 -92.6877
| 31> H 	 -32.3494 	 -28.7579 	 -91.6614
| 32> C 	 -34.427 	 -28.6026 	 -91.7856
| 33> H 	 -34.5642 	 -29.4881 	 -91.1844
| 34> H 	 -35.1729 	 -28.6521 	 -92.6337
| 35> C 	 -34.6942 	 -27.5094 	 -90.7326
| 36> H 	 -35.7333 	 -27.4067 	 -90.4154
| 37> H 	 -34.3474 	 -26.4566 	 -90.9479
| 38> H 	 -34.0139 	 -27.7672 	 -89.8682
| 39> H 	 -34.5275 	 -25.2073 	 -97.912
| 40> H 	 -31.5043 	 -32.0615 	 -94.8387
| 41> *
| 42>
| 43>                          ****END OF INPUT****

CARTESIAN COORDINATES (ANGSTROEM)
---------------------------------
  S    -33.046300  -27.152200  -97.223000
  C    -34.257700  -25.844600  -97.106400
  C    -34.967800  -25.872000  -95.912900
  C    -34.437200  -26.815600  -95.050800
  C    -33.449900  -27.664500  -95.529400
  H    -34.717700  -27.014900  -94.071600
  C    -36.078800  -24.933400  -95.363600
  H    -36.282700  -24.140600  -96.065200
  H    -35.698000  -24.436600  -94.484800
  C    -37.396400  -25.603700  -94.947900
  H    -37.079300  -26.239100  -94.089100
  H    -38.235800  -24.989100  -94.624800
  C    -38.051600  -26.545000  -96.045400
  H    -39.090800  -26.831800  -95.735800
  H    -38.198800  -25.971400  -96.979200
  H    -37.363300  -27.365400  -96.246500
  S    -32.462700  -30.186600  -96.145700
  C    -31.948400  -31.125500  -94.797000
  C    -32.430600  -30.668700  -93.597800
  C    -32.892000  -29.302500  -93.664700
  C    -32.978100  -28.940600  -94.960600
  H    -32.289100  -31.316400  -92.726600
  C    -33.068000  -28.443000  -92.400800
  H    -32.867100  -27.424000  -92.687700
  H    -32.349400  -28.757900  -91.661400
  C    -34.427000  -28.602600  -91.785600
  H    -34.564200  -29.488100  -91.184400
  H    -35.172900  -28.652100  -92.633700
  C    -34.694200  -27.509400  -90.732600
  H    -35.733300  -27.406700  -90.415400
  H    -34.347400  -26.456600  -90.947900
  H    -34.013900  -27.767200  -89.868200
  H    -34.527500  -25.207300  -97.912000
  H    -31.504300  -32.061500  -94.838700

 Total Charge           Charge          ....    0
 Multiplicity           Mult            ....    1
 Number of Electrons    NEL             ....  134
 Basis Dimension        Dim             ....  322

ORBITAL ENERGIES
----------------

  NO   OCC          E(Eh)            E(eV)
   0   2.0000     -88.968626     -2420.9594
   1   2.0000     -88.967945     -2420.9409
   2   2.0000     -10.333998      -281.2024
   3   2.0000     -10.329497      -281.0799
   4   2.0000     -10.318021      -280.7676
   5   2.0000     -10.308324      -280.5037
   6   2.0000     -10.303906      -280.3835
   7   2.0000     -10.303395      -280.3696
   8   2.0000     -10.295902      -280.1657
   9   2.0000     -10.295418      -280.1526
  10   2.0000     -10.293954      -280.1127
  11   2.0000     -10.293330      -280.0958
  12   2.0000     -10.291756      -280.0529
  13   2.0000     -10.289509      -279.9918
  14   2.0000     -10.285692      -279.8879
  15   2.0000     -10.280681      -279.7515
  16   2.0000      -8.082661      -219.9404
  17   2.0000      -8.081547      -219.9101
  18   2.0000      -6.041222      -164.3900
  19   2.0000      -6.040177      -164.3616
  20   2.0000      -6.037541      -164.2899
  21   2.0000      -6.036335      -164.2570
  22   2.0000      -6.032982      -164.1658
  23   2.0000      -6.032272      -164.1465
  24   2.0000      -1.006235       -27.3810
  25   2.0000      -0.982337       -26.7307
  26   2.0000      -0.918915       -25.0050
  27   2.0000      -0.904429       -24.6108
  28   2.0000      -0.866820       -23.5874
  29   2.0000      -0.854595       -23.2547
  30   2.0000      -0.841500       -22.8984
  31   2.0000      -0.811404       -22.0794
  32   2.0000      -0.786365       -21.3981
  33   2.0000      -0.777179       -21.1481
  34   2.0000      -0.706322       -19.2200
  35   2.0000      -0.698721       -19.0132
  36   2.0000      -0.693288       -18.8653
  37   2.0000      -0.664176       -18.0732
  38   2.0000      -0.643348       -17.5064
  39   2.0000      -0.624502       -16.9936
  40   2.0000      -0.600134       -16.3305
  41   2.0000      -0.575976       -15.6731
  42   2.0000      -0.560762       -15.2591
  43   2.0000      -0.547444       -14.8967
  44   2.0000      -0.543275       -14.7833
  45   2.0000      -0.529562       -14.4101
  46   2.0000      -0.522389       -14.2149
  47   2.0000      -0.505500       -13.7554
  48   2.0000      -0.499513       -13.5924
  49   2.0000      -0.494285       -13.4502
  50   2.0000      -0.486791       -13.2463
  51   2.0000      -0.483140       -13.1469
  52   2.0000      -0.474671       -12.9165
  53   2.0000      -0.465969       -12.6797
  54   2.0000      -0.459896       -12.5144
  55   2.0000      -0.451735       -12.2923
  56   2.0000      -0.445607       -12.1256
  57   2.0000      -0.441352       -12.0098
  58   2.0000      -0.427454       -11.6316
  59   2.0000      -0.424094       -11.5402
  60   2.0000      -0.419648       -11.4192
  61   2.0000      -0.416536       -11.3345
  62   2.0000      -0.413894       -11.2626
  63   2.0000      -0.357898        -9.7389
  64   2.0000      -0.335845        -9.1388
  65   2.0000      -0.332683        -9.0528
  66   2.0000      -0.283599        -7.7171
  67   0.0000       0.019190         0.5222
  68   0.0000       0.077659         2.1132
  69   0.0000       0.091981         2.5029
  70   0.0000       0.119530         3.2526
  71   0.0000       0.122869         3.3434

MULLIKEN ATOMIC CHARGES
-----------------------
   0 S :    0.086538
   1 C :   -0.110097
   2 C :   -0.061630
   3 C :    0.039692
   4 C :   -0.135933
   5 H :   -0.050400
   6 C :    0.098633
   7 H :    0.011879
   8 H :    0.037682
   9 C :   -0.112031
  10 H :    0.031445
  11 H :    0.039810
  12 C :   -0.078239
  13 H :    0.041392
  14 H :    0.028370
  15 H :    0.054039
  16 S :    0.110213
  17 C :   -0.062328
  18 C :   -0.040134
  19 C :   -0.076725
  20 C :   -0.115092
  21 H :    0.021974
  22 C :    0.099320
  23 H :    0.031981
  24 H :    0.023037
  25 C :   -0.094350
  26 H :    0.034003
  27 H :    0.048329
  28 C :   -0.075679
  29 H :    0.047175
  30 H :    0.030313
  31 H :    0.032279
  32 H :    0.036894
  33 H :    0.027642
Sum of atomic charges:    0.0000000

LOEWDIN ATOMIC CHARGES
----------------------
   0 S :    0.361750
   1 C :   -0.174775
   2 C :   -0.061637
   3 C :   -0.060453
   4 C :   -0.164212
   5 H :    0.015686
   6 C :   -0.024622
   7 H :    0.023027
   8 H :    0.034464
   9 C :   -0.045929
  10 H :    0.023055
  11 H :    0.026626
  12 C :   -0.070451
  13 H :    0.029895
  14 H :    0.023533
  15 H :    0.027100
  16 S :    0.388540
  17 C :   -0.179749
  18 C :   -0.065836
  19 C :   -0.055321
  20 C :   -0.174609
  21 H :    0.032438
  22 C :   -0.021323
  23 H :    0.030392
  24 H :    0.032112
  25 C :   -0.047619
  26 H :    0.027655
  27 H :    0.025901
  28 C :   -0.076063
  29 H :    0.027210
  30 H :    0.024546
  31 H :    0.031953
  32 H :    0.021745
  33 H :    0.014971

  Mayer bond orders larger than 0.100000
B(  0-S ,  1-C ) :   1.1355 B(  0-S ,  4-C ) :   1.1214 B(  1-C ,  2-C ) :   1.6108
B(  1-C ,  4-C ) :   0.1017 B(  1-C , 32-H ) :   0.9647 B(  2-C ,  3-C ) :   1.2466
B(  2-C ,  6-C ) :   1.0113 B(  3-C ,  4-C ) :   1.5741 B(  3-C ,  5-H ) :   0.9942
B(  4-C , 20-C ) :   1.0642 B(  6-C ,  7-H ) :   0.9421 B(  6-C ,  8-H ) :   0.9481
B(  6-C ,  9-C ) :   1.0592 B(  9-C , 10-H ) :   0.9582 B(  9-C , 11-H ) :   0.9622
B(  9-C , 12-C ) :   1.0694 B( 12-C , 13-H ) :   0.9771 B( 12-C , 14-H ) :   0.9775
B( 12-C , 15-H ) :   0.9738 B( 16-S , 17-C ) :   1.1321 B( 16-S , 20-C ) :   1.1066
B( 17-C , 18-C ) :   1.6783 B( 17-C , 33-H ) :   0.9698 B( 18-C , 19-C ) :   1.1845
B( 18-C , 21-H ) :   0.9825 B( 19-C , 20-C ) :   1.6709 B( 19-C , 22-C ) :   1.0380
B( 22-C , 23-H ) :   0.9393 B( 22-C , 24-H ) :   0.9264 B( 22-C , 25-C ) :   1.0582
B( 25-C , 26-H ) :   0.9507 B( 25-C , 27-H ) :   0.9586 B( 25-C , 28-C ) :   1.0652
B( 28-C , 29-H ) :   0.9756 B( 28-C , 30-H ) :   0.9777 B( 28-C , 31-H ) :   0.9717

Dispersion correction           -0.014833595
FINAL SINGLE POINT ENERGY     -1339.864424576760

DIPOLE MOMENT
-------------
                                X             Y             Z
Electronic contribution:     20.16625     -10.36976     -19.98575
Nuclear contribution   :    -20.52093      10.44767      20.68315
                        -----------------------------------------
Total Dipole Moment    :     -0.35468       0.07790       0.69740
                        -----------------------------------------
Magnitude (a.u.)       :      0.78628
Magnitude (Debye)      :      1.99856

Rotational constants in cm-1:     0.016204     0.010574     0.007347
Rotational constants in MHz :   485.786206   317.009122   220.246867

                             ****ORCA TERMINATED NORMALLY****
TOTAL RUN TIME: 0 days 0 hours 0 minutes 21 seconds 326 msec
