                         Program Version 4.2.1 -  RELEASE  -
|  1> ! wB97X-D3 SP def2-SVP
|  2> %pal
|  3> nprocs 24
|  4> end
|  5>
|  6> * xyz 0 1
|  7> S 	 -64.8399 	 12.1246 	 -77.574
|  8> C 	 -63.505 	 10.9403 	 -77.2789
|  9> C 	 -63.9268 	 9.65574 	 -77.5153
| 10> C 	 -65.3455 	 9.53274 	 -77.8618
| 11> C 	 -65.9631 	 10.8006 	 -77.909
| 12> H 	 -65.8885 	 8.6098 	 -77.8925
| 13> C 	 -63.0477 	 8.48266 	 -77.4621
| 14> H 	 -63.3241 	 7.81262 	 -76.7272
| 15> H 	 -62.0747 	 8.81773 	 -77.1777
| 16> C 	 -63.0353 	 7.7162 	 -78.8142
| 17> H 	 -62.4771 	 6.7584 	 -78.6748
| 18> H 	 -64.0587 	 7.37173 	 -78.9672
| 19> C 	 -62.4249 	 8.36306 	 -80.0872
| 20> H 	 -63.0666 	 9.24709 	 -80.1264
| 21> H 	 -61.3954 	 8.60593 	 -80.0061
| 22> H 	 -62.5786 	 7.72259 	 -81.0178
| 23> S 	 -68.2823 	 11.9123 	 -76.9208
| 24> C 	 -69.8063 	 11.3856 	 -77.5329
| 25> C 	 -69.6417 	 10.6153 	 -78.674
| 26> C 	 -68.2263 	 10.3373 	 -78.9838
| 27> C 	 -67.402 	 10.9315 	 -78.1165
| 28> H 	 -70.4352 	 10.2434 	 -79.2347
| 29> C 	 -67.7532 	 9.67817 	 -80.2962
| 30> H 	 -66.7276 	 9.94491 	 -80.4755
| 31> H 	 -68.4803 	 10.0301 	 -81.074
| 32> C 	 -67.8408 	 8.15878 	 -80.1286
| 33> H 	 -68.8193 	 7.87722 	 -79.8472
| 34> H 	 -67.2226 	 7.91509 	 -79.3426
| 35> C 	 -67.4229 	 7.43302 	 -81.3588
| 36> H 	 -66.3122 	 7.3375 	 -81.4921
| 37> H 	 -67.8281 	 7.98515 	 -82.1986
| 38> H 	 -67.8127 	 6.4035 	 -81.4972
| 39> H 	 -62.4296 	 11.1248 	 -77.0843
| 40> H 	 -70.7525 	 11.6026 	 -77.0719
| 41> *
| 42>
| 43>                          ****END OF INPUT****

CARTESIAN COORDINATES (ANGSTROEM)
---------------------------------
  S    -64.839900   12.124600  -77.574000
  C    -63.505000   10.940300  -77.278900
  C    -63.926800    9.655740  -77.515300
  C    -65.345500    9.532740  -77.861800
  C    -65.963100   10.800600  -77.909000
  H    -65.888500    8.609800  -77.892500
  C    -63.047700    8.482660  -77.462100
  H    -63.324100    7.812620  -76.727200
  H    -62.074700    8.817730  -77.177700
  C    -63.035300    7.716200  -78.814200
  H    -62.477100    6.758400  -78.674800
  H    -64.058700    7.371730  -78.967200
  C    -62.424900    8.363060  -80.087200
  H    -63.066600    9.247090  -80.126400
  H    -61.395400    8.605930  -80.006100
  H    -62.578600    7.722590  -81.017800
  S    -68.282300   11.912300  -76.920800
  C    -69.806300   11.385600  -77.532900
  C    -69.641700   10.615300  -78.674000
  C    -68.226300   10.337300  -78.983800
  C    -67.402000   10.931500  -78.116500
  H    -70.435200   10.243400  -79.234700
  C    -67.753200    9.678170  -80.296200
  H    -66.727600    9.944910  -80.475500
  H    -68.480300   10.030100  -81.074000
  C    -67.840800    8.158780  -80.128600
  H    -68.819300    7.877220  -79.847200
  H    -67.222600    7.915090  -79.342600
  C    -67.422900    7.433020  -81.358800
  H    -66.312200    7.337500  -81.492100
  H    -67.828100    7.985150  -82.198600
  H    -67.812700    6.403500  -81.497200
  H    -62.429600   11.124800  -77.084300
  H    -70.752500   11.602600  -77.071900

 Total Charge           Charge          ....    0
 Multiplicity           Mult            ....    1
 Number of Electrons    NEL             ....  134
 Basis Dimension        Dim             ....  322

ORBITAL ENERGIES
----------------

  NO   OCC          E(Eh)            E(eV)
   0   2.0000     -88.972200     -2421.0566
   1   2.0000     -88.960978     -2420.7513
   2   2.0000     -10.338549      -281.3262
   3   2.0000     -10.323122      -280.9064
   4   2.0000     -10.319496      -280.8078
   5   2.0000     -10.318952      -280.7930
   6   2.0000     -10.301833      -280.3271
   7   2.0000     -10.300746      -280.2975
   8   2.0000     -10.299796      -280.2717
   9   2.0000     -10.295140      -280.1450
  10   2.0000     -10.294880      -280.1379
  11   2.0000     -10.290947      -280.0309
  12   2.0000     -10.284117      -279.8450
  13   2.0000     -10.280784      -279.7543
  14   2.0000     -10.277486      -279.6646
  15   2.0000     -10.273288      -279.5504
  16   2.0000      -8.085338      -220.0132
  17   2.0000      -8.076272      -219.7665
  18   2.0000      -6.044163      -164.4700
  19   2.0000      -6.040154      -164.3609
  20   2.0000      -6.035756      -164.2413
  21   2.0000      -6.034865      -164.2170
  22   2.0000      -6.030734      -164.1046
  23   2.0000      -6.026868      -163.9994
  24   2.0000      -1.004375       -27.3304
  25   2.0000      -0.979212       -26.6457
  26   2.0000      -0.917760       -24.9735
  27   2.0000      -0.914873       -24.8950
  28   2.0000      -0.869398       -23.6575
  29   2.0000      -0.851683       -23.1755
  30   2.0000      -0.841083       -22.8870
  31   2.0000      -0.814384       -22.1605
  32   2.0000      -0.784719       -21.3533
  33   2.0000      -0.775401       -21.0997
  34   2.0000      -0.709419       -19.3043
  35   2.0000      -0.701695       -19.0941
  36   2.0000      -0.692027       -18.8310
  37   2.0000      -0.669203       -18.2099
  38   2.0000      -0.635843       -17.3022
  39   2.0000      -0.621255       -16.9052
  40   2.0000      -0.597352       -16.2548
  41   2.0000      -0.577538       -15.7156
  42   2.0000      -0.570427       -15.5221
  43   2.0000      -0.549170       -14.9437
  44   2.0000      -0.542242       -14.7552
  45   2.0000      -0.525380       -14.2963
  46   2.0000      -0.519926       -14.1479
  47   2.0000      -0.516340       -14.0503
  48   2.0000      -0.511565       -13.9204
  49   2.0000      -0.496331       -13.5058
  50   2.0000      -0.491008       -13.3610
  51   2.0000      -0.481425       -13.1002
  52   2.0000      -0.473975       -12.8975
  53   2.0000      -0.465710       -12.6726
  54   2.0000      -0.460682       -12.5358
  55   2.0000      -0.450742       -12.2653
  56   2.0000      -0.445488       -12.1223
  57   2.0000      -0.435816       -11.8592
  58   2.0000      -0.430235       -11.7073
  59   2.0000      -0.428732       -11.6664
  60   2.0000      -0.427562       -11.6346
  61   2.0000      -0.415043       -11.2939
  62   2.0000      -0.405133       -11.0242
  63   2.0000      -0.351099        -9.5539
  64   2.0000      -0.331111        -9.0100
  65   2.0000      -0.327245        -8.9048
  66   2.0000      -0.295225        -8.0335
  67   0.0000       0.029838         0.8119
  68   0.0000       0.069805         1.8995
  69   0.0000       0.105727         2.8770
  70   0.0000       0.116469         3.1693
  71   0.0000       0.120861         3.2888

MULLIKEN ATOMIC CHARGES
-----------------------
   0 S :    0.107396
   1 C :   -0.124394
   2 C :   -0.121645
   3 C :    0.007719
   4 C :   -0.128755
   5 H :    0.029662
   6 C :    0.160515
   7 H :    0.017097
   8 H :   -0.006484
   9 C :   -0.133789
  10 H :    0.025494
  11 H :    0.023583
  12 C :   -0.045862
  13 H :    0.041782
  14 H :    0.033767
  15 H :    0.049010
  16 S :    0.095325
  17 C :   -0.078314
  18 C :   -0.003021
  19 C :   -0.071058
  20 C :   -0.149123
  21 H :   -0.007267
  22 C :    0.064167
  23 H :    0.033728
  24 H :    0.038876
  25 C :   -0.016552
  26 H :    0.011536
  27 H :   -0.016856
  28 C :   -0.039465
  29 H :    0.037099
  30 H :    0.017720
  31 H :    0.032947
  32 H :    0.057317
  33 H :    0.057845
Sum of atomic charges:   -0.0000000

LOEWDIN ATOMIC CHARGES
----------------------
   0 S :    0.375093
   1 C :   -0.193892
   2 C :   -0.059982
   3 C :   -0.061387
   4 C :   -0.176702
   5 H :    0.027658
   6 C :   -0.023544
   7 H :    0.027608
   8 H :    0.023729
   9 C :   -0.042057
  10 H :    0.021789
  11 H :    0.019555
  12 C :   -0.066799
  13 H :    0.028889
  14 H :    0.019347
  15 H :    0.037290
  16 S :    0.391333
  17 C :   -0.180887
  18 C :   -0.063731
  19 C :   -0.054341
  20 C :   -0.188707
  21 H :    0.017608
  22 C :   -0.014143
  23 H :    0.028857
  24 H :    0.036634
  25 C :   -0.036367
  26 H :    0.019611
  27 H :    0.008369
  28 C :   -0.069841
  29 H :    0.029551
  30 H :    0.022448
  31 H :    0.028341
  32 H :    0.038906
  33 H :    0.029762

  Mayer bond orders larger than 0.100000
B(  0-S ,  1-C ) :   1.0898 B(  0-S ,  4-C ) :   1.1446 B(  1-C ,  2-C ) :   1.6666
B(  1-C , 32-H ) :   0.9569 B(  2-C ,  3-C ) :   1.1898 B(  2-C ,  6-C ) :   1.0498
B(  3-C ,  4-C ) :   1.5797 B(  3-C ,  5-H ) :   0.9854 B(  4-C , 20-C ) :   1.0348
B(  6-C ,  7-H ) :   0.9231 B(  6-C ,  8-H ) :   0.9317 B(  6-C ,  9-C ) :   1.0644
B(  9-C , 10-H ) :   0.9558 B(  9-C , 11-H ) :   0.9565 B(  9-C , 12-C ) :   1.0635
B( 12-C , 13-H ) :   0.9785 B( 12-C , 14-H ) :   0.9757 B( 12-C , 15-H ) :   0.9732
B( 16-S , 17-C ) :   1.1530 B( 16-S , 20-C ) :   1.1064 B( 17-C , 18-C ) :   1.6217
B( 17-C , 33-H ) :   0.9716 B( 18-C , 19-C ) :   1.1976 B( 18-C , 21-H ) :   0.9988
B( 19-C , 20-C ) :   1.6720 B( 19-C , 22-C ) :   1.0313 B( 22-C , 23-H ) :   0.9395
B( 22-C , 24-H ) :   0.9360 B( 22-C , 25-C ) :   1.0651 B( 25-C , 26-H ) :   0.9513
B( 25-C , 27-H ) :   0.9495 B( 25-C , 28-C ) :   1.0881 B( 28-C , 29-H ) :   0.9723
B( 28-C , 30-H ) :   0.9695 B( 28-C , 31-H ) :   0.9726

Dispersion correction           -0.015370795
FINAL SINGLE POINT ENERGY     -1339.872401922126

DIPOLE MOMENT
-------------
                                X             Y             Z
Electronic contribution:     -9.03704      24.72291      17.49879
Nuclear contribution   :      9.03105     -25.40036     -17.75014
                        -----------------------------------------
Total Dipole Moment    :     -0.00599      -0.67745      -0.25135
                        -----------------------------------------
Magnitude (a.u.)       :      0.72260
Magnitude (Debye)      :      1.83671

Rotational constants in cm-1:     0.017509     0.010601     0.007198
Rotational constants in MHz :   524.901979   317.809107   215.782651

                             ****ORCA TERMINATED NORMALLY****
TOTAL RUN TIME: 0 days 0 hours 0 minutes 21 seconds 626 msec
