                         Program Version 4.2.1 -  RELEASE  -
|  1> ! wB97X-D3 SP def2-SVP
|  2> %pal
|  3> nprocs 24
|  4> end
|  5>
|  6> * xyz 0 1
|  7> S 	 -127.55 	 70.4388 	 -61.4166
|  8> C 	 -126.49 	 71.853 	 -61.4615
|  9> C 	 -126.666 	 72.5732 	 -62.6451
| 10> C 	 -127.436 	 71.7915 	 -63.5845
| 11> C 	 -128.016 	 70.6619 	 -63.0351
| 12> H 	 -127.689 	 72.1765 	 -64.6022
| 13> C 	 -126.168 	 73.9311 	 -63.0397
| 14> H 	 -125.364 	 74.2412 	 -62.3339
| 15> H 	 -127.154 	 74.4832 	 -62.9099
| 16> C 	 -125.794 	 74.197 	 -64.4869
| 17> H 	 -126.624 	 73.9804 	 -65.1993
| 18> H 	 -125.572 	 75.2605 	 -64.5562
| 19> C 	 -124.574 	 73.34 	 -64.9681
| 20> H 	 -123.79 	 73.4234 	 -64.2762
| 21> H 	 -124.954 	 72.3011 	 -65.057
| 22> H 	 -124.257 	 73.6048 	 -66.0264
| 23> S 	 -130.136 	 68.7896 	 -62.7412
| 24> C 	 -130.802 	 67.9082 	 -64.114
| 25> C 	 -130.147 	 68.2761 	 -65.2818
| 26> C 	 -129.056 	 69.1756 	 -65.0545
| 27> C 	 -128.921 	 69.6314 	 -63.731
| 28> H 	 -130.398 	 67.7574 	 -66.164
| 29> C 	 -128.176 	 69.6849 	 -66.2546
| 30> H 	 -127.784 	 70.6564 	 -65.9176
| 31> H 	 -128.8 	 69.9407 	 -67.1675
| 32> C 	 -127.19 	 68.6333 	 -66.6905
| 33> H 	 -126.416 	 69.0605 	 -67.4123
| 34> H 	 -127.719 	 67.8498 	 -67.2324
| 35> C 	 -126.371 	 67.9906 	 -65.5909
| 36> H 	 -125.55 	 67.3047 	 -65.7987
| 37> H 	 -127.057 	 67.3838 	 -64.9843
| 38> H 	 -125.997 	 68.809 	 -64.9387
| 39> H 	 -125.999 	 72.2928 	 -60.6151
| 40> H 	 -131.664 	 67.2521 	 -63.976
| 41> *
| 42>
| 43>                          ****END OF INPUT****

CARTESIAN COORDINATES (ANGSTROEM)
---------------------------------
  S    -127.550000   70.438800  -61.416600
  C    -126.490000   71.853000  -61.461500
  C    -126.666000   72.573200  -62.645100
  C    -127.436000   71.791500  -63.584500
  C    -128.016000   70.661900  -63.035100
  H    -127.689000   72.176500  -64.602200
  C    -126.168000   73.931100  -63.039700
  H    -125.364000   74.241200  -62.333900
  H    -127.154000   74.483200  -62.909900
  C    -125.794000   74.197000  -64.486900
  H    -126.624000   73.980400  -65.199300
  H    -125.572000   75.260500  -64.556200
  C    -124.574000   73.340000  -64.968100
  H    -123.790000   73.423400  -64.276200
  H    -124.954000   72.301100  -65.057000
  H    -124.257000   73.604800  -66.026400
  S    -130.136000   68.789600  -62.741200
  C    -130.802000   67.908200  -64.114000
  C    -130.147000   68.276100  -65.281800
  C    -129.056000   69.175600  -65.054500
  C    -128.921000   69.631400  -63.731000
  H    -130.398000   67.757400  -66.164000
  C    -128.176000   69.684900  -66.254600
  H    -127.784000   70.656400  -65.917600
  H    -128.800000   69.940700  -67.167500
  C    -127.190000   68.633300  -66.690500
  H    -126.416000   69.060500  -67.412300
  H    -127.719000   67.849800  -67.232400
  C    -126.371000   67.990600  -65.590900
  H    -125.550000   67.304700  -65.798700
  H    -127.057000   67.383800  -64.984300
  H    -125.997000   68.809000  -64.938700
  H    -125.999000   72.292800  -60.615100
  H    -131.664000   67.252100  -63.976000

 Total Charge           Charge          ....    0
 Multiplicity           Mult            ....    1
 Number of Electrons    NEL             ....  134
 Basis Dimension        Dim             ....  322

ORBITAL ENERGIES
----------------

  NO   OCC          E(Eh)            E(eV)
   0   2.0000     -88.969297     -2420.9777
   1   2.0000     -88.965201     -2420.8662
   2   2.0000     -10.340021      -281.3663
   3   2.0000     -10.338264      -281.3185
   4   2.0000     -10.323951      -280.9290
   5   2.0000     -10.314169      -280.6628
   6   2.0000     -10.311136      -280.5803
   7   2.0000     -10.306502      -280.4542
   8   2.0000     -10.303671      -280.3771
   9   2.0000     -10.299382      -280.2604
  10   2.0000     -10.297568      -280.2111
  11   2.0000     -10.296412      -280.1796
  12   2.0000     -10.295468      -280.1539
  13   2.0000     -10.286606      -279.9128
  14   2.0000     -10.282069      -279.7893
  15   2.0000     -10.268689      -279.4252
  16   2.0000      -8.084438      -219.9887
  17   2.0000      -8.079404      -219.8517
  18   2.0000      -6.043032      -164.4393
  19   2.0000      -6.038857      -164.3256
  20   2.0000      -6.037936      -164.3006
  21   2.0000      -6.035114      -164.2238
  22   2.0000      -6.033852      -164.1895
  23   2.0000      -6.030316      -164.0933
  24   2.0000      -1.005199       -27.3529
  25   2.0000      -0.982939       -26.7471
  26   2.0000      -0.917842       -24.9758
  27   2.0000      -0.906926       -24.6787
  28   2.0000      -0.863714       -23.5028
  29   2.0000      -0.845256       -23.0006
  30   2.0000      -0.839033       -22.8313
  31   2.0000      -0.813917       -22.1478
  32   2.0000      -0.784064       -21.3355
  33   2.0000      -0.774923       -21.0867
  34   2.0000      -0.706748       -19.2316
  35   2.0000      -0.693232       -18.8638
  36   2.0000      -0.688279       -18.7290
  37   2.0000      -0.656220       -17.8566
  38   2.0000      -0.632508       -17.2114
  39   2.0000      -0.628655       -17.1066
  40   2.0000      -0.593274       -16.1438
  41   2.0000      -0.571994       -15.5648
  42   2.0000      -0.554510       -15.0890
  43   2.0000      -0.551510       -15.0073
  44   2.0000      -0.542499       -14.7622
  45   2.0000      -0.536635       -14.6026
  46   2.0000      -0.524186       -14.2638
  47   2.0000      -0.509514       -13.8646
  48   2.0000      -0.499441       -13.5905
  49   2.0000      -0.497605       -13.5405
  50   2.0000      -0.492783       -13.4093
  51   2.0000      -0.479343       -13.0436
  52   2.0000      -0.466068       -12.6823
  53   2.0000      -0.463398       -12.6097
  54   2.0000      -0.456767       -12.4293
  55   2.0000      -0.447871       -12.1872
  56   2.0000      -0.443684       -12.0733
  57   2.0000      -0.436086       -11.8665
  58   2.0000      -0.430400       -11.7118
  59   2.0000      -0.429127       -11.6771
  60   2.0000      -0.418316       -11.3830
  61   2.0000      -0.412726       -11.2308
  62   2.0000      -0.398588       -10.8461
  63   2.0000      -0.353053        -9.6071
  64   2.0000      -0.333372        -9.0715
  65   2.0000      -0.327539        -8.9128
  66   2.0000      -0.290882        -7.9153
  67   0.0000       0.025036         0.6813
  68   0.0000       0.076999         2.0953
  69   0.0000       0.101947         2.7741
  70   0.0000       0.114944         3.1278
  71   0.0000       0.125412         3.4126

MULLIKEN ATOMIC CHARGES
-----------------------
   0 S :    0.113010
   1 C :   -0.118737
   2 C :   -0.107616
   3 C :   -0.042624
   4 C :   -0.088715
   5 H :    0.037058
   6 C :    0.039297
   7 H :    0.038497
   8 H :    0.063723
   9 C :   -0.087831
  10 H :    0.032283
  11 H :    0.036999
  12 C :   -0.056593
  13 H :    0.029354
  14 H :    0.041548
  15 H :    0.043073
  16 S :    0.076744
  17 C :   -0.106068
  18 C :   -0.003025
  19 C :   -0.092815
  20 C :   -0.124797
  21 H :    0.011328
  22 C :    0.082062
  23 H :    0.003646
  24 H :    0.041390
  25 C :   -0.087630
  26 H :    0.037846
  27 H :    0.027586
  28 C :   -0.061905
  29 H :    0.037424
  30 H :    0.035955
  31 H :    0.036818
  32 H :    0.040569
  33 H :    0.072148
Sum of atomic charges:   -0.0000000

LOEWDIN ATOMIC CHARGES
----------------------
   0 S :    0.423657
   1 C :   -0.205839
   2 C :   -0.056606
   3 C :   -0.085552
   4 C :   -0.198141
   5 H :    0.032439
   6 C :   -0.040642
   7 H :    0.035845
   8 H :    0.055487
   9 C :   -0.045214
  10 H :    0.025440
  11 H :    0.026708
  12 C :   -0.064861
  13 H :    0.015352
  14 H :    0.029794
  15 H :    0.032616
  16 S :    0.383083
  17 C :   -0.175328
  18 C :   -0.069264
  19 C :   -0.057996
  20 C :   -0.186842
  21 H :    0.027086
  22 C :   -0.031557
  23 H :    0.024345
  24 H :    0.040240
  25 C :   -0.050942
  26 H :    0.030817
  27 H :    0.021048
  28 C :   -0.074623
  29 H :    0.025854
  30 H :    0.025927
  31 H :    0.030209
  32 H :    0.024119
  33 H :    0.033340

  Mayer bond orders larger than 0.100000
B(  0-S ,  1-C ) :   1.1231 B(  0-S ,  4-C ) :   1.1784 B(  1-C ,  2-C ) :   1.6177
B(  1-C , 32-H ) :   0.9660 B(  2-C ,  3-C ) :   1.2426 B(  2-C ,  6-C ) :   1.0100
B(  3-C ,  4-C ) :   1.5751 B(  3-C ,  5-H ) :   0.9693 B(  4-C , 20-C ) :   1.0018
B(  6-C ,  7-H ) :   0.9451 B(  6-C ,  8-H ) :   0.9243 B(  6-C ,  9-C ) :   1.0879
B(  9-C , 10-H ) :   0.9463 B(  9-C , 11-H ) :   0.9519 B(  9-C , 12-C ) :   1.0703
B( 12-C , 13-H ) :   0.9789 B( 12-C , 14-H ) :   0.9731 B( 12-C , 15-H ) :   0.9754
B( 16-S , 17-C ) :   1.1621 B( 16-S , 20-C ) :   1.1419 B( 17-C , 18-C ) :   1.5877
B( 17-C , 20-C ) :   0.1026 B( 17-C , 33-H ) :   0.9682 B( 18-C , 19-C ) :   1.2459
B( 18-C , 21-H ) :   1.0000 B( 19-C , 20-C ) :   1.5969 B( 19-C , 22-C ) :   1.0190
B( 22-C , 23-H ) :   0.9386 B( 22-C , 24-H ) :   0.9435 B( 22-C , 25-C ) :   1.0642
B( 25-C , 26-H ) :   0.9553 B( 25-C , 27-H ) :   0.9573 B( 25-C , 28-C ) :   1.0772
B( 28-C , 29-H ) :   0.9758 B( 28-C , 30-H ) :   0.9650 B( 28-C , 31-H ) :   0.9755

Dispersion correction           -0.015429983
FINAL SINGLE POINT ENERGY     -1339.877481468314

DIPOLE MOMENT
-------------
                                X             Y             Z
Electronic contribution:    -17.04264      -8.99551      19.64718
Nuclear contribution   :     17.14612       9.37198     -20.15402
                        -----------------------------------------
Total Dipole Moment    :      0.10348       0.37647      -0.50684
                        -----------------------------------------
Magnitude (a.u.)       :      0.63978
Magnitude (Debye)      :      1.62620

Rotational constants in cm-1:     0.019314     0.009660     0.007419
Rotational constants in MHz :   579.013413   289.601704   222.415132

                             ****ORCA TERMINATED NORMALLY****
TOTAL RUN TIME: 0 days 0 hours 0 minutes 22 seconds 680 msec
