                         Program Version 4.2.1 -  RELEASE  -
|  1> ! wB97X-D3 SP def2-SVP
|  2> %pal
|  3> nprocs 24
|  4> end
|  5>
|  6> * xyz 0 1
|  7> S 	 -72.2899 	 -0.938373 	 -67.5412
|  8> C 	 -71.2418 	 0.065378 	 -68.4954
|  9> C 	 -71.0877 	 -0.45188 	 -69.7833
| 10> C 	 -71.7936 	 -1.68622 	 -69.9885
| 11> C 	 -72.6113 	 -2.01913 	 -68.8783
| 12> H 	 -71.8952 	 -2.28824 	 -70.8614
| 13> C 	 -70.2443 	 0.285614 	 -70.8495
| 14> H 	 -69.7847 	 -0.477176 	 -71.5487
| 15> H 	 -69.3891 	 0.664573 	 -70.3229
| 16> C 	 -70.9591 	 1.32073 	 -71.7836
| 17> H 	 -71.1154 	 0.967371 	 -72.8298
| 18> H 	 -71.9098 	 1.47373 	 -71.3667
| 19> C 	 -70.2377 	 2.71865 	 -71.8468
| 20> H 	 -69.3128 	 2.56721 	 -72.3087
| 21> H 	 -70.7857 	 3.42144 	 -72.4189
| 22> H 	 -70.0649 	 3.08397 	 -70.8521
| 23> S 	 -73.7756 	 -3.83846 	 -67.1415
| 24> C 	 -74.6663 	 -5.20925 	 -67.7395
| 25> C 	 -74.8541 	 -5.05324 	 -69.132
| 26> C 	 -74.2807 	 -3.84774 	 -69.7331
| 27> C 	 -73.4619 	 -3.18613 	 -68.7815
| 28> H 	 -75.4507 	 -5.74916 	 -69.8133
| 29> C 	 -74.4095 	 -3.54567 	 -71.1828
| 30> H 	 -74.3242 	 -2.43895 	 -71.501
| 31> H 	 -75.4657 	 -3.83472 	 -71.4139
| 32> C 	 -73.48 	 -4.31133 	 -72.126
| 33> H 	 -73.4169 	 -5.36633 	 -71.8421
| 34> H 	 -72.4472 	 -3.85563 	 -72.033
| 35> C 	 -73.9723 	 -4.16867 	 -73.5345
| 36> H 	 -73.0673 	 -4.34152 	 -74.1687
| 37> H 	 -74.3339 	 -3.16678 	 -73.7295
| 38> H 	 -74.6772 	 -4.94988 	 -73.8113
| 39> H 	 -70.676 	 0.926618 	 -68.2252
| 40> H 	 -75.1618 	 -6.03531 	 -67.1449
| 41> *
| 42>
| 43>                          ****END OF INPUT****

CARTESIAN COORDINATES (ANGSTROEM)
---------------------------------
  S    -72.289900   -0.938373  -67.541200
  C    -71.241800    0.065378  -68.495400
  C    -71.087700   -0.451880  -69.783300
  C    -71.793600   -1.686220  -69.988500
  C    -72.611300   -2.019130  -68.878300
  H    -71.895200   -2.288240  -70.861400
  C    -70.244300    0.285614  -70.849500
  H    -69.784700   -0.477176  -71.548700
  H    -69.389100    0.664573  -70.322900
  C    -70.959100    1.320730  -71.783600
  H    -71.115400    0.967371  -72.829800
  H    -71.909800    1.473730  -71.366700
  C    -70.237700    2.718650  -71.846800
  H    -69.312800    2.567210  -72.308700
  H    -70.785700    3.421440  -72.418900
  H    -70.064900    3.083970  -70.852100
  S    -73.775600   -3.838460  -67.141500
  C    -74.666300   -5.209250  -67.739500
  C    -74.854100   -5.053240  -69.132000
  C    -74.280700   -3.847740  -69.733100
  C    -73.461900   -3.186130  -68.781500
  H    -75.450700   -5.749160  -69.813300
  C    -74.409500   -3.545670  -71.182800
  H    -74.324200   -2.438950  -71.501000
  H    -75.465700   -3.834720  -71.413900
  C    -73.480000   -4.311330  -72.126000
  H    -73.416900   -5.366330  -71.842100
  H    -72.447200   -3.855630  -72.033000
  C    -73.972300   -4.168670  -73.534500
  H    -73.067300   -4.341520  -74.168700
  H    -74.333900   -3.166780  -73.729500
  H    -74.677200   -4.949880  -73.811300
  H    -70.676000    0.926618  -68.225200
  H    -75.161800   -6.035310  -67.144900

 Total Charge           Charge          ....    0
 Multiplicity           Mult            ....    1
 Number of Electrons    NEL             ....  134
 Basis Dimension        Dim             ....  322

ORBITAL ENERGIES
----------------

  NO   OCC          E(Eh)            E(eV)
   0   2.0000     -88.971076     -2421.0261
   1   2.0000     -88.967438     -2420.9271
   2   2.0000     -10.334731      -281.2223
   3   2.0000     -10.333744      -281.1955
   4   2.0000     -10.328942      -281.0648
   5   2.0000     -10.313160      -280.6354
   6   2.0000     -10.310824      -280.5718
   7   2.0000     -10.307373      -280.4779
   8   2.0000     -10.305980      -280.4400
   9   2.0000     -10.301373      -280.3146
  10   2.0000     -10.297135      -280.1993
  11   2.0000     -10.297050      -280.1970
  12   2.0000     -10.291762      -280.0531
  13   2.0000     -10.287842      -279.9464
  14   2.0000     -10.280633      -279.7503
  15   2.0000     -10.271591      -279.5042
  16   2.0000      -8.085548      -220.0189
  17   2.0000      -8.081560      -219.9104
  18   2.0000      -6.044119      -164.4688
  19   2.0000      -6.040236      -164.3632
  20   2.0000      -6.040000      -164.3567
  21   2.0000      -6.036359      -164.2577
  22   2.0000      -6.036128      -164.2514
  23   2.0000      -6.032206      -164.1447
  24   2.0000      -1.002647       -27.2834
  25   2.0000      -0.978166       -26.6172
  26   2.0000      -0.918155       -24.9843
  27   2.0000      -0.902494       -24.5581
  28   2.0000      -0.867392       -23.6029
  29   2.0000      -0.855908       -23.2904
  30   2.0000      -0.845234       -23.0000
  31   2.0000      -0.809401       -22.0249
  32   2.0000      -0.780489       -21.2382
  33   2.0000      -0.770330       -20.9617
  34   2.0000      -0.707419       -19.2498
  35   2.0000      -0.701246       -19.0819
  36   2.0000      -0.691509       -18.8169
  37   2.0000      -0.661576       -18.0024
  38   2.0000      -0.638983       -17.3876
  39   2.0000      -0.615649       -16.7527
  40   2.0000      -0.597681       -16.2637
  41   2.0000      -0.570462       -15.5231
  42   2.0000      -0.564311       -15.3557
  43   2.0000      -0.548478       -14.9248
  44   2.0000      -0.528002       -14.3677
  45   2.0000      -0.522166       -14.2089
  46   2.0000      -0.518977       -14.1221
  47   2.0000      -0.515027       -14.0146
  48   2.0000      -0.509925       -13.8758
  49   2.0000      -0.504617       -13.7313
  50   2.0000      -0.485970       -13.2239
  51   2.0000      -0.484625       -13.1873
  52   2.0000      -0.477170       -12.9845
  53   2.0000      -0.463601       -12.6152
  54   2.0000      -0.457068       -12.4375
  55   2.0000      -0.451774       -12.2934
  56   2.0000      -0.444062       -12.0835
  57   2.0000      -0.439497       -11.9593
  58   2.0000      -0.434320       -11.8185
  59   2.0000      -0.423195       -11.5157
  60   2.0000      -0.422851       -11.5064
  61   2.0000      -0.416760       -11.3406
  62   2.0000      -0.408768       -11.1232
  63   2.0000      -0.357042        -9.7156
  64   2.0000      -0.333585        -9.0773
  65   2.0000      -0.326294        -8.8789
  66   2.0000      -0.281071        -7.6483
  67   0.0000       0.015785         0.4295
  68   0.0000       0.077522         2.1095
  69   0.0000       0.099658         2.7118
  70   0.0000       0.114826         3.1246
  71   0.0000       0.131106         3.5676

MULLIKEN ATOMIC CHARGES
-----------------------
   0 S :    0.118957
   1 C :   -0.092055
   2 C :   -0.105283
   3 C :    0.048870
   4 C :   -0.130710
   5 H :   -0.037063
   6 C :    0.040781
   7 H :    0.031561
   8 H :    0.023138
   9 C :   -0.054091
  10 H :    0.036482
  11 H :    0.023432
  12 C :   -0.034043
  13 H :    0.021732
  14 H :    0.029257
  15 H :    0.026710
  16 S :    0.094951
  17 C :   -0.102678
  18 C :   -0.061584
  19 C :   -0.015112
  20 C :   -0.144428
  21 H :    0.039817
  22 C :   -0.032073
  23 H :    0.052309
  24 H :    0.030832
  25 C :   -0.083876
  26 H :    0.031666
  27 H :    0.045502
  28 C :   -0.034241
  29 H :    0.033211
  30 H :    0.031274
  31 H :    0.042052
  32 H :    0.035116
  33 H :    0.089587
Sum of atomic charges:    0.0000000

LOEWDIN ATOMIC CHARGES
----------------------
   0 S :    0.416515
   1 C :   -0.205060
   2 C :   -0.060239
   3 C :   -0.060956
   4 C :   -0.190316
   5 H :    0.021495
   6 C :   -0.036861
   7 H :    0.037807
   8 H :    0.025907
   9 C :   -0.035255
  10 H :    0.027732
  11 H :    0.015695
  12 C :   -0.051491
  13 H :    0.016702
  14 H :    0.021813
  15 H :    0.021169
  16 S :    0.390874
  17 C :   -0.205995
  18 C :   -0.079665
  19 C :   -0.056943
  20 C :   -0.181284
  21 H :    0.037724
  22 C :   -0.050613
  23 H :    0.041102
  24 H :    0.035648
  25 C :   -0.043938
  26 H :    0.025922
  27 H :    0.026001
  28 C :   -0.065193
  29 H :    0.033335
  30 H :    0.023454
  31 H :    0.027730
  32 H :    0.026798
  33 H :    0.050384

  Mayer bond orders larger than 0.100000
B(  0-S ,  1-C ) :   1.1375 B(  0-S ,  4-C ) :   1.1529 B(  1-C ,  2-C ) :   1.5939
B(  1-C , 32-H ) :   0.9705 B(  2-C ,  3-C ) :   1.2542 B(  2-C ,  6-C ) :   1.0332
B(  3-C ,  4-C ) :   1.5260 B(  3-C ,  5-H ) :   0.9971 B(  4-C , 20-C ) :   1.1107
B(  6-C ,  7-H ) :   0.9443 B(  6-C ,  8-H ) :   0.9509 B(  6-C ,  9-C ) :   1.0238
B(  9-C , 10-H ) :   0.9614 B(  9-C , 11-H ) :   0.9663 B(  9-C , 12-C ) :   1.0789
B( 12-C , 13-H ) :   0.9794 B( 12-C , 14-H ) :   0.9758 B( 12-C , 15-H ) :   0.9796
B( 16-S , 17-C ) :   1.1503 B( 16-S , 20-C ) :   1.1273 B( 17-C , 18-C ) :   1.5941
B( 17-C , 33-H ) :   0.9618 B( 18-C , 19-C ) :   1.2523 B( 18-C , 21-H ) :   0.9705
B( 19-C , 20-C ) :   1.5451 B( 19-C , 22-C ) :   1.0623 B( 22-C , 23-H ) :   0.9292
B( 22-C , 24-H ) :   0.9306 B( 22-C , 25-C ) :   1.0635 B( 25-C , 26-H ) :   0.9492
B( 25-C , 27-H ) :   0.9505 B( 25-C , 28-C ) :   1.0799 B( 28-C , 29-H ) :   0.9720
B( 28-C , 30-H ) :   0.9709 B( 28-C , 31-H ) :   0.9748

Dispersion correction           -0.013743515
FINAL SINGLE POINT ENERGY     -1339.870105049207

DIPOLE MOMENT
-------------
                                X             Y             Z
Electronic contribution:     -5.67921      -8.35694      30.53113
Nuclear contribution   :      5.68180       8.32111     -31.29742
                        -----------------------------------------
Total Dipole Moment    :      0.00259      -0.03583      -0.76629
                        -----------------------------------------
Magnitude (a.u.)       :      0.76713
Magnitude (Debye)      :      1.94990

Rotational constants in cm-1:     0.018106     0.008638     0.006052
Rotational constants in MHz :   542.798691   258.958094   181.433385

                             ****ORCA TERMINATED NORMALLY****
TOTAL RUN TIME: 0 days 0 hours 0 minutes 20 seconds 201 msec
