                         Program Version 4.2.1 -  RELEASE  -
|  1> ! wB97X-D3 SP def2-SVP
|  2> %pal
|  3> nprocs 24
|  4> end
|  5>
|  6> * xyz 0 1
|  7> S 	 -107.053 	 50.4954 	 -11.7102
|  8> C 	 -107.928 	 51.5245 	 -12.7179
|  9> C 	 -107.11 	 52.3164 	 -13.5512
| 10> C 	 -105.798 	 51.765 	 -13.5418
| 11> C 	 -105.567 	 50.8174 	 -12.5421
| 12> H 	 -105.012 	 52.172 	 -14.082
| 13> C 	 -107.477 	 53.6203 	 -14.3924
| 14> H 	 -106.924 	 54.4928 	 -14.0306
| 15> H 	 -108.526 	 53.9352 	 -14.3437
| 16> C 	 -107.282 	 53.3606 	 -15.8534
| 17> H 	 -107.186 	 54.2578 	 -16.5034
| 18> H 	 -106.298 	 52.904 	 -16.1441
| 19> C 	 -108.313 	 52.4373 	 -16.4136
| 20> H 	 -107.933 	 51.9429 	 -17.2766
| 21> H 	 -108.712 	 51.6324 	 -15.8069
| 22> H 	 -109.095 	 52.944 	 -16.8197
| 23> S 	 -103.722 	 51.3867 	 -10.6205
| 24> C 	 -102.148 	 50.5633 	 -10.5311
| 25> C 	 -102.043 	 49.5988 	 -11.5666
| 26> C 	 -103.28 	 49.4634 	 -12.2927
| 27> C 	 -104.263 	 50.434 	 -11.9686
| 28> H 	 -101.135 	 49.0275 	 -11.831
| 29> C 	 -103.443 	 48.3345 	 -13.283
| 30> H 	 -102.558 	 48.3152 	 -13.9237
| 31> H 	 -104.225 	 48.6734 	 -13.9791
| 32> C 	 -103.87 	 47.0198 	 -12.5338
| 33> H 	 -104.812 	 47.2554 	 -11.9894
| 34> H 	 -103.044 	 46.7533 	 -11.8671
| 35> C 	 -104.074 	 45.8311 	 -13.4721
| 36> H 	 -104.081 	 44.8885 	 -12.9442
| 37> H 	 -103.296 	 45.737 	 -14.2363
| 38> H 	 -105.038 	 45.9629 	 -14.0142
| 39> H 	 -108.946 	 51.6575 	 -12.539
| 40> H 	 -101.271 	 50.9572 	 -9.97154
| 41> *
| 42>
| 43>                          ****END OF INPUT****

CARTESIAN COORDINATES (ANGSTROEM)
---------------------------------
  S    -107.053000   50.495400  -11.710200
  C    -107.928000   51.524500  -12.717900
  C    -107.110000   52.316400  -13.551200
  C    -105.798000   51.765000  -13.541800
  C    -105.567000   50.817400  -12.542100
  H    -105.012000   52.172000  -14.082000
  C    -107.477000   53.620300  -14.392400
  H    -106.924000   54.492800  -14.030600
  H    -108.526000   53.935200  -14.343700
  C    -107.282000   53.360600  -15.853400
  H    -107.186000   54.257800  -16.503400
  H    -106.298000   52.904000  -16.144100
  C    -108.313000   52.437300  -16.413600
  H    -107.933000   51.942900  -17.276600
  H    -108.712000   51.632400  -15.806900
  H    -109.095000   52.944000  -16.819700
  S    -103.722000   51.386700  -10.620500
  C    -102.148000   50.563300  -10.531100
  C    -102.043000   49.598800  -11.566600
  C    -103.280000   49.463400  -12.292700
  C    -104.263000   50.434000  -11.968600
  H    -101.135000   49.027500  -11.831000
  C    -103.443000   48.334500  -13.283000
  H    -102.558000   48.315200  -13.923700
  H    -104.225000   48.673400  -13.979100
  C    -103.870000   47.019800  -12.533800
  H    -104.812000   47.255400  -11.989400
  H    -103.044000   46.753300  -11.867100
  C    -104.074000   45.831100  -13.472100
  H    -104.081000   44.888500  -12.944200
  H    -103.296000   45.737000  -14.236300
  H    -105.038000   45.962900  -14.014200
  H    -108.946000   51.657500  -12.539000
  H    -101.271000   50.957200   -9.971540

 Total Charge           Charge          ....    0
 Multiplicity           Mult            ....    1
 Number of Electrons    NEL             ....  134
 Basis Dimension        Dim             ....  322

ORBITAL ENERGIES
----------------

  NO   OCC          E(Eh)            E(eV)
   0   2.0000     -88.967021     -2420.9157
   1   2.0000     -88.964864     -2420.8570
   2   2.0000     -10.328494      -281.0526
   3   2.0000     -10.327986      -281.0388
   4   2.0000     -10.324963      -280.9565
   5   2.0000     -10.310997      -280.5765
   6   2.0000     -10.309928      -280.5474
   7   2.0000     -10.303474      -280.3718
   8   2.0000     -10.301445      -280.3166
   9   2.0000     -10.300538      -280.2919
  10   2.0000     -10.291837      -280.0551
  11   2.0000     -10.289524      -279.9922
  12   2.0000     -10.288960      -279.9768
  13   2.0000     -10.285473      -279.8819
  14   2.0000     -10.275485      -279.6102
  15   2.0000     -10.258485      -279.1476
  16   2.0000      -8.083226      -219.9558
  17   2.0000      -8.079177      -219.8456
  18   2.0000      -6.041363      -164.3939
  19   2.0000      -6.037724      -164.2948
  20   2.0000      -6.037433      -164.2869
  21   2.0000      -6.034391      -164.2041
  22   2.0000      -6.033558      -164.1814
  23   2.0000      -6.030094      -164.0872
  24   2.0000      -1.007872       -27.4256
  25   2.0000      -0.980152       -26.6713
  26   2.0000      -0.916129       -24.9291
  27   2.0000      -0.901309       -24.5259
  28   2.0000      -0.865414       -23.5491
  29   2.0000      -0.851924       -23.1820
  30   2.0000      -0.844549       -22.9813
  31   2.0000      -0.810101       -22.0440
  32   2.0000      -0.787011       -21.4157
  33   2.0000      -0.764769       -20.8104
  34   2.0000      -0.702034       -19.1033
  35   2.0000      -0.693895       -18.8818
  36   2.0000      -0.687563       -18.7095
  37   2.0000      -0.658845       -17.9281
  38   2.0000      -0.653642       -17.7865
  39   2.0000      -0.623761       -16.9734
  40   2.0000      -0.586653       -15.9636
  41   2.0000      -0.568442       -15.4681
  42   2.0000      -0.560999       -15.2656
  43   2.0000      -0.557308       -15.1651
  44   2.0000      -0.538596       -14.6559
  45   2.0000      -0.519060       -14.1244
  46   2.0000      -0.513201       -13.9649
  47   2.0000      -0.511705       -13.9242
  48   2.0000      -0.506594       -13.7851
  49   2.0000      -0.496754       -13.5174
  50   2.0000      -0.490746       -13.3539
  51   2.0000      -0.477334       -12.9889
  52   2.0000      -0.469863       -12.7856
  53   2.0000      -0.459912       -12.5148
  54   2.0000      -0.454408       -12.3651
  55   2.0000      -0.446927       -12.1615
  56   2.0000      -0.444459       -12.0943
  57   2.0000      -0.439378       -11.9561
  58   2.0000      -0.431206       -11.7337
  59   2.0000      -0.427828       -11.6418
  60   2.0000      -0.416801       -11.3417
  61   2.0000      -0.415991       -11.3197
  62   2.0000      -0.404180       -10.9983
  63   2.0000      -0.339939        -9.2502
  64   2.0000      -0.326400        -8.8818
  65   2.0000      -0.320352        -8.7172
  66   2.0000      -0.302078        -8.2200
  67   0.0000       0.044319         1.2060
  68   0.0000       0.046771         1.2727
  69   0.0000       0.113390         3.0855
  70   0.0000       0.121659         3.3105
  71   0.0000       0.129183         3.5152

MULLIKEN ATOMIC CHARGES
-----------------------
   0 S :    0.131380
   1 C :   -0.096852
   2 C :   -0.103818
   3 C :    0.077469
   4 C :   -0.177639
   5 H :   -0.010920
   6 C :    0.101541
   7 H :    0.042266
   8 H :    0.023648
   9 C :   -0.111022
  10 H :    0.025342
  11 H :    0.025917
  12 C :   -0.001314
  13 H :    0.007537
  14 H :    0.034751
  15 H :   -0.000058
  16 S :    0.111455
  17 C :   -0.114412
  18 C :   -0.038451
  19 C :   -0.071459
  20 C :   -0.163825
  21 H :    0.035702
  22 C :    0.054988
  23 H :    0.023299
  24 H :    0.022352
  25 C :   -0.077337
  26 H :    0.046710
  27 H :    0.032390
  28 C :   -0.033846
  29 H :    0.034291
  30 H :    0.023813
  31 H :    0.035100
  32 H :    0.030980
  33 H :    0.080021
Sum of atomic charges:    0.0000000

LOEWDIN ATOMIC CHARGES
----------------------
   0 S :    0.450585
   1 C :   -0.206333
   2 C :   -0.054589
   3 C :   -0.043498
   4 C :   -0.219234
   5 H :    0.019752
   6 C :   -0.023990
   7 H :    0.034383
   8 H :    0.032849
   9 C :   -0.054936
  10 H :    0.028277
  11 H :    0.023807
  12 C :   -0.062986
  13 H :    0.026438
  14 H :    0.028672
  15 H :    0.011567
  16 S :    0.410362
  17 C :   -0.193300
  18 C :   -0.073334
  19 C :   -0.056160
  20 C :   -0.215893
  21 H :    0.037273
  22 C :   -0.038064
  23 H :    0.027892
  24 H :    0.029848
  25 C :   -0.035189
  26 H :    0.033898
  27 H :    0.024243
  28 C :   -0.070118
  29 H :    0.024487
  30 H :    0.023071
  31 H :    0.029170
  32 H :    0.012698
  33 H :    0.038353

  Mayer bond orders larger than 0.100000
B(  0-S ,  1-C ) :   1.1923 B(  0-S ,  4-C ) :   1.1764 B(  1-C ,  2-C ) :   1.5538
B(  1-C ,  4-C ) :   0.1028 B(  1-C , 32-H ) :   0.9764 B(  2-C ,  3-C ) :   1.2885
B(  2-C ,  6-C ) :   1.0087 B(  3-C ,  4-C ) :   1.5487 B(  3-C ,  5-H ) :   0.9992
B(  4-C , 20-C ) :   1.0028 B(  6-C ,  7-H ) :   0.9449 B(  6-C ,  8-H ) :   0.9497
B(  6-C ,  9-C ) :   1.0606 B(  9-C , 10-H ) :   0.9505 B(  9-C , 11-H ) :   0.9652
B(  9-C , 12-C ) :   1.0738 B( 12-C , 13-H ) :   0.9667 B( 12-C , 14-H ) :   0.9753
B( 12-C , 15-H ) :   0.9687 B( 16-S , 17-C ) :   1.1641 B( 16-S , 20-C ) :   1.1570
B( 17-C , 18-C ) :   1.5777 B( 17-C , 20-C ) :   0.1082 B( 17-C , 33-H ) :   0.9608
B( 18-C , 19-C ) :   1.2711 B( 18-C , 21-H ) :   0.9808 B( 19-C , 20-C ) :   1.5777
B( 19-C , 22-C ) :   1.0526 B( 22-C , 23-H ) :   0.9361 B( 22-C , 24-H ) :   0.9319
B( 22-C , 25-C ) :   1.0488 B( 25-C , 26-H ) :   0.9549 B( 25-C , 27-H ) :   0.9599
B( 25-C , 28-C ) :   1.0848 B( 28-C , 29-H ) :   0.9751 B( 28-C , 30-H ) :   0.9733
B( 28-C , 31-H ) :   0.9748

Dispersion correction           -0.014086800
FINAL SINGLE POINT ENERGY     -1339.862805391030

DIPOLE MOMENT
-------------
                                X             Y             Z
Electronic contribution:      3.34707       6.94249      21.30603
Nuclear contribution   :     -3.25583      -6.77539     -21.79581
                        -----------------------------------------
Total Dipole Moment    :      0.09123       0.16710      -0.48978
                        -----------------------------------------
Magnitude (a.u.)       :      0.52548
Magnitude (Debye)      :      1.33568

Rotational constants in cm-1:     0.019017     0.007954     0.006819
Rotational constants in MHz :   570.122512   238.444514   204.438523

                             ****ORCA TERMINATED NORMALLY****
TOTAL RUN TIME: 0 days 0 hours 0 minutes 20 seconds 947 msec
