                         Program Version 4.2.1 -  RELEASE  -
|  1> ! wB97X-D3 SP def2-SVP
|  2> %pal
|  3> nprocs 24
|  4> end
|  5>
|  6> * xyz 0 1
|  7> S 	 -89.7929 	 -30.1928 	 -58.2448
|  8> C 	 -88.3812 	 -30.8256 	 -59.0789
|  9> C 	 -87.2463 	 -30.1019 	 -58.7494
| 10> C 	 -87.5297 	 -29.1946 	 -57.6782
| 11> C 	 -88.8807 	 -29.0282 	 -57.3679
| 12> H 	 -86.8032 	 -28.5263 	 -57.2852
| 13> C 	 -85.9066 	 -30.1353 	 -59.4711
| 14> H 	 -85.4455 	 -29.1726 	 -59.2959
| 15> H 	 -86.2047 	 -30.1593 	 -60.5622
| 16> C 	 -85.1838 	 -31.4358 	 -59.2007
| 17> H 	 -85.7243 	 -32.4066 	 -59.4283
| 18> H 	 -84.3563 	 -31.2932 	 -59.9209
| 19> C 	 -84.5216 	 -31.4165 	 -57.8211
| 20> H 	 -85.2077 	 -31.0282 	 -57.0793
| 21> H 	 -84.3786 	 -32.4712 	 -57.5517
| 22> H 	 -83.6313 	 -30.8429 	 -57.8857
| 23> S 	 -90.4212 	 -26.7813 	 -57.6026
| 24> C 	 -90.6937 	 -25.7047 	 -56.242
| 25> C 	 -90.2165 	 -26.3801 	 -55.1036
| 26> C 	 -89.6168 	 -27.6784 	 -55.3045
| 27> C 	 -89.5241 	 -27.9736 	 -56.6541
| 28> H 	 -90.2923 	 -25.9647 	 -54.1224
| 29> C 	 -89.1256 	 -28.5385 	 -54.1747
| 30> H 	 -88.5691 	 -27.7942 	 -53.5971
| 31> H 	 -88.4293 	 -29.3081 	 -54.5719
| 32> C 	 -90.2542 	 -29.2318 	 -53.4476
| 33> H 	 -90.7705 	 -29.9253 	 -54.1388
| 34> H 	 -90.9944 	 -28.5624 	 -53.0642
| 35> C 	 -89.7503 	 -30.0007 	 -52.2944
| 36> H 	 -89.327 	 -29.3459 	 -51.5197
| 37> H 	 -89.0776 	 -30.8549 	 -52.4695
| 38> H 	 -90.6302 	 -30.3045 	 -51.6838
| 39> H 	 -88.4085 	 -31.4782 	 -59.8716
| 40> H 	 -91.3361 	 -24.8316 	 -56.1981
| 41> *
| 42>
| 43>                          ****END OF INPUT****

CARTESIAN COORDINATES (ANGSTROEM)
---------------------------------
  S    -89.792900  -30.192800  -58.244800
  C    -88.381200  -30.825600  -59.078900
  C    -87.246300  -30.101900  -58.749400
  C    -87.529700  -29.194600  -57.678200
  C    -88.880700  -29.028200  -57.367900
  H    -86.803200  -28.526300  -57.285200
  C    -85.906600  -30.135300  -59.471100
  H    -85.445500  -29.172600  -59.295900
  H    -86.204700  -30.159300  -60.562200
  C    -85.183800  -31.435800  -59.200700
  H    -85.724300  -32.406600  -59.428300
  H    -84.356300  -31.293200  -59.920900
  C    -84.521600  -31.416500  -57.821100
  H    -85.207700  -31.028200  -57.079300
  H    -84.378600  -32.471200  -57.551700
  H    -83.631300  -30.842900  -57.885700
  S    -90.421200  -26.781300  -57.602600
  C    -90.693700  -25.704700  -56.242000
  C    -90.216500  -26.380100  -55.103600
  C    -89.616800  -27.678400  -55.304500
  C    -89.524100  -27.973600  -56.654100
  H    -90.292300  -25.964700  -54.122400
  C    -89.125600  -28.538500  -54.174700
  H    -88.569100  -27.794200  -53.597100
  H    -88.429300  -29.308100  -54.571900
  C    -90.254200  -29.231800  -53.447600
  H    -90.770500  -29.925300  -54.138800
  H    -90.994400  -28.562400  -53.064200
  C    -89.750300  -30.000700  -52.294400
  H    -89.327000  -29.345900  -51.519700
  H    -89.077600  -30.854900  -52.469500
  H    -90.630200  -30.304500  -51.683800
  H    -88.408500  -31.478200  -59.871600
  H    -91.336100  -24.831600  -56.198100

 Total Charge           Charge          ....    0
 Multiplicity           Mult            ....    1
 Number of Electrons    NEL             ....  134
 Basis Dimension        Dim             ....  322

ORBITAL ENERGIES
----------------

  NO   OCC          E(Eh)            E(eV)
   0   2.0000     -88.964388     -2420.8441
   1   2.0000     -88.961435     -2420.7637
   2   2.0000     -10.324934      -280.9557
   3   2.0000     -10.323158      -280.9074
   4   2.0000     -10.322058      -280.8775
   5   2.0000     -10.306454      -280.4529
   6   2.0000     -10.300827      -280.2997
   7   2.0000     -10.298140      -280.2266
   8   2.0000     -10.296274      -280.1759
   9   2.0000     -10.294408      -280.1251
  10   2.0000     -10.291250      -280.0392
  11   2.0000     -10.290909      -280.0299
  12   2.0000     -10.290215      -280.0110
  13   2.0000     -10.281215      -279.7661
  14   2.0000     -10.275229      -279.6032
  15   2.0000     -10.271999      -279.5153
  16   2.0000      -8.079423      -219.8523
  17   2.0000      -8.075836      -219.7547
  18   2.0000      -6.037873      -164.2989
  19   2.0000      -6.034480      -164.2065
  20   2.0000      -6.033678      -164.1847
  21   2.0000      -6.030438      -164.0966
  22   2.0000      -6.030239      -164.0911
  23   2.0000      -6.026593      -163.9919
  24   2.0000      -1.006381       -27.3850
  25   2.0000      -0.980974       -26.6937
  26   2.0000      -0.918674       -24.9984
  27   2.0000      -0.916827       -24.9481
  28   2.0000      -0.870083       -23.6762
  29   2.0000      -0.853228       -23.2175
  30   2.0000      -0.843522       -22.9534
  31   2.0000      -0.811414       -22.0797
  32   2.0000      -0.783206       -21.3121
  33   2.0000      -0.771870       -21.0036
  34   2.0000      -0.706160       -19.2156
  35   2.0000      -0.699126       -19.0242
  36   2.0000      -0.694166       -18.8892
  37   2.0000      -0.662286       -18.0217
  38   2.0000      -0.643966       -17.5232
  39   2.0000      -0.611434       -16.6380
  40   2.0000      -0.596359       -16.2278
  41   2.0000      -0.578926       -15.7534
  42   2.0000      -0.569121       -15.4866
  43   2.0000      -0.547750       -14.9050
  44   2.0000      -0.542270       -14.7559
  45   2.0000      -0.528207       -14.3732
  46   2.0000      -0.524085       -14.2611
  47   2.0000      -0.517132       -14.0719
  48   2.0000      -0.510559       -13.8930
  49   2.0000      -0.507467       -13.8089
  50   2.0000      -0.489400       -13.3173
  51   2.0000      -0.476049       -12.9539
  52   2.0000      -0.472957       -12.8698
  53   2.0000      -0.462174       -12.5764
  54   2.0000      -0.457224       -12.4417
  55   2.0000      -0.449309       -12.2263
  56   2.0000      -0.443674       -12.0730
  57   2.0000      -0.432912       -11.7801
  58   2.0000      -0.430861       -11.7243
  59   2.0000      -0.419956       -11.4276
  60   2.0000      -0.418215       -11.3802
  61   2.0000      -0.409979       -11.1561
  62   2.0000      -0.405764       -11.0414
  63   2.0000      -0.333993        -9.0884
  64   2.0000      -0.326868        -8.8945
  65   2.0000      -0.322600        -8.7784
  66   2.0000      -0.299815        -8.1584
  67   0.0000       0.034864         0.9487
  68   0.0000       0.057404         1.5620
  69   0.0000       0.113985         3.1017
  70   0.0000       0.127341         3.4651
  71   0.0000       0.130550         3.5525

MULLIKEN ATOMIC CHARGES
-----------------------
   0 S :    0.115290
   1 C :   -0.079591
   2 C :   -0.130247
   3 C :    0.070395
   4 C :   -0.186320
   5 H :   -0.006550
   6 C :    0.049892
   7 H :    0.032603
   8 H :    0.039092
   9 C :   -0.097877
  10 H :    0.054155
  11 H :    0.030044
  12 C :   -0.019541
  13 H :    0.028446
  14 H :    0.032714
  15 H :    0.030537
  16 S :    0.104691
  17 C :   -0.086358
  18 C :   -0.041851
  19 C :   -0.022542
  20 C :   -0.177039
  21 H :    0.005274
  22 C :    0.070251
  23 H :    0.027904
  24 H :    0.033485
  25 C :   -0.053800
  26 H :    0.036316
  27 H :    0.019216
  28 C :   -0.043064
  29 H :    0.016294
  30 H :    0.045038
  31 H :    0.023638
  32 H :    0.011291
  33 H :    0.068216
Sum of atomic charges:    0.0000000

LOEWDIN ATOMIC CHARGES
----------------------
   0 S :    0.422668
   1 C :   -0.189065
   2 C :   -0.059726
   3 C :   -0.060946
   4 C :   -0.213332
   5 H :    0.022275
   6 C :   -0.033455
   7 H :    0.032571
   8 H :    0.040684
   9 C :   -0.046600
  10 H :    0.034582
  11 H :    0.026690
  12 C :   -0.060883
  13 H :    0.022257
  14 H :    0.029887
  15 H :    0.022288
  16 S :    0.398114
  17 C :   -0.189125
  18 C :   -0.070773
  19 C :   -0.052446
  20 C :   -0.203995
  21 H :    0.021449
  22 C :   -0.031488
  23 H :    0.032987
  24 H :    0.036985
  25 C :   -0.041136
  26 H :    0.032730
  27 H :    0.023408
  28 C :   -0.073714
  29 H :    0.024705
  30 H :    0.027138
  31 H :    0.031058
  32 H :    0.008122
  33 H :    0.036084

  Mayer bond orders larger than 0.100000
B(  0-S ,  1-C ) :   1.1450 B(  0-S ,  4-C ) :   1.1709 B(  1-C ,  2-C ) :   1.6013
B(  1-C ,  4-C ) :   0.1044 B(  1-C , 32-H ) :   0.9752 B(  2-C ,  3-C ) :   1.2634
B(  2-C ,  6-C ) :   1.0044 B(  3-C ,  4-C ) :   1.5504 B(  3-C ,  5-H ) :   0.9945
B(  4-C , 20-C ) :   1.0385 B(  6-C ,  7-H ) :   0.9479 B(  6-C ,  8-H ) :   0.9389
B(  6-C ,  9-C ) :   1.0626 B(  9-C , 10-H ) :   0.9610 B(  9-C , 11-H ) :   0.9592
B(  9-C , 12-C ) :   1.0643 B( 12-C , 13-H ) :   0.9788 B( 12-C , 14-H ) :   0.9744
B( 12-C , 15-H ) :   0.9781 B( 16-S , 17-C ) :   1.1513 B( 16-S , 20-C ) :   1.1372
B( 17-C , 18-C ) :   1.5873 B( 17-C , 20-C ) :   0.1055 B( 17-C , 33-H ) :   0.9695
B( 18-C , 19-C ) :   1.2530 B( 18-C , 21-H ) :   0.9856 B( 19-C , 20-C ) :   1.5852
B( 19-C , 22-C ) :   1.0400 B( 22-C , 23-H ) :   0.9316 B( 22-C , 24-H ) :   0.9291
B( 22-C , 25-C ) :   1.0784 B( 25-C , 26-H ) :   0.9465 B( 25-C , 27-H ) :   0.9507
B( 25-C , 28-C ) :   1.1072 B( 28-C , 29-H ) :   0.9660 B( 28-C , 30-H ) :   0.9720
B( 28-C , 31-H ) :   0.9671

Dispersion correction           -0.013998460
FINAL SINGLE POINT ENERGY     -1339.865170152631

DIPOLE MOMENT
-------------
                                X             Y             Z
Electronic contribution:    -16.55357      11.58241     -13.14209
Nuclear contribution   :     16.94285     -11.59200      13.37803
                        -----------------------------------------
Total Dipole Moment    :      0.38928      -0.00959       0.23595
                        -----------------------------------------
Magnitude (a.u.)       :      0.45530
Magnitude (Debye)      :      1.15729

Rotational constants in cm-1:     0.018771     0.008227     0.006773
Rotational constants in MHz :   562.738619   246.648679   203.056421

                             ****ORCA TERMINATED NORMALLY****
TOTAL RUN TIME: 0 days 0 hours 0 minutes 21 seconds 222 msec
