                         Program Version 4.2.1 -  RELEASE  -
|  1> ! wB97X-D3 SP def2-SVP
|  2> %pal
|  3> nprocs 24
|  4> end
|  5>
|  6> * xyz 0 1
|  7> S 	 -105.829 	 3.86059 	 -105.138
|  8> C 	 -105.296 	 5.37559 	 -104.346
|  9> C 	 -103.982 	 5.22745 	 -103.935
| 10> C 	 -103.426 	 3.95323 	 -104.343
| 11> C 	 -104.25 	 3.1143 	 -105.072
| 12> H 	 -102.483 	 3.57906 	 -104.151
| 13> C 	 -103.115 	 6.29832 	 -103.441
| 14> H 	 -102.067 	 5.83428 	 -103.313
| 15> H 	 -103.546 	 6.5031 	 -102.433
| 16> C 	 -103.036 	 7.53945 	 -104.312
| 17> H 	 -102.809 	 7.07713 	 -105.272
| 18> H 	 -104.073 	 7.91999 	 -104.331
| 19> C 	 -102.099 	 8.61086 	 -103.715
| 20> H 	 -102.026 	 9.47206 	 -104.33
| 21> H 	 -102.252 	 8.85133 	 -102.677
| 22> H 	 -101.085 	 8.1713 	 -103.688
| 23> S 	 -105.245 	 0.785632 	 -106.102
| 24> C 	 -104.182 	 -0.355817 	 -106.879
| 25> C 	 -102.863 	 -0.0771217 	 -106.656
| 26> C 	 -102.732 	 1.23677 	 -106.095
| 27> C 	 -103.912 	 1.82011 	 -105.681
| 28> H 	 -101.967 	 -0.641132 	 -106.774
| 29> C 	 -101.35 	 1.81819 	 -105.902
| 30> H 	 -101.515 	 2.91732 	 -105.901
| 31> H 	 -100.618 	 1.70748 	 -106.727
| 32> C 	 -100.702 	 1.32193 	 -104.574
| 33> H 	 -100.334 	 0.343856 	 -104.64
| 34> H 	 -101.535 	 1.33673 	 -103.866
| 35> C 	 -99.4334 	 2.1178 	 -104.008
| 36> H 	 -99.6506 	 3.22898 	 -103.932
| 37> H 	 -98.5516 	 1.9839 	 -104.652
| 38> H 	 -99.1869 	 1.71048 	 -102.997
| 39> H 	 -105.829 	 6.25838 	 -104.295
| 40> H 	 -104.436 	 -1.35933 	 -107.297
| 41> *
| 42>
| 43>                          ****END OF INPUT****

CARTESIAN COORDINATES (ANGSTROEM)
---------------------------------
  S    -105.829000    3.860590  -105.138000
  C    -105.296000    5.375590  -104.346000
  C    -103.982000    5.227450  -103.935000
  C    -103.426000    3.953230  -104.343000
  C    -104.250000    3.114300  -105.072000
  H    -102.483000    3.579060  -104.151000
  C    -103.115000    6.298320  -103.441000
  H    -102.067000    5.834280  -103.313000
  H    -103.546000    6.503100  -102.433000
  C    -103.036000    7.539450  -104.312000
  H    -102.809000    7.077130  -105.272000
  H    -104.073000    7.919990  -104.331000
  C    -102.099000    8.610860  -103.715000
  H    -102.026000    9.472060  -104.330000
  H    -102.252000    8.851330  -102.677000
  H    -101.085000    8.171300  -103.688000
  S    -105.245000    0.785632  -106.102000
  C    -104.182000   -0.355817  -106.879000
  C    -102.863000   -0.077122  -106.656000
  C    -102.732000    1.236770  -106.095000
  C    -103.912000    1.820110  -105.681000
  H    -101.967000   -0.641132  -106.774000
  C    -101.350000    1.818190  -105.902000
  H    -101.515000    2.917320  -105.901000
  H    -100.618000    1.707480  -106.727000
  C    -100.702000    1.321930  -104.574000
  H    -100.334000    0.343856  -104.640000
  H    -101.535000    1.336730  -103.866000
  C    -99.433400    2.117800  -104.008000
  H    -99.650600    3.228980  -103.932000
  H    -98.551600    1.983900  -104.652000
  H    -99.186900    1.710480  -102.997000
  H    -105.829000    6.258380  -104.295000
  H    -104.436000   -1.359330  -107.297000

 Total Charge           Charge          ....    0
 Multiplicity           Mult            ....    1
 Number of Electrons    NEL             ....  134
 Basis Dimension        Dim             ....  322

ORBITAL ENERGIES
----------------

  NO   OCC          E(Eh)            E(eV)
   0   2.0000     -88.969135     -2420.9732
   1   2.0000     -88.965019     -2420.8613
   2   2.0000     -10.334405      -281.2135
   3   2.0000     -10.331468      -281.1335
   4   2.0000     -10.322503      -280.8896
   5   2.0000     -10.313589      -280.6470
   6   2.0000     -10.302768      -280.3526
   7   2.0000     -10.301074      -280.3065
   8   2.0000     -10.296512      -280.1823
   9   2.0000     -10.293839      -280.1096
  10   2.0000     -10.293694      -280.1057
  11   2.0000     -10.293282      -280.0944
  12   2.0000     -10.291886      -280.0565
  13   2.0000     -10.290786      -280.0265
  14   2.0000     -10.288561      -279.9660
  15   2.0000     -10.280562      -279.7483
  16   2.0000      -8.084163      -219.9813
  17   2.0000      -8.079097      -219.8434
  18   2.0000      -6.042820      -164.4335
  19   2.0000      -6.038670      -164.3206
  20   2.0000      -6.037864      -164.2986
  21   2.0000      -6.034710      -164.2128
  22   2.0000      -6.033637      -164.1836
  23   2.0000      -6.029659      -164.0754
  24   2.0000      -1.010860       -27.5069
  25   2.0000      -0.986302       -26.8386
  26   2.0000      -0.919749       -25.0276
  27   2.0000      -0.905314       -24.6348
  28   2.0000      -0.872441       -23.7403
  29   2.0000      -0.849342       -23.1118
  30   2.0000      -0.845123       -22.9970
  31   2.0000      -0.819533       -22.3006
  32   2.0000      -0.781304       -21.2603
  33   2.0000      -0.772059       -21.0088
  34   2.0000      -0.713017       -19.4022
  35   2.0000      -0.705519       -19.1982
  36   2.0000      -0.695293       -18.9199
  37   2.0000      -0.671823       -18.2812
  38   2.0000      -0.646055       -17.5800
  39   2.0000      -0.616896       -16.7866
  40   2.0000      -0.596638       -16.2354
  41   2.0000      -0.573910       -15.6169
  42   2.0000      -0.568573       -15.4717
  43   2.0000      -0.560149       -15.2424
  44   2.0000      -0.528153       -14.3718
  45   2.0000      -0.524988       -14.2857
  46   2.0000      -0.520582       -14.1658
  47   2.0000      -0.517871       -14.0920
  48   2.0000      -0.506075       -13.7710
  49   2.0000      -0.500724       -13.6254
  50   2.0000      -0.495381       -13.4800
  51   2.0000      -0.485479       -13.2105
  52   2.0000      -0.469727       -12.7819
  53   2.0000      -0.468561       -12.7502
  54   2.0000      -0.457740       -12.4557
  55   2.0000      -0.454134       -12.3576
  56   2.0000      -0.444490       -12.0952
  57   2.0000      -0.437723       -11.9110
  58   2.0000      -0.435499       -11.8505
  59   2.0000      -0.427590       -11.6353
  60   2.0000      -0.420736       -11.4488
  61   2.0000      -0.411507       -11.1977
  62   2.0000      -0.409199       -11.1349
  63   2.0000      -0.361519        -9.8374
  64   2.0000      -0.333623        -9.0783
  65   2.0000      -0.325260        -8.8508
  66   2.0000      -0.288007        -7.8371
  67   0.0000       0.020164         0.5487
  68   0.0000       0.081820         2.2264
  69   0.0000       0.092968         2.5298
  70   0.0000       0.119602         3.2545
  71   0.0000       0.124247         3.3809

MULLIKEN ATOMIC CHARGES
-----------------------
   0 S :    0.091738
   1 C :   -0.104348
   2 C :   -0.052667
   3 C :    0.014728
   4 C :   -0.090991
   5 H :   -0.045039
   6 C :    0.006041
   7 H :    0.031556
   8 H :    0.039426
   9 C :   -0.070734
  10 H :    0.041000
  11 H :    0.027108
  12 C :   -0.008140
  13 H :    0.036329
  14 H :    0.029616
  15 H :    0.019401
  16 S :    0.105292
  17 C :   -0.079097
  18 C :    0.002758
  19 C :   -0.106068
  20 C :   -0.110643
  21 H :    0.012564
  22 C :    0.017713
  23 H :    0.027859
  24 H :    0.029355
  25 C :   -0.063213
  26 H :    0.019956
  27 H :    0.037736
  28 C :   -0.084968
  29 H :    0.041608
  30 H :    0.040319
  31 H :    0.048115
  32 H :    0.024200
  33 H :    0.071489
Sum of atomic charges:    0.0000000

LOEWDIN ATOMIC CHARGES
----------------------
   0 S :    0.384276
   1 C :   -0.174022
   2 C :   -0.060780
   3 C :   -0.066985
   4 C :   -0.182424
   5 H :    0.012536
   6 C :   -0.044841
   7 H :    0.033906
   8 H :    0.035501
   9 C :   -0.037767
  10 H :    0.030448
  11 H :    0.023314
  12 C :   -0.061524
  13 H :    0.023366
  14 H :    0.027453
  15 H :    0.029099
  16 S :    0.413702
  17 C :   -0.188861
  18 C :   -0.062682
  19 C :   -0.057711
  20 C :   -0.196468
  21 H :    0.030831
  22 C :   -0.042583
  23 H :    0.031807
  24 H :    0.029958
  25 C :   -0.037039
  26 H :    0.016535
  27 H :    0.024217
  28 C :   -0.072530
  29 H :    0.026450
  30 H :    0.025015
  31 H :    0.032664
  32 H :    0.014336
  33 H :    0.040805

  Mayer bond orders larger than 0.100000
B(  0-S ,  1-C ) :   1.1199 B(  0-S ,  4-C ) :   1.1388 B(  1-C ,  2-C ) :   1.5948
B(  1-C , 32-H ) :   0.9845 B(  2-C ,  3-C ) :   1.2246 B(  2-C ,  6-C ) :   1.0304
B(  3-C ,  4-C ) :   1.5752 B(  3-C ,  5-H ) :   1.0056 B(  4-C , 20-C ) :   1.0605
B(  6-C ,  7-H ) :   0.9491 B(  6-C ,  8-H ) :   0.9192 B(  6-C ,  9-C ) :   1.0613
B(  9-C , 10-H ) :   0.9598 B(  9-C , 11-H ) :   0.9498 B(  9-C , 12-C ) :   1.0760
B( 12-C , 13-H ) :   0.9753 B( 12-C , 14-H ) :   0.9731 B( 12-C , 15-H ) :   0.9715
B( 16-S , 17-C ) :   1.1548 B( 16-S , 20-C ) :   1.1222 B( 17-C , 18-C ) :   1.5987
B( 17-C , 33-H ) :   0.9583 B( 18-C , 19-C ) :   1.2551 B( 18-C , 21-H ) :   0.9902
B( 19-C , 20-C ) :   1.6022 B( 19-C , 22-C ) :   1.0529 B( 22-C , 23-H ) :   0.9359
B( 22-C , 24-H ) :   0.9378 B( 22-C , 25-C ) :   1.0439 B( 25-C , 26-H ) :   0.9556
B( 25-C , 27-H ) :   0.9592 B( 25-C , 28-C ) :   1.0701 B( 28-C , 29-H ) :   0.9783
B( 28-C , 30-H ) :   0.9759 B( 28-C , 31-H ) :   0.9748

Dispersion correction           -0.014199637
FINAL SINGLE POINT ENERGY     -1339.864977514093

DIPOLE MOMENT
-------------
                                X             Y             Z
Electronic contribution:    -26.42327     -16.15290      -9.32684
Nuclear contribution   :     27.21023      16.29963       9.46096
                        -----------------------------------------
Total Dipole Moment    :      0.78695       0.14673       0.13412
                        -----------------------------------------
Magnitude (a.u.)       :      0.81167
Magnitude (Debye)      :      2.06311

Rotational constants in cm-1:     0.018543     0.008856     0.006280
Rotational constants in MHz :   555.897533   265.489845   188.265043

                             ****ORCA TERMINATED NORMALLY****
TOTAL RUN TIME: 0 days 0 hours 0 minutes 21 seconds 810 msec
