                         Program Version 4.2.1 -  RELEASE  -
|  1> ! wB97X-D3 SP def2-SVP
|  2> %pal
|  3> nprocs 24
|  4> end
|  5>
|  6> * xyz 0 1
|  7> S 	 -51.7797 	 21.7107 	 32.5697
|  8> C 	 -50.044 	 21.9619 	 32.3847
|  9> C 	 -49.3161 	 20.7589 	 32.7129
| 10> C 	 -50.2027 	 19.7329 	 33.1836
| 11> C 	 -51.5879 	 19.9949 	 33.0667
| 12> H 	 -49.8678 	 18.7829 	 33.5658
| 13> C 	 -47.8145 	 20.6581 	 32.7135
| 14> H 	 -47.5472 	 20.2977 	 33.6946
| 15> H 	 -47.5223 	 21.7099 	 32.5893
| 16> C 	 -47.1596 	 19.7278 	 31.6359
| 17> H 	 -47.7901 	 19.6235 	 30.6681
| 18> H 	 -46.1829 	 20.0876 	 31.3748
| 19> C 	 -47.0357 	 18.2203 	 32.1153
| 20> H 	 -47.9697 	 17.7721 	 32.4187
| 21> H 	 -46.5477 	 17.5619 	 31.407
| 22> H 	 -46.4322 	 18.1163 	 33.0494
| 23> S 	 -54.0621 	 20.1771 	 34.2145
| 24> C 	 -54.8535 	 18.7321 	 34.8062
| 25> C 	 -54.1192 	 17.6173 	 34.4318
| 26> C 	 -52.91 	 17.8827 	 33.7469
| 27> C 	 -52.749 	 19.2179 	 33.4879
| 28> H 	 -54.4888 	 16.6652 	 34.751
| 29> C 	 -51.8807 	 16.8549 	 33.3769
| 30> H 	 -51.9852 	 15.9369 	 33.9981
| 31> H 	 -50.9821 	 17.1231 	 33.9233
| 32> C 	 -51.85 	 16.5491 	 31.8758
| 33> H 	 -51.8678 	 17.4537 	 31.3392
| 34> H 	 -52.9178 	 16.276 	 31.772
| 35> C 	 -50.838 	 15.4949 	 31.5949
| 36> H 	 -50.7762 	 15.2535 	 30.5016
| 37> H 	 -50.9504 	 14.5708 	 32.0947
| 38> H 	 -49.8613 	 15.7533 	 31.8916
| 39> H 	 -49.6419 	 22.9487 	 31.9918
| 40> H 	 -55.7474 	 18.6781 	 35.338
| 41> *
| 42>
| 43>                          ****END OF INPUT****

CARTESIAN COORDINATES (ANGSTROEM)
---------------------------------
  S    -51.779700   21.710700   32.569700
  C    -50.044000   21.961900   32.384700
  C    -49.316100   20.758900   32.712900
  C    -50.202700   19.732900   33.183600
  C    -51.587900   19.994900   33.066700
  H    -49.867800   18.782900   33.565800
  C    -47.814500   20.658100   32.713500
  H    -47.547200   20.297700   33.694600
  H    -47.522300   21.709900   32.589300
  C    -47.159600   19.727800   31.635900
  H    -47.790100   19.623500   30.668100
  H    -46.182900   20.087600   31.374800
  C    -47.035700   18.220300   32.115300
  H    -47.969700   17.772100   32.418700
  H    -46.547700   17.561900   31.407000
  H    -46.432200   18.116300   33.049400
  S    -54.062100   20.177100   34.214500
  C    -54.853500   18.732100   34.806200
  C    -54.119200   17.617300   34.431800
  C    -52.910000   17.882700   33.746900
  C    -52.749000   19.217900   33.487900
  H    -54.488800   16.665200   34.751000
  C    -51.880700   16.854900   33.376900
  H    -51.985200   15.936900   33.998100
  H    -50.982100   17.123100   33.923300
  C    -51.850000   16.549100   31.875800
  H    -51.867800   17.453700   31.339200
  H    -52.917800   16.276000   31.772000
  C    -50.838000   15.494900   31.594900
  H    -50.776200   15.253500   30.501600
  H    -50.950400   14.570800   32.094700
  H    -49.861300   15.753300   31.891600
  H    -49.641900   22.948700   31.991800
  H    -55.747400   18.678100   35.338000

 Total Charge           Charge          ....    0
 Multiplicity           Mult            ....    1
 Number of Electrons    NEL             ....  134
 Basis Dimension        Dim             ....  322

ORBITAL ENERGIES
----------------

  NO   OCC          E(Eh)            E(eV)
   0   2.0000     -88.966579     -2420.9037
   1   2.0000     -88.965517     -2420.8748
   2   2.0000     -10.338207      -281.3169
   3   2.0000     -10.328788      -281.0606
   4   2.0000     -10.326775      -281.0058
   5   2.0000     -10.315350      -280.6949
   6   2.0000     -10.309345      -280.5315
   7   2.0000     -10.301496      -280.3179
   8   2.0000     -10.300568      -280.2927
   9   2.0000     -10.298074      -280.2248
  10   2.0000     -10.296681      -280.1869
  11   2.0000     -10.292848      -280.0826
  12   2.0000     -10.291241      -280.0389
  13   2.0000     -10.284140      -279.8457
  14   2.0000     -10.283226      -279.8208
  15   2.0000     -10.274706      -279.5890
  16   2.0000      -8.080171      -219.8726
  17   2.0000      -8.079870      -219.8644
  18   2.0000      -6.038759      -164.3230
  19   2.0000      -6.038466      -164.3150
  20   2.0000      -6.034758      -164.2141
  21   2.0000      -6.034406      -164.2045
  22   2.0000      -6.031010      -164.1121
  23   2.0000      -6.030573      -164.1002
  24   2.0000      -1.003823       -27.3154
  25   2.0000      -0.974833       -26.5266
  26   2.0000      -0.917852       -24.9760
  27   2.0000      -0.904508       -24.6129
  28   2.0000      -0.865330       -23.5468
  29   2.0000      -0.856568       -23.3084
  30   2.0000      -0.839805       -22.8522
  31   2.0000      -0.813783       -22.1442
  32   2.0000      -0.785263       -21.3681
  33   2.0000      -0.769827       -20.9480
  34   2.0000      -0.719516       -19.5790
  35   2.0000      -0.705365       -19.1940
  36   2.0000      -0.697767       -18.9872
  37   2.0000      -0.666524       -18.1370
  38   2.0000      -0.635934       -17.3046
  39   2.0000      -0.618932       -16.8420
  40   2.0000      -0.598686       -16.2911
  41   2.0000      -0.565437       -15.3863
  42   2.0000      -0.560390       -15.2490
  43   2.0000      -0.547572       -14.9002
  44   2.0000      -0.535865       -14.5816
  45   2.0000      -0.529948       -14.4206
  46   2.0000      -0.522869       -14.2280
  47   2.0000      -0.513369       -13.9695
  48   2.0000      -0.504490       -13.7279
  49   2.0000      -0.499092       -13.5810
  50   2.0000      -0.491536       -13.3754
  51   2.0000      -0.485437       -13.2094
  52   2.0000      -0.474007       -12.8984
  53   2.0000      -0.466649       -12.6982
  54   2.0000      -0.460245       -12.5239
  55   2.0000      -0.449845       -12.2409
  56   2.0000      -0.441475       -12.0131
  57   2.0000      -0.436270       -11.8715
  58   2.0000      -0.431722       -11.7478
  59   2.0000      -0.426195       -11.5974
  60   2.0000      -0.419832       -11.4242
  61   2.0000      -0.413420       -11.2497
  62   2.0000      -0.403318       -10.9748
  63   2.0000      -0.355864        -9.6836
  64   2.0000      -0.335568        -9.1313
  65   2.0000      -0.326964        -8.8971
  66   2.0000      -0.280162        -7.6236
  67   0.0000       0.016425         0.4469
  68   0.0000       0.074255         2.0206
  69   0.0000       0.098952         2.6926
  70   0.0000       0.119694         3.2570
  71   0.0000       0.124846         3.3972

MULLIKEN ATOMIC CHARGES
-----------------------
   0 S :    0.087263
   1 C :   -0.152587
   2 C :   -0.106013
   3 C :    0.025855
   4 C :   -0.130594
   5 H :   -0.003545
   6 C :    0.082286
   7 H :    0.032500
   8 H :    0.024645
   9 C :   -0.067653
  10 H :    0.054742
  11 H :    0.035356
  12 C :   -0.085996
  13 H :    0.027008
  14 H :    0.039004
  15 H :    0.023858
  16 S :    0.089865
  17 C :   -0.067243
  18 C :   -0.022265
  19 C :   -0.070512
  20 C :   -0.099609
  21 H :    0.004408
  22 C :    0.020246
  23 H :    0.003152
  24 H :    0.011328
  25 C :   -0.004701
  26 H :    0.027135
  27 H :    0.024139
  28 C :    0.018777
  29 H :    0.039126
  30 H :    0.014231
  31 H :    0.006341
  32 H :    0.082664
  33 H :    0.036789
Sum of atomic charges:    0.0000000

LOEWDIN ATOMIC CHARGES
----------------------
   0 S :    0.382088
   1 C :   -0.210969
   2 C :   -0.059703
   3 C :   -0.066670
   4 C :   -0.176319
   5 H :    0.022093
   6 C :   -0.030951
   7 H :    0.032322
   8 H :    0.035105
   9 C :   -0.036799
  10 H :    0.038981
  11 H :    0.021447
  12 C :   -0.075052
  13 H :    0.017750
  14 H :    0.025764
  15 H :    0.024422
  16 S :    0.393329
  17 C :   -0.172409
  18 C :   -0.066717
  19 C :   -0.059463
  20 C :   -0.184832
  21 H :    0.026995
  22 C :   -0.039940
  23 H :    0.031419
  24 H :    0.023511
  25 C :   -0.033861
  26 H :    0.023998
  27 H :    0.035126
  28 C :   -0.060943
  29 H :    0.034734
  30 H :    0.023487
  31 H :    0.019900
  32 H :    0.042198
  33 H :    0.019959

  Mayer bond orders larger than 0.100000
B(  0-S ,  1-C ) :   1.1503 B(  0-S ,  4-C ) :   1.1462 B(  1-C ,  2-C ) :   1.5627
B(  1-C ,  4-C ) :   0.1092 B(  1-C , 32-H ) :   0.9576 B(  2-C ,  3-C ) :   1.2712
B(  2-C ,  6-C ) :   1.0336 B(  3-C ,  4-C ) :   1.5397 B(  3-C ,  5-H ) :   0.9810
B(  4-C , 20-C ) :   1.0678 B(  6-C ,  7-H ) :   0.9429 B(  6-C ,  8-H ) :   0.9410
B(  6-C ,  9-C ) :   1.0383 B(  9-C , 10-H ) :   0.9618 B(  9-C , 11-H ) :   0.9607
B(  9-C , 12-C ) :   1.0633 B( 12-C , 13-H ) :   0.9780 B( 12-C , 14-H ) :   0.9755
B( 12-C , 15-H ) :   0.9731 B( 16-S , 17-C ) :   1.1542 B( 16-S , 20-C ) :   1.1263
B( 17-C , 18-C ) :   1.6001 B( 17-C , 33-H ) :   0.9756 B( 18-C , 19-C ) :   1.2484
B( 18-C , 21-H ) :   0.9966 B( 19-C , 20-C ) :   1.5968 B( 19-C , 22-C ) :   1.0379
B( 22-C , 23-H ) :   0.9263 B( 22-C , 24-H ) :   0.9271 B( 22-C , 25-C ) :   1.0295
B( 25-C , 26-H ) :   0.9619 B( 25-C , 27-H ) :   0.9459 B( 25-C , 28-C ) :   1.0739
B( 28-C , 29-H ) :   0.9703 B( 28-C , 30-H ) :   0.9664 B( 28-C , 31-H ) :   0.9700

Dispersion correction           -0.014993832
FINAL SINGLE POINT ENERGY     -1339.862990587354

DIPOLE MOMENT
-------------
                                X             Y             Z
Electronic contribution:    -23.04031      20.94335       7.76593
Nuclear contribution   :     23.53528     -21.52922      -7.65477
                        -----------------------------------------
Total Dipole Moment    :      0.49497      -0.58587       0.11116
                        -----------------------------------------
Magnitude (a.u.)       :      0.77498
Magnitude (Debye)      :      1.96984

Rotational constants in cm-1:     0.017557     0.010287     0.006973
Rotational constants in MHz :   526.356979   308.388824   209.048910

                             ****ORCA TERMINATED NORMALLY****
TOTAL RUN TIME: 0 days 0 hours 0 minutes 21 seconds 436 msec
