                         Program Version 4.2.1 -  RELEASE  -
|  1> ! wB97X-D3 SP def2-SVP
|  2> %pal
|  3> nprocs 24
|  4> end
|  5>
|  6> * xyz 0 1
|  7> S 	 -58.3846 	 19.9853 	 -100.329
|  8> C 	 -60.0233 	 20.333 	 -99.7895
|  9> C 	 -60.6449 	 19.1928 	 -99.26
| 10> C 	 -59.7821 	 18.0645 	 -99.2026
| 11> C 	 -58.5909 	 18.2717 	 -99.8908
| 12> H 	 -59.9228 	 17.152 	 -98.6587
| 13> C 	 -62.0454 	 19.1138 	 -98.5585
| 14> H 	 -62.6726 	 18.7872 	 -99.3976
| 15> H 	 -62.3319 	 20.0923 	 -98.1815
| 16> C 	 -62.0969 	 18.2634 	 -97.2404
| 17> H 	 -62.061 	 17.1417 	 -97.5048
| 18> H 	 -61.2245 	 18.4581 	 -96.604
| 19> C 	 -63.2871 	 18.4961 	 -96.4045
| 20> H 	 -64.1076 	 17.9127 	 -96.8828
| 21> H 	 -63.0185 	 18.2975 	 -95.4008
| 22> H 	 -63.5344 	 19.5664 	 -96.5096
| 23> S 	 -55.8793 	 17.8562 	 -99.5452
| 24> C 	 -55.1902 	 16.4082 	 -100.217
| 25> C 	 -56.1086 	 15.5385 	 -100.724
| 26> C 	 -57.4497 	 16.075 	 -100.619
| 27> C 	 -57.565 	 17.2882 	 -100.044
| 28> H 	 -55.8447 	 14.6844 	 -101.293
| 29> C 	 -58.5836 	 15.4006 	 -101.383
| 30> H 	 -58.2062 	 15.1144 	 -102.288
| 31> H 	 -59.4312 	 16.1836 	 -101.589
| 32> C 	 -59.1128 	 14.0407 	 -100.775
| 33> H 	 -59.3391 	 14.1604 	 -99.7431
| 34> H 	 -58.3649 	 13.2855 	 -100.727
| 35> C 	 -60.3173 	 13.5556 	 -101.58
| 36> H 	 -60.7106 	 12.5803 	 -101.269
| 37> H 	 -60.195 	 13.4753 	 -102.648
| 38> H 	 -61.0556 	 14.3038 	 -101.509
| 39> H 	 -60.5625 	 21.2496 	 -100.019
| 40> H 	 -54.134 	 16.1828 	 -100.343
| 41> *
| 42>
| 43>                          ****END OF INPUT****

CARTESIAN COORDINATES (ANGSTROEM)
---------------------------------
  S    -58.384600   19.985300  -100.329000
  C    -60.023300   20.333000  -99.789500
  C    -60.644900   19.192800  -99.260000
  C    -59.782100   18.064500  -99.202600
  C    -58.590900   18.271700  -99.890800
  H    -59.922800   17.152000  -98.658700
  C    -62.045400   19.113800  -98.558500
  H    -62.672600   18.787200  -99.397600
  H    -62.331900   20.092300  -98.181500
  C    -62.096900   18.263400  -97.240400
  H    -62.061000   17.141700  -97.504800
  H    -61.224500   18.458100  -96.604000
  C    -63.287100   18.496100  -96.404500
  H    -64.107600   17.912700  -96.882800
  H    -63.018500   18.297500  -95.400800
  H    -63.534400   19.566400  -96.509600
  S    -55.879300   17.856200  -99.545200
  C    -55.190200   16.408200  -100.217000
  C    -56.108600   15.538500  -100.724000
  C    -57.449700   16.075000  -100.619000
  C    -57.565000   17.288200  -100.044000
  H    -55.844700   14.684400  -101.293000
  C    -58.583600   15.400600  -101.383000
  H    -58.206200   15.114400  -102.288000
  H    -59.431200   16.183600  -101.589000
  C    -59.112800   14.040700  -100.775000
  H    -59.339100   14.160400  -99.743100
  H    -58.364900   13.285500  -100.727000
  C    -60.317300   13.555600  -101.580000
  H    -60.710600   12.580300  -101.269000
  H    -60.195000   13.475300  -102.648000
  H    -61.055600   14.303800  -101.509000
  H    -60.562500   21.249600  -100.019000
  H    -54.134000   16.182800  -100.343000

 Total Charge           Charge          ....    0
 Multiplicity           Mult            ....    1
 Number of Electrons    NEL             ....  134
 Basis Dimension        Dim             ....  322

ORBITAL ENERGIES
----------------

  NO   OCC          E(Eh)            E(eV)
   0   2.0000     -88.970022     -2420.9974
   1   2.0000     -88.958602     -2420.6866
   2   2.0000     -10.330176      -281.0984
   3   2.0000     -10.325575      -280.9732
   4   2.0000     -10.317696      -280.7588
   5   2.0000     -10.316576      -280.7283
   6   2.0000     -10.305737      -280.4334
   7   2.0000     -10.302370      -280.3417
   8   2.0000     -10.299528      -280.2644
   9   2.0000     -10.293240      -280.0933
  10   2.0000     -10.292450      -280.0718
  11   2.0000     -10.291791      -280.0539
  12   2.0000     -10.289799      -279.9997
  13   2.0000     -10.283495      -279.8281
  14   2.0000     -10.277126      -279.6548
  15   2.0000     -10.272634      -279.5326
  16   2.0000      -8.083769      -219.9705
  17   2.0000      -8.072829      -219.6729
  18   2.0000      -6.042345      -164.4206
  19   2.0000      -6.038468      -164.3151
  20   2.0000      -6.034455      -164.2059
  21   2.0000      -6.031549      -164.1268
  22   2.0000      -6.027521      -164.0172
  23   2.0000      -6.023274      -163.9016
  24   2.0000      -1.001588       -27.2546
  25   2.0000      -0.978183       -26.6177
  26   2.0000      -0.912594       -24.8329
  27   2.0000      -0.904447       -24.6113
  28   2.0000      -0.873883       -23.7796
  29   2.0000      -0.854732       -23.2584
  30   2.0000      -0.846464       -23.0334
  31   2.0000      -0.813229       -22.1291
  32   2.0000      -0.779589       -21.2137
  33   2.0000      -0.769554       -20.9406
  34   2.0000      -0.712303       -19.3827
  35   2.0000      -0.702000       -19.1024
  36   2.0000      -0.686303       -18.6753
  37   2.0000      -0.663463       -18.0537
  38   2.0000      -0.640856       -17.4386
  39   2.0000      -0.617728       -16.8092
  40   2.0000      -0.592243       -16.1157
  41   2.0000      -0.576011       -15.6741
  42   2.0000      -0.567087       -15.4312
  43   2.0000      -0.559877       -15.2350
  44   2.0000      -0.539476       -14.6799
  45   2.0000      -0.523466       -14.2442
  46   2.0000      -0.515362       -14.0237
  47   2.0000      -0.509215       -13.8564
  48   2.0000      -0.502576       -13.6758
  49   2.0000      -0.498527       -13.5656
  50   2.0000      -0.490893       -13.3579
  51   2.0000      -0.476214       -12.9584
  52   2.0000      -0.472112       -12.8468
  53   2.0000      -0.464806       -12.6480
  54   2.0000      -0.455838       -12.4040
  55   2.0000      -0.452152       -12.3037
  56   2.0000      -0.447075       -12.1655
  57   2.0000      -0.439671       -11.9640
  58   2.0000      -0.435215       -11.8428
  59   2.0000      -0.421869       -11.4796
  60   2.0000      -0.418202       -11.3798
  61   2.0000      -0.411165       -11.1884
  62   2.0000      -0.409387       -11.1400
  63   2.0000      -0.347344        -9.4517
  64   2.0000      -0.333481        -9.0745
  65   2.0000      -0.326736        -8.8909
  66   2.0000      -0.290697        -7.9103
  67   0.0000       0.025252         0.6871
  68   0.0000       0.066855         1.8192
  69   0.0000       0.107806         2.9336
  70   0.0000       0.124511         3.3881
  71   0.0000       0.131595         3.5809

MULLIKEN ATOMIC CHARGES
-----------------------
   0 S :    0.119103
   1 C :   -0.128668
   2 C :   -0.088486
   3 C :    0.014785
   4 C :   -0.140365
   5 H :    0.020535
   6 C :    0.070018
   7 H :    0.053088
   8 H :    0.017338
   9 C :   -0.156419
  10 H :    0.040902
  11 H :    0.038888
  12 C :   -0.000310
  13 H :    0.040966
  14 H :    0.036677
  15 H :    0.021048
  16 S :    0.068395
  17 C :   -0.069941
  18 C :   -0.017454
  19 C :   -0.014515
  20 C :   -0.162257
  21 H :    0.009503
  22 C :    0.027841
  23 H :    0.000829
  24 H :    0.053322
  25 C :   -0.045926
  26 H :    0.016699
  27 H :    0.014560
  28 C :   -0.018414
  29 H :    0.033845
  30 H :    0.017884
  31 H :    0.012599
  32 H :    0.056310
  33 H :    0.057619
Sum of atomic charges:    0.0000000

LOEWDIN ATOMIC CHARGES
----------------------
   0 S :    0.396072
   1 C :   -0.202226
   2 C :   -0.061151
   3 C :   -0.055353
   4 C :   -0.187238
   5 H :    0.032221
   6 C :   -0.029636
   7 H :    0.037544
   8 H :    0.024618
   9 C :   -0.053484
  10 H :    0.027061
  11 H :    0.026722
  12 C :   -0.062169
  13 H :    0.033738
  14 H :    0.025923
  15 H :    0.025130
  16 S :    0.350325
  17 C :   -0.173262
  18 C :   -0.072715
  19 C :   -0.051976
  20 C :   -0.166243
  21 H :    0.027289
  22 C :   -0.023787
  23 H :    0.015120
  24 H :    0.042999
  25 C :   -0.031682
  26 H :    0.018183
  27 H :    0.017166
  28 C :   -0.062807
  29 H :    0.027355
  30 H :    0.023243
  31 H :    0.019222
  32 H :    0.030848
  33 H :    0.032949

  Mayer bond orders larger than 0.100000
B(  0-S ,  1-C ) :   1.1316 B(  0-S ,  4-C ) :   1.1416 B(  1-C ,  2-C ) :   1.6183
B(  1-C ,  4-C ) :   0.1003 B(  1-C , 32-H ) :   0.9653 B(  2-C ,  3-C ) :   1.2400
B(  2-C ,  6-C ) :   0.9997 B(  3-C ,  4-C ) :   1.5500 B(  3-C ,  5-H ) :   0.9966
B(  4-C , 20-C ) :   1.0768 B(  6-C ,  7-H ) :   0.9353 B(  6-C ,  8-H ) :   0.9515
B(  6-C ,  9-C ) :   1.0633 B(  9-C , 10-H ) :   0.9455 B(  9-C , 11-H ) :   0.9622
B(  9-C , 12-C ) :   1.0904 B( 12-C , 13-H ) :   0.9736 B( 12-C , 14-H ) :   0.9724
B( 12-C , 15-H ) :   0.9705 B( 16-S , 17-C ) :   1.1423 B( 16-S , 20-C ) :   1.0702
B( 17-C , 18-C ) :   1.6603 B( 17-C , 33-H ) :   0.9593 B( 18-C , 19-C ) :   1.1873
B( 18-C , 21-H ) :   0.9926 B( 19-C , 20-C ) :   1.6760 B( 19-C , 22-C ) :   1.0401
B( 22-C , 23-H ) :   0.9322 B( 22-C , 24-H ) :   0.9470 B( 22-C , 25-C ) :   1.0439
B( 25-C , 26-H ) :   0.9568 B( 25-C , 27-H ) :   0.9559 B( 25-C , 28-C ) :   1.0815
B( 28-C , 29-H ) :   0.9735 B( 28-C , 30-H ) :   0.9728 B( 28-C , 31-H ) :   0.9742

Dispersion correction           -0.013604263
FINAL SINGLE POINT ENERGY     -1339.858136716610

DIPOLE MOMENT
-------------
                                X             Y             Z
Electronic contribution:     25.29378      16.03497      -4.52176
Nuclear contribution   :    -25.79974     -16.45326       4.45494
                        -----------------------------------------
Total Dipole Moment    :     -0.50596      -0.41829      -0.06681
                        -----------------------------------------
Magnitude (a.u.)       :      0.65987
Magnitude (Debye)      :      1.67726

Rotational constants in cm-1:     0.015935     0.008927     0.006603
Rotational constants in MHz :   477.717404   267.627037   197.963895

                             ****ORCA TERMINATED NORMALLY****
TOTAL RUN TIME: 0 days 0 hours 0 minutes 20 seconds 80 msec
