                         Program Version 4.2.1 -  RELEASE  -
|  1> ! wB97X-D3 SP def2-SVP
|  2> %pal
|  3> nprocs 24
|  4> end
|  5>
|  6> * xyz 0 1
|  7> S 	 -51.0116 	 16.217 	 26.4187
|  8> C 	 -49.7911 	 15.5746 	 25.3809
|  9> C 	 -48.7192 	 16.4757 	 25.1246
| 10> C 	 -48.9493 	 17.75 	 25.7642
| 11> C 	 -50.1274 	 17.7217 	 26.5156
| 12> H 	 -48.3601 	 18.6623 	 25.7636
| 13> C 	 -47.5855 	 16.2362 	 24.1143
| 14> H 	 -46.9923 	 17.1876 	 24.0069
| 15> H 	 -48.0149 	 15.8756 	 23.1719
| 16> C 	 -46.5687 	 15.202 	 24.576
| 17> H 	 -47.0967 	 14.2321 	 24.5475
| 18> H 	 -45.813 	 15.0114 	 23.8068
| 19> C 	 -45.9073 	 15.3399 	 25.9099
| 20> H 	 -45.0988 	 14.5841 	 26.0971
| 21> H 	 -45.3403 	 16.2519 	 25.9715
| 22> H 	 -46.6562 	 15.3516 	 26.6687
| 23> S 	 -50.819 	 20.3687 	 26.5927
| 24> C 	 -51.3647 	 21.0676 	 28.0334
| 25> C 	 -51.4639 	 20.1116 	 29.0276
| 26> C 	 -51.1479 	 18.8081 	 28.5987
| 27> C 	 -50.7186 	 18.8181 	 27.2857
| 28> H 	 -51.778 	 20.5568 	 29.9562
| 29> C 	 -51.1595 	 17.6482 	 29.5389
| 30> H 	 -50.4872 	 16.965 	 29.1142
| 31> H 	 -52.1788 	 17.1273 	 29.436
| 32> C 	 -50.7723 	 17.8015 	 31.0488
| 33> H 	 -50.798 	 16.8357 	 31.5229
| 34> H 	 -51.5418 	 18.4399 	 31.5539
| 35> C 	 -49.4014 	 18.4199 	 31.2622
| 36> H 	 -49.3584 	 19.4633 	 30.9837
| 37> H 	 -48.5602 	 17.8842 	 30.9462
| 38> H 	 -49.302 	 18.4277 	 32.3614
| 39> H 	 -49.839 	 14.5872 	 24.9788
| 40> H 	 -51.6827 	 22.0684 	 28.1481
| 41> *
| 42>
| 43>                          ****END OF INPUT****

CARTESIAN COORDINATES (ANGSTROEM)
---------------------------------
  S    -51.011600   16.217000   26.418700
  C    -49.791100   15.574600   25.380900
  C    -48.719200   16.475700   25.124600
  C    -48.949300   17.750000   25.764200
  C    -50.127400   17.721700   26.515600
  H    -48.360100   18.662300   25.763600
  C    -47.585500   16.236200   24.114300
  H    -46.992300   17.187600   24.006900
  H    -48.014900   15.875600   23.171900
  C    -46.568700   15.202000   24.576000
  H    -47.096700   14.232100   24.547500
  H    -45.813000   15.011400   23.806800
  C    -45.907300   15.339900   25.909900
  H    -45.098800   14.584100   26.097100
  H    -45.340300   16.251900   25.971500
  H    -46.656200   15.351600   26.668700
  S    -50.819000   20.368700   26.592700
  C    -51.364700   21.067600   28.033400
  C    -51.463900   20.111600   29.027600
  C    -51.147900   18.808100   28.598700
  C    -50.718600   18.818100   27.285700
  H    -51.778000   20.556800   29.956200
  C    -51.159500   17.648200   29.538900
  H    -50.487200   16.965000   29.114200
  H    -52.178800   17.127300   29.436000
  C    -50.772300   17.801500   31.048800
  H    -50.798000   16.835700   31.522900
  H    -51.541800   18.439900   31.553900
  C    -49.401400   18.419900   31.262200
  H    -49.358400   19.463300   30.983700
  H    -48.560200   17.884200   30.946200
  H    -49.302000   18.427700   32.361400
  H    -49.839000   14.587200   24.978800
  H    -51.682700   22.068400   28.148100

 Total Charge           Charge          ....    0
 Multiplicity           Mult            ....    1
 Number of Electrons    NEL             ....  134
 Basis Dimension        Dim             ....  322

ORBITAL ENERGIES
----------------

  NO   OCC          E(Eh)            E(eV)
   0   2.0000     -88.971642     -2421.0415
   1   2.0000     -88.964053     -2420.8350
   2   2.0000     -10.328676      -281.0576
   3   2.0000     -10.318307      -280.7754
   4   2.0000     -10.313461      -280.6435
   5   2.0000     -10.308756      -280.5155
   6   2.0000     -10.305559      -280.4285
   7   2.0000     -10.298400      -280.2337
   8   2.0000     -10.298200      -280.2283
   9   2.0000     -10.298022      -280.2234
  10   2.0000     -10.289794      -279.9995
  11   2.0000     -10.286496      -279.9098
  12   2.0000     -10.286424      -279.9078
  13   2.0000     -10.281009      -279.7605
  14   2.0000     -10.271212      -279.4939
  15   2.0000     -10.268637      -279.4238
  16   2.0000      -8.086145      -220.0352
  17   2.0000      -8.080565      -219.8834
  18   2.0000      -6.044480      -164.4787
  19   2.0000      -6.040657      -164.3746
  20   2.0000      -6.038850      -164.3255
  21   2.0000      -6.037152      -164.2793
  22   2.0000      -6.034668      -164.2117
  23   2.0000      -6.031633      -164.1291
  24   2.0000      -1.014586       -27.6083
  25   2.0000      -0.986365       -26.8403
  26   2.0000      -0.912432       -24.8285
  27   2.0000      -0.907249       -24.6875
  28   2.0000      -0.868011       -23.6198
  29   2.0000      -0.855538       -23.2804
  30   2.0000      -0.848202       -23.0808
  31   2.0000      -0.813139       -22.1266
  32   2.0000      -0.785724       -21.3806
  33   2.0000      -0.773480       -21.0475
  34   2.0000      -0.704746       -19.1771
  35   2.0000      -0.697730       -18.9862
  36   2.0000      -0.694088       -18.8871
  37   2.0000      -0.657927       -17.9031
  38   2.0000      -0.639962       -17.4142
  39   2.0000      -0.611106       -16.6290
  40   2.0000      -0.594754       -16.1841
  41   2.0000      -0.572770       -15.5859
  42   2.0000      -0.553948       -15.0737
  43   2.0000      -0.547111       -14.8876
  44   2.0000      -0.543677       -14.7942
  45   2.0000      -0.542265       -14.7558
  46   2.0000      -0.527490       -14.3537
  47   2.0000      -0.506686       -13.7876
  48   2.0000      -0.499119       -13.5817
  49   2.0000      -0.494396       -13.4532
  50   2.0000      -0.487989       -13.2788
  51   2.0000      -0.477365       -12.9898
  52   2.0000      -0.472233       -12.8501
  53   2.0000      -0.470108       -12.7923
  54   2.0000      -0.462015       -12.5721
  55   2.0000      -0.449762       -12.2386
  56   2.0000      -0.442436       -12.0393
  57   2.0000      -0.440016       -11.9735
  58   2.0000      -0.433058       -11.7841
  59   2.0000      -0.424340       -11.5469
  60   2.0000      -0.421803       -11.4778
  61   2.0000      -0.411342       -11.1932
  62   2.0000      -0.403596       -10.9824
  63   2.0000      -0.346977        -9.4417
  64   2.0000      -0.334160        -9.0929
  65   2.0000      -0.328324        -8.9342
  66   2.0000      -0.287403        -7.8206
  67   0.0000       0.033678         0.9164
  68   0.0000       0.074752         2.0341
  69   0.0000       0.111387         3.0310
  70   0.0000       0.115586         3.1453
  71   0.0000       0.135262         3.6807

MULLIKEN ATOMIC CHARGES
-----------------------
   0 S :    0.131894
   1 C :   -0.116592
   2 C :   -0.095824
   3 C :    0.022212
   4 C :   -0.189041
   5 H :    0.021258
   6 C :    0.079701
   7 H :    0.031657
   8 H :    0.044283
   9 C :   -0.101621
  10 H :    0.013546
  11 H :    0.021775
  12 C :   -0.027280
  13 H :    0.037602
  14 H :    0.014127
  15 H :    0.038191
  16 S :    0.131012
  17 C :   -0.098560
  18 C :   -0.053045
  19 C :   -0.020734
  20 C :   -0.149153
  21 H :    0.009205
  22 C :    0.070688
  23 H :    0.006861
  24 H :    0.049200
  25 C :   -0.068231
  26 H :    0.030410
  27 H :    0.033224
  28 C :   -0.030695
  29 H :    0.035278
  30 H :    0.026982
  31 H :    0.021280
  32 H :    0.040215
  33 H :    0.040173
Sum of atomic charges:    0.0000000

LOEWDIN ATOMIC CHARGES
----------------------
   0 S :    0.436952
   1 C :   -0.208895
   2 C :   -0.058263
   3 C :   -0.066035
   4 C :   -0.189960
   5 H :    0.034157
   6 C :   -0.028768
   7 H :    0.034313
   8 H :    0.038426
   9 C :   -0.053873
  10 H :    0.020112
  11 H :    0.022346
  12 C :   -0.065148
  13 H :    0.035342
  14 H :    0.019991
  15 H :    0.022847
  16 S :    0.455582
  17 C :   -0.204041
  18 C :   -0.072538
  19 C :   -0.062423
  20 C :   -0.223736
  21 H :    0.029876
  22 C :   -0.043890
  23 H :    0.014367
  24 H :    0.042278
  25 C :   -0.035687
  26 H :    0.026673
  27 H :    0.026524
  28 C :   -0.062996
  29 H :    0.025769
  30 H :    0.018454
  31 H :    0.030739
  32 H :    0.019467
  33 H :    0.022036

  Mayer bond orders larger than 0.100000
B(  0-S ,  1-C ) :   1.1560 B(  0-S ,  4-C ) :   1.1701 B(  1-C ,  2-C ) :   1.5814
B(  1-C ,  4-C ) :   0.1015 B(  1-C , 32-H ) :   0.9715 B(  2-C ,  3-C ) :   1.2390
B(  2-C ,  6-C ) :   1.0121 B(  3-C ,  4-C ) :   1.5706 B(  3-C ,  5-H ) :   0.9919
B(  4-C , 20-C ) :   1.0095 B(  6-C ,  7-H ) :   0.9459 B(  6-C ,  8-H ) :   0.9422
B(  6-C ,  9-C ) :   1.0738 B(  9-C , 10-H ) :   0.9519 B(  9-C , 11-H ) :   0.9539
B(  9-C , 12-C ) :   1.0842 B( 12-C , 13-H ) :   0.9702 B( 12-C , 14-H ) :   0.9722
B( 12-C , 15-H ) :   0.9707 B( 16-S , 17-C ) :   1.1792 B( 16-S , 20-C ) :   1.1733
B( 17-C , 18-C ) :   1.5844 B( 17-C , 33-H ) :   0.9719 B( 18-C , 19-C ) :   1.2507
B( 18-C , 21-H ) :   1.0001 B( 19-C , 20-C ) :   1.5438 B( 19-C , 22-C ) :   1.0386
B( 22-C , 23-H ) :   0.9198 B( 22-C , 24-H ) :   0.9261 B( 22-C , 25-C ) :   1.0791
B( 25-C , 26-H ) :   0.9528 B( 25-C , 27-H ) :   0.9501 B( 25-C , 28-C ) :   1.0895
B( 28-C , 29-H ) :   0.9718 B( 28-C , 30-H ) :   0.9755 B( 28-C , 31-H ) :   0.9698

Dispersion correction           -0.014554695
FINAL SINGLE POINT ENERGY     -1339.885825568907

DIPOLE MOMENT
-------------
                                X             Y             Z
Electronic contribution:    -17.00341       9.74746      -9.93712
Nuclear contribution   :     17.26066      -9.83358      10.13037
                        -----------------------------------------
Total Dipole Moment    :      0.25725      -0.08612       0.19325
                        -----------------------------------------
Magnitude (a.u.)       :      0.33308
Magnitude (Debye)      :      0.84662

Rotational constants in cm-1:     0.020462     0.008110     0.007200
Rotational constants in MHz :   613.441086   243.121949   215.865273

                             ****ORCA TERMINATED NORMALLY****
TOTAL RUN TIME: 0 days 0 hours 0 minutes 20 seconds 397 msec
