                         Program Version 4.2.1 -  RELEASE  -
|  1> ! wB97X-D3 SP def2-SVP
|  2> %pal
|  3> nprocs 24
|  4> end
|  5>
|  6> * xyz 0 1
|  7> S 	 -42.3411 	 -4.5685 	 -17.1332
|  8> C 	 -43.5309 	 -3.89609 	 -15.9647
|  9> C 	 -42.9014 	 -3.58727 	 -14.7795
| 10> C 	 -41.4961 	 -3.92234 	 -14.8335
| 11> C 	 -41.0202 	 -4.42195 	 -15.9785
| 12> H 	 -40.8234 	 -3.66392 	 -14.0035
| 13> C 	 -43.5182 	 -2.80072 	 -13.6659
| 14> H 	 -42.9883 	 -2.75514 	 -12.6573
| 15> H 	 -44.4176 	 -3.36265 	 -13.3744
| 16> C 	 -43.95 	 -1.28977 	 -13.8352
| 17> H 	 -44.4004 	 -1.20264 	 -14.8488
| 18> H 	 -44.6337 	 -1.20201 	 -13.0447
| 19> C 	 -42.7443 	 -0.43319 	 -13.655
| 20> H 	 -42.603 	 -0.360847 	 -12.528
| 21> H 	 -41.9986 	 -1.01782 	 -14.244
| 22> H 	 -42.9376 	 0.58135 	 -14.0927
| 23> S 	 -38.8688 	 -6.14859 	 -15.3149
| 24> C 	 -37.5245 	 -6.13845 	 -16.4251
| 25> C 	 -37.5906 	 -5.20911 	 -17.3887
| 26> C 	 -38.7986 	 -4.4715 	 -17.3495
| 27> C 	 -39.594 	 -4.77193 	 -16.2155
| 28> H 	 -36.8445 	 -5.19251 	 -18.1143
| 29> C 	 -39.1964 	 -3.4198 	 -18.3951
| 30> H 	 -38.3213 	 -2.73912 	 -18.4088
| 31> H 	 -40.0314 	 -2.85206 	 -18.0683
| 32> C 	 -39.1635 	 -3.84953 	 -19.8679
| 33> H 	 -38.2043 	 -4.18611 	 -20.3323
| 34> H 	 -39.3854 	 -3.026 	 -20.5122
| 35> C 	 -40.1858 	 -4.89996 	 -20.2139
| 36> H 	 -39.6527 	 -5.78758 	 -20.0002
| 37> H 	 -40.4479 	 -4.91472 	 -21.2664
| 38> H 	 -41.126 	 -4.80081 	 -19.6446
| 39> H 	 -44.6035 	 -3.85066 	 -16.1066
| 40> H 	 -36.7052 	 -6.80838 	 -16.4614
| 41> *
| 42>
| 43>                          ****END OF INPUT****

CARTESIAN COORDINATES (ANGSTROEM)
---------------------------------
  S    -42.341100   -4.568500  -17.133200
  C    -43.530900   -3.896090  -15.964700
  C    -42.901400   -3.587270  -14.779500
  C    -41.496100   -3.922340  -14.833500
  C    -41.020200   -4.421950  -15.978500
  H    -40.823400   -3.663920  -14.003500
  C    -43.518200   -2.800720  -13.665900
  H    -42.988300   -2.755140  -12.657300
  H    -44.417600   -3.362650  -13.374400
  C    -43.950000   -1.289770  -13.835200
  H    -44.400400   -1.202640  -14.848800
  H    -44.633700   -1.202010  -13.044700
  C    -42.744300   -0.433190  -13.655000
  H    -42.603000   -0.360847  -12.528000
  H    -41.998600   -1.017820  -14.244000
  H    -42.937600    0.581350  -14.092700
  S    -38.868800   -6.148590  -15.314900
  C    -37.524500   -6.138450  -16.425100
  C    -37.590600   -5.209110  -17.388700
  C    -38.798600   -4.471500  -17.349500
  C    -39.594000   -4.771930  -16.215500
  H    -36.844500   -5.192510  -18.114300
  C    -39.196400   -3.419800  -18.395100
  H    -38.321300   -2.739120  -18.408800
  H    -40.031400   -2.852060  -18.068300
  C    -39.163500   -3.849530  -19.867900
  H    -38.204300   -4.186110  -20.332300
  H    -39.385400   -3.026000  -20.512200
  C    -40.185800   -4.899960  -20.213900
  H    -39.652700   -5.787580  -20.000200
  H    -40.447900   -4.914720  -21.266400
  H    -41.126000   -4.800810  -19.644600
  H    -44.603500   -3.850660  -16.106600
  H    -36.705200   -6.808380  -16.461400

 Total Charge           Charge          ....    0
 Multiplicity           Mult            ....    1
 Number of Electrons    NEL             ....  134
 Basis Dimension        Dim             ....  322

ORBITAL ENERGIES
----------------

  NO   OCC          E(Eh)            E(eV)
   0   2.0000     -88.968804     -2420.9642
   1   2.0000     -88.967882     -2420.9392
   2   2.0000     -10.331335      -281.1299
   3   2.0000     -10.329378      -281.0767
   4   2.0000     -10.319873      -280.8180
   5   2.0000     -10.313169      -280.6356
   6   2.0000     -10.309146      -280.5261
   7   2.0000     -10.303733      -280.3788
   8   2.0000     -10.294851      -280.1371
   9   2.0000     -10.292587      -280.0755
  10   2.0000     -10.289483      -279.9911
  11   2.0000     -10.285827      -279.8916
  12   2.0000     -10.284274      -279.8493
  13   2.0000     -10.283306      -279.8230
  14   2.0000     -10.282908      -279.8122
  15   2.0000     -10.261878      -279.2399
  16   2.0000      -8.082747      -219.9427
  17   2.0000      -8.081100      -219.8979
  18   2.0000      -6.041301      -164.3922
  19   2.0000      -6.039927      -164.3548
  20   2.0000      -6.037468      -164.2879
  21   2.0000      -6.035770      -164.2417
  22   2.0000      -6.033393      -164.1770
  23   2.0000      -6.031647      -164.1295
  24   2.0000      -1.003263       -27.3002
  25   2.0000      -0.984242       -26.7826
  26   2.0000      -0.914798       -24.8929
  27   2.0000      -0.909704       -24.7543
  28   2.0000      -0.872431       -23.7401
  29   2.0000      -0.850992       -23.1567
  30   2.0000      -0.844274       -22.9739
  31   2.0000      -0.821216       -22.3464
  32   2.0000      -0.782618       -21.2961
  33   2.0000      -0.768942       -20.9240
  34   2.0000      -0.706564       -19.2266
  35   2.0000      -0.693812       -18.8796
  36   2.0000      -0.691626       -18.8201
  37   2.0000      -0.657645       -17.8954
  38   2.0000      -0.634630       -17.2691
  39   2.0000      -0.615663       -16.7530
  40   2.0000      -0.596907       -16.2427
  41   2.0000      -0.586089       -15.9483
  42   2.0000      -0.558804       -15.2058
  43   2.0000      -0.550199       -14.9717
  44   2.0000      -0.546641       -14.8749
  45   2.0000      -0.539796       -14.6886
  46   2.0000      -0.527030       -14.3412
  47   2.0000      -0.511318       -13.9137
  48   2.0000      -0.496896       -13.5212
  49   2.0000      -0.491411       -13.3720
  50   2.0000      -0.487123       -13.2553
  51   2.0000      -0.475518       -12.9395
  52   2.0000      -0.471233       -12.8229
  53   2.0000      -0.465730       -12.6731
  54   2.0000      -0.459796       -12.5117
  55   2.0000      -0.446587       -12.1522
  56   2.0000      -0.441401       -12.0111
  57   2.0000      -0.437855       -11.9146
  58   2.0000      -0.426574       -11.6077
  59   2.0000      -0.422901       -11.5077
  60   2.0000      -0.415458       -11.3052
  61   2.0000      -0.409402       -11.1404
  62   2.0000      -0.404918       -11.0184
  63   2.0000      -0.348018        -9.4701
  64   2.0000      -0.332844        -9.0571
  65   2.0000      -0.326665        -8.8890
  66   2.0000      -0.297654        -8.0996
  67   0.0000       0.033063         0.8997
  68   0.0000       0.059381         1.6158
  69   0.0000       0.106260         2.8915
  70   0.0000       0.109202         2.9715
  71   0.0000       0.126779         3.4498

MULLIKEN ATOMIC CHARGES
-----------------------
   0 S :    0.093261
   1 C :   -0.126394
   2 C :   -0.041972
   3 C :    0.000188
   4 C :   -0.120692
   5 H :    0.019905
   6 C :   -0.038409
   7 H :    0.025487
   8 H :    0.029402
   9 C :   -0.036720
  10 H :    0.032402
  11 H :    0.017964
  12 C :   -0.074008
  13 H :    0.045506
  14 H :    0.051999
  15 H :    0.045908
  16 S :    0.112330
  17 C :   -0.060176
  18 C :   -0.007371
  19 C :   -0.048791
  20 C :   -0.153790
  21 H :   -0.008513
  22 C :    0.089553
  23 H :    0.033626
  24 H :    0.030403
  25 C :   -0.088096
  26 H :    0.025528
  27 H :    0.016554
  28 C :   -0.040783
  29 H :    0.024944
  30 H :    0.024127
  31 H :    0.036718
  32 H :    0.053901
  33 H :    0.036009
Sum of atomic charges:   -0.0000000

LOEWDIN ATOMIC CHARGES
----------------------
   0 S :    0.392296
   1 C :   -0.177799
   2 C :   -0.068697
   3 C :   -0.070563
   4 C :   -0.190312
   5 H :    0.034613
   6 C :   -0.050712
   7 H :    0.034877
   8 H :    0.032523
   9 C :   -0.035570
  10 H :    0.023924
  11 H :    0.014924
  12 C :   -0.074449
  13 H :    0.034608
  14 H :    0.035771
  15 H :    0.030226
  16 S :    0.393881
  17 C :   -0.167261
  18 C :   -0.069030
  19 C :   -0.041140
  20 C :   -0.193612
  21 H :    0.023592
  22 C :   -0.029092
  23 H :    0.043390
  24 H :    0.025505
  25 C :   -0.047128
  26 H :    0.027239
  27 H :    0.020478
  28 C :   -0.069038
  29 H :    0.020417
  30 H :    0.023420
  31 H :    0.016556
  32 H :    0.031221
  33 H :    0.024941

  Mayer bond orders larger than 0.100000
B(  0-S ,  1-C ) :   1.1211 B(  0-S ,  4-C ) :   1.1132 B(  1-C ,  2-C ) :   1.6224
B(  1-C , 32-H ) :   0.9687 B(  2-C ,  3-C ) :   1.2203 B(  2-C ,  6-C ) :   1.0311
B(  3-C ,  4-C ) :   1.6016 B(  3-C ,  5-H ) :   0.9941 B(  4-C , 20-C ) :   1.0361
B(  6-C ,  7-H ) :   0.9482 B(  6-C ,  8-H ) :   0.9330 B(  6-C ,  9-C ) :   1.0573
B(  9-C , 10-H ) :   0.9548 B(  9-C , 11-H ) :   0.9555 B(  9-C , 12-C ) :   1.0712
B( 12-C , 13-H ) :   0.9720 B( 12-C , 14-H ) :   0.9786 B( 12-C , 15-H ) :   0.9724
B( 16-S , 17-C ) :   1.1532 B( 16-S , 20-C ) :   1.1198 B( 17-C , 18-C ) :   1.6454
B( 17-C , 33-H ) :   0.9605 B( 18-C , 19-C ) :   1.2235 B( 18-C , 21-H ) :   0.9994
B( 19-C , 20-C ) :   1.5845 B( 19-C , 22-C ) :   1.0421 B( 22-C , 23-H ) :   0.9279
B( 22-C , 24-H ) :   0.9406 B( 22-C , 25-C ) :   1.0669 B( 25-C , 26-H ) :   0.9572
B( 25-C , 27-H ) :   0.9543 B( 25-C , 28-C ) :   1.0680 B( 28-C , 29-H ) :   0.9782
B( 28-C , 30-H ) :   0.9729 B( 28-C , 31-H ) :   0.9727

Dispersion correction           -0.014964167
FINAL SINGLE POINT ENERGY     -1339.853118958147

DIPOLE MOMENT
-------------
                                X             Y             Z
Electronic contribution:      5.84888     -16.21167       3.67777
Nuclear contribution   :     -5.82315      16.53459      -3.78490
                        -----------------------------------------
Total Dipole Moment    :      0.02573       0.32292      -0.10712
                        -----------------------------------------
Magnitude (a.u.)       :      0.34119
Magnitude (Debye)      :      0.86724

Rotational constants in cm-1:     0.021150     0.008166     0.007084
Rotational constants in MHz :   634.064151   244.820463   212.370652

                             ****ORCA TERMINATED NORMALLY****
TOTAL RUN TIME: 0 days 0 hours 0 minutes 21 seconds 863 msec
