                         Program Version 4.2.1 -  RELEASE  -
|  1> ! wB97X-D3 SP def2-SVP
|  2> %pal
|  3> nprocs 24
|  4> end
|  5>
|  6> * xyz 0 1
|  7> S 	 -99.7112 	 -0.604191 	 -122.161
|  8> C 	 -101.252 	 -0.947521 	 -123.065
|  9> C 	 -102.355 	 -0.551884 	 -122.34
| 10> C 	 -101.932 	 0.116141 	 -121.116
| 11> C 	 -100.577 	 0.0598828 	 -120.823
| 12> H 	 -102.637 	 0.577101 	 -120.426
| 13> C 	 -103.768 	 -0.885893 	 -122.705
| 14> H 	 -103.785 	 -0.963767 	 -123.82
| 15> H 	 -104.388 	 -0.02516 	 -122.434
| 16> C 	 -104.495 	 -2.15317 	 -122.21
| 17> H 	 -103.853 	 -3.08335 	 -122.379
| 18> H 	 -104.601 	 -2.08156 	 -121.12
| 19> C 	 -105.818 	 -2.4114 	 -122.987
| 20> H 	 -105.729 	 -2.67783 	 -124.032
| 21> H 	 -106.305 	 -3.1851 	 -122.441
| 22> H 	 -106.373 	 -1.48058 	 -123.016
| 23> S 	 -98.6941 	 -0.508483 	 -119
| 24> C 	 -98.3693 	 0.716148 	 -117.771
| 25> C 	 -99.2826 	 1.74873 	 -117.77
| 26> C 	 -100.237 	 1.59746 	 -118.786
| 27> C 	 -99.9486 	 0.532321 	 -119.647
| 28> H 	 -99.1586 	 2.54583 	 -117.095
| 29> C 	 -101.366 	 2.60052 	 -118.941
| 30> H 	 -102.065 	 2.59694 	 -118.133
| 31> H 	 -101.935 	 2.43193 	 -119.845
| 32> C 	 -100.869 	 4.04314 	 -119.066
| 33> H 	 -100.252 	 4.08945 	 -119.964
| 34> H 	 -100.125 	 4.31932 	 -118.286
| 35> C 	 -101.916 	 5.21687 	 -119.236
| 36> H 	 -102.43 	 5.03812 	 -120.088
| 37> H 	 -101.434 	 6.18997 	 -119.104
| 38> H 	 -102.651 	 5.21451 	 -118.374
| 39> H 	 -101.203 	 -1.56159 	 -123.9
| 40> H 	 -97.6036 	 0.597293 	 -117.013
| 41> *
| 42>
| 43>                          ****END OF INPUT****

CARTESIAN COORDINATES (ANGSTROEM)
---------------------------------
  S    -99.711200   -0.604191  -122.161000
  C    -101.252000   -0.947521  -123.065000
  C    -102.355000   -0.551884  -122.340000
  C    -101.932000    0.116141  -121.116000
  C    -100.577000    0.059883  -120.823000
  H    -102.637000    0.577101  -120.426000
  C    -103.768000   -0.885893  -122.705000
  H    -103.785000   -0.963767  -123.820000
  H    -104.388000   -0.025160  -122.434000
  C    -104.495000   -2.153170  -122.210000
  H    -103.853000   -3.083350  -122.379000
  H    -104.601000   -2.081560  -121.120000
  C    -105.818000   -2.411400  -122.987000
  H    -105.729000   -2.677830  -124.032000
  H    -106.305000   -3.185100  -122.441000
  H    -106.373000   -1.480580  -123.016000
  S    -98.694100   -0.508483  -119.000000
  C    -98.369300    0.716148  -117.771000
  C    -99.282600    1.748730  -117.770000
  C    -100.237000    1.597460  -118.786000
  C    -99.948600    0.532321  -119.647000
  H    -99.158600    2.545830  -117.095000
  C    -101.366000    2.600520  -118.941000
  H    -102.065000    2.596940  -118.133000
  H    -101.935000    2.431930  -119.845000
  C    -100.869000    4.043140  -119.066000
  H    -100.252000    4.089450  -119.964000
  H    -100.125000    4.319320  -118.286000
  C    -101.916000    5.216870  -119.236000
  H    -102.430000    5.038120  -120.088000
  H    -101.434000    6.189970  -119.104000
  H    -102.651000    5.214510  -118.374000
  H    -101.203000   -1.561590  -123.900000
  H    -97.603600    0.597293  -117.013000

 Total Charge           Charge          ....    0
 Multiplicity           Mult            ....    1
 Number of Electrons    NEL             ....  134
 Basis Dimension        Dim             ....  322

ORBITAL ENERGIES
----------------

  NO   OCC          E(Eh)            E(eV)
   0   2.0000     -88.967942     -2420.9408
   1   2.0000     -88.963300     -2420.8145
   2   2.0000     -10.326635      -281.0020
   3   2.0000     -10.325811      -280.9796
   4   2.0000     -10.318060      -280.7687
   5   2.0000     -10.313203      -280.6365
   6   2.0000     -10.305810      -280.4353
   7   2.0000     -10.305525      -280.4276
   8   2.0000     -10.296163      -280.1728
   9   2.0000     -10.296130      -280.1719
  10   2.0000     -10.293921      -280.1118
  11   2.0000     -10.291344      -280.0417
  12   2.0000     -10.290200      -280.0106
  13   2.0000     -10.286742      -279.9165
  14   2.0000     -10.279509      -279.7197
  15   2.0000     -10.279313      -279.7143
  16   2.0000      -8.082548      -219.9373
  17   2.0000      -8.077722      -219.8060
  18   2.0000      -6.040932      -164.3821
  19   2.0000      -6.037227      -164.2813
  20   2.0000      -6.036335      -164.2570
  21   2.0000      -6.033284      -164.1740
  22   2.0000      -6.032324      -164.1479
  23   2.0000      -6.028332      -164.0392
  24   2.0000      -1.008973       -27.4556
  25   2.0000      -0.980451       -26.6794
  26   2.0000      -0.912356       -24.8265
  27   2.0000      -0.907114       -24.6838
  28   2.0000      -0.874354       -23.7924
  29   2.0000      -0.850479       -23.1427
  30   2.0000      -0.843895       -22.9635
  31   2.0000      -0.812700       -22.1147
  32   2.0000      -0.786619       -21.4050
  33   2.0000      -0.775194       -21.0941
  34   2.0000      -0.709411       -19.3041
  35   2.0000      -0.701263       -19.0823
  36   2.0000      -0.697215       -18.9722
  37   2.0000      -0.664331       -18.0774
  38   2.0000      -0.642353       -17.4793
  39   2.0000      -0.620847       -16.8941
  40   2.0000      -0.601755       -16.3746
  41   2.0000      -0.570903       -15.5351
  42   2.0000      -0.567200       -15.4343
  43   2.0000      -0.557793       -15.1783
  44   2.0000      -0.533807       -14.5256
  45   2.0000      -0.526159       -14.3175
  46   2.0000      -0.518631       -14.1127
  47   2.0000      -0.511494       -13.9185
  48   2.0000      -0.509524       -13.8648
  49   2.0000      -0.498203       -13.5568
  50   2.0000      -0.493001       -13.4152
  51   2.0000      -0.477522       -12.9940
  52   2.0000      -0.473202       -12.8765
  53   2.0000      -0.468753       -12.7554
  54   2.0000      -0.460980       -12.5439
  55   2.0000      -0.451769       -12.2933
  56   2.0000      -0.445795       -12.1307
  57   2.0000      -0.437539       -11.9061
  58   2.0000      -0.429601       -11.6901
  59   2.0000      -0.425138       -11.5686
  60   2.0000      -0.422344       -11.4926
  61   2.0000      -0.414071       -11.2675
  62   2.0000      -0.410170       -11.1613
  63   2.0000      -0.353280        -9.6132
  64   2.0000      -0.335215        -9.1217
  65   2.0000      -0.327551        -8.9131
  66   2.0000      -0.284284        -7.7358
  67   0.0000       0.021399         0.5823
  68   0.0000       0.073975         2.0130
  69   0.0000       0.105058         2.8588
  70   0.0000       0.112483         3.0608
  71   0.0000       0.131938         3.5902

MULLIKEN ATOMIC CHARGES
-----------------------
   0 S :    0.090039
   1 C :   -0.111140
   2 C :   -0.054166
   3 C :   -0.000535
   4 C :   -0.127278
   5 H :    0.012207
   6 C :    0.030683
   7 H :    0.024979
   8 H :    0.026193
   9 C :   -0.081782
  10 H :    0.035658
  11 H :    0.035541
  12 C :   -0.034173
  13 H :    0.035617
  14 H :    0.038165
  15 H :    0.025901
  16 S :    0.107254
  17 C :   -0.086358
  18 C :   -0.025226
  19 C :   -0.020950
  20 C :   -0.146944
  21 H :    0.007646
  22 C :    0.121913
  23 H :    0.023732
  24 H :    0.014754
  25 C :   -0.152978
  26 H :    0.030027
  27 H :    0.026282
  28 C :   -0.013067
  29 H :    0.021083
  30 H :    0.042293
  31 H :    0.022617
  32 H :    0.028536
  33 H :    0.053479
Sum of atomic charges:    0.0000000

LOEWDIN ATOMIC CHARGES
----------------------
   0 S :    0.381761
   1 C :   -0.163127
   2 C :   -0.057122
   3 C :   -0.070888
   4 C :   -0.200733
   5 H :    0.026430
   6 C :   -0.042610
   7 H :    0.035272
   8 H :    0.030806
   9 C :   -0.040731
  10 H :    0.029754
  11 H :    0.023977
  12 C :   -0.060347
  13 H :    0.026277
  14 H :    0.027087
  15 H :    0.023604
  16 S :    0.402050
  17 C :   -0.173328
  18 C :   -0.060630
  19 C :   -0.047372
  20 C :   -0.192761
  21 H :    0.027556
  22 C :   -0.029279
  23 H :    0.027586
  24 H :    0.028303
  25 C :   -0.045550
  26 H :    0.024413
  27 H :    0.019347
  28 C :   -0.056160
  29 H :    0.008702
  30 H :    0.033094
  31 H :    0.027003
  32 H :    0.011329
  33 H :    0.026286

  Mayer bond orders larger than 0.100000
B(  0-S ,  1-C ) :   1.1101 B(  0-S ,  4-C ) :   1.1437 B(  1-C ,  2-C ) :   1.6191
B(  1-C , 32-H ) :   0.9805 B(  2-C ,  3-C ) :   1.2234 B(  2-C ,  6-C ) :   1.0359
B(  3-C ,  4-C ) :   1.5700 B(  3-C ,  5-H ) :   0.9877 B(  4-C , 20-C ) :   1.0778
B(  6-C ,  7-H ) :   0.9419 B(  6-C ,  8-H ) :   0.9310 B(  6-C ,  9-C ) :   1.0613
B(  9-C , 10-H ) :   0.9555 B(  9-C , 11-H ) :   0.9563 B(  9-C , 12-C ) :   1.0686
B( 12-C , 13-H ) :   0.9749 B( 12-C , 14-H ) :   0.9742 B( 12-C , 15-H ) :   0.9767
B( 16-S , 17-C ) :   1.1474 B( 16-S , 20-C ) :   1.1427 B( 17-C , 18-C ) :   1.6114
B( 17-C , 20-C ) :   0.1072 B( 17-C , 33-H ) :   0.9668 B( 18-C , 19-C ) :   1.2358
B( 18-C , 21-H ) :   1.0007 B( 19-C , 20-C ) :   1.5778 B( 19-C , 22-C ) :   1.0509
B( 22-C , 23-H ) :   0.9294 B( 22-C , 24-H ) :   0.9289 B( 22-C , 25-C ) :   1.0493
B( 25-C , 26-H ) :   0.9563 B( 25-C , 27-H ) :   0.9598 B( 25-C , 28-C ) :   1.0771
B( 28-C , 29-H ) :   0.9784 B( 28-C , 30-H ) :   0.9742 B( 28-C , 31-H ) :   0.9754

Dispersion correction           -0.013269604
FINAL SINGLE POINT ENERGY     -1339.871489374832

DIPOLE MOMENT
-------------
                                X             Y             Z
Electronic contribution:     25.48489     -10.54780       2.41637
Nuclear contribution   :    -26.07376      10.75399      -2.23189
                        -----------------------------------------
Total Dipole Moment    :     -0.58886       0.20620       0.18449
                        -----------------------------------------
Magnitude (a.u.)       :      0.65063
Magnitude (Debye)      :      1.65376

Rotational constants in cm-1:     0.017579     0.007817     0.006212
Rotational constants in MHz :   527.007062   234.334298   186.228609

                             ****ORCA TERMINATED NORMALLY****
TOTAL RUN TIME: 0 days 0 hours 0 minutes 20 seconds 955 msec
