                         Program Version 4.2.1 -  RELEASE  -
|  1> ! wB97X-D3 SP def2-SVP
|  2> %pal
|  3> nprocs 24
|  4> end
|  5>
|  6> * xyz 0 1
|  7> S 	 28.8236 	 0.782024 	 -114.835
|  8> C 	 27.0867 	 0.787431 	 -114.86
|  9> C 	 26.5752 	 0.16557 	 -113.738
| 10> C 	 27.6215 	 -0.483672 	 -113.021
| 11> C 	 28.9197 	 -0.205668 	 -113.436
| 12> H 	 27.4386 	 -1.14495 	 -112.217
| 13> C 	 25.1294 	 0.257571 	 -113.244
| 14> H 	 25.0363 	 -0.5467 	 -112.496
| 15> H 	 24.4612 	 -0.199392 	 -113.96
| 16> C 	 24.7259 	 1.59591 	 -112.639
| 17> H 	 25.2702 	 1.73636 	 -111.677
| 18> H 	 24.9922 	 2.35876 	 -113.263
| 19> C 	 23.1907 	 1.76656 	 -112.333
| 20> H 	 22.5889 	 0.924339 	 -111.828
| 21> H 	 23.0265 	 2.58883 	 -111.675
| 22> H 	 22.6475 	 1.85595 	 -113.27
| 23> S 	 31.107 	 -1.61007 	 -114.121
| 24> C 	 32.1896 	 -2.22691 	 -112.915
| 25> C 	 31.7612 	 -1.84126 	 -111.661
| 26> C 	 30.5296 	 -1.10999 	 -111.647
| 27> C 	 30.0658 	 -0.863017 	 -112.933
| 28> H 	 32.239 	 -2.10219 	 -110.647
| 29> C 	 29.8835 	 -0.621788 	 -110.335
| 30> H 	 30.4729 	 -0.976192 	 -109.507
| 31> H 	 28.8891 	 -1.14605 	 -110.196
| 32> C 	 29.7061 	 0.909947 	 -110.326
| 33> H 	 29.0582 	 1.15495 	 -111.227
| 34> H 	 30.6287 	 1.40928 	 -110.466
| 35> C 	 28.9446 	 1.43042 	 -109.084
| 36> H 	 28.0282 	 0.874987 	 -108.939
| 37> H 	 28.656 	 2.50986 	 -109.155
| 38> H 	 29.5957 	 1.24825 	 -108.214
| 39> H 	 26.4272 	 1.32058 	 -115.603
| 40> H 	 32.9962 	 -2.85693 	 -113.066
| 41> *
| 42>
| 43>                          ****END OF INPUT****

CARTESIAN COORDINATES (ANGSTROEM)
---------------------------------
  S     28.823600    0.782024  -114.835000
  C     27.086700    0.787431  -114.860000
  C     26.575200    0.165570  -113.738000
  C     27.621500   -0.483672  -113.021000
  C     28.919700   -0.205668  -113.436000
  H     27.438600   -1.144950  -112.217000
  C     25.129400    0.257571  -113.244000
  H     25.036300   -0.546700  -112.496000
  H     24.461200   -0.199392  -113.960000
  C     24.725900    1.595910  -112.639000
  H     25.270200    1.736360  -111.677000
  H     24.992200    2.358760  -113.263000
  C     23.190700    1.766560  -112.333000
  H     22.588900    0.924339  -111.828000
  H     23.026500    2.588830  -111.675000
  H     22.647500    1.855950  -113.270000
  S     31.107000   -1.610070  -114.121000
  C     32.189600   -2.226910  -112.915000
  C     31.761200   -1.841260  -111.661000
  C     30.529600   -1.109990  -111.647000
  C     30.065800   -0.863017  -112.933000
  H     32.239000   -2.102190  -110.647000
  C     29.883500   -0.621788  -110.335000
  H     30.472900   -0.976192  -109.507000
  H     28.889100   -1.146050  -110.196000
  C     29.706100    0.909947  -110.326000
  H     29.058200    1.154950  -111.227000
  H     30.628700    1.409280  -110.466000
  C     28.944600    1.430420  -109.084000
  H     28.028200    0.874987  -108.939000
  H     28.656000    2.509860  -109.155000
  H     29.595700    1.248250  -108.214000
  H     26.427200    1.320580  -115.603000
  H     32.996200   -2.856930  -113.066000

 Total Charge           Charge          ....    0
 Multiplicity           Mult            ....    1
 Number of Electrons    NEL             ....  134
 Basis Dimension        Dim             ....  322

ORBITAL ENERGIES
----------------

  NO   OCC          E(Eh)            E(eV)
   0   2.0000     -88.969392     -2420.9802
   1   2.0000     -88.965641     -2420.8782
   2   2.0000     -10.324614      -280.9470
   3   2.0000     -10.324123      -280.9337
   4   2.0000     -10.317325      -280.7487
   5   2.0000     -10.312786      -280.6252
   6   2.0000     -10.303143      -280.3628
   7   2.0000     -10.300693      -280.2961
   8   2.0000     -10.299265      -280.2573
   9   2.0000     -10.297296      -280.2037
  10   2.0000     -10.294267      -280.1212
  11   2.0000     -10.289548      -279.9928
  12   2.0000     -10.288693      -279.9696
  13   2.0000     -10.285265      -279.8763
  14   2.0000     -10.282873      -279.8112
  15   2.0000     -10.279121      -279.7091
  16   2.0000      -8.084527      -219.9912
  17   2.0000      -8.080703      -219.8871
  18   2.0000      -6.043033      -164.4393
  19   2.0000      -6.039190      -164.3347
  20   2.0000      -6.038815      -164.3245
  21   2.0000      -6.035424      -164.2322
  22   2.0000      -6.035052      -164.2221
  23   2.0000      -6.031559      -164.1271
  24   2.0000      -1.014005       -27.5925
  25   2.0000      -0.987718       -26.8772
  26   2.0000      -0.911389       -24.8002
  27   2.0000      -0.904264       -24.6063
  28   2.0000      -0.873673       -23.7739
  29   2.0000      -0.850600       -23.1460
  30   2.0000      -0.844443       -22.9785
  31   2.0000      -0.811028       -22.0692
  32   2.0000      -0.782527       -21.2936
  33   2.0000      -0.772174       -21.0119
  34   2.0000      -0.710993       -19.3471
  35   2.0000      -0.709160       -19.2972
  36   2.0000      -0.690726       -18.7956
  37   2.0000      -0.665620       -18.1124
  38   2.0000      -0.639108       -17.3910
  39   2.0000      -0.618393       -16.8273
  40   2.0000      -0.594876       -16.1874
  41   2.0000      -0.570047       -15.5118
  42   2.0000      -0.560642       -15.2559
  43   2.0000      -0.557859       -15.1801
  44   2.0000      -0.529303       -14.4031
  45   2.0000      -0.519417       -14.1341
  46   2.0000      -0.518246       -14.1022
  47   2.0000      -0.514857       -14.0100
  48   2.0000      -0.502433       -13.6719
  49   2.0000      -0.500982       -13.6324
  50   2.0000      -0.492371       -13.3981
  51   2.0000      -0.490453       -13.3459
  52   2.0000      -0.466917       -12.7054
  53   2.0000      -0.463241       -12.6054
  54   2.0000      -0.457382       -12.4460
  55   2.0000      -0.448001       -12.1907
  56   2.0000      -0.445244       -12.1157
  57   2.0000      -0.438583       -11.9345
  58   2.0000      -0.436806       -11.8861
  59   2.0000      -0.423228       -11.5166
  60   2.0000      -0.421289       -11.4639
  61   2.0000      -0.413423       -11.2498
  62   2.0000      -0.412626       -11.2281
  63   2.0000      -0.349217        -9.5027
  64   2.0000      -0.332518        -9.0483
  65   2.0000      -0.330419        -8.9912
  66   2.0000      -0.289261        -7.8712
  67   0.0000       0.026650         0.7252
  68   0.0000       0.074213         2.0194
  69   0.0000       0.114655         3.1199
  70   0.0000       0.120027         3.2661
  71   0.0000       0.130717         3.5570

MULLIKEN ATOMIC CHARGES
-----------------------
   0 S :    0.125438
   1 C :   -0.149233
   2 C :   -0.096640
   3 C :    0.025886
   4 C :   -0.150317
   5 H :   -0.007894
   6 C :    0.073636
   7 H :    0.006685
   8 H :    0.023573
   9 C :   -0.013517
  10 H :    0.037053
  11 H :    0.013327
  12 C :   -0.080378
  13 H :    0.034044
  14 H :    0.035720
  15 H :    0.033030
  16 S :    0.116645
  17 C :   -0.061832
  18 C :   -0.053089
  19 C :   -0.049479
  20 C :   -0.162812
  21 H :    0.040694
  22 C :    0.078741
  23 H :    0.003335
  24 H :    0.035823
  25 C :   -0.099315
  26 H :    0.055419
  27 H :    0.029985
  28 C :   -0.044530
  29 H :    0.021848
  30 H :    0.046202
  31 H :    0.029911
  32 H :    0.068959
  33 H :    0.033082
Sum of atomic charges:    0.0000000

LOEWDIN ATOMIC CHARGES
----------------------
   0 S :    0.431143
   1 C :   -0.210160
   2 C :   -0.066088
   3 C :   -0.057521
   4 C :   -0.217313
   5 H :    0.020966
   6 C :   -0.037457
   7 H :    0.031401
   8 H :    0.030162
   9 C :   -0.027131
  10 H :    0.032817
  11 H :    0.012517
  12 C :   -0.072686
  13 H :    0.032453
  14 H :    0.022721
  15 H :    0.023652
  16 S :    0.422025
  17 C :   -0.184899
  18 C :   -0.078289
  19 C :   -0.057932
  20 C :   -0.197888
  21 H :    0.042537
  22 C :   -0.029513
  23 H :    0.021665
  24 H :    0.035152
  25 C :   -0.042937
  26 H :    0.033882
  27 H :    0.019201
  28 C :   -0.068875
  29 H :    0.020314
  30 H :    0.032296
  31 H :    0.024025
  32 H :    0.041851
  33 H :    0.017908

  Mayer bond orders larger than 0.100000
B(  0-S ,  1-C ) :   1.1518 B(  0-S ,  4-C ) :   1.1534 B(  1-C ,  2-C ) :   1.5816
B(  1-C , 32-H ) :   0.9618 B(  2-C ,  3-C ) :   1.2880 B(  2-C ,  6-C ) :   1.0187
B(  3-C ,  4-C ) :   1.5197 B(  3-C ,  5-H ) :   0.9982 B(  4-C , 20-C ) :   1.0837
B(  6-C ,  7-H ) :   0.9332 B(  6-C ,  8-H ) :   0.9384 B(  6-C ,  9-C ) :   1.0541
B(  9-C , 10-H ) :   0.9557 B(  9-C , 11-H ) :   0.9604 B(  9-C , 12-C ) :   1.0691
B( 12-C , 13-H ) :   0.9781 B( 12-C , 14-H ) :   0.9772 B( 12-C , 15-H ) :   0.9773
B( 16-S , 17-C ) :   1.1575 B( 16-S , 20-C ) :   1.1491 B( 17-C , 18-C ) :   1.5794
B( 17-C , 20-C ) :   0.1033 B( 17-C , 33-H ) :   0.9797 B( 18-C , 19-C ) :   1.2861
B( 18-C , 21-H ) :   0.9691 B( 19-C , 20-C ) :   1.5685 B( 19-C , 22-C ) :   1.0385
B( 22-C , 23-H ) :   0.9310 B( 22-C , 24-H ) :   0.9313 B( 22-C , 25-C ) :   1.0558
B( 25-C , 26-H ) :   0.9511 B( 25-C , 27-H ) :   0.9583 B( 25-C , 28-C ) :   1.0812
B( 28-C , 29-H ) :   0.9737 B( 28-C , 30-H ) :   0.9747 B( 28-C , 31-H ) :   0.9754

Dispersion correction           -0.014512046
FINAL SINGLE POINT ENERGY     -1339.878546390828

DIPOLE MOMENT
-------------
                                X             Y             Z
Electronic contribution:     21.68337     -10.00617     -21.17911
Nuclear contribution   :    -22.12860      10.00473      21.66972
                        -----------------------------------------
Total Dipole Moment    :     -0.44523      -0.00145       0.49062
                        -----------------------------------------
Magnitude (a.u.)       :      0.66252
Magnitude (Debye)      :      1.68400

Rotational constants in cm-1:     0.020117     0.008697     0.006689
Rotational constants in MHz :   603.086436   260.741828   200.527360

                             ****ORCA TERMINATED NORMALLY****
TOTAL RUN TIME: 0 days 0 hours 0 minutes 20 seconds 796 msec
