                         Program Version 4.2.1 -  RELEASE  -
|  1> ! wB97X-D3 SP def2-SVP
|  2> %pal
|  3> nprocs 24
|  4> end
|  5>
|  6> * xyz 0 1
|  7> S 	 -93.5256 	 -25.4431 	 -67.2508
|  8> C 	 -95.1124 	 -24.9344 	 -67.8105
|  9> C 	 -96.0499 	 -25.2525 	 -66.7945
| 10> C 	 -95.4733 	 -25.7962 	 -65.6286
| 11> C 	 -94.1267 	 -25.899 	 -65.6851
| 12> H 	 -96.0078 	 -26.1303 	 -64.753
| 13> C 	 -97.541 	 -25.2155 	 -66.9524
| 14> H 	 -97.9045 	 -26.1104 	 -66.4784
| 15> H 	 -97.6655 	 -25.3663 	 -68.0503
| 16> C 	 -98.2087 	 -23.9343 	 -66.4281
| 17> H 	 -97.7775 	 -23.0977 	 -66.8435
| 18> H 	 -99.2062 	 -23.8887 	 -66.8282
| 19> C 	 -98.1603 	 -24.0154 	 -64.8767
| 20> H 	 -98.8204 	 -23.22 	 -64.4424
| 21> H 	 -98.5261 	 -24.9442 	 -64.4673
| 22> H 	 -97.1168 	 -23.81 	 -64.4847
| 23> S 	 -92.5732 	 -27.9131 	 -64.5286
| 24> C 	 -91.9133 	 -27.5959 	 -62.8943
| 25> C 	 -92.2727 	 -26.3577 	 -62.4579
| 26> C 	 -92.8804 	 -25.5645 	 -63.4798
| 27> C 	 -93.2059 	 -26.3096 	 -64.6156
| 28> H 	 -91.9624 	 -26.0885 	 -61.4741
| 29> C 	 -93.4567 	 -24.2188 	 -63.1572
| 30> H 	 -93.8139 	 -23.8591 	 -64.1898
| 31> H 	 -92.6846 	 -23.5679 	 -62.8198
| 32> C 	 -94.6471 	 -24.3509 	 -62.2228
| 33> H 	 -94.4758 	 -24.8416 	 -61.2506
| 34> H 	 -95.4293 	 -24.9881 	 -62.7389
| 35> C 	 -95.2588 	 -22.9013 	 -62.0322
| 36> H 	 -96.2341 	 -22.994 	 -61.5417
| 37> H 	 -95.4884 	 -22.581 	 -63.0385
| 38> H 	 -94.5782 	 -22.1938 	 -61.5272
| 39> H 	 -95.3499 	 -24.5498 	 -68.7398
| 40> H 	 -91.4349 	 -28.3366 	 -62.2463
| 41> *
| 42>
| 43>                          ****END OF INPUT****

CARTESIAN COORDINATES (ANGSTROEM)
---------------------------------
  S    -93.525600  -25.443100  -67.250800
  C    -95.112400  -24.934400  -67.810500
  C    -96.049900  -25.252500  -66.794500
  C    -95.473300  -25.796200  -65.628600
  C    -94.126700  -25.899000  -65.685100
  H    -96.007800  -26.130300  -64.753000
  C    -97.541000  -25.215500  -66.952400
  H    -97.904500  -26.110400  -66.478400
  H    -97.665500  -25.366300  -68.050300
  C    -98.208700  -23.934300  -66.428100
  H    -97.777500  -23.097700  -66.843500
  H    -99.206200  -23.888700  -66.828200
  C    -98.160300  -24.015400  -64.876700
  H    -98.820400  -23.220000  -64.442400
  H    -98.526100  -24.944200  -64.467300
  H    -97.116800  -23.810000  -64.484700
  S    -92.573200  -27.913100  -64.528600
  C    -91.913300  -27.595900  -62.894300
  C    -92.272700  -26.357700  -62.457900
  C    -92.880400  -25.564500  -63.479800
  C    -93.205900  -26.309600  -64.615600
  H    -91.962400  -26.088500  -61.474100
  C    -93.456700  -24.218800  -63.157200
  H    -93.813900  -23.859100  -64.189800
  H    -92.684600  -23.567900  -62.819800
  C    -94.647100  -24.350900  -62.222800
  H    -94.475800  -24.841600  -61.250600
  H    -95.429300  -24.988100  -62.738900
  C    -95.258800  -22.901300  -62.032200
  H    -96.234100  -22.994000  -61.541700
  H    -95.488400  -22.581000  -63.038500
  H    -94.578200  -22.193800  -61.527200
  H    -95.349900  -24.549800  -68.739800
  H    -91.434900  -28.336600  -62.246300

 Total Charge           Charge          ....    0
 Multiplicity           Mult            ....    1
 Number of Electrons    NEL             ....  134
 Basis Dimension        Dim             ....  322

ORBITAL ENERGIES
----------------

  NO   OCC          E(Eh)            E(eV)
   0   2.0000     -88.965196     -2420.8661
   1   2.0000     -88.964366     -2420.8435
   2   2.0000     -10.325341      -280.9668
   3   2.0000     -10.323068      -280.9050
   4   2.0000     -10.317845      -280.7628
   5   2.0000     -10.314081      -280.6604
   6   2.0000     -10.299060      -280.2517
   7   2.0000     -10.298735      -280.2428
   8   2.0000     -10.293949      -280.1126
   9   2.0000     -10.289489      -279.9912
  10   2.0000     -10.288860      -279.9741
  11   2.0000     -10.288739      -279.9708
  12   2.0000     -10.288478      -279.9637
  13   2.0000     -10.287503      -279.9372
  14   2.0000     -10.283170      -279.8193
  15   2.0000     -10.280023      -279.7337
  16   2.0000      -8.079834      -219.8635
  17   2.0000      -8.078900      -219.8380
  18   2.0000      -6.038242      -164.3089
  19   2.0000      -6.037423      -164.2866
  20   2.0000      -6.034206      -164.1991
  21   2.0000      -6.033461      -164.1788
  22   2.0000      -6.030850      -164.1078
  23   2.0000      -6.029634      -164.0747
  24   2.0000      -1.007865       -27.4254
  25   2.0000      -0.984831       -26.7986
  26   2.0000      -0.914570       -24.8867
  27   2.0000      -0.907864       -24.7042
  28   2.0000      -0.869034       -23.6476
  29   2.0000      -0.846859       -23.0442
  30   2.0000      -0.843342       -22.9485
  31   2.0000      -0.819618       -22.3029
  32   2.0000      -0.777454       -21.1556
  33   2.0000      -0.763546       -20.7771
  34   2.0000      -0.714786       -19.4503
  35   2.0000      -0.702971       -19.1288
  36   2.0000      -0.694922       -18.9098
  37   2.0000      -0.657944       -17.9036
  38   2.0000      -0.648134       -17.6366
  39   2.0000      -0.617764       -16.8102
  40   2.0000      -0.590998       -16.0819
  41   2.0000      -0.574920       -15.6444
  42   2.0000      -0.566508       -15.4155
  43   2.0000      -0.549304       -14.9473
  44   2.0000      -0.539456       -14.6793
  45   2.0000      -0.525337       -14.2951
  46   2.0000      -0.517472       -14.0811
  47   2.0000      -0.516670       -14.0593
  48   2.0000      -0.509713       -13.8700
  49   2.0000      -0.496212       -13.5026
  50   2.0000      -0.485072       -13.1995
  51   2.0000      -0.482188       -13.1210
  52   2.0000      -0.467813       -12.7298
  53   2.0000      -0.464137       -12.6298
  54   2.0000      -0.454529       -12.3684
  55   2.0000      -0.448948       -12.2165
  56   2.0000      -0.445225       -12.1152
  57   2.0000      -0.439683       -11.9644
  58   2.0000      -0.435182       -11.8419
  59   2.0000      -0.422126       -11.4866
  60   2.0000      -0.421246       -11.4627
  61   2.0000      -0.415781       -11.3140
  62   2.0000      -0.411722       -11.2035
  63   2.0000      -0.340010        -9.2521
  64   2.0000      -0.332203        -9.0397
  65   2.0000      -0.318372        -8.6634
  66   2.0000      -0.305538        -8.3141
  67   0.0000       0.043468         1.1828
  68   0.0000       0.056192         1.5291
  69   0.0000       0.113726         3.0946
  70   0.0000       0.122085         3.3221
  71   0.0000       0.125987         3.4283

MULLIKEN ATOMIC CHARGES
-----------------------
   0 S :    0.120236
   1 C :   -0.087937
   2 C :   -0.113031
   3 C :    0.045131
   4 C :   -0.182020
   5 H :    0.015229
   6 C :    0.032737
   7 H :    0.024483
   8 H :    0.022484
   9 C :    0.024818
  10 H :    0.005214
  11 H :    0.022222
  12 C :   -0.092585
  13 H :    0.038042
  14 H :    0.030206
  15 H :    0.052503
  16 S :    0.109460
  17 C :   -0.104715
  18 C :   -0.023152
  19 C :   -0.018582
  20 C :   -0.167218
  21 H :    0.012485
  22 C :    0.061390
  23 H :    0.045628
  24 H :    0.024831
  25 C :   -0.108595
  26 H :    0.039738
  27 H :    0.024148
  28 C :   -0.035906
  29 H :    0.034207
  30 H :    0.025870
  31 H :    0.044130
  32 H :    0.017397
  33 H :    0.061155
Sum of atomic charges:    0.0000000

LOEWDIN ATOMIC CHARGES
----------------------
   0 S :    0.415445
   1 C :   -0.187814
   2 C :   -0.060048
   3 C :   -0.065190
   4 C :   -0.199300
   5 H :    0.031815
   6 C :   -0.032010
   7 H :    0.027698
   8 H :    0.031617
   9 C :   -0.027054
  10 H :    0.015110
  11 H :    0.023380
  12 C :   -0.068514
  13 H :    0.029679
  14 H :    0.020770
  15 H :    0.032741
  16 S :    0.397362
  17 C :   -0.173014
  18 C :   -0.067288
  19 C :   -0.053679
  20 C :   -0.217725
  21 H :    0.029133
  22 C :   -0.035715
  23 H :    0.041832
  24 H :    0.025309
  25 C :   -0.039081
  26 H :    0.022761
  27 H :    0.027198
  28 C :   -0.065002
  29 H :    0.025704
  30 H :    0.020500
  31 H :    0.027513
  32 H :    0.012747
  33 H :    0.033117

  Mayer bond orders larger than 0.100000
B(  0-S ,  1-C ) :   1.1477 B(  0-S ,  4-C ) :   1.1676 B(  1-C ,  2-C ) :   1.5803
B(  1-C ,  4-C ) :   0.1058 B(  1-C , 32-H ) :   0.9824 B(  2-C ,  3-C ) :   1.2539
B(  2-C ,  6-C ) :   1.0106 B(  3-C ,  4-C ) :   1.5795 B(  3-C ,  5-H ) :   0.9928
B(  4-C , 20-C ) :   0.9900 B(  6-C ,  7-H ) :   0.9503 B(  6-C ,  8-H ) :   0.9403
B(  6-C ,  9-C ) :   1.0687 B(  9-C , 10-H ) :   0.9522 B(  9-C , 11-H ) :   0.9551
B(  9-C , 12-C ) :   1.0697 B( 12-C , 13-H ) :   0.9731 B( 12-C , 14-H ) :   0.9744
B( 12-C , 15-H ) :   0.9686 B( 16-S , 17-C ) :   1.1385 B( 16-S , 20-C ) :   1.1518
B( 17-C , 18-C ) :   1.6439 B( 17-C , 33-H ) :   0.9642 B( 18-C , 19-C ) :   1.2146
B( 18-C , 21-H ) :   0.9906 B( 19-C , 20-C ) :   1.5967 B( 19-C , 22-C ) :   1.0609
B( 22-C , 23-H ) :   0.9282 B( 22-C , 24-H ) :   0.9301 B( 22-C , 25-C ) :   1.0607
B( 25-C , 26-H ) :   0.9573 B( 25-C , 27-H ) :   0.9479 B( 25-C , 28-C ) :   1.0750
B( 28-C , 29-H ) :   0.9751 B( 28-C , 30-H ) :   0.9712 B( 28-C , 31-H ) :   0.9748

Dispersion correction           -0.016486958
FINAL SINGLE POINT ENERGY     -1339.879152015345

DIPOLE MOMENT
-------------
                                X             Y             Z
Electronic contribution:     21.92526     -17.16364     -11.75879
Nuclear contribution   :    -22.48549      17.43199      12.13871
                        -----------------------------------------
Total Dipole Moment    :     -0.56023       0.26835       0.37992
                        -----------------------------------------
Magnitude (a.u.)       :      0.72815
Magnitude (Debye)      :      1.85082

Rotational constants in cm-1:     0.017975     0.010617     0.007711
Rotational constants in MHz :   538.891756   318.289297   231.170499

                             ****ORCA TERMINATED NORMALLY****
TOTAL RUN TIME: 0 days 0 hours 0 minutes 23 seconds 705 msec
