                         Program Version 4.2.1 -  RELEASE  -
|  1> ! wB97X-D3 SP def2-SVP
|  2> %pal
|  3> nprocs 24
|  4> end
|  5>
|  6> * xyz 0 1
|  7> S 	 -37.7708 	 -50.9505 	 -71.3453
|  8> C 	 -38.3256 	 -50.0722 	 -72.7414
|  9> C 	 -39.4911 	 -49.3839 	 -72.4261
| 10> C 	 -39.917 	 -49.4565 	 -71.0013
| 11> C 	 -39.1471 	 -50.3493 	 -70.2703
| 12> H 	 -40.5853 	 -48.9215 	 -70.4756
| 13> C 	 -40.3529 	 -48.4951 	 -73.4255
| 14> H 	 -39.6877 	 -47.7866 	 -73.9134
| 15> H 	 -41.0278 	 -47.7865 	 -72.8894
| 16> C 	 -41.1017 	 -49.0814 	 -74.6058
| 17> H 	 -41.5953 	 -48.2611 	 -75.1794
| 18> H 	 -40.5159 	 -49.5884 	 -75.2723
| 19> C 	 -42.1861 	 -50.1707 	 -74.1852
| 20> H 	 -42.6202 	 -50.6213 	 -75.1125
| 21> H 	 -41.6311 	 -50.8706 	 -73.5668
| 22> H 	 -42.9342 	 -49.7409 	 -73.5666
| 23> S 	 -38.1594 	 -50.9913 	 -67.8077
| 24> C 	 -39.2023 	 -51.6135 	 -66.5261
| 25> C 	 -40.4279 	 -51.885 	 -67.1055
| 26> C 	 -40.6168 	 -51.4956 	 -68.4432
| 27> C 	 -39.4939 	 -50.8933 	 -68.9481
| 28> H 	 -41.2466 	 -52.393 	 -66.4699
| 29> C 	 -41.9331 	 -51.6323 	 -69.188
| 30> H 	 -42.377 	 -52.5151 	 -68.7503
| 31> H 	 -41.6594 	 -51.9503 	 -70.2139
| 32> C 	 -42.8369 	 -50.4161 	 -69.2262
| 33> H 	 -42.3334 	 -49.5874 	 -69.7593
| 34> H 	 -43.0473 	 -50.0706 	 -68.2013
| 35> C 	 -44.1824 	 -50.7325 	 -69.9811
| 36> H 	 -44.944 	 -51.3626 	 -69.3719
| 37> H 	 -43.9799 	 -51.2782 	 -70.9221
| 38> H 	 -44.5858 	 -49.7927 	 -70.2638
| 39> H 	 -37.7793 	 -50.0765 	 -73.7373
| 40> H 	 -38.9041 	 -51.8521 	 -65.497
| 41> *
| 42>
| 43>                          ****END OF INPUT****

CARTESIAN COORDINATES (ANGSTROEM)
---------------------------------
  S    -37.770800  -50.950500  -71.345300
  C    -38.325600  -50.072200  -72.741400
  C    -39.491100  -49.383900  -72.426100
  C    -39.917000  -49.456500  -71.001300
  C    -39.147100  -50.349300  -70.270300
  H    -40.585300  -48.921500  -70.475600
  C    -40.352900  -48.495100  -73.425500
  H    -39.687700  -47.786600  -73.913400
  H    -41.027800  -47.786500  -72.889400
  C    -41.101700  -49.081400  -74.605800
  H    -41.595300  -48.261100  -75.179400
  H    -40.515900  -49.588400  -75.272300
  C    -42.186100  -50.170700  -74.185200
  H    -42.620200  -50.621300  -75.112500
  H    -41.631100  -50.870600  -73.566800
  H    -42.934200  -49.740900  -73.566600
  S    -38.159400  -50.991300  -67.807700
  C    -39.202300  -51.613500  -66.526100
  C    -40.427900  -51.885000  -67.105500
  C    -40.616800  -51.495600  -68.443200
  C    -39.493900  -50.893300  -68.948100
  H    -41.246600  -52.393000  -66.469900
  C    -41.933100  -51.632300  -69.188000
  H    -42.377000  -52.515100  -68.750300
  H    -41.659400  -51.950300  -70.213900
  C    -42.836900  -50.416100  -69.226200
  H    -42.333400  -49.587400  -69.759300
  H    -43.047300  -50.070600  -68.201300
  C    -44.182400  -50.732500  -69.981100
  H    -44.944000  -51.362600  -69.371900
  H    -43.979900  -51.278200  -70.922100
  H    -44.585800  -49.792700  -70.263800
  H    -37.779300  -50.076500  -73.737300
  H    -38.904100  -51.852100  -65.497000

 Total Charge           Charge          ....    0
 Multiplicity           Mult            ....    1
 Number of Electrons    NEL             ....  134
 Basis Dimension        Dim             ....  322

ORBITAL ENERGIES
----------------

  NO   OCC          E(Eh)            E(eV)
   0   2.0000     -88.966214     -2420.8938
   1   2.0000     -88.964163     -2420.8379
   2   2.0000     -10.340227      -281.3719
   3   2.0000     -10.329479      -281.0794
   4   2.0000     -10.327282      -281.0196
   5   2.0000     -10.323704      -280.9223
   6   2.0000     -10.317843      -280.7628
   7   2.0000     -10.303193      -280.3641
   8   2.0000     -10.300640      -280.2947
   9   2.0000     -10.297764      -280.2164
  10   2.0000     -10.297378      -280.2059
  11   2.0000     -10.294243      -280.1206
  12   2.0000     -10.291789      -280.0538
  13   2.0000     -10.287265      -279.9307
  14   2.0000     -10.283682      -279.8332
  15   2.0000     -10.275063      -279.5987
  16   2.0000      -8.079800      -219.8625
  17   2.0000      -8.078782      -219.8348
  18   2.0000      -6.038593      -164.3185
  19   2.0000      -6.037317      -164.2838
  20   2.0000      -6.034425      -164.2051
  21   2.0000      -6.033220      -164.1723
  22   2.0000      -6.030332      -164.0937
  23   2.0000      -6.029596      -164.0737
  24   2.0000      -1.004778       -27.3414
  25   2.0000      -0.977147       -26.5895
  26   2.0000      -0.909020       -24.7357
  27   2.0000      -0.901670       -24.5357
  28   2.0000      -0.871360       -23.7109
  29   2.0000      -0.849512       -23.1164
  30   2.0000      -0.839417       -22.8417
  31   2.0000      -0.812776       -22.1168
  32   2.0000      -0.779394       -21.2084
  33   2.0000      -0.772015       -21.0076
  34   2.0000      -0.705036       -19.1850
  35   2.0000      -0.697797       -18.9880
  36   2.0000      -0.695936       -18.9374
  37   2.0000      -0.664908       -18.0931
  38   2.0000      -0.648125       -17.6364
  39   2.0000      -0.609578       -16.5875
  40   2.0000      -0.593563       -16.1517
  41   2.0000      -0.568610       -15.4727
  42   2.0000      -0.562005       -15.2929
  43   2.0000      -0.543747       -14.7961
  44   2.0000      -0.535142       -14.5619
  45   2.0000      -0.524550       -14.2737
  46   2.0000      -0.522270       -14.2117
  47   2.0000      -0.517656       -14.0861
  48   2.0000      -0.507268       -13.8035
  49   2.0000      -0.500819       -13.6280
  50   2.0000      -0.484831       -13.1929
  51   2.0000      -0.480267       -13.0687
  52   2.0000      -0.468103       -12.7377
  53   2.0000      -0.462753       -12.5921
  54   2.0000      -0.459603       -12.5064
  55   2.0000      -0.445945       -12.1348
  56   2.0000      -0.441559       -12.0154
  57   2.0000      -0.438465       -11.9312
  58   2.0000      -0.435676       -11.8553
  59   2.0000      -0.423734       -11.5304
  60   2.0000      -0.415614       -11.3094
  61   2.0000      -0.412725       -11.2308
  62   2.0000      -0.408195       -11.1075
  63   2.0000      -0.350931        -9.5493
  64   2.0000      -0.332946        -9.0599
  65   2.0000      -0.327042        -8.8993
  66   2.0000      -0.296838        -8.0774
  67   0.0000       0.023972         0.6523
  68   0.0000       0.061906         1.6846
  69   0.0000       0.109257         2.9730
  70   0.0000       0.118154         3.2151
  71   0.0000       0.119477         3.2511

MULLIKEN ATOMIC CHARGES
-----------------------
   0 S :    0.093892
   1 C :   -0.139780
   2 C :   -0.078369
   3 C :    0.054619
   4 C :   -0.108430
   5 H :   -0.013358
   6 C :    0.038864
   7 H :    0.027437
   8 H :    0.025411
   9 C :   -0.052518
  10 H :    0.032783
  11 H :    0.006291
  12 C :   -0.069579
  13 H :    0.044918
  14 H :    0.039731
  15 H :    0.020088
  16 S :    0.093152
  17 C :   -0.093915
  18 C :   -0.075384
  19 C :   -0.020066
  20 C :   -0.200046
  21 H :    0.043719
  22 C :    0.078977
  23 H :    0.013171
  24 H :    0.032633
  25 C :   -0.059374
  26 H :    0.019931
  27 H :    0.033627
  28 C :   -0.061770
  29 H :    0.052196
  30 H :    0.036300
  31 H :    0.027967
  32 H :    0.087878
  33 H :    0.069002
Sum of atomic charges:   -0.0000000

LOEWDIN ATOMIC CHARGES
----------------------
   0 S :    0.365650
   1 C :   -0.207675
   2 C :   -0.062643
   3 C :   -0.044375
   4 C :   -0.161237
   5 H :    0.010168
   6 C :   -0.040940
   7 H :    0.032349
   8 H :    0.032270
   9 C :   -0.034867
  10 H :    0.029707
  11 H :    0.007432
  12 C :   -0.064887
  13 H :    0.030443
  14 H :    0.024870
  15 H :    0.013746
  16 S :    0.397752
  17 C :   -0.183402
  18 C :   -0.084161
  19 C :   -0.058994
  20 C :   -0.193639
  21 H :    0.043002
  22 C :   -0.032749
  23 H :    0.028799
  24 H :    0.036048
  25 C :   -0.037339
  26 H :    0.024119
  27 H :    0.026714
  28 C :   -0.068425
  29 H :    0.035793
  30 H :    0.027549
  31 H :    0.019666
  32 H :    0.051137
  33 H :    0.038118

  Mayer bond orders larger than 0.100000
B(  0-S ,  1-C ) :   1.1307 B(  0-S ,  4-C ) :   1.1117 B(  1-C ,  2-C ) :   1.6370
B(  1-C , 32-H ) :   0.9611 B(  2-C ,  3-C ) :   1.1829 B(  2-C ,  6-C ) :   1.0005
B(  3-C ,  4-C ) :   1.6085 B(  3-C ,  5-H ) :   1.0102 B(  4-C , 20-C ) :   1.0475
B(  6-C ,  7-H ) :   0.9406 B(  6-C ,  8-H ) :   0.9525 B(  6-C ,  9-C ) :   1.0823
B(  9-C , 10-H ) :   0.9529 B(  9-C , 11-H ) :   0.9583 B(  9-C , 12-C ) :   1.0659
B( 12-C , 13-H ) :   0.9771 B( 12-C , 14-H ) :   0.9779 B( 12-C , 15-H ) :   0.9795
B( 16-S , 17-C ) :   1.1534 B( 16-S , 20-C ) :   1.1413 B( 17-C , 18-C ) :   1.5928
B( 17-C , 20-C ) :   0.1039 B( 17-C , 33-H ) :   0.9692 B( 18-C , 19-C ) :   1.2648
B( 18-C , 21-H ) :   0.9713 B( 19-C , 20-C ) :   1.5759 B( 19-C , 22-C ) :   1.0361
B( 22-C , 23-H ) :   0.9313 B( 22-C , 24-H ) :   0.9210 B( 22-C , 25-C ) :   1.0738
B( 25-C , 26-H ) :   0.9480 B( 25-C , 27-H ) :   0.9533 B( 25-C , 28-C ) :   1.0753
B( 28-C , 29-H ) :   0.9760 B( 28-C , 30-H ) :   0.9734 B( 28-C , 31-H ) :   0.9757

Dispersion correction           -0.015185926
FINAL SINGLE POINT ENERGY     -1339.860478978807

DIPOLE MOMENT
-------------
                                X             Y             Z
Electronic contribution:     28.20206      -4.82778      15.32647
Nuclear contribution   :    -28.82729       4.94463     -15.49400
                        -----------------------------------------
Total Dipole Moment    :     -0.62523       0.11685      -0.16753
                        -----------------------------------------
Magnitude (a.u.)       :      0.65774
Magnitude (Debye)      :      1.67185

Rotational constants in cm-1:     0.018159     0.009934     0.006863
Rotational constants in MHz :   544.385162   297.828800   205.747198

                             ****ORCA TERMINATED NORMALLY****
TOTAL RUN TIME: 0 days 0 hours 0 minutes 21 seconds 82 msec
