                         Program Version 4.2.1 -  RELEASE  -
|  1> ! wB97X-D3 SP def2-SVP
|  2> %pal
|  3> nprocs 24
|  4> end
|  5>
|  6> * xyz 0 1
|  7> S 	 47.0383 	 -19.768 	 -115.074
|  8> C 	 48.7691 	 -20.1872 	 -114.789
|  9> C 	 48.9417 	 -20.5967 	 -113.455
| 10> C 	 47.7264 	 -20.5943 	 -112.689
| 11> C 	 46.6332 	 -20.2564 	 -113.456
| 12> H 	 47.5327 	 -21.0766 	 -111.732
| 13> C 	 50.2386 	 -21.1469 	 -112.959
| 14> H 	 50.2544 	 -21.1581 	 -111.863
| 15> H 	 50.847 	 -20.3203 	 -113.084
| 16> C 	 50.7197 	 -22.4135 	 -113.626
| 17> H 	 50.8026 	 -22.2747 	 -114.755
| 18> H 	 51.7448 	 -22.5164 	 -113.373
| 19> C 	 49.922 	 -23.6616 	 -113.282
| 20> H 	 49.9492 	 -24.0582 	 -112.295
| 21> H 	 48.9362 	 -23.4642 	 -113.514
| 22> H 	 50.1053 	 -24.4648 	 -114.019
| 23> S 	 44.4547 	 -18.7344 	 -112.986
| 24> C 	 43.0554 	 -19.4606 	 -112.396
| 25> C 	 43.2132 	 -20.7695 	 -112.04
| 26> C 	 44.5271 	 -21.2853 	 -112.372
| 27> C 	 45.2717 	 -20.27 	 -112.984
| 28> H 	 42.4277 	 -21.1517 	 -111.455
| 29> C 	 45.0027 	 -22.7129 	 -112.175
| 30> H 	 45.4078 	 -22.8289 	 -111.161
| 31> H 	 45.8537 	 -22.769 	 -112.83
| 32> C 	 43.9075 	 -23.7681 	 -112.463
| 33> H 	 43.4405 	 -23.7122 	 -113.466
| 34> H 	 43.0531 	 -23.6909 	 -111.805
| 35> C 	 44.4399 	 -25.2098 	 -112.587
| 36> H 	 44.9364 	 -25.4416 	 -111.605
| 37> H 	 45.1042 	 -25.3295 	 -113.453
| 38> H 	 43.5907 	 -25.8136 	 -112.658
| 39> H 	 49.5861 	 -20.0584 	 -115.497
| 40> H 	 42.1569 	 -18.9086 	 -112.28
| 41> *
| 42>
| 43>                          ****END OF INPUT****

CARTESIAN COORDINATES (ANGSTROEM)
---------------------------------
  S     47.038300  -19.768000  -115.074000
  C     48.769100  -20.187200  -114.789000
  C     48.941700  -20.596700  -113.455000
  C     47.726400  -20.594300  -112.689000
  C     46.633200  -20.256400  -113.456000
  H     47.532700  -21.076600  -111.732000
  C     50.238600  -21.146900  -112.959000
  H     50.254400  -21.158100  -111.863000
  H     50.847000  -20.320300  -113.084000
  C     50.719700  -22.413500  -113.626000
  H     50.802600  -22.274700  -114.755000
  H     51.744800  -22.516400  -113.373000
  C     49.922000  -23.661600  -113.282000
  H     49.949200  -24.058200  -112.295000
  H     48.936200  -23.464200  -113.514000
  H     50.105300  -24.464800  -114.019000
  S     44.454700  -18.734400  -112.986000
  C     43.055400  -19.460600  -112.396000
  C     43.213200  -20.769500  -112.040000
  C     44.527100  -21.285300  -112.372000
  C     45.271700  -20.270000  -112.984000
  H     42.427700  -21.151700  -111.455000
  C     45.002700  -22.712900  -112.175000
  H     45.407800  -22.828900  -111.161000
  H     45.853700  -22.769000  -112.830000
  C     43.907500  -23.768100  -112.463000
  H     43.440500  -23.712200  -113.466000
  H     43.053100  -23.690900  -111.805000
  C     44.439900  -25.209800  -112.587000
  H     44.936400  -25.441600  -111.605000
  H     45.104200  -25.329500  -113.453000
  H     43.590700  -25.813600  -112.658000
  H     49.586100  -20.058400  -115.497000
  H     42.156900  -18.908600  -112.280000

 Total Charge           Charge          ....    0
 Multiplicity           Mult            ....    1
 Number of Electrons    NEL             ....  134
 Basis Dimension        Dim             ....  322

ORBITAL ENERGIES
----------------

  NO   OCC          E(Eh)            E(eV)
   0   2.0000     -88.966755     -2420.9085
   1   2.0000     -88.960511     -2420.7386
   2   2.0000     -10.323867      -280.9267
   3   2.0000     -10.318609      -280.7836
   4   2.0000     -10.317557      -280.7550
   5   2.0000     -10.306288      -280.4483
   6   2.0000     -10.305100      -280.4160
   7   2.0000     -10.301936      -280.3299
   8   2.0000     -10.294039      -280.1150
   9   2.0000     -10.291701      -280.0514
  10   2.0000     -10.288986      -279.9775
  11   2.0000     -10.286846      -279.9193
  12   2.0000     -10.286760      -279.9170
  13   2.0000     -10.282003      -279.7875
  14   2.0000     -10.277384      -279.6618
  15   2.0000     -10.268984      -279.4333
  16   2.0000      -8.080695      -219.8869
  17   2.0000      -8.077213      -219.7921
  18   2.0000      -6.039232      -164.3358
  19   2.0000      -6.035407      -164.2318
  20   2.0000      -6.035294      -164.2287
  21   2.0000      -6.031578      -164.1276
  22   2.0000      -6.031489      -164.1252
  23   2.0000      -6.028052      -164.0316
  24   2.0000      -1.008842       -27.4520
  25   2.0000      -0.981757       -26.7150
  26   2.0000      -0.917745       -24.9731
  27   2.0000      -0.908548       -24.7228
  28   2.0000      -0.868534       -23.6340
  29   2.0000      -0.854522       -23.2527
  30   2.0000      -0.845222       -22.9997
  31   2.0000      -0.816234       -22.2109
  32   2.0000      -0.789195       -21.4751
  33   2.0000      -0.772485       -21.0204
  34   2.0000      -0.712340       -19.3838
  35   2.0000      -0.701842       -19.0981
  36   2.0000      -0.697339       -18.9756
  37   2.0000      -0.653941       -17.7946
  38   2.0000      -0.637417       -17.3450
  39   2.0000      -0.611600       -16.6425
  40   2.0000      -0.595827       -16.2133
  41   2.0000      -0.573965       -15.6184
  42   2.0000      -0.565103       -15.3772
  43   2.0000      -0.555813       -15.1244
  44   2.0000      -0.543303       -14.7840
  45   2.0000      -0.531219       -14.4552
  46   2.0000      -0.519469       -14.1355
  47   2.0000      -0.514041       -13.9878
  48   2.0000      -0.503724       -13.7070
  49   2.0000      -0.497266       -13.5313
  50   2.0000      -0.487918       -13.2769
  51   2.0000      -0.480697       -13.0804
  52   2.0000      -0.471788       -12.8380
  53   2.0000      -0.466959       -12.7066
  54   2.0000      -0.459561       -12.5053
  55   2.0000      -0.449290       -12.2258
  56   2.0000      -0.441269       -12.0076
  57   2.0000      -0.439479       -11.9588
  58   2.0000      -0.436089       -11.8666
  59   2.0000      -0.429279       -11.6813
  60   2.0000      -0.422332       -11.4922
  61   2.0000      -0.414972       -11.2920
  62   2.0000      -0.405881       -11.0446
  63   2.0000      -0.337574        -9.1859
  64   2.0000      -0.329013        -8.9529
  65   2.0000      -0.326117        -8.8741
  66   2.0000      -0.295162        -8.0318
  67   0.0000       0.034431         0.9369
  68   0.0000       0.070592         1.9209
  69   0.0000       0.113860         3.0983
  70   0.0000       0.119784         3.2595
  71   0.0000       0.132455         3.6043

MULLIKEN ATOMIC CHARGES
-----------------------
   0 S :    0.115069
   1 C :   -0.138152
   2 C :   -0.119091
   3 C :    0.046930
   4 C :   -0.181833
   5 H :    0.019788
   6 C :    0.100601
   7 H :    0.010571
   8 H :    0.007548
   9 C :   -0.046123
  10 H :    0.029063
  11 H :    0.015756
  12 C :   -0.001248
  13 H :    0.031706
  14 H :    0.006611
  15 H :    0.025123
  16 S :    0.121003
  17 C :   -0.080823
  18 C :   -0.034462
  19 C :   -0.027510
  20 C :   -0.181144
  21 H :    0.002783
  22 C :    0.111144
  23 H :    0.039069
  24 H :    0.026155
  25 C :   -0.122253
  26 H :    0.032710
  27 H :    0.030984
  28 C :   -0.031078
  29 H :    0.027247
  30 H :    0.047613
  31 H :    0.022072
  32 H :    0.051987
  33 H :    0.042185
Sum of atomic charges:    0.0000000

LOEWDIN ATOMIC CHARGES
----------------------
   0 S :    0.394558
   1 C :   -0.193098
   2 C :   -0.054616
   3 C :   -0.068566
   4 C :   -0.200370
   5 H :    0.034936
   6 C :   -0.039460
   7 H :    0.032372
   8 H :    0.027654
   9 C :   -0.035453
  10 H :    0.033043
  11 H :    0.018619
  12 C :   -0.061865
  13 H :    0.023025
  14 H :    0.017318
  15 H :    0.033842
  16 S :    0.434855
  17 C :   -0.194992
  18 C :   -0.074071
  19 C :   -0.045029
  20 C :   -0.211339
  21 H :    0.024858
  22 C :   -0.030981
  23 H :    0.034978
  24 H :    0.030887
  25 C :   -0.045017
  26 H :    0.031036
  27 H :    0.020060
  28 C :   -0.058751
  29 H :    0.024861
  30 H :    0.028849
  31 H :    0.018390
  32 H :    0.028691
  33 H :    0.020774

  Mayer bond orders larger than 0.100000
B(  0-S ,  1-C ) :   1.1186 B(  0-S ,  4-C ) :   1.1627 B(  1-C ,  2-C ) :   1.6099
B(  1-C , 32-H ) :   0.9708 B(  2-C ,  3-C ) :   1.2290 B(  2-C ,  6-C ) :   1.0116
B(  3-C ,  4-C ) :   1.5745 B(  3-C ,  5-H ) :   0.9898 B(  4-C , 20-C ) :   1.0245
B(  6-C ,  7-H ) :   0.9367 B(  6-C ,  8-H ) :   0.9187 B(  6-C ,  9-C ) :   1.0796
B(  9-C , 10-H ) :   0.9526 B(  9-C , 11-H ) :   0.9500 B(  9-C , 12-C ) :   1.0728
B( 12-C , 13-H ) :   0.9755 B( 12-C , 14-H ) :   0.9720 B( 12-C , 15-H ) :   0.9670
B( 16-S , 17-C ) :   1.1694 B( 16-S , 20-C ) :   1.1639 B( 17-C , 18-C ) :   1.6194
B( 17-C , 33-H ) :   0.9686 B( 18-C , 19-C ) :   1.2105 B( 18-C , 21-H ) :   1.0002
B( 19-C , 20-C ) :   1.5956 B( 19-C , 22-C ) :   1.0414 B( 22-C , 23-H ) :   0.9210
B( 22-C , 24-H ) :   0.9337 B( 22-C , 25-C ) :   1.0584 B( 25-C , 26-H ) :   0.9610
B( 25-C , 27-H ) :   0.9545 B( 25-C , 28-C ) :   1.0837 B( 28-C , 29-H ) :   0.9738
B( 28-C , 30-H ) :   0.9781 B( 28-C , 31-H ) :   0.9738

Dispersion correction           -0.014584491
FINAL SINGLE POINT ENERGY     -1339.866913125889

DIPOLE MOMENT
-------------
                                X             Y             Z
Electronic contribution:     -9.63976      27.41479      -6.32366
Nuclear contribution   :      9.78446     -27.92719       6.65747
                        -----------------------------------------
Total Dipole Moment    :      0.14470      -0.51240       0.33381
                        -----------------------------------------
Magnitude (a.u.)       :      0.62842
Magnitude (Debye)      :      1.59733

Rotational constants in cm-1:     0.016944     0.009837     0.006898
Rotational constants in MHz :   507.971439   294.904026   206.791830

                             ****ORCA TERMINATED NORMALLY****
TOTAL RUN TIME: 0 days 0 hours 0 minutes 21 seconds 993 msec
