                         Program Version 4.2.1 -  RELEASE  -
|  1> ! wB97X-D3 SP def2-SVP
|  2> %pal
|  3> nprocs 24
|  4> end
|  5>
|  6> * xyz 0 1
|  7> S 	 -56.362 	 5.53923 	 -30.2316
|  8> C 	 -57.8368 	 4.50638 	 -30.3853
|  9> C 	 -58.9373 	 5.18762 	 -29.8522
| 10> C 	 -58.5505 	 6.43265 	 -29.2031
| 11> C 	 -57.198 	 6.71279 	 -29.2894
| 12> H 	 -59.2155 	 7.06498 	 -28.64
| 13> C 	 -60.3485 	 4.68821 	 -29.8283
| 14> H 	 -60.3207 	 4.0422 	 -28.9871
| 15> H 	 -60.442 	 4.09493 	 -30.7172
| 16> C 	 -61.5257 	 5.7652 	 -29.7922
| 17> H 	 -61.449 	 6.4418 	 -28.9677
| 18> H 	 -61.3479 	 6.35111 	 -30.7539
| 19> C 	 -62.8788 	 5.10364 	 -29.6861
| 20> H 	 -63.0845 	 4.40873 	 -30.5216
| 21> H 	 -63.0075 	 4.61346 	 -28.7485
| 22> H 	 -63.6007 	 5.84664 	 -29.7862
| 23> S 	 -54.8503 	 7.19095 	 -27.8865
| 24> C 	 -54.7367 	 8.56397 	 -26.8587
| 25> C 	 -55.7796 	 9.41483 	 -27.0833
| 26> C 	 -56.6763 	 8.98796 	 -28.106
| 27> C 	 -56.4107 	 7.67536 	 -28.4691
| 28> H 	 -55.8292 	 10.2748 	 -26.4102
| 29> C 	 -57.9405 	 9.81674 	 -28.3805
| 30> H 	 -57.9329 	 10.6728 	 -27.6186
| 31> H 	 -58.8204 	 9.17373 	 -28.1479
| 32> C 	 -58.131 	 10.1251 	 -29.876
| 33> H 	 -59.1802 	 10.4354 	 -30.1464
| 34> H 	 -58.0209 	 9.07626 	 -30.2132
| 35> C 	 -57.0282 	 10.9331 	 -30.6114
| 36> H 	 -56.2055 	 10.3044 	 -31.0717
| 37> H 	 -56.6758 	 11.6774 	 -29.9775
| 38> H 	 -57.4969 	 11.523 	 -31.4076
| 39> H 	 -57.9043 	 3.59397 	 -30.928
| 40> H 	 -54.091 	 8.68688 	 -26.0118
| 41> *
| 42>
| 43>                          ****END OF INPUT****

CARTESIAN COORDINATES (ANGSTROEM)
---------------------------------
  S    -56.362000    5.539230  -30.231600
  C    -57.836800    4.506380  -30.385300
  C    -58.937300    5.187620  -29.852200
  C    -58.550500    6.432650  -29.203100
  C    -57.198000    6.712790  -29.289400
  H    -59.215500    7.064980  -28.640000
  C    -60.348500    4.688210  -29.828300
  H    -60.320700    4.042200  -28.987100
  H    -60.442000    4.094930  -30.717200
  C    -61.525700    5.765200  -29.792200
  H    -61.449000    6.441800  -28.967700
  H    -61.347900    6.351110  -30.753900
  C    -62.878800    5.103640  -29.686100
  H    -63.084500    4.408730  -30.521600
  H    -63.007500    4.613460  -28.748500
  H    -63.600700    5.846640  -29.786200
  S    -54.850300    7.190950  -27.886500
  C    -54.736700    8.563970  -26.858700
  C    -55.779600    9.414830  -27.083300
  C    -56.676300    8.987960  -28.106000
  C    -56.410700    7.675360  -28.469100
  H    -55.829200   10.274800  -26.410200
  C    -57.940500    9.816740  -28.380500
  H    -57.932900   10.672800  -27.618600
  H    -58.820400    9.173730  -28.147900
  C    -58.131000   10.125100  -29.876000
  H    -59.180200   10.435400  -30.146400
  H    -58.020900    9.076260  -30.213200
  C    -57.028200   10.933100  -30.611400
  H    -56.205500   10.304400  -31.071700
  H    -56.675800   11.677400  -29.977500
  H    -57.496900   11.523000  -31.407600
  H    -57.904300    3.593970  -30.928000
  H    -54.091000    8.686880  -26.011800

 Total Charge           Charge          ....    0
 Multiplicity           Mult            ....    1
 Number of Electrons    NEL             ....  134
 Basis Dimension        Dim             ....  322

ORBITAL ENERGIES
----------------

  NO   OCC          E(Eh)            E(eV)
   0   2.0000     -88.966043     -2420.8891
   1   2.0000     -88.964973     -2420.8600
   2   2.0000     -10.333298      -281.1833
   3   2.0000     -10.329971      -281.0928
   4   2.0000     -10.315818      -280.7077
   5   2.0000     -10.308603      -280.5114
   6   2.0000     -10.306668      -280.4587
   7   2.0000     -10.302901      -280.3562
   8   2.0000     -10.301199      -280.3099
   9   2.0000     -10.297663      -280.2136
  10   2.0000     -10.295518      -280.1553
  11   2.0000     -10.290494      -280.0186
  12   2.0000     -10.290172      -280.0098
  13   2.0000     -10.287224      -279.9296
  14   2.0000     -10.275456      -279.6094
  15   2.0000     -10.271870      -279.5118
  16   2.0000      -8.080462      -219.8805
  17   2.0000      -8.080322      -219.8767
  18   2.0000      -6.039036      -164.3305
  19   2.0000      -6.038943      -164.3280
  20   2.0000      -6.034834      -164.2162
  21   2.0000      -6.034774      -164.2146
  22   2.0000      -6.031269      -164.1192
  23   2.0000      -6.030971      -164.1111
  24   2.0000      -1.010105       -27.4864
  25   2.0000      -0.983441       -26.7608
  26   2.0000      -0.912809       -24.8388
  27   2.0000      -0.904467       -24.6118
  28   2.0000      -0.871191       -23.7063
  29   2.0000      -0.846926       -23.0460
  30   2.0000      -0.843841       -22.9621
  31   2.0000      -0.817152       -22.2358
  32   2.0000      -0.783786       -21.3279
  33   2.0000      -0.774995       -21.0887
  34   2.0000      -0.714314       -19.4375
  35   2.0000      -0.700023       -19.0486
  36   2.0000      -0.681069       -18.5328
  37   2.0000      -0.658223       -17.9111
  38   2.0000      -0.638130       -17.3644
  39   2.0000      -0.621290       -16.9062
  40   2.0000      -0.585871       -15.9424
  41   2.0000      -0.575323       -15.6553
  42   2.0000      -0.565156       -15.3787
  43   2.0000      -0.548488       -14.9251
  44   2.0000      -0.540822       -14.7165
  45   2.0000      -0.527857       -14.3637
  46   2.0000      -0.518219       -14.1015
  47   2.0000      -0.509446       -13.8627
  48   2.0000      -0.506271       -13.7763
  49   2.0000      -0.502289       -13.6680
  50   2.0000      -0.492538       -13.4026
  51   2.0000      -0.475736       -12.9454
  52   2.0000      -0.473438       -12.8829
  53   2.0000      -0.469552       -12.7772
  54   2.0000      -0.461409       -12.5556
  55   2.0000      -0.453991       -12.3537
  56   2.0000      -0.437131       -11.8949
  57   2.0000      -0.435331       -11.8460
  58   2.0000      -0.430168       -11.7055
  59   2.0000      -0.426445       -11.6042
  60   2.0000      -0.419253       -11.4085
  61   2.0000      -0.414727       -11.2853
  62   2.0000      -0.405548       -11.0355
  63   2.0000      -0.350126        -9.5274
  64   2.0000      -0.331888        -9.0311
  65   2.0000      -0.326685        -8.8896
  66   2.0000      -0.287857        -7.8330
  67   0.0000       0.023367         0.6358
  68   0.0000       0.076231         2.0744
  69   0.0000       0.102424         2.7871
  70   0.0000       0.123491         3.3604
  71   0.0000       0.130029         3.5383

MULLIKEN ATOMIC CHARGES
-----------------------
   0 S :    0.091312
   1 C :   -0.124597
   2 C :   -0.097683
   3 C :    0.019639
   4 C :   -0.117261
   5 H :   -0.001471
   6 C :    0.069772
   7 H :    0.039230
   8 H :    0.021339
   9 C :   -0.116553
  10 H :    0.033308
  11 H :    0.048458
  12 C :    0.003509
  13 H :    0.029448
  14 H :    0.031417
  15 H :    0.017364
  16 S :    0.116927
  17 C :   -0.083340
  18 C :   -0.064247
  19 C :   -0.024876
  20 C :   -0.147410
  21 H :    0.024407
  22 C :    0.041034
  23 H :    0.031962
  24 H :    0.036183
  25 C :   -0.117809
  26 H :    0.038985
  27 H :    0.040783
  28 C :   -0.024419
  29 H :    0.057550
  30 H :    0.013723
  31 H :    0.026013
  32 H :    0.036896
  33 H :    0.050408
Sum of atomic charges:    0.0000000

LOEWDIN ATOMIC CHARGES
----------------------
   0 S :    0.390860
   1 C :   -0.189208
   2 C :   -0.050151
   3 C :   -0.070838
   4 C :   -0.192765
   5 H :    0.023860
   6 C :   -0.032493
   7 H :    0.032348
   8 H :    0.029595
   9 C :   -0.036255
  10 H :    0.018138
  11 H :    0.035478
  12 C :   -0.056699
  13 H :    0.029031
  14 H :    0.025031
  15 H :    0.019961
  16 S :    0.423556
  17 C :   -0.197882
  18 C :   -0.073238
  19 C :   -0.063439
  20 C :   -0.198830
  21 H :    0.034076
  22 C :   -0.034751
  23 H :    0.029146
  24 H :    0.034163
  25 C :   -0.054953
  26 H :    0.027852
  27 H :    0.032675
  28 C :   -0.069638
  29 H :    0.039511
  30 H :    0.014027
  31 H :    0.029762
  32 H :    0.022276
  33 H :    0.029791

  Mayer bond orders larger than 0.100000
B(  0-S ,  1-C ) :   1.1077 B(  0-S ,  4-C ) :   1.1584 B(  1-C ,  2-C ) :   1.6196
B(  1-C , 32-H ) :   0.9767 B(  2-C ,  3-C ) :   1.2346 B(  2-C ,  6-C ) :   1.0081
B(  3-C ,  4-C ) :   1.5648 B(  3-C ,  5-H ) :   0.9881 B(  4-C , 20-C ) :   1.0315
B(  6-C ,  7-H ) :   0.9354 B(  6-C ,  8-H ) :   0.9417 B(  6-C ,  9-C ) :   1.0620
B(  9-C , 10-H ) :   0.9508 B(  9-C , 11-H ) :   0.9592 B(  9-C , 12-C ) :   1.0934
B( 12-C , 13-H ) :   0.9727 B( 12-C , 14-H ) :   0.9730 B( 12-C , 15-H ) :   0.9695
B( 16-S , 17-C ) :   1.1514 B( 16-S , 20-C ) :   1.1559 B( 17-C , 18-C ) :   1.6331
B( 17-C , 33-H ) :   0.9657 B( 18-C , 19-C ) :   1.2258 B( 18-C , 21-H ) :   0.9866
B( 19-C , 20-C ) :   1.5716 B( 19-C , 22-C ) :   1.0308 B( 22-C , 23-H ) :   0.9429
B( 22-C , 24-H ) :   0.9428 B( 22-C , 25-C ) :   1.0453 B( 25-C , 26-H ) :   0.9608
B( 25-C , 27-H ) :   0.9574 B( 25-C , 28-C ) :   1.0624 B( 28-C , 29-H ) :   0.9752
B( 28-C , 30-H ) :   0.9794 B( 28-C , 31-H ) :   0.9748

Dispersion correction           -0.014394394
FINAL SINGLE POINT ENERGY     -1339.863225347010

DIPOLE MOMENT
-------------
                                X             Y             Z
Electronic contribution:     26.02401      -8.59496       4.96187
Nuclear contribution   :    -26.80960       8.69040      -4.73561
                        -----------------------------------------
Total Dipole Moment    :     -0.78559       0.09544       0.22625
                        -----------------------------------------
Magnitude (a.u.)       :      0.82308
Magnitude (Debye)      :      2.09209

Rotational constants in cm-1:     0.018934     0.008616     0.007027
Rotational constants in MHz :   567.636856   258.295161   210.660140

                             ****ORCA TERMINATED NORMALLY****
TOTAL RUN TIME: 0 days 0 hours 0 minutes 20 seconds 844 msec
