                         Program Version 4.2.1 -  RELEASE  -
|  1> ! wB97X-D3 SP def2-SVP
|  2> %pal
|  3> nprocs 24
|  4> end
|  5>
|  6> * xyz 0 1
|  7> S 	 -120.744 	 53.3599 	 -31.8198
|  8> C 	 -120.498 	 52.4107 	 -33.277
|  9> C 	 -120.574 	 51.0646 	 -33.0831
| 10> C 	 -120.862 	 50.8714 	 -31.6869
| 11> C 	 -121.201 	 51.9563 	 -30.9164
| 12> H 	 -120.985 	 49.9425 	 -31.2217
| 13> C 	 -120.478 	 49.9129 	 -34.0856
| 14> H 	 -119.633 	 49.2615 	 -33.8659
| 15> H 	 -120.29 	 50.3169 	 -35.0046
| 16> C 	 -121.731 	 49.0708 	 -34.2477
| 17> H 	 -121.737 	 48.2871 	 -33.4581
| 18> H 	 -122.731 	 49.6089 	 -34.1177
| 19> C 	 -121.77 	 48.3245 	 -35.5195
| 20> H 	 -122.742 	 47.8033 	 -35.7304
| 21> H 	 -121.596 	 49.0412 	 -36.3479
| 22> H 	 -120.95 	 47.6442 	 -35.5396
| 23> S 	 -120.533 	 51.5818 	 -28.3475
| 24> C 	 -121.786 	 51.7036 	 -27.1056
| 25> C 	 -122.985 	 51.9981 	 -27.7128
| 26> C 	 -122.94 	 52.1639 	 -29.1109
| 27> C 	 -121.663 	 51.9911 	 -29.578
| 28> H 	 -123.858 	 52.1578 	 -27.1235
| 29> C 	 -124.055 	 52.5308 	 -30.0424
| 30> H 	 -124.156 	 51.6112 	 -30.6449
| 31> H 	 -123.862 	 53.4436 	 -30.6158
| 32> C 	 -125.439 	 52.47 	 -29.3218
| 33> H 	 -125.61 	 53.1831 	 -28.5506
| 34> H 	 -125.44 	 51.4685 	 -28.8903
| 35> C 	 -126.664 	 52.4307 	 -30.2791
| 36> H 	 -127.679 	 52.3907 	 -29.7368
| 37> H 	 -126.749 	 51.5741 	 -30.9405
| 38> H 	 -126.681 	 53.309 	 -30.9317
| 39> H 	 -120.285 	 52.9772 	 -34.1633
| 40> H 	 -121.724 	 51.6102 	 -26.059
| 41> *
| 42>
| 43>                          ****END OF INPUT****

CARTESIAN COORDINATES (ANGSTROEM)
---------------------------------
  S    -120.744000   53.359900  -31.819800
  C    -120.498000   52.410700  -33.277000
  C    -120.574000   51.064600  -33.083100
  C    -120.862000   50.871400  -31.686900
  C    -121.201000   51.956300  -30.916400
  H    -120.985000   49.942500  -31.221700
  C    -120.478000   49.912900  -34.085600
  H    -119.633000   49.261500  -33.865900
  H    -120.290000   50.316900  -35.004600
  C    -121.731000   49.070800  -34.247700
  H    -121.737000   48.287100  -33.458100
  H    -122.731000   49.608900  -34.117700
  C    -121.770000   48.324500  -35.519500
  H    -122.742000   47.803300  -35.730400
  H    -121.596000   49.041200  -36.347900
  H    -120.950000   47.644200  -35.539600
  S    -120.533000   51.581800  -28.347500
  C    -121.786000   51.703600  -27.105600
  C    -122.985000   51.998100  -27.712800
  C    -122.940000   52.163900  -29.110900
  C    -121.663000   51.991100  -29.578000
  H    -123.858000   52.157800  -27.123500
  C    -124.055000   52.530800  -30.042400
  H    -124.156000   51.611200  -30.644900
  H    -123.862000   53.443600  -30.615800
  C    -125.439000   52.470000  -29.321800
  H    -125.610000   53.183100  -28.550600
  H    -125.440000   51.468500  -28.890300
  C    -126.664000   52.430700  -30.279100
  H    -127.679000   52.390700  -29.736800
  H    -126.749000   51.574100  -30.940500
  H    -126.681000   53.309000  -30.931700
  H    -120.285000   52.977200  -34.163300
  H    -121.724000   51.610200  -26.059000

 Total Charge           Charge          ....    0
 Multiplicity           Mult            ....    1
 Number of Electrons    NEL             ....  134
 Basis Dimension        Dim             ....  322

ORBITAL ENERGIES
----------------

  NO   OCC          E(Eh)            E(eV)
   0   2.0000     -88.965401     -2420.8716
   1   2.0000     -88.959159     -2420.7018
   2   2.0000     -10.318737      -280.7871
   3   2.0000     -10.314027      -280.6590
   4   2.0000     -10.313103      -280.6338
   5   2.0000     -10.312579      -280.6195
   6   2.0000     -10.303643      -280.3764
   7   2.0000     -10.296249      -280.1752
   8   2.0000     -10.293497      -280.1003
   9   2.0000     -10.291154      -280.0365
  10   2.0000     -10.288205      -279.9563
  11   2.0000     -10.287884      -279.9476
  12   2.0000     -10.287384      -279.9339
  13   2.0000     -10.285890      -279.8933
  14   2.0000     -10.283175      -279.8194
  15   2.0000     -10.278390      -279.6892
  16   2.0000      -8.080136      -219.8717
  17   2.0000      -8.074589      -219.7207
  18   2.0000      -6.038700      -164.3214
  19   2.0000      -6.034492      -164.2069
  20   2.0000      -6.033050      -164.1676
  21   2.0000      -6.030986      -164.1115
  22   2.0000      -6.029046      -164.0587
  23   2.0000      -6.025322      -163.9573
  24   2.0000      -1.013052       -27.5665
  25   2.0000      -0.987631       -26.8748
  26   2.0000      -0.921509       -25.0755
  27   2.0000      -0.908588       -24.7239
  28   2.0000      -0.878525       -23.9059
  29   2.0000      -0.849332       -23.1115
  30   2.0000      -0.847128       -23.0515
  31   2.0000      -0.815539       -22.1919
  32   2.0000      -0.786626       -21.4052
  33   2.0000      -0.771454       -20.9923
  34   2.0000      -0.707053       -19.2399
  35   2.0000      -0.705785       -19.2054
  36   2.0000      -0.690793       -18.7974
  37   2.0000      -0.658115       -17.9082
  38   2.0000      -0.647999       -17.6330
  39   2.0000      -0.620193       -16.8763
  40   2.0000      -0.596248       -16.2247
  41   2.0000      -0.578858       -15.7515
  42   2.0000      -0.578105       -15.7310
  43   2.0000      -0.563404       -15.3310
  44   2.0000      -0.531413       -14.4605
  45   2.0000      -0.525444       -14.2981
  46   2.0000      -0.515924       -14.0390
  47   2.0000      -0.513129       -13.9629
  48   2.0000      -0.506409       -13.7801
  49   2.0000      -0.503084       -13.6896
  50   2.0000      -0.490603       -13.3500
  51   2.0000      -0.477990       -13.0068
  52   2.0000      -0.468540       -12.7496
  53   2.0000      -0.467152       -12.7118
  54   2.0000      -0.461987       -12.5713
  55   2.0000      -0.449278       -12.2255
  56   2.0000      -0.446590       -12.1523
  57   2.0000      -0.435135       -11.8406
  58   2.0000      -0.431790       -11.7496
  59   2.0000      -0.423111       -11.5134
  60   2.0000      -0.418624       -11.3913
  61   2.0000      -0.417717       -11.3666
  62   2.0000      -0.412259       -11.2181
  63   2.0000      -0.336554        -9.1581
  64   2.0000      -0.327099        -8.9008
  65   2.0000      -0.324841        -8.8394
  66   2.0000      -0.306430        -8.3384
  67   0.0000       0.043952         1.1960
  68   0.0000       0.060807         1.6546
  69   0.0000       0.115790         3.1508
  70   0.0000       0.129230         3.5165
  71   0.0000       0.136168         3.7053

MULLIKEN ATOMIC CHARGES
-----------------------
   0 S :    0.097824
   1 C :   -0.145073
   2 C :   -0.056994
   3 C :    0.049236
   4 C :   -0.194712
   5 H :   -0.017696
   6 C :    0.158581
   7 H :    0.037079
   8 H :   -0.022024
   9 C :   -0.108681
  10 H :    0.027100
  11 H :    0.045706
  12 C :   -0.051925
  13 H :    0.048689
  14 H :    0.024076
  15 H :    0.020699
  16 S :    0.128036
  17 C :   -0.057845
  18 C :   -0.050602
  19 C :   -0.040519
  20 C :   -0.176846
  21 H :    0.005824
  22 C :    0.118895
  23 H :    0.036343
  24 H :    0.053256
  25 C :   -0.104420
  26 H :    0.036661
  27 H :    0.031189
  28 C :   -0.065696
  29 H :    0.039034
  30 H :    0.027753
  31 H :    0.030435
  32 H :    0.042487
  33 H :    0.034129
Sum of atomic charges:   -0.0000000

LOEWDIN ATOMIC CHARGES
----------------------
   0 S :    0.400628
   1 C :   -0.180351
   2 C :   -0.059863
   3 C :   -0.051854
   4 C :   -0.207167
   5 H :    0.016435
   6 C :   -0.018287
   7 H :    0.039290
   8 H :    0.014966
   9 C :   -0.051774
  10 H :    0.023950
  11 H :    0.032995
  12 C :   -0.066491
  13 H :    0.035127
  14 H :    0.023446
  15 H :    0.018961
  16 S :    0.422686
  17 C :   -0.177751
  18 C :   -0.069245
  19 C :   -0.057705
  20 C :   -0.216702
  21 H :    0.026289
  22 C :   -0.028490
  23 H :    0.046807
  24 H :    0.033868
  25 C :   -0.041066
  26 H :    0.016661
  27 H :    0.027952
  28 C :   -0.074533
  29 H :    0.034958
  30 H :    0.020956
  31 H :    0.021876
  32 H :    0.019997
  33 H :    0.023430

  Mayer bond orders larger than 0.100000
B(  0-S ,  1-C ) :   1.1524 B(  0-S ,  4-C ) :   1.1323 B(  1-C ,  2-C ) :   1.6139
B(  1-C , 32-H ) :   0.9716 B(  2-C ,  3-C ) :   1.2137 B(  2-C ,  6-C ) :   1.0289
B(  3-C ,  4-C ) :   1.6194 B(  3-C ,  5-H ) :   1.0008 B(  4-C , 20-C ) :   1.0246
B(  6-C ,  7-H ) :   0.9263 B(  6-C ,  8-H ) :   0.9344 B(  6-C ,  9-C ) :   1.0539
B(  9-C , 10-H ) :   0.9473 B(  9-C , 11-H ) :   0.9598 B(  9-C , 12-C ) :   1.0954
B( 12-C , 13-H ) :   0.9723 B( 12-C , 14-H ) :   0.9733 B( 12-C , 15-H ) :   0.9714
B( 16-S , 17-C ) :   1.1479 B( 16-S , 20-C ) :   1.1618 B( 17-C , 18-C ) :   1.5959
B( 17-C , 20-C ) :   0.1048 B( 17-C , 33-H ) :   0.9689 B( 18-C , 19-C ) :   1.2686
B( 18-C , 21-H ) :   0.9879 B( 19-C , 20-C ) :   1.5934 B( 19-C , 22-C ) :   1.0288
B( 22-C , 23-H ) :   0.9196 B( 22-C , 24-H ) :   0.9337 B( 22-C , 25-C ) :   1.0696
B( 25-C , 26-H ) :   0.9555 B( 25-C , 27-H ) :   0.9554 B( 25-C , 28-C ) :   1.0786
B( 28-C , 29-H ) :   0.9741 B( 28-C , 30-H ) :   0.9765 B( 28-C , 31-H ) :   0.9754

Dispersion correction           -0.013641028
FINAL SINGLE POINT ENERGY     -1339.869074359745

DIPOLE MOMENT
-------------
                                X             Y             Z
Electronic contribution:     19.80093      12.05182      15.16453
Nuclear contribution   :    -20.22048     -12.44013     -15.42045
                        -----------------------------------------
Total Dipole Moment    :     -0.41954      -0.38831      -0.25593
                        -----------------------------------------
Magnitude (a.u.)       :      0.62634
Magnitude (Debye)      :      1.59203

Rotational constants in cm-1:     0.016696     0.008253     0.006858
Rotational constants in MHz :   500.522757   247.406835   205.608901

                             ****ORCA TERMINATED NORMALLY****
TOTAL RUN TIME: 0 days 0 hours 0 minutes 20 seconds 50 msec
