                         Program Version 4.2.1 -  RELEASE  -
|  1> ! wB97X-D3 SP def2-SVP
|  2> %pal
|  3> nprocs 24
|  4> end
|  5>
|  6> * xyz 0 1
|  7> S 	 -107.359 	 28.0392 	 -118.803
|  8> C 	 -106.853 	 29.298 	 -117.601
|  9> C 	 -106.607 	 30.5036 	 -118.216
| 10> C 	 -106.811 	 30.4833 	 -119.642
| 11> C 	 -107.238 	 29.2235 	 -120.053
| 12> H 	 -106.523 	 31.202 	 -120.412
| 13> C 	 -106.013 	 31.736 	 -117.614
| 14> H 	 -106.13 	 32.4656 	 -118.426
| 15> H 	 -104.958 	 31.5603 	 -117.531
| 16> C 	 -106.614 	 32.2212 	 -116.256
| 17> H 	 -107.702 	 32.1817 	 -116.286
| 18> H 	 -106.235 	 31.4081 	 -115.677
| 19> C 	 -106.123 	 33.6741 	 -115.771
| 20> H 	 -105.029 	 33.7804 	 -115.738
| 21> H 	 -106.411 	 34.4637 	 -116.507
| 22> H 	 -106.685 	 33.8755 	 -114.881
| 23> S 	 -106.035 	 27.8541 	 -122.127
| 24> C 	 -106.634 	 28.0707 	 -123.767
| 25> C 	 -107.595 	 29.1205 	 -123.841
| 26> C 	 -107.994 	 29.5307 	 -122.559
| 27> C 	 -107.295 	 28.9296 	 -121.457
| 28> H 	 -107.928 	 29.4562 	 -124.847
| 29> C 	 -109.169 	 30.5348 	 -122.343
| 30> H 	 -109.156 	 31.1357 	 -123.216
| 31> H 	 -108.834 	 31.2624 	 -121.545
| 32> C 	 -110.614 	 30.0539 	 -122.023
| 33> H 	 -110.972 	 29.4789 	 -122.899
| 34> H 	 -111.253 	 30.9279 	 -122.137
| 35> C 	 -110.587 	 29.234 	 -120.722
| 36> H 	 -111.644 	 29.0451 	 -120.446
| 37> H 	 -110.083 	 29.6212 	 -119.899
| 38> H 	 -110.208 	 28.2417 	 -120.907
| 39> H 	 -106.664 	 29.1933 	 -116.567
| 40> H 	 -106.365 	 27.5688 	 -124.683
| 41> *
| 42>
| 43>                          ****END OF INPUT****

CARTESIAN COORDINATES (ANGSTROEM)
---------------------------------
  S    -107.359000   28.039200  -118.803000
  C    -106.853000   29.298000  -117.601000
  C    -106.607000   30.503600  -118.216000
  C    -106.811000   30.483300  -119.642000
  C    -107.238000   29.223500  -120.053000
  H    -106.523000   31.202000  -120.412000
  C    -106.013000   31.736000  -117.614000
  H    -106.130000   32.465600  -118.426000
  H    -104.958000   31.560300  -117.531000
  C    -106.614000   32.221200  -116.256000
  H    -107.702000   32.181700  -116.286000
  H    -106.235000   31.408100  -115.677000
  C    -106.123000   33.674100  -115.771000
  H    -105.029000   33.780400  -115.738000
  H    -106.411000   34.463700  -116.507000
  H    -106.685000   33.875500  -114.881000
  S    -106.035000   27.854100  -122.127000
  C    -106.634000   28.070700  -123.767000
  C    -107.595000   29.120500  -123.841000
  C    -107.994000   29.530700  -122.559000
  C    -107.295000   28.929600  -121.457000
  H    -107.928000   29.456200  -124.847000
  C    -109.169000   30.534800  -122.343000
  H    -109.156000   31.135700  -123.216000
  H    -108.834000   31.262400  -121.545000
  C    -110.614000   30.053900  -122.023000
  H    -110.972000   29.478900  -122.899000
  H    -111.253000   30.927900  -122.137000
  C    -110.587000   29.234000  -120.722000
  H    -111.644000   29.045100  -120.446000
  H    -110.083000   29.621200  -119.899000
  H    -110.208000   28.241700  -120.907000
  H    -106.664000   29.193300  -116.567000
  H    -106.365000   27.568800  -124.683000

 Total Charge           Charge          ....    0
 Multiplicity           Mult            ....    1
 Number of Electrons    NEL             ....  134
 Basis Dimension        Dim             ....  322

ORBITAL ENERGIES
----------------

  NO   OCC          E(Eh)            E(eV)
   0   2.0000     -88.973676     -2421.0968
   1   2.0000     -88.968072     -2420.9443
   2   2.0000     -10.328121      -281.0425
   3   2.0000     -10.327832      -281.0346
   4   2.0000     -10.319522      -280.8085
   5   2.0000     -10.314674      -280.6765
   6   2.0000     -10.307715      -280.4872
   7   2.0000     -10.301612      -280.3211
   8   2.0000     -10.298675      -280.2412
   9   2.0000     -10.295357      -280.1509
  10   2.0000     -10.294101      -280.1167
  11   2.0000     -10.289585      -279.9939
  12   2.0000     -10.289292      -279.9859
  13   2.0000     -10.287469      -279.9363
  14   2.0000     -10.286916      -279.9212
  15   2.0000     -10.265879      -279.3488
  16   2.0000      -8.087292      -220.0664
  17   2.0000      -8.081570      -219.9107
  18   2.0000      -6.045935      -164.5183
  19   2.0000      -6.042004      -164.4113
  20   2.0000      -6.040065      -164.3585
  21   2.0000      -6.037923      -164.3003
  22   2.0000      -6.036119      -164.2511
  23   2.0000      -6.032559      -164.1543
  24   2.0000      -1.002417       -27.2771
  25   2.0000      -0.974904       -26.5285
  26   2.0000      -0.910371       -24.7725
  27   2.0000      -0.896776       -24.4025
  28   2.0000      -0.864718       -23.5302
  29   2.0000      -0.849293       -23.1104
  30   2.0000      -0.841727       -22.9046
  31   2.0000      -0.805625       -21.9222
  32   2.0000      -0.783102       -21.3093
  33   2.0000      -0.770545       -20.9676
  34   2.0000      -0.718308       -19.5462
  35   2.0000      -0.704317       -19.1655
  36   2.0000      -0.690690       -18.7946
  37   2.0000      -0.654385       -17.8067
  38   2.0000      -0.639838       -17.4109
  39   2.0000      -0.609009       -16.5720
  40   2.0000      -0.580315       -15.7912
  41   2.0000      -0.565717       -15.3939
  42   2.0000      -0.562262       -15.2999
  43   2.0000      -0.543466       -14.7885
  44   2.0000      -0.533393       -14.5144
  45   2.0000      -0.529847       -14.4179
  46   2.0000      -0.516997       -14.0682
  47   2.0000      -0.507934       -13.8216
  48   2.0000      -0.502272       -13.6675
  49   2.0000      -0.498005       -13.5514
  50   2.0000      -0.492051       -13.3894
  51   2.0000      -0.477304       -12.9881
  52   2.0000      -0.468715       -12.7544
  53   2.0000      -0.459215       -12.4959
  54   2.0000      -0.455901       -12.4057
  55   2.0000      -0.452270       -12.3069
  56   2.0000      -0.449113       -12.2210
  57   2.0000      -0.443924       -12.0798
  58   2.0000      -0.425527       -11.5792
  59   2.0000      -0.423938       -11.5359
  60   2.0000      -0.413985       -11.2651
  61   2.0000      -0.412203       -11.2166
  62   2.0000      -0.405209       -11.0263
  63   2.0000      -0.338087        -9.1998
  64   2.0000      -0.330445        -8.9919
  65   2.0000      -0.329394        -8.9633
  66   2.0000      -0.290340        -7.9005
  67   0.0000       0.023730         0.6457
  68   0.0000       0.061307         1.6682
  69   0.0000       0.105322         2.8659
  70   0.0000       0.114419         3.1135
  71   0.0000       0.125640         3.4188

MULLIKEN ATOMIC CHARGES
-----------------------
   0 S :    0.123054
   1 C :   -0.115242
   2 C :   -0.083457
   3 C :    0.020209
   4 C :   -0.171011
   5 H :    0.039237
   6 C :    0.062145
   7 H :    0.013529
   8 H :    0.042207
   9 C :   -0.094347
  10 H :    0.040826
  11 H :    0.029265
  12 C :   -0.047127
  13 H :    0.040805
  14 H :    0.034733
  15 H :    0.043722
  16 S :    0.115251
  17 C :   -0.098894
  18 C :   -0.064081
  19 C :   -0.041098
  20 C :   -0.160691
  21 H :    0.036301
  22 C :    0.040487
  23 H :   -0.001640
  24 H :    0.025703
  25 C :   -0.034110
  26 H :    0.020391
  27 H :    0.026695
  28 C :   -0.019737
  29 H :    0.025711
  30 H :    0.034900
  31 H :    0.034175
  32 H :    0.028191
  33 H :    0.053896
Sum of atomic charges:    0.0000000

LOEWDIN ATOMIC CHARGES
----------------------
   0 S :    0.401627
   1 C :   -0.185627
   2 C :   -0.055746
   3 C :   -0.056614
   4 C :   -0.205507
   5 H :    0.039627
   6 C :   -0.034952
   7 H :    0.025101
   8 H :    0.033303
   9 C :   -0.035030
  10 H :    0.026440
  11 H :    0.019821
  12 C :   -0.065780
  13 H :    0.028612
  14 H :    0.030462
  15 H :    0.026528
  16 S :    0.400445
  17 C :   -0.189598
  18 C :   -0.077809
  19 C :   -0.056518
  20 C :   -0.198049
  21 H :    0.040166
  22 C :   -0.037901
  23 H :    0.017996
  24 H :    0.031034
  25 C :   -0.037430
  26 H :    0.026307
  27 H :    0.024689
  28 C :   -0.060106
  29 H :    0.029595
  30 H :    0.016871
  31 H :    0.028830
  32 H :    0.020224
  33 H :    0.028992

  Mayer bond orders larger than 0.100000
B(  0-S ,  1-C ) :   1.1013 B(  0-S ,  4-C ) :   1.1534 B(  1-C ,  2-C ) :   1.6376
B(  1-C , 32-H ) :   0.9744 B(  2-C ,  3-C ) :   1.2232 B(  2-C ,  6-C ) :   1.0158
B(  3-C ,  4-C ) :   1.5807 B(  3-C ,  5-H ) :   0.9813 B(  4-C , 20-C ) :   1.0501
B(  6-C ,  7-H ) :   0.9428 B(  6-C ,  8-H ) :   0.9346 B(  6-C ,  9-C ) :   1.0414
B(  9-C , 10-H ) :   0.9670 B(  9-C , 11-H ) :   0.9571 B(  9-C , 12-C ) :   1.0733
B( 12-C , 13-H ) :   0.9763 B( 12-C , 14-H ) :   0.9765 B( 12-C , 15-H ) :   0.9772
B( 16-S , 17-C ) :   1.1762 B( 16-S , 20-C ) :   1.1397 B( 17-C , 18-C ) :   1.5705
B( 17-C , 20-C ) :   0.1210 B( 17-C , 33-H ) :   0.9661 B( 18-C , 19-C ) :   1.2915
B( 18-C , 21-H ) :   0.9850 B( 19-C , 20-C ) :   1.5385 B( 19-C , 22-C ) :   1.0273
B( 22-C , 23-H ) :   0.9311 B( 22-C , 24-H ) :   0.9375 B( 22-C , 25-C ) :   1.0737
B( 25-C , 26-H ) :   0.9524 B( 25-C , 27-H ) :   0.9551 B( 25-C , 28-C ) :   1.0676
B( 28-C , 29-H ) :   0.9712 B( 28-C , 30-H ) :   0.9786 B( 28-C , 31-H ) :   0.9694

Dispersion correction           -0.015160384
FINAL SINGLE POINT ENERGY     -1339.853443154720

DIPOLE MOMENT
-------------
                                X             Y             Z
Electronic contribution:      9.37189     -20.92989      -9.98194
Nuclear contribution   :     -9.35288      21.54010       9.97384
                        -----------------------------------------
Total Dipole Moment    :      0.01901       0.61022      -0.00810
                        -----------------------------------------
Magnitude (a.u.)       :      0.61057
Magnitude (Debye)      :      1.55194

Rotational constants in cm-1:     0.021043     0.007742     0.007029
Rotational constants in MHz :   630.863980   232.090444   210.729989

                             ****ORCA TERMINATED NORMALLY****
TOTAL RUN TIME: 0 days 0 hours 0 minutes 20 seconds 891 msec
