                         Program Version 4.2.1 -  RELEASE  -
|  1> ! wB97X-D3 SP def2-SVP
|  2> %pal
|  3> nprocs 24
|  4> end
|  5>
|  6> * xyz 0 1
|  7> S 	 -121.129 	 54.2965 	 -38.4268
|  8> C 	 -119.683 	 53.3301 	 -38.0851
|  9> C 	 -118.865 	 54.055 	 -37.228
| 10> C 	 -119.292 	 55.3785 	 -37.0416
| 11> C 	 -120.509 	 55.7315 	 -37.6342
| 12> H 	 -118.912 	 56.0318 	 -36.2424
| 13> C 	 -117.753 	 53.4719 	 -36.4586
| 14> H 	 -117.933 	 52.4336 	 -36.4535
| 15> H 	 -117.816 	 53.8298 	 -35.4303
| 16> C 	 -116.35 	 53.7585 	 -36.9626
| 17> H 	 -115.66 	 53.1945 	 -36.3919
| 18> H 	 -116.246 	 53.2926 	 -38.0082
| 19> C 	 -115.975 	 55.2714 	 -36.934
| 20> H 	 -116.031 	 55.6228 	 -35.8988
| 21> H 	 -114.943 	 55.5267 	 -37.2072
| 22> H 	 -116.621 	 55.8867 	 -37.5585
| 23> S 	 -122.932 	 56.9154 	 -37.0248
| 24> C 	 -123.031 	 58.7208 	 -37.3167
| 25> C 	 -121.773 	 59.2474 	 -37.593
| 26> C 	 -120.754 	 58.287 	 -37.7278
| 27> C 	 -121.223 	 56.9767 	 -37.5098
| 28> H 	 -121.746 	 60.2837 	 -37.8012
| 29> C 	 -119.413 	 58.7165 	 -38.301
| 30> H 	 -119.593 	 59.669 	 -38.8163
| 31> H 	 -119.143 	 58.0487 	 -39.1169
| 32> C 	 -118.313 	 58.9825 	 -37.1673
| 33> H 	 -117.99 	 58.0984 	 -36.6058
| 34> H 	 -118.853 	 59.5062 	 -36.3488
| 35> C 	 -117.104 	 59.8466 	 -37.7204
| 36> H 	 -117.492 	 60.7921 	 -38.1469
| 37> H 	 -116.683 	 59.3258 	 -38.5725
| 38> H 	 -116.45 	 59.9448 	 -36.9397
| 39> H 	 -119.551 	 52.2379 	 -38.1811
| 40> H 	 -123.965 	 59.2114 	 -37.2202
| 41> *
| 42>
| 43>                          ****END OF INPUT****

CARTESIAN COORDINATES (ANGSTROEM)
---------------------------------
  S    -121.129000   54.296500  -38.426800
  C    -119.683000   53.330100  -38.085100
  C    -118.865000   54.055000  -37.228000
  C    -119.292000   55.378500  -37.041600
  C    -120.509000   55.731500  -37.634200
  H    -118.912000   56.031800  -36.242400
  C    -117.753000   53.471900  -36.458600
  H    -117.933000   52.433600  -36.453500
  H    -117.816000   53.829800  -35.430300
  C    -116.350000   53.758500  -36.962600
  H    -115.660000   53.194500  -36.391900
  H    -116.246000   53.292600  -38.008200
  C    -115.975000   55.271400  -36.934000
  H    -116.031000   55.622800  -35.898800
  H    -114.943000   55.526700  -37.207200
  H    -116.621000   55.886700  -37.558500
  S    -122.932000   56.915400  -37.024800
  C    -123.031000   58.720800  -37.316700
  C    -121.773000   59.247400  -37.593000
  C    -120.754000   58.287000  -37.727800
  C    -121.223000   56.976700  -37.509800
  H    -121.746000   60.283700  -37.801200
  C    -119.413000   58.716500  -38.301000
  H    -119.593000   59.669000  -38.816300
  H    -119.143000   58.048700  -39.116900
  C    -118.313000   58.982500  -37.167300
  H    -117.990000   58.098400  -36.605800
  H    -118.853000   59.506200  -36.348800
  C    -117.104000   59.846600  -37.720400
  H    -117.492000   60.792100  -38.146900
  H    -116.683000   59.325800  -38.572500
  H    -116.450000   59.944800  -36.939700
  H    -119.551000   52.237900  -38.181100
  H    -123.965000   59.211400  -37.220200

 Total Charge           Charge          ....    0
 Multiplicity           Mult            ....    1
 Number of Electrons    NEL             ....  134
 Basis Dimension        Dim             ....  322

ORBITAL ENERGIES
----------------

  NO   OCC          E(Eh)            E(eV)
   0   2.0000     -88.967746     -2420.9355
   1   2.0000     -88.966905     -2420.9125
   2   2.0000     -10.331878      -281.1447
   3   2.0000     -10.330227      -281.0998
   4   2.0000     -10.323245      -280.9098
   5   2.0000     -10.316442      -280.7247
   6   2.0000     -10.306320      -280.4492
   7   2.0000     -10.297226      -280.2018
   8   2.0000     -10.295742      -280.1614
   9   2.0000     -10.295360      -280.1510
  10   2.0000     -10.294932      -280.1394
  11   2.0000     -10.290985      -280.0319
  12   2.0000     -10.290162      -280.0095
  13   2.0000     -10.284447      -279.8540
  14   2.0000     -10.280159      -279.7374
  15   2.0000     -10.277961      -279.6775
  16   2.0000      -8.080936      -219.8934
  17   2.0000      -8.080848      -219.8911
  18   2.0000      -6.039461      -164.3421
  19   2.0000      -6.039433      -164.3413
  20   2.0000      -6.035810      -164.2427
  21   2.0000      -6.035389      -164.2313
  22   2.0000      -6.031640      -164.1293
  23   2.0000      -6.031617      -164.1287
  24   2.0000      -1.002695       -27.2847
  25   2.0000      -0.978893       -26.6370
  26   2.0000      -0.916565       -24.9410
  27   2.0000      -0.896661       -24.3994
  28   2.0000      -0.868847       -23.6425
  29   2.0000      -0.847960       -23.0742
  30   2.0000      -0.841060       -22.8864
  31   2.0000      -0.814713       -22.1695
  32   2.0000      -0.784534       -21.3483
  33   2.0000      -0.770271       -20.9601
  34   2.0000      -0.710648       -19.3377
  35   2.0000      -0.703828       -19.1521
  36   2.0000      -0.699470       -19.0335
  37   2.0000      -0.666152       -18.1269
  38   2.0000      -0.635623       -17.2962
  39   2.0000      -0.616108       -16.7652
  40   2.0000      -0.594209       -16.1692
  41   2.0000      -0.573671       -15.6104
  42   2.0000      -0.557885       -15.1808
  43   2.0000      -0.547732       -14.9045
  44   2.0000      -0.543818       -14.7980
  45   2.0000      -0.528343       -14.3769
  46   2.0000      -0.514351       -13.9962
  47   2.0000      -0.507106       -13.7991
  48   2.0000      -0.503600       -13.7036
  49   2.0000      -0.496666       -13.5150
  50   2.0000      -0.494744       -13.4627
  51   2.0000      -0.481395       -13.0994
  52   2.0000      -0.466347       -12.6899
  53   2.0000      -0.462908       -12.5964
  54   2.0000      -0.458400       -12.4737
  55   2.0000      -0.449283       -12.2256
  56   2.0000      -0.441294       -12.0082
  57   2.0000      -0.440267       -11.9803
  58   2.0000      -0.430305       -11.7092
  59   2.0000      -0.428120       -11.6497
  60   2.0000      -0.420786       -11.4502
  61   2.0000      -0.417151       -11.3513
  62   2.0000      -0.412678       -11.2295
  63   2.0000      -0.346969        -9.4415
  64   2.0000      -0.333352        -9.0710
  65   2.0000      -0.328722        -8.9450
  66   2.0000      -0.287136        -7.8134
  67   0.0000       0.017806         0.4845
  68   0.0000       0.068214         1.8562
  69   0.0000       0.100383         2.7316
  70   0.0000       0.116215         3.1624
  71   0.0000       0.126766         3.4495

MULLIKEN ATOMIC CHARGES
-----------------------
   0 S :    0.106833
   1 C :   -0.121616
   2 C :   -0.115559
   3 C :    0.018468
   4 C :   -0.151979
   5 H :    0.028628
   6 C :    0.084265
   7 H :    0.002240
   8 H :    0.027460
   9 C :   -0.049516
  10 H :    0.020459
  11 H :    0.030887
  12 C :   -0.067740
  13 H :    0.021474
  14 H :    0.033534
  15 H :    0.049557
  16 S :    0.090532
  17 C :   -0.100016
  18 C :   -0.008669
  19 C :   -0.023456
  20 C :   -0.159790
  21 H :    0.013231
  22 C :    0.070518
  23 H :    0.013122
  24 H :    0.042221
  25 C :   -0.110473
  26 H :    0.026567
  27 H :    0.027787
  28 C :   -0.003520
  29 H :    0.033331
  30 H :    0.032358
  31 H :    0.027248
  32 H :    0.060421
  33 H :    0.051190
Sum of atomic charges:   -0.0000000

LOEWDIN ATOMIC CHARGES
----------------------
   0 S :    0.403276
   1 C :   -0.203240
   2 C :   -0.065691
   3 C :   -0.070370
   4 C :   -0.195641
   5 H :    0.032898
   6 C :   -0.029834
   7 H :    0.024793
   8 H :    0.033393
   9 C :   -0.035594
  10 H :    0.017184
  11 H :    0.030058
  12 C :   -0.070373
  13 H :    0.023490
  14 H :    0.028043
  15 H :    0.025806
  16 S :    0.361769
  17 C :   -0.149133
  18 C :   -0.061435
  19 C :   -0.054483
  20 C :   -0.188150
  21 H :    0.029451
  22 C :   -0.027799
  23 H :    0.030240
  24 H :    0.033101
  25 C :   -0.039577
  26 H :    0.019040
  27 H :    0.025297
  28 C :   -0.053515
  29 H :    0.028822
  30 H :    0.026594
  31 H :    0.014352
  32 H :    0.037290
  33 H :    0.019936

  Mayer bond orders larger than 0.100000
B(  0-S ,  1-C ) :   1.1375 B(  0-S ,  4-C ) :   1.1559 B(  1-C ,  2-C ) :   1.5885
B(  1-C ,  4-C ) :   0.1053 B(  1-C , 32-H ) :   0.9597 B(  2-C ,  3-C ) :   1.2826
B(  2-C ,  6-C ) :   1.0299 B(  3-C ,  4-C ) :   1.5324 B(  3-C ,  5-H ) :   0.9805
B(  4-C , 20-C ) :   1.0798 B(  6-C ,  7-H ) :   0.9283 B(  6-C ,  8-H ) :   0.9384
B(  6-C ,  9-C ) :   1.0837 B(  9-C , 10-H ) :   0.9547 B(  9-C , 11-H ) :   0.9514
B(  9-C , 12-C ) :   1.0728 B( 12-C , 13-H ) :   0.9730 B( 12-C , 14-H ) :   0.9727
B( 12-C , 15-H ) :   0.9716 B( 16-S , 17-C ) :   1.1310 B( 16-S , 20-C ) :   1.1375
B( 17-C , 18-C ) :   1.6110 B( 17-C , 20-C ) :   0.1083 B( 17-C , 33-H ) :   0.9753
B( 18-C , 19-C ) :   1.2381 B( 18-C , 21-H ) :   0.9922 B( 19-C , 20-C ) :   1.5748
B( 19-C , 22-C ) :   1.0414 B( 22-C , 23-H ) :   0.9431 B( 22-C , 24-H ) :   0.9356
B( 22-C , 25-C ) :   1.0328 B( 25-C , 26-H ) :   0.9548 B( 25-C , 27-H ) :   0.9580
B( 25-C , 28-C ) :   1.0708 B( 28-C , 29-H ) :   0.9764 B( 28-C , 30-H ) :   0.9763
B( 28-C , 31-H ) :   0.9762

Dispersion correction           -0.015244384
FINAL SINGLE POINT ENERGY     -1339.871653445370

DIPOLE MOMENT
-------------
                                X             Y             Z
Electronic contribution:    -30.22049      -8.16364      -3.21317
Nuclear contribution   :     30.74460       8.44661       3.45445
                        -----------------------------------------
Total Dipole Moment    :      0.52411       0.28298       0.24128
                        -----------------------------------------
Magnitude (a.u.)       :      0.64264
Magnitude (Debye)      :      1.63346

Rotational constants in cm-1:     0.016510     0.010693     0.006962
Rotational constants in MHz :   494.959053   320.564321   208.702266

                             ****ORCA TERMINATED NORMALLY****
TOTAL RUN TIME: 0 days 0 hours 0 minutes 21 seconds 391 msec
