                         Program Version 4.2.1 -  RELEASE  -
|  1> ! wB97X-D3 SP def2-SVP
|  2> %pal
|  3> nprocs 24
|  4> end
|  5>
|  6> * xyz 0 1
|  7> S 	 -114.848 	 38.5035 	 -116.21
|  8> C 	 -113.302 	 37.7633 	 -116.722
|  9> C 	 -113.004 	 36.6293 	 -115.949
| 10> C 	 -114.011 	 36.3698 	 -115.02
| 11> C 	 -115.059 	 37.2535 	 -114.972
| 12> H 	 -113.958 	 35.5008 	 -114.392
| 13> C 	 -111.692 	 35.8057 	 -116.161
| 14> H 	 -111.453 	 35.7479 	 -117.244
| 15> H 	 -111.93 	 34.7765 	 -115.871
| 16> C 	 -110.43 	 36.2705 	 -115.33
| 17> H 	 -110.146 	 37.3195 	 -115.451
| 18> H 	 -110.642 	 36.1606 	 -114.279
| 19> C 	 -109.137 	 35.5139 	 -115.73
| 20> H 	 -109.519 	 34.4746 	 -115.784
| 21> H 	 -108.704 	 35.8013 	 -116.7
| 22> H 	 -108.371 	 35.4646 	 -114.971
| 23> S 	 -116.829 	 38.8732 	 -113.647
| 24> C 	 -117.642 	 38.3602 	 -112.173
| 25> C 	 -117.428 	 36.9972 	 -111.999
| 26> C 	 -116.673 	 36.3647 	 -113.09
| 27> C 	 -116.155 	 37.3129 	 -113.97
| 28> H 	 -117.927 	 36.4109 	 -111.201
| 29> C 	 -116.551 	 34.8218 	 -113.156
| 30> H 	 -116.131 	 34.6158 	 -114.176
| 31> H 	 -117.499 	 34.3326 	 -113.006
| 32> C 	 -115.751 	 34.1244 	 -112.042
| 33> H 	 -116.424 	 34.1664 	 -111.178
| 34> H 	 -115.012 	 34.7993 	 -111.653
| 35> C 	 -115.34 	 32.6712 	 -112.286
| 36> H 	 -114.947 	 32.2857 	 -111.338
| 37> H 	 -114.608 	 32.6564 	 -113.111
| 38> H 	 -116.189 	 32.0284 	 -112.496
| 39> H 	 -112.728 	 38.2231 	 -117.488
| 40> H 	 -118.226 	 38.9541 	 -111.501
| 41> *
| 42>
| 43>                          ****END OF INPUT****

CARTESIAN COORDINATES (ANGSTROEM)
---------------------------------
  S    -114.848000   38.503500  -116.210000
  C    -113.302000   37.763300  -116.722000
  C    -113.004000   36.629300  -115.949000
  C    -114.011000   36.369800  -115.020000
  C    -115.059000   37.253500  -114.972000
  H    -113.958000   35.500800  -114.392000
  C    -111.692000   35.805700  -116.161000
  H    -111.453000   35.747900  -117.244000
  H    -111.930000   34.776500  -115.871000
  C    -110.430000   36.270500  -115.330000
  H    -110.146000   37.319500  -115.451000
  H    -110.642000   36.160600  -114.279000
  C    -109.137000   35.513900  -115.730000
  H    -109.519000   34.474600  -115.784000
  H    -108.704000   35.801300  -116.700000
  H    -108.371000   35.464600  -114.971000
  S    -116.829000   38.873200  -113.647000
  C    -117.642000   38.360200  -112.173000
  C    -117.428000   36.997200  -111.999000
  C    -116.673000   36.364700  -113.090000
  C    -116.155000   37.312900  -113.970000
  H    -117.927000   36.410900  -111.201000
  C    -116.551000   34.821800  -113.156000
  H    -116.131000   34.615800  -114.176000
  H    -117.499000   34.332600  -113.006000
  C    -115.751000   34.124400  -112.042000
  H    -116.424000   34.166400  -111.178000
  H    -115.012000   34.799300  -111.653000
  C    -115.340000   32.671200  -112.286000
  H    -114.947000   32.285700  -111.338000
  H    -114.608000   32.656400  -113.111000
  H    -116.189000   32.028400  -112.496000
  H    -112.728000   38.223100  -117.488000
  H    -118.226000   38.954100  -111.501000

 Total Charge           Charge          ....    0
 Multiplicity           Mult            ....    1
 Number of Electrons    NEL             ....  134
 Basis Dimension        Dim             ....  322

ORBITAL ENERGIES
----------------

  NO   OCC          E(Eh)            E(eV)
   0   2.0000     -88.968402     -2420.9533
   1   2.0000     -88.965627     -2420.8778
   2   2.0000     -10.336574      -281.2725
   3   2.0000     -10.333302      -281.1834
   4   2.0000     -10.321206      -280.8543
   5   2.0000     -10.318671      -280.7853
   6   2.0000     -10.309788      -280.5436
   7   2.0000     -10.306400      -280.4514
   8   2.0000     -10.305821      -280.4357
   9   2.0000     -10.301402      -280.3154
  10   2.0000     -10.295915      -280.1661
  11   2.0000     -10.292455      -280.0719
  12   2.0000     -10.290864      -280.0286
  13   2.0000     -10.286277      -279.9038
  14   2.0000     -10.284615      -279.8586
  15   2.0000     -10.281880      -279.7842
  16   2.0000      -8.082180      -219.9273
  17   2.0000      -8.080623      -219.8849
  18   2.0000      -6.040679      -164.3752
  19   2.0000      -6.039287      -164.3374
  20   2.0000      -6.036863      -164.2714
  21   2.0000      -6.035030      -164.2215
  22   2.0000      -6.032981      -164.1658
  23   2.0000      -6.031261      -164.1189
  24   2.0000      -1.004688       -27.3390
  25   2.0000      -0.981109       -26.6973
  26   2.0000      -0.908750       -24.7284
  27   2.0000      -0.902165       -24.5492
  28   2.0000      -0.866530       -23.5795
  29   2.0000      -0.852914       -23.2090
  30   2.0000      -0.843235       -22.9456
  31   2.0000      -0.815819       -22.1996
  32   2.0000      -0.781324       -21.2609
  33   2.0000      -0.771898       -21.0044
  34   2.0000      -0.704559       -19.1720
  35   2.0000      -0.700864       -19.0715
  36   2.0000      -0.696443       -18.9512
  37   2.0000      -0.662193       -18.0192
  38   2.0000      -0.642143       -17.4736
  39   2.0000      -0.625584       -17.0230
  40   2.0000      -0.594887       -16.1877
  41   2.0000      -0.568511       -15.4700
  42   2.0000      -0.565233       -15.3808
  43   2.0000      -0.556650       -15.1472
  44   2.0000      -0.526734       -14.3332
  45   2.0000      -0.523749       -14.2519
  46   2.0000      -0.515156       -14.0181
  47   2.0000      -0.509541       -13.8653
  48   2.0000      -0.506220       -13.7750
  49   2.0000      -0.501556       -13.6480
  50   2.0000      -0.496809       -13.5189
  51   2.0000      -0.483718       -13.1626
  52   2.0000      -0.474707       -12.9174
  53   2.0000      -0.467927       -12.7330
  54   2.0000      -0.456017       -12.4088
  55   2.0000      -0.451393       -12.2830
  56   2.0000      -0.444608       -12.0984
  57   2.0000      -0.435195       -11.8423
  58   2.0000      -0.434366       -11.8197
  59   2.0000      -0.428686       -11.6651
  60   2.0000      -0.419399       -11.4124
  61   2.0000      -0.411367       -11.1939
  62   2.0000      -0.409359       -11.1392
  63   2.0000      -0.357990        -9.7414
  64   2.0000      -0.338918        -9.2224
  65   2.0000      -0.325375        -8.8539
  66   2.0000      -0.284363        -7.7379
  67   0.0000       0.018669         0.5080
  68   0.0000       0.079625         2.1667
  69   0.0000       0.094785         2.5792
  70   0.0000       0.117114         3.1868
  71   0.0000       0.124931         3.3995

MULLIKEN ATOMIC CHARGES
-----------------------
   0 S :    0.092449
   1 C :   -0.124851
   2 C :   -0.062361
   3 C :    0.006494
   4 C :   -0.098833
   5 H :   -0.005730
   6 C :    0.040973
   7 H :    0.038732
   8 H :    0.022633
   9 C :   -0.059891
  10 H :    0.032335
  11 H :    0.029277
  12 C :   -0.063493
  13 H :    0.020305
  14 H :    0.045086
  15 H :    0.035984
  16 S :    0.092603
  17 C :   -0.076939
  18 C :   -0.045003
  19 C :   -0.077107
  20 C :   -0.110032
  21 H :    0.034337
  22 C :    0.051027
  23 H :    0.033449
  24 H :    0.028226
  25 C :   -0.101578
  26 H :    0.010061
  27 H :    0.022719
  28 C :   -0.018226
  29 H :    0.038201
  30 H :    0.039870
  31 H :    0.031201
  32 H :    0.042892
  33 H :    0.055190
Sum of atomic charges:    0.0000000

LOEWDIN ATOMIC CHARGES
----------------------
   0 S :    0.380018
   1 C :   -0.171447
   2 C :   -0.061068
   3 C :   -0.068225
   4 C :   -0.178270
   5 H :    0.028637
   6 C :   -0.028236
   7 H :    0.034493
   8 H :    0.028387
   9 C :   -0.039706
  10 H :    0.023532
  11 H :    0.023472
  12 C :   -0.070009
  13 H :    0.025556
  14 H :    0.027215
  15 H :    0.025137
  16 S :    0.406949
  17 C :   -0.181669
  18 C :   -0.072577
  19 C :   -0.060476
  20 C :   -0.197202
  21 H :    0.034618
  22 C :   -0.034643
  23 H :    0.030169
  24 H :    0.031806
  25 C :   -0.052758
  26 H :    0.020604
  27 H :    0.019042
  28 C :   -0.058825
  29 H :    0.032379
  30 H :    0.027055
  31 H :    0.026556
  32 H :    0.019878
  33 H :    0.029609

  Mayer bond orders larger than 0.100000
B(  0-S ,  1-C ) :   1.1430 B(  0-S ,  4-C ) :   1.1452 B(  1-C ,  2-C ) :   1.5761
B(  1-C ,  4-C ) :   0.1061 B(  1-C , 32-H ) :   0.9792 B(  2-C ,  3-C ) :   1.2911
B(  2-C ,  6-C ) :   1.0126 B(  3-C ,  4-C ) :   1.5539 B(  3-C ,  5-H ) :   0.9931
B(  4-C , 20-C ) :   1.0434 B(  6-C ,  7-H ) :   0.9517 B(  6-C ,  8-H ) :   0.9376
B(  6-C ,  9-C ) :   1.0517 B(  9-C , 10-H ) :   0.9632 B(  9-C , 11-H ) :   0.9569
B(  9-C , 12-C ) :   1.0699 B( 12-C , 13-H ) :   0.9750 B( 12-C , 14-H ) :   0.9781
B( 12-C , 15-H ) :   0.9752 B( 16-S , 17-C ) :   1.1424 B( 16-S , 20-C ) :   1.1394
B( 17-C , 18-C ) :   1.6153 B( 17-C , 33-H ) :   0.9740 B( 18-C , 19-C ) :   1.2365
B( 18-C , 21-H ) :   0.9803 B( 19-C , 20-C ) :   1.5946 B( 19-C , 22-C ) :   1.0437
B( 22-C , 23-H ) :   0.9469 B( 22-C , 24-H ) :   0.9376 B( 22-C , 25-C ) :   1.0400
B( 25-C , 26-H ) :   0.9498 B( 25-C , 27-H ) :   0.9592 B( 25-C , 28-C ) :   1.0820
B( 28-C , 29-H ) :   0.9715 B( 28-C , 30-H ) :   0.9777 B( 28-C , 31-H ) :   0.9715

Dispersion correction           -0.013500811
FINAL SINGLE POINT ENERGY     -1339.876750467630

DIPOLE MOMENT
-------------
                                X             Y             Z
Electronic contribution:    -19.31692      25.38609      -5.94769
Nuclear contribution   :     19.61640     -25.99428       6.29280
                        -----------------------------------------
Total Dipole Moment    :      0.29948      -0.60819       0.34511
                        -----------------------------------------
Magnitude (a.u.)       :      0.76071
Magnitude (Debye)      :      1.93358

Rotational constants in cm-1:     0.016410     0.008640     0.006130
Rotational constants in MHz :   491.970554   259.032113   183.783884

                             ****ORCA TERMINATED NORMALLY****
TOTAL RUN TIME: 0 days 0 hours 0 minutes 20 seconds 957 msec
