                         Program Version 4.2.1 -  RELEASE  -
|  1> ! wB97X-D3 SP def2-SVP
|  2> %pal
|  3> nprocs 24
|  4> end
|  5>
|  6> * xyz 0 1
|  7> S 	 -108.692 	 42.5199 	 -9.64716
|  8> C 	 -108.524 	 41.9635 	 -7.98345
|  9> C 	 -109.414 	 42.6669 	 -7.15399
| 10> C 	 -110.246 	 43.5856 	 -7.90522
| 11> C 	 -109.93 	 43.6836 	 -9.31189
| 12> H 	 -111.039 	 44.2153 	 -7.4814
| 13> C 	 -109.591 	 42.5308 	 -5.57403
| 14> H 	 -108.996 	 41.6946 	 -5.29103
| 15> H 	 -110.574 	 42.068 	 -5.33181
| 16> C 	 -109.18 	 43.7348 	 -4.59707
| 17> H 	 -109.321 	 43.3724 	 -3.60934
| 18> H 	 -108.125 	 43.9294 	 -4.65235
| 19> C 	 -110.073 	 44.9181 	 -4.77074
| 20> H 	 -109.766 	 45.5504 	 -5.56643
| 21> H 	 -111.103 	 44.6392 	 -4.73883
| 22> H 	 -109.945 	 45.543 	 -3.9007
| 23> S 	 -111.199 	 43.5728 	 -11.7118
| 24> C 	 -111.845 	 44.9886 	 -12.4815
| 25> C 	 -111.609 	 46.1256 	 -11.7182
| 26> C 	 -110.974 	 45.8572 	 -10.4319
| 27> C 	 -110.643 	 44.4835 	 -10.3318
| 28> H 	 -111.934 	 47.0633 	 -12.1055
| 29> C 	 -110.677 	 47.0059 	 -9.47959
| 30> H 	 -110.695 	 46.566 	 -8.45371
| 31> H 	 -111.475 	 47.7231 	 -9.49723
| 32> C 	 -109.29 	 47.6693 	 -9.57256
| 33> H 	 -109.1 	 47.9354 	 -10.6097
| 34> H 	 -108.481 	 46.949 	 -9.20258
| 35> C 	 -109.12 	 48.7872 	 -8.58485
| 36> H 	 -108.918 	 48.3967 	 -7.57683
| 37> H 	 -109.945 	 49.5239 	 -8.65336
| 38> H 	 -108.216 	 49.4397 	 -8.69622
| 39> H 	 -107.796 	 41.2107 	 -7.578
| 40> H 	 -112.473 	 44.8996 	 -13.3946
| 41> *
| 42>
| 43>                          ****END OF INPUT****

CARTESIAN COORDINATES (ANGSTROEM)
---------------------------------
  S    -108.692000   42.519900   -9.647160
  C    -108.524000   41.963500   -7.983450
  C    -109.414000   42.666900   -7.153990
  C    -110.246000   43.585600   -7.905220
  C    -109.930000   43.683600   -9.311890
  H    -111.039000   44.215300   -7.481400
  C    -109.591000   42.530800   -5.574030
  H    -108.996000   41.694600   -5.291030
  H    -110.574000   42.068000   -5.331810
  C    -109.180000   43.734800   -4.597070
  H    -109.321000   43.372400   -3.609340
  H    -108.125000   43.929400   -4.652350
  C    -110.073000   44.918100   -4.770740
  H    -109.766000   45.550400   -5.566430
  H    -111.103000   44.639200   -4.738830
  H    -109.945000   45.543000   -3.900700
  S    -111.199000   43.572800  -11.711800
  C    -111.845000   44.988600  -12.481500
  C    -111.609000   46.125600  -11.718200
  C    -110.974000   45.857200  -10.431900
  C    -110.643000   44.483500  -10.331800
  H    -111.934000   47.063300  -12.105500
  C    -110.677000   47.005900   -9.479590
  H    -110.695000   46.566000   -8.453710
  H    -111.475000   47.723100   -9.497230
  C    -109.290000   47.669300   -9.572560
  H    -109.100000   47.935400  -10.609700
  H    -108.481000   46.949000   -9.202580
  C    -109.120000   48.787200   -8.584850
  H    -108.918000   48.396700   -7.576830
  H    -109.945000   49.523900   -8.653360
  H    -108.216000   49.439700   -8.696220
  H    -107.796000   41.210700   -7.578000
  H    -112.473000   44.899600  -13.394600

 Total Charge           Charge          ....    0
 Multiplicity           Mult            ....    1
 Number of Electrons    NEL             ....  134
 Basis Dimension        Dim             ....  322

ORBITAL ENERGIES
----------------

  NO   OCC          E(Eh)            E(eV)
   0   2.0000     -88.970137     -2421.0005
   1   2.0000     -88.965331     -2420.8697
   2   2.0000     -10.336112      -281.2599
   3   2.0000     -10.334308      -281.2108
   4   2.0000     -10.322826      -280.8984
   5   2.0000     -10.320131      -280.8250
   6   2.0000     -10.313107      -280.6339
   7   2.0000     -10.310772      -280.5704
   8   2.0000     -10.299216      -280.2559
   9   2.0000     -10.299144      -280.2540
  10   2.0000     -10.296728      -280.1882
  11   2.0000     -10.294376      -280.1242
  12   2.0000     -10.288637      -279.9681
  13   2.0000     -10.287071      -279.9254
  14   2.0000     -10.281503      -279.7739
  15   2.0000     -10.269472      -279.4465
  16   2.0000      -8.084271      -219.9842
  17   2.0000      -8.080564      -219.8833
  18   2.0000      -6.042791      -164.4327
  19   2.0000      -6.039017      -164.3300
  20   2.0000      -6.038647      -164.3199
  21   2.0000      -6.035237      -164.2271
  22   2.0000      -6.034864      -164.2170
  23   2.0000      -6.031484      -164.1250
  24   2.0000      -1.000529       -27.2258
  25   2.0000      -0.977107       -26.5884
  26   2.0000      -0.909399       -24.7460
  27   2.0000      -0.903824       -24.5943
  28   2.0000      -0.866805       -23.5870
  29   2.0000      -0.851407       -23.1680
  30   2.0000      -0.840751       -22.8780
  31   2.0000      -0.807755       -21.9801
  32   2.0000      -0.783835       -21.3292
  33   2.0000      -0.771526       -20.9943
  34   2.0000      -0.704183       -19.1618
  35   2.0000      -0.698835       -19.0163
  36   2.0000      -0.686238       -18.6735
  37   2.0000      -0.661711       -18.0061
  38   2.0000      -0.632096       -17.2002
  39   2.0000      -0.612509       -16.6672
  40   2.0000      -0.593340       -16.1456
  41   2.0000      -0.571872       -15.5614
  42   2.0000      -0.569751       -15.5037
  43   2.0000      -0.548644       -14.9294
  44   2.0000      -0.538673       -14.6580
  45   2.0000      -0.520787       -14.1713
  46   2.0000      -0.517389       -14.0789
  47   2.0000      -0.507164       -13.8006
  48   2.0000      -0.501029       -13.6337
  49   2.0000      -0.498649       -13.5689
  50   2.0000      -0.489941       -13.3320
  51   2.0000      -0.481967       -13.1150
  52   2.0000      -0.474937       -12.9237
  53   2.0000      -0.462792       -12.5932
  54   2.0000      -0.457742       -12.4558
  55   2.0000      -0.448030       -12.1915
  56   2.0000      -0.440124       -11.9764
  57   2.0000      -0.433483       -11.7957
  58   2.0000      -0.425519       -11.5789
  59   2.0000      -0.423862       -11.5339
  60   2.0000      -0.419785       -11.4229
  61   2.0000      -0.412924       -11.2362
  62   2.0000      -0.411617       -11.2007
  63   2.0000      -0.345366        -9.3979
  64   2.0000      -0.330935        -9.0052
  65   2.0000      -0.327970        -8.9245
  66   2.0000      -0.289587        -7.8801
  67   0.0000       0.029114         0.7922
  68   0.0000       0.068328         1.8593
  69   0.0000       0.113558         3.0901
  70   0.0000       0.118617         3.2277
  71   0.0000       0.125142         3.4053

MULLIKEN ATOMIC CHARGES
-----------------------
   0 S :    0.120443
   1 C :   -0.143008
   2 C :   -0.094571
   3 C :    0.020643
   4 C :   -0.154986
   5 H :    0.025445
   6 C :    0.038113
   7 H :   -0.004815
   8 H :    0.040635
   9 C :   -0.040361
  10 H :    0.016828
  11 H :    0.028748
  12 C :   -0.018827
  13 H :    0.036209
  14 H :    0.028909
  15 H :    0.015980
  16 S :    0.108470
  17 C :   -0.115191
  18 C :   -0.028019
  19 C :   -0.024202
  20 C :   -0.161196
  21 H :    0.010287
  22 C :    0.070607
  23 H :    0.014303
  24 H :    0.019860
  25 C :   -0.067355
  26 H :    0.031109
  27 H :    0.045993
  28 C :   -0.067312
  29 H :    0.034814
  30 H :    0.029536
  31 H :    0.033347
  32 H :    0.071687
  33 H :    0.077878
Sum of atomic charges:    0.0000000

LOEWDIN ATOMIC CHARGES
----------------------
   0 S :    0.420306
   1 C :   -0.214061
   2 C :   -0.064868
   3 C :   -0.069822
   4 C :   -0.212070
   5 H :    0.030638
   6 C :   -0.035948
   7 H :    0.020503
   8 H :    0.036153
   9 C :   -0.027982
  10 H :    0.022061
  11 H :    0.024607
  12 C :   -0.063498
  13 H :    0.022357
  14 H :    0.024787
  15 H :    0.026675
  16 S :    0.419094
  17 C :   -0.197359
  18 C :   -0.068478
  19 C :   -0.049984
  20 C :   -0.199910
  21 H :    0.026280
  22 C :   -0.033842
  23 H :    0.034741
  24 H :    0.026041
  25 C :   -0.044291
  26 H :    0.020484
  27 H :    0.039322
  28 C :   -0.076969
  29 H :    0.027824
  30 H :    0.022589
  31 H :    0.032320
  32 H :    0.044191
  33 H :    0.038108

  Mayer bond orders larger than 0.100000
B(  0-S ,  1-C ) :   1.1485 B(  0-S ,  4-C ) :   1.1715 B(  1-C ,  2-C ) :   1.5901
B(  1-C ,  4-C ) :   0.1062 B(  1-C , 32-H ) :   0.9595 B(  2-C ,  3-C ) :   1.2786
B(  2-C ,  6-C ) :   1.0060 B(  3-C ,  4-C ) :   1.5254 B(  3-C ,  5-H ) :   0.9835
B(  4-C , 20-C ) :   1.0369 B(  6-C ,  7-H ) :   0.9371 B(  6-C ,  8-H ) :   0.9488
B(  6-C ,  9-C ) :   1.0671 B(  9-C , 10-H ) :   0.9523 B(  9-C , 11-H ) :   0.9564
B(  9-C , 12-C ) :   1.0971 B( 12-C , 13-H ) :   0.9717 B( 12-C , 14-H ) :   0.9700
B( 12-C , 15-H ) :   0.9657 B( 16-S , 17-C ) :   1.1616 B( 16-S , 20-C ) :   1.1625
B( 17-C , 18-C ) :   1.5955 B( 17-C , 33-H ) :   0.9640 B( 18-C , 19-C ) :   1.2388
B( 18-C , 21-H ) :   0.9958 B( 19-C , 20-C ) :   1.5717 B( 19-C , 22-C ) :   1.0504
B( 22-C , 23-H ) :   0.9274 B( 22-C , 24-H ) :   0.9353 B( 22-C , 25-C ) :   1.0624
B( 25-C , 26-H ) :   0.9589 B( 25-C , 27-H ) :   0.9550 B( 25-C , 28-C ) :   1.0784
B( 28-C , 29-H ) :   0.9758 B( 28-C , 30-H ) :   0.9727 B( 28-C , 31-H ) :   0.9706

Dispersion correction           -0.014191062
FINAL SINGLE POINT ENERGY     -1339.868787458278

DIPOLE MOMENT
-------------
                                X             Y             Z
Electronic contribution:     -2.57081     -19.06265     -24.17017
Nuclear contribution   :      2.48900      19.47642      24.74358
                        -----------------------------------------
Total Dipole Moment    :     -0.08181       0.41376       0.57342
                        -----------------------------------------
Magnitude (a.u.)       :      0.71183
Magnitude (Debye)      :      1.80932

Rotational constants in cm-1:     0.016153     0.009730     0.006945
Rotational constants in MHz :   484.268553   291.699575   208.216026

                             ****ORCA TERMINATED NORMALLY****
TOTAL RUN TIME: 0 days 0 hours 0 minutes 21 seconds 452 msec
