                         Program Version 4.2.1 -  RELEASE  -
|  1> ! wB97X-D3 SP def2-SVP
|  2> %pal
|  3> nprocs 24
|  4> end
|  5>
|  6> * xyz 0 1
|  7> S 	 -114.061 	 23.5377 	 -112.592
|  8> C 	 -115.635 	 23.0832 	 -113.086
|  9> C 	 -116.268 	 22.2679 	 -112.123
| 10> C 	 -115.447 	 22.1575 	 -110.968
| 11> C 	 -114.17 	 22.7625 	 -110.988
| 12> H 	 -115.709 	 21.785 	 -110.049
| 13> C 	 -117.577 	 21.5725 	 -112.203
| 14> H 	 -117.391 	 20.5502 	 -111.987
| 15> H 	 -117.862 	 21.4944 	 -113.223
| 16> C 	 -118.711 	 22.2296 	 -111.42
| 17> H 	 -118.704 	 21.9905 	 -110.352
| 18> H 	 -118.711 	 23.3061 	 -111.55
| 19> C 	 -120.04 	 21.7548 	 -111.992
| 20> H 	 -119.963 	 20.7351 	 -112.271
| 21> H 	 -120.863 	 21.8398 	 -111.303
| 22> H 	 -120.33 	 22.2572 	 -112.887
| 23> S 	 -112.378 	 24.294 	 -109.525
| 24> C 	 -111.546 	 23.4639 	 -108.195
| 25> C 	 -111.858 	 22.1361 	 -108.097
| 26> C 	 -112.837 	 21.6786 	 -109.052
| 27> C 	 -113.243 	 22.7367 	 -109.898
| 28> H 	 -111.556 	 21.5158 	 -107.27
| 29> C 	 -113.333 	 20.2903 	 -109.065
| 30> H 	 -114.437 	 20.2773 	 -109.211
| 31> H 	 -113.258 	 19.8241 	 -108.079
| 32> C 	 -112.639 	 19.2311 	 -110.045
| 33> H 	 -113.202 	 18.3371 	 -109.808
| 34> H 	 -111.584 	 19.205 	 -109.823
| 35> C 	 -112.669 	 19.5485 	 -111.57
| 36> H 	 -113.658 	 19.6559 	 -111.952
| 37> H 	 -112.158 	 18.668 	 -111.992
| 38> H 	 -112.064 	 20.3488 	 -111.875
| 39> H 	 -116.135 	 23.6102 	 -113.978
| 40> H 	 -110.984 	 23.8905 	 -107.415
| 41> *
| 42>
| 43>                          ****END OF INPUT****

CARTESIAN COORDINATES (ANGSTROEM)
---------------------------------
  S    -114.061000   23.537700  -112.592000
  C    -115.635000   23.083200  -113.086000
  C    -116.268000   22.267900  -112.123000
  C    -115.447000   22.157500  -110.968000
  C    -114.170000   22.762500  -110.988000
  H    -115.709000   21.785000  -110.049000
  C    -117.577000   21.572500  -112.203000
  H    -117.391000   20.550200  -111.987000
  H    -117.862000   21.494400  -113.223000
  C    -118.711000   22.229600  -111.420000
  H    -118.704000   21.990500  -110.352000
  H    -118.711000   23.306100  -111.550000
  C    -120.040000   21.754800  -111.992000
  H    -119.963000   20.735100  -112.271000
  H    -120.863000   21.839800  -111.303000
  H    -120.330000   22.257200  -112.887000
  S    -112.378000   24.294000  -109.525000
  C    -111.546000   23.463900  -108.195000
  C    -111.858000   22.136100  -108.097000
  C    -112.837000   21.678600  -109.052000
  C    -113.243000   22.736700  -109.898000
  H    -111.556000   21.515800  -107.270000
  C    -113.333000   20.290300  -109.065000
  H    -114.437000   20.277300  -109.211000
  H    -113.258000   19.824100  -108.079000
  C    -112.639000   19.231100  -110.045000
  H    -113.202000   18.337100  -109.808000
  H    -111.584000   19.205000  -109.823000
  C    -112.669000   19.548500  -111.570000
  H    -113.658000   19.655900  -111.952000
  H    -112.158000   18.668000  -111.992000
  H    -112.064000   20.348800  -111.875000
  H    -116.135000   23.610200  -113.978000
  H    -110.984000   23.890500  -107.415000

 Total Charge           Charge          ....    0
 Multiplicity           Mult            ....    1
 Number of Electrons    NEL             ....  134
 Basis Dimension        Dim             ....  322

ORBITAL ENERGIES
----------------

  NO   OCC          E(Eh)            E(eV)
   0   2.0000     -88.968990     -2420.9693
   1   2.0000     -88.965293     -2420.8687
   2   2.0000     -10.334480      -281.2155
   3   2.0000     -10.329039      -281.0674
   4   2.0000     -10.319880      -280.8182
   5   2.0000     -10.316295      -280.7207
   6   2.0000     -10.307962      -280.4939
   7   2.0000     -10.301139      -280.3082
   8   2.0000     -10.293850      -280.1099
   9   2.0000     -10.293248      -280.0935
  10   2.0000     -10.289807      -279.9999
  11   2.0000     -10.285459      -279.8816
  12   2.0000     -10.284831      -279.8645
  13   2.0000     -10.284206      -279.8475
  14   2.0000     -10.268461      -279.4190
  15   2.0000     -10.265961      -279.3510
  16   2.0000      -8.082175      -219.9272
  17   2.0000      -8.079692      -219.8596
  18   2.0000      -6.040810      -164.3788
  19   2.0000      -6.038221      -164.3084
  20   2.0000      -6.037029      -164.2759
  21   2.0000      -6.033982      -164.1930
  22   2.0000      -6.032765      -164.1599
  23   2.0000      -6.030713      -164.1040
  24   2.0000      -0.999009       -27.1844
  25   2.0000      -0.977546       -26.6004
  26   2.0000      -0.917711       -24.9722
  27   2.0000      -0.900918       -24.5152
  28   2.0000      -0.871468       -23.7138
  29   2.0000      -0.852687       -23.2028
  30   2.0000      -0.846766       -23.0417
  31   2.0000      -0.812186       -22.1007
  32   2.0000      -0.784224       -21.3398
  33   2.0000      -0.769456       -20.9380
  34   2.0000      -0.711719       -19.3669
  35   2.0000      -0.703747       -19.1499
  36   2.0000      -0.690623       -18.7928
  37   2.0000      -0.662183       -18.0189
  38   2.0000      -0.643031       -17.4978
  39   2.0000      -0.619260       -16.8509
  40   2.0000      -0.597040       -16.2463
  41   2.0000      -0.575132       -15.6501
  42   2.0000      -0.558724       -15.2037
  43   2.0000      -0.549528       -14.9534
  44   2.0000      -0.535571       -14.5736
  45   2.0000      -0.529769       -14.4158
  46   2.0000      -0.518860       -14.1189
  47   2.0000      -0.508641       -13.8408
  48   2.0000      -0.502735       -13.6801
  49   2.0000      -0.500010       -13.6060
  50   2.0000      -0.494215       -13.4483
  51   2.0000      -0.474541       -12.9129
  52   2.0000      -0.469150       -12.7662
  53   2.0000      -0.465520       -12.6675
  54   2.0000      -0.456219       -12.4144
  55   2.0000      -0.453066       -12.3286
  56   2.0000      -0.443010       -12.0549
  57   2.0000      -0.436500       -11.8778
  58   2.0000      -0.433728       -11.8023
  59   2.0000      -0.428110       -11.6495
  60   2.0000      -0.419983       -11.4283
  61   2.0000      -0.414230       -11.2718
  62   2.0000      -0.410425       -11.1682
  63   2.0000      -0.349805        -9.5187
  64   2.0000      -0.332185        -9.0392
  65   2.0000      -0.325498        -8.8572
  66   2.0000      -0.281549        -7.6613
  67   0.0000       0.018531         0.5042
  68   0.0000       0.071171         1.9366
  69   0.0000       0.103603         2.8192
  70   0.0000       0.112678         3.0661
  71   0.0000       0.135496         3.6870

MULLIKEN ATOMIC CHARGES
-----------------------
   0 S :    0.110897
   1 C :   -0.161617
   2 C :   -0.086362
   3 C :    0.021903
   4 C :   -0.133203
   5 H :   -0.019056
   6 C :    0.103692
   7 H :    0.021772
   8 H :   -0.000998
   9 C :   -0.054550
  10 H :    0.035839
  11 H :    0.034848
  12 C :   -0.034179
  13 H :    0.013972
  14 H :    0.025225
  15 H :    0.024670
  16 S :    0.101573
  17 C :   -0.055296
  18 C :   -0.031563
  19 C :   -0.017038
  20 C :   -0.175999
  21 H :    0.016560
  22 C :    0.025772
  23 H :    0.021499
  24 H :    0.016888
  25 C :   -0.060756
  26 H :    0.034448
  27 H :    0.027876
  28 C :   -0.027497
  29 H :    0.033791
  30 H :    0.027773
  31 H :    0.031178
  32 H :    0.087846
  33 H :    0.040092
Sum of atomic charges:    0.0000000

LOEWDIN ATOMIC CHARGES
----------------------
   0 S :    0.408591
   1 C :   -0.227401
   2 C :   -0.064300
   3 C :   -0.053990
   4 C :   -0.194815
   5 H :    0.011290
   6 C :   -0.032277
   7 H :    0.032173
   8 H :    0.027051
   9 C :   -0.033095
  10 H :    0.026213
  11 H :    0.027783
  12 C :   -0.060344
  13 H :    0.018292
  14 H :    0.023275
  15 H :    0.021390
  16 S :    0.370111
  17 C :   -0.168231
  18 C :   -0.066279
  19 C :   -0.048573
  20 C :   -0.173814
  21 H :    0.030855
  22 C :   -0.045801
  23 H :    0.031550
  24 H :    0.031360
  25 C :   -0.023323
  26 H :    0.024818
  27 H :    0.023321
  28 C :   -0.060010
  29 H :    0.020657
  30 H :    0.031082
  31 H :    0.020442
  32 H :    0.048736
  33 H :    0.023263

  Mayer bond orders larger than 0.100000
B(  0-S ,  1-C ) :   1.1705 B(  0-S ,  4-C ) :   1.1328 B(  1-C ,  2-C ) :   1.5467
B(  1-C ,  4-C ) :   0.1032 B(  1-C , 32-H ) :   0.9549 B(  2-C ,  3-C ) :   1.2772
B(  2-C ,  6-C ) :   1.0363 B(  3-C ,  4-C ) :   1.5301 B(  3-C ,  5-H ) :   1.0041
B(  4-C , 20-C ) :   1.1151 B(  6-C ,  7-H ) :   0.9248 B(  6-C ,  8-H ) :   0.9374
B(  6-C ,  9-C ) :   1.0577 B(  9-C , 10-H ) :   0.9553 B(  9-C , 11-H ) :   0.9608
B(  9-C , 12-C ) :   1.0862 B( 12-C , 13-H ) :   0.9718 B( 12-C , 14-H ) :   0.9738
B( 12-C , 15-H ) :   0.9754 B( 16-S , 17-C ) :   1.1322 B( 16-S , 20-C ) :   1.1088
B( 17-C , 18-C ) :   1.6450 B( 17-C , 33-H ) :   0.9657 B( 18-C , 19-C ) :   1.2289
B( 18-C , 21-H ) :   0.9807 B( 19-C , 20-C ) :   1.5792 B( 19-C , 22-C ) :   1.0572
B( 22-C , 23-H ) :   0.9320 B( 22-C , 24-H ) :   0.9287 B( 22-C , 25-C ) :   1.0602
B( 25-C , 26-H ) :   0.9569 B( 25-C , 27-H ) :   0.9572 B( 25-C , 28-C ) :   1.0841
B( 28-C , 29-H ) :   0.9772 B( 28-C , 30-H ) :   0.9714 B( 28-C , 31-H ) :   0.9733

Dispersion correction           -0.014987823
FINAL SINGLE POINT ENERGY     -1339.864660528078

DIPOLE MOMENT
-------------
                                X             Y             Z
Electronic contribution:     18.03473      19.87064       1.73486
Nuclear contribution   :    -18.48489     -20.41907      -1.43151
                        -----------------------------------------
Total Dipole Moment    :     -0.45016      -0.54843       0.30335
                        -----------------------------------------
Magnitude (a.u.)       :      0.77165
Magnitude (Debye)      :      1.96139

Rotational constants in cm-1:     0.019890     0.008158     0.007259
Rotational constants in MHz :   596.287929   244.575935   217.626581

                             ****ORCA TERMINATED NORMALLY****
TOTAL RUN TIME: 0 days 0 hours 0 minutes 20 seconds 874 msec
