                         Program Version 4.2.1 -  RELEASE  -
|  1> ! wB97X-D3 SP def2-SVP
|  2> %pal
|  3> nprocs 24
|  4> end
|  5>
|  6> * xyz 0 1
|  7> S 	 -86.8816 	 -47.4276 	 -84.772
|  8> C 	 -88.1766 	 -46.2435 	 -84.9562
|  9> C 	 -88.938 	 -46.0233 	 -83.7867
| 10> C 	 -88.3938 	 -46.7843 	 -82.7237
| 11> C 	 -87.3385 	 -47.5973 	 -83.0746
| 12> H 	 -88.7435 	 -46.7573 	 -81.7066
| 13> C 	 -90.0532 	 -44.9942 	 -83.5443
| 14> H 	 -90.1995 	 -44.4189 	 -84.444
| 15> H 	 -89.6263 	 -44.3138 	 -82.8033
| 16> C 	 -91.468 	 -45.5211 	 -83.1071
| 17> H 	 -91.38 	 -46.3778 	 -82.5087
| 18> H 	 -91.9583 	 -44.8149 	 -82.4114
| 19> C 	 -92.5179 	 -45.7221 	 -84.2151
| 20> H 	 -93.4341 	 -46.0038 	 -83.7514
| 21> H 	 -92.5454 	 -44.7072 	 -84.7017
| 22> H 	 -92.2912 	 -46.4635 	 -85.021
| 23> S 	 -86.6715 	 -50.252 	 -82.7842
| 24> C 	 -85.8105 	 -50.7356 	 -81.3987
| 25> C 	 -85.4639 	 -49.6354 	 -80.5608
| 26> C 	 -85.9792 	 -48.4136 	 -81.0139
| 27> C 	 -86.6043 	 -48.5629 	 -82.2489
| 28> H 	 -84.8708 	 -49.7929 	 -79.6509
| 29> C 	 -85.6966 	 -47.0891 	 -80.3298
| 30> H 	 -86.3722 	 -46.2947 	 -80.5798
| 31> H 	 -84.7395 	 -46.6639 	 -80.7291
| 32> C 	 -85.4759 	 -47.1317 	 -78.8437
| 33> H 	 -84.7308 	 -47.8844 	 -78.6147
| 34> H 	 -86.3758 	 -47.6587 	 -78.4855
| 35> C 	 -85.3436 	 -45.7793 	 -78.0726
| 36> H 	 -86.2237 	 -45.4207 	 -77.561
| 37> H 	 -84.91 	 -44.9448 	 -78.6581
| 38> H 	 -84.6091 	 -45.9571 	 -77.3008
| 39> H 	 -88.5106 	 -45.7984 	 -85.894
| 40> H 	 -85.5953 	 -51.693 	 -81.0636
| 41> *
| 42>
| 43>                          ****END OF INPUT****

CARTESIAN COORDINATES (ANGSTROEM)
---------------------------------
  S    -86.881600  -47.427600  -84.772000
  C    -88.176600  -46.243500  -84.956200
  C    -88.938000  -46.023300  -83.786700
  C    -88.393800  -46.784300  -82.723700
  C    -87.338500  -47.597300  -83.074600
  H    -88.743500  -46.757300  -81.706600
  C    -90.053200  -44.994200  -83.544300
  H    -90.199500  -44.418900  -84.444000
  H    -89.626300  -44.313800  -82.803300
  C    -91.468000  -45.521100  -83.107100
  H    -91.380000  -46.377800  -82.508700
  H    -91.958300  -44.814900  -82.411400
  C    -92.517900  -45.722100  -84.215100
  H    -93.434100  -46.003800  -83.751400
  H    -92.545400  -44.707200  -84.701700
  H    -92.291200  -46.463500  -85.021000
  S    -86.671500  -50.252000  -82.784200
  C    -85.810500  -50.735600  -81.398700
  C    -85.463900  -49.635400  -80.560800
  C    -85.979200  -48.413600  -81.013900
  C    -86.604300  -48.562900  -82.248900
  H    -84.870800  -49.792900  -79.650900
  C    -85.696600  -47.089100  -80.329800
  H    -86.372200  -46.294700  -80.579800
  H    -84.739500  -46.663900  -80.729100
  C    -85.475900  -47.131700  -78.843700
  H    -84.730800  -47.884400  -78.614700
  H    -86.375800  -47.658700  -78.485500
  C    -85.343600  -45.779300  -78.072600
  H    -86.223700  -45.420700  -77.561000
  H    -84.910000  -44.944800  -78.658100
  H    -84.609100  -45.957100  -77.300800
  H    -88.510600  -45.798400  -85.894000
  H    -85.595300  -51.693000  -81.063600

 Total Charge           Charge          ....    0
 Multiplicity           Mult            ....    1
 Number of Electrons    NEL             ....  134
 Basis Dimension        Dim             ....  322

ORBITAL ENERGIES
----------------

  NO   OCC          E(Eh)            E(eV)
   0   2.0000     -88.971305     -2421.0323
   1   2.0000     -88.968279     -2420.9500
   2   2.0000     -10.327297      -281.0200
   3   2.0000     -10.324795      -280.9520
   4   2.0000     -10.315566      -280.7008
   5   2.0000     -10.312882      -280.6278
   6   2.0000     -10.303576      -280.3746
   7   2.0000     -10.303134      -280.3625
   8   2.0000     -10.297727      -280.2154
   9   2.0000     -10.294935      -280.1394
  10   2.0000     -10.289562      -279.9932
  11   2.0000     -10.289269      -279.9853
  12   2.0000     -10.287196      -279.9288
  13   2.0000     -10.286585      -279.9122
  14   2.0000     -10.283034      -279.8156
  15   2.0000     -10.282759      -279.8081
  16   2.0000      -8.086050      -220.0326
  17   2.0000      -8.082354      -219.9320
  18   2.0000      -6.044350      -164.4751
  19   2.0000      -6.040773      -164.3778
  20   2.0000      -6.040481      -164.3699
  21   2.0000      -6.037113      -164.2782
  22   2.0000      -6.037091      -164.2776
  23   2.0000      -6.033121      -164.1696
  24   2.0000      -1.004502       -27.3339
  25   2.0000      -0.980686       -26.6858
  26   2.0000      -0.912334       -24.8259
  27   2.0000      -0.904889       -24.6233
  28   2.0000      -0.863086       -23.4858
  29   2.0000      -0.854186       -23.2436
  30   2.0000      -0.846548       -23.0357
  31   2.0000      -0.808612       -22.0034
  32   2.0000      -0.787941       -21.4410
  33   2.0000      -0.772306       -21.0155
  34   2.0000      -0.707857       -19.2618
  35   2.0000      -0.703479       -19.1426
  36   2.0000      -0.693305       -18.8658
  37   2.0000      -0.653093       -17.7716
  38   2.0000      -0.639384       -17.3985
  39   2.0000      -0.621298       -16.9064
  40   2.0000      -0.604380       -16.4460
  41   2.0000      -0.561784       -15.2869
  42   2.0000      -0.560924       -15.2635
  43   2.0000      -0.552082       -15.0229
  44   2.0000      -0.536257       -14.5923
  45   2.0000      -0.525200       -14.2914
  46   2.0000      -0.514338       -13.9959
  47   2.0000      -0.507327       -13.8051
  48   2.0000      -0.501008       -13.6331
  49   2.0000      -0.494929       -13.4677
  50   2.0000      -0.483836       -13.1659
  51   2.0000      -0.481506       -13.1024
  52   2.0000      -0.471964       -12.8428
  53   2.0000      -0.467932       -12.7331
  54   2.0000      -0.458437       -12.4747
  55   2.0000      -0.452183       -12.3045
  56   2.0000      -0.445310       -12.1175
  57   2.0000      -0.441697       -12.0192
  58   2.0000      -0.435372       -11.8471
  59   2.0000      -0.429230       -11.6799
  60   2.0000      -0.426759       -11.6127
  61   2.0000      -0.415536       -11.3073
  62   2.0000      -0.407162       -11.0795
  63   2.0000      -0.339907        -9.2493
  64   2.0000      -0.335862        -9.1393
  65   2.0000      -0.329263        -8.9597
  66   2.0000      -0.287419        -7.8211
  67   0.0000       0.033456         0.9104
  68   0.0000       0.061880         1.6838
  69   0.0000       0.111253         3.0273
  70   0.0000       0.122201         3.3252
  71   0.0000       0.126395         3.4394

MULLIKEN ATOMIC CHARGES
-----------------------
   0 S :    0.116272
   1 C :   -0.117190
   2 C :   -0.103222
   3 C :    0.043707
   4 C :   -0.174130
   5 H :    0.007252
   6 C :    0.077340
   7 H :    0.006822
   8 H :    0.043203
   9 C :   -0.065625
  10 H :    0.013992
  11 H :    0.025283
  12 C :   -0.063574
  13 H :    0.035609
  14 H :    0.034526
  15 H :    0.046179
  16 S :    0.138241
  17 C :   -0.054469
  18 C :   -0.085783
  19 C :    0.006517
  20 C :   -0.174511
  21 H :    0.026972
  22 C :    0.091724
  23 H :    0.011614
  24 H :    0.037071
  25 C :   -0.125326
  26 H :    0.027898
  27 H :    0.022817
  28 C :   -0.021091
  29 H :    0.040875
  30 H :    0.034778
  31 H :    0.025241
  32 H :    0.044166
  33 H :    0.026822
Sum of atomic charges:    0.0000000

LOEWDIN ATOMIC CHARGES
----------------------
   0 S :    0.396609
   1 C :   -0.200904
   2 C :   -0.061430
   3 C :   -0.061631
   4 C :   -0.189132
   5 H :    0.029512
   6 C :   -0.027225
   7 H :    0.025296
   8 H :    0.038532
   9 C :   -0.041309
  10 H :    0.013008
  11 H :    0.029393
  12 C :   -0.064675
  13 H :    0.023244
  14 H :    0.029473
  15 H :    0.028496
  16 S :    0.434842
  17 C :   -0.194059
  18 C :   -0.073929
  19 C :   -0.052703
  20 C :   -0.200988
  21 H :    0.032434
  22 C :   -0.034485
  23 H :    0.025224
  24 H :    0.038907
  25 C :   -0.050379
  26 H :    0.019068
  27 H :    0.026246
  28 C :   -0.065786
  29 H :    0.027661
  30 H :    0.029551
  31 H :    0.029942
  32 H :    0.025812
  33 H :    0.015385

  Mayer bond orders larger than 0.100000
B(  0-S ,  1-C ) :   1.1355 B(  0-S ,  4-C ) :   1.1469 B(  1-C ,  2-C ) :   1.6227
B(  1-C ,  4-C ) :   0.1010 B(  1-C , 32-H ) :   0.9593 B(  2-C ,  3-C ) :   1.2371
B(  2-C ,  6-C ) :   1.0219 B(  3-C ,  4-C ) :   1.5974 B(  3-C ,  5-H ) :   0.9921
B(  4-C , 20-C ) :   1.0136 B(  6-C ,  7-H ) :   0.9444 B(  6-C ,  8-H ) :   0.9439
B(  6-C ,  9-C ) :   1.0473 B(  9-C , 10-H ) :   0.9613 B(  9-C , 11-H ) :   0.9564
B(  9-C , 12-C ) :   1.0773 B( 12-C , 13-H ) :   0.9741 B( 12-C , 14-H ) :   0.9762
B( 12-C , 15-H ) :   0.9786 B( 16-S , 17-C ) :   1.1831 B( 16-S , 20-C ) :   1.1588
B( 17-C , 18-C ) :   1.5687 B( 17-C , 20-C ) :   0.1122 B( 17-C , 33-H ) :   0.9725
B( 18-C , 19-C ) :   1.2743 B( 18-C , 21-H ) :   0.9823 B( 19-C , 20-C ) :   1.5677
B( 19-C , 22-C ) :   1.0443 B( 22-C , 23-H ) :   0.9354 B( 22-C , 24-H ) :   0.9213
B( 22-C , 25-C ) :   1.0635 B( 25-C , 26-H ) :   0.9543 B( 25-C , 27-H ) :   0.9619
B( 25-C , 28-C ) :   1.0586 B( 28-C , 29-H ) :   0.9778 B( 28-C , 30-H ) :   0.9775
B( 28-C , 31-H ) :   0.9743

Dispersion correction           -0.013353130
FINAL SINGLE POINT ENERGY     -1339.874150316620

DIPOLE MOMENT
-------------
                                X             Y             Z
Electronic contribution:     11.65847     -18.22989     -15.89246
Nuclear contribution   :    -11.88136      18.57143      16.46899
                        -----------------------------------------
Total Dipole Moment    :     -0.22289       0.34154       0.57653
                        -----------------------------------------
Magnitude (a.u.)       :      0.70620
Magnitude (Debye)      :      1.79502

Rotational constants in cm-1:     0.016927     0.007996     0.006403
Rotational constants in MHz :   507.471902   239.709541   191.969424

                             ****ORCA TERMINATED NORMALLY****
TOTAL RUN TIME: 0 days 0 hours 0 minutes 20 seconds 937 msec
