                         Program Version 4.2.1 -  RELEASE  -
|  1> ! wB97X-D3 SP def2-SVP
|  2> %pal
|  3> nprocs 24
|  4> end
|  5>
|  6> * xyz 0 1
|  7> S 	 -110.163 	 2.72682 	 -113.632
|  8> C 	 -110.499 	 4.06594 	 -114.757
|  9> C 	 -109.38 	 4.39105 	 -115.545
| 10> C 	 -108.287 	 3.56006 	 -115.151
| 11> C 	 -108.494 	 2.70632 	 -114.112
| 12> H 	 -107.268 	 3.6176 	 -115.516
| 13> C 	 -109.427 	 5.07725 	 -116.897
| 14> H 	 -110.382 	 4.84359 	 -117.345
| 15> H 	 -108.716 	 4.72537 	 -117.59
| 16> C 	 -109.224 	 6.55072 	 -116.769
| 17> H 	 -110.205 	 6.98568 	 -116.491
| 18> H 	 -108.561 	 6.84512 	 -116.004
| 19> C 	 -108.822 	 7.15024 	 -118.097
| 20> H 	 -107.908 	 6.64612 	 -118.473
| 21> H 	 -109.558 	 7.09951 	 -118.86
| 22> H 	 -108.604 	 8.15177 	 -117.875
| 23> S 	 -107.349 	 2.14109 	 -111.65
| 24> C 	 -106.285 	 0.781944 	 -111.565
| 25> C 	 -106.092 	 0.102157 	 -112.735
| 26> C 	 -106.793 	 0.817528 	 -113.777
| 27> C 	 -107.572 	 1.85468 	 -113.375
| 28> H 	 -105.448 	 -0.650927 	 -113.023
| 29> C 	 -106.855 	 0.122906 	 -115.136
| 30> H 	 -105.883 	 -0.260371 	 -115.495
| 31> H 	 -107.289 	 0.745496 	 -115.874
| 32> C 	 -107.643 	 -1.22566 	 -115.002
| 33> H 	 -107.116 	 -1.83048 	 -114.353
| 34> H 	 -107.577 	 -1.64165 	 -115.969
| 35> C 	 -109.028 	 -1.05815 	 -114.438
| 36> H 	 -109.608 	 -0.330797 	 -115.045
| 37> H 	 -108.881 	 -0.637245 	 -113.45
| 38> H 	 -109.587 	 -2.0011 	 -114.156
| 39> H 	 -111.437 	 4.54127 	 -114.961
| 40> H 	 -105.796 	 0.56067 	 -110.635
| 41> *
| 42>
| 43>                          ****END OF INPUT****

CARTESIAN COORDINATES (ANGSTROEM)
---------------------------------
  S    -110.163000    2.726820  -113.632000
  C    -110.499000    4.065940  -114.757000
  C    -109.380000    4.391050  -115.545000
  C    -108.287000    3.560060  -115.151000
  C    -108.494000    2.706320  -114.112000
  H    -107.268000    3.617600  -115.516000
  C    -109.427000    5.077250  -116.897000
  H    -110.382000    4.843590  -117.345000
  H    -108.716000    4.725370  -117.590000
  C    -109.224000    6.550720  -116.769000
  H    -110.205000    6.985680  -116.491000
  H    -108.561000    6.845120  -116.004000
  C    -108.822000    7.150240  -118.097000
  H    -107.908000    6.646120  -118.473000
  H    -109.558000    7.099510  -118.860000
  H    -108.604000    8.151770  -117.875000
  S    -107.349000    2.141090  -111.650000
  C    -106.285000    0.781944  -111.565000
  C    -106.092000    0.102157  -112.735000
  C    -106.793000    0.817528  -113.777000
  C    -107.572000    1.854680  -113.375000
  H    -105.448000   -0.650927  -113.023000
  C    -106.855000    0.122906  -115.136000
  H    -105.883000   -0.260371  -115.495000
  H    -107.289000    0.745496  -115.874000
  C    -107.643000   -1.225660  -115.002000
  H    -107.116000   -1.830480  -114.353000
  H    -107.577000   -1.641650  -115.969000
  C    -109.028000   -1.058150  -114.438000
  H    -109.608000   -0.330797  -115.045000
  H    -108.881000   -0.637245  -113.450000
  H    -109.587000   -2.001100  -114.156000
  H    -111.437000    4.541270  -114.961000
  H    -105.796000    0.560670  -110.635000

 Total Charge           Charge          ....    0
 Multiplicity           Mult            ....    1
 Number of Electrons    NEL             ....  134
 Basis Dimension        Dim             ....  322

ORBITAL ENERGIES
----------------

  NO   OCC          E(Eh)            E(eV)
   0   2.0000     -88.967322     -2420.9239
   1   2.0000     -88.965001     -2420.8607
   2   2.0000     -10.324065      -280.9321
   3   2.0000     -10.321977      -280.8753
   4   2.0000     -10.319278      -280.8018
   5   2.0000     -10.316831      -280.7352
   6   2.0000     -10.301466      -280.3171
   7   2.0000     -10.298282      -280.2305
   8   2.0000     -10.290305      -280.0134
   9   2.0000     -10.289425      -279.9895
  10   2.0000     -10.287977      -279.9501
  11   2.0000     -10.284290      -279.8498
  12   2.0000     -10.276908      -279.6489
  13   2.0000     -10.272643      -279.5328
  14   2.0000     -10.270981      -279.4876
  15   2.0000     -10.270157      -279.4652
  16   2.0000      -8.081497      -219.9087
  17   2.0000      -8.080335      -219.8771
  18   2.0000      -6.040036      -164.3577
  19   2.0000      -6.038808      -164.3243
  20   2.0000      -6.036082      -164.2501
  21   2.0000      -6.034824      -164.2159
  22   2.0000      -6.032246      -164.1457
  23   2.0000      -6.031018      -164.1123
  24   2.0000      -1.009310       -27.4647
  25   2.0000      -0.985360       -26.8130
  26   2.0000      -0.922484       -25.1021
  27   2.0000      -0.911370       -24.7996
  28   2.0000      -0.872028       -23.7291
  29   2.0000      -0.848426       -23.0869
  30   2.0000      -0.845048       -22.9949
  31   2.0000      -0.815141       -22.1811
  32   2.0000      -0.785139       -21.3647
  33   2.0000      -0.773578       -21.0501
  34   2.0000      -0.702539       -19.1171
  35   2.0000      -0.702066       -19.1042
  36   2.0000      -0.694350       -18.8942
  37   2.0000      -0.669299       -18.2126
  38   2.0000      -0.647182       -17.6107
  39   2.0000      -0.616895       -16.7866
  40   2.0000      -0.605457       -16.4753
  41   2.0000      -0.575695       -15.6655
  42   2.0000      -0.566656       -15.4195
  43   2.0000      -0.552341       -15.0300
  44   2.0000      -0.544071       -14.8049
  45   2.0000      -0.533408       -14.5148
  46   2.0000      -0.519737       -14.1428
  47   2.0000      -0.510386       -13.8883
  48   2.0000      -0.504386       -13.7251
  49   2.0000      -0.496277       -13.5044
  50   2.0000      -0.492229       -13.3942
  51   2.0000      -0.474735       -12.9182
  52   2.0000      -0.471338       -12.8258
  53   2.0000      -0.460359       -12.5270
  54   2.0000      -0.459364       -12.4999
  55   2.0000      -0.450570       -12.2606
  56   2.0000      -0.447276       -12.1710
  57   2.0000      -0.439663       -11.9638
  58   2.0000      -0.429537       -11.6883
  59   2.0000      -0.425864       -11.5883
  60   2.0000      -0.420351       -11.4383
  61   2.0000      -0.415244       -11.2994
  62   2.0000      -0.408856       -11.1255
  63   2.0000      -0.343708        -9.3528
  64   2.0000      -0.331672        -9.0253
  65   2.0000      -0.326760        -8.8916
  66   2.0000      -0.298814        -8.1311
  67   0.0000       0.038942         1.0597
  68   0.0000       0.062841         1.7100
  69   0.0000       0.101377         2.7586
  70   0.0000       0.115548         3.1442
  71   0.0000       0.132720         3.6115

MULLIKEN ATOMIC CHARGES
-----------------------
   0 S :    0.116094
   1 C :   -0.102478
   2 C :   -0.079713
   3 C :    0.042132
   4 C :   -0.178883
   5 H :    0.007174
   6 C :    0.082860
   7 H :    0.024647
   8 H :    0.006878
   9 C :   -0.087707
  10 H :    0.021780
  11 H :    0.027791
  12 C :   -0.011170
  13 H :    0.027337
  14 H :    0.023430
  15 H :    0.020471
  16 S :    0.116643
  17 C :   -0.069519
  18 C :    0.012462
  19 C :   -0.062667
  20 C :   -0.164070
  21 H :   -0.001793
  22 C :    0.062112
  23 H :    0.023154
  24 H :    0.015225
  25 C :   -0.033869
  26 H :   -0.000437
  27 H :    0.018932
  28 C :   -0.058805
  29 H :    0.039336
  30 H :    0.031250
  31 H :    0.040456
  32 H :    0.037071
  33 H :    0.053875
Sum of atomic charges:    0.0000000

LOEWDIN ATOMIC CHARGES
----------------------
   0 S :    0.405617
   1 C :   -0.184146
   2 C :   -0.058239
   3 C :   -0.064655
   4 C :   -0.199318
   5 H :    0.030762
   6 C :   -0.023894
   7 H :    0.032223
   8 H :    0.022288
   9 C :   -0.038469
  10 H :    0.026177
  11 H :    0.019746
  12 C :   -0.056201
  13 H :    0.025649
  14 H :    0.019547
  15 H :    0.021092
  16 S :    0.407666
  17 C :   -0.168851
  18 C :   -0.063126
  19 C :   -0.050534
  20 C :   -0.209441
  21 H :    0.022150
  22 C :   -0.021782
  23 H :    0.032232
  24 H :    0.018781
  25 C :   -0.028393
  26 H :    0.009493
  27 H :    0.016662
  28 C :   -0.073140
  29 H :    0.026160
  30 H :    0.025333
  31 H :    0.032932
  32 H :    0.022589
  33 H :    0.023092

  Mayer bond orders larger than 0.100000
B(  0-S ,  1-C ) :   1.1406 B(  0-S ,  4-C ) :   1.1442 B(  1-C ,  2-C ) :   1.6173
B(  1-C ,  4-C ) :   0.1018 B(  1-C , 32-H ) :   0.9660 B(  2-C ,  3-C ) :   1.2294
B(  2-C ,  6-C ) :   1.0121 B(  3-C ,  4-C ) :   1.6216 B(  3-C ,  5-H ) :   0.9918
B(  4-C , 20-C ) :   1.0062 B(  6-C ,  7-H ) :   0.9420 B(  6-C ,  8-H ) :   0.9575
B(  6-C ,  9-C ) :   1.0499 B(  9-C , 10-H ) :   0.9482 B(  9-C , 11-H ) :   0.9650
B(  9-C , 12-C ) :   1.0928 B( 12-C , 13-H ) :   0.9741 B( 12-C , 14-H ) :   0.9720
B( 12-C , 15-H ) :   0.9717 B( 16-S , 17-C ) :   1.1673 B( 16-S , 20-C ) :   1.1187
B( 17-C , 18-C ) :   1.5901 B( 17-C , 33-H ) :   0.9676 B( 18-C , 19-C ) :   1.2192
B( 18-C , 21-H ) :   1.0024 B( 19-C , 20-C ) :   1.6466 B( 19-C , 22-C ) :   1.0647
B( 22-C , 23-H ) :   0.9334 B( 22-C , 24-H ) :   0.9390 B( 22-C , 25-C ) :   1.0648
B( 25-C , 26-H ) :   0.9506 B( 25-C , 27-H ) :   0.9557 B( 25-C , 28-C ) :   1.0790
B( 28-C , 29-H ) :   0.9758 B( 28-C , 30-H ) :   0.9651 B( 28-C , 31-H ) :   0.9708

Dispersion correction           -0.015079165
FINAL SINGLE POINT ENERGY     -1339.865968630342

DIPOLE MOMENT
-------------
                                X             Y             Z
Electronic contribution:      0.07390      -2.52213      21.60034
Nuclear contribution   :      0.17017       2.46900     -22.11101
                        -----------------------------------------
Total Dipole Moment    :      0.24407      -0.05313      -0.51067
                        -----------------------------------------
Magnitude (a.u.)       :      0.56849
Magnitude (Debye)      :      1.44498

Rotational constants in cm-1:     0.023452     0.007413     0.007001
Rotational constants in MHz :   703.067515   222.238212   209.878837

                             ****ORCA TERMINATED NORMALLY****
TOTAL RUN TIME: 0 days 0 hours 0 minutes 22 seconds 192 msec
