                         Program Version 4.2.1 -  RELEASE  -
|  1> ! wB97X-D3 SP def2-SVP
|  2> %pal
|  3> nprocs 24
|  4> end
|  5>
|  6> * xyz 0 1
|  7> S 	 -67.411 	 18.563 	 -116.103
|  8> C 	 -68.0525 	 18.6792 	 -117.719
|  9> C 	 -67.0447 	 18.6509 	 -118.664
| 10> C 	 -65.7352 	 18.5497 	 -118.041
| 11> C 	 -65.7403 	 18.4728 	 -116.687
| 12> H 	 -64.7705 	 18.4599 	 -118.503
| 13> C 	 -67.3439 	 18.65 	 -120.196
| 14> H 	 -67.2649 	 19.6727 	 -120.548
| 15> H 	 -68.331 	 18.3389 	 -120.412
| 16> C 	 -66.2565 	 17.8873 	 -121.035
| 17> H 	 -65.2079 	 18.2819 	 -120.928
| 18> H 	 -66.0889 	 16.8934 	 -120.586
| 19> C 	 -66.5788 	 17.775 	 -122.525
| 20> H 	 -67.4551 	 17.2391 	 -122.718
| 21> H 	 -66.6584 	 18.7326 	 -122.978
| 22> H 	 -65.7009 	 17.3446 	 -122.962
| 23> S 	 -64.2912 	 16.6151 	 -115.381
| 24> C 	 -62.707 	 17.0176 	 -114.511
| 25> C 	 -62.4936 	 18.3231 	 -114.748
| 26> C 	 -63.5077 	 19.0991 	 -115.443
| 27> C 	 -64.5397 	 18.2914 	 -115.849
| 28> H 	 -61.5406 	 18.6704 	 -114.339
| 29> C 	 -63.3965 	 20.613 	 -115.692
| 30> H 	 -63.8024 	 20.7948 	 -116.702
| 31> H 	 -62.4279 	 21.0696 	 -115.739
| 32> C 	 -64.3952 	 21.5025 	 -114.847
| 33> H 	 -64.2499 	 21.261 	 -113.818
| 34> H 	 -65.3799 	 21.0615 	 -114.987
| 35> C 	 -64.4326 	 22.9946 	 -115.137
| 36> H 	 -64.7254 	 23.0147 	 -116.203
| 37> H 	 -63.5425 	 23.4894 	 -115.078
| 38> H 	 -65.1649 	 23.4766 	 -114.506
| 39> H 	 -69.0758 	 18.7663 	 -118.022
| 40> H 	 -62.0727 	 16.2571 	 -113.994
| 41> *
| 42>
| 43>                          ****END OF INPUT****

CARTESIAN COORDINATES (ANGSTROEM)
---------------------------------
  S    -67.411000   18.563000  -116.103000
  C    -68.052500   18.679200  -117.719000
  C    -67.044700   18.650900  -118.664000
  C    -65.735200   18.549700  -118.041000
  C    -65.740300   18.472800  -116.687000
  H    -64.770500   18.459900  -118.503000
  C    -67.343900   18.650000  -120.196000
  H    -67.264900   19.672700  -120.548000
  H    -68.331000   18.338900  -120.412000
  C    -66.256500   17.887300  -121.035000
  H    -65.207900   18.281900  -120.928000
  H    -66.088900   16.893400  -120.586000
  C    -66.578800   17.775000  -122.525000
  H    -67.455100   17.239100  -122.718000
  H    -66.658400   18.732600  -122.978000
  H    -65.700900   17.344600  -122.962000
  S    -64.291200   16.615100  -115.381000
  C    -62.707000   17.017600  -114.511000
  C    -62.493600   18.323100  -114.748000
  C    -63.507700   19.099100  -115.443000
  C    -64.539700   18.291400  -115.849000
  H    -61.540600   18.670400  -114.339000
  C    -63.396500   20.613000  -115.692000
  H    -63.802400   20.794800  -116.702000
  H    -62.427900   21.069600  -115.739000
  C    -64.395200   21.502500  -114.847000
  H    -64.249900   21.261000  -113.818000
  H    -65.379900   21.061500  -114.987000
  C    -64.432600   22.994600  -115.137000
  H    -64.725400   23.014700  -116.203000
  H    -63.542500   23.489400  -115.078000
  H    -65.164900   23.476600  -114.506000
  H    -69.075800   18.766300  -118.022000
  H    -62.072700   16.257100  -113.994000

 Total Charge           Charge          ....    0
 Multiplicity           Mult            ....    1
 Number of Electrons    NEL             ....  134
 Basis Dimension        Dim             ....  322

ORBITAL ENERGIES
----------------

  NO   OCC          E(Eh)            E(eV)
   0   2.0000     -88.966878     -2420.9118
   1   2.0000     -88.957670     -2420.6613
   2   2.0000     -10.331580      -281.1366
   3   2.0000     -10.330011      -281.0939
   4   2.0000     -10.325774      -280.9786
   5   2.0000     -10.313523      -280.6452
   6   2.0000     -10.312836      -280.6265
   7   2.0000     -10.306500      -280.4541
   8   2.0000     -10.297077      -280.1977
   9   2.0000     -10.295937      -280.1667
  10   2.0000     -10.294685      -280.1326
  11   2.0000     -10.294242      -280.1206
  12   2.0000     -10.292032      -280.0604
  13   2.0000     -10.278282      -279.6863
  14   2.0000     -10.270278      -279.4685
  15   2.0000     -10.270261      -279.4680
  16   2.0000      -8.081018      -219.8957
  17   2.0000      -8.071516      -219.6371
  18   2.0000      -6.039679      -164.3480
  19   2.0000      -6.035562      -164.2360
  20   2.0000      -6.031679      -164.1303
  21   2.0000      -6.030263      -164.0918
  22   2.0000      -6.026151      -163.9799
  23   2.0000      -6.022040      -163.8680
  24   2.0000      -1.003065       -27.2948
  25   2.0000      -0.979292       -26.6479
  26   2.0000      -0.905043       -24.6275
  27   2.0000      -0.900195       -24.4955
  28   2.0000      -0.874260       -23.7898
  29   2.0000      -0.846377       -23.0311
  30   2.0000      -0.843101       -22.9420
  31   2.0000      -0.822995       -22.3948
  32   2.0000      -0.781492       -21.2655
  33   2.0000      -0.772978       -21.0338
  34   2.0000      -0.712291       -19.3824
  35   2.0000      -0.698432       -19.0053
  36   2.0000      -0.690256       -18.7828
  37   2.0000      -0.657896       -17.9022
  38   2.0000      -0.647354       -17.6154
  39   2.0000      -0.615653       -16.7528
  40   2.0000      -0.594398       -16.1744
  41   2.0000      -0.567160       -15.4332
  42   2.0000      -0.563239       -15.3265
  43   2.0000      -0.557477       -15.1697
  44   2.0000      -0.529912       -14.4196
  45   2.0000      -0.526885       -14.3373
  46   2.0000      -0.523642       -14.2490
  47   2.0000      -0.508345       -13.8328
  48   2.0000      -0.504595       -13.7307
  49   2.0000      -0.500641       -13.6231
  50   2.0000      -0.497877       -13.5479
  51   2.0000      -0.481525       -13.1030
  52   2.0000      -0.474649       -12.9159
  53   2.0000      -0.462487       -12.5849
  54   2.0000      -0.459867       -12.5136
  55   2.0000      -0.452210       -12.3053
  56   2.0000      -0.444953       -12.1078
  57   2.0000      -0.436230       -11.8704
  58   2.0000      -0.428682       -11.6650
  59   2.0000      -0.417163       -11.3516
  60   2.0000      -0.413803       -11.2601
  61   2.0000      -0.413440       -11.2503
  62   2.0000      -0.406892       -11.0721
  63   2.0000      -0.341634        -9.2963
  64   2.0000      -0.329773        -8.9736
  65   2.0000      -0.321907        -8.7595
  66   2.0000      -0.311798        -8.4845
  67   0.0000       0.042947         1.1687
  68   0.0000       0.056872         1.5476
  69   0.0000       0.111213         3.0263
  70   0.0000       0.126226         3.4348
  71   0.0000       0.131609         3.5813

MULLIKEN ATOMIC CHARGES
-----------------------
   0 S :    0.119004
   1 C :   -0.111578
   2 C :   -0.090082
   3 C :    0.060191
   4 C :   -0.173247
   5 H :    0.008927
   6 C :    0.117149
   7 H :    0.033164
   8 H :    0.012838
   9 C :   -0.159762
  10 H :    0.035181
  11 H :    0.032440
  12 C :    0.017731
  13 H :    0.027150
  14 H :    0.016468
  15 H :    0.026594
  16 S :    0.070212
  17 C :   -0.118391
  18 C :   -0.036622
  19 C :    0.018443
  20 C :   -0.186433
  21 H :    0.023304
  22 C :    0.072255
  23 H :    0.015039
  24 H :    0.020053
  25 C :   -0.086471
  26 H :    0.012129
  27 H :    0.017254
  28 C :    0.006765
  29 H :    0.025646
  30 H :    0.012958
  31 H :    0.040146
  32 H :    0.039466
  33 H :    0.082078
Sum of atomic charges:   -0.0000000

LOEWDIN ATOMIC CHARGES
----------------------
   0 S :    0.399519
   1 C :   -0.195307
   2 C :   -0.059926
   3 C :   -0.056721
   4 C :   -0.198638
   5 H :    0.031429
   6 C :   -0.023542
   7 H :    0.032846
   8 H :    0.022692
   9 C :   -0.048196
  10 H :    0.027399
  11 H :    0.023063
  12 C :   -0.053824
  13 H :    0.018260
  14 H :    0.021115
  15 H :    0.029340
  16 S :    0.353990
  17 C :   -0.159884
  18 C :   -0.073032
  19 C :   -0.054342
  20 C :   -0.183883
  21 H :    0.034579
  22 C :   -0.031643
  23 H :    0.032433
  24 H :    0.024556
  25 C :   -0.039765
  26 H :    0.012781
  27 H :    0.021396
  28 C :   -0.054031
  29 H :    0.031802
  30 H :    0.010225
  31 H :    0.032115
  32 H :    0.028168
  33 H :    0.045024

  Mayer bond orders larger than 0.100000
B(  0-S ,  1-C ) :   1.1367 B(  0-S ,  4-C ) :   1.1276 B(  1-C ,  2-C ) :   1.6399
B(  1-C , 32-H ) :   0.9703 B(  2-C ,  3-C ) :   1.2079 B(  2-C ,  6-C ) :   1.0126
B(  3-C ,  4-C ) :   1.6280 B(  3-C ,  5-H ) :   0.9923 B(  4-C , 20-C ) :   0.9914
B(  6-C ,  7-H ) :   0.9324 B(  6-C ,  8-H ) :   0.9499 B(  6-C ,  9-C ) :   1.0568
B(  9-C , 10-H ) :   0.9503 B(  9-C , 11-H ) :   0.9612 B(  9-C , 12-C ) :   1.0888
B( 12-C , 13-H ) :   0.9760 B( 12-C , 14-H ) :   0.9719 B( 12-C , 15-H ) :   0.9705
B( 16-S , 17-C ) :   1.1007 B( 16-S , 20-C ) :   1.1488 B( 17-C , 18-C ) :   1.6696
B( 17-C , 33-H ) :   0.9654 B( 18-C , 19-C ) :   1.1781 B( 18-C , 21-H ) :   0.9851
B( 19-C , 20-C ) :   1.6420 B( 19-C , 22-C ) :   1.0440 B( 22-C , 23-H ) :   0.9289
B( 22-C , 24-H ) :   0.9471 B( 22-C , 25-C ) :   1.0485 B( 25-C , 26-H ) :   0.9553
B( 25-C , 27-H ) :   0.9546 B( 25-C , 28-C ) :   1.0803 B( 28-C , 29-H ) :   0.9727
B( 28-C , 30-H ) :   0.9765 B( 28-C , 31-H ) :   0.9711

Dispersion correction           -0.013954483
FINAL SINGLE POINT ENERGY     -1339.867506795607

DIPOLE MOMENT
-------------
                                X             Y             Z
Electronic contribution:     -2.21595     -14.84718      17.31777
Nuclear contribution   :      2.50082      15.17512     -17.81370
                        -----------------------------------------
Total Dipole Moment    :      0.28487       0.32794      -0.49593
                        -----------------------------------------
Magnitude (a.u.)       :      0.65928
Magnitude (Debye)      :      1.67575

Rotational constants in cm-1:     0.016965     0.007975     0.007019
Rotational constants in MHz :   508.604596   239.084633   210.421430

                             ****ORCA TERMINATED NORMALLY****
TOTAL RUN TIME: 0 days 0 hours 0 minutes 20 seconds 15 msec
