                         Program Version 4.2.1 -  RELEASE  -
|  1> ! wB97X-D3 SP def2-SVP
|  2> %pal
|  3> nprocs 24
|  4> end
|  5>
|  6> * xyz 0 1
|  7> S 	 -46.298 	 -6.42216 	 -8.46566
|  8> C 	 -46.1309 	 -5.21935 	 -7.12319
|  9> C 	 -46.6653 	 -4.00582 	 -7.52219
| 10> C 	 -47.3602 	 -4.10566 	 -8.75238
| 11> C 	 -47.3818 	 -5.37919 	 -9.37322
| 12> H 	 -47.9075 	 -3.28901 	 -9.12782
| 13> C 	 -46.5649 	 -2.74615 	 -6.69636
| 14> H 	 -46.967 	 -1.91915 	 -7.24183
| 15> H 	 -45.4942 	 -2.5592 	 -6.55602
| 16> C 	 -47.2424 	 -2.92034 	 -5.28441
| 17> H 	 -48.2654 	 -3.25522 	 -5.44243
| 18> H 	 -46.7088 	 -3.76795 	 -4.77483
| 19> C 	 -47.1087 	 -1.68258 	 -4.32616
| 20> H 	 -47.3947 	 -0.682052 	 -4.63081
| 21> H 	 -47.6227 	 -1.85076 	 -3.35884
| 22> H 	 -46.0189 	 -1.50492 	 -4.15965
| 23> S 	 -48.0086 	 -4.66588 	 -11.9659
| 24> C 	 -49.072 	 -5.76053 	 -12.8396
| 25> C 	 -49.3164 	 -6.94098 	 -12.1699
| 26> C 	 -48.732 	 -6.95717 	 -10.8992
| 27> C 	 -48.0166 	 -5.77667 	 -10.6002
| 28> H 	 -49.9886 	 -7.66766 	 -12.6885
| 29> C 	 -49.0218 	 -8.10139 	 -9.92839
| 30> H 	 -48.1197 	 -8.54334 	 -9.5296
| 31> H 	 -49.4397 	 -9.0131 	 -10.4226
| 32> C 	 -50.0514 	 -7.82927 	 -8.82316
| 33> H 	 -51.0834 	 -7.84006 	 -9.20862
| 34> H 	 -50.0487 	 -6.85836 	 -8.42603
| 35> C 	 -50.0688 	 -8.66586 	 -7.57636
| 36> H 	 -50.6863 	 -8.32287 	 -6.7254
| 37> H 	 -48.9923 	 -8.6369 	 -7.25855
| 38> H 	 -50.3648 	 -9.73665 	 -7.74865
| 39> H 	 -45.5024 	 -5.4237 	 -6.24099
| 40> H 	 -49.6185 	 -5.5492 	 -13.7812
| 41> *
| 42>
| 43>                          ****END OF INPUT****

CARTESIAN COORDINATES (ANGSTROEM)
---------------------------------
  S    -46.298000   -6.422160   -8.465660
  C    -46.130900   -5.219350   -7.123190
  C    -46.665300   -4.005820   -7.522190
  C    -47.360200   -4.105660   -8.752380
  C    -47.381800   -5.379190   -9.373220
  H    -47.907500   -3.289010   -9.127820
  C    -46.564900   -2.746150   -6.696360
  H    -46.967000   -1.919150   -7.241830
  H    -45.494200   -2.559200   -6.556020
  C    -47.242400   -2.920340   -5.284410
  H    -48.265400   -3.255220   -5.442430
  H    -46.708800   -3.767950   -4.774830
  C    -47.108700   -1.682580   -4.326160
  H    -47.394700   -0.682052   -4.630810
  H    -47.622700   -1.850760   -3.358840
  H    -46.018900   -1.504920   -4.159650
  S    -48.008600   -4.665880  -11.965900
  C    -49.072000   -5.760530  -12.839600
  C    -49.316400   -6.940980  -12.169900
  C    -48.732000   -6.957170  -10.899200
  C    -48.016600   -5.776670  -10.600200
  H    -49.988600   -7.667660  -12.688500
  C    -49.021800   -8.101390   -9.928390
  H    -48.119700   -8.543340   -9.529600
  H    -49.439700   -9.013100  -10.422600
  C    -50.051400   -7.829270   -8.823160
  H    -51.083400   -7.840060   -9.208620
  H    -50.048700   -6.858360   -8.426030
  C    -50.068800   -8.665860   -7.576360
  H    -50.686300   -8.322870   -6.725400
  H    -48.992300   -8.636900   -7.258550
  H    -50.364800   -9.736650   -7.748650
  H    -45.502400   -5.423700   -6.240990
  H    -49.618500   -5.549200  -13.781200

 Total Charge           Charge          ....    0
 Multiplicity           Mult            ....    1
 Number of Electrons    NEL             ....  134
 Basis Dimension        Dim             ....  322

ORBITAL ENERGIES
----------------

  NO   OCC          E(Eh)            E(eV)
   0   2.0000     -88.973242     -2421.0850
   1   2.0000     -88.966448     -2420.9001
   2   2.0000     -10.334863      -281.2259
   3   2.0000     -10.331236      -281.1272
   4   2.0000     -10.320265      -280.8287
   5   2.0000     -10.319830      -280.8169
   6   2.0000     -10.308918      -280.5199
   7   2.0000     -10.302033      -280.3326
   8   2.0000     -10.299032      -280.2509
   9   2.0000     -10.296640      -280.1858
  10   2.0000     -10.294610      -280.1306
  11   2.0000     -10.293588      -280.1028
  12   2.0000     -10.293366      -280.0967
  13   2.0000     -10.286526      -279.9106
  14   2.0000     -10.277470      -279.6642
  15   2.0000     -10.273786      -279.5639
  16   2.0000      -8.087209      -220.0641
  17   2.0000      -8.079794      -219.8624
  18   2.0000      -6.045640      -164.5102
  19   2.0000      -6.041853      -164.4072
  20   2.0000      -6.038339      -164.3115
  21   2.0000      -6.038075      -164.3044
  22   2.0000      -6.034452      -164.2058
  23   2.0000      -6.030637      -164.1020
  24   2.0000      -1.004600       -27.3366
  25   2.0000      -0.980672       -26.6854
  26   2.0000      -0.907842       -24.7036
  27   2.0000      -0.905358       -24.6360
  28   2.0000      -0.867245       -23.5989
  29   2.0000      -0.854268       -23.2458
  30   2.0000      -0.841475       -22.8977
  31   2.0000      -0.810905       -22.0658
  32   2.0000      -0.784049       -21.3351
  33   2.0000      -0.768650       -20.9160
  34   2.0000      -0.708784       -19.2870
  35   2.0000      -0.704445       -19.1689
  36   2.0000      -0.688409       -18.7326
  37   2.0000      -0.661774       -18.0078
  38   2.0000      -0.635583       -17.2951
  39   2.0000      -0.617267       -16.7967
  40   2.0000      -0.598450       -16.2846
  41   2.0000      -0.567934       -15.4543
  42   2.0000      -0.558845       -15.2069
  43   2.0000      -0.553489       -15.0612
  44   2.0000      -0.523561       -14.2468
  45   2.0000      -0.520929       -14.1752
  46   2.0000      -0.518430       -14.1072
  47   2.0000      -0.510673       -13.8961
  48   2.0000      -0.508358       -13.8331
  49   2.0000      -0.496852       -13.5200
  50   2.0000      -0.492533       -13.4025
  51   2.0000      -0.475246       -12.9321
  52   2.0000      -0.469703       -12.7813
  53   2.0000      -0.467606       -12.7242
  54   2.0000      -0.455857       -12.4045
  55   2.0000      -0.449061       -12.2196
  56   2.0000      -0.440431       -11.9847
  57   2.0000      -0.437563       -11.9067
  58   2.0000      -0.434513       -11.8237
  59   2.0000      -0.422113       -11.4863
  60   2.0000      -0.420244       -11.4354
  61   2.0000      -0.417086       -11.3495
  62   2.0000      -0.398331       -10.8391
  63   2.0000      -0.346834        -9.4378
  64   2.0000      -0.338597        -9.2137
  65   2.0000      -0.330279        -8.9874
  66   2.0000      -0.285710        -7.7746
  67   0.0000       0.014234         0.3873
  68   0.0000       0.074447         2.0258
  69   0.0000       0.103771         2.8238
  70   0.0000       0.112949         3.0735
  71   0.0000       0.129494         3.5237

MULLIKEN ATOMIC CHARGES
-----------------------
   0 S :    0.098160
   1 C :   -0.161967
   2 C :   -0.077161
   3 C :    0.024921
   4 C :   -0.138026
   5 H :   -0.011109
   6 C :    0.093033
   7 H :    0.015050
   8 H :    0.035531
   9 C :   -0.100084
  10 H :    0.040882
  11 H :    0.038013
  12 C :   -0.056806
  13 H :    0.027294
  14 H :    0.045913
  15 H :    0.026238
  16 S :    0.128464
  17 C :   -0.112838
  18 C :   -0.053925
  19 C :   -0.001790
  20 C :   -0.148616
  21 H :    0.040019
  22 C :    0.072478
  23 H :    0.021218
  24 H :    0.021115
  25 C :   -0.042610
  26 H :    0.013182
  27 H :    0.016503
  28 C :   -0.089405
  29 H :    0.042984
  30 H :    0.032036
  31 H :    0.029979
  32 H :    0.065700
  33 H :    0.065623
Sum of atomic charges:   -0.0000000

LOEWDIN ATOMIC CHARGES
----------------------
   0 S :    0.390335
   1 C :   -0.185984
   2 C :   -0.062230
   3 C :   -0.065711
   4 C :   -0.187821
   5 H :    0.019270
   6 C :   -0.027129
   7 H :    0.024318
   8 H :    0.034639
   9 C :   -0.035722
  10 H :    0.024053
  11 H :    0.029722
  12 C :   -0.078262
  13 H :    0.021429
  14 H :    0.031853
  15 H :    0.029127
  16 S :    0.412826
  17 C :   -0.189727
  18 C :   -0.074831
  19 C :   -0.050060
  20 C :   -0.199306
  21 H :    0.044967
  22 C :   -0.036078
  23 H :    0.022898
  24 H :    0.037811
  25 C :   -0.050045
  26 H :    0.022513
  27 H :    0.020274
  28 C :   -0.072584
  29 H :    0.030768
  30 H :    0.028193
  31 H :    0.021223
  32 H :    0.032155
  33 H :    0.037116

  Mayer bond orders larger than 0.100000
B(  0-S ,  1-C ) :   1.1331 B(  0-S ,  4-C ) :   1.1559 B(  1-C ,  2-C ) :   1.5716
B(  1-C ,  4-C ) :   0.1062 B(  1-C , 32-H ) :   0.9686 B(  2-C ,  3-C ) :   1.2830
B(  2-C ,  6-C ) :   1.0250 B(  3-C ,  4-C ) :   1.5126 B(  3-C ,  5-H ) :   0.9997
B(  4-C , 20-C ) :   1.0964 B(  6-C ,  7-H ) :   0.9436 B(  6-C ,  8-H ) :   0.9342
B(  6-C ,  9-C ) :   1.0526 B(  9-C , 10-H ) :   0.9629 B(  9-C , 11-H ) :   0.9558
B(  9-C , 12-C ) :   1.0663 B( 12-C , 13-H ) :   0.9789 B( 12-C , 14-H ) :   0.9762
B( 12-C , 15-H ) :   0.9730 B( 16-S , 17-C ) :   1.1557 B( 16-S , 20-C ) :   1.1420
B( 17-C , 18-C ) :   1.6131 B( 17-C , 20-C ) :   0.1005 B( 17-C , 33-H ) :   0.9579
B( 18-C , 19-C ) :   1.2700 B( 18-C , 21-H ) :   0.9829 B( 19-C , 20-C ) :   1.5360
B( 19-C , 22-C ) :   1.0459 B( 22-C , 23-H ) :   0.9352 B( 22-C , 24-H ) :   0.9348
B( 22-C , 25-C ) :   1.0409 B( 25-C , 26-H ) :   0.9496 B( 25-C , 27-H ) :   0.9582
B( 25-C , 28-C ) :   1.0821 B( 28-C , 29-H ) :   0.9730 B( 28-C , 30-H ) :   0.9732
B( 28-C , 31-H ) :   0.9756

Dispersion correction           -0.014279823
FINAL SINGLE POINT ENERGY     -1339.875008297606

DIPOLE MOMENT
-------------
                                X             Y             Z
Electronic contribution:      8.24010      -1.48770     -23.26110
Nuclear contribution   :     -8.52299       1.70410      23.49202
                        -----------------------------------------
Total Dipole Moment    :     -0.28289       0.21640       0.23092
                        -----------------------------------------
Magnitude (a.u.)       :      0.42448
Magnitude (Debye)      :      1.07894

Rotational constants in cm-1:     0.019674     0.007951     0.006586
Rotational constants in MHz :   589.809009   238.361468   197.435198

                             ****ORCA TERMINATED NORMALLY****
TOTAL RUN TIME: 0 days 0 hours 0 minutes 21 seconds 140 msec
