                         Program Version 4.2.1 -  RELEASE  -
|  1> ! wB97X-D3 SP def2-SVP
|  2> %pal
|  3> nprocs 24
|  4> end
|  5>
|  6> * xyz 0 1
|  7> S 	 -86.1737 	 -28.8546 	 -60.2925
|  8> C 	 -87.2918 	 -27.5577 	 -59.9358
|  9> C 	 -88.0542 	 -27.7702 	 -58.7603
| 10> C 	 -87.5816 	 -28.9395 	 -58.1229
| 11> C 	 -86.6032 	 -29.6836 	 -58.7407
| 12> H 	 -87.8727 	 -29.2097 	 -57.1558
| 13> C 	 -88.98 	 -26.8052 	 -58.1268
| 14> H 	 -88.7199 	 -26.5885 	 -57.0492
| 15> H 	 -89.9732 	 -27.2095 	 -58.1936
| 16> C 	 -89.0038 	 -25.3593 	 -58.6881
| 17> H 	 -89.4136 	 -24.5845 	 -58.0018
| 18> H 	 -87.913 	 -25.0308 	 -58.6807
| 19> C 	 -89.6096 	 -25.1082 	 -60.0622
| 20> H 	 -89.1748 	 -24.1129 	 -60.3573
| 21> H 	 -89.3415 	 -25.8276 	 -60.8643
| 22> H 	 -90.7015 	 -25.1287 	 -59.8759
| 23> S 	 -86.9207 	 -32.367 	 -58.4716
| 24> C 	 -85.6307 	 -33.3699 	 -57.8483
| 25> C 	 -84.4866 	 -32.6215 	 -57.6944
| 26> C 	 -84.6995 	 -31.2205 	 -57.8521
| 27> C 	 -85.9769 	 -30.9233 	 -58.2786
| 28> H 	 -83.4347 	 -33.0078 	 -57.5536
| 29> C 	 -83.5884 	 -30.2359 	 -57.823
| 30> H 	 -83.651 	 -29.6411 	 -58.7316
| 31> H 	 -82.6514 	 -30.7117 	 -57.7446
| 32> C 	 -83.8154 	 -29.2645 	 -56.5937
| 33> H 	 -84.8086 	 -28.7465 	 -56.6191
| 34> H 	 -82.9584 	 -28.5557 	 -56.6854
| 35> C 	 -83.697 	 -29.9825 	 -55.2772
| 36> H 	 -83.5493 	 -29.2646 	 -54.4262
| 37> H 	 -82.8826 	 -30.66 	 -55.2438
| 38> H 	 -84.5631 	 -30.5044 	 -54.8855
| 39> H 	 -87.2456 	 -26.6202 	 -60.3802
| 40> H 	 -85.6748 	 -34.4327 	 -57.8691
| 41> *
| 42>
| 43>                          ****END OF INPUT****

CARTESIAN COORDINATES (ANGSTROEM)
---------------------------------
  S    -86.173700  -28.854600  -60.292500
  C    -87.291800  -27.557700  -59.935800
  C    -88.054200  -27.770200  -58.760300
  C    -87.581600  -28.939500  -58.122900
  C    -86.603200  -29.683600  -58.740700
  H    -87.872700  -29.209700  -57.155800
  C    -88.980000  -26.805200  -58.126800
  H    -88.719900  -26.588500  -57.049200
  H    -89.973200  -27.209500  -58.193600
  C    -89.003800  -25.359300  -58.688100
  H    -89.413600  -24.584500  -58.001800
  H    -87.913000  -25.030800  -58.680700
  C    -89.609600  -25.108200  -60.062200
  H    -89.174800  -24.112900  -60.357300
  H    -89.341500  -25.827600  -60.864300
  H    -90.701500  -25.128700  -59.875900
  S    -86.920700  -32.367000  -58.471600
  C    -85.630700  -33.369900  -57.848300
  C    -84.486600  -32.621500  -57.694400
  C    -84.699500  -31.220500  -57.852100
  C    -85.976900  -30.923300  -58.278600
  H    -83.434700  -33.007800  -57.553600
  C    -83.588400  -30.235900  -57.823000
  H    -83.651000  -29.641100  -58.731600
  H    -82.651400  -30.711700  -57.744600
  C    -83.815400  -29.264500  -56.593700
  H    -84.808600  -28.746500  -56.619100
  H    -82.958400  -28.555700  -56.685400
  C    -83.697000  -29.982500  -55.277200
  H    -83.549300  -29.264600  -54.426200
  H    -82.882600  -30.660000  -55.243800
  H    -84.563100  -30.504400  -54.885500
  H    -87.245600  -26.620200  -60.380200
  H    -85.674800  -34.432700  -57.869100

 Total Charge           Charge          ....    0
 Multiplicity           Mult            ....    1
 Number of Electrons    NEL             ....  134
 Basis Dimension        Dim             ....  322

ORBITAL ENERGIES
----------------

  NO   OCC          E(Eh)            E(eV)
   0   2.0000     -88.967120     -2420.9184
   1   2.0000     -88.963518     -2420.8204
   2   2.0000     -10.331729      -281.1406
   3   2.0000     -10.321142      -280.8526
   4   2.0000     -10.316008      -280.7129
   5   2.0000     -10.314157      -280.6625
   6   2.0000     -10.303342      -280.3682
   7   2.0000     -10.297679      -280.2141
   8   2.0000     -10.297265      -280.2028
   9   2.0000     -10.296947      -280.1942
  10   2.0000     -10.295122      -280.1445
  11   2.0000     -10.290262      -280.0123
  12   2.0000     -10.289155      -279.9821
  13   2.0000     -10.286664      -279.9143
  14   2.0000     -10.284990      -279.8688
  15   2.0000     -10.269580      -279.4495
  16   2.0000      -8.080624      -219.8849
  17   2.0000      -8.078634      -219.8308
  18   2.0000      -6.039155      -164.3338
  19   2.0000      -6.037120      -164.2784
  20   2.0000      -6.035259      -164.2278
  21   2.0000      -6.033028      -164.1670
  22   2.0000      -6.031487      -164.1251
  23   2.0000      -6.029446      -164.0696
  24   2.0000      -1.005614       -27.3641
  25   2.0000      -0.982905       -26.7462
  26   2.0000      -0.912226       -24.8229
  27   2.0000      -0.909034       -24.7361
  28   2.0000      -0.866456       -23.5775
  29   2.0000      -0.853179       -23.2162
  30   2.0000      -0.846498       -23.0344
  31   2.0000      -0.813657       -22.1407
  32   2.0000      -0.783722       -21.3262
  33   2.0000      -0.772729       -21.0270
  34   2.0000      -0.706477       -19.2242
  35   2.0000      -0.697771       -18.9873
  36   2.0000      -0.686785       -18.6884
  37   2.0000      -0.666101       -18.1255
  38   2.0000      -0.643775       -17.5180
  39   2.0000      -0.613378       -16.6909
  40   2.0000      -0.594567       -16.1790
  41   2.0000      -0.576506       -15.6875
  42   2.0000      -0.557590       -15.1728
  43   2.0000      -0.550504       -14.9800
  44   2.0000      -0.539857       -14.6903
  45   2.0000      -0.533953       -14.5296
  46   2.0000      -0.521999       -14.2043
  47   2.0000      -0.515838       -14.0367
  48   2.0000      -0.504234       -13.7209
  49   2.0000      -0.494484       -13.4556
  50   2.0000      -0.486280       -13.2324
  51   2.0000      -0.480207       -13.0671
  52   2.0000      -0.478544       -13.0219
  53   2.0000      -0.467780       -12.7289
  54   2.0000      -0.460216       -12.5231
  55   2.0000      -0.445719       -12.1286
  56   2.0000      -0.439549       -11.9607
  57   2.0000      -0.433864       -11.8060
  58   2.0000      -0.432487       -11.7686
  59   2.0000      -0.427577       -11.6350
  60   2.0000      -0.419916       -11.4265
  61   2.0000      -0.407133       -11.0786
  62   2.0000      -0.405416       -11.0319
  63   2.0000      -0.335815        -9.1380
  64   2.0000      -0.331310        -9.0154
  65   2.0000      -0.318535        -8.6678
  66   2.0000      -0.304357        -8.2820
  67   0.0000       0.032436         0.8826
  68   0.0000       0.057312         1.5595
  69   0.0000       0.108298         2.9469
  70   0.0000       0.115615         3.1460
  71   0.0000       0.124146         3.3782

MULLIKEN ATOMIC CHARGES
-----------------------
   0 S :    0.109880
   1 C :   -0.102929
   2 C :   -0.079820
   3 C :    0.059284
   4 C :   -0.163188
   5 H :   -0.013761
   6 C :    0.082703
   7 H :    0.051643
   8 H :    0.037426
   9 C :   -0.160838
  10 H :    0.037116
  11 H :    0.027713
  12 C :   -0.072233
  13 H :    0.044961
  14 H :    0.047602
  15 H :    0.046572
  16 S :    0.117622
  17 C :   -0.081682
  18 C :   -0.046590
  19 C :   -0.045861
  20 C :   -0.189760
  21 H :    0.037622
  22 C :    0.111313
  23 H :    0.029832
  24 H :    0.004287
  25 C :   -0.091045
  26 H :    0.054667
  27 H :    0.034892
  28 C :   -0.048991
  29 H :    0.027035
  30 H :    0.013225
  31 H :    0.033376
  32 H :    0.035717
  33 H :    0.052209
Sum of atomic charges:    0.0000000

LOEWDIN ATOMIC CHARGES
----------------------
   0 S :    0.383215
   1 C :   -0.184578
   2 C :   -0.061765
   3 C :   -0.047392
   4 C :   -0.183696
   5 H :    0.021878
   6 C :   -0.037171
   7 H :    0.046080
   8 H :    0.032148
   9 C :   -0.059269
  10 H :    0.030437
  11 H :    0.023236
  12 C :   -0.077076
  13 H :    0.036447
  14 H :    0.026099
  15 H :    0.030735
  16 S :    0.423221
  17 C :   -0.182117
  18 C :   -0.076319
  19 C :   -0.054505
  20 C :   -0.214320
  21 H :    0.040455
  22 C :   -0.023659
  23 H :    0.029012
  24 H :    0.020659
  25 C :   -0.036450
  26 H :    0.033464
  27 H :    0.026490
  28 C :   -0.074446
  29 H :    0.031498
  30 H :    0.015284
  31 H :    0.026007
  32 H :    0.012651
  33 H :    0.023750

  Mayer bond orders larger than 0.100000
B(  0-S ,  1-C ) :   1.1569 B(  0-S ,  4-C ) :   1.1129 B(  1-C ,  2-C ) :   1.5954
B(  1-C ,  4-C ) :   0.1021 B(  1-C , 32-H ) :   0.9561 B(  2-C ,  3-C ) :   1.2583
B(  2-C ,  6-C ) :   1.0191 B(  3-C ,  4-C ) :   1.5984 B(  3-C ,  5-H ) :   1.0008
B(  4-C , 20-C ) :   1.0265 B(  6-C ,  7-H ) :   0.9445 B(  6-C ,  8-H ) :   0.9261
B(  6-C ,  9-C ) :   1.0674 B(  9-C , 10-H ) :   0.9574 B(  9-C , 11-H ) :   0.9576
B(  9-C , 12-C ) :   1.0620 B( 12-C , 13-H ) :   0.9730 B( 12-C , 14-H ) :   0.9771
B( 12-C , 15-H ) :   0.9745 B( 16-S , 17-C ) :   1.1687 B( 16-S , 20-C ) :   1.1592
B( 17-C , 18-C ) :   1.5781 B( 17-C , 20-C ) :   0.1017 B( 17-C , 33-H ) :   0.9719
B( 18-C , 19-C ) :   1.2719 B( 18-C , 21-H ) :   0.9757 B( 19-C , 20-C ) :   1.5742
B( 19-C , 22-C ) :   1.0481 B( 22-C , 23-H ) :   0.9305 B( 22-C , 24-H ) :   0.9344
B( 22-C , 25-C ) :   1.0664 B( 25-C , 26-H ) :   0.9576 B( 25-C , 27-H ) :   0.9575
B( 25-C , 28-C ) :   1.0736 B( 28-C , 29-H ) :   0.9705 B( 28-C , 30-H ) :   0.9759
B( 28-C , 31-H ) :   0.9711

Dispersion correction           -0.015117739
FINAL SINGLE POINT ENERGY     -1339.871596277620

DIPOLE MOMENT
-------------
                                X             Y             Z
Electronic contribution:     -0.60375     -19.55908     -10.35208
Nuclear contribution   :      0.75706      19.91554      10.69697
                        -----------------------------------------
Total Dipole Moment    :      0.15331       0.35646       0.34488
                        -----------------------------------------
Magnitude (a.u.)       :      0.51914
Magnitude (Debye)      :      1.31956

Rotational constants in cm-1:     0.024075     0.007623     0.006827
Rotational constants in MHz :   721.752052   228.530421   204.672463

                             ****ORCA TERMINATED NORMALLY****
TOTAL RUN TIME: 0 days 0 hours 0 minutes 21 seconds 948 msec
