                         Program Version 4.2.1 -  RELEASE  -
|  1> ! wB97X-D3 SP def2-SVP
|  2> %pal
|  3> nprocs 24
|  4> end
|  5>
|  6> * xyz 0 1
|  7> S 	 -58.0438 	 5.67438 	 -20.4804
|  8> C 	 -59.4363 	 6.65615 	 -20.7115
|  9> C 	 -60.5316 	 5.93243 	 -21.2602
| 10> C 	 -60.1694 	 4.57348 	 -21.445
| 11> C 	 -58.8194 	 4.2861 	 -21.1095
| 12> H 	 -60.7922 	 3.80465 	 -21.8393
| 13> C 	 -61.9818 	 6.32993 	 -21.5485
| 14> H 	 -62.3746 	 5.62175 	 -22.1883
| 15> H 	 -61.8519 	 7.19141 	 -22.1819
| 16> C 	 -62.7848 	 6.53809 	 -20.2407
| 17> H 	 -62.6389 	 5.81446 	 -19.4458
| 18> H 	 -62.3587 	 7.4235 	 -19.7339
| 19> C 	 -64.3258 	 6.64533 	 -20.4255
| 20> H 	 -64.7779 	 5.71172 	 -20.5118
| 21> H 	 -64.7431 	 7.07878 	 -19.508
| 22> H 	 -64.5987 	 7.15964 	 -21.346
| 23> S 	 -56.2658 	 3.22174 	 -21.4475
| 24> C 	 -56.0905 	 1.47385 	 -21.5151
| 25> C 	 -57.3143 	 0.81619 	 -21.4256
| 26> C 	 -58.3967 	 1.74807 	 -21.2104
| 27> C 	 -58.0237 	 3.05862 	 -21.1838
| 28> H 	 -57.3354 	 -0.213835 	 -21.4492
| 29> C 	 -59.7375 	 1.16815 	 -20.764
| 30> H 	 -60.3396 	 2.04057 	 -20.5129
| 31> H 	 -59.5433 	 0.749364 	 -19.804
| 32> C 	 -60.4205 	 0.216298 	 -21.7477
| 33> H 	 -61.3731 	 -0.121471 	 -21.3169
| 34> H 	 -59.8261 	 -0.66436 	 -21.8364
| 35> C 	 -60.7362 	 0.963277 	 -23.1213
| 36> H 	 -59.9869 	 1.72101 	 -23.3066
| 37> H 	 -61.645 	 1.61169 	 -23.0983
| 38> H 	 -60.6731 	 0.295446 	 -23.9551
| 39> H 	 -59.555 	 7.68306 	 -20.5079
| 40> H 	 -55.2015 	 1.00328 	 -21.8472
| 41> *
| 42>
| 43>                          ****END OF INPUT****

CARTESIAN COORDINATES (ANGSTROEM)
---------------------------------
  S    -58.043800    5.674380  -20.480400
  C    -59.436300    6.656150  -20.711500
  C    -60.531600    5.932430  -21.260200
  C    -60.169400    4.573480  -21.445000
  C    -58.819400    4.286100  -21.109500
  H    -60.792200    3.804650  -21.839300
  C    -61.981800    6.329930  -21.548500
  H    -62.374600    5.621750  -22.188300
  H    -61.851900    7.191410  -22.181900
  C    -62.784800    6.538090  -20.240700
  H    -62.638900    5.814460  -19.445800
  H    -62.358700    7.423500  -19.733900
  C    -64.325800    6.645330  -20.425500
  H    -64.777900    5.711720  -20.511800
  H    -64.743100    7.078780  -19.508000
  H    -64.598700    7.159640  -21.346000
  S    -56.265800    3.221740  -21.447500
  C    -56.090500    1.473850  -21.515100
  C    -57.314300    0.816190  -21.425600
  C    -58.396700    1.748070  -21.210400
  C    -58.023700    3.058620  -21.183800
  H    -57.335400   -0.213835  -21.449200
  C    -59.737500    1.168150  -20.764000
  H    -60.339600    2.040570  -20.512900
  H    -59.543300    0.749364  -19.804000
  C    -60.420500    0.216298  -21.747700
  H    -61.373100   -0.121471  -21.316900
  H    -59.826100   -0.664360  -21.836400
  C    -60.736200    0.963277  -23.121300
  H    -59.986900    1.721010  -23.306600
  H    -61.645000    1.611690  -23.098300
  H    -60.673100    0.295446  -23.955100
  H    -59.555000    7.683060  -20.507900
  H    -55.201500    1.003280  -21.847200

 Total Charge           Charge          ....    0
 Multiplicity           Mult            ....    1
 Number of Electrons    NEL             ....  134
 Basis Dimension        Dim             ....  322

ORBITAL ENERGIES
----------------

  NO   OCC          E(Eh)            E(eV)
   0   2.0000     -88.970440     -2421.0088
   1   2.0000     -88.964505     -2420.8473
   2   2.0000     -10.329816      -281.0886
   3   2.0000     -10.328503      -281.0528
   4   2.0000     -10.317246      -280.7465
   5   2.0000     -10.310608      -280.5659
   6   2.0000     -10.302876      -280.3555
   7   2.0000     -10.300592      -280.2934
   8   2.0000     -10.292047      -280.0608
   9   2.0000     -10.291893      -280.0567
  10   2.0000     -10.291387      -280.0429
  11   2.0000     -10.291350      -280.0419
  12   2.0000     -10.290586      -280.0211
  13   2.0000     -10.286793      -279.9179
  14   2.0000     -10.280507      -279.7468
  15   2.0000     -10.275915      -279.6219
  16   2.0000      -8.085877      -220.0279
  17   2.0000      -8.078855      -219.8368
  18   2.0000      -6.044195      -164.4709
  19   2.0000      -6.040165      -164.3612
  20   2.0000      -6.037506      -164.2889
  21   2.0000      -6.036930      -164.2732
  22   2.0000      -6.033515      -164.1803
  23   2.0000      -6.029390      -164.0681
  24   2.0000      -1.007497       -27.4154
  25   2.0000      -0.982181       -26.7265
  26   2.0000      -0.911530       -24.8040
  27   2.0000      -0.905908       -24.6510
  28   2.0000      -0.866835       -23.5878
  29   2.0000      -0.852488       -23.1974
  30   2.0000      -0.841279       -22.8924
  31   2.0000      -0.811975       -22.0949
  32   2.0000      -0.785879       -21.3848
  33   2.0000      -0.776596       -21.1323
  34   2.0000      -0.712189       -19.3796
  35   2.0000      -0.711543       -19.3621
  36   2.0000      -0.696569       -18.9546
  37   2.0000      -0.666955       -18.1488
  38   2.0000      -0.641523       -17.4567
  39   2.0000      -0.619648       -16.8615
  40   2.0000      -0.593249       -16.1431
  41   2.0000      -0.569774       -15.5043
  42   2.0000      -0.557409       -15.1679
  43   2.0000      -0.552028       -15.0215
  44   2.0000      -0.537746       -14.6328
  45   2.0000      -0.535990       -14.5850
  46   2.0000      -0.523075       -14.2336
  47   2.0000      -0.509860       -13.8740
  48   2.0000      -0.501367       -13.6429
  49   2.0000      -0.497757       -13.5447
  50   2.0000      -0.492585       -13.4039
  51   2.0000      -0.479931       -13.0596
  52   2.0000      -0.474440       -12.9102
  53   2.0000      -0.463442       -12.6109
  54   2.0000      -0.458117       -12.4660
  55   2.0000      -0.452902       -12.3241
  56   2.0000      -0.449727       -12.2377
  57   2.0000      -0.441630       -12.0174
  58   2.0000      -0.436857       -11.8875
  59   2.0000      -0.430368       -11.7109
  60   2.0000      -0.423163       -11.5149
  61   2.0000      -0.412684       -11.2297
  62   2.0000      -0.405360       -11.0304
  63   2.0000      -0.356123        -9.6906
  64   2.0000      -0.334698        -9.1076
  65   2.0000      -0.329211        -8.9583
  66   2.0000      -0.281079        -7.6485
  67   0.0000       0.022984         0.6254
  68   0.0000       0.076852         2.0913
  69   0.0000       0.102810         2.7976
  70   0.0000       0.118522         3.2251
  71   0.0000       0.135261         3.6807

MULLIKEN ATOMIC CHARGES
-----------------------
   0 S :    0.124371
   1 C :   -0.100616
   2 C :   -0.139930
   3 C :    0.028345
   4 C :   -0.148349
   5 H :   -0.017899
   6 C :    0.143110
   7 H :   -0.004738
   8 H :    0.028183
   9 C :   -0.084707
  10 H :    0.030299
  11 H :    0.024040
  12 C :   -0.023006
  13 H :    0.018704
  14 H :    0.036887
  15 H :    0.030842
  16 S :    0.085169
  17 C :   -0.074748
  18 C :   -0.005728
  19 C :   -0.085727
  20 C :   -0.097252
  21 H :   -0.006577
  22 C :    0.056266
  23 H :    0.009079
  24 H :    0.032737
  25 C :   -0.042478
  26 H :    0.034237
  27 H :    0.025411
  28 C :   -0.066922
  29 H :    0.035975
  30 H :    0.042697
  31 H :    0.035899
  32 H :    0.026224
  33 H :    0.050201
Sum of atomic charges:    0.0000000

LOEWDIN ATOMIC CHARGES
----------------------
   0 S :    0.449845
   1 C :   -0.216812
   2 C :   -0.051441
   3 C :   -0.069756
   4 C :   -0.200579
   5 H :    0.020810
   6 C :   -0.021555
   7 H :    0.017803
   8 H :    0.034753
   9 C :   -0.039451
  10 H :    0.026845
  11 H :    0.025658
  12 C :   -0.062440
  13 H :    0.016018
  14 H :    0.032067
  15 H :    0.025003
  16 S :    0.376396
  17 C :   -0.168827
  18 C :   -0.056137
  19 C :   -0.060048
  20 C :   -0.189335
  21 H :    0.018194
  22 C :   -0.030870
  23 H :    0.026939
  24 H :    0.031162
  25 C :   -0.032301
  26 H :    0.028317
  27 H :    0.018018
  28 C :   -0.068291
  29 H :    0.025026
  30 H :    0.030397
  31 H :    0.024527
  32 H :    0.018096
  33 H :    0.021968

  Mayer bond orders larger than 0.100000
B(  0-S ,  1-C ) :   1.1611 B(  0-S ,  4-C ) :   1.1865 B(  1-C ,  2-C ) :   1.5612
B(  1-C ,  4-C ) :   0.1100 B(  1-C , 32-H ) :   0.9743 B(  2-C ,  3-C ) :   1.3025
B(  2-C ,  6-C ) :   1.0157 B(  3-C ,  4-C ) :   1.5097 B(  3-C ,  5-H ) :   0.9887
B(  4-C , 20-C ) :   1.0451 B(  6-C ,  7-H ) :   0.9413 B(  6-C ,  8-H ) :   0.9286
B(  6-C ,  9-C ) :   1.0462 B(  9-C , 10-H ) :   0.9617 B(  9-C , 11-H ) :   0.9587
B(  9-C , 12-C ) :   1.0750 B( 12-C , 13-H ) :   0.9765 B( 12-C , 14-H ) :   0.9739
B( 12-C , 15-H ) :   0.9765 B( 16-S , 17-C ) :   1.1441 B( 16-S , 20-C ) :   1.1121
B( 17-C , 18-C ) :   1.6325 B( 17-C , 33-H ) :   0.9685 B( 18-C , 19-C ) :   1.2023
B( 18-C , 21-H ) :   1.0047 B( 19-C , 20-C ) :   1.6439 B( 19-C , 22-C ) :   1.0231
B( 22-C , 23-H ) :   0.9382 B( 22-C , 24-H ) :   0.9393 B( 22-C , 25-C ) :   1.0681
B( 25-C , 26-H ) :   0.9569 B( 25-C , 27-H ) :   0.9612 B( 25-C , 28-C ) :   1.0548
B( 28-C , 29-H ) :   0.9779 B( 28-C , 30-H ) :   0.9725 B( 28-C , 31-H ) :   0.9754

Dispersion correction           -0.014570774
FINAL SINGLE POINT ENERGY     -1339.869664154597

DIPOLE MOMENT
-------------
                                X             Y             Z
Electronic contribution:     29.89011       4.16710       2.68198
Nuclear contribution   :    -30.49280      -4.48246      -2.72534
                        -----------------------------------------
Total Dipole Moment    :     -0.60269      -0.31536      -0.04336
                        -----------------------------------------
Magnitude (a.u.)       :      0.68159
Magnitude (Debye)      :      1.73247

Rotational constants in cm-1:     0.019818     0.008654     0.006375
Rotational constants in MHz :   594.141182   259.451174   191.130440

                             ****ORCA TERMINATED NORMALLY****
TOTAL RUN TIME: 0 days 0 hours 0 minutes 21 seconds 903 msec
