                         Program Version 4.2.1 -  RELEASE  -
|  1> ! wB97X-D3 SP def2-SVP
|  2> %pal
|  3> nprocs 24
|  4> end
|  5>
|  6> * xyz 0 1
|  7> S 	 -108.537 	 55.9727 	 -85.9144
|  8> C 	 -110.225 	 56.5059 	 -85.922
|  9> C 	 -110.538 	 57.3483 	 -86.9381
| 10> C 	 -109.383 	 57.5522 	 -87.7394
| 11> C 	 -108.231 	 57.0716 	 -87.2559
| 12> H 	 -109.39 	 57.9673 	 -88.7
| 13> C 	 -111.903 	 57.7578 	 -87.3561
| 14> H 	 -112.576 	 57.4289 	 -86.6174
| 15> H 	 -112.29 	 57.2481 	 -88.2756
| 16> C 	 -112.16 	 59.2984 	 -87.3429
| 17> H 	 -111.65 	 59.6677 	 -88.2239
| 18> H 	 -113.216 	 59.5302 	 -87.7227
| 19> C 	 -111.908 	 60.1212 	 -86.1331
| 20> H 	 -110.934 	 59.7577 	 -85.8431
| 21> H 	 -111.848 	 61.1331 	 -86.3779
| 22> H 	 -112.625 	 60.064 	 -85.3455
| 23> S 	 -106.075 	 55.5689 	 -88.1294
| 24> C 	 -104.73 	 56.4131 	 -88.8597
| 25> C 	 -104.934 	 57.7662 	 -88.8601
| 26> C 	 -106.165 	 58.2184 	 -88.2749
| 27> C 	 -106.888 	 57.118 	 -87.8093
| 28> H 	 -104.155 	 58.4329 	 -89.2257
| 29> C 	 -106.635 	 59.6728 	 -88.2356
| 30> H 	 -107.707 	 59.7258 	 -87.8972
| 31> H 	 -106.54 	 60.011 	 -89.2544
| 32> C 	 -105.793 	 60.515 	 -87.2435
| 33> H 	 -104.761 	 60.3964 	 -87.5309
| 34> H 	 -105.976 	 59.8771 	 -86.3479
| 35> C 	 -106.133 	 62.0158 	 -87.159
| 36> H 	 -105.508 	 62.3012 	 -86.3278
| 37> H 	 -107.17 	 62.1363 	 -86.7576
| 38> H 	 -106.028 	 62.5104 	 -88.1293
| 39> H 	 -111.014 	 56.1227 	 -85.2317
| 40> H 	 -103.879 	 55.938 	 -89.3014
| 41> *
| 42>
| 43>                          ****END OF INPUT****

CARTESIAN COORDINATES (ANGSTROEM)
---------------------------------
  S    -108.537000   55.972700  -85.914400
  C    -110.225000   56.505900  -85.922000
  C    -110.538000   57.348300  -86.938100
  C    -109.383000   57.552200  -87.739400
  C    -108.231000   57.071600  -87.255900
  H    -109.390000   57.967300  -88.700000
  C    -111.903000   57.757800  -87.356100
  H    -112.576000   57.428900  -86.617400
  H    -112.290000   57.248100  -88.275600
  C    -112.160000   59.298400  -87.342900
  H    -111.650000   59.667700  -88.223900
  H    -113.216000   59.530200  -87.722700
  C    -111.908000   60.121200  -86.133100
  H    -110.934000   59.757700  -85.843100
  H    -111.848000   61.133100  -86.377900
  H    -112.625000   60.064000  -85.345500
  S    -106.075000   55.568900  -88.129400
  C    -104.730000   56.413100  -88.859700
  C    -104.934000   57.766200  -88.860100
  C    -106.165000   58.218400  -88.274900
  C    -106.888000   57.118000  -87.809300
  H    -104.155000   58.432900  -89.225700
  C    -106.635000   59.672800  -88.235600
  H    -107.707000   59.725800  -87.897200
  H    -106.540000   60.011000  -89.254400
  C    -105.793000   60.515000  -87.243500
  H    -104.761000   60.396400  -87.530900
  H    -105.976000   59.877100  -86.347900
  C    -106.133000   62.015800  -87.159000
  H    -105.508000   62.301200  -86.327800
  H    -107.170000   62.136300  -86.757600
  H    -106.028000   62.510400  -88.129300
  H    -111.014000   56.122700  -85.231700
  H    -103.879000   55.938000  -89.301400

 Total Charge           Charge          ....    0
 Multiplicity           Mult            ....    1
 Number of Electrons    NEL             ....  134
 Basis Dimension        Dim             ....  322

ORBITAL ENERGIES
----------------

  NO   OCC          E(Eh)            E(eV)
   0   2.0000     -88.966044     -2420.8891
   1   2.0000     -88.963883     -2420.8303
   2   2.0000     -10.327043      -281.0131
   3   2.0000     -10.323512      -280.9170
   4   2.0000     -10.316120      -280.7159
   5   2.0000     -10.316012      -280.7129
   6   2.0000     -10.305477      -280.4263
   7   2.0000     -10.295951      -280.1671
   8   2.0000     -10.294284      -280.1217
   9   2.0000     -10.292634      -280.0768
  10   2.0000     -10.292112      -280.0626
  11   2.0000     -10.286796      -279.9179
  12   2.0000     -10.285700      -279.8881
  13   2.0000     -10.283811      -279.8367
  14   2.0000     -10.283479      -279.8277
  15   2.0000     -10.267116      -279.3824
  16   2.0000      -8.080422      -219.8794
  17   2.0000      -8.078595      -219.8297
  18   2.0000      -6.038961      -164.3285
  19   2.0000      -6.037144      -164.2790
  20   2.0000      -6.035057      -164.2223
  21   2.0000      -6.033354      -164.1759
  22   2.0000      -6.031100      -164.1146
  23   2.0000      -6.029061      -164.0591
  24   2.0000      -1.008868       -27.4527
  25   2.0000      -0.984578       -26.7917
  26   2.0000      -0.915208       -24.9041
  27   2.0000      -0.907008       -24.6809
  28   2.0000      -0.872181       -23.7333
  29   2.0000      -0.853140       -23.2151
  30   2.0000      -0.845264       -23.0008
  31   2.0000      -0.819398       -22.2970
  32   2.0000      -0.788723       -21.4622
  33   2.0000      -0.775124       -21.0922
  34   2.0000      -0.707815       -19.2606
  35   2.0000      -0.692308       -18.8387
  36   2.0000      -0.691799       -18.8248
  37   2.0000      -0.657049       -17.8792
  38   2.0000      -0.643404       -17.5079
  39   2.0000      -0.625741       -17.0273
  40   2.0000      -0.595428       -16.2024
  41   2.0000      -0.569952       -15.5092
  42   2.0000      -0.569178       -15.4881
  43   2.0000      -0.553281       -15.0555
  44   2.0000      -0.540831       -14.7167
  45   2.0000      -0.531331       -14.4582
  46   2.0000      -0.515520       -14.0280
  47   2.0000      -0.514283       -13.9944
  48   2.0000      -0.502549       -13.6750
  49   2.0000      -0.494440       -13.4544
  50   2.0000      -0.492592       -13.4041
  51   2.0000      -0.482962       -13.1421
  52   2.0000      -0.478476       -13.0200
  53   2.0000      -0.467483       -12.7209
  54   2.0000      -0.460032       -12.5181
  55   2.0000      -0.448732       -12.2106
  56   2.0000      -0.446699       -12.1553
  57   2.0000      -0.438936       -11.9441
  58   2.0000      -0.425293       -11.5728
  59   2.0000      -0.423308       -11.5188
  60   2.0000      -0.418502       -11.3880
  61   2.0000      -0.414117       -11.2687
  62   2.0000      -0.402287       -10.9468
  63   2.0000      -0.349381        -9.5071
  64   2.0000      -0.332000        -9.0342
  65   2.0000      -0.331240        -9.0135
  66   2.0000      -0.292559        -7.9609
  67   0.0000       0.031363         0.8534
  68   0.0000       0.070211         1.9105
  69   0.0000       0.104621         2.8469
  70   0.0000       0.122464         3.3324
  71   0.0000       0.124569         3.3897

MULLIKEN ATOMIC CHARGES
-----------------------
   0 S :    0.094582
   1 C :   -0.121297
   2 C :   -0.100475
   3 C :    0.046567
   4 C :   -0.156203
   5 H :   -0.002950
   6 C :    0.101411
   7 H :   -0.006625
   8 H :    0.052479
   9 C :   -0.127859
  10 H :    0.014850
  11 H :    0.018086
  12 C :    0.020826
  13 H :    0.030550
  14 H :    0.020167
  15 H :    0.027626
  16 S :    0.102672
  17 C :   -0.078564
  18 C :   -0.040035
  19 C :   -0.043458
  20 C :   -0.157559
  21 H :    0.019135
  22 C :    0.079736
  23 H :    0.033421
  24 H :    0.022610
  25 C :   -0.136034
  26 H :    0.023470
  27 H :    0.042937
  28 C :   -0.009101
  29 H :    0.041507
  30 H :    0.032052
  31 H :    0.048239
  32 H :    0.055892
  33 H :    0.051346
Sum of atomic charges:   -0.0000000

LOEWDIN ATOMIC CHARGES
----------------------
   0 S :    0.381952
   1 C :   -0.182400
   2 C :   -0.075475
   3 C :   -0.054415
   4 C :   -0.183917
   5 H :    0.024441
   6 C :   -0.032326
   7 H :    0.021762
   8 H :    0.045227
   9 C :   -0.049897
  10 H :    0.017104
  11 H :    0.025425
  12 C :   -0.056289
  13 H :    0.028869
  14 H :    0.024395
  15 H :    0.022984
  16 S :    0.389515
  17 C :   -0.180906
  18 C :   -0.072081
  19 C :   -0.052185
  20 C :   -0.192823
  21 H :    0.030821
  22 C :   -0.033062
  23 H :    0.034164
  24 H :    0.023693
  25 C :   -0.045557
  26 H :    0.016777
  27 H :    0.033682
  28 C :   -0.065498
  29 H :    0.032302
  30 H :    0.030229
  31 H :    0.030538
  32 H :    0.034896
  33 H :    0.028052

  Mayer bond orders larger than 0.100000
B(  0-S ,  1-C ) :   1.1283 B(  0-S ,  4-C ) :   1.1218 B(  1-C ,  2-C ) :   1.6494
B(  1-C , 32-H ) :   0.9539 B(  2-C ,  3-C ) :   1.1920 B(  2-C ,  6-C ) :   1.0360
B(  3-C ,  4-C ) :   1.6272 B(  3-C ,  5-H ) :   1.0023 B(  4-C , 20-C ) :   1.0285
B(  6-C ,  7-H ) :   0.9280 B(  6-C ,  8-H ) :   0.9420 B(  6-C ,  9-C ) :   1.0561
B(  9-C , 10-H ) :   0.9591 B(  9-C , 11-H ) :   0.9511 B(  9-C , 12-C ) :   1.0795
B( 12-C , 13-H ) :   0.9704 B( 12-C , 14-H ) :   0.9656 B( 12-C , 15-H ) :   0.9730
B( 16-S , 17-C ) :   1.1366 B( 16-S , 20-C ) :   1.1376 B( 17-C , 18-C ) :   1.6311
B( 17-C , 33-H ) :   0.9704 B( 18-C , 19-C ) :   1.2246 B( 18-C , 21-H ) :   0.9844
B( 19-C , 20-C ) :   1.6066 B( 19-C , 22-C ) :   1.0402 B( 22-C , 23-H ) :   0.9339
B( 22-C , 24-H ) :   0.9293 B( 22-C , 25-C ) :   1.0485 B( 25-C , 26-H ) :   0.9607
B( 25-C , 27-H ) :   0.9579 B( 25-C , 28-C ) :   1.0738 B( 28-C , 29-H ) :   0.9727
B( 28-C , 30-H ) :   0.9724 B( 28-C , 31-H ) :   0.9719

Dispersion correction           -0.014175117
FINAL SINGLE POINT ENERGY     -1339.870084419186

DIPOLE MOMENT
-------------
                                X             Y             Z
Electronic contribution:     11.45187     -27.70750       0.00938
Nuclear contribution   :    -11.65190      28.24448      -0.33816
                        -----------------------------------------
Total Dipole Moment    :     -0.20003       0.53697      -0.32878
                        -----------------------------------------
Magnitude (a.u.)       :      0.66065
Magnitude (Debye)      :      1.67923

Rotational constants in cm-1:     0.016667     0.009749     0.006876
Rotational constants in MHz :   499.650750   292.271600   206.131647

                             ****ORCA TERMINATED NORMALLY****
TOTAL RUN TIME: 0 days 0 hours 0 minutes 21 seconds 951 msec
