                         Program Version 4.2.1 -  RELEASE  -
|  1> ! wB97X-D3 SP def2-SVP
|  2> %pal
|  3> nprocs 24
|  4> end
|  5>
|  6> * xyz 0 1
|  7> S 	 -91.3446 	 -28.1823 	 -61.8134
|  8> C 	 -90.4437 	 -26.72 	 -61.6571
|  9> C 	 -89.8846 	 -26.5762 	 -60.3628
| 10> C 	 -90.1909 	 -27.6972 	 -59.4949
| 11> C 	 -90.9878 	 -28.612 	 -60.1539
| 12> H 	 -89.8492 	 -27.7666 	 -58.4767
| 13> C 	 -88.9652 	 -25.4464 	 -60.0405
| 14> H 	 -89.0265 	 -24.8541 	 -60.9793
| 15> H 	 -87.9077 	 -25.8232 	 -59.8967
| 16> C 	 -89.3791 	 -24.4616 	 -58.8648
| 17> H 	 -88.6318 	 -23.7557 	 -58.6699
| 18> H 	 -90.2717 	 -23.9444 	 -59.2612
| 19> C 	 -89.7468 	 -25.023 	 -57.493
| 20> H 	 -89.015 	 -25.7262 	 -57.098
| 21> H 	 -90.031 	 -24.2807 	 -56.7689
| 22> H 	 -90.6495 	 -25.6245 	 -57.604
| 23> S 	 -91.7883 	 -31.1394 	 -60.7327
| 24> C 	 -92.352 	 -32.1621 	 -59.472
| 25> C 	 -92.3861 	 -31.4844 	 -58.2275
| 26> C 	 -91.8706 	 -30.1501 	 -58.2801
| 27> C 	 -91.588 	 -29.7975 	 -59.5949
| 28> H 	 -92.5571 	 -32.0938 	 -57.3013
| 29> C 	 -91.6223 	 -29.3642 	 -57.0141
| 30> H 	 -91.6403 	 -28.3083 	 -57.3362
| 31> H 	 -90.5386 	 -29.6286 	 -56.6407
| 32> C 	 -92.6113 	 -29.5051 	 -55.7942
| 33> H 	 -92.2205 	 -29.078 	 -54.8224
| 34> H 	 -92.5973 	 -30.5533 	 -55.5285
| 35> C 	 -94.0809 	 -29.1962 	 -56.0932
| 36> H 	 -94.2191 	 -28.1362 	 -56.0791
| 37> H 	 -94.7082 	 -29.5526 	 -55.1967
| 38> H 	 -94.3893 	 -29.7341 	 -57.0196
| 39> H 	 -90.2822 	 -26.0254 	 -62.4936
| 40> H 	 -92.4474 	 -33.2103 	 -59.5155
| 41> *
| 42>
| 43>                          ****END OF INPUT****

CARTESIAN COORDINATES (ANGSTROEM)
---------------------------------
  S    -91.344600  -28.182300  -61.813400
  C    -90.443700  -26.720000  -61.657100
  C    -89.884600  -26.576200  -60.362800
  C    -90.190900  -27.697200  -59.494900
  C    -90.987800  -28.612000  -60.153900
  H    -89.849200  -27.766600  -58.476700
  C    -88.965200  -25.446400  -60.040500
  H    -89.026500  -24.854100  -60.979300
  H    -87.907700  -25.823200  -59.896700
  C    -89.379100  -24.461600  -58.864800
  H    -88.631800  -23.755700  -58.669900
  H    -90.271700  -23.944400  -59.261200
  C    -89.746800  -25.023000  -57.493000
  H    -89.015000  -25.726200  -57.098000
  H    -90.031000  -24.280700  -56.768900
  H    -90.649500  -25.624500  -57.604000
  S    -91.788300  -31.139400  -60.732700
  C    -92.352000  -32.162100  -59.472000
  C    -92.386100  -31.484400  -58.227500
  C    -91.870600  -30.150100  -58.280100
  C    -91.588000  -29.797500  -59.594900
  H    -92.557100  -32.093800  -57.301300
  C    -91.622300  -29.364200  -57.014100
  H    -91.640300  -28.308300  -57.336200
  H    -90.538600  -29.628600  -56.640700
  C    -92.611300  -29.505100  -55.794200
  H    -92.220500  -29.078000  -54.822400
  H    -92.597300  -30.553300  -55.528500
  C    -94.080900  -29.196200  -56.093200
  H    -94.219100  -28.136200  -56.079100
  H    -94.708200  -29.552600  -55.196700
  H    -94.389300  -29.734100  -57.019600
  H    -90.282200  -26.025400  -62.493600
  H    -92.447400  -33.210300  -59.515500

 Total Charge           Charge          ....    0
 Multiplicity           Mult            ....    1
 Number of Electrons    NEL             ....  134
 Basis Dimension        Dim             ....  322

ORBITAL ENERGIES
----------------

  NO   OCC          E(Eh)            E(eV)
   0   2.0000     -88.969596     -2420.9858
   1   2.0000     -88.967871     -2420.9389
   2   2.0000     -10.329362      -281.0762
   3   2.0000     -10.327546      -281.0268
   4   2.0000     -10.316265      -280.7198
   5   2.0000     -10.315378      -280.6957
   6   2.0000     -10.308058      -280.4965
   7   2.0000     -10.307547      -280.4826
   8   2.0000     -10.303578      -280.3746
   9   2.0000     -10.299516      -280.2641
  10   2.0000     -10.299278      -280.2576
  11   2.0000     -10.294470      -280.1268
  12   2.0000     -10.293658      -280.1047
  13   2.0000     -10.286336      -279.9054
  14   2.0000     -10.283199      -279.8201
  15   2.0000     -10.275736      -279.6170
  16   2.0000      -8.084436      -219.9887
  17   2.0000      -8.083021      -219.9502
  18   2.0000      -6.042914      -164.4361
  19   2.0000      -6.041512      -164.3979
  20   2.0000      -6.038924      -164.3275
  21   2.0000      -6.037519      -164.2892
  22   2.0000      -6.035234      -164.2271
  23   2.0000      -6.033743      -164.1865
  24   2.0000      -1.008732       -27.4490
  25   2.0000      -0.982141       -26.7254
  26   2.0000      -0.907532       -24.6952
  27   2.0000      -0.904885       -24.6232
  28   2.0000      -0.869213       -23.6525
  29   2.0000      -0.855122       -23.2691
  30   2.0000      -0.844861       -22.9898
  31   2.0000      -0.815130       -22.1808
  32   2.0000      -0.783264       -21.3137
  33   2.0000      -0.767453       -20.8834
  34   2.0000      -0.707750       -19.2589
  35   2.0000      -0.697072       -18.9683
  36   2.0000      -0.695980       -18.9386
  37   2.0000      -0.657091       -17.8803
  38   2.0000      -0.636579       -17.3222
  39   2.0000      -0.618404       -16.8276
  40   2.0000      -0.591974       -16.1084
  41   2.0000      -0.569808       -15.5053
  42   2.0000      -0.549923       -14.9642
  43   2.0000      -0.542936       -14.7740
  44   2.0000      -0.538659       -14.6577
  45   2.0000      -0.536636       -14.6026
  46   2.0000      -0.520681       -14.1685
  47   2.0000      -0.513697       -13.9784
  48   2.0000      -0.500060       -13.6073
  49   2.0000      -0.498276       -13.5588
  50   2.0000      -0.493566       -13.4306
  51   2.0000      -0.483108       -13.1460
  52   2.0000      -0.465370       -12.6634
  53   2.0000      -0.463880       -12.6228
  54   2.0000      -0.462110       -12.5747
  55   2.0000      -0.450605       -12.2616
  56   2.0000      -0.443156       -12.0589
  57   2.0000      -0.435574       -11.8526
  58   2.0000      -0.432514       -11.7693
  59   2.0000      -0.425545       -11.5797
  60   2.0000      -0.421006       -11.4561
  61   2.0000      -0.419530       -11.4160
  62   2.0000      -0.404552       -11.0084
  63   2.0000      -0.357213        -9.7203
  64   2.0000      -0.333610        -9.0780
  65   2.0000      -0.329554        -8.9676
  66   2.0000      -0.279237        -7.5984
  67   0.0000       0.022756         0.6192
  68   0.0000       0.073798         2.0081
  69   0.0000       0.100154         2.7253
  70   0.0000       0.112017         3.0482
  71   0.0000       0.126618         3.4454

MULLIKEN ATOMIC CHARGES
-----------------------
   0 S :    0.112518
   1 C :   -0.130347
   2 C :   -0.101555
   3 C :   -0.006618
   4 C :   -0.107932
   5 H :    0.008850
   6 C :    0.031959
   7 H :    0.022834
   8 H :    0.054378
   9 C :   -0.058241
  10 H :    0.024054
  11 H :    0.030409
  12 C :   -0.063952
  13 H :    0.032197
  14 H :    0.036925
  15 H :    0.028347
  16 S :    0.110953
  17 C :   -0.072572
  18 C :   -0.075137
  19 C :   -0.059126
  20 C :   -0.127171
  21 H :    0.041038
  22 C :    0.007390
  23 H :    0.042770
  24 H :    0.067539
  25 C :   -0.071457
  26 H :    0.035367
  27 H :    0.012240
  28 C :   -0.068601
  29 H :    0.034010
  30 H :    0.040161
  31 H :    0.063301
  32 H :    0.060012
  33 H :    0.045455
Sum of atomic charges:   -0.0000000

LOEWDIN ATOMIC CHARGES
----------------------
   0 S :    0.412151
   1 C :   -0.216493
   2 C :   -0.061036
   3 C :   -0.067384
   4 C :   -0.184935
   5 H :    0.030480
   6 C :   -0.038279
   7 H :    0.036203
   8 H :    0.037820
   9 C :   -0.036786
  10 H :    0.016337
  11 H :    0.029303
  12 C :   -0.071761
  13 H :    0.021804
  14 H :    0.028182
  15 H :    0.023362
  16 S :    0.414380
  17 C :   -0.192721
  18 C :   -0.078084
  19 C :   -0.060986
  20 C :   -0.190398
  21 H :    0.038162
  22 C :   -0.042164
  23 H :    0.030869
  24 H :    0.049029
  25 C :   -0.052138
  26 H :    0.033070
  27 H :    0.016200
  28 C :   -0.069876
  29 H :    0.020078
  30 H :    0.036453
  31 H :    0.036174
  32 H :    0.031205
  33 H :    0.021777

  Mayer bond orders larger than 0.100000
B(  0-S ,  1-C ) :   1.1356 B(  0-S ,  4-C ) :   1.1521 B(  1-C ,  2-C ) :   1.6038
B(  1-C , 32-H ) :   0.9619 B(  2-C ,  3-C ) :   1.2280 B(  2-C ,  6-C ) :   1.0304
B(  3-C ,  4-C ) :   1.5522 B(  3-C ,  5-H ) :   0.9951 B(  4-C , 20-C ) :   1.0673
B(  6-C ,  7-H ) :   0.9408 B(  6-C ,  8-H ) :   0.9410 B(  6-C ,  9-C ) :   1.0605
B(  9-C , 10-H ) :   0.9594 B(  9-C , 11-H ) :   0.9546 B(  9-C , 12-C ) :   1.0910
B( 12-C , 13-H ) :   0.9726 B( 12-C , 14-H ) :   0.9687 B( 12-C , 15-H ) :   0.9684
B( 16-S , 17-C ) :   1.1659 B( 16-S , 20-C ) :   1.1387 B( 17-C , 18-C ) :   1.5993
B( 17-C , 20-C ) :   0.1011 B( 17-C , 33-H ) :   0.9699 B( 18-C , 19-C ) :   1.2467
B( 18-C , 21-H ) :   0.9762 B( 19-C , 20-C ) :   1.5890 B( 19-C , 22-C ) :   1.0333
B( 22-C , 23-H ) :   0.9317 B( 22-C , 24-H ) :   0.9281 B( 22-C , 25-C ) :   1.0614
B( 25-C , 26-H ) :   0.9537 B( 25-C , 27-H ) :   0.9492 B( 25-C , 28-C ) :   1.0759
B( 28-C , 29-H ) :   0.9785 B( 28-C , 30-H ) :   0.9723 B( 28-C , 31-H ) :   0.9693

Dispersion correction           -0.014634468
FINAL SINGLE POINT ENERGY     -1339.876828896970

DIPOLE MOMENT
-------------
                                X             Y             Z
Electronic contribution:     -1.33024     -15.62794     -25.06357
Nuclear contribution   :      1.58036      15.77908      25.68651
                        -----------------------------------------
Total Dipole Moment    :      0.25012       0.15114       0.62294
                        -----------------------------------------
Magnitude (a.u.)       :      0.68808
Magnitude (Debye)      :      1.74896

Rotational constants in cm-1:     0.017275     0.010055     0.006851
Rotational constants in MHz :   517.882850   301.442228   205.397926

                             ****ORCA TERMINATED NORMALLY****
TOTAL RUN TIME: 0 days 0 hours 0 minutes 20 seconds 926 msec
