                         Program Version 4.2.1 -  RELEASE  -
|  1> ! wB97X-D3 SP def2-SVP
|  2> %pal
|  3> nprocs 24
|  4> end
|  5>
|  6> * xyz 0 1
|  7> S 	 29.6999 	 -22.4374 	 -123.172
|  8> C 	 29.9398 	 -21.7999 	 -124.779
|  9> C 	 29.1818 	 -22.4458 	 -125.771
| 10> C 	 28.4079 	 -23.5019 	 -125.157
| 11> C 	 28.7002 	 -23.7372 	 -123.792
| 12> H 	 27.755 	 -24.1094 	 -125.679
| 13> C 	 29.2048 	 -22.0256 	 -127.235
| 14> H 	 30.0584 	 -21.3276 	 -127.429
| 15> H 	 28.3115 	 -21.3106 	 -127.394
| 16> C 	 29.1433 	 -23.2 	 -128.305
| 17> H 	 28.1588 	 -23.7365 	 -128.337
| 18> H 	 29.1187 	 -22.6898 	 -129.296
| 19> C 	 30.3691 	 -24.1202 	 -128.26
| 20> H 	 30.5854 	 -24.5661 	 -129.299
| 21> H 	 31.2718 	 -23.4968 	 -128.187
| 22> H 	 30.308 	 -24.868 	 -127.461
| 23> S 	 29.7598 	 -26.0294 	 -122.445
| 24> C 	 28.6583 	 -27.2715 	 -121.82
| 25> C 	 27.3597 	 -26.7493 	 -121.911
| 26> C 	 27.2235 	 -25.5252 	 -122.687
| 27> C 	 28.4036 	 -24.9214 	 -122.984
| 28> H 	 26.4779 	 -27.3111 	 -121.539
| 29> C 	 25.8659 	 -24.9041 	 -123.011
| 30> H 	 25.1007 	 -25.6295 	 -123.188
| 31> H 	 25.9183 	 -24.4141 	 -123.971
| 32> C 	 25.2882 	 -23.8945 	 -122
| 33> H 	 24.9778 	 -24.5138 	 -121.148
| 34> H 	 24.4081 	 -23.425 	 -122.486
| 35> C 	 26.3063 	 -22.8712 	 -121.402
| 36> H 	 26.9122 	 -23.422 	 -120.731
| 37> H 	 25.7287 	 -22.1382 	 -120.844
| 38> H 	 27.0432 	 -22.3149 	 -122.067
| 39> H 	 30.3836 	 -20.8925 	 -125.07
| 40> H 	 28.925 	 -28.2086 	 -121.348
| 41> *
| 42>
| 43>                          ****END OF INPUT****

CARTESIAN COORDINATES (ANGSTROEM)
---------------------------------
  S     29.699900  -22.437400  -123.172000
  C     29.939800  -21.799900  -124.779000
  C     29.181800  -22.445800  -125.771000
  C     28.407900  -23.501900  -125.157000
  C     28.700200  -23.737200  -123.792000
  H     27.755000  -24.109400  -125.679000
  C     29.204800  -22.025600  -127.235000
  H     30.058400  -21.327600  -127.429000
  H     28.311500  -21.310600  -127.394000
  C     29.143300  -23.200000  -128.305000
  H     28.158800  -23.736500  -128.337000
  H     29.118700  -22.689800  -129.296000
  C     30.369100  -24.120200  -128.260000
  H     30.585400  -24.566100  -129.299000
  H     31.271800  -23.496800  -128.187000
  H     30.308000  -24.868000  -127.461000
  S     29.759800  -26.029400  -122.445000
  C     28.658300  -27.271500  -121.820000
  C     27.359700  -26.749300  -121.911000
  C     27.223500  -25.525200  -122.687000
  C     28.403600  -24.921400  -122.984000
  H     26.477900  -27.311100  -121.539000
  C     25.865900  -24.904100  -123.011000
  H     25.100700  -25.629500  -123.188000
  H     25.918300  -24.414100  -123.971000
  C     25.288200  -23.894500  -122.000000
  H     24.977800  -24.513800  -121.148000
  H     24.408100  -23.425000  -122.486000
  C     26.306300  -22.871200  -121.402000
  H     26.912200  -23.422000  -120.731000
  H     25.728700  -22.138200  -120.844000
  H     27.043200  -22.314900  -122.067000
  H     30.383600  -20.892500  -125.070000
  H     28.925000  -28.208600  -121.348000

 Total Charge           Charge          ....    0
 Multiplicity           Mult            ....    1
 Number of Electrons    NEL             ....  134
 Basis Dimension        Dim             ....  322

ORBITAL ENERGIES
----------------

  NO   OCC          E(Eh)            E(eV)
   0   2.0000     -88.972392     -2421.0619
   1   2.0000     -88.963111     -2420.8093
   2   2.0000     -10.335871      -281.2533
   3   2.0000     -10.331968      -281.1471
   4   2.0000     -10.326409      -280.9959
   5   2.0000     -10.311388      -280.5871
   6   2.0000     -10.310866      -280.5729
   7   2.0000     -10.307462      -280.4803
   8   2.0000     -10.305020      -280.4138
   9   2.0000     -10.301743      -280.3247
  10   2.0000     -10.300005      -280.2774
  11   2.0000     -10.298392      -280.2335
  12   2.0000     -10.288154      -279.9549
  13   2.0000     -10.285604      -279.8855
  14   2.0000     -10.285186      -279.8741
  15   2.0000     -10.270486      -279.4741
  16   2.0000      -8.086217      -220.0371
  17   2.0000      -8.076329      -219.7681
  18   2.0000      -6.044685      -164.4842
  19   2.0000      -6.040780      -164.3780
  20   2.0000      -6.037140      -164.2789
  21   2.0000      -6.035152      -164.2248
  22   2.0000      -6.030996      -164.1117
  23   2.0000      -6.026849      -163.9989
  24   2.0000      -0.999227       -27.1904
  25   2.0000      -0.976237       -26.5648
  26   2.0000      -0.903906       -24.5965
  27   2.0000      -0.901414       -24.5287
  28   2.0000      -0.864957       -23.5367
  29   2.0000      -0.846461       -23.0334
  30   2.0000      -0.834885       -22.7184
  31   2.0000      -0.811436       -22.0803
  32   2.0000      -0.783271       -21.3139
  33   2.0000      -0.772025       -21.0079
  34   2.0000      -0.709922       -19.3180
  35   2.0000      -0.692357       -18.8400
  36   2.0000      -0.688670       -18.7397
  37   2.0000      -0.657663       -17.8959
  38   2.0000      -0.640965       -17.4415
  39   2.0000      -0.619300       -16.8520
  40   2.0000      -0.593140       -16.1402
  41   2.0000      -0.564153       -15.3514
  42   2.0000      -0.546360       -14.8672
  43   2.0000      -0.545404       -14.8412
  44   2.0000      -0.540104       -14.6970
  45   2.0000      -0.539247       -14.6737
  46   2.0000      -0.515222       -14.0199
  47   2.0000      -0.507879       -13.8201
  48   2.0000      -0.499268       -13.5858
  49   2.0000      -0.493090       -13.4177
  50   2.0000      -0.490687       -13.3523
  51   2.0000      -0.471314       -12.8251
  52   2.0000      -0.467654       -12.7255
  53   2.0000      -0.463271       -12.6062
  54   2.0000      -0.462327       -12.5806
  55   2.0000      -0.443876       -12.0785
  56   2.0000      -0.437911       -11.9162
  57   2.0000      -0.432938       -11.7808
  58   2.0000      -0.426126       -11.5955
  59   2.0000      -0.424240       -11.5442
  60   2.0000      -0.416871       -11.3436
  61   2.0000      -0.411527       -11.1982
  62   2.0000      -0.410867       -11.1803
  63   2.0000      -0.343984        -9.3603
  64   2.0000      -0.330795        -9.0014
  65   2.0000      -0.324770        -8.8374
  66   2.0000      -0.294754        -8.0207
  67   0.0000       0.028218         0.7679
  68   0.0000       0.055089         1.4990
  69   0.0000       0.108298         2.9469
  70   0.0000       0.120543         3.2801
  71   0.0000       0.126476         3.4416

MULLIKEN ATOMIC CHARGES
-----------------------
   0 S :    0.130405
   1 C :   -0.085627
   2 C :   -0.107853
   3 C :    0.095385
   4 C :   -0.210214
   5 H :   -0.017128
   6 C :    0.008683
   7 H :    0.032816
   8 H :    0.055085
   9 C :   -0.094689
  10 H :    0.042788
  11 H :    0.029726
  12 C :   -0.060090
  13 H :    0.039967
  14 H :    0.027228
  15 H :    0.061079
  16 S :    0.088610
  17 C :   -0.096607
  18 C :   -0.036031
  19 C :   -0.062672
  20 C :   -0.118665
  21 H :    0.032149
  22 C :    0.092141
  23 H :    0.011586
  24 H :    0.010991
  25 C :   -0.079092
  26 H :    0.026584
  27 H :    0.038998
  28 C :   -0.057787
  29 H :    0.030134
  30 H :    0.031409
  31 H :    0.045857
  32 H :    0.025885
  33 H :    0.068948
Sum of atomic charges:   -0.0000000

LOEWDIN ATOMIC CHARGES
----------------------
   0 S :    0.423581
   1 C :   -0.197409
   2 C :   -0.061738
   3 C :   -0.042204
   4 C :   -0.193891
   5 H :    0.014517
   6 C :   -0.042622
   7 H :    0.034261
   8 H :    0.043855
   9 C :   -0.052557
  10 H :    0.028007
  11 H :    0.029458
  12 C :   -0.075191
  13 H :    0.036888
  14 H :    0.027896
  15 H :    0.030388
  16 S :    0.361981
  17 C :   -0.175186
  18 C :   -0.076579
  19 C :   -0.055103
  20 C :   -0.177917
  21 H :    0.033701
  22 C :   -0.034258
  23 H :    0.025993
  24 H :    0.026928
  25 C :   -0.034419
  26 H :    0.024680
  27 H :    0.026683
  28 C :   -0.073925
  29 H :    0.020112
  30 H :    0.025477
  31 H :    0.025090
  32 H :    0.017900
  33 H :    0.035607

  Mayer bond orders larger than 0.100000
B(  0-S ,  1-C ) :   1.1449 B(  0-S ,  4-C ) :   1.1559 B(  1-C ,  2-C ) :   1.6010
B(  1-C ,  4-C ) :   0.1010 B(  1-C , 32-H ) :   0.9643 B(  2-C ,  3-C ) :   1.2623
B(  2-C ,  6-C ) :   1.0180 B(  3-C ,  4-C ) :   1.5476 B(  3-C ,  5-H ) :   0.9976
B(  4-C , 20-C ) :   1.0368 B(  6-C ,  7-H ) :   0.9460 B(  6-C ,  8-H ) :   0.9359
B(  6-C ,  9-C ) :   1.0678 B(  9-C , 10-H ) :   0.9554 B(  9-C , 11-H ) :   0.9546
B(  9-C , 12-C ) :   1.0663 B( 12-C , 13-H ) :   0.9740 B( 12-C , 14-H ) :   0.9723
B( 12-C , 15-H ) :   0.9756 B( 16-S , 17-C ) :   1.1457 B( 16-S , 20-C ) :   1.0998
B( 17-C , 18-C ) :   1.6150 B( 17-C , 33-H ) :   0.9699 B( 18-C , 19-C ) :   1.2214
B( 18-C , 21-H ) :   0.9789 B( 19-C , 20-C ) :   1.6346 B( 19-C , 22-C ) :   1.0506
B( 22-C , 23-H ) :   0.9328 B( 22-C , 24-H ) :   0.9277 B( 22-C , 25-C ) :   1.0718
B( 25-C , 26-H ) :   0.9563 B( 25-C , 27-H ) :   0.9587 B( 25-C , 28-C ) :   1.0724
B( 28-C , 29-H ) :   0.9704 B( 28-C , 30-H ) :   0.9742 B( 28-C , 31-H ) :   0.9718

Dispersion correction           -0.015557495
FINAL SINGLE POINT ENERGY     -1339.868670533626

DIPOLE MOMENT
-------------
                                X             Y             Z
Electronic contribution:     10.97100      -4.92451      13.90159
Nuclear contribution   :    -11.43667       4.95624     -14.41798
                        -----------------------------------------
Total Dipole Moment    :     -0.46567       0.03172      -0.51638
                        -----------------------------------------
Magnitude (a.u.)       :      0.69607
Magnitude (Debye)      :      1.76926

Rotational constants in cm-1:     0.019354     0.008723     0.007955
Rotational constants in MHz :   580.214179   261.496007   238.497963

                             ****ORCA TERMINATED NORMALLY****
TOTAL RUN TIME: 0 days 0 hours 0 minutes 21 seconds 74 msec
