                         Program Version 4.2.1 -  RELEASE  -
|  1> ! wB97X-D3 SP def2-SVP
|  2> %pal
|  3> nprocs 24
|  4> end
|  5>
|  6> * xyz 0 1
|  7> S 	 -113.121 	 37.0415 	 -121.552
|  8> C 	 -113.767 	 35.5261 	 -120.86
|  9> C 	 -115.129 	 35.3524 	 -121.164
| 10> C 	 -115.603 	 36.4462 	 -121.925
| 11> C 	 -114.701 	 37.473 	 -122.164
| 12> H 	 -116.607 	 36.4921 	 -122.365
| 13> C 	 -115.831 	 34.0577 	 -120.929
| 14> H 	 -115.342 	 33.2981 	 -121.583
| 15> H 	 -116.692 	 34.2973 	 -121.447
| 16> C 	 -115.837 	 33.4399 	 -119.475
| 17> H 	 -116.524 	 32.57 	 -119.498
| 18> H 	 -114.913 	 32.9539 	 -119.204
| 19> C 	 -116.422 	 34.225 	 -118.275
| 20> H 	 -116.215 	 33.7445 	 -117.261
| 21> H 	 -115.995 	 35.182 	 -118.266
| 22> H 	 -117.547 	 34.2735 	 -118.332
| 23> S 	 -113.941 	 39.3981 	 -124.158
| 24> C 	 -115.031 	 40.8011 	 -124.181
| 25> C 	 -115.929 	 40.8665 	 -123.169
| 26> C 	 -116.02 	 39.6303 	 -122.468
| 27> C 	 -114.945 	 38.7863 	 -122.767
| 28> H 	 -116.635 	 41.6853 	 -123.093
| 29> C 	 -117.093 	 39.44 	 -121.348
| 30> H 	 -116.873 	 40.224 	 -120.64
| 31> H 	 -116.787 	 38.4932 	 -120.922
| 32> C 	 -118.578 	 39.5149 	 -121.781
| 33> H 	 -119.286 	 39.1065 	 -121.044
| 34> H 	 -118.713 	 38.8466 	 -122.654
| 35> C 	 -119.112 	 40.896 	 -122.218
| 36> H 	 -119.061 	 41.528 	 -121.364
| 37> H 	 -120.227 	 40.8799 	 -122.504
| 38> H 	 -118.55 	 41.263 	 -123.073
| 39> H 	 -113.116 	 34.7956 	 -120.316
| 40> H 	 -114.939 	 41.568 	 -124.975
| 41> *
| 42>
| 43>                          ****END OF INPUT****

CARTESIAN COORDINATES (ANGSTROEM)
---------------------------------
  S    -113.121000   37.041500  -121.552000
  C    -113.767000   35.526100  -120.860000
  C    -115.129000   35.352400  -121.164000
  C    -115.603000   36.446200  -121.925000
  C    -114.701000   37.473000  -122.164000
  H    -116.607000   36.492100  -122.365000
  C    -115.831000   34.057700  -120.929000
  H    -115.342000   33.298100  -121.583000
  H    -116.692000   34.297300  -121.447000
  C    -115.837000   33.439900  -119.475000
  H    -116.524000   32.570000  -119.498000
  H    -114.913000   32.953900  -119.204000
  C    -116.422000   34.225000  -118.275000
  H    -116.215000   33.744500  -117.261000
  H    -115.995000   35.182000  -118.266000
  H    -117.547000   34.273500  -118.332000
  S    -113.941000   39.398100  -124.158000
  C    -115.031000   40.801100  -124.181000
  C    -115.929000   40.866500  -123.169000
  C    -116.020000   39.630300  -122.468000
  C    -114.945000   38.786300  -122.767000
  H    -116.635000   41.685300  -123.093000
  C    -117.093000   39.440000  -121.348000
  H    -116.873000   40.224000  -120.640000
  H    -116.787000   38.493200  -120.922000
  C    -118.578000   39.514900  -121.781000
  H    -119.286000   39.106500  -121.044000
  H    -118.713000   38.846600  -122.654000
  C    -119.112000   40.896000  -122.218000
  H    -119.061000   41.528000  -121.364000
  H    -120.227000   40.879900  -122.504000
  H    -118.550000   41.263000  -123.073000
  H    -113.116000   34.795600  -120.316000
  H    -114.939000   41.568000  -124.975000

 Total Charge           Charge          ....    0
 Multiplicity           Mult            ....    1
 Number of Electrons    NEL             ....  134
 Basis Dimension        Dim             ....  322

ORBITAL ENERGIES
----------------

  NO   OCC          E(Eh)            E(eV)
   0   2.0000     -88.969516     -2420.9836
   1   2.0000     -88.965422     -2420.8722
   2   2.0000     -10.332743      -281.1682
   3   2.0000     -10.329147      -281.0704
   4   2.0000     -10.322180      -280.8808
   5   2.0000     -10.318011      -280.7674
   6   2.0000     -10.308132      -280.4985
   7   2.0000     -10.300083      -280.2795
   8   2.0000     -10.295390      -280.1518
   9   2.0000     -10.294700      -280.1330
  10   2.0000     -10.294691      -280.1328
  11   2.0000     -10.294277      -280.1215
  12   2.0000     -10.293223      -280.0928
  13   2.0000     -10.292135      -280.0632
  14   2.0000     -10.284113      -279.8450
  15   2.0000     -10.282366      -279.7974
  16   2.0000      -8.082932      -219.9478
  17   2.0000      -8.079588      -219.8568
  18   2.0000      -6.041487      -164.3972
  19   2.0000      -6.037996      -164.3022
  20   2.0000      -6.037955      -164.3011
  21   2.0000      -6.034128      -164.1970
  22   2.0000      -6.033391      -164.1769
  23   2.0000      -6.030548      -164.0996
  24   2.0000      -0.999803       -27.2060
  25   2.0000      -0.978805       -26.6346
  26   2.0000      -0.908157       -24.7122
  27   2.0000      -0.903568       -24.5873
  28   2.0000      -0.863500       -23.4970
  29   2.0000      -0.850940       -23.1553
  30   2.0000      -0.845076       -22.9957
  31   2.0000      -0.812147       -22.0996
  32   2.0000      -0.788265       -21.4498
  33   2.0000      -0.770077       -20.9549
  34   2.0000      -0.709578       -19.3086
  35   2.0000      -0.703882       -19.1536
  36   2.0000      -0.689797       -18.7703
  37   2.0000      -0.658682       -17.9237
  38   2.0000      -0.633756       -17.2454
  39   2.0000      -0.611635       -16.6434
  40   2.0000      -0.591401       -16.0928
  41   2.0000      -0.565626       -15.3915
  42   2.0000      -0.554747       -15.0954
  43   2.0000      -0.546595       -14.8736
  44   2.0000      -0.543807       -14.7978
  45   2.0000      -0.537084       -14.6148
  46   2.0000      -0.516410       -14.0522
  47   2.0000      -0.510329       -13.8868
  48   2.0000      -0.502905       -13.6847
  49   2.0000      -0.492799       -13.4098
  50   2.0000      -0.489022       -13.3070
  51   2.0000      -0.478847       -13.0301
  52   2.0000      -0.470577       -12.8051
  53   2.0000      -0.464336       -12.6352
  54   2.0000      -0.455197       -12.3866
  55   2.0000      -0.445714       -12.1285
  56   2.0000      -0.441165       -12.0047
  57   2.0000      -0.437569       -11.9069
  58   2.0000      -0.434004       -11.8099
  59   2.0000      -0.429155       -11.6779
  60   2.0000      -0.422954       -11.5092
  61   2.0000      -0.415220       -11.2987
  62   2.0000      -0.408724       -11.1219
  63   2.0000      -0.344124        -9.3641
  64   2.0000      -0.334913        -9.1135
  65   2.0000      -0.331853        -9.0302
  66   2.0000      -0.286022        -7.7831
  67   0.0000       0.027918         0.7597
  68   0.0000       0.060887         1.6568
  69   0.0000       0.104678         2.8484
  70   0.0000       0.115941         3.1549
  71   0.0000       0.123031         3.3478

MULLIKEN ATOMIC CHARGES
-----------------------
   0 S :    0.104339
   1 C :   -0.150544
   2 C :   -0.114942
   3 C :    0.009600
   4 C :   -0.166433
   5 H :    0.022442
   6 C :    0.114157
   7 H :    0.050688
   8 H :   -0.012015
   9 C :   -0.075226
  10 H :    0.028477
  11 H :    0.028997
  12 C :   -0.068151
  13 H :    0.041891
  14 H :    0.034936
  15 H :    0.038833
  16 S :    0.102236
  17 C :   -0.103656
  18 C :   -0.010060
  19 C :   -0.077696
  20 C :   -0.137896
  21 H :    0.023871
  22 C :    0.096109
  23 H :    0.034114
  24 H :    0.028187
  25 C :   -0.079488
  26 H :    0.037878
  27 H :    0.028028
  28 C :   -0.077091
  29 H :    0.027140
  30 H :    0.045546
  31 H :    0.043703
  32 H :    0.066680
  33 H :    0.065343
Sum of atomic charges:    0.0000000

LOEWDIN ATOMIC CHARGES
----------------------
   0 S :    0.395305
   1 C :   -0.193753
   2 C :   -0.071068
   3 C :   -0.075502
   4 C :   -0.193617
   5 H :    0.033936
   6 C :   -0.029474
   7 H :    0.047946
   8 H :    0.019942
   9 C :   -0.044334
  10 H :    0.031029
  11 H :    0.022963
  12 C :   -0.069861
  13 H :    0.035846
  14 H :    0.014879
  15 H :    0.029723
  16 S :    0.360804
  17 C :   -0.164588
  18 C :   -0.075774
  19 C :   -0.041340
  20 C :   -0.186220
  21 H :    0.032810
  22 C :   -0.024892
  23 H :    0.031395
  24 H :    0.030929
  25 C :   -0.045584
  26 H :    0.028424
  27 H :    0.025039
  28 C :   -0.069754
  29 H :    0.018160
  30 H :    0.038439
  31 H :    0.021717
  32 H :    0.034097
  33 H :    0.032376

  Mayer bond orders larger than 0.100000
B(  0-S ,  1-C ) :   1.1471 B(  0-S ,  4-C ) :   1.1610 B(  1-C ,  2-C ) :   1.5663
B(  1-C ,  4-C ) :   0.1068 B(  1-C , 32-H ) :   0.9675 B(  2-C ,  3-C ) :   1.2698
B(  2-C ,  6-C ) :   1.0078 B(  3-C ,  4-C ) :   1.5537 B(  3-C ,  5-H ) :   0.9839
B(  4-C , 20-C ) :   1.0382 B(  6-C ,  7-H ) :   0.9351 B(  6-C ,  8-H ) :   0.9381
B(  6-C ,  9-C ) :   1.0534 B(  9-C , 10-H ) :   0.9574 B(  9-C , 11-H ) :   0.9580
B(  9-C , 12-C ) :   1.0700 B( 12-C , 13-H ) :   0.9732 B( 12-C , 14-H ) :   0.9781
B( 12-C , 15-H ) :   0.9786 B( 16-S , 17-C ) :   1.1378 B( 16-S , 20-C ) :   1.1089
B( 17-C , 18-C ) :   1.6518 B( 17-C , 33-H ) :   0.9585 B( 18-C , 19-C ) :   1.2066
B( 18-C , 21-H ) :   0.9791 B( 19-C , 20-C ) :   1.6373 B( 19-C , 22-C ) :   1.0187
B( 22-C , 23-H ) :   0.9422 B( 22-C , 24-H ) :   0.9290 B( 22-C , 25-C ) :   1.0543
B( 25-C , 26-H ) :   0.9591 B( 25-C , 27-H ) :   0.9562 B( 25-C , 28-C ) :   1.0772
B( 28-C , 29-H ) :   0.9772 B( 28-C , 30-H ) :   0.9689 B( 28-C , 31-H ) :   0.9695

Dispersion correction           -0.014260055
FINAL SINGLE POINT ENERGY     -1339.861567318484

DIPOLE MOMENT
-------------
                                X             Y             Z
Electronic contribution:     24.06705       7.47789     -14.51437
Nuclear contribution   :    -24.73000      -7.62455      14.67198
                        -----------------------------------------
Total Dipole Moment    :     -0.66294      -0.14666       0.15761
                        -----------------------------------------
Magnitude (a.u.)       :      0.69703
Magnitude (Debye)      :      1.77170

Rotational constants in cm-1:     0.019054     0.008424     0.006234
Rotational constants in MHz :   571.229610   252.542303   186.891223

                             ****ORCA TERMINATED NORMALLY****
TOTAL RUN TIME: 0 days 0 hours 0 minutes 21 seconds 445 msec
