                         Program Version 4.2.1 -  RELEASE  -
|  1> ! wB97X-D3 SP def2-SVP
|  2> %pal
|  3> nprocs 24
|  4> end
|  5>
|  6> * xyz 0 1
|  7> S 	 -107.001 	 37.1271 	 -17.3324
|  8> C 	 -106.619 	 35.7355 	 -16.369
|  9> C 	 -105.586 	 34.9573 	 -16.8698
| 10> C 	 -105.254 	 35.4063 	 -18.2161
| 11> C 	 -106.011 	 36.4978 	 -18.5951
| 12> H 	 -104.577 	 35.0397 	 -18.979
| 13> C 	 -104.941 	 33.6581 	 -16.3684
| 14> H 	 -105.149 	 32.8678 	 -17.0512
| 15> H 	 -105.439 	 33.3855 	 -15.4087
| 16> C 	 -103.4 	 33.7944 	 -16.0669
| 17> H 	 -102.883 	 33.933 	 -17.0269
| 18> H 	 -103.255 	 34.6444 	 -15.4342
| 19> C 	 -102.957 	 32.5848 	 -15.2695
| 20> H 	 -101.988 	 32.7047 	 -14.8842
| 21> H 	 -103.584 	 32.4307 	 -14.4418
| 22> H 	 -103.098 	 31.6995 	 -15.9019
| 23> S 	 -105.525 	 38.876 	 -20.0705
| 24> C 	 -105.58 	 38.766 	 -21.7817
| 25> C 	 -105.852 	 37.5029 	 -22.2038
| 26> C 	 -106.005 	 36.5476 	 -21.1482
| 27> C 	 -105.993 	 37.129 	 -19.9031
| 28> H 	 -106.068 	 37.241 	 -23.2409
| 29> C 	 -106.23 	 35.0592 	 -21.4143
| 30> H 	 -106.974 	 34.8819 	 -22.1042
| 31> H 	 -106.506 	 34.5904 	 -20.501
| 32> C 	 -104.967 	 34.2961 	 -21.9325
| 33> H 	 -104.189 	 34.5752 	 -21.2322
| 34> H 	 -104.683 	 34.8746 	 -22.7875
| 35> C 	 -105.091 	 32.7689 	 -22.197
| 36> H 	 -104.159 	 32.4449 	 -22.7508
| 37> H 	 -105.954 	 32.5665 	 -22.8817
| 38> H 	 -105.25 	 32.1068 	 -21.3746
| 39> H 	 -107.061 	 35.6638 	 -15.3656
| 40> H 	 -105.553 	 39.7132 	 -22.3985
| 41> *
| 42>
| 43>                          ****END OF INPUT****

CARTESIAN COORDINATES (ANGSTROEM)
---------------------------------
  S    -107.001000   37.127100  -17.332400
  C    -106.619000   35.735500  -16.369000
  C    -105.586000   34.957300  -16.869800
  C    -105.254000   35.406300  -18.216100
  C    -106.011000   36.497800  -18.595100
  H    -104.577000   35.039700  -18.979000
  C    -104.941000   33.658100  -16.368400
  H    -105.149000   32.867800  -17.051200
  H    -105.439000   33.385500  -15.408700
  C    -103.400000   33.794400  -16.066900
  H    -102.883000   33.933000  -17.026900
  H    -103.255000   34.644400  -15.434200
  C    -102.957000   32.584800  -15.269500
  H    -101.988000   32.704700  -14.884200
  H    -103.584000   32.430700  -14.441800
  H    -103.098000   31.699500  -15.901900
  S    -105.525000   38.876000  -20.070500
  C    -105.580000   38.766000  -21.781700
  C    -105.852000   37.502900  -22.203800
  C    -106.005000   36.547600  -21.148200
  C    -105.993000   37.129000  -19.903100
  H    -106.068000   37.241000  -23.240900
  C    -106.230000   35.059200  -21.414300
  H    -106.974000   34.881900  -22.104200
  H    -106.506000   34.590400  -20.501000
  C    -104.967000   34.296100  -21.932500
  H    -104.189000   34.575200  -21.232200
  H    -104.683000   34.874600  -22.787500
  C    -105.091000   32.768900  -22.197000
  H    -104.159000   32.444900  -22.750800
  H    -105.954000   32.566500  -22.881700
  H    -105.250000   32.106800  -21.374600
  H    -107.061000   35.663800  -15.365600
  H    -105.553000   39.713200  -22.398500

 Total Charge           Charge          ....    0
 Multiplicity           Mult            ....    1
 Number of Electrons    NEL             ....  134
 Basis Dimension        Dim             ....  322

ORBITAL ENERGIES
----------------

  NO   OCC          E(Eh)            E(eV)
   0   2.0000     -88.965593     -2420.8769
   1   2.0000     -88.961005     -2420.7520
   2   2.0000     -10.325758      -280.9782
   3   2.0000     -10.322501      -280.8895
   4   2.0000     -10.319191      -280.7995
   5   2.0000     -10.316356      -280.7223
   6   2.0000     -10.308265      -280.5021
   7   2.0000     -10.302172      -280.3364
   8   2.0000     -10.296514      -280.1824
   9   2.0000     -10.294549      -280.1289
  10   2.0000     -10.292161      -280.0639
  11   2.0000     -10.290042      -280.0063
  12   2.0000     -10.287330      -279.9325
  13   2.0000     -10.287162      -279.9279
  14   2.0000     -10.281385      -279.7707
  15   2.0000     -10.270506      -279.4747
  16   2.0000      -8.081362      -219.9050
  17   2.0000      -8.075915      -219.7568
  18   2.0000      -6.039702      -164.3486
  19   2.0000      -6.035921      -164.2458
  20   2.0000      -6.034451      -164.2057
  21   2.0000      -6.032056      -164.1406
  22   2.0000      -6.030505      -164.0984
  23   2.0000      -6.026531      -163.9903
  24   2.0000      -1.007036       -27.4029
  25   2.0000      -0.984646       -26.7936
  26   2.0000      -0.911482       -24.8027
  27   2.0000      -0.906443       -24.6656
  28   2.0000      -0.870294       -23.6819
  29   2.0000      -0.853949       -23.2371
  30   2.0000      -0.844548       -22.9813
  31   2.0000      -0.809291       -22.0219
  32   2.0000      -0.785829       -21.3835
  33   2.0000      -0.773473       -21.0473
  34   2.0000      -0.707176       -19.2432
  35   2.0000      -0.702954       -19.1283
  36   2.0000      -0.691033       -18.8040
  37   2.0000      -0.661299       -17.9948
  38   2.0000      -0.644277       -17.5317
  39   2.0000      -0.615310       -16.7434
  40   2.0000      -0.598722       -16.2921
  41   2.0000      -0.575481       -15.6596
  42   2.0000      -0.564812       -15.3693
  43   2.0000      -0.554074       -15.0771
  44   2.0000      -0.531768       -14.4701
  45   2.0000      -0.519040       -14.1238
  46   2.0000      -0.514563       -14.0020
  47   2.0000      -0.510233       -13.8841
  48   2.0000      -0.505559       -13.7570
  49   2.0000      -0.502998       -13.6873
  50   2.0000      -0.488347       -13.2886
  51   2.0000      -0.482996       -13.1430
  52   2.0000      -0.473945       -12.8967
  53   2.0000      -0.465349       -12.6628
  54   2.0000      -0.460319       -12.5259
  55   2.0000      -0.452918       -12.3245
  56   2.0000      -0.446661       -12.1543
  57   2.0000      -0.436137       -11.8679
  58   2.0000      -0.432909       -11.7801
  59   2.0000      -0.426714       -11.6115
  60   2.0000      -0.424160       -11.5420
  61   2.0000      -0.420140       -11.4326
  62   2.0000      -0.416652       -11.3377
  63   2.0000      -0.344880        -9.3847
  64   2.0000      -0.331667        -9.0251
  65   2.0000      -0.328997        -8.9525
  66   2.0000      -0.294944        -8.0258
  67   0.0000       0.033866         0.9215
  68   0.0000       0.070618         1.9216
  69   0.0000       0.115346         3.1387
  70   0.0000       0.120877         3.2892
  71   0.0000       0.123100         3.3497

MULLIKEN ATOMIC CHARGES
-----------------------
   0 S :    0.120644
   1 C :   -0.137171
   2 C :   -0.049186
   3 C :    0.023447
   4 C :   -0.181431
   5 H :    0.007518
   6 C :    0.037057
   7 H :    0.034232
   8 H :    0.015050
   9 C :   -0.082941
  10 H :    0.041837
  11 H :    0.028720
  12 C :    0.006751
  13 H :    0.028375
  14 H :    0.009915
  15 H :    0.024010
  16 S :    0.086491
  17 C :   -0.105936
  18 C :   -0.021864
  19 C :   -0.064265
  20 C :   -0.131739
  21 H :    0.022326
  22 C :    0.106749
  23 H :    0.001679
  24 H :    0.015688
  25 C :   -0.076214
  26 H :    0.015410
  27 H :    0.013250
  28 C :   -0.045401
  29 H :    0.048478
  30 H :    0.033466
  31 H :    0.035732
  32 H :    0.055023
  33 H :    0.084299
Sum of atomic charges:   -0.0000000

LOEWDIN ATOMIC CHARGES
----------------------
   0 S :    0.420601
   1 C :   -0.202483
   2 C :   -0.058776
   3 C :   -0.058054
   4 C :   -0.202727
   5 H :    0.031852
   6 C :   -0.027131
   7 H :    0.026307
   8 H :    0.028974
   9 C :   -0.031700
  10 H :    0.025192
  11 H :    0.022916
  12 C :   -0.055598
  13 H :    0.020856
  14 H :    0.018083
  15 H :    0.027448
  16 S :    0.380411
  17 C :   -0.195706
  18 C :   -0.079854
  19 C :   -0.051911
  20 C :   -0.180923
  21 H :    0.032759
  22 C :   -0.020717
  23 H :    0.016079
  24 H :    0.022908
  25 C :   -0.039381
  26 H :    0.017384
  27 H :    0.019873
  28 C :   -0.068851
  29 H :    0.038366
  30 H :    0.030560
  31 H :    0.021496
  32 H :    0.028249
  33 H :    0.043497

  Mayer bond orders larger than 0.100000
B(  0-S ,  1-C ) :   1.1418 B(  0-S ,  4-C ) :   1.1553 B(  1-C ,  2-C ) :   1.6310
B(  1-C , 32-H ) :   0.9651 B(  2-C ,  3-C ) :   1.1884 B(  2-C ,  6-C ) :   1.0247
B(  3-C ,  4-C ) :   1.6044 B(  3-C ,  5-H ) :   0.9924 B(  4-C , 20-C ) :   1.0220
B(  6-C ,  7-H ) :   0.9464 B(  6-C ,  8-H ) :   0.9452 B(  6-C ,  9-C ) :   1.0532
B(  9-C , 10-H ) :   0.9569 B(  9-C , 11-H ) :   0.9569 B(  9-C , 12-C ) :   1.0929
B( 12-C , 13-H ) :   0.9730 B( 12-C , 14-H ) :   0.9713 B( 12-C , 15-H ) :   0.9717
B( 16-S , 17-C ) :   1.1574 B( 16-S , 20-C ) :   1.1179 B( 17-C , 18-C ) :   1.6119
B( 17-C , 33-H ) :   0.9567 B( 18-C , 19-C ) :   1.2223 B( 18-C , 21-H ) :   0.9881
B( 19-C , 20-C ) :   1.6364 B( 19-C , 22-C ) :   1.0556 B( 22-C , 23-H ) :   0.9316
B( 22-C , 24-H ) :   0.9314 B( 22-C , 25-C ) :   1.0531 B( 25-C , 26-H ) :   0.9516
B( 25-C , 27-H ) :   0.9545 B( 25-C , 28-C ) :   1.0689 B( 28-C , 29-H ) :   0.9740
B( 28-C , 30-H ) :   0.9735 B( 28-C , 31-H ) :   0.9779

Dispersion correction           -0.014071242
FINAL SINGLE POINT ENERGY     -1339.881549176255

DIPOLE MOMENT
-------------
                                X             Y             Z
Electronic contribution:    -12.11560      29.00885       0.83018
Nuclear contribution   :     12.29636     -29.64496      -0.95489
                        -----------------------------------------
Total Dipole Moment    :      0.18076      -0.63611      -0.12471
                        -----------------------------------------
Magnitude (a.u.)       :      0.67295
Magnitude (Debye)      :      1.71051

Rotational constants in cm-1:     0.016658     0.008992     0.006643
Rotational constants in MHz :   499.384277   269.575272   199.137279

                             ****ORCA TERMINATED NORMALLY****
TOTAL RUN TIME: 0 days 0 hours 0 minutes 21 seconds 709 msec
