                         Program Version 4.2.1 -  RELEASE  -
|  1> ! wB97X-D3 SP def2-SVP
|  2> %pal
|  3> nprocs 24
|  4> end
|  5>
|  6> * xyz 0 1
|  7> S 	 39.082 	 -2.81643 	 -115.24
|  8> C 	 40.3991 	 -3.691 	 -115.956
|  9> C 	 39.9243 	 -4.54053 	 -116.96
| 10> C 	 38.5229 	 -4.40871 	 -117.158
| 11> C 	 37.944 	 -3.50357 	 -116.272
| 12> H 	 38.0196 	 -5.0539 	 -117.897
| 13> C 	 40.7817 	 -5.63952 	 -117.68
| 14> H 	 40.5718 	 -6.4703 	 -117.012
| 15> H 	 41.8579 	 -5.41479 	 -117.447
| 16> C 	 40.445 	 -5.7281 	 -119.172
| 17> H 	 39.4366 	 -6.08237 	 -119.363
| 18> H 	 40.4098 	 -4.68532 	 -119.56
| 19> C 	 41.3728 	 -6.72023 	 -119.896
| 20> H 	 41.0288 	 -6.98601 	 -120.927
| 21> H 	 42.3362 	 -6.38246 	 -119.979
| 22> H 	 41.5879 	 -7.7333 	 -119.483
| 23> S 	 35.8925 	 -3.52512 	 -114.428
| 24> C 	 34.3032 	 -2.98835 	 -114.895
| 25> C 	 34.2658 	 -2.70759 	 -116.229
| 26> C 	 35.5041 	 -2.85267 	 -116.893
| 27> C 	 36.5302 	 -3.17241 	 -116.03
| 28> H 	 33.2525 	 -2.40675 	 -116.611
| 29> C 	 35.784 	 -2.45214 	 -118.313
| 30> H 	 36.6543 	 -3.07273 	 -118.602
| 31> H 	 36.0712 	 -1.39758 	 -118.199
| 32> C 	 34.6025 	 -2.42982 	 -119.308
| 33> H 	 34.8526 	 -2.0554 	 -120.293
| 34> H 	 33.8797 	 -1.6883 	 -118.959
| 35> C 	 33.9355 	 -3.81712 	 -119.561
| 36> H 	 34.3114 	 -4.63887 	 -120.133
| 37> H 	 33.0433 	 -3.62545 	 -120.172
| 38> H 	 33.3412 	 -4.46962 	 -118.814
| 39> H 	 41.3889 	 -3.62835 	 -115.503
| 40> H 	 33.3732 	 -2.90547 	 -114.284
| 41> *
| 42>
| 43>                          ****END OF INPUT****

CARTESIAN COORDINATES (ANGSTROEM)
---------------------------------
  S     39.082000   -2.816430  -115.240000
  C     40.399100   -3.691000  -115.956000
  C     39.924300   -4.540530  -116.960000
  C     38.522900   -4.408710  -117.158000
  C     37.944000   -3.503570  -116.272000
  H     38.019600   -5.053900  -117.897000
  C     40.781700   -5.639520  -117.680000
  H     40.571800   -6.470300  -117.012000
  H     41.857900   -5.414790  -117.447000
  C     40.445000   -5.728100  -119.172000
  H     39.436600   -6.082370  -119.363000
  H     40.409800   -4.685320  -119.560000
  C     41.372800   -6.720230  -119.896000
  H     41.028800   -6.986010  -120.927000
  H     42.336200   -6.382460  -119.979000
  H     41.587900   -7.733300  -119.483000
  S     35.892500   -3.525120  -114.428000
  C     34.303200   -2.988350  -114.895000
  C     34.265800   -2.707590  -116.229000
  C     35.504100   -2.852670  -116.893000
  C     36.530200   -3.172410  -116.030000
  H     33.252500   -2.406750  -116.611000
  C     35.784000   -2.452140  -118.313000
  H     36.654300   -3.072730  -118.602000
  H     36.071200   -1.397580  -118.199000
  C     34.602500   -2.429820  -119.308000
  H     34.852600   -2.055400  -120.293000
  H     33.879700   -1.688300  -118.959000
  C     33.935500   -3.817120  -119.561000
  H     34.311400   -4.638870  -120.133000
  H     33.043300   -3.625450  -120.172000
  H     33.341200   -4.469620  -118.814000
  H     41.388900   -3.628350  -115.503000
  H     33.373200   -2.905470  -114.284000

 Total Charge           Charge          ....    0
 Multiplicity           Mult            ....    1
 Number of Electrons    NEL             ....  134
 Basis Dimension        Dim             ....  322

ORBITAL ENERGIES
----------------

  NO   OCC          E(Eh)            E(eV)
   0   2.0000     -88.964102     -2420.8363
   1   2.0000     -88.962139     -2420.7829
   2   2.0000     -10.326480      -280.9978
   3   2.0000     -10.321098      -280.8514
   4   2.0000     -10.314327      -280.6671
   5   2.0000     -10.310562      -280.5647
   6   2.0000     -10.302256      -280.3386
   7   2.0000     -10.299702      -280.2691
   8   2.0000     -10.299537      -280.2647
   9   2.0000     -10.298363      -280.2327
  10   2.0000     -10.296537      -280.1830
  11   2.0000     -10.294671      -280.1322
  12   2.0000     -10.290707      -280.0244
  13   2.0000     -10.290633      -280.0224
  14   2.0000     -10.281201      -279.7657
  15   2.0000     -10.278270      -279.6860
  16   2.0000      -8.080341      -219.8773
  17   2.0000      -8.076809      -219.7812
  18   2.0000      -6.038629      -164.3194
  19   2.0000      -6.035379      -164.2310
  20   2.0000      -6.034427      -164.2051
  21   2.0000      -6.031468      -164.1246
  22   2.0000      -6.031283      -164.1195
  23   2.0000      -6.027555      -164.0181
  24   2.0000      -1.011526       -27.5250
  25   2.0000      -0.987466       -26.8703
  26   2.0000      -0.909985       -24.7619
  27   2.0000      -0.905207       -24.6319
  28   2.0000      -0.867705       -23.6115
  29   2.0000      -0.849735       -23.1225
  30   2.0000      -0.842142       -22.9159
  31   2.0000      -0.813408       -22.1340
  32   2.0000      -0.784582       -21.3496
  33   2.0000      -0.773802       -21.0562
  34   2.0000      -0.717721       -19.5302
  35   2.0000      -0.707784       -19.2598
  36   2.0000      -0.690568       -18.7913
  37   2.0000      -0.648923       -17.6581
  38   2.0000      -0.637498       -17.3472
  39   2.0000      -0.623467       -16.9654
  40   2.0000      -0.585673       -15.9370
  41   2.0000      -0.563637       -15.3373
  42   2.0000      -0.561412       -15.2768
  43   2.0000      -0.555561       -15.1176
  44   2.0000      -0.531751       -14.4697
  45   2.0000      -0.521852       -14.2003
  46   2.0000      -0.515027       -14.0146
  47   2.0000      -0.508980       -13.8501
  48   2.0000      -0.501291       -13.6408
  49   2.0000      -0.496925       -13.5220
  50   2.0000      -0.487932       -13.2773
  51   2.0000      -0.480167       -13.0660
  52   2.0000      -0.474792       -12.9197
  53   2.0000      -0.465132       -12.6569
  54   2.0000      -0.455983       -12.4079
  55   2.0000      -0.452471       -12.3124
  56   2.0000      -0.445728       -12.1289
  57   2.0000      -0.440817       -11.9952
  58   2.0000      -0.429749       -11.6941
  59   2.0000      -0.419099       -11.4043
  60   2.0000      -0.413381       -11.2487
  61   2.0000      -0.412773       -11.2321
  62   2.0000      -0.411227       -11.1900
  63   2.0000      -0.342340        -9.3156
  64   2.0000      -0.331163        -9.0114
  65   2.0000      -0.326764        -8.8917
  66   2.0000      -0.291617        -7.9353
  67   0.0000       0.035267         0.9597
  68   0.0000       0.074454         2.0260
  69   0.0000       0.122532         3.3343
  70   0.0000       0.126761         3.4493
  71   0.0000       0.133142         3.6230

MULLIKEN ATOMIC CHARGES
-----------------------
   0 S :    0.120634
   1 C :   -0.147609
   2 C :   -0.120958
   3 C :    0.027641
   4 C :   -0.175362
   5 H :    0.023897
   6 C :    0.062505
   7 H :    0.048297
   8 H :    0.027693
   9 C :   -0.075842
  10 H :    0.033787
  11 H :    0.049451
  12 C :   -0.031449
  13 H :    0.031479
  14 H :    0.009125
  15 H :    0.028151
  16 S :    0.108716
  17 C :   -0.101002
  18 C :   -0.074329
  19 C :   -0.023516
  20 C :   -0.142867
  21 H :    0.032346
  22 C :    0.076167
  23 H :    0.029371
  24 H :    0.048225
  25 C :   -0.015547
  26 H :    0.032980
  27 H :    0.031542
  28 C :   -0.098751
  29 H :    0.023266
  30 H :    0.011345
  31 H :    0.030896
  32 H :    0.054245
  33 H :    0.065473
Sum of atomic charges:   -0.0000000

LOEWDIN ATOMIC CHARGES
----------------------
   0 S :    0.451406
   1 C :   -0.219328
   2 C :   -0.061254
   3 C :   -0.076569
   4 C :   -0.215429
   5 H :    0.034779
   6 C :   -0.030690
   7 H :    0.036500
   8 H :    0.033875
   9 C :   -0.042690
  10 H :    0.024264
  11 H :    0.037246
  12 C :   -0.071084
  13 H :    0.030397
  14 H :    0.011379
  15 H :    0.033566
  16 S :    0.402796
  17 C :   -0.196569
  18 C :   -0.084900
  19 C :   -0.058503
  20 C :   -0.204210
  21 H :    0.040086
  22 C :   -0.034244
  23 H :    0.034271
  24 H :    0.043139
  25 C :   -0.033093
  26 H :    0.032046
  27 H :    0.029775
  28 C :   -0.103574
  29 H :    0.022477
  30 H :    0.028473
  31 H :    0.036469
  32 H :    0.027392
  33 H :    0.041802

  Mayer bond orders larger than 0.100000
B(  0-S ,  1-C ) :   1.1523 B(  0-S ,  4-C ) :   1.2112 B(  1-C ,  2-C ) :   1.5723
B(  1-C ,  4-C ) :   0.1031 B(  1-C , 32-H ) :   0.9738 B(  2-C ,  3-C ) :   1.2959
B(  2-C ,  6-C ) :   0.9953 B(  3-C ,  4-C ) :   1.5145 B(  3-C ,  5-H ) :   0.9886
B(  4-C , 20-C ) :   0.9971 B(  6-C ,  7-H ) :   0.9393 B(  6-C ,  8-H ) :   0.9497
B(  6-C ,  9-C ) :   1.0492 B(  9-C , 10-H ) :   0.9516 B(  9-C , 11-H ) :   0.9613
B(  9-C , 12-C ) :   1.0722 B( 12-C , 13-H ) :   0.9756 B( 12-C , 14-H ) :   0.9750
B( 12-C , 15-H ) :   0.9728 B( 16-S , 17-C ) :   1.1502 B( 16-S , 20-C ) :   1.1439
B( 17-C , 18-C ) :   1.6340 B( 17-C , 20-C ) :   0.1025 B( 17-C , 33-H ) :   0.9570
B( 18-C , 19-C ) :   1.2241 B( 18-C , 21-H ) :   0.9822 B( 19-C , 20-C ) :   1.6063
B( 19-C , 22-C ) :   1.0292 B( 22-C , 23-H ) :   0.9301 B( 22-C , 24-H ) :   0.9328
B( 22-C , 25-C ) :   1.0885 B( 25-C , 26-H ) :   0.9535 B( 25-C , 27-H ) :   0.9469
B( 25-C , 28-C ) :   1.0509 B( 28-C , 29-H ) :   0.9818 B( 28-C , 30-H ) :   0.9690
B( 28-C , 31-H ) :   0.9744

Dispersion correction           -0.013814637
FINAL SINGLE POINT ENERGY     -1339.856837210564

DIPOLE MOMENT
-------------
                                X             Y             Z
Electronic contribution:     -1.05162      10.31824      27.46969
Nuclear contribution   :      0.97141     -10.53885     -28.06405
                        -----------------------------------------
Total Dipole Moment    :     -0.08021      -0.22061      -0.59436
                        -----------------------------------------
Magnitude (a.u.)       :      0.63903
Magnitude (Debye)      :      1.62430

Rotational constants in cm-1:     0.017824     0.008593     0.006366
Rotational constants in MHz :   534.351621   257.598436   190.833300

                             ****ORCA TERMINATED NORMALLY****
TOTAL RUN TIME: 0 days 0 hours 0 minutes 21 seconds 301 msec
