                         Program Version 4.2.1 -  RELEASE  -
|  1> ! wB97X-D3 SP def2-SVP
|  2> %pal
|  3> nprocs 24
|  4> end
|  5>
|  6> * xyz 0 1
|  7> S 	 -57.9828 	 14.4825 	 -99.272
|  8> C 	 -56.9962 	 15.5146 	 -100.271
|  9> C 	 -56.5033 	 14.923 	 -101.383
| 10> C 	 -56.8666 	 13.5785 	 -101.512
| 11> C 	 -57.7868 	 13.1947 	 -100.502
| 12> H 	 -56.5845 	 12.9212 	 -102.304
| 13> C 	 -55.6351 	 15.5523 	 -102.433
| 14> H 	 -56.191 	 16.4059 	 -102.833
| 15> H 	 -55.5523 	 14.8233 	 -103.279
| 16> C 	 -54.2029 	 16.1556 	 -102.008
| 17> H 	 -53.5203 	 15.32 	 -101.786
| 18> H 	 -53.6381 	 16.672 	 -102.851
| 19> C 	 -54.2342 	 17.2168 	 -100.885
| 20> H 	 -54.6714 	 16.7357 	 -99.9053
| 21> H 	 -53.2285 	 17.551 	 -100.687
| 22> H 	 -54.8134 	 18.0883 	 -101.104
| 23> S 	 -57.4777 	 11.0117 	 -98.8446
| 24> C 	 -58.2529 	 9.50364 	 -99.1553
| 25> C 	 -58.984 	 9.60765 	 -100.345
| 26> C 	 -58.9382 	 10.9104 	 -100.939
| 27> C 	 -58.1696 	 11.8576 	 -100.243
| 28> H 	 -59.3742 	 8.68053 	 -100.731
| 29> C 	 -59.5535 	 11.1508 	 -102.291
| 30> H 	 -58.932 	 10.6659 	 -102.997
| 31> H 	 -59.6151 	 12.2089 	 -102.485
| 32> C 	 -60.9641 	 10.5671 	 -102.624
| 33> H 	 -61.751 	 10.9671 	 -101.964
| 34> H 	 -61.0196 	 9.52066 	 -102.624
| 35> C 	 -61.4655 	 10.9821 	 -104.013
| 36> H 	 -62.4534 	 10.5357 	 -104.22
| 37> H 	 -60.8042 	 10.6278 	 -104.736
| 38> H 	 -61.6135 	 12.083 	 -103.939
| 39> H 	 -57.006 	 16.5925 	 -100.003
| 40> H 	 -58.1746 	 8.60234 	 -98.621
| 41> *
| 42>
| 43>                          ****END OF INPUT****

CARTESIAN COORDINATES (ANGSTROEM)
---------------------------------
  S    -57.982800   14.482500  -99.272000
  C    -56.996200   15.514600  -100.271000
  C    -56.503300   14.923000  -101.383000
  C    -56.866600   13.578500  -101.512000
  C    -57.786800   13.194700  -100.502000
  H    -56.584500   12.921200  -102.304000
  C    -55.635100   15.552300  -102.433000
  H    -56.191000   16.405900  -102.833000
  H    -55.552300   14.823300  -103.279000
  C    -54.202900   16.155600  -102.008000
  H    -53.520300   15.320000  -101.786000
  H    -53.638100   16.672000  -102.851000
  C    -54.234200   17.216800  -100.885000
  H    -54.671400   16.735700  -99.905300
  H    -53.228500   17.551000  -100.687000
  H    -54.813400   18.088300  -101.104000
  S    -57.477700   11.011700  -98.844600
  C    -58.252900    9.503640  -99.155300
  C    -58.984000    9.607650  -100.345000
  C    -58.938200   10.910400  -100.939000
  C    -58.169600   11.857600  -100.243000
  H    -59.374200    8.680530  -100.731000
  C    -59.553500   11.150800  -102.291000
  H    -58.932000   10.665900  -102.997000
  H    -59.615100   12.208900  -102.485000
  C    -60.964100   10.567100  -102.624000
  H    -61.751000   10.967100  -101.964000
  H    -61.019600    9.520660  -102.624000
  C    -61.465500   10.982100  -104.013000
  H    -62.453400   10.535700  -104.220000
  H    -60.804200   10.627800  -104.736000
  H    -61.613500   12.083000  -103.939000
  H    -57.006000   16.592500  -100.003000
  H    -58.174600    8.602340  -98.621000

 Total Charge           Charge          ....    0
 Multiplicity           Mult            ....    1
 Number of Electrons    NEL             ....  134
 Basis Dimension        Dim             ....  322

ORBITAL ENERGIES
----------------

  NO   OCC          E(Eh)            E(eV)
   0   2.0000     -88.969529     -2420.9840
   1   2.0000     -88.959886     -2420.7216
   2   2.0000     -10.331834      -281.1435
   3   2.0000     -10.323017      -280.9036
   4   2.0000     -10.316008      -280.7129
   5   2.0000     -10.312663      -280.6218
   6   2.0000     -10.303244      -280.3655
   7   2.0000     -10.300529      -280.2916
   8   2.0000     -10.299980      -280.2767
   9   2.0000     -10.298344      -280.2322
  10   2.0000     -10.297979      -280.2223
  11   2.0000     -10.290244      -280.0118
  12   2.0000     -10.284880      -279.8658
  13   2.0000     -10.284367      -279.8518
  14   2.0000     -10.279403      -279.7168
  15   2.0000     -10.274196      -279.5751
  16   2.0000      -8.083958      -219.9757
  17   2.0000      -8.074686      -219.7234
  18   2.0000      -6.042327      -164.4201
  19   2.0000      -6.038529      -164.3167
  20   2.0000      -6.034855      -164.2168
  21   2.0000      -6.033245      -164.1729
  22   2.0000      -6.028946      -164.0560
  23   2.0000      -6.025600      -163.9649
  24   2.0000      -1.005770       -27.3684
  25   2.0000      -0.982911       -26.7464
  26   2.0000      -0.906922       -24.6786
  27   2.0000      -0.903564       -24.5872
  28   2.0000      -0.870030       -23.6747
  29   2.0000      -0.855351       -23.2753
  30   2.0000      -0.848133       -23.0789
  31   2.0000      -0.809174       -22.0187
  32   2.0000      -0.781340       -21.2614
  33   2.0000      -0.769688       -20.9443
  34   2.0000      -0.709199       -19.2983
  35   2.0000      -0.698229       -18.9998
  36   2.0000      -0.695248       -18.9187
  37   2.0000      -0.656267       -17.8579
  38   2.0000      -0.644009       -17.5244
  39   2.0000      -0.617210       -16.7951
  40   2.0000      -0.593236       -16.1428
  41   2.0000      -0.577274       -15.7084
  42   2.0000      -0.565949       -15.4003
  43   2.0000      -0.543119       -14.7790
  44   2.0000      -0.540047       -14.6954
  45   2.0000      -0.525920       -14.3110
  46   2.0000      -0.519457       -14.1351
  47   2.0000      -0.513887       -13.9836
  48   2.0000      -0.504156       -13.7188
  49   2.0000      -0.499481       -13.5916
  50   2.0000      -0.491069       -13.3627
  51   2.0000      -0.484077       -13.1724
  52   2.0000      -0.463003       -12.5990
  53   2.0000      -0.462101       -12.5744
  54   2.0000      -0.458247       -12.4695
  55   2.0000      -0.450803       -12.2670
  56   2.0000      -0.443489       -12.0679
  57   2.0000      -0.434879       -11.8337
  58   2.0000      -0.431787       -11.7495
  59   2.0000      -0.429326       -11.6826
  60   2.0000      -0.417139       -11.3509
  61   2.0000      -0.411825       -11.2063
  62   2.0000      -0.407623       -11.0920
  63   2.0000      -0.343592        -9.3496
  64   2.0000      -0.331319        -9.0156
  65   2.0000      -0.323194        -8.7946
  66   2.0000      -0.292412        -7.9569
  67   0.0000       0.027624         0.7517
  68   0.0000       0.058375         1.5885
  69   0.0000       0.111108         3.0234
  70   0.0000       0.122342         3.3291
  71   0.0000       0.127134         3.4595

MULLIKEN ATOMIC CHARGES
-----------------------
   0 S :    0.117877
   1 C :   -0.157664
   2 C :   -0.036763
   3 C :    0.036399
   4 C :   -0.190048
   5 H :    0.015013
   6 C :    0.056773
   7 H :    0.035277
   8 H :    0.027953
   9 C :   -0.090201
  10 H :    0.036441
  11 H :    0.036407
  12 C :   -0.078276
  13 H :    0.053277
  14 H :    0.034564
  15 H :    0.029775
  16 S :    0.103456
  17 C :   -0.077394
  18 C :   -0.049000
  19 C :   -0.007613
  20 C :   -0.147988
  21 H :    0.016754
  22 C :    0.082649
  23 H :    0.022785
  24 H :    0.021386
  25 C :   -0.096806
  26 H :    0.032203
  27 H :    0.016473
  28 C :   -0.049041
  29 H :    0.033390
  30 H :    0.020767
  31 H :    0.038137
  32 H :    0.070742
  33 H :    0.042296
Sum of atomic charges:   -0.0000000

LOEWDIN ATOMIC CHARGES
----------------------
   0 S :    0.403030
   1 C :   -0.194125
   2 C :   -0.075385
   3 C :   -0.036228
   4 C :   -0.189736
   5 H :    0.032028
   6 C :   -0.033606
   7 H :    0.033701
   8 H :    0.033687
   9 C :   -0.044805
  10 H :    0.024398
  11 H :    0.030902
  12 C :   -0.074422
  13 H :    0.036695
  14 H :    0.025883
  15 H :    0.018206
  16 S :    0.408270
  17 C :   -0.186460
  18 C :   -0.076653
  19 C :   -0.054206
  20 C :   -0.205926
  21 H :    0.029045
  22 C :   -0.028392
  23 H :    0.028843
  24 H :    0.028367
  25 C :   -0.037994
  26 H :    0.025900
  27 H :    0.010350
  28 C :   -0.058654
  29 H :    0.029090
  30 H :    0.012044
  31 H :    0.029453
  32 H :    0.033235
  33 H :    0.023462

  Mayer bond orders larger than 0.100000
B(  0-S ,  1-C ) :   1.1475 B(  0-S ,  4-C ) :   1.1546 B(  1-C ,  2-C ) :   1.5932
B(  1-C , 32-H ) :   0.9563 B(  2-C ,  3-C ) :   1.2708 B(  2-C ,  6-C ) :   1.0133
B(  3-C ,  4-C ) :   1.5338 B(  3-C ,  5-H ) :   0.9950 B(  4-C , 20-C ) :   1.0734
B(  6-C ,  7-H ) :   0.9392 B(  6-C ,  8-H ) :   0.9461 B(  6-C ,  9-C ) :   1.0506
B(  9-C , 10-H ) :   0.9600 B(  9-C , 11-H ) :   0.9581 B(  9-C , 12-C ) :   1.0771
B( 12-C , 13-H ) :   0.9665 B( 12-C , 14-H ) :   0.9715 B( 12-C , 15-H ) :   0.9762
B( 16-S , 17-C ) :   1.1734 B( 16-S , 20-C ) :   1.1297 B( 17-C , 18-C ) :   1.5849
B( 17-C , 20-C ) :   0.1030 B( 17-C , 33-H ) :   0.9729 B( 18-C , 19-C ) :   1.2476
B( 18-C , 21-H ) :   0.9947 B( 19-C , 20-C ) :   1.5682 B( 19-C , 22-C ) :   1.0580
B( 22-C , 23-H ) :   0.9276 B( 22-C , 24-H ) :   0.9353 B( 22-C , 25-C ) :   1.0655
B( 25-C , 26-H ) :   0.9600 B( 25-C , 27-H ) :   0.9524 B( 25-C , 28-C ) :   1.0907
B( 28-C , 29-H ) :   0.9733 B( 28-C , 30-H ) :   0.9757 B( 28-C , 31-H ) :   0.9782

Dispersion correction           -0.013603926
FINAL SINGLE POINT ENERGY     -1339.867075355608

DIPOLE MOMENT
-------------
                                X             Y             Z
Electronic contribution:     -0.28634      -6.46805      20.72868
Nuclear contribution   :      0.44120       6.49561     -21.36153
                        -----------------------------------------
Total Dipole Moment    :      0.15486       0.02756      -0.63284
                        -----------------------------------------
Magnitude (a.u.)       :      0.65210
Magnitude (Debye)      :      1.65750

Rotational constants in cm-1:     0.020361     0.007408     0.006169
Rotational constants in MHz :   610.396276   222.097413   184.954831

                             ****ORCA TERMINATED NORMALLY****
TOTAL RUN TIME: 0 days 0 hours 0 minutes 20 seconds 880 msec
