                         Program Version 4.2.1 -  RELEASE  -
|  1> ! wB97X-D3 SP def2-SVP
|  2> %pal
|  3> nprocs 24
|  4> end
|  5>
|  6> * xyz 0 1
|  7> S 	 -79.1495 	 -3.94806 	 -60.4313
|  8> C 	 -79.1908 	 -5.03678 	 -59.0182
|  9> C 	 -80.4632 	 -5.59018 	 -58.8502
| 10> C 	 -81.409 	 -5.32929 	 -59.904
| 11> C 	 -80.8173 	 -4.50593 	 -60.8708
| 12> H 	 -82.4136 	 -5.67907 	 -59.8977
| 13> C 	 -80.8435 	 -6.40395 	 -57.6283
| 14> H 	 -80.1468 	 -6.04019 	 -56.8933
| 15> H 	 -80.6817 	 -7.34896 	 -57.9873
| 16> C 	 -82.222 	 -6.11873 	 -57.02
| 17> H 	 -82.2474 	 -5.09702 	 -56.7337
| 18> H 	 -82.9082 	 -6.2925 	 -57.8244
| 19> C 	 -82.4557 	 -6.96354 	 -55.7594
| 20> H 	 -82.0308 	 -6.28164 	 -54.995
| 21> H 	 -83.4837 	 -7.16464 	 -55.4269
| 22> H 	 -81.9499 	 -7.93452 	 -55.7547
| 23> S 	 -80.9467 	 -2.74709 	 -63.0693
| 24> C 	 -82.4018 	 -2.76799 	 -64.0386
| 25> C 	 -83.2739 	 -3.76054 	 -63.6673
| 26> C 	 -82.8464 	 -4.53524 	 -62.5377
| 27> C 	 -81.5729 	 -4.08092 	 -62.0628
| 28> H 	 -84.0948 	 -3.90658 	 -64.2322
| 29> C 	 -83.8209 	 -5.53332 	 -61.9362
| 30> H 	 -83.2087 	 -6.29927 	 -61.5219
| 31> H 	 -84.3413 	 -6.02798 	 -62.8309
| 32> C 	 -84.8901 	 -4.94515 	 -60.9298
| 33> H 	 -85.4595 	 -4.20803 	 -61.5108
| 34> H 	 -84.3991 	 -4.38053 	 -60.2088
| 35> C 	 -85.8752 	 -5.94509 	 -60.2646
| 36> H 	 -86.7932 	 -5.46456 	 -59.8673
| 37> H 	 -85.2948 	 -6.57731 	 -59.579
| 38> H 	 -86.3686 	 -6.6442 	 -60.9137
| 39> H 	 -78.4127 	 -5.19806 	 -58.2994
| 40> H 	 -82.5057 	 -2.06285 	 -64.8206
| 41> *
| 42>
| 43>                          ****END OF INPUT****

CARTESIAN COORDINATES (ANGSTROEM)
---------------------------------
  S    -79.149500   -3.948060  -60.431300
  C    -79.190800   -5.036780  -59.018200
  C    -80.463200   -5.590180  -58.850200
  C    -81.409000   -5.329290  -59.904000
  C    -80.817300   -4.505930  -60.870800
  H    -82.413600   -5.679070  -59.897700
  C    -80.843500   -6.403950  -57.628300
  H    -80.146800   -6.040190  -56.893300
  H    -80.681700   -7.348960  -57.987300
  C    -82.222000   -6.118730  -57.020000
  H    -82.247400   -5.097020  -56.733700
  H    -82.908200   -6.292500  -57.824400
  C    -82.455700   -6.963540  -55.759400
  H    -82.030800   -6.281640  -54.995000
  H    -83.483700   -7.164640  -55.426900
  H    -81.949900   -7.934520  -55.754700
  S    -80.946700   -2.747090  -63.069300
  C    -82.401800   -2.767990  -64.038600
  C    -83.273900   -3.760540  -63.667300
  C    -82.846400   -4.535240  -62.537700
  C    -81.572900   -4.080920  -62.062800
  H    -84.094800   -3.906580  -64.232200
  C    -83.820900   -5.533320  -61.936200
  H    -83.208700   -6.299270  -61.521900
  H    -84.341300   -6.027980  -62.830900
  C    -84.890100   -4.945150  -60.929800
  H    -85.459500   -4.208030  -61.510800
  H    -84.399100   -4.380530  -60.208800
  C    -85.875200   -5.945090  -60.264600
  H    -86.793200   -5.464560  -59.867300
  H    -85.294800   -6.577310  -59.579000
  H    -86.368600   -6.644200  -60.913700
  H    -78.412700   -5.198060  -58.299400
  H    -82.505700   -2.062850  -64.820600

 Total Charge           Charge          ....    0
 Multiplicity           Mult            ....    1
 Number of Electrons    NEL             ....  134
 Basis Dimension        Dim             ....  322

ORBITAL ENERGIES
----------------

  NO   OCC          E(Eh)            E(eV)
   0   2.0000     -88.972225     -2421.0573
   1   2.0000     -88.966311     -2420.8964
   2   2.0000     -10.340792      -281.3872
   3   2.0000     -10.336661      -281.2748
   4   2.0000     -10.314749      -280.6786
   5   2.0000     -10.313564      -280.6463
   6   2.0000     -10.309742      -280.5424
   7   2.0000     -10.301708      -280.3237
   8   2.0000     -10.299998      -280.2772
   9   2.0000     -10.293809      -280.1088
  10   2.0000     -10.292517      -280.0736
  11   2.0000     -10.286863      -279.9198
  12   2.0000     -10.286197      -279.9016
  13   2.0000     -10.285591      -279.8852
  14   2.0000     -10.283110      -279.8176
  15   2.0000     -10.281337      -279.7694
  16   2.0000      -8.084822      -219.9992
  17   2.0000      -8.080688      -219.8867
  18   2.0000      -6.043643      -164.4559
  19   2.0000      -6.039838      -164.3523
  20   2.0000      -6.039172      -164.3342
  21   2.0000      -6.035291      -164.2286
  22   2.0000      -6.035190      -164.2259
  23   2.0000      -6.031487      -164.1251
  24   2.0000      -0.996476       -27.1155
  25   2.0000      -0.974982       -26.5306
  26   2.0000      -0.915410       -24.9096
  27   2.0000      -0.905034       -24.6272
  28   2.0000      -0.866968       -23.5914
  29   2.0000      -0.854331       -23.2475
  30   2.0000      -0.845968       -23.0199
  31   2.0000      -0.814684       -22.1687
  32   2.0000      -0.784176       -21.3385
  33   2.0000      -0.768527       -20.9127
  34   2.0000      -0.717142       -19.5144
  35   2.0000      -0.706571       -19.2268
  36   2.0000      -0.694890       -18.9089
  37   2.0000      -0.666715       -18.1422
  38   2.0000      -0.635592       -17.2953
  39   2.0000      -0.623452       -16.9650
  40   2.0000      -0.595007       -16.1910
  41   2.0000      -0.584594       -15.9076
  42   2.0000      -0.564800       -15.3690
  43   2.0000      -0.558505       -15.1977
  44   2.0000      -0.530103       -14.4248
  45   2.0000      -0.527646       -14.3580
  46   2.0000      -0.518768       -14.1164
  47   2.0000      -0.516647       -14.0587
  48   2.0000      -0.504734       -13.7345
  49   2.0000      -0.495134       -13.4733
  50   2.0000      -0.492707       -13.4072
  51   2.0000      -0.481638       -13.1060
  52   2.0000      -0.470753       -12.8098
  53   2.0000      -0.459122       -12.4933
  54   2.0000      -0.457720       -12.4552
  55   2.0000      -0.456215       -12.4142
  56   2.0000      -0.451119       -12.2756
  57   2.0000      -0.440139       -11.9768
  58   2.0000      -0.435434       -11.8488
  59   2.0000      -0.424294       -11.5456
  60   2.0000      -0.421798       -11.4777
  61   2.0000      -0.417560       -11.3624
  62   2.0000      -0.411955       -11.2099
  63   2.0000      -0.360884        -9.8202
  64   2.0000      -0.335426        -9.1274
  65   2.0000      -0.327804        -8.9200
  66   2.0000      -0.275426        -7.4947
  67   0.0000       0.013677         0.3722
  68   0.0000       0.080447         2.1891
  69   0.0000       0.094419         2.5693
  70   0.0000       0.119787         3.2596
  71   0.0000       0.124241         3.3808

MULLIKEN ATOMIC CHARGES
-----------------------
   0 S :    0.106774
   1 C :   -0.119293
   2 C :   -0.103121
   3 C :   -0.018118
   4 C :   -0.068409
   5 H :   -0.011928
   6 C :    0.092381
   7 H :    0.013286
   8 H :    0.029721
   9 C :   -0.074953
  10 H :    0.032061
  11 H :    0.025163
  12 C :   -0.053660
  13 H :    0.033693
  14 H :    0.037578
  15 H :    0.037806
  16 S :    0.091537
  17 C :   -0.079791
  18 C :    0.025149
  19 C :   -0.069618
  20 C :   -0.138109
  21 H :   -0.027169
  22 C :    0.024632
  23 H :    0.022257
  24 H :    0.035554
  25 C :   -0.028238
  26 H :    0.021475
  27 H :    0.023384
  28 C :   -0.039670
  29 H :    0.044001
  30 H :    0.034426
  31 H :    0.017343
  32 H :    0.038005
  33 H :    0.045855
Sum of atomic charges:    0.0000000

LOEWDIN ATOMIC CHARGES
----------------------
   0 S :    0.364857
   1 C :   -0.199499
   2 C :   -0.049854
   3 C :   -0.066726
   4 C :   -0.156877
   5 H :    0.025447
   6 C :   -0.022235
   7 H :    0.028517
   8 H :    0.022885
   9 C :   -0.033278
  10 H :    0.025068
  11 H :    0.012904
  12 C :   -0.069042
  13 H :    0.033081
  14 H :    0.027620
  15 H :    0.026390
  16 S :    0.386969
  17 C :   -0.170861
  18 C :   -0.056730
  19 C :   -0.053105
  20 C :   -0.182030
  21 H :    0.013419
  22 C :   -0.036918
  23 H :    0.019323
  24 H :    0.040167
  25 C :   -0.032840
  26 H :    0.027401
  27 H :    0.016396
  28 C :   -0.070375
  29 H :    0.036621
  30 H :    0.025780
  31 H :    0.022361
  32 H :    0.025218
  33 H :    0.019946

  Mayer bond orders larger than 0.100000
B(  0-S ,  1-C ) :   1.0984 B(  0-S ,  4-C ) :   1.1303 B(  1-C ,  2-C ) :   1.6423
B(  1-C , 32-H ) :   0.9672 B(  2-C ,  3-C ) :   1.2283 B(  2-C ,  6-C ) :   0.9991
B(  3-C ,  4-C ) :   1.5541 B(  3-C ,  5-H ) :   0.9863 B(  4-C , 20-C ) :   1.1164
B(  6-C ,  7-H ) :   0.9444 B(  6-C ,  8-H ) :   0.9334 B(  6-C ,  9-C ) :   1.0770
B(  9-C , 10-H ) :   0.9659 B(  9-C , 11-H ) :   0.9519 B(  9-C , 12-C ) :   1.0682
B( 12-C , 13-H ) :   0.9791 B( 12-C , 14-H ) :   0.9761 B( 12-C , 15-H ) :   0.9770
B( 16-S , 17-C ) :   1.1513 B( 16-S , 20-C ) :   1.1343 B( 17-C , 18-C ) :   1.5988
B( 17-C , 33-H ) :   0.9734 B( 18-C , 19-C ) :   1.2450 B( 18-C , 21-H ) :   1.0084
B( 19-C , 20-C ) :   1.5558 B( 19-C , 22-C ) :   1.0490 B( 22-C , 23-H ) :   0.9289
B( 22-C , 24-H ) :   0.9299 B( 22-C , 25-C ) :   1.0450 B( 25-C , 26-H ) :   0.9524
B( 25-C , 27-H ) :   0.9574 B( 25-C , 28-C ) :   1.0747 B( 28-C , 29-H ) :   0.9730
B( 28-C , 30-H ) :   0.9754 B( 28-C , 31-H ) :   0.9728

Dispersion correction           -0.014408939
FINAL SINGLE POINT ENERGY     -1339.853476036905

DIPOLE MOMENT
-------------
                                X             Y             Z
Electronic contribution:     22.57263      16.64842     -20.26846
Nuclear contribution   :    -23.28177     -16.96637      20.58203
                        -----------------------------------------
Total Dipole Moment    :     -0.70915      -0.31795       0.31357
                        -----------------------------------------
Magnitude (a.u.)       :      0.83804
Magnitude (Debye)      :      2.13012

Rotational constants in cm-1:     0.016826     0.009940     0.006456
Rotational constants in MHz :   504.416812   298.007152   193.552722

                             ****ORCA TERMINATED NORMALLY****
TOTAL RUN TIME: 0 days 0 hours 0 minutes 20 seconds 940 msec
