                         Program Version 4.2.1 -  RELEASE  -
|  1> ! wB97X-D3 SP def2-SVP
|  2> %pal
|  3> nprocs 24
|  4> end
|  5>
|  6> * xyz 0 1
|  7> S 	 -136.335 	 27.9116 	 -19.3302
|  8> C 	 -137.397 	 26.6973 	 -19.9523
|  9> C 	 -136.766 	 25.8749 	 -20.828
| 10> C 	 -135.41 	 26.1927 	 -20.9507
| 11> C 	 -135.014 	 27.369 	 -20.3796
| 12> H 	 -134.892 	 25.7413 	 -21.7335
| 13> C 	 -137.39 	 24.6225 	 -21.3827
| 14> H 	 -136.948 	 24.5919 	 -22.3884
| 15> H 	 -138.486 	 24.7871 	 -21.4349
| 16> C 	 -137.025 	 23.3172 	 -20.5946
| 17> H 	 -137.462 	 22.4029 	 -20.9515
| 18> H 	 -135.926 	 23.1256 	 -20.5755
| 19> C 	 -137.64 	 23.2113 	 -19.1735
| 20> H 	 -136.858 	 23.653 	 -18.6093
| 21> H 	 -138.539 	 23.8724 	 -19.1795
| 22> H 	 -137.862 	 22.2155 	 -18.8609
| 23> S 	 -133.846 	 29.7875 	 -20.8921
| 24> C 	 -132.099 	 29.8857 	 -21.1395
| 25> C 	 -131.473 	 28.6725 	 -20.7913
| 26> C 	 -132.458 	 27.6285 	 -20.5039
| 27> C 	 -133.776 	 28.1358 	 -20.5198
| 28> H 	 -130.37 	 28.6881 	 -20.7329
| 29> C 	 -132.049 	 26.1738 	 -20.2315
| 30> H 	 -132.901 	 25.5964 	 -20.4508
| 31> H 	 -132.037 	 26.2034 	 -19.1117
| 32> C 	 -130.841 	 25.5761 	 -20.9948
| 33> H 	 -130.749 	 24.5798 	 -20.65
| 34> H 	 -129.891 	 26.1517 	 -20.9262
| 35> C 	 -131.122 	 25.3884 	 -22.456
| 36> H 	 -131.974 	 24.6837 	 -22.7764
| 37> H 	 -130.231 	 24.8859 	 -22.8327
| 38> H 	 -131.28 	 26.3313 	 -23.0138
| 39> H 	 -138.395 	 26.6018 	 -19.631
| 40> H 	 -131.481 	 30.8062 	 -21.2097
| 41> *
| 42>
| 43>                          ****END OF INPUT****

CARTESIAN COORDINATES (ANGSTROEM)
---------------------------------
  S    -136.335000   27.911600  -19.330200
  C    -137.397000   26.697300  -19.952300
  C    -136.766000   25.874900  -20.828000
  C    -135.410000   26.192700  -20.950700
  C    -135.014000   27.369000  -20.379600
  H    -134.892000   25.741300  -21.733500
  C    -137.390000   24.622500  -21.382700
  H    -136.948000   24.591900  -22.388400
  H    -138.486000   24.787100  -21.434900
  C    -137.025000   23.317200  -20.594600
  H    -137.462000   22.402900  -20.951500
  H    -135.926000   23.125600  -20.575500
  C    -137.640000   23.211300  -19.173500
  H    -136.858000   23.653000  -18.609300
  H    -138.539000   23.872400  -19.179500
  H    -137.862000   22.215500  -18.860900
  S    -133.846000   29.787500  -20.892100
  C    -132.099000   29.885700  -21.139500
  C    -131.473000   28.672500  -20.791300
  C    -132.458000   27.628500  -20.503900
  C    -133.776000   28.135800  -20.519800
  H    -130.370000   28.688100  -20.732900
  C    -132.049000   26.173800  -20.231500
  H    -132.901000   25.596400  -20.450800
  H    -132.037000   26.203400  -19.111700
  C    -130.841000   25.576100  -20.994800
  H    -130.749000   24.579800  -20.650000
  H    -129.891000   26.151700  -20.926200
  C    -131.122000   25.388400  -22.456000
  H    -131.974000   24.683700  -22.776400
  H    -130.231000   24.885900  -22.832700
  H    -131.280000   26.331300  -23.013800
  H    -138.395000   26.601800  -19.631000
  H    -131.481000   30.806200  -21.209700

 Total Charge           Charge          ....    0
 Multiplicity           Mult            ....    1
 Number of Electrons    NEL             ....  134
 Basis Dimension        Dim             ....  322

ORBITAL ENERGIES
----------------

  NO   OCC          E(Eh)            E(eV)
   0   2.0000     -88.969125     -2420.9730
   1   2.0000     -88.963355     -2420.8160
   2   2.0000     -10.332065      -281.1498
   3   2.0000     -10.325724      -280.9772
   4   2.0000     -10.321984      -280.8755
   5   2.0000     -10.310532      -280.5638
   6   2.0000     -10.305832      -280.4359
   7   2.0000     -10.303096      -280.3615
   8   2.0000     -10.299289      -280.2579
   9   2.0000     -10.291630      -280.0495
  10   2.0000     -10.291070      -280.0343
  11   2.0000     -10.290687      -280.0238
  12   2.0000     -10.288342      -279.9600
  13   2.0000     -10.284476      -279.8548
  14   2.0000     -10.281862      -279.7837
  15   2.0000     -10.272858      -279.5387
  16   2.0000      -8.084121      -219.9801
  17   2.0000      -8.078452      -219.8258
  18   2.0000      -6.042677      -164.4296
  19   2.0000      -6.038515      -164.3163
  20   2.0000      -6.036919      -164.2729
  21   2.0000      -6.034880      -164.2174
  22   2.0000      -6.032866      -164.1626
  23   2.0000      -6.029288      -164.0653
  24   2.0000      -1.010545       -27.4983
  25   2.0000      -0.986857       -26.8537
  26   2.0000      -0.911575       -24.8052
  27   2.0000      -0.908925       -24.7331
  28   2.0000      -0.869019       -23.6472
  29   2.0000      -0.854469       -23.2513
  30   2.0000      -0.848124       -23.0786
  31   2.0000      -0.819121       -22.2894
  32   2.0000      -0.782397       -21.2901
  33   2.0000      -0.769616       -20.9423
  34   2.0000      -0.708104       -19.2685
  35   2.0000      -0.695518       -18.9260
  36   2.0000      -0.691565       -18.8184
  37   2.0000      -0.654382       -17.8066
  38   2.0000      -0.641804       -17.4644
  39   2.0000      -0.629567       -17.1314
  40   2.0000      -0.593139       -16.1401
  41   2.0000      -0.567409       -15.4400
  42   2.0000      -0.555558       -15.1175
  43   2.0000      -0.552691       -15.0395
  44   2.0000      -0.547932       -14.9100
  45   2.0000      -0.541424       -14.7329
  46   2.0000      -0.522386       -14.2148
  47   2.0000      -0.514245       -13.9933
  48   2.0000      -0.506898       -13.7934
  49   2.0000      -0.498087       -13.5536
  50   2.0000      -0.485353       -13.2071
  51   2.0000      -0.478703       -13.0262
  52   2.0000      -0.472129       -12.8473
  53   2.0000      -0.461045       -12.5457
  54   2.0000      -0.454146       -12.3579
  55   2.0000      -0.448430       -12.2024
  56   2.0000      -0.445434       -12.1209
  57   2.0000      -0.439619       -11.9626
  58   2.0000      -0.434608       -11.8263
  59   2.0000      -0.430152       -11.7050
  60   2.0000      -0.422583       -11.4991
  61   2.0000      -0.415145       -11.2967
  62   2.0000      -0.394493       -10.7347
  63   2.0000      -0.351816        -9.5734
  64   2.0000      -0.332345        -9.0436
  65   2.0000      -0.326227        -8.8771
  66   2.0000      -0.290657        -7.9092
  67   0.0000       0.028237         0.7684
  68   0.0000       0.072603         1.9756
  69   0.0000       0.118961         3.2371
  70   0.0000       0.121618         3.3094
  71   0.0000       0.123941         3.3726

MULLIKEN ATOMIC CHARGES
-----------------------
   0 S :    0.099708
   1 C :   -0.107100
   2 C :   -0.107214
   3 C :    0.057782
   4 C :   -0.162726
   5 H :   -0.006082
   6 C :    0.068987
   7 H :    0.029621
   8 H :    0.034483
   9 C :   -0.090206
  10 H :    0.023149
  11 H :    0.033819
  12 C :   -0.046517
  13 H :    0.036070
  14 H :    0.028095
  15 H :    0.036333
  16 S :    0.126906
  17 C :   -0.116063
  18 C :   -0.063345
  19 C :   -0.090116
  20 C :   -0.130009
  21 H :    0.037504
  22 C :    0.113189
  23 H :   -0.013225
  24 H :    0.049594
  25 C :   -0.024935
  26 H :    0.025444
  27 H :    0.043039
  28 C :   -0.106711
  29 H :    0.038048
  30 H :    0.031648
  31 H :    0.049327
  32 H :    0.029609
  33 H :    0.071895
Sum of atomic charges:    0.0000000

LOEWDIN ATOMIC CHARGES
----------------------
   0 S :    0.399671
   1 C :   -0.189829
   2 C :   -0.073082
   3 C :   -0.066929
   4 C :   -0.174728
   5 H :    0.020860
   6 C :   -0.027845
   7 H :    0.034034
   8 H :    0.034194
   9 C :   -0.044839
  10 H :    0.021128
  11 H :    0.024935
  12 C :   -0.059633
  13 H :    0.023554
  14 H :    0.027087
  15 H :    0.021092
  16 S :    0.432087
  17 C :   -0.199024
  18 C :   -0.074806
  19 C :   -0.049788
  20 C :   -0.231435
  21 H :    0.037435
  22 C :   -0.035836
  23 H :    0.021612
  24 H :    0.044822
  25 C :   -0.037766
  26 H :    0.027010
  27 H :    0.030898
  28 C :   -0.074676
  29 H :    0.030095
  30 H :    0.026796
  31 H :    0.027080
  32 H :    0.017596
  33 H :    0.038231

  Mayer bond orders larger than 0.100000
B(  0-S ,  1-C ) :   1.1419 B(  0-S ,  4-C ) :   1.1509 B(  1-C ,  2-C ) :   1.6065
B(  1-C , 32-H ) :   0.9734 B(  2-C ,  3-C ) :   1.2737 B(  2-C ,  6-C ) :   1.0248
B(  3-C ,  4-C ) :   1.5775 B(  3-C ,  5-H ) :   0.9817 B(  4-C , 20-C ) :   1.0290
B(  6-C ,  7-H ) :   0.9319 B(  6-C ,  8-H ) :   0.9448 B(  6-C ,  9-C ) :   1.0709
B(  9-C , 10-H ) :   0.9655 B(  9-C , 11-H ) :   0.9628 B(  9-C , 12-C ) :   1.0446
B( 12-C , 13-H ) :   0.9806 B( 12-C , 14-H ) :   0.9755 B( 12-C , 15-H ) :   0.9823
B( 16-S , 17-C ) :   1.1553 B( 16-S , 20-C ) :   1.1591 B( 17-C , 18-C ) :   1.6135
B( 17-C , 33-H ) :   0.9586 B( 18-C , 19-C ) :   1.2404 B( 18-C , 21-H ) :   0.9830
B( 19-C , 20-C ) :   1.5623 B( 19-C , 22-C ) :   1.0248 B( 22-C , 23-H ) :   0.9240
B( 22-C , 24-H ) :   0.9258 B( 22-C , 25-C ) :   1.0697 B( 25-C , 26-H ) :   0.9492
B( 25-C , 27-H ) :   0.9535 B( 25-C , 28-C ) :   1.0797 B( 28-C , 29-H ) :   0.9718
B( 28-C , 30-H ) :   0.9725 B( 28-C , 31-H ) :   0.9748

Dispersion correction           -0.014760457
FINAL SINGLE POINT ENERGY     -1339.858482338573

DIPOLE MOMENT
-------------
                                X             Y             Z
Electronic contribution:     -4.32845      27.05723       4.52099
Nuclear contribution   :      4.63518     -27.66190      -4.64112
                        -----------------------------------------
Total Dipole Moment    :      0.30673      -0.60467      -0.12013
                        -----------------------------------------
Magnitude (a.u.)       :      0.68858
Magnitude (Debye)      :      1.75024

Rotational constants in cm-1:     0.019347     0.009078     0.006750
Rotational constants in MHz :   580.022964   272.157793   202.369609

                             ****ORCA TERMINATED NORMALLY****
TOTAL RUN TIME: 0 days 0 hours 0 minutes 22 seconds 113 msec
