                         Program Version 4.2.1 -  RELEASE  -
|  1> ! wB97X-D3 SP def2-SVP
|  2> %pal
|  3> nprocs 24
|  4> end
|  5>
|  6> * xyz 0 1
|  7> S 	 -116.735 	 46.4881 	 -112.851
|  8> C 	 -117.983 	 45.4249 	 -113.557
|  9> C 	 -117.433 	 44.1137 	 -113.519
| 10> C 	 -116.082 	 43.9883 	 -113.112
| 11> C 	 -115.513 	 45.1686 	 -112.783
| 12> H 	 -115.483 	 43.1199 	 -113.084
| 13> C 	 -118.158 	 42.9104 	 -113.998
| 14> H 	 -117.686 	 42.4627 	 -114.897
| 15> H 	 -119.177 	 43.3394 	 -114.226
| 16> C 	 -118.38 	 41.8908 	 -112.88
| 17> H 	 -117.402 	 41.7337 	 -112.306
| 18> H 	 -119.001 	 42.352 	 -112.078
| 19> C 	 -118.941 	 40.5037 	 -113.244
| 20> H 	 -118.439 	 40.0373 	 -113.996
| 21> H 	 -119.222 	 39.8166 	 -112.418
| 22> H 	 -119.917 	 40.8091 	 -113.657
| 23> S 	 -113.967 	 46.757 	 -111.144
| 24> C 	 -112.228 	 46.4561 	 -111.241
| 25> C 	 -111.809 	 45.442 	 -112.108
| 26> C 	 -112.947 	 44.8819 	 -112.77
| 27> C 	 -114.148 	 45.4063 	 -112.302
| 28> H 	 -110.766 	 45.2407 	 -112.222
| 29> C 	 -112.785 	 43.8093 	 -113.864
| 30> H 	 -113.648 	 43.8344 	 -114.546
| 31> H 	 -112.898 	 42.8135 	 -113.359
| 32> C 	 -111.479 	 43.9473 	 -114.723
| 33> H 	 -111.358 	 43.1105 	 -115.321
| 34> H 	 -110.695 	 43.975 	 -114.018
| 35> C 	 -111.449 	 45.2208 	 -115.48
| 36> H 	 -112.214 	 45.2216 	 -116.28
| 37> H 	 -110.434 	 45.3033 	 -115.988
| 38> H 	 -111.637 	 46.0516 	 -114.817
| 39> H 	 -118.987 	 45.7858 	 -113.961
| 40> H 	 -111.513 	 46.9878 	 -110.662
| 41> *
| 42>
| 43>                          ****END OF INPUT****

CARTESIAN COORDINATES (ANGSTROEM)
---------------------------------
  S    -116.735000   46.488100  -112.851000
  C    -117.983000   45.424900  -113.557000
  C    -117.433000   44.113700  -113.519000
  C    -116.082000   43.988300  -113.112000
  C    -115.513000   45.168600  -112.783000
  H    -115.483000   43.119900  -113.084000
  C    -118.158000   42.910400  -113.998000
  H    -117.686000   42.462700  -114.897000
  H    -119.177000   43.339400  -114.226000
  C    -118.380000   41.890800  -112.880000
  H    -117.402000   41.733700  -112.306000
  H    -119.001000   42.352000  -112.078000
  C    -118.941000   40.503700  -113.244000
  H    -118.439000   40.037300  -113.996000
  H    -119.222000   39.816600  -112.418000
  H    -119.917000   40.809100  -113.657000
  S    -113.967000   46.757000  -111.144000
  C    -112.228000   46.456100  -111.241000
  C    -111.809000   45.442000  -112.108000
  C    -112.947000   44.881900  -112.770000
  C    -114.148000   45.406300  -112.302000
  H    -110.766000   45.240700  -112.222000
  C    -112.785000   43.809300  -113.864000
  H    -113.648000   43.834400  -114.546000
  H    -112.898000   42.813500  -113.359000
  C    -111.479000   43.947300  -114.723000
  H    -111.358000   43.110500  -115.321000
  H    -110.695000   43.975000  -114.018000
  C    -111.449000   45.220800  -115.480000
  H    -112.214000   45.221600  -116.280000
  H    -110.434000   45.303300  -115.988000
  H    -111.637000   46.051600  -114.817000
  H    -118.987000   45.785800  -113.961000
  H    -111.513000   46.987800  -110.662000

 Total Charge           Charge          ....    0
 Multiplicity           Mult            ....    1
 Number of Electrons    NEL             ....  134
 Basis Dimension        Dim             ....  322

ORBITAL ENERGIES
----------------

  NO   OCC          E(Eh)            E(eV)
   0   2.0000     -88.972517     -2421.0653
   1   2.0000     -88.962911     -2420.8039
   2   2.0000     -10.330928      -281.1188
   3   2.0000     -10.330612      -281.1103
   4   2.0000     -10.328166      -281.0437
   5   2.0000     -10.320523      -280.8357
   6   2.0000     -10.310813      -280.5715
   7   2.0000     -10.303611      -280.3755
   8   2.0000     -10.299989      -280.2769
   9   2.0000     -10.298854      -280.2461
  10   2.0000     -10.294094      -280.1165
  11   2.0000     -10.291405      -280.0434
  12   2.0000     -10.286436      -279.9082
  13   2.0000     -10.278943      -279.7043
  14   2.0000     -10.277644      -279.6689
  15   2.0000     -10.274364      -279.5797
  16   2.0000      -8.086272      -220.0387
  17   2.0000      -8.076443      -219.7712
  18   2.0000      -6.044703      -164.4847
  19   2.0000      -6.041226      -164.3901
  20   2.0000      -6.036863      -164.2714
  21   2.0000      -6.035192      -164.2259
  22   2.0000      -6.031110      -164.1149
  23   2.0000      -6.027030      -164.0038
  24   2.0000      -1.002026       -27.2665
  25   2.0000      -0.978749       -26.6331
  26   2.0000      -0.914278       -24.8788
  27   2.0000      -0.909148       -24.7392
  28   2.0000      -0.866727       -23.5848
  29   2.0000      -0.855687       -23.2844
  30   2.0000      -0.844092       -22.9689
  31   2.0000      -0.817916       -22.2566
  32   2.0000      -0.781784       -21.2734
  33   2.0000      -0.765005       -20.8168
  34   2.0000      -0.707787       -19.2599
  35   2.0000      -0.698197       -18.9989
  36   2.0000      -0.690788       -18.7973
  37   2.0000      -0.660695       -17.9784
  38   2.0000      -0.641731       -17.4624
  39   2.0000      -0.623146       -16.9567
  40   2.0000      -0.600255       -16.3338
  41   2.0000      -0.568648       -15.4737
  42   2.0000      -0.558212       -15.1897
  43   2.0000      -0.549935       -14.9645
  44   2.0000      -0.545284       -14.8379
  45   2.0000      -0.525466       -14.2987
  46   2.0000      -0.522380       -14.2147
  47   2.0000      -0.512385       -13.9427
  48   2.0000      -0.510486       -13.8910
  49   2.0000      -0.493143       -13.4191
  50   2.0000      -0.491606       -13.3773
  51   2.0000      -0.477991       -13.0068
  52   2.0000      -0.466288       -12.6883
  53   2.0000      -0.463849       -12.6220
  54   2.0000      -0.457787       -12.4570
  55   2.0000      -0.452903       -12.3241
  56   2.0000      -0.446502       -12.1499
  57   2.0000      -0.439229       -11.9520
  58   2.0000      -0.435398       -11.8478
  59   2.0000      -0.429276       -11.6812
  60   2.0000      -0.416501       -11.3336
  61   2.0000      -0.412812       -11.2332
  62   2.0000      -0.397768       -10.8238
  63   2.0000      -0.354919        -9.6578
  64   2.0000      -0.337763        -9.1910
  65   2.0000      -0.327557        -8.9133
  66   2.0000      -0.283633        -7.7180
  67   0.0000       0.022210         0.6044
  68   0.0000       0.067709         1.8424
  69   0.0000       0.093599         2.5470
  70   0.0000       0.119970         3.2645
  71   0.0000       0.137228         3.7342

MULLIKEN ATOMIC CHARGES
-----------------------
   0 S :    0.074968
   1 C :   -0.145921
   2 C :   -0.094626
   3 C :    0.023970
   4 C :   -0.108634
   5 H :    0.001261
   6 C :    0.073099
   7 H :    0.045203
   8 H :    0.017514
   9 C :   -0.145466
  10 H :    0.030045
  11 H :    0.031923
  12 C :    0.000795
  13 H :    0.014598
  14 H :    0.047223
  15 H :    0.015074
  16 S :    0.111998
  17 C :   -0.074791
  18 C :   -0.037325
  19 C :   -0.065632
  20 C :   -0.141126
  21 H :    0.021101
  22 C :    0.019603
  23 H :    0.029802
  24 H :    0.054313
  25 C :   -0.006443
  26 H :    0.013880
  27 H :    0.009243
  28 C :   -0.064740
  29 H :    0.031972
  30 H :    0.042297
  31 H :    0.046865
  32 H :    0.087880
  33 H :    0.040074
Sum of atomic charges:   -0.0000000

LOEWDIN ATOMIC CHARGES
----------------------
   0 S :    0.357674
   1 C :   -0.205665
   2 C :   -0.061088
   3 C :   -0.067469
   4 C :   -0.161949
   5 H :    0.027926
   6 C :   -0.037996
   7 H :    0.033769
   8 H :    0.033783
   9 C :   -0.051976
  10 H :    0.020778
  11 H :    0.029309
  12 C :   -0.063918
  13 H :    0.008803
  14 H :    0.035707
  15 H :    0.028160
  16 S :    0.386544
  17 C :   -0.164385
  18 C :   -0.067885
  19 C :   -0.051149
  20 C :   -0.185314
  21 H :    0.031974
  22 C :   -0.034038
  23 H :    0.028309
  24 H :    0.036957
  25 C :   -0.032174
  26 H :    0.017446
  27 H :    0.014705
  28 C :   -0.063022
  29 H :    0.026358
  30 H :    0.034476
  31 H :    0.026651
  32 H :    0.050446
  33 H :    0.018252

  Mayer bond orders larger than 0.100000
B(  0-S ,  1-C ) :   1.1152 B(  0-S ,  4-C ) :   1.1278 B(  1-C ,  2-C ) :   1.5967
B(  1-C , 32-H ) :   0.9613 B(  2-C ,  3-C ) :   1.2131 B(  2-C ,  6-C ) :   1.0426
B(  3-C ,  4-C ) :   1.5893 B(  3-C ,  5-H ) :   1.0017 B(  4-C , 20-C ) :   1.0643
B(  6-C ,  7-H ) :   0.9423 B(  6-C ,  8-H ) :   0.9339 B(  6-C ,  9-C ) :   1.0481
B(  9-C , 10-H ) :   0.9610 B(  9-C , 11-H ) :   0.9529 B(  9-C , 12-C ) :   1.0701
B( 12-C , 13-H ) :   0.9766 B( 12-C , 14-H ) :   0.9741 B( 12-C , 15-H ) :   0.9705
B( 16-S , 17-C ) :   1.1504 B( 16-S , 20-C ) :   1.1171 B( 17-C , 18-C ) :   1.6363
B( 17-C , 33-H ) :   0.9646 B( 18-C , 19-C ) :   1.2128 B( 18-C , 21-H ) :   0.9907
B( 19-C , 20-C ) :   1.6221 B( 19-C , 22-C ) :   1.0229 B( 22-C , 23-H ) :   0.9346
B( 22-C , 24-H ) :   0.9352 B( 22-C , 25-C ) :   1.0660 B( 25-C , 26-H ) :   0.9503
B( 25-C , 27-H ) :   0.9492 B( 25-C , 28-C ) :   1.0858 B( 28-C , 29-H ) :   0.9731
B( 28-C , 30-H ) :   0.9712 B( 28-C , 31-H ) :   0.9720

Dispersion correction           -0.013988476
FINAL SINGLE POINT ENERGY     -1339.864665804997

DIPOLE MOMENT
-------------
                                X             Y             Z
Electronic contribution:     -0.30047      22.16761      13.20285
Nuclear contribution   :      0.58086     -22.71568     -13.53074
                        -----------------------------------------
Total Dipole Moment    :      0.28038      -0.54807      -0.32789
                        -----------------------------------------
Magnitude (a.u.)       :      0.69750
Magnitude (Debye)      :      1.77290

Rotational constants in cm-1:     0.019066     0.008101     0.006648
Rotational constants in MHz :   571.593867   242.854351   199.306118

                             ****ORCA TERMINATED NORMALLY****
TOTAL RUN TIME: 0 days 0 hours 0 minutes 20 seconds 341 msec
