                         Program Version 4.2.1 -  RELEASE  -
|  1> ! wB97X-D3 SP def2-SVP
|  2> %pal
|  3> nprocs 24
|  4> end
|  5>
|  6> * xyz 0 1
|  7> S 	 -59.9724 	 9.71773 	 -105.567
|  8> C 	 -61.0678 	 10.1895 	 -106.838
|  9> C 	 -61.2964 	 11.6011 	 -106.708
| 10> C 	 -60.5442 	 12.2342 	 -105.699
| 11> C 	 -59.5773 	 11.4297 	 -105.133
| 12> H 	 -60.6099 	 13.2541 	 -105.339
| 13> C 	 -62.4336 	 12.2511 	 -107.363
| 14> H 	 -62.8814 	 11.6154 	 -108.103
| 15> H 	 -61.9345 	 13.0495 	 -107.981
| 16> C 	 -63.5097 	 12.8957 	 -106.493
| 17> H 	 -64.3443 	 12.3204 	 -106.656
| 18> H 	 -63.1853 	 12.7604 	 -105.389
| 19> C 	 -63.772 	 14.4032 	 -106.854
| 20> H 	 -64.061 	 14.3783 	 -107.883
| 21> H 	 -64.5392 	 14.8964 	 -106.182
| 22> H 	 -62.899 	 15.096 	 -106.648
| 23> S 	 -59.1583 	 10.8896 	 -102.5
| 24> C 	 -58.0075 	 11.8968 	 -101.653
| 25> C 	 -57.2572 	 12.7066 	 -102.499
| 26> C 	 -57.7847 	 12.6606 	 -103.857
| 27> C 	 -58.7442 	 11.6808 	 -104.007
| 28> H 	 -56.4 	 13.2388 	 -102.122
| 29> C 	 -57.2535 	 13.587 	 -104.902
| 30> H 	 -57.6152 	 13.2941 	 -105.894
| 31> H 	 -56.1665 	 13.4779 	 -104.994
| 32> C 	 -57.5369 	 15.0771 	 -104.762
| 33> H 	 -57.1942 	 15.2508 	 -103.723
| 34> H 	 -58.6358 	 15.2322 	 -104.654
| 35> C 	 -56.8486 	 16.036 	 -105.786
| 36> H 	 -55.7977 	 16.0547 	 -105.589
| 37> H 	 -57.3445 	 17.0392 	 -105.689
| 38> H 	 -57.0943 	 15.5101 	 -106.74
| 39> H 	 -61.6181 	 9.5167 	 -107.521
| 40> H 	 -57.7801 	 11.5827 	 -100.671
| 41> *
| 42>
| 43>                          ****END OF INPUT****

CARTESIAN COORDINATES (ANGSTROEM)
---------------------------------
  S    -59.972400    9.717730  -105.567000
  C    -61.067800   10.189500  -106.838000
  C    -61.296400   11.601100  -106.708000
  C    -60.544200   12.234200  -105.699000
  C    -59.577300   11.429700  -105.133000
  H    -60.609900   13.254100  -105.339000
  C    -62.433600   12.251100  -107.363000
  H    -62.881400   11.615400  -108.103000
  H    -61.934500   13.049500  -107.981000
  C    -63.509700   12.895700  -106.493000
  H    -64.344300   12.320400  -106.656000
  H    -63.185300   12.760400  -105.389000
  C    -63.772000   14.403200  -106.854000
  H    -64.061000   14.378300  -107.883000
  H    -64.539200   14.896400  -106.182000
  H    -62.899000   15.096000  -106.648000
  S    -59.158300   10.889600  -102.500000
  C    -58.007500   11.896800  -101.653000
  C    -57.257200   12.706600  -102.499000
  C    -57.784700   12.660600  -103.857000
  C    -58.744200   11.680800  -104.007000
  H    -56.400000   13.238800  -102.122000
  C    -57.253500   13.587000  -104.902000
  H    -57.615200   13.294100  -105.894000
  H    -56.166500   13.477900  -104.994000
  C    -57.536900   15.077100  -104.762000
  H    -57.194200   15.250800  -103.723000
  H    -58.635800   15.232200  -104.654000
  C    -56.848600   16.036000  -105.786000
  H    -55.797700   16.054700  -105.589000
  H    -57.344500   17.039200  -105.689000
  H    -57.094300   15.510100  -106.740000
  H    -61.618100    9.516700  -107.521000
  H    -57.780100   11.582700  -100.671000

 Total Charge           Charge          ....    0
 Multiplicity           Mult            ....    1
 Number of Electrons    NEL             ....  134
 Basis Dimension        Dim             ....  322

ORBITAL ENERGIES
----------------

  NO   OCC          E(Eh)            E(eV)
   0   2.0000     -88.964974     -2420.8600
   1   2.0000     -88.963029     -2420.8071
   2   2.0000     -10.328841      -281.0621
   3   2.0000     -10.324006      -280.9305
   4   2.0000     -10.321257      -280.8557
   5   2.0000     -10.316829      -280.7352
   6   2.0000     -10.306897      -280.4649
   7   2.0000     -10.300872      -280.3010
   8   2.0000     -10.300359      -280.2870
   9   2.0000     -10.295214      -280.1470
  10   2.0000     -10.289607      -279.9944
  11   2.0000     -10.289153      -279.9821
  12   2.0000     -10.288668      -279.9689
  13   2.0000     -10.288615      -279.9674
  14   2.0000     -10.288557      -279.9659
  15   2.0000     -10.284663      -279.8599
  16   2.0000      -8.080125      -219.8714
  17   2.0000      -8.077005      -219.7865
  18   2.0000      -6.038622      -164.3192
  19   2.0000      -6.035477      -164.2337
  20   2.0000      -6.034651      -164.2112
  21   2.0000      -6.031721      -164.1315
  22   2.0000      -6.030783      -164.1060
  23   2.0000      -6.027738      -164.0231
  24   2.0000      -1.006865       -27.3982
  25   2.0000      -0.980799       -26.6889
  26   2.0000      -0.912815       -24.8389
  27   2.0000      -0.910084       -24.7646
  28   2.0000      -0.871211       -23.7068
  29   2.0000      -0.851455       -23.1693
  30   2.0000      -0.843967       -22.9655
  31   2.0000      -0.815732       -22.1972
  32   2.0000      -0.783059       -21.3081
  33   2.0000      -0.764794       -20.8111
  34   2.0000      -0.708970       -19.2920
  35   2.0000      -0.696228       -18.9453
  36   2.0000      -0.694670       -18.9029
  37   2.0000      -0.663900       -18.0656
  38   2.0000      -0.642648       -17.4873
  39   2.0000      -0.622703       -16.9446
  40   2.0000      -0.603217       -16.4144
  41   2.0000      -0.567603       -15.4453
  42   2.0000      -0.560447       -15.2505
  43   2.0000      -0.550189       -14.9714
  44   2.0000      -0.534293       -14.5389
  45   2.0000      -0.523100       -14.2343
  46   2.0000      -0.521404       -14.1881
  47   2.0000      -0.516148       -14.0451
  48   2.0000      -0.504035       -13.7155
  49   2.0000      -0.502448       -13.6723
  50   2.0000      -0.491776       -13.3819
  51   2.0000      -0.488055       -13.2807
  52   2.0000      -0.463578       -12.6146
  53   2.0000      -0.461489       -12.5578
  54   2.0000      -0.459448       -12.5022
  55   2.0000      -0.450993       -12.2721
  56   2.0000      -0.439160       -11.9501
  57   2.0000      -0.437544       -11.9062
  58   2.0000      -0.429152       -11.6778
  59   2.0000      -0.428204       -11.6520
  60   2.0000      -0.424801       -11.5594
  61   2.0000      -0.408519       -11.1164
  62   2.0000      -0.406251       -11.0547
  63   2.0000      -0.348034        -9.4705
  64   2.0000      -0.330193        -8.9850
  65   2.0000      -0.321993        -8.7619
  66   2.0000      -0.289502        -7.8778
  67   0.0000       0.026478         0.7205
  68   0.0000       0.058502         1.5919
  69   0.0000       0.108698         2.9578
  70   0.0000       0.114671         3.1204
  71   0.0000       0.124178         3.3791

MULLIKEN ATOMIC CHARGES
-----------------------
   0 S :    0.083077
   1 C :   -0.111590
   2 C :   -0.109008
   3 C :    0.039426
   4 C :   -0.170193
   5 H :    0.021501
   6 C :    0.057374
   7 H :    0.007093
   8 H :    0.033210
   9 C :   -0.056457
  10 H :    0.017568
  11 H :    0.051887
  12 C :   -0.091560
  13 H :    0.043387
  14 H :    0.043431
  15 H :    0.041751
  16 S :    0.105556
  17 C :   -0.088073
  18 C :   -0.020012
  19 C :   -0.034804
  20 C :   -0.133231
  21 H :    0.028212
  22 C :    0.056853
  23 H :    0.016258
  24 H :    0.024285
  25 C :   -0.118933
  26 H :    0.012953
  27 H :    0.026658
  28 C :   -0.032336
  29 H :    0.041064
  30 H :    0.056608
  31 H :    0.041773
  32 H :    0.066224
  33 H :    0.050047
Sum of atomic charges:    0.0000000

LOEWDIN ATOMIC CHARGES
----------------------
   0 S :    0.381884
   1 C :   -0.205593
   2 C :   -0.067444
   3 C :   -0.055136
   4 C :   -0.174576
   5 H :    0.035406
   6 C :   -0.042107
   7 H :    0.024218
   8 H :    0.037004
   9 C :   -0.037077
  10 H :    0.014922
  11 H :    0.035063
  12 C :   -0.071520
  13 H :    0.022374
  14 H :    0.032224
  15 H :    0.030352
  16 S :    0.404083
  17 C :   -0.174140
  18 C :   -0.061187
  19 C :   -0.049900
  20 C :   -0.203396
  21 H :    0.033040
  22 C :   -0.041358
  23 H :    0.024833
  24 H :    0.032453
  25 C :   -0.050384
  26 H :    0.017464
  27 H :    0.021822
  28 C :   -0.061884
  29 H :    0.023785
  30 H :    0.038807
  31 H :    0.032881
  32 H :    0.037036
  33 H :    0.016050

  Mayer bond orders larger than 0.100000
B(  0-S ,  1-C ) :   1.1491 B(  0-S ,  4-C ) :   1.1366 B(  1-C ,  2-C ) :   1.5558
B(  1-C ,  4-C ) :   0.1111 B(  1-C , 32-H ) :   0.9672 B(  2-C ,  3-C ) :   1.2554
B(  2-C ,  6-C ) :   1.0574 B(  3-C ,  4-C ) :   1.5541 B(  3-C ,  5-H ) :   0.9916
B(  4-C , 20-C ) :   1.0523 B(  6-C ,  7-H ) :   0.9397 B(  6-C ,  8-H ) :   0.9359
B(  6-C ,  9-C ) :   1.0187 B(  9-C , 10-H ) :   0.9595 B(  9-C , 11-H ) :   0.9669
B(  9-C , 12-C ) :   1.0699 B( 12-C , 13-H ) :   0.9775 B( 12-C , 14-H ) :   0.9746
B( 12-C , 15-H ) :   0.9771 B( 16-S , 17-C ) :   1.1556 B( 16-S , 20-C ) :   1.1321
B( 17-C , 18-C ) :   1.6193 B( 17-C , 33-H ) :   0.9688 B( 18-C , 19-C ) :   1.1964
B( 18-C , 21-H ) :   0.9915 B( 19-C , 20-C ) :   1.6252 B( 19-C , 22-C ) :   1.0664
B( 22-C , 23-H ) :   0.9220 B( 22-C , 24-H ) :   0.9322 B( 22-C , 25-C ) :   1.0542
B( 25-C , 26-H ) :   0.9547 B( 25-C , 27-H ) :   0.9542 B( 25-C , 28-C ) :   1.0611
B( 28-C , 29-H ) :   0.9754 B( 28-C , 30-H ) :   0.9742 B( 28-C , 31-H ) :   0.9769

Dispersion correction           -0.014018758
FINAL SINGLE POINT ENERGY     -1339.857558815046

DIPOLE MOMENT
-------------
                                X             Y             Z
Electronic contribution:      5.38599     -25.73607      12.31141
Nuclear contribution   :     -5.51060      26.28945     -12.41116
                        -----------------------------------------
Total Dipole Moment    :     -0.12461       0.55338      -0.09975
                        -----------------------------------------
Magnitude (a.u.)       :      0.57594
Magnitude (Debye)      :      1.46392

Rotational constants in cm-1:     0.015431     0.009454     0.007058
Rotational constants in MHz :   462.600938   283.413011   211.595493

                             ****ORCA TERMINATED NORMALLY****
TOTAL RUN TIME: 0 days 0 hours 0 minutes 20 seconds 246 msec
