                         Program Version 4.2.1 -  RELEASE  -
|  1> ! wB97X-D3 SP def2-SVP
|  2> %pal
|  3> nprocs 24
|  4> end
|  5>
|  6> * xyz 0 1
|  7> S 	 -138.05 	 5.03687 	 -8.44374
|  8> C 	 -136.932 	 6.05148 	 -9.29546
|  9> C 	 -136.978 	 7.33937 	 -8.8411
| 10> C 	 -137.829 	 7.42508 	 -7.70209
| 11> C 	 -138.454 	 6.26295 	 -7.37183
| 12> H 	 -138.151 	 8.27204 	 -7.09844
| 13> C 	 -136.257 	 8.50279 	 -9.44265
| 14> H 	 -136.689 	 8.5939 	 -10.402
| 15> H 	 -135.202 	 8.27397 	 -9.54827
| 16> C 	 -136.479 	 9.7962 	 -8.56766
| 17> H 	 -137.556 	 10.0097 	 -8.44473
| 18> H 	 -136.06 	 9.56742 	 -7.57655
| 19> C 	 -135.797 	 11.0373 	 -9.21521
| 20> H 	 -135.878 	 11.8223 	 -8.50985
| 21> H 	 -134.779 	 10.9485 	 -9.54136
| 22> H 	 -136.415 	 11.3138 	 -10.1026
| 23> S 	 -141.035 	 5.73673 	 -6.48348
| 24> C 	 -141.46 	 5.87526 	 -4.83974
| 25> C 	 -140.383 	 6.26404 	 -4.09254
| 26> C 	 -139.214 	 6.40718 	 -4.83259
| 27> C 	 -139.355 	 6.08377 	 -6.19061
| 28> H 	 -140.508 	 6.58536 	 -2.99058
| 29> C 	 -138.06 	 7.15725 	 -4.12365
| 30> H 	 -138.42 	 7.62223 	 -3.14339
| 31> H 	 -137.825 	 7.94183 	 -4.76061
| 32> C 	 -136.926 	 6.24097 	 -3.76952
| 33> H 	 -136.567 	 5.53972 	 -4.61094
| 34> H 	 -137.371 	 5.61412 	 -3.02948
| 35> C 	 -135.694 	 6.96294 	 -3.13181
| 36> H 	 -134.849 	 6.25496 	 -3.18945
| 37> H 	 -136.047 	 7.09565 	 -2.10649
| 38> H 	 -135.43 	 7.83578 	 -3.70502
| 39> H 	 -136.457 	 5.73976 	 -10.2504
| 40> H 	 -142.422 	 5.96893 	 -4.44071
| 41> *
| 42>
| 43>                          ****END OF INPUT****

CARTESIAN COORDINATES (ANGSTROEM)
---------------------------------
  S    -138.050000    5.036870   -8.443740
  C    -136.932000    6.051480   -9.295460
  C    -136.978000    7.339370   -8.841100
  C    -137.829000    7.425080   -7.702090
  C    -138.454000    6.262950   -7.371830
  H    -138.151000    8.272040   -7.098440
  C    -136.257000    8.502790   -9.442650
  H    -136.689000    8.593900  -10.402000
  H    -135.202000    8.273970   -9.548270
  C    -136.479000    9.796200   -8.567660
  H    -137.556000   10.009700   -8.444730
  H    -136.060000    9.567420   -7.576550
  C    -135.797000   11.037300   -9.215210
  H    -135.878000   11.822300   -8.509850
  H    -134.779000   10.948500   -9.541360
  H    -136.415000   11.313800  -10.102600
  S    -141.035000    5.736730   -6.483480
  C    -141.460000    5.875260   -4.839740
  C    -140.383000    6.264040   -4.092540
  C    -139.214000    6.407180   -4.832590
  C    -139.355000    6.083770   -6.190610
  H    -140.508000    6.585360   -2.990580
  C    -138.060000    7.157250   -4.123650
  H    -138.420000    7.622230   -3.143390
  H    -137.825000    7.941830   -4.760610
  C    -136.926000    6.240970   -3.769520
  H    -136.567000    5.539720   -4.610940
  H    -137.371000    5.614120   -3.029480
  C    -135.694000    6.962940   -3.131810
  H    -134.849000    6.254960   -3.189450
  H    -136.047000    7.095650   -2.106490
  H    -135.430000    7.835780   -3.705020
  H    -136.457000    5.739760  -10.250400
  H    -142.422000    5.968930   -4.440710

 Total Charge           Charge          ....    0
 Multiplicity           Mult            ....    1
 Number of Electrons    NEL             ....  134
 Basis Dimension        Dim             ....  322

ORBITAL ENERGIES
----------------

  NO   OCC          E(Eh)            E(eV)
   0   2.0000     -88.966176     -2420.8927
   1   2.0000     -88.963033     -2420.8072
   2   2.0000     -10.328978      -281.0658
   3   2.0000     -10.321575      -280.8643
   4   2.0000     -10.309512      -280.5361
   5   2.0000     -10.307176      -280.4725
   6   2.0000     -10.300431      -280.2890
   7   2.0000     -10.297508      -280.2094
   8   2.0000     -10.295058      -280.1428
   9   2.0000     -10.291582      -280.0482
  10   2.0000     -10.289425      -279.9895
  11   2.0000     -10.289257      -279.9849
  12   2.0000     -10.286734      -279.9163
  13   2.0000     -10.281170      -279.7649
  14   2.0000     -10.278441      -279.6906
  15   2.0000     -10.276889      -279.6484
  16   2.0000      -8.081740      -219.9153
  17   2.0000      -8.079504      -219.8545
  18   2.0000      -6.040116      -164.3599
  19   2.0000      -6.037780      -164.2963
  20   2.0000      -6.035993      -164.2477
  21   2.0000      -6.033688      -164.1850
  22   2.0000      -6.032728      -164.1589
  23   2.0000      -6.030485      -164.0978
  24   2.0000      -1.015982       -27.6463
  25   2.0000      -0.996427       -27.1142
  26   2.0000      -0.912880       -24.8407
  27   2.0000      -0.909187       -24.7402
  28   2.0000      -0.868893       -23.6438
  29   2.0000      -0.849896       -23.1269
  30   2.0000      -0.846934       -23.0463
  31   2.0000      -0.816527       -22.2188
  32   2.0000      -0.783315       -21.3151
  33   2.0000      -0.773523       -21.0486
  34   2.0000      -0.713280       -19.4093
  35   2.0000      -0.691643       -18.8206
  36   2.0000      -0.685352       -18.6494
  37   2.0000      -0.655132       -17.8270
  38   2.0000      -0.644619       -17.5410
  39   2.0000      -0.617542       -16.8042
  40   2.0000      -0.595493       -16.2042
  41   2.0000      -0.573911       -15.6169
  42   2.0000      -0.567949       -15.4547
  43   2.0000      -0.565815       -15.3966
  44   2.0000      -0.528081       -14.3698
  45   2.0000      -0.521527       -14.1915
  46   2.0000      -0.515969       -14.0402
  47   2.0000      -0.504578       -13.7303
  48   2.0000      -0.500044       -13.6069
  49   2.0000      -0.498748       -13.5716
  50   2.0000      -0.497315       -13.5326
  51   2.0000      -0.486471       -13.2376
  52   2.0000      -0.478084       -13.0093
  53   2.0000      -0.469608       -12.7787
  54   2.0000      -0.464248       -12.6328
  55   2.0000      -0.452392       -12.3102
  56   2.0000      -0.436812       -11.8863
  57   2.0000      -0.434860       -11.8331
  58   2.0000      -0.433199       -11.7879
  59   2.0000      -0.429706       -11.6929
  60   2.0000      -0.414400       -11.2764
  61   2.0000      -0.413568       -11.2537
  62   2.0000      -0.407405       -11.0861
  63   2.0000      -0.342442        -9.3183
  64   2.0000      -0.331679        -9.0254
  65   2.0000      -0.329993        -8.9796
  66   2.0000      -0.299546        -8.1511
  67   0.0000       0.039815         1.0834
  68   0.0000       0.067735         1.8432
  69   0.0000       0.115396         3.1401
  70   0.0000       0.131227         3.5709
  71   0.0000       0.138318         3.7638

MULLIKEN ATOMIC CHARGES
-----------------------
   0 S :    0.122099
   1 C :   -0.149278
   2 C :   -0.088860
   3 C :   -0.009421
   4 C :   -0.143006
   5 H :    0.015838
   6 C :    0.107619
   7 H :    0.025700
   8 H :    0.037812
   9 C :   -0.147964
  10 H :    0.047336
  11 H :    0.037532
  12 C :    0.002581
  13 H :    0.023297
  14 H :    0.031611
  15 H :    0.031299
  16 S :    0.116498
  17 C :   -0.059910
  18 C :   -0.089666
  19 C :   -0.036189
  20 C :   -0.163953
  21 H :    0.049207
  22 C :    0.097973
  23 H :    0.022707
  24 H :   -0.001400
  25 C :   -0.130851
  26 H :    0.051354
  27 H :    0.016746
  28 C :   -0.018634
  29 H :    0.037897
  30 H :    0.035074
  31 H :    0.034255
  32 H :    0.056548
  33 H :    0.038150
Sum of atomic charges:   -0.0000000

LOEWDIN ATOMIC CHARGES
----------------------
   0 S :    0.443376
   1 C :   -0.212584
   2 C :   -0.064149
   3 C :   -0.076538
   4 C :   -0.221946
   5 H :    0.032391
   6 C :   -0.026316
   7 H :    0.029086
   8 H :    0.034528
   9 C :   -0.038270
  10 H :    0.028696
  11 H :    0.023721
  12 C :   -0.061273
  13 H :    0.020612
  14 H :    0.021740
  15 H :    0.030779
  16 S :    0.440427
  17 C :   -0.198907
  18 C :   -0.087032
  19 C :   -0.054707
  20 C :   -0.208584
  21 H :    0.045768
  22 C :   -0.022113
  23 H :    0.035237
  24 H :    0.011659
  25 C :   -0.048494
  26 H :    0.031396
  27 H :    0.018426
  28 C :   -0.062899
  29 H :    0.030032
  30 H :    0.027736
  31 H :    0.021792
  32 H :    0.034196
  33 H :    0.022213

  Mayer bond orders larger than 0.100000
B(  0-S ,  1-C ) :   1.1508 B(  0-S ,  4-C ) :   1.1842 B(  1-C ,  2-C ) :   1.6106
B(  1-C , 32-H ) :   0.9686 B(  2-C ,  3-C ) :   1.2460 B(  2-C ,  6-C ) :   0.9967
B(  3-C ,  4-C ) :   1.5649 B(  3-C ,  5-H ) :   0.9944 B(  4-C , 20-C ) :   0.9767
B(  6-C ,  7-H ) :   0.9265 B(  6-C ,  8-H ) :   0.9384 B(  6-C ,  9-C ) :   1.0994
B(  9-C , 10-H ) :   0.9477 B(  9-C , 11-H ) :   0.9537 B(  9-C , 12-C ) :   1.0750
B( 12-C , 13-H ) :   0.9725 B( 12-C , 14-H ) :   0.9766 B( 12-C , 15-H ) :   0.9743
B( 16-S , 17-C ) :   1.1879 B( 16-S , 20-C ) :   1.1705 B( 17-C , 18-C ) :   1.5709
B( 17-C , 20-C ) :   0.1077 B( 17-C , 33-H ) :   0.9691 B( 18-C , 19-C ) :   1.3093
B( 18-C , 21-H ) :   0.9723 B( 19-C , 20-C ) :   1.5679 B( 19-C , 22-C ) :   1.0159
B( 22-C , 23-H ) :   0.9430 B( 22-C , 24-H ) :   0.9349 B( 22-C , 25-C ) :   1.0544
B( 25-C , 26-H ) :   0.9627 B( 25-C , 27-H ) :   0.9579 B( 25-C , 28-C ) :   1.0678
B( 28-C , 29-H ) :   0.9769 B( 28-C , 30-H ) :   0.9774 B( 28-C , 31-H ) :   0.9782

Dispersion correction           -0.013947835
FINAL SINGLE POINT ENERGY     -1339.867374711491

DIPOLE MOMENT
-------------
                                X             Y             Z
Electronic contribution:    -19.88157     -20.12854      -7.53286
Nuclear contribution   :     20.09782      20.83339       7.63360
                        -----------------------------------------
Total Dipole Moment    :      0.21625       0.70485       0.10074
                        -----------------------------------------
Magnitude (a.u.)       :      0.74413
Magnitude (Debye)      :      1.89143

Rotational constants in cm-1:     0.016142     0.009036     0.007320
Rotational constants in MHz :   483.927054   270.882443   219.457635

                             ****ORCA TERMINATED NORMALLY****
TOTAL RUN TIME: 0 days 0 hours 0 minutes 21 seconds 640 msec
