                         Program Version 4.2.1 -  RELEASE  -
|  1> ! wB97X-D3 SP def2-SVP
|  2> %pal
|  3> nprocs 24
|  4> end
|  5>
|  6> * xyz 0 1
|  7> S 	 39.2892 	 -3.27045 	 -120.032
|  8> C 	 39.0209 	 -4.66706 	 -121.055
|  9> C 	 37.6419 	 -4.90051 	 -121.187
| 10> C 	 36.8416 	 -3.86739 	 -120.517
| 11> C 	 37.6005 	 -2.90673 	 -119.916
| 12> H 	 35.795 	 -3.86059 	 -120.475
| 13> C 	 36.9656 	 -6.07219 	 -121.938
| 14> H 	 37.3936 	 -6.18808 	 -122.918
| 15> H 	 35.9041 	 -5.79766 	 -122.21
| 16> C 	 37.2685 	 -7.34752 	 -121.137
| 17> H 	 38.3299 	 -7.61743 	 -121.119
| 18> H 	 36.9441 	 -7.20668 	 -120.104
| 19> C 	 36.4241 	 -8.55168 	 -121.62
| 20> H 	 36.6779 	 -9.48817 	 -121.086
| 21> H 	 35.3482 	 -8.44627 	 -121.56
| 22> H 	 36.4999 	 -8.76874 	 -122.705
| 23> S 	 38.4132 	 -0.778506 	 -118.344
| 24> C 	 37.2297 	 0.48855 	 -117.896
| 25> C 	 35.9685 	 0.0704069 	 -118.285
| 26> C 	 35.9234 	 -1.1209 	 -118.998
| 27> C 	 37.1725 	 -1.71024 	 -119.184
| 28> H 	 35.0534 	 0.538653 	 -117.927
| 29> C 	 34.5279 	 -1.66174 	 -119.43
| 30> H 	 34.6319 	 -1.96723 	 -120.466
| 31> H 	 33.8979 	 -0.734508 	 -119.459
| 32> C 	 33.9271 	 -2.79461 	 -118.508
| 33> H 	 33.8431 	 -2.45473 	 -117.487
| 34> H 	 34.5107 	 -3.71297 	 -118.476
| 35> C 	 32.5285 	 -3.07017 	 -119.149
| 36> H 	 31.8807 	 -3.68658 	 -118.575
| 37> H 	 32.441 	 -3.35236 	 -120.22
| 38> H 	 32.0415 	 -2.12238 	 -119.203
| 39> H 	 39.6615 	 -5.43381 	 -121.498
| 40> H 	 37.4093 	 1.28232 	 -117.146
| 41> *
| 42>
| 43>                          ****END OF INPUT****

CARTESIAN COORDINATES (ANGSTROEM)
---------------------------------
  S     39.289200   -3.270450  -120.032000
  C     39.020900   -4.667060  -121.055000
  C     37.641900   -4.900510  -121.187000
  C     36.841600   -3.867390  -120.517000
  C     37.600500   -2.906730  -119.916000
  H     35.795000   -3.860590  -120.475000
  C     36.965600   -6.072190  -121.938000
  H     37.393600   -6.188080  -122.918000
  H     35.904100   -5.797660  -122.210000
  C     37.268500   -7.347520  -121.137000
  H     38.329900   -7.617430  -121.119000
  H     36.944100   -7.206680  -120.104000
  C     36.424100   -8.551680  -121.620000
  H     36.677900   -9.488170  -121.086000
  H     35.348200   -8.446270  -121.560000
  H     36.499900   -8.768740  -122.705000
  S     38.413200   -0.778506  -118.344000
  C     37.229700    0.488550  -117.896000
  C     35.968500    0.070407  -118.285000
  C     35.923400   -1.120900  -118.998000
  C     37.172500   -1.710240  -119.184000
  H     35.053400    0.538653  -117.927000
  C     34.527900   -1.661740  -119.430000
  H     34.631900   -1.967230  -120.466000
  H     33.897900   -0.734508  -119.459000
  C     33.927100   -2.794610  -118.508000
  H     33.843100   -2.454730  -117.487000
  H     34.510700   -3.712970  -118.476000
  C     32.528500   -3.070170  -119.149000
  H     31.880700   -3.686580  -118.575000
  H     32.441000   -3.352360  -120.220000
  H     32.041500   -2.122380  -119.203000
  H     39.661500   -5.433810  -121.498000
  H     37.409300    1.282320  -117.146000

 Total Charge           Charge          ....    0
 Multiplicity           Mult            ....    1
 Number of Electrons    NEL             ....  134
 Basis Dimension        Dim             ....  322

ORBITAL ENERGIES
----------------

  NO   OCC          E(Eh)            E(eV)
   0   2.0000     -88.968320     -2420.9511
   1   2.0000     -88.967615     -2420.9319
   2   2.0000     -10.332533      -281.1625
   3   2.0000     -10.330329      -281.1025
   4   2.0000     -10.323252      -280.9100
   5   2.0000     -10.315735      -280.7054
   6   2.0000     -10.306216      -280.4464
   7   2.0000     -10.303542      -280.3736
   8   2.0000     -10.300407      -280.2883
   9   2.0000     -10.299241      -280.2566
  10   2.0000     -10.298087      -280.2252
  11   2.0000     -10.292578      -280.0753
  12   2.0000     -10.292342      -280.0689
  13   2.0000     -10.290626      -280.0222
  14   2.0000     -10.279808      -279.7278
  15   2.0000     -10.278119      -279.6818
  16   2.0000      -8.082948      -219.9482
  17   2.0000      -8.081440      -219.9072
  18   2.0000      -6.041702      -164.4031
  19   2.0000      -6.040087      -164.3591
  20   2.0000      -6.037476      -164.2881
  21   2.0000      -6.036088      -164.2503
  22   2.0000      -6.033438      -164.1782
  23   2.0000      -6.032097      -164.1417
  24   2.0000      -1.006991       -27.4016
  25   2.0000      -0.981789       -26.7158
  26   2.0000      -0.910412       -24.7736
  27   2.0000      -0.904296       -24.6071
  28   2.0000      -0.867349       -23.6018
  29   2.0000      -0.853222       -23.2174
  30   2.0000      -0.841927       -22.9100
  31   2.0000      -0.813799       -22.1446
  32   2.0000      -0.778357       -21.1802
  33   2.0000      -0.769538       -20.9402
  34   2.0000      -0.715396       -19.4669
  35   2.0000      -0.705705       -19.2032
  36   2.0000      -0.696546       -18.9540
  37   2.0000      -0.668309       -18.1856
  38   2.0000      -0.636707       -17.3257
  39   2.0000      -0.621794       -16.9199
  40   2.0000      -0.592420       -16.1206
  41   2.0000      -0.564614       -15.3639
  42   2.0000      -0.560658       -15.2563
  43   2.0000      -0.555379       -15.1126
  44   2.0000      -0.530980       -14.4487
  45   2.0000      -0.526331       -14.3222
  46   2.0000      -0.516366       -14.0510
  47   2.0000      -0.509964       -13.8768
  48   2.0000      -0.504719       -13.7341
  49   2.0000      -0.497198       -13.5295
  50   2.0000      -0.491440       -13.3728
  51   2.0000      -0.482209       -13.1216
  52   2.0000      -0.469416       -12.7735
  53   2.0000      -0.461307       -12.5528
  54   2.0000      -0.456727       -12.4282
  55   2.0000      -0.454485       -12.3672
  56   2.0000      -0.450033       -12.2460
  57   2.0000      -0.446232       -12.1426
  58   2.0000      -0.432701       -11.7744
  59   2.0000      -0.431566       -11.7435
  60   2.0000      -0.419142       -11.4054
  61   2.0000      -0.414954       -11.2915
  62   2.0000      -0.409154       -11.1336
  63   2.0000      -0.361972        -9.8498
  64   2.0000      -0.337841        -9.1931
  65   2.0000      -0.325393        -8.8544
  66   2.0000      -0.281804        -7.6683
  67   0.0000       0.016147         0.4394
  68   0.0000       0.085526         2.3273
  69   0.0000       0.089484         2.4350
  70   0.0000       0.125177         3.4062
  71   0.0000       0.131591         3.5808

MULLIKEN ATOMIC CHARGES
-----------------------
   0 S :    0.105293
   1 C :   -0.093465
   2 C :   -0.125572
   3 C :    0.000342
   4 C :   -0.073478
   5 H :   -0.026833
   6 C :    0.057165
   7 H :    0.025262
   8 H :    0.037185
   9 C :   -0.071827
  10 H :    0.041734
  11 H :    0.038917
  12 C :   -0.062756
  13 H :    0.038349
  14 H :    0.024193
  15 H :    0.019572
  16 S :    0.084288
  17 C :   -0.096648
  18 C :   -0.030117
  19 C :   -0.071757
  20 C :   -0.105627
  21 H :    0.019393
  22 C :   -0.004695
  23 H :    0.037239
  24 H :    0.031547
  25 C :   -0.027573
  26 H :    0.032281
  27 H :    0.042825
  28 C :   -0.031122
  29 H :    0.026831
  30 H :    0.031280
  31 H :    0.006494
  32 H :    0.046543
  33 H :    0.074737
Sum of atomic charges:   -0.0000000

LOEWDIN ATOMIC CHARGES
----------------------
   0 S :    0.410845
   1 C :   -0.212804
   2 C :   -0.050337
   3 C :   -0.069005
   4 C :   -0.185518
   5 H :    0.018271
   6 C :   -0.035786
   7 H :    0.028376
   8 H :    0.037822
   9 C :   -0.037398
  10 H :    0.028677
  11 H :    0.028772
  12 C :   -0.077976
  13 H :    0.028331
  14 H :    0.022070
  15 H :    0.022891
  16 S :    0.383306
  17 C :   -0.181824
  18 C :   -0.073454
  19 C :   -0.067751
  20 C :   -0.184152
  21 H :    0.032657
  22 C :   -0.028950
  23 H :    0.028015
  24 H :    0.035048
  25 C :   -0.027490
  26 H :    0.027636
  27 H :    0.024858
  28 C :   -0.070802
  29 H :    0.018413
  30 H :    0.030825
  31 H :    0.021250
  32 H :    0.036190
  33 H :    0.038994

  Mayer bond orders larger than 0.100000
B(  0-S ,  1-C ) :   1.1210 B(  0-S ,  4-C ) :   1.1400 B(  1-C ,  2-C ) :   1.6305
B(  1-C , 32-H ) :   0.9627 B(  2-C ,  3-C ) :   1.2309 B(  2-C ,  6-C ) :   1.0204
B(  3-C ,  4-C ) :   1.5706 B(  3-C ,  5-H ) :   1.0012 B(  4-C , 20-C ) :   1.0785
B(  6-C ,  7-H ) :   0.9362 B(  6-C ,  8-H ) :   0.9536 B(  6-C ,  9-C ) :   1.0462
B(  9-C , 10-H ) :   0.9573 B(  9-C , 11-H ) :   0.9597 B(  9-C , 12-C ) :   1.0767
B( 12-C , 13-H ) :   0.9755 B( 12-C , 14-H ) :   0.9766 B( 12-C , 15-H ) :   0.9721
B( 16-S , 17-C ) :   1.1435 B( 16-S , 20-C ) :   1.1382 B( 17-C , 18-C ) :   1.5825
B( 17-C , 20-C ) :   0.1097 B( 17-C , 33-H ) :   0.9626 B( 18-C , 19-C ) :   1.3071
B( 18-C , 21-H ) :   0.9769 B( 19-C , 20-C ) :   1.5705 B( 19-C , 22-C ) :   1.0194
B( 22-C , 23-H ) :   0.9370 B( 22-C , 24-H ) :   0.9417 B( 22-C , 25-C ) :   1.0501
B( 25-C , 26-H ) :   0.9530 B( 25-C , 27-H ) :   0.9599 B( 25-C , 28-C ) :   1.0666
B( 28-C , 29-H ) :   0.9748 B( 28-C , 30-H ) :   0.9756 B( 28-C , 31-H ) :   0.9700

Dispersion correction           -0.013892542
FINAL SINGLE POINT ENERGY     -1339.872155862526

DIPOLE MOMENT
-------------
                                X             Y             Z
Electronic contribution:     24.21475      20.76180       6.78814
Nuclear contribution   :    -24.99502     -21.10260      -6.79127
                        -----------------------------------------
Total Dipole Moment    :     -0.78027      -0.34080      -0.00313
                        -----------------------------------------
Magnitude (a.u.)       :      0.85145
Magnitude (Debye)      :      2.16422

Rotational constants in cm-1:     0.018237     0.008850     0.006195
Rotational constants in MHz :   546.717984   265.316103   185.711297

                             ****ORCA TERMINATED NORMALLY****
TOTAL RUN TIME: 0 days 0 hours 0 minutes 20 seconds 160 msec
