                         Program Version 4.2.1 -  RELEASE  -
|  1> ! wB97X-D3 SP def2-SVP
|  2> %pal
|  3> nprocs 24
|  4> end
|  5>
|  6> * xyz 0 1
|  7> S 	 -106.619 	 59.3717 	 -93.2065
|  8> C 	 -104.946 	 59.5326 	 -92.65
|  9> C 	 -104.029 	 59.7228 	 -93.7084
| 10> C 	 -104.705 	 59.733 	 -94.995
| 11> C 	 -106.068 	 59.6677 	 -94.8482
| 12> H 	 -104.245 	 59.978 	 -95.9308
| 13> C 	 -102.565 	 59.8602 	 -93.6343
| 14> H 	 -102.04 	 59.4418 	 -94.5007
| 15> H 	 -102.172 	 59.18 	 -92.8605
| 16> C 	 -102.047 	 61.293 	 -93.3034
| 17> H 	 -102.507 	 62.0258 	 -93.9818
| 18> H 	 -102.478 	 61.3993 	 -92.2845
| 19> C 	 -100.578 	 61.4288 	 -93.0913
| 20> H 	 -100.135 	 62.2836 	 -93.5464
| 21> H 	 -100.377 	 61.4664 	 -91.9883
| 22> H 	 -99.9754 	 60.6442 	 -93.4505
| 23> S 	 -108.137 	 58.2474 	 -96.0178
| 24> C 	 -108.608 	 58.7815 	 -97.6341
| 25> C 	 -108.232 	 60.0885 	 -97.8791
| 26> C 	 -107.318 	 60.5562 	 -96.9083
| 27> C 	 -107.107 	 59.6974 	 -95.8978
| 28> H 	 -108.489 	 60.6343 	 -98.774
| 29> C 	 -106.708 	 61.9232 	 -97.1265
| 30> H 	 -106.392 	 62.3183 	 -96.168
| 31> H 	 -107.521 	 62.5619 	 -97.4522
| 32> C 	 -105.604 	 61.9812 	 -98.0922
| 33> H 	 -105.967 	 61.3602 	 -98.9486
| 34> H 	 -104.731 	 61.4775 	 -97.5931
| 35> C 	 -105.439 	 63.3813 	 -98.724
| 36> H 	 -106.379 	 63.8178 	 -99.2662
| 37> H 	 -104.558 	 63.3432 	 -99.4221
| 38> H 	 -105.206 	 64.0046 	 -97.8707
| 39> H 	 -104.632 	 59.4622 	 -91.5932
| 40> H 	 -109.37 	 58.3223 	 -98.3127
| 41> *
| 42>
| 43>                          ****END OF INPUT****

CARTESIAN COORDINATES (ANGSTROEM)
---------------------------------
  S    -106.619000   59.371700  -93.206500
  C    -104.946000   59.532600  -92.650000
  C    -104.029000   59.722800  -93.708400
  C    -104.705000   59.733000  -94.995000
  C    -106.068000   59.667700  -94.848200
  H    -104.245000   59.978000  -95.930800
  C    -102.565000   59.860200  -93.634300
  H    -102.040000   59.441800  -94.500700
  H    -102.172000   59.180000  -92.860500
  C    -102.047000   61.293000  -93.303400
  H    -102.507000   62.025800  -93.981800
  H    -102.478000   61.399300  -92.284500
  C    -100.578000   61.428800  -93.091300
  H    -100.135000   62.283600  -93.546400
  H    -100.377000   61.466400  -91.988300
  H    -99.975400   60.644200  -93.450500
  S    -108.137000   58.247400  -96.017800
  C    -108.608000   58.781500  -97.634100
  C    -108.232000   60.088500  -97.879100
  C    -107.318000   60.556200  -96.908300
  C    -107.107000   59.697400  -95.897800
  H    -108.489000   60.634300  -98.774000
  C    -106.708000   61.923200  -97.126500
  H    -106.392000   62.318300  -96.168000
  H    -107.521000   62.561900  -97.452200
  C    -105.604000   61.981200  -98.092200
  H    -105.967000   61.360200  -98.948600
  H    -104.731000   61.477500  -97.593100
  C    -105.439000   63.381300  -98.724000
  H    -106.379000   63.817800  -99.266200
  H    -104.558000   63.343200  -99.422100
  H    -105.206000   64.004600  -97.870700
  H    -104.632000   59.462200  -91.593200
  H    -109.370000   58.322300  -98.312700

 Total Charge           Charge          ....    0
 Multiplicity           Mult            ....    1
 Number of Electrons    NEL             ....  134
 Basis Dimension        Dim             ....  322

ORBITAL ENERGIES
----------------

  NO   OCC          E(Eh)            E(eV)
   0   2.0000     -88.968878     -2420.9662
   1   2.0000     -88.965149     -2420.8648
   2   2.0000     -10.330378      -281.1039
   3   2.0000     -10.322358      -280.8856
   4   2.0000     -10.321423      -280.8602
   5   2.0000     -10.320445      -280.8336
   6   2.0000     -10.305289      -280.4212
   7   2.0000     -10.295305      -280.1495
   8   2.0000     -10.294326      -280.1228
   9   2.0000     -10.292940      -280.0851
  10   2.0000     -10.291414      -280.0436
  11   2.0000     -10.290974      -280.0316
  12   2.0000     -10.289442      -279.9899
  13   2.0000     -10.288478      -279.9637
  14   2.0000     -10.282473      -279.8003
  15   2.0000     -10.273382      -279.5529
  16   2.0000      -8.083167      -219.9541
  17   2.0000      -8.079341      -219.8501
  18   2.0000      -6.041705      -164.4032
  19   2.0000      -6.037978      -164.3017
  20   2.0000      -6.037868      -164.2987
  21   2.0000      -6.034127      -164.1969
  22   2.0000      -6.033809      -164.1883
  23   2.0000      -6.029777      -164.0786
  24   2.0000      -1.005703       -27.3666
  25   2.0000      -0.981382       -26.7048
  26   2.0000      -0.919340       -25.0165
  27   2.0000      -0.914039       -24.8723
  28   2.0000      -0.866548       -23.5800
  29   2.0000      -0.853602       -23.2277
  30   2.0000      -0.848365       -23.0852
  31   2.0000      -0.814670       -22.1683
  32   2.0000      -0.782577       -21.2950
  33   2.0000      -0.770736       -20.9728
  34   2.0000      -0.702872       -19.1261
  35   2.0000      -0.698837       -19.0163
  36   2.0000      -0.687629       -18.7113
  37   2.0000      -0.667085       -18.1523
  38   2.0000      -0.642194       -17.4750
  39   2.0000      -0.619552       -16.8589
  40   2.0000      -0.596645       -16.2355
  41   2.0000      -0.570337       -15.5197
  42   2.0000      -0.568753       -15.4766
  43   2.0000      -0.559309       -15.2196
  44   2.0000      -0.525217       -14.2919
  45   2.0000      -0.524224       -14.2648
  46   2.0000      -0.519094       -14.1253
  47   2.0000      -0.515747       -14.0342
  48   2.0000      -0.504541       -13.7292
  49   2.0000      -0.500541       -13.6204
  50   2.0000      -0.492377       -13.3983
  51   2.0000      -0.479812       -13.0564
  52   2.0000      -0.464045       -12.6273
  53   2.0000      -0.461524       -12.5587
  54   2.0000      -0.456967       -12.4347
  55   2.0000      -0.453107       -12.3297
  56   2.0000      -0.449686       -12.2366
  57   2.0000      -0.438160       -11.9230
  58   2.0000      -0.436273       -11.8716
  59   2.0000      -0.429868       -11.6973
  60   2.0000      -0.424846       -11.5607
  61   2.0000      -0.405455       -11.0330
  62   2.0000      -0.403321       -10.9749
  63   2.0000      -0.343477        -9.3465
  64   2.0000      -0.332232        -9.0405
  65   2.0000      -0.330974        -9.0063
  66   2.0000      -0.293984        -7.9997
  67   0.0000       0.034785         0.9466
  68   0.0000       0.060294         1.6407
  69   0.0000       0.098887         2.6909
  70   0.0000       0.119560         3.2534
  71   0.0000       0.123251         3.3538

MULLIKEN ATOMIC CHARGES
-----------------------
   0 S :    0.107329
   1 C :   -0.118493
   2 C :   -0.090009
   3 C :    0.051918
   4 C :   -0.156132
   5 H :    0.003840
   6 C :    0.027126
   7 H :    0.023192
   8 H :    0.021147
   9 C :   -0.084308
  10 H :    0.037884
  11 H :    0.029902
  12 C :   -0.007641
  13 H :    0.026989
  14 H :    0.034406
  15 H :    0.013860
  16 S :    0.101756
  17 C :   -0.096722
  18 C :   -0.041217
  19 C :   -0.035658
  20 C :   -0.149506
  21 H :    0.019874
  22 C :    0.081192
  23 H :    0.020547
  24 H :    0.012719
  25 C :   -0.087158
  26 H :    0.025500
  27 H :    0.038991
  28 C :   -0.074757
  29 H :    0.057383
  30 H :    0.049438
  31 H :    0.032230
  32 H :    0.055517
  33 H :    0.068861
Sum of atomic charges:    0.0000000

LOEWDIN ATOMIC CHARGES
----------------------
   0 S :    0.394317
   1 C :   -0.197569
   2 C :   -0.056563
   3 C :   -0.057300
   4 C :   -0.180531
   5 H :    0.027961
   6 C :   -0.043729
   7 H :    0.027438
   8 H :    0.031987
   9 C :   -0.043297
  10 H :    0.025213
  11 H :    0.031098
  12 C :   -0.068299
  13 H :    0.026215
  14 H :    0.035557
  15 H :    0.018636
  16 S :    0.379228
  17 C :   -0.180983
  18 C :   -0.068780
  19 C :   -0.057651
  20 C :   -0.191489
  21 H :    0.030637
  22 C :   -0.033017
  23 H :    0.026296
  24 H :    0.029376
  25 C :   -0.051122
  26 H :    0.025384
  27 H :    0.029760
  28 C :   -0.072673
  29 H :    0.040077
  30 H :    0.032448
  31 H :    0.021361
  32 H :    0.031344
  33 H :    0.038667

  Mayer bond orders larger than 0.100000
B(  0-S ,  1-C ) :   1.1233 B(  0-S ,  4-C ) :   1.1507 B(  1-C ,  2-C ) :   1.6271
B(  1-C , 32-H ) :   0.9635 B(  2-C ,  3-C ) :   1.2128 B(  2-C ,  6-C ) :   1.0413
B(  3-C ,  4-C ) :   1.6078 B(  3-C ,  5-H ) :   0.9925 B(  4-C , 20-C ) :   0.9896
B(  6-C ,  7-H ) :   0.9378 B(  6-C ,  8-H ) :   0.9382 B(  6-C ,  9-C ) :   1.0487
B(  9-C , 10-H ) :   0.9636 B(  9-C , 11-H ) :   0.9665 B(  9-C , 12-C ) :   1.0655
B( 12-C , 13-H ) :   0.9732 B( 12-C , 14-H ) :   0.9784 B( 12-C , 15-H ) :   0.9729
B( 16-S , 17-C ) :   1.1446 B( 16-S , 20-C ) :   1.1053 B( 17-C , 18-C ) :   1.6364
B( 17-C , 33-H ) :   0.9568 B( 18-C , 19-C ) :   1.2134 B( 18-C , 21-H ) :   0.9848
B( 19-C , 20-C ) :   1.6780 B( 19-C , 22-C ) :   1.0413 B( 22-C , 23-H ) :   0.9217
B( 22-C , 24-H ) :   0.9323 B( 22-C , 25-C ) :   1.0699 B( 25-C , 26-H ) :   0.9569
B( 25-C , 27-H ) :   0.9446 B( 25-C , 28-C ) :   1.0673 B( 28-C , 29-H ) :   0.9717
B( 28-C , 30-H ) :   0.9734 B( 28-C , 31-H ) :   0.9743

Dispersion correction           -0.013990290
FINAL SINGLE POINT ENERGY     -1339.865089497487

DIPOLE MOMENT
-------------
                                X             Y             Z
Electronic contribution:    -24.25504     -19.22263       6.67464
Nuclear contribution   :     24.74038      19.67374      -6.97617
                        -----------------------------------------
Total Dipole Moment    :      0.48533       0.45111      -0.30153
                        -----------------------------------------
Magnitude (a.u.)       :      0.72799
Magnitude (Debye)      :      1.85040

Rotational constants in cm-1:     0.017494     0.008854     0.006308
Rotational constants in MHz :   524.458675   265.437082   189.101504

                             ****ORCA TERMINATED NORMALLY****
TOTAL RUN TIME: 0 days 0 hours 0 minutes 21 seconds 396 msec
