                         Program Version 4.2.1 -  RELEASE  -
|  1> ! wB97X-D3 SP def2-SVP
|  2> %pal
|  3> nprocs 24
|  4> end
|  5>
|  6> * xyz 0 1
|  7> S 	 -117.537 	 33.7772 	 -117.226
|  8> C 	 -116.842 	 33.3495 	 -118.804
|  9> C 	 -115.723 	 34.1274 	 -119.1
| 10> C 	 -115.296 	 34.8856 	 -117.993
| 11> C 	 -116.084 	 34.6928 	 -116.884
| 12> H 	 -114.438 	 35.5627 	 -117.945
| 13> C 	 -114.919 	 34.0636 	 -120.398
| 14> H 	 -114.506 	 35.0644 	 -120.519
| 15> H 	 -115.634 	 34.0703 	 -121.294
| 16> C 	 -113.685 	 33.1551 	 -120.264
| 17> H 	 -113.106 	 33.4259 	 -119.366
| 18> H 	 -114.124 	 32.1526 	 -119.987
| 19> C 	 -112.722 	 33.0164 	 -121.455
| 20> H 	 -111.723 	 32.5934 	 -121.13
| 21> H 	 -113.189 	 32.3936 	 -122.179
| 22> H 	 -112.444 	 33.8998 	 -121.977
| 23> S 	 -114.289 	 35.2416 	 -114.852
| 24> C 	 -114.847 	 36.069 	 -113.393
| 25> C 	 -116.151 	 36.4652 	 -113.532
| 26> C 	 -116.718 	 35.9343 	 -114.698
| 27> C 	 -115.825 	 35.33 	 -115.607
| 28> H 	 -116.739 	 36.9469 	 -112.756
| 29> C 	 -118.227 	 36.0927 	 -114.878
| 30> H 	 -118.603 	 36.3416 	 -115.879
| 31> H 	 -118.534 	 37.0365 	 -114.388
| 32> C 	 -119.011 	 34.9917 	 -114.146
| 33> H 	 -118.682 	 35.044 	 -113.042
| 34> H 	 -118.684 	 34.0682 	 -114.572
| 35> C 	 -120.568 	 35.0812 	 -114.074
| 36> H 	 -120.977 	 35.2286 	 -115.028
| 37> H 	 -120.898 	 35.8415 	 -113.351
| 38> H 	 -121.02 	 34.1177 	 -113.927
| 39> H 	 -117.309 	 32.6827 	 -119.559
| 40> H 	 -114.12 	 36.3641 	 -112.575
| 41> *
| 42>
| 43>                          ****END OF INPUT****

CARTESIAN COORDINATES (ANGSTROEM)
---------------------------------
  S    -117.537000   33.777200  -117.226000
  C    -116.842000   33.349500  -118.804000
  C    -115.723000   34.127400  -119.100000
  C    -115.296000   34.885600  -117.993000
  C    -116.084000   34.692800  -116.884000
  H    -114.438000   35.562700  -117.945000
  C    -114.919000   34.063600  -120.398000
  H    -114.506000   35.064400  -120.519000
  H    -115.634000   34.070300  -121.294000
  C    -113.685000   33.155100  -120.264000
  H    -113.106000   33.425900  -119.366000
  H    -114.124000   32.152600  -119.987000
  C    -112.722000   33.016400  -121.455000
  H    -111.723000   32.593400  -121.130000
  H    -113.189000   32.393600  -122.179000
  H    -112.444000   33.899800  -121.977000
  S    -114.289000   35.241600  -114.852000
  C    -114.847000   36.069000  -113.393000
  C    -116.151000   36.465200  -113.532000
  C    -116.718000   35.934300  -114.698000
  C    -115.825000   35.330000  -115.607000
  H    -116.739000   36.946900  -112.756000
  C    -118.227000   36.092700  -114.878000
  H    -118.603000   36.341600  -115.879000
  H    -118.534000   37.036500  -114.388000
  C    -119.011000   34.991700  -114.146000
  H    -118.682000   35.044000  -113.042000
  H    -118.684000   34.068200  -114.572000
  C    -120.568000   35.081200  -114.074000
  H    -120.977000   35.228600  -115.028000
  H    -120.898000   35.841500  -113.351000
  H    -121.020000   34.117700  -113.927000
  H    -117.309000   32.682700  -119.559000
  H    -114.120000   36.364100  -112.575000

 Total Charge           Charge          ....    0
 Multiplicity           Mult            ....    1
 Number of Electrons    NEL             ....  134
 Basis Dimension        Dim             ....  322

ORBITAL ENERGIES
----------------

  NO   OCC          E(Eh)            E(eV)
   0   2.0000     -88.972554     -2421.0663
   1   2.0000     -88.966926     -2420.9131
   2   2.0000     -10.329246      -281.0731
   3   2.0000     -10.324958      -280.9564
   4   2.0000     -10.322405      -280.8869
   5   2.0000     -10.318576      -280.7827
   6   2.0000     -10.302382      -280.3421
   7   2.0000     -10.299790      -280.2715
   8   2.0000     -10.298921      -280.2479
   9   2.0000     -10.294398      -280.1248
  10   2.0000     -10.292684      -280.0782
  11   2.0000     -10.292633      -280.0768
  12   2.0000     -10.288875      -279.9745
  13   2.0000     -10.287496      -279.9370
  14   2.0000     -10.278647      -279.6962
  15   2.0000     -10.272785      -279.5367
  16   2.0000      -8.085991      -220.0310
  17   2.0000      -8.081861      -219.9186
  18   2.0000      -6.044530      -164.4800
  19   2.0000      -6.040879      -164.3807
  20   2.0000      -6.040342      -164.3661
  21   2.0000      -6.036617      -164.2647
  22   2.0000      -6.036240      -164.2544
  23   2.0000      -6.032735      -164.1591
  24   2.0000      -1.009999       -27.4835
  25   2.0000      -0.986606       -26.8469
  26   2.0000      -0.908657       -24.7258
  27   2.0000      -0.902615       -24.5614
  28   2.0000      -0.870726       -23.6937
  29   2.0000      -0.852379       -23.1944
  30   2.0000      -0.843936       -22.9647
  31   2.0000      -0.814120       -22.1533
  32   2.0000      -0.784537       -21.3483
  33   2.0000      -0.770115       -20.9559
  34   2.0000      -0.703372       -19.1397
  35   2.0000      -0.699024       -19.0214
  36   2.0000      -0.689088       -18.7510
  37   2.0000      -0.667363       -18.1599
  38   2.0000      -0.634707       -17.2712
  39   2.0000      -0.616013       -16.7626
  40   2.0000      -0.598398       -16.2832
  41   2.0000      -0.566201       -15.4071
  42   2.0000      -0.562594       -15.3090
  43   2.0000      -0.554135       -15.0788
  44   2.0000      -0.528314       -14.3761
  45   2.0000      -0.517433       -14.0801
  46   2.0000      -0.517198       -14.0737
  47   2.0000      -0.506234       -13.7753
  48   2.0000      -0.502686       -13.6788
  49   2.0000      -0.500366       -13.6157
  50   2.0000      -0.489255       -13.3133
  51   2.0000      -0.477501       -12.9935
  52   2.0000      -0.476972       -12.9791
  53   2.0000      -0.465519       -12.6674
  54   2.0000      -0.461935       -12.5699
  55   2.0000      -0.451767       -12.2932
  56   2.0000      -0.445232       -12.1154
  57   2.0000      -0.440065       -11.9748
  58   2.0000      -0.427639       -11.6367
  59   2.0000      -0.421288       -11.4638
  60   2.0000      -0.415704       -11.3119
  61   2.0000      -0.409783       -11.1508
  62   2.0000      -0.403820       -10.9885
  63   2.0000      -0.353493        -9.6190
  64   2.0000      -0.335904        -9.1404
  65   2.0000      -0.330823        -9.0021
  66   2.0000      -0.285984        -7.7820
  67   0.0000       0.025705         0.6995
  68   0.0000       0.072814         1.9814
  69   0.0000       0.096460         2.6248
  70   0.0000       0.121428         3.3042
  71   0.0000       0.130663         3.5555

MULLIKEN ATOMIC CHARGES
-----------------------
   0 S :    0.110922
   1 C :   -0.126786
   2 C :   -0.085436
   3 C :   -0.013017
   4 C :   -0.114740
   5 H :    0.022776
   6 C :    0.057820
   7 H :    0.010604
   8 H :    0.042471
   9 C :   -0.087153
  10 H :    0.034257
  11 H :    0.031403
  12 C :   -0.021437
  13 H :    0.042602
  14 H :    0.028987
  15 H :    0.020758
  16 S :    0.106462
  17 C :   -0.127476
  18 C :   -0.001805
  19 C :   -0.073909
  20 C :   -0.125134
  21 H :    0.027550
  22 C :    0.030631
  23 H :    0.030055
  24 H :    0.006922
  25 C :   -0.098173
  26 H :    0.034958
  27 H :    0.020506
  28 C :   -0.000320
  29 H :    0.006759
  30 H :    0.044283
  31 H :    0.023835
  32 H :    0.057525
  33 H :    0.083301
Sum of atomic charges:    0.0000000

LOEWDIN ATOMIC CHARGES
----------------------
   0 S :    0.409777
   1 C :   -0.197535
   2 C :   -0.060754
   3 C :   -0.065697
   4 C :   -0.183313
   5 H :    0.035038
   6 C :   -0.043967
   7 H :    0.027545
   8 H :    0.039452
   9 C :   -0.044663
  10 H :    0.028862
  11 H :    0.028921
  12 C :   -0.066970
  13 H :    0.037372
  14 H :    0.022693
  15 H :    0.019317
  16 S :    0.421821
  17 C :   -0.191003
  18 C :   -0.069309
  19 C :   -0.061472
  20 C :   -0.211684
  21 H :    0.036612
  22 C :   -0.050028
  23 H :    0.024947
  24 H :    0.028629
  25 C :   -0.042053
  26 H :    0.031475
  27 H :    0.008198
  28 C :   -0.066736
  29 H :    0.017549
  30 H :    0.029577
  31 H :    0.030187
  32 H :    0.034761
  33 H :    0.042449

  Mayer bond orders larger than 0.100000
B(  0-S ,  1-C ) :   1.1256 B(  0-S ,  4-C ) :   1.1442 B(  1-C ,  2-C ) :   1.6136
B(  1-C , 32-H ) :   0.9642 B(  2-C ,  3-C ) :   1.2393 B(  2-C ,  6-C ) :   1.0315
B(  3-C ,  4-C ) :   1.5554 B(  3-C ,  5-H ) :   0.9958 B(  4-C , 20-C ) :   1.0588
B(  6-C ,  7-H ) :   0.9298 B(  6-C ,  8-H ) :   0.9450 B(  6-C ,  9-C ) :   1.0426
B(  9-C , 10-H ) :   0.9569 B(  9-C , 11-H ) :   0.9587 B(  9-C , 12-C ) :   1.0727
B( 12-C , 13-H ) :   0.9746 B( 12-C , 14-H ) :   0.9760 B( 12-C , 15-H ) :   0.9754
B( 16-S , 17-C ) :   1.1677 B( 16-S , 20-C ) :   1.1532 B( 17-C , 18-C ) :   1.5627
B( 17-C , 20-C ) :   0.1017 B( 17-C , 33-H ) :   0.9581 B( 18-C , 19-C ) :   1.2973
B( 18-C , 21-H ) :   0.9848 B( 19-C , 20-C ) :   1.5398 B( 19-C , 22-C ) :   1.0445
B( 22-C , 23-H ) :   0.9403 B( 22-C , 24-H ) :   0.9322 B( 22-C , 25-C ) :   1.0452
B( 25-C , 26-H ) :   0.9589 B( 25-C , 27-H ) :   0.9566 B( 25-C , 28-C ) :   1.0799
B( 28-C , 29-H ) :   0.9685 B( 28-C , 30-H ) :   0.9773 B( 28-C , 31-H ) :   0.9694

Dispersion correction           -0.014157683
FINAL SINGLE POINT ENERGY     -1339.869299005607

DIPOLE MOMENT
-------------
                                X             Y             Z
Electronic contribution:      4.09111       2.05982       9.25374
Nuclear contribution   :     -4.12472      -1.87846      -9.45980
                        -----------------------------------------
Total Dipole Moment    :     -0.03361       0.18136      -0.20606
                        -----------------------------------------
Magnitude (a.u.)       :      0.27656
Magnitude (Debye)      :      0.70296

Rotational constants in cm-1:     0.022696     0.007742     0.006016
Rotational constants in MHz :   680.404346   232.084469   180.352719

                             ****ORCA TERMINATED NORMALLY****
TOTAL RUN TIME: 0 days 0 hours 0 minutes 20 seconds 104 msec
