                         Program Version 4.2.1 -  RELEASE  -
|  1> ! wB97X-D3 SP def2-SVP
|  2> %pal
|  3> nprocs 24
|  4> end
|  5>
|  6> * xyz 0 1
|  7> S 	 -111.167 	 56.3142 	 -78.5485
|  8> C 	 -112.517 	 55.3984 	 -79.27
|  9> C 	 -112.932 	 56.0504 	 -80.4038
| 10> C 	 -112.185 	 57.2484 	 -80.703
| 11> C 	 -111.268 	 57.5483 	 -79.6928
| 12> H 	 -112.327 	 57.9872 	 -81.5127
| 13> C 	 -114.179 	 55.6138 	 -81.2194
| 14> H 	 -114.988 	 55.9992 	 -80.645
| 15> H 	 -114.311 	 54.5557 	 -81.326
| 16> C 	 -114.434 	 56.1303 	 -82.6954
| 17> H 	 -115.356 	 55.6948 	 -83.049
| 18> H 	 -114.63 	 57.2166 	 -82.8492
| 19> C 	 -113.352 	 55.7095 	 -83.6806
| 20> H 	 -113.511 	 55.8896 	 -84.6803
| 21> H 	 -112.536 	 56.3746 	 -83.4147
| 22> H 	 -113.075 	 54.7025 	 -83.4888
| 23> S 	 -108.704 	 58.5455 	 -79.3309
| 24> C 	 -108.468 	 60.2066 	 -79.418
| 25> C 	 -109.664 	 60.8718 	 -79.5741
| 26> C 	 -110.84 	 60.0842 	 -79.7282
| 27> C 	 -110.452 	 58.7492 	 -79.5974
| 28> H 	 -109.688 	 61.95 	 -79.6557
| 29> C 	 -112.182 	 60.7855 	 -79.8806
| 30> H 	 -112.928 	 60.0677 	 -80.3492
| 31> H 	 -112.13 	 61.6439 	 -80.4948
| 32> C 	 -112.78 	 61.3003 	 -78.5441
| 33> H 	 -112.191 	 62.162 	 -78.1961
| 34> H 	 -112.759 	 60.4761 	 -77.8094
| 35> C 	 -114.249 	 61.67 	 -78.6106
| 36> H 	 -114.347 	 62.414 	 -79.3686
| 37> H 	 -114.563 	 62.0273 	 -77.6433
| 38> H 	 -115.003 	 60.8624 	 -78.8446
| 39> H 	 -113.108 	 54.5156 	 -78.9716
| 40> H 	 -107.521 	 60.6655 	 -79.3419
| 41> *
| 42>
| 43>                          ****END OF INPUT****

CARTESIAN COORDINATES (ANGSTROEM)
---------------------------------
  S    -111.167000   56.314200  -78.548500
  C    -112.517000   55.398400  -79.270000
  C    -112.932000   56.050400  -80.403800
  C    -112.185000   57.248400  -80.703000
  C    -111.268000   57.548300  -79.692800
  H    -112.327000   57.987200  -81.512700
  C    -114.179000   55.613800  -81.219400
  H    -114.988000   55.999200  -80.645000
  H    -114.311000   54.555700  -81.326000
  C    -114.434000   56.130300  -82.695400
  H    -115.356000   55.694800  -83.049000
  H    -114.630000   57.216600  -82.849200
  C    -113.352000   55.709500  -83.680600
  H    -113.511000   55.889600  -84.680300
  H    -112.536000   56.374600  -83.414700
  H    -113.075000   54.702500  -83.488800
  S    -108.704000   58.545500  -79.330900
  C    -108.468000   60.206600  -79.418000
  C    -109.664000   60.871800  -79.574100
  C    -110.840000   60.084200  -79.728200
  C    -110.452000   58.749200  -79.597400
  H    -109.688000   61.950000  -79.655700
  C    -112.182000   60.785500  -79.880600
  H    -112.928000   60.067700  -80.349200
  H    -112.130000   61.643900  -80.494800
  C    -112.780000   61.300300  -78.544100
  H    -112.191000   62.162000  -78.196100
  H    -112.759000   60.476100  -77.809400
  C    -114.249000   61.670000  -78.610600
  H    -114.347000   62.414000  -79.368600
  H    -114.563000   62.027300  -77.643300
  H    -115.003000   60.862400  -78.844600
  H    -113.108000   54.515600  -78.971600
  H    -107.521000   60.665500  -79.341900

 Total Charge           Charge          ....    0
 Multiplicity           Mult            ....    1
 Number of Electrons    NEL             ....  134
 Basis Dimension        Dim             ....  322

ORBITAL ENERGIES
----------------

  NO   OCC          E(Eh)            E(eV)
   0   2.0000     -88.967779     -2420.9364
   1   2.0000     -88.967343     -2420.9245
   2   2.0000     -10.330207      -281.0992
   3   2.0000     -10.325105      -280.9604
   4   2.0000     -10.312376      -280.6140
   5   2.0000     -10.309938      -280.5477
   6   2.0000     -10.307344      -280.4771
   7   2.0000     -10.304283      -280.3938
   8   2.0000     -10.298587      -280.2388
   9   2.0000     -10.294610      -280.1306
  10   2.0000     -10.294602      -280.1304
  11   2.0000     -10.289111      -279.9809
  12   2.0000     -10.288686      -279.9694
  13   2.0000     -10.288499      -279.9643
  14   2.0000     -10.277473      -279.6643
  15   2.0000     -10.262110      -279.2462
  16   2.0000      -8.083475      -219.9626
  17   2.0000      -8.082328      -219.9313
  18   2.0000      -6.041840      -164.4068
  19   2.0000      -6.040941      -164.3824
  20   2.0000      -6.037847      -164.2982
  21   2.0000      -6.036633      -164.2651
  22   2.0000      -6.034327      -164.2024
  23   2.0000      -6.033118      -164.1695
  24   2.0000      -1.011221       -27.5167
  25   2.0000      -0.987753       -26.8781
  26   2.0000      -0.912453       -24.8291
  27   2.0000      -0.907297       -24.6888
  28   2.0000      -0.870862       -23.6974
  29   2.0000      -0.858687       -23.3660
  30   2.0000      -0.840524       -22.8718
  31   2.0000      -0.810695       -22.0601
  32   2.0000      -0.788675       -21.4609
  33   2.0000      -0.778416       -21.1818
  34   2.0000      -0.706682       -19.2298
  35   2.0000      -0.694241       -18.8913
  36   2.0000      -0.691712       -18.8224
  37   2.0000      -0.661258       -17.9937
  38   2.0000      -0.633350       -17.2343
  39   2.0000      -0.617173       -16.7941
  40   2.0000      -0.603744       -16.4287
  41   2.0000      -0.571542       -15.5525
  42   2.0000      -0.568867       -15.4796
  43   2.0000      -0.555524       -15.1166
  44   2.0000      -0.534347       -14.5403
  45   2.0000      -0.527550       -14.3554
  46   2.0000      -0.516677       -14.0595
  47   2.0000      -0.512287       -13.9400
  48   2.0000      -0.507728       -13.8160
  49   2.0000      -0.499924       -13.6036
  50   2.0000      -0.491752       -13.3812
  51   2.0000      -0.485939       -13.2231
  52   2.0000      -0.477174       -12.9846
  53   2.0000      -0.465245       -12.6600
  54   2.0000      -0.460972       -12.5437
  55   2.0000      -0.444794       -12.1035
  56   2.0000      -0.438535       -11.9331
  57   2.0000      -0.434220       -11.8157
  58   2.0000      -0.432739       -11.7754
  59   2.0000      -0.427696       -11.6382
  60   2.0000      -0.423081       -11.5126
  61   2.0000      -0.417621       -11.3640
  62   2.0000      -0.409357       -11.1392
  63   2.0000      -0.346641        -9.4326
  64   2.0000      -0.333806        -9.0833
  65   2.0000      -0.329588        -8.9686
  66   2.0000      -0.290317        -7.8999
  67   0.0000       0.032617         0.8876
  68   0.0000       0.073120         1.9897
  69   0.0000       0.110092         2.9958
  70   0.0000       0.120876         3.2892
  71   0.0000       0.134531         3.6608

MULLIKEN ATOMIC CHARGES
-----------------------
   0 S :    0.119015
   1 C :   -0.125345
   2 C :   -0.090367
   3 C :    0.018579
   4 C :   -0.151897
   5 H :    0.030052
   6 C :    0.055857
   7 H :    0.041417
   8 H :    0.030535
   9 C :   -0.103579
  10 H :    0.017839
  11 H :    0.026053
  12 C :   -0.000650
  13 H :    0.018297
  14 H :    0.016564
  15 H :    0.022846
  16 S :    0.125094
  17 C :   -0.067342
  18 C :   -0.044646
  19 C :    0.003007
  20 C :   -0.192126
  21 H :    0.007428
  22 C :    0.073845
  23 H :    0.025867
  24 H :    0.016951
  25 C :   -0.087373
  26 H :    0.035855
  27 H :    0.037611
  28 C :   -0.042109
  29 H :    0.017223
  30 H :    0.032151
  31 H :    0.040096
  32 H :    0.049748
  33 H :    0.043506
Sum of atomic charges:   -0.0000000

LOEWDIN ATOMIC CHARGES
----------------------
   0 S :    0.424335
   1 C :   -0.211963
   2 C :   -0.058001
   3 C :   -0.079317
   4 C :   -0.210422
   5 H :    0.034701
   6 C :   -0.026469
   7 H :    0.034666
   8 H :    0.028559
   9 C :   -0.042598
  10 H :    0.020134
  11 H :    0.022467
  12 C :   -0.057849
  13 H :    0.014570
  14 H :    0.026852
  15 H :    0.021156
  16 S :    0.427519
  17 C :   -0.201198
  18 C :   -0.071770
  19 C :   -0.048094
  20 C :   -0.192565
  21 H :    0.025031
  22 C :   -0.029573
  23 H :    0.035580
  24 H :    0.024574
  25 C :   -0.037993
  26 H :    0.026229
  27 H :    0.028551
  28 C :   -0.066310
  29 H :    0.016252
  30 H :    0.026399
  31 H :    0.032137
  32 H :    0.040874
  33 H :    0.023539

  Mayer bond orders larger than 0.100000
B(  0-S ,  1-C ) :   1.1097 B(  0-S ,  4-C ) :   1.1798 B(  1-C ,  2-C ) :   1.6434
B(  1-C , 32-H ) :   0.9673 B(  2-C ,  3-C ) :   1.2309 B(  2-C ,  6-C ) :   0.9946
B(  3-C ,  4-C ) :   1.5605 B(  3-C ,  5-H ) :   0.9826 B(  4-C , 20-C ) :   1.0270
B(  6-C ,  7-H ) :   0.9397 B(  6-C ,  8-H ) :   0.9486 B(  6-C ,  9-C ) :   1.0780
B(  9-C , 10-H ) :   0.9551 B(  9-C , 11-H ) :   0.9546 B(  9-C , 12-C ) :   1.0775
B( 12-C , 13-H ) :   0.9737 B( 12-C , 14-H ) :   0.9742 B( 12-C , 15-H ) :   0.9747
B( 16-S , 17-C ) :   1.1658 B( 16-S , 20-C ) :   1.1566 B( 17-C , 18-C ) :   1.5882
B( 17-C , 33-H ) :   0.9749 B( 18-C , 19-C ) :   1.2501 B( 18-C , 21-H ) :   0.9877
B( 19-C , 20-C ) :   1.5792 B( 19-C , 22-C ) :   1.0544 B( 22-C , 23-H ) :   0.9314
B( 22-C , 24-H ) :   0.9272 B( 22-C , 25-C ) :   1.0665 B( 25-C , 26-H ) :   0.9524
B( 25-C , 27-H ) :   0.9577 B( 25-C , 28-C ) :   1.0906 B( 28-C , 29-H ) :   0.9732
B( 28-C , 30-H ) :   0.9720 B( 28-C , 31-H ) :   0.9734

Dispersion correction           -0.013998327
FINAL SINGLE POINT ENERGY     -1339.871294554121

DIPOLE MOMENT
-------------
                                X             Y             Z
Electronic contribution:     23.78151      -7.48053      12.08677
Nuclear contribution   :    -24.31727       7.91086     -12.32692
                        -----------------------------------------
Total Dipole Moment    :     -0.53576       0.43033      -0.24015
                        -----------------------------------------
Magnitude (a.u.)       :      0.72794
Magnitude (Debye)      :      1.85028

Rotational constants in cm-1:     0.016280     0.009059     0.007355
Rotational constants in MHz :   488.074505   271.578631   220.505318

                             ****ORCA TERMINATED NORMALLY****
TOTAL RUN TIME: 0 days 0 hours 0 minutes 20 seconds 547 msec
