                         Program Version 4.2.1 -  RELEASE  -
|  1> ! wB97X-D3 SP def2-SVP
|  2> %pal
|  3> nprocs 24
|  4> end
|  5>
|  6> * xyz 0 1
|  7> S 	 -84.4799 	 -44.8966 	 -71.5004
|  8> C 	 -84.1502 	 -45.7299 	 -70.0047
|  9> C 	 -85.2724 	 -45.672 	 -69.1699
| 10> C 	 -86.418 	 -45.3087 	 -69.8978
| 11> C 	 -86.1619 	 -44.9445 	 -71.2226
| 12> H 	 -87.4215 	 -45.4781 	 -69.4919
| 13> C 	 -85.3339 	 -45.9637 	 -67.7082
| 14> H 	 -85.2855 	 -44.9928 	 -67.2088
| 15> H 	 -84.4874 	 -46.5415 	 -67.3939
| 16> C 	 -86.6276 	 -46.6027 	 -67.21
| 17> H 	 -86.4937 	 -46.7039 	 -66.1662
| 18> H 	 -87.424 	 -45.9043 	 -67.3092
| 19> C 	 -86.8806 	 -47.9349 	 -67.9326
| 20> H 	 -86.9411 	 -47.898 	 -69.0678
| 21> H 	 -85.9578 	 -48.3997 	 -67.6368
| 22> H 	 -87.7584 	 -48.4662 	 -67.5751
| 23> S 	 -86.8443 	 -43.325 	 -73.3121
| 24> C 	 -88.3034 	 -43.5978 	 -74.1945
| 25> C 	 -88.9925 	 -44.707 	 -73.7652
| 26> C 	 -88.3746 	 -45.2861 	 -72.6739
| 27> C 	 -87.1471 	 -44.7555 	 -72.3214
| 28> H 	 -89.9223 	 -44.9671 	 -74.0986
| 29> C 	 -88.953 	 -46.5097 	 -72.0021
| 30> H 	 -89.9727 	 -46.3282 	 -72.2333
| 31> H 	 -88.8032 	 -46.308 	 -70.9395
| 32> C 	 -88.2373 	 -47.8038 	 -72.3326
| 33> H 	 -88.4511 	 -48.4782 	 -71.5154
| 34> H 	 -87.166 	 -47.5836 	 -72.2629
| 35> C 	 -88.5063 	 -48.524 	 -73.6338
| 36> H 	 -88.2781 	 -47.8022 	 -74.4264
| 37> H 	 -89.5283 	 -48.7535 	 -73.8481
| 38> H 	 -87.9717 	 -49.467 	 -73.7705
| 39> H 	 -83.1855 	 -45.8819 	 -69.6454
| 40> H 	 -88.7355 	 -42.8519 	 -74.8326
| 41> *
| 42>
| 43>                          ****END OF INPUT****

CARTESIAN COORDINATES (ANGSTROEM)
---------------------------------
  S    -84.479900  -44.896600  -71.500400
  C    -84.150200  -45.729900  -70.004700
  C    -85.272400  -45.672000  -69.169900
  C    -86.418000  -45.308700  -69.897800
  C    -86.161900  -44.944500  -71.222600
  H    -87.421500  -45.478100  -69.491900
  C    -85.333900  -45.963700  -67.708200
  H    -85.285500  -44.992800  -67.208800
  H    -84.487400  -46.541500  -67.393900
  C    -86.627600  -46.602700  -67.210000
  H    -86.493700  -46.703900  -66.166200
  H    -87.424000  -45.904300  -67.309200
  C    -86.880600  -47.934900  -67.932600
  H    -86.941100  -47.898000  -69.067800
  H    -85.957800  -48.399700  -67.636800
  H    -87.758400  -48.466200  -67.575100
  S    -86.844300  -43.325000  -73.312100
  C    -88.303400  -43.597800  -74.194500
  C    -88.992500  -44.707000  -73.765200
  C    -88.374600  -45.286100  -72.673900
  C    -87.147100  -44.755500  -72.321400
  H    -89.922300  -44.967100  -74.098600
  C    -88.953000  -46.509700  -72.002100
  H    -89.972700  -46.328200  -72.233300
  H    -88.803200  -46.308000  -70.939500
  C    -88.237300  -47.803800  -72.332600
  H    -88.451100  -48.478200  -71.515400
  H    -87.166000  -47.583600  -72.262900
  C    -88.506300  -48.524000  -73.633800
  H    -88.278100  -47.802200  -74.426400
  H    -89.528300  -48.753500  -73.848100
  H    -87.971700  -49.467000  -73.770500
  H    -83.185500  -45.881900  -69.645400
  H    -88.735500  -42.851900  -74.832600

 Total Charge           Charge          ....    0
 Multiplicity           Mult            ....    1
 Number of Electrons    NEL             ....  134
 Basis Dimension        Dim             ....  322

ORBITAL ENERGIES
----------------

  NO   OCC          E(Eh)            E(eV)
   0   2.0000     -88.966611     -2420.9046
   1   2.0000     -88.964430     -2420.8452
   2   2.0000     -10.331399      -281.1317
   3   2.0000     -10.325730      -280.9774
   4   2.0000     -10.313879      -280.6549
   5   2.0000     -10.307901      -280.4922
   6   2.0000     -10.299400      -280.2609
   7   2.0000     -10.294272      -280.1214
   8   2.0000     -10.291142      -280.0362
   9   2.0000     -10.289965      -280.0042
  10   2.0000     -10.284198      -279.8473
  11   2.0000     -10.283383      -279.8251
  12   2.0000     -10.283094      -279.8172
  13   2.0000     -10.281470      -279.7730
  14   2.0000     -10.280703      -279.7522
  15   2.0000     -10.270740      -279.4811
  16   2.0000      -8.082163      -219.9268
  17   2.0000      -8.079557      -219.8559
  18   2.0000      -6.040586      -164.3727
  19   2.0000      -6.037832      -164.2978
  20   2.0000      -6.036607      -164.2644
  21   2.0000      -6.033982      -164.1930
  22   2.0000      -6.032915      -164.1640
  23   2.0000      -6.030593      -164.1008
  24   2.0000      -1.012263       -27.5451
  25   2.0000      -0.992374       -27.0039
  26   2.0000      -0.923492       -25.1295
  27   2.0000      -0.912952       -24.8427
  28   2.0000      -0.870117       -23.6771
  29   2.0000      -0.853266       -23.2185
  30   2.0000      -0.846266       -23.0281
  31   2.0000      -0.815957       -22.2033
  32   2.0000      -0.788263       -21.4497
  33   2.0000      -0.776147       -21.1200
  34   2.0000      -0.714031       -19.4298
  35   2.0000      -0.705208       -19.1897
  36   2.0000      -0.690734       -18.7958
  37   2.0000      -0.671279       -18.2664
  38   2.0000      -0.636617       -17.3232
  39   2.0000      -0.632112       -17.2006
  40   2.0000      -0.592235       -16.1155
  41   2.0000      -0.574700       -15.6384
  42   2.0000      -0.565422       -15.3859
  43   2.0000      -0.551565       -15.0088
  44   2.0000      -0.545027       -14.8309
  45   2.0000      -0.534469       -14.5437
  46   2.0000      -0.522332       -14.2134
  47   2.0000      -0.514674       -14.0050
  48   2.0000      -0.510097       -13.8804
  49   2.0000      -0.499473       -13.5913
  50   2.0000      -0.491278       -13.3683
  51   2.0000      -0.479130       -13.0378
  52   2.0000      -0.477685       -12.9985
  53   2.0000      -0.468489       -12.7482
  54   2.0000      -0.457360       -12.4454
  55   2.0000      -0.451335       -12.2815
  56   2.0000      -0.448501       -12.2043
  57   2.0000      -0.436497       -11.8777
  58   2.0000      -0.432438       -11.7672
  59   2.0000      -0.427336       -11.6284
  60   2.0000      -0.422037       -11.4842
  61   2.0000      -0.419422       -11.4130
  62   2.0000      -0.401818       -10.9340
  63   2.0000      -0.348666        -9.4877
  64   2.0000      -0.335782        -9.1371
  65   2.0000      -0.329484        -8.9657
  66   2.0000      -0.284694        -7.7469
  67   0.0000       0.026341         0.7168
  68   0.0000       0.065400         1.7796
  69   0.0000       0.103768         2.8237
  70   0.0000       0.122647         3.3374
  71   0.0000       0.131379         3.5750

MULLIKEN ATOMIC CHARGES
-----------------------
   0 S :    0.115486
   1 C :   -0.094141
   2 C :   -0.120555
   3 C :   -0.008451
   4 C :   -0.116766
   5 H :    0.021222
   6 C :    0.074580
   7 H :    0.045352
   8 H :    0.015379
   9 C :   -0.065351
  10 H :    0.021823
  11 H :    0.019256
  12 C :   -0.063227
  13 H :    0.059375
  14 H :    0.024539
  15 H :    0.040152
  16 S :    0.093856
  17 C :   -0.075531
  18 C :    0.006648
  19 C :   -0.106588
  20 C :   -0.133771
  21 H :   -0.023561
  22 C :    0.109492
  23 H :    0.004092
  24 H :    0.007566
  25 C :   -0.052455
  26 H :    0.025417
  27 H :    0.043202
  28 C :   -0.022830
  29 H :    0.025887
  30 H :    0.011968
  31 H :    0.040474
  32 H :    0.023190
  33 H :    0.054269
Sum of atomic charges:   -0.0000000

LOEWDIN ATOMIC CHARGES
----------------------
   0 S :    0.429761
   1 C :   -0.197450
   2 C :   -0.057232
   3 C :   -0.075627
   4 C :   -0.206963
   5 H :    0.029741
   6 C :   -0.028871
   7 H :    0.042370
   8 H :    0.025162
   9 C :   -0.037510
  10 H :    0.024139
  11 H :    0.012486
  12 C :   -0.068566
  13 H :    0.035444
  14 H :    0.026652
  15 H :    0.024319
  16 S :    0.411479
  17 C :   -0.179801
  18 C :   -0.067283
  19 C :   -0.060157
  20 C :   -0.193103
  21 H :    0.017695
  22 C :   -0.026291
  23 H :    0.023555
  24 H :    0.032237
  25 C :   -0.038825
  26 H :    0.020907
  27 H :    0.034130
  28 C :   -0.066867
  29 H :    0.028129
  30 H :    0.018321
  31 H :    0.030915
  32 H :    0.011309
  33 H :    0.025794

  Mayer bond orders larger than 0.100000
B(  0-S ,  1-C ) :   1.1422 B(  0-S ,  4-C ) :   1.1839 B(  1-C ,  2-C ) :   1.5811
B(  1-C ,  4-C ) :   0.1086 B(  1-C , 32-H ) :   0.9743 B(  2-C ,  3-C ) :   1.2726
B(  2-C ,  6-C ) :   1.0259 B(  3-C ,  4-C ) :   1.5297 B(  3-C ,  5-H ) :   0.9869
B(  4-C , 20-C ) :   1.0022 B(  6-C ,  7-H ) :   0.9228 B(  6-C ,  8-H ) :   0.9409
B(  6-C ,  9-C ) :   1.0909 B(  9-C , 10-H ) :   0.9510 B(  9-C , 11-H ) :   0.9445
B(  9-C , 12-C ) :   1.0602 B( 12-C , 13-H ) :   0.9706 B( 12-C , 14-H ) :   0.9760
B( 12-C , 15-H ) :   0.9759 B( 16-S , 17-C ) :   1.1876 B( 16-S , 20-C ) :   1.1442
B( 17-C , 18-C ) :   1.5559 B( 17-C , 20-C ) :   0.1085 B( 17-C , 33-H ) :   0.9663
B( 18-C , 19-C ) :   1.2907 B( 18-C , 21-H ) :   1.0048 B( 19-C , 20-C ) :   1.5857
B( 19-C , 22-C ) :   1.0239 B( 22-C , 23-H ) :   0.9313 B( 22-C , 24-H ) :   0.9265
B( 22-C , 25-C ) :   1.0680 B( 25-C , 26-H ) :   0.9512 B( 25-C , 27-H ) :   0.9515
B( 25-C , 28-C ) :   1.0845 B( 28-C , 29-H ) :   0.9721 B( 28-C , 30-H ) :   0.9727
B( 28-C , 31-H ) :   0.9715

Dispersion correction           -0.015745692
FINAL SINGLE POINT ENERGY     -1339.863902792095

DIPOLE MOMENT
-------------
                                X             Y             Z
Electronic contribution:     11.10705      21.42537     -13.12437
Nuclear contribution   :    -11.52116     -21.67050      13.66336
                        -----------------------------------------
Total Dipole Moment    :     -0.41411      -0.24514       0.53900
                        -----------------------------------------
Magnitude (a.u.)       :      0.72256
Magnitude (Debye)      :      1.83661

Rotational constants in cm-1:     0.018731     0.010130     0.007766
Rotational constants in MHz :   561.528239   303.676180   232.822842

                             ****ORCA TERMINATED NORMALLY****
TOTAL RUN TIME: 0 days 0 hours 0 minutes 23 seconds 525 msec
