                         Program Version 4.2.1 -  RELEASE  -
|  1> ! wB97X-D3 SP def2-SVP
|  2> %pal
|  3> nprocs 24
|  4> end
|  5>
|  6> * xyz 0 1
|  7> S 	 -106.101 	 51.7443 	 -82.7032
|  8> C 	 -104.649 	 52.5946 	 -82.3924
|  9> C 	 -103.572 	 51.9509 	 -82.9892
| 10> C 	 -103.876 	 50.8465 	 -83.7841
| 11> C 	 -105.244 	 50.5128 	 -83.6281
| 12> H 	 -103.18 	 50.2497 	 -84.3632
| 13> C 	 -102.112 	 52.229 	 -82.6121
| 14> H 	 -101.793 	 51.283 	 -82.3517
| 15> H 	 -101.976 	 52.795 	 -81.6806
| 16> C 	 -101.259 	 52.7763 	 -83.8304
| 17> H 	 -100.201 	 52.7589 	 -83.577
| 18> H 	 -101.284 	 52.1679 	 -84.6996
| 19> C 	 -101.714 	 54.2134 	 -84.1331
| 20> H 	 -101.052 	 54.52 	 -84.9322
| 21> H 	 -102.829 	 54.2753 	 -84.3027
| 22> H 	 -101.44 	 54.8565 	 -83.3182
| 23> S 	 -107.407 	 50.0502 	 -85.2363
| 24> C 	 -107.572 	 48.6429 	 -86.1429
| 25> C 	 -106.574 	 47.7205 	 -85.8053
| 26> C 	 -105.609 	 48.2377 	 -84.8623
| 27> C 	 -105.947 	 49.5403 	 -84.4614
| 28> H 	 -106.547 	 46.7545 	 -86.2345
| 29> C 	 -104.477 	 47.314 	 -84.3424
| 30> H 	 -103.593 	 47.8674 	 -84.0061
| 31> H 	 -104.182 	 46.6981 	 -85.2544
| 32> C 	 -105.015 	 46.3552 	 -83.2357
| 33> H 	 -104.19 	 45.6724 	 -83.011
| 34> H 	 -105.753 	 45.7235 	 -83.6774
| 35> C 	 -105.66 	 46.9685 	 -81.9816
| 36> H 	 -106.487 	 47.7075 	 -82.1834
| 37> H 	 -104.924 	 47.4291 	 -81.4138
| 38> H 	 -106.054 	 46.2499 	 -81.2985
| 39> H 	 -104.443 	 53.1951 	 -81.4924
| 40> H 	 -108.335 	 48.5219 	 -86.9451
| 41> *
| 42>
| 43>                          ****END OF INPUT****

CARTESIAN COORDINATES (ANGSTROEM)
---------------------------------
  S    -106.101000   51.744300  -82.703200
  C    -104.649000   52.594600  -82.392400
  C    -103.572000   51.950900  -82.989200
  C    -103.876000   50.846500  -83.784100
  C    -105.244000   50.512800  -83.628100
  H    -103.180000   50.249700  -84.363200
  C    -102.112000   52.229000  -82.612100
  H    -101.793000   51.283000  -82.351700
  H    -101.976000   52.795000  -81.680600
  C    -101.259000   52.776300  -83.830400
  H    -100.201000   52.758900  -83.577000
  H    -101.284000   52.167900  -84.699600
  C    -101.714000   54.213400  -84.133100
  H    -101.052000   54.520000  -84.932200
  H    -102.829000   54.275300  -84.302700
  H    -101.440000   54.856500  -83.318200
  S    -107.407000   50.050200  -85.236300
  C    -107.572000   48.642900  -86.142900
  C    -106.574000   47.720500  -85.805300
  C    -105.609000   48.237700  -84.862300
  C    -105.947000   49.540300  -84.461400
  H    -106.547000   46.754500  -86.234500
  C    -104.477000   47.314000  -84.342400
  H    -103.593000   47.867400  -84.006100
  H    -104.182000   46.698100  -85.254400
  C    -105.015000   46.355200  -83.235700
  H    -104.190000   45.672400  -83.011000
  H    -105.753000   45.723500  -83.677400
  C    -105.660000   46.968500  -81.981600
  H    -106.487000   47.707500  -82.183400
  H    -104.924000   47.429100  -81.413800
  H    -106.054000   46.249900  -81.298500
  H    -104.443000   53.195100  -81.492400
  H    -108.335000   48.521900  -86.945100

 Total Charge           Charge          ....    0
 Multiplicity           Mult            ....    1
 Number of Electrons    NEL             ....  134
 Basis Dimension        Dim             ....  322

ORBITAL ENERGIES
----------------

  NO   OCC          E(Eh)            E(eV)
   0   2.0000     -88.970223     -2421.0028
   1   2.0000     -88.964440     -2420.8455
   2   2.0000     -10.336050      -281.2582
   3   2.0000     -10.325864      -280.9811
   4   2.0000     -10.316461      -280.7252
   5   2.0000     -10.308266      -280.5022
   6   2.0000     -10.306695      -280.4594
   7   2.0000     -10.303432      -280.3706
   8   2.0000     -10.298649      -280.2405
   9   2.0000     -10.295672      -280.1595
  10   2.0000     -10.292633      -280.0768
  11   2.0000     -10.287405      -279.9345
  12   2.0000     -10.285353      -279.8787
  13   2.0000     -10.285099      -279.8718
  14   2.0000     -10.273093      -279.5451
  15   2.0000     -10.267905      -279.4039
  16   2.0000      -8.084969      -220.0032
  17   2.0000      -8.080783      -219.8893
  18   2.0000      -6.043492      -164.4518
  19   2.0000      -6.039342      -164.3389
  20   2.0000      -6.039171      -164.3342
  21   2.0000      -6.035866      -164.2443
  22   2.0000      -6.034826      -164.2160
  23   2.0000      -6.031802      -164.1337
  24   2.0000      -1.011047       -27.5120
  25   2.0000      -0.989250       -26.9189
  26   2.0000      -0.907018       -24.6812
  27   2.0000      -0.903761       -24.5926
  28   2.0000      -0.867342       -23.6016
  29   2.0000      -0.853168       -23.2159
  30   2.0000      -0.844513       -22.9804
  31   2.0000      -0.808750       -22.0072
  32   2.0000      -0.784044       -21.3349
  33   2.0000      -0.771190       -20.9852
  34   2.0000      -0.708145       -19.2696
  35   2.0000      -0.697094       -18.9689
  36   2.0000      -0.691367       -18.8130
  37   2.0000      -0.661799       -18.0085
  38   2.0000      -0.634930       -17.2773
  39   2.0000      -0.622140       -16.9293
  40   2.0000      -0.596249       -16.2248
  41   2.0000      -0.564395       -15.3580
  42   2.0000      -0.554155       -15.0793
  43   2.0000      -0.544425       -14.8146
  44   2.0000      -0.540756       -14.7147
  45   2.0000      -0.533647       -14.5213
  46   2.0000      -0.514134       -13.9903
  47   2.0000      -0.509148       -13.8546
  48   2.0000      -0.504119       -13.7178
  49   2.0000      -0.496392       -13.5075
  50   2.0000      -0.488697       -13.2981
  51   2.0000      -0.477726       -12.9996
  52   2.0000      -0.467255       -12.7147
  53   2.0000      -0.464851       -12.6493
  54   2.0000      -0.459238       -12.4965
  55   2.0000      -0.450846       -12.2681
  56   2.0000      -0.446211       -12.1420
  57   2.0000      -0.439919       -11.9708
  58   2.0000      -0.432466       -11.7680
  59   2.0000      -0.421414       -11.4673
  60   2.0000      -0.418641       -11.3918
  61   2.0000      -0.415500       -11.3063
  62   2.0000      -0.412268       -11.2184
  63   2.0000      -0.356193        -9.6925
  64   2.0000      -0.330453        -8.9921
  65   2.0000      -0.328629        -8.9425
  66   2.0000      -0.283925        -7.7260
  67   0.0000       0.026389         0.7181
  68   0.0000       0.071455         1.9444
  69   0.0000       0.109945         2.9917
  70   0.0000       0.116509         3.1704
  71   0.0000       0.137367         3.7379

MULLIKEN ATOMIC CHARGES
-----------------------
   0 S :    0.107635
   1 C :   -0.103556
   2 C :   -0.116584
   3 C :    0.018068
   4 C :   -0.137216
   5 H :    0.025432
   6 C :    0.073920
   7 H :    0.007032
   8 H :    0.021130
   9 C :   -0.076441
  10 H :    0.022260
  11 H :    0.022553
  12 C :   -0.046007
  13 H :    0.028481
  14 H :    0.062833
  15 H :    0.019008
  16 S :    0.120673
  17 C :   -0.109939
  18 C :   -0.031612
  19 C :   -0.061378
  20 C :   -0.154941
  21 H :    0.004564
  22 C :    0.053138
  23 H :    0.025426
  24 H :    0.038230
  25 C :   -0.063922
  26 H :    0.029057
  27 H :    0.015537
  28 C :   -0.020883
  29 H :    0.052987
  30 H :    0.011202
  31 H :    0.022136
  32 H :    0.064855
  33 H :    0.076322
Sum of atomic charges:   -0.0000000

LOEWDIN ATOMIC CHARGES
----------------------
   0 S :    0.419611
   1 C :   -0.234446
   2 C :   -0.058430
   3 C :   -0.059006
   4 C :   -0.180422
   5 H :    0.033098
   6 C :   -0.023809
   7 H :    0.017895
   8 H :    0.029512
   9 C :   -0.035786
  10 H :    0.022693
  11 H :    0.016545
  12 C :   -0.066696
  13 H :    0.025002
  14 H :    0.036749
  15 H :    0.019920
  16 S :    0.445471
  17 C :   -0.216729
  18 C :   -0.071400
  19 C :   -0.058997
  20 C :   -0.214478
  21 H :    0.022590
  22 C :   -0.029875
  23 H :    0.024649
  24 H :    0.040557
  25 C :   -0.038106
  26 H :    0.025299
  27 H :    0.017998
  28 C :   -0.063327
  29 H :    0.037079
  30 H :    0.015050
  31 H :    0.024844
  32 H :    0.037036
  33 H :    0.039907

  Mayer bond orders larger than 0.100000
B(  0-S ,  1-C ) :   1.1368 B(  0-S ,  4-C ) :   1.1776 B(  1-C ,  2-C ) :   1.5845
B(  1-C ,  4-C ) :   0.1036 B(  1-C , 32-H ) :   0.9540 B(  2-C ,  3-C ) :   1.2875
B(  2-C ,  6-C ) :   1.0045 B(  3-C ,  4-C ) :   1.5218 B(  3-C ,  5-H ) :   0.9858
B(  4-C , 20-C ) :   1.0435 B(  6-C ,  7-H ) :   0.9422 B(  6-C ,  8-H ) :   0.9528
B(  6-C ,  9-C ) :   1.0627 B(  9-C , 10-H ) :   0.9551 B(  9-C , 11-H ) :   0.9619
B(  9-C , 12-C ) :   1.0719 B( 12-C , 13-H ) :   0.9731 B( 12-C , 14-H ) :   0.9741
B( 12-C , 15-H ) :   0.9752 B( 16-S , 17-C ) :   1.1863 B( 16-S , 20-C ) :   1.1617
B( 17-C , 18-C ) :   1.5570 B( 17-C , 33-H ) :   0.9654 B( 18-C , 19-C ) :   1.2740
B( 18-C , 21-H ) :   0.9967 B( 19-C , 20-C ) :   1.5614 B( 19-C , 22-C ) :   1.0348
B( 22-C , 23-H ) :   0.9412 B( 22-C , 24-H ) :   0.9353 B( 22-C , 25-C ) :   1.0691
B( 25-C , 26-H ) :   0.9552 B( 25-C , 27-H ) :   0.9563 B( 25-C , 28-C ) :   1.0768
B( 28-C , 29-H ) :   0.9714 B( 28-C , 30-H ) :   0.9740 B( 28-C , 31-H ) :   0.9707

Dispersion correction           -0.014966757
FINAL SINGLE POINT ENERGY     -1339.873075614184

DIPOLE MOMENT
-------------
                                X             Y             Z
Electronic contribution:    -20.56702       4.50883      -4.68964
Nuclear contribution   :     21.15610      -4.94892       4.73353
                        -----------------------------------------
Total Dipole Moment    :      0.58908      -0.44010       0.04390
                        -----------------------------------------
Magnitude (a.u.)       :      0.73663
Magnitude (Debye)      :      1.87237

Rotational constants in cm-1:     0.020729     0.008319     0.007453
Rotational constants in MHz :   621.450539   249.383292   223.428939

                             ****ORCA TERMINATED NORMALLY****
TOTAL RUN TIME: 0 days 0 hours 0 minutes 20 seconds 762 msec
