                         Program Version 4.2.1 -  RELEASE  -
|  1> ! wB97X-D3 SP def2-SVP
|  2> %pal
|  3> nprocs 24
|  4> end
|  5>
|  6> * xyz 0 1
|  7> S 	 -30.3621 	 19.2699 	 4.96147
|  8> C 	 -31.1352 	 17.7219 	 4.59247
|  9> C 	 -31.2497 	 16.9374 	 5.70046
| 10> C 	 -30.9037 	 17.6889 	 6.86143
| 11> C 	 -30.2404 	 18.8915 	 6.66913
| 12> H 	 -30.9785 	 17.3019 	 7.87354
| 13> C 	 -31.9527 	 15.5844 	 5.78544
| 14> H 	 -32.978 	 15.7055 	 5.49061
| 15> H 	 -31.9727 	 15.1914 	 6.80983
| 16> C 	 -31.3366 	 14.47 	 5.03315
| 17> H 	 -31.1414 	 14.7952 	 3.9884
| 18> H 	 -30.351 	 14.1233 	 5.46807
| 19> C 	 -32.2026 	 13.1699 	 5.00799
| 20> H 	 -32.471 	 12.9306 	 6.06019
| 21> H 	 -33.2156 	 13.2497 	 4.49216
| 22> H 	 -31.7456 	 12.3434 	 4.4437
| 23> S 	 -30.2471 	 21.4268 	 7.71018
| 24> C 	 -29.1556 	 21.7821 	 8.9734
| 25> C 	 -28.4355 	 20.6985 	 9.42873
| 26> C 	 -28.6703 	 19.5019 	 8.61771
| 27> C 	 -29.6764 	 19.7897 	 7.65827
| 28> H 	 -27.7983 	 20.8743 	 10.3437
| 29> C 	 -28.1263 	 18.1517 	 8.8878
| 30> H 	 -27.1456 	 18.2943 	 9.32977
| 31> H 	 -27.9078 	 17.7204 	 7.93739
| 32> C 	 -28.867 	 17.2265 	 9.87478
| 33> H 	 -29.9348 	 17.3362 	 10.027
| 34> H 	 -28.5371 	 17.4841 	 10.8744
| 35> C 	 -28.3615 	 15.8186 	 9.6723
| 36> H 	 -29.018 	 15.1077 	 10.1771
| 37> H 	 -27.3347 	 15.8347 	 10.0976
| 38> H 	 -28.4023 	 15.6743 	 8.59817
| 39> H 	 -31.5201 	 17.5168 	 3.65738
| 40> H 	 -29.1445 	 22.7652 	 9.34365
| 41> *
| 42>
| 43>                          ****END OF INPUT****

CARTESIAN COORDINATES (ANGSTROEM)
---------------------------------
  S    -30.362100   19.269900    4.961470
  C    -31.135200   17.721900    4.592470
  C    -31.249700   16.937400    5.700460
  C    -30.903700   17.688900    6.861430
  C    -30.240400   18.891500    6.669130
  H    -30.978500   17.301900    7.873540
  C    -31.952700   15.584400    5.785440
  H    -32.978000   15.705500    5.490610
  H    -31.972700   15.191400    6.809830
  C    -31.336600   14.470000    5.033150
  H    -31.141400   14.795200    3.988400
  H    -30.351000   14.123300    5.468070
  C    -32.202600   13.169900    5.007990
  H    -32.471000   12.930600    6.060190
  H    -33.215600   13.249700    4.492160
  H    -31.745600   12.343400    4.443700
  S    -30.247100   21.426800    7.710180
  C    -29.155600   21.782100    8.973400
  C    -28.435500   20.698500    9.428730
  C    -28.670300   19.501900    8.617710
  C    -29.676400   19.789700    7.658270
  H    -27.798300   20.874300   10.343700
  C    -28.126300   18.151700    8.887800
  H    -27.145600   18.294300    9.329770
  H    -27.907800   17.720400    7.937390
  C    -28.867000   17.226500    9.874780
  H    -29.934800   17.336200   10.027000
  H    -28.537100   17.484100   10.874400
  C    -28.361500   15.818600    9.672300
  H    -29.018000   15.107700   10.177100
  H    -27.334700   15.834700   10.097600
  H    -28.402300   15.674300    8.598170
  H    -31.520100   17.516800    3.657380
  H    -29.144500   22.765200    9.343650

 Total Charge           Charge          ....    0
 Multiplicity           Mult            ....    1
 Number of Electrons    NEL             ....  134
 Basis Dimension        Dim             ....  322

ORBITAL ENERGIES
----------------

  NO   OCC          E(Eh)            E(eV)
   0   2.0000     -88.965901     -2420.8853
   1   2.0000     -88.962597     -2420.7953
   2   2.0000     -10.326268      -280.9920
   3   2.0000     -10.325114      -280.9606
   4   2.0000     -10.310851      -280.5725
   5   2.0000     -10.309927      -280.5474
   6   2.0000     -10.309531      -280.5366
   7   2.0000     -10.301394      -280.3152
   8   2.0000     -10.300197      -280.2826
   9   2.0000     -10.292023      -280.0602
  10   2.0000     -10.291024      -280.0330
  11   2.0000     -10.290643      -280.0226
  12   2.0000     -10.288435      -279.9626
  13   2.0000     -10.287550      -279.9385
  14   2.0000     -10.283029      -279.8154
  15   2.0000     -10.278886      -279.7027
  16   2.0000      -8.081930      -219.9205
  17   2.0000      -8.077140      -219.7901
  18   2.0000      -6.040181      -164.3617
  19   2.0000      -6.036276      -164.2554
  20   2.0000      -6.035642      -164.2382
  21   2.0000      -6.032870      -164.1628
  22   2.0000      -6.031649      -164.1295
  23   2.0000      -6.027940      -164.0286
  24   2.0000      -1.006894       -27.3990
  25   2.0000      -0.985175       -26.8080
  26   2.0000      -0.918316       -24.9886
  27   2.0000      -0.915776       -24.9195
  28   2.0000      -0.869877       -23.6705
  29   2.0000      -0.857800       -23.3419
  30   2.0000      -0.841617       -22.9016
  31   2.0000      -0.813011       -22.1231
  32   2.0000      -0.783215       -21.3124
  33   2.0000      -0.772042       -21.0083
  34   2.0000      -0.706040       -19.2123
  35   2.0000      -0.700224       -19.0541
  36   2.0000      -0.692932       -18.8556
  37   2.0000      -0.660536       -17.9741
  38   2.0000      -0.644695       -17.5430
  39   2.0000      -0.617249       -16.7962
  40   2.0000      -0.600473       -16.3397
  41   2.0000      -0.577834       -15.7237
  42   2.0000      -0.570318       -15.5191
  43   2.0000      -0.556739       -15.1496
  44   2.0000      -0.534459       -14.5434
  45   2.0000      -0.523562       -14.2468
  46   2.0000      -0.519104       -14.1255
  47   2.0000      -0.514510       -14.0005
  48   2.0000      -0.505411       -13.7529
  49   2.0000      -0.498505       -13.5650
  50   2.0000      -0.496008       -13.4971
  51   2.0000      -0.476675       -12.9710
  52   2.0000      -0.473163       -12.8754
  53   2.0000      -0.464365       -12.6360
  54   2.0000      -0.454441       -12.3660
  55   2.0000      -0.449324       -12.2267
  56   2.0000      -0.443961       -12.0808
  57   2.0000      -0.436286       -11.8719
  58   2.0000      -0.434332       -11.8188
  59   2.0000      -0.430217       -11.7068
  60   2.0000      -0.419126       -11.4050
  61   2.0000      -0.413661       -11.2563
  62   2.0000      -0.409880       -11.1534
  63   2.0000      -0.340125        -9.2553
  64   2.0000      -0.332275        -9.0417
  65   2.0000      -0.328291        -8.9333
  66   2.0000      -0.295260        -8.0344
  67   0.0000       0.030376         0.8266
  68   0.0000       0.072144         1.9631
  69   0.0000       0.114196         3.1074
  70   0.0000       0.122733         3.3397
  71   0.0000       0.124869         3.3979

MULLIKEN ATOMIC CHARGES
-----------------------
   0 S :    0.101462
   1 C :   -0.104386
   2 C :   -0.046622
   3 C :    0.029105
   4 C :   -0.157432
   5 H :   -0.002282
   6 C :    0.079018
   7 H :    0.034497
   8 H :    0.015417
   9 C :   -0.101903
  10 H :    0.028796
  11 H :    0.040855
  12 C :   -0.081061
  13 H :    0.031113
  14 H :    0.031276
  15 H :    0.045625
  16 S :    0.125901
  17 C :   -0.089288
  18 C :   -0.046341
  19 C :   -0.033782
  20 C :   -0.173502
  21 H :    0.041707
  22 C :    0.078539
  23 H :    0.013260
  24 H :    0.029039
  25 C :   -0.070060
  26 H :    0.033473
  27 H :    0.010675
  28 C :   -0.033687
  29 H :    0.035078
  30 H :    0.041408
  31 H :    0.031008
  32 H :    0.021961
  33 H :    0.041133
Sum of atomic charges:   -0.0000000

LOEWDIN ATOMIC CHARGES
----------------------
   0 S :    0.392957
   1 C :   -0.169386
   2 C :   -0.063135
   3 C :   -0.061715
   4 C :   -0.199305
   5 H :    0.026548
   6 C :   -0.032992
   7 H :    0.032279
   8 H :    0.031269
   9 C :   -0.046336
  10 H :    0.021085
  11 H :    0.031765
  12 C :   -0.077165
  13 H :    0.025179
  14 H :    0.027365
  15 H :    0.029253
  16 S :    0.433710
  17 C :   -0.190698
  18 C :   -0.079033
  19 C :   -0.043477
  20 C :   -0.211023
  21 H :    0.043783
  22 C :   -0.034667
  23 H :    0.034955
  24 H :    0.030459
  25 C :   -0.044054
  26 H :    0.018875
  27 H :    0.022148
  28 C :   -0.058534
  29 H :    0.026421
  30 H :    0.033046
  31 H :    0.022470
  32 H :    0.011400
  33 H :    0.016554

  Mayer bond orders larger than 0.100000
B(  0-S ,  1-C ) :   1.1450 B(  0-S ,  4-C ) :   1.1381 B(  1-C ,  2-C ) :   1.5940
B(  1-C , 32-H ) :   0.9802 B(  2-C ,  3-C ) :   1.2540 B(  2-C ,  6-C ) :   1.0149
B(  3-C ,  4-C ) :   1.5770 B(  3-C ,  5-H ) :   0.9876 B(  4-C , 20-C ) :   1.0536
B(  6-C ,  7-H ) :   0.9429 B(  6-C ,  8-H ) :   0.9395 B(  6-C ,  9-C ) :   1.0642
B(  9-C , 10-H ) :   0.9581 B(  9-C , 11-H ) :   0.9532 B(  9-C , 12-C ) :   1.0754
B( 12-C , 13-H ) :   0.9727 B( 12-C , 14-H ) :   0.9741 B( 12-C , 15-H ) :   0.9752
B( 16-S , 17-C ) :   1.1715 B( 16-S , 20-C ) :   1.1613 B( 17-C , 18-C ) :   1.6045
B( 17-C , 33-H ) :   0.9736 B( 18-C , 19-C ) :   1.2254 B( 18-C , 21-H ) :   0.9833
B( 19-C , 20-C ) :   1.5663 B( 19-C , 22-C ) :   1.0706 B( 22-C , 23-H ) :   0.9189
B( 22-C , 24-H ) :   0.9294 B( 22-C , 25-C ) :   1.0423 B( 25-C , 26-H ) :   0.9612
B( 25-C , 27-H ) :   0.9497 B( 25-C , 28-C ) :   1.0671 B( 28-C , 29-H ) :   0.9722
B( 28-C , 30-H ) :   0.9773 B( 28-C , 31-H ) :   0.9812

Dispersion correction           -0.014251075
FINAL SINGLE POINT ENERGY     -1339.874489178628

DIPOLE MOMENT
-------------
                                X             Y             Z
Electronic contribution:     -0.21609      31.99324      -6.45721
Nuclear contribution   :      0.19318     -32.46522       6.90070
                        -----------------------------------------
Total Dipole Moment    :     -0.02291      -0.47198       0.44349
                        -----------------------------------------
Magnitude (a.u.)       :      0.64805
Magnitude (Debye)      :      1.64721

Rotational constants in cm-1:     0.020011     0.008560     0.006359
Rotational constants in MHz :   599.913965   256.613922   190.635503

                             ****ORCA TERMINATED NORMALLY****
TOTAL RUN TIME: 0 days 0 hours 0 minutes 21 seconds 841 msec
