                         Program Version 4.2.1 -  RELEASE  -
|  1> ! wB97X-D3 SP def2-SVP
|  2> %pal
|  3> nprocs 24
|  4> end
|  5>
|  6> * xyz 0 1
|  7> S 	 -104.311 	 35.8222 	 -12.0206
|  8> C 	 -104.698 	 36.2765 	 -13.6836
|  9> C 	 -105.68 	 35.5181 	 -14.2349
| 10> C 	 -106.282 	 34.5929 	 -13.2631
| 11> C 	 -105.542 	 34.6236 	 -12.0433
| 12> H 	 -107.199 	 33.9863 	 -13.3672
| 13> C 	 -106.223 	 35.5441 	 -15.684
| 14> H 	 -106.664 	 34.6355 	 -15.8832
| 15> H 	 -105.541 	 35.6991 	 -16.4454
| 16> C 	 -107.258 	 36.6139 	 -15.878
| 17> H 	 -107.955 	 36.7336 	 -15.027
| 18> H 	 -106.747 	 37.4894 	 -15.7186
| 19> C 	 -108.11 	 36.4662 	 -17.1906
| 20> H 	 -108.569 	 35.4734 	 -17.1353
| 21> H 	 -108.904 	 37.177 	 -17.2013
| 22> H 	 -107.52 	 36.4699 	 -18.0795
| 23> S 	 -105.695 	 34.6064 	 -9.24003
| 24> C 	 -106.345 	 33.2379 	 -8.48043
| 25> C 	 -106.694 	 32.1772 	 -9.36468
| 26> C 	 -106.404 	 32.5457 	 -10.7342
| 27> C 	 -105.939 	 33.8803 	 -10.8652
| 28> H 	 -106.837 	 31.2239 	 -8.88303
| 29> C 	 -106.722 	 31.5286 	 -11.9231
| 30> H 	 -106.07 	 31.9422 	 -12.7515
| 31> H 	 -107.771 	 31.7274 	 -12.1328
| 32> C 	 -106.617 	 29.9695 	 -11.6909
| 33> H 	 -107.27 	 29.6076 	 -10.9002
| 34> H 	 -105.697 	 29.8073 	 -11.2402
| 35> C 	 -106.941 	 29.143 	 -12.9338
| 36> H 	 -107.925 	 29.3536 	 -13.297
| 37> H 	 -106.749 	 28.1012 	 -12.7612
| 38> H 	 -106.306 	 29.3915 	 -13.8123
| 39> H 	 -104.179 	 36.988 	 -14.3687
| 40> H 	 -106.312 	 33.091 	 -7.39934
| 41> *
| 42>
| 43>                          ****END OF INPUT****

CARTESIAN COORDINATES (ANGSTROEM)
---------------------------------
  S    -104.311000   35.822200  -12.020600
  C    -104.698000   36.276500  -13.683600
  C    -105.680000   35.518100  -14.234900
  C    -106.282000   34.592900  -13.263100
  C    -105.542000   34.623600  -12.043300
  H    -107.199000   33.986300  -13.367200
  C    -106.223000   35.544100  -15.684000
  H    -106.664000   34.635500  -15.883200
  H    -105.541000   35.699100  -16.445400
  C    -107.258000   36.613900  -15.878000
  H    -107.955000   36.733600  -15.027000
  H    -106.747000   37.489400  -15.718600
  C    -108.110000   36.466200  -17.190600
  H    -108.569000   35.473400  -17.135300
  H    -108.904000   37.177000  -17.201300
  H    -107.520000   36.469900  -18.079500
  S    -105.695000   34.606400   -9.240030
  C    -106.345000   33.237900   -8.480430
  C    -106.694000   32.177200   -9.364680
  C    -106.404000   32.545700  -10.734200
  C    -105.939000   33.880300  -10.865200
  H    -106.837000   31.223900   -8.883030
  C    -106.722000   31.528600  -11.923100
  H    -106.070000   31.942200  -12.751500
  H    -107.771000   31.727400  -12.132800
  C    -106.617000   29.969500  -11.690900
  H    -107.270000   29.607600  -10.900200
  H    -105.697000   29.807300  -11.240200
  C    -106.941000   29.143000  -12.933800
  H    -107.925000   29.353600  -13.297000
  H    -106.749000   28.101200  -12.761200
  H    -106.306000   29.391500  -13.812300
  H    -104.179000   36.988000  -14.368700
  H    -106.312000   33.091000   -7.399340

 Total Charge           Charge          ....    0
 Multiplicity           Mult            ....    1
 Number of Electrons    NEL             ....  134
 Basis Dimension        Dim             ....  322

ORBITAL ENERGIES
----------------

  NO   OCC          E(Eh)            E(eV)
   0   2.0000     -88.971955     -2421.0500
   1   2.0000     -88.968628     -2420.9594
   2   2.0000     -10.332702      -281.1671
   3   2.0000     -10.331221      -281.1268
   4   2.0000     -10.318506      -280.7808
   5   2.0000     -10.316203      -280.7182
   6   2.0000     -10.315364      -280.6953
   7   2.0000     -10.305502      -280.4270
   8   2.0000     -10.302997      -280.3588
   9   2.0000     -10.301656      -280.3223
  10   2.0000     -10.297139      -280.1994
  11   2.0000     -10.286846      -279.9193
  12   2.0000     -10.280514      -279.7470
  13   2.0000     -10.279746      -279.7261
  14   2.0000     -10.278908      -279.7033
  15   2.0000     -10.277404      -279.6624
  16   2.0000      -8.086606      -220.0477
  17   2.0000      -8.083515      -219.9636
  18   2.0000      -6.045246      -164.4995
  19   2.0000      -6.041947      -164.4097
  20   2.0000      -6.041186      -164.3890
  21   2.0000      -6.037951      -164.3010
  22   2.0000      -6.037185      -164.2801
  23   2.0000      -6.034420      -164.2049
  24   2.0000      -1.002971       -27.2922
  25   2.0000      -0.978922       -26.6378
  26   2.0000      -0.917187       -24.9579
  27   2.0000      -0.900883       -24.5143
  28   2.0000      -0.867600       -23.6086
  29   2.0000      -0.853595       -23.2275
  30   2.0000      -0.841017       -22.8852
  31   2.0000      -0.804874       -21.9017
  32   2.0000      -0.787855       -21.4386
  33   2.0000      -0.774412       -21.0728
  34   2.0000      -0.712816       -19.3967
  35   2.0000      -0.710674       -19.3384
  36   2.0000      -0.695130       -18.9154
  37   2.0000      -0.655632       -17.8407
  38   2.0000      -0.632502       -17.2113
  39   2.0000      -0.617879       -16.8133
  40   2.0000      -0.588086       -16.0026
  41   2.0000      -0.569718       -15.5028
  42   2.0000      -0.563639       -15.3374
  43   2.0000      -0.558391       -15.1946
  44   2.0000      -0.529004       -14.3949
  45   2.0000      -0.527210       -14.3461
  46   2.0000      -0.514392       -13.9973
  47   2.0000      -0.509663       -13.8686
  48   2.0000      -0.502954       -13.6861
  49   2.0000      -0.495868       -13.4932
  50   2.0000      -0.489039       -13.3074
  51   2.0000      -0.481168       -13.0932
  52   2.0000      -0.475620       -12.9423
  53   2.0000      -0.468614       -12.7516
  54   2.0000      -0.461087       -12.5468
  55   2.0000      -0.453380       -12.3371
  56   2.0000      -0.447266       -12.1707
  57   2.0000      -0.443984       -12.0814
  58   2.0000      -0.430220       -11.7069
  59   2.0000      -0.425504       -11.5786
  60   2.0000      -0.422022       -11.4838
  61   2.0000      -0.417846       -11.3702
  62   2.0000      -0.412225       -11.2172
  63   2.0000      -0.353095        -9.6082
  64   2.0000      -0.331934        -9.0324
  65   2.0000      -0.330738        -8.9999
  66   2.0000      -0.281834        -7.6691
  67   0.0000       0.022395         0.6094
  68   0.0000       0.077674         2.1136
  69   0.0000       0.100615         2.7379
  70   0.0000       0.117802         3.2055
  71   0.0000       0.135788         3.6950

MULLIKEN ATOMIC CHARGES
-----------------------
   0 S :    0.118344
   1 C :   -0.126659
   2 C :   -0.102532
   3 C :   -0.019661
   4 C :   -0.136917
   5 H :    0.037312
   6 C :    0.162243
   7 H :   -0.015165
   8 H :    0.003462
   9 C :   -0.082524
  10 H :    0.019634
  11 H :   -0.008236
  12 C :   -0.010669
  13 H :    0.025026
  14 H :    0.034724
  15 H :    0.028449
  16 S :    0.115112
  17 C :   -0.107943
  18 C :   -0.043199
  19 C :   -0.049997
  20 C :   -0.149731
  21 H :    0.028938
  22 C :    0.000362
  23 H :    0.053479
  24 H :    0.046584
  25 C :   -0.036569
  26 H :    0.025085
  27 H :    0.012594
  28 C :   -0.032201
  29 H :    0.026470
  30 H :    0.037540
  31 H :    0.026647
  32 H :    0.055214
  33 H :    0.064784
Sum of atomic charges:    0.0000000

LOEWDIN ATOMIC CHARGES
----------------------
   0 S :    0.411688
   1 C :   -0.209216
   2 C :   -0.050897
   3 C :   -0.066186
   4 C :   -0.199843
   5 H :    0.037436
   6 C :   -0.015236
   7 H :    0.015910
   8 H :    0.021523
   9 C :   -0.039237
  10 H :    0.026424
  11 H :    0.008495
  12 C :   -0.054510
  13 H :    0.027821
  14 H :    0.024709
  15 H :    0.020161
  16 S :    0.412296
  17 C :   -0.200943
  18 C :   -0.083792
  19 C :   -0.045037
  20 C :   -0.199141
  21 H :    0.032225
  22 C :   -0.034291
  23 H :    0.037992
  24 H :    0.030245
  25 C :   -0.038395
  26 H :    0.025631
  27 H :    0.014889
  28 C :   -0.060203
  29 H :    0.023014
  30 H :    0.027802
  31 H :    0.028640
  32 H :    0.039898
  33 H :    0.030132

  Mayer bond orders larger than 0.100000
B(  0-S ,  1-C ) :   1.1067 B(  0-S ,  4-C ) :   1.1536 B(  1-C ,  2-C ) :   1.6688
B(  1-C , 32-H ) :   0.9551 B(  2-C ,  3-C ) :   1.2129 B(  2-C ,  6-C ) :   1.0232
B(  3-C ,  4-C ) :   1.5476 B(  3-C ,  5-H ) :   0.9846 B(  4-C , 20-C ) :   1.0955
B(  6-C ,  7-H ) :   0.9357 B(  6-C ,  8-H ) :   0.9380 B(  6-C ,  9-C ) :   1.0523
B(  9-C , 10-H ) :   0.9554 B(  9-C , 11-H ) :   0.9541 B(  9-C , 12-C ) :   1.0664
B( 12-C , 13-H ) :   0.9746 B( 12-C , 14-H ) :   0.9764 B( 12-C , 15-H ) :   0.9774
B( 16-S , 17-C ) :   1.1909 B( 16-S , 20-C ) :   1.1244 B( 17-C , 18-C ) :   1.5857
B( 17-C , 33-H ) :   0.9610 B( 18-C , 19-C ) :   1.2558 B( 18-C , 21-H ) :   0.9859
B( 19-C , 20-C ) :   1.5707 B( 19-C , 22-C ) :   1.0197 B( 22-C , 23-H ) :   0.9360
B( 22-C , 24-H ) :   0.9402 B( 22-C , 25-C ) :   1.0563 B( 25-C , 26-H ) :   0.9459
B( 25-C , 27-H ) :   0.9585 B( 25-C , 28-C ) :   1.0838 B( 28-C , 29-H ) :   0.9748
B( 28-C , 30-H ) :   0.9731 B( 28-C , 31-H ) :   0.9751

Dispersion correction           -0.013309116
FINAL SINGLE POINT ENERGY     -1339.852828172789

DIPOLE MOMENT
-------------
                                X             Y             Z
Electronic contribution:     13.80591      13.13551      24.00417
Nuclear contribution   :    -14.06480     -13.57350     -24.39839
                        -----------------------------------------
Total Dipole Moment    :     -0.25889      -0.43800      -0.39422
                        -----------------------------------------
Magnitude (a.u.)       :      0.64364
Magnitude (Debye)      :      1.63600

Rotational constants in cm-1:     0.016072     0.008220     0.006015
Rotational constants in MHz :   481.831731   246.436634   180.331415

                             ****ORCA TERMINATED NORMALLY****
TOTAL RUN TIME: 0 days 0 hours 0 minutes 20 seconds 823 msec
