                         Program Version 4.2.1 -  RELEASE  -
|  1> ! wB97X-D3 SP def2-SVP
|  2> %pal
|  3> nprocs 24
|  4> end
|  5>
|  6> * xyz 0 1
|  7> S 	 -111.21 	 61.6558 	 -68.0791
|  8> C 	 -111.399 	 60.4002 	 -66.8465
|  9> C 	 -112.481 	 60.678 	 -65.9946
| 10> C 	 -113.103 	 61.8989 	 -66.2994
| 11> C 	 -112.501 	 62.5963 	 -67.3747
| 12> H 	 -113.959 	 62.4428 	 -65.8463
| 13> C 	 -112.9 	 59.6904 	 -64.9197
| 14> H 	 -112.045 	 59.0093 	 -64.9283
| 15> H 	 -113.651 	 58.9622 	 -65.2046
| 16> C 	 -113.165 	 60.1345 	 -63.4326
| 17> H 	 -112.266 	 60.5884 	 -63.0446
| 18> H 	 -113.841 	 60.985 	 -63.4888
| 19> C 	 -113.508 	 58.9295 	 -62.5057
| 20> H 	 -114.555 	 58.6111 	 -62.5413
| 21> H 	 -112.726 	 58.1517 	 -62.7417
| 22> H 	 -113.389 	 59.2095 	 -61.4445
| 23> S 	 -111.829 	 65.0745 	 -68.4622
| 24> C 	 -113.115 	 66.1104 	 -69.0549
| 25> C 	 -114.37 	 65.5293 	 -68.7468
| 26> C 	 -114.271 	 64.2698 	 -68.0937
| 27> C 	 -112.985 	 63.7694 	 -67.9894
| 28> H 	 -115.302 	 66.0522 	 -68.8168
| 29> C 	 -115.492 	 63.4594 	 -67.8251
| 30> H 	 -115.977 	 63.8644 	 -66.9856
| 31> H 	 -115.336 	 62.4205 	 -67.6189
| 32> C 	 -116.484 	 63.4835 	 -69.033
| 33> H 	 -116.724 	 64.4877 	 -69.4268
| 34> H 	 -117.49 	 63.1275 	 -68.7112
| 35> C 	 -115.989 	 62.6339 	 -70.1785
| 36> H 	 -115.602 	 61.7698 	 -69.8148
| 37> H 	 -115.117 	 63.0253 	 -70.7393
| 38> H 	 -116.836 	 62.3952 	 -70.8029
| 39> H 	 -110.766 	 59.5353 	 -66.8486
| 40> H 	 -113.051 	 67.0834 	 -69.5348
| 41> *
| 42>
| 43>                          ****END OF INPUT****

CARTESIAN COORDINATES (ANGSTROEM)
---------------------------------
  S    -111.210000   61.655800  -68.079100
  C    -111.399000   60.400200  -66.846500
  C    -112.481000   60.678000  -65.994600
  C    -113.103000   61.898900  -66.299400
  C    -112.501000   62.596300  -67.374700
  H    -113.959000   62.442800  -65.846300
  C    -112.900000   59.690400  -64.919700
  H    -112.045000   59.009300  -64.928300
  H    -113.651000   58.962200  -65.204600
  C    -113.165000   60.134500  -63.432600
  H    -112.266000   60.588400  -63.044600
  H    -113.841000   60.985000  -63.488800
  C    -113.508000   58.929500  -62.505700
  H    -114.555000   58.611100  -62.541300
  H    -112.726000   58.151700  -62.741700
  H    -113.389000   59.209500  -61.444500
  S    -111.829000   65.074500  -68.462200
  C    -113.115000   66.110400  -69.054900
  C    -114.370000   65.529300  -68.746800
  C    -114.271000   64.269800  -68.093700
  C    -112.985000   63.769400  -67.989400
  H    -115.302000   66.052200  -68.816800
  C    -115.492000   63.459400  -67.825100
  H    -115.977000   63.864400  -66.985600
  H    -115.336000   62.420500  -67.618900
  C    -116.484000   63.483500  -69.033000
  H    -116.724000   64.487700  -69.426800
  H    -117.490000   63.127500  -68.711200
  C    -115.989000   62.633900  -70.178500
  H    -115.602000   61.769800  -69.814800
  H    -115.117000   63.025300  -70.739300
  H    -116.836000   62.395200  -70.802900
  H    -110.766000   59.535300  -66.848600
  H    -113.051000   67.083400  -69.534800

 Total Charge           Charge          ....    0
 Multiplicity           Mult            ....    1
 Number of Electrons    NEL             ....  134
 Basis Dimension        Dim             ....  322

ORBITAL ENERGIES
----------------

  NO   OCC          E(Eh)            E(eV)
   0   2.0000     -88.969398     -2420.9804
   1   2.0000     -88.966314     -2420.8965
   2   2.0000     -10.328710      -281.0585
   3   2.0000     -10.325999      -280.9847
   4   2.0000     -10.325129      -280.9611
   5   2.0000     -10.318740      -280.7872
   6   2.0000     -10.308702      -280.5140
   7   2.0000     -10.300888      -280.3014
   8   2.0000     -10.299207      -280.2557
   9   2.0000     -10.294988      -280.1409
  10   2.0000     -10.292720      -280.0792
  11   2.0000     -10.290741      -280.0253
  12   2.0000     -10.290448      -280.0173
  13   2.0000     -10.286930      -279.9216
  14   2.0000     -10.284724      -279.8616
  15   2.0000     -10.261787      -279.2374
  16   2.0000      -8.083769      -219.9705
  17   2.0000      -8.080013      -219.8683
  18   2.0000      -6.042140      -164.4150
  19   2.0000      -6.038691      -164.3211
  20   2.0000      -6.038220      -164.3083
  21   2.0000      -6.034805      -164.2154
  22   2.0000      -6.034630      -164.2106
  23   2.0000      -6.030675      -164.1030
  24   2.0000      -1.005294       -27.3554
  25   2.0000      -0.979665       -26.6581
  26   2.0000      -0.911752       -24.8100
  27   2.0000      -0.906177       -24.6583
  28   2.0000      -0.871580       -23.7169
  29   2.0000      -0.852879       -23.2080
  30   2.0000      -0.843447       -22.9514
  31   2.0000      -0.811240       -22.0750
  32   2.0000      -0.785375       -21.3711
  33   2.0000      -0.770420       -20.9642
  34   2.0000      -0.714334       -19.4380
  35   2.0000      -0.701716       -19.0947
  36   2.0000      -0.696992       -18.9661
  37   2.0000      -0.658361       -17.9149
  38   2.0000      -0.647124       -17.6091
  39   2.0000      -0.617391       -16.8001
  40   2.0000      -0.600385       -16.3373
  41   2.0000      -0.567493       -15.4423
  42   2.0000      -0.560799       -15.2601
  43   2.0000      -0.557285       -15.1645
  44   2.0000      -0.537088       -14.6149
  45   2.0000      -0.522586       -14.2203
  46   2.0000      -0.518437       -14.1074
  47   2.0000      -0.506547       -13.7838
  48   2.0000      -0.504586       -13.7305
  49   2.0000      -0.501931       -13.6582
  50   2.0000      -0.492030       -13.3888
  51   2.0000      -0.477509       -12.9937
  52   2.0000      -0.471390       -12.8272
  53   2.0000      -0.464085       -12.6284
  54   2.0000      -0.459374       -12.5002
  55   2.0000      -0.450745       -12.2654
  56   2.0000      -0.443593       -12.0708
  57   2.0000      -0.435397       -11.8477
  58   2.0000      -0.432908       -11.7800
  59   2.0000      -0.426729       -11.6119
  60   2.0000      -0.420881       -11.4528
  61   2.0000      -0.415867       -11.3163
  62   2.0000      -0.408794       -11.1238
  63   2.0000      -0.349705        -9.5160
  64   2.0000      -0.336389        -9.1536
  65   2.0000      -0.328775        -8.9464
  66   2.0000      -0.283435        -7.7127
  67   0.0000       0.017364         0.4725
  68   0.0000       0.070749         1.9252
  69   0.0000       0.108950         2.9647
  70   0.0000       0.115217         3.1352
  71   0.0000       0.133912         3.6439

MULLIKEN ATOMIC CHARGES
-----------------------
   0 S :    0.115479
   1 C :   -0.124397
   2 C :   -0.053485
   3 C :    0.001886
   4 C :   -0.165779
   5 H :    0.032901
   6 C :    0.054341
   7 H :   -0.004073
   8 H :    0.035985
   9 C :   -0.064646
  10 H :    0.025135
  11 H :    0.028405
  12 C :   -0.072898
  13 H :    0.045810
  14 H :    0.046744
  15 H :    0.038258
  16 S :    0.097651
  17 C :   -0.083972
  18 C :   -0.033996
  19 C :   -0.050944
  20 C :   -0.135623
  21 H :    0.019425
  22 C :    0.074568
  23 H :    0.019509
  24 H :    0.030752
  25 C :   -0.111947
  26 H :    0.025562
  27 H :    0.022174
  28 C :    0.005083
  29 H :   -0.006416
  30 H :    0.042335
  31 H :    0.031609
  32 H :    0.048930
  33 H :    0.065634
Sum of atomic charges:   -0.0000000

LOEWDIN ATOMIC CHARGES
----------------------
   0 S :    0.411689
   1 C :   -0.188450
   2 C :   -0.061174
   3 C :   -0.067043
   4 C :   -0.198091
   5 H :    0.039877
   6 C :   -0.040740
   7 H :    0.027356
   8 H :    0.031569
   9 C :   -0.040695
  10 H :    0.023802
  11 H :    0.019819
  12 C :   -0.069902
  13 H :    0.027494
  14 H :    0.035983
  15 H :    0.030412
  16 S :    0.382596
  17 C :   -0.181916
  18 C :   -0.068436
  19 C :   -0.054515
  20 C :   -0.189814
  21 H :    0.028240
  22 C :   -0.028764
  23 H :    0.025979
  24 H :    0.028606
  25 C :   -0.038400
  26 H :    0.019981
  27 H :    0.024233
  28 C :   -0.060195
  29 H :    0.009381
  30 H :    0.034499
  31 H :    0.027742
  32 H :    0.023564
  33 H :    0.035312

  Mayer bond orders larger than 0.100000
B(  0-S ,  1-C ) :   1.1481 B(  0-S ,  4-C ) :   1.1636 B(  1-C ,  2-C ) :   1.5707
B(  1-C ,  4-C ) :   0.1115 B(  1-C , 32-H ) :   0.9706 B(  2-C ,  3-C ) :   1.2597
B(  2-C ,  6-C ) :   1.0209 B(  3-C ,  4-C ) :   1.5303 B(  3-C ,  5-H ) :   0.9882
B(  4-C , 20-C ) :   1.0920 B(  6-C ,  7-H ) :   0.9305 B(  6-C ,  8-H ) :   0.9391
B(  6-C ,  9-C ) :   1.0489 B(  9-C , 10-H ) :   0.9578 B(  9-C , 11-H ) :   0.9614
B(  9-C , 12-C ) :   1.0686 B( 12-C , 13-H ) :   0.9765 B( 12-C , 14-H ) :   0.9738
B( 12-C , 15-H ) :   0.9764 B( 16-S , 17-C ) :   1.1582 B( 16-S , 20-C ) :   1.1073
B( 17-C , 18-C ) :   1.5826 B( 17-C , 20-C ) :   0.1037 B( 17-C , 33-H ) :   0.9667
B( 18-C , 19-C ) :   1.2645 B( 18-C , 21-H ) :   0.9839 B( 19-C , 20-C ) :   1.5768
B( 19-C , 22-C ) :   1.0447 B( 22-C , 23-H ) :   0.9142 B( 22-C , 24-H ) :   0.9451
B( 22-C , 25-C ) :   1.0798 B( 25-C , 26-H ) :   0.9527 B( 25-C , 27-H ) :   0.9539
B( 25-C , 28-C ) :   1.0748 B( 28-C , 29-H ) :   0.9703 B( 28-C , 30-H ) :   0.9704
B( 28-C , 31-H ) :   0.9725

Dispersion correction           -0.014135026
FINAL SINGLE POINT ENERGY     -1339.868779727749

DIPOLE MOMENT
-------------
                                X             Y             Z
Electronic contribution:     19.41445      13.97548     -11.93402
Nuclear contribution   :    -20.02619     -14.19301      12.28043
                        -----------------------------------------
Total Dipole Moment    :     -0.61174      -0.21752       0.34641
                        -----------------------------------------
Magnitude (a.u.)       :      0.73590
Magnitude (Debye)      :      1.87050

Rotational constants in cm-1:     0.019923     0.007804     0.006696
Rotational constants in MHz :   597.263168   233.957656   200.739860

                             ****ORCA TERMINATED NORMALLY****
TOTAL RUN TIME: 0 days 0 hours 0 minutes 20 seconds 460 msec
