                         Program Version 4.2.1 -  RELEASE  -
|  1> ! wB97X-D3 SP def2-SVP
|  2> %pal
|  3> nprocs 24
|  4> end
|  5>
|  6> * xyz 0 1
|  7> S 	 42.4092 	 -20.4352 	 -114.068
|  8> C 	 42.312 	 -18.6737 	 -114.175
|  9> C 	 43.5406 	 -18.0947 	 -114.147
| 10> C 	 44.5978 	 -19.059 	 -113.956
| 11> C 	 44.154 	 -20.3635 	 -113.796
| 12> H 	 45.6447 	 -18.8996 	 -113.817
| 13> C 	 43.7872 	 -16.6118 	 -114.342
| 14> H 	 42.8388 	 -16.1396 	 -114.111
| 15> H 	 44.101 	 -16.4576 	 -115.417
| 16> C 	 44.756 	 -15.9201 	 -113.399
| 17> H 	 45.7803 	 -16.1575 	 -113.677
| 18> H 	 44.7367 	 -14.8115 	 -113.406
| 19> C 	 44.5303 	 -16.2246 	 -111.969
| 20> H 	 44.8803 	 -17.2063 	 -111.777
| 21> H 	 45.145 	 -15.6498 	 -111.317
| 22> H 	 43.4851 	 -16.0502 	 -111.737
| 23> S 	 45.3813 	 -22.5262 	 -114.747
| 24> C 	 46.3597 	 -23.506 	 -113.646
| 25> C 	 46.3899 	 -22.9869 	 -112.361
| 26> C 	 45.6009 	 -21.7905 	 -112.255
| 27> C 	 44.9655 	 -21.4835 	 -113.452
| 28> H 	 46.9139 	 -23.5366 	 -111.637
| 29> C 	 45.4524 	 -21.0461 	 -110.98
| 30> H 	 44.7087 	 -20.1695 	 -111.062
| 31> H 	 46.3794 	 -20.6119 	 -110.803
| 32> C 	 44.9796 	 -21.8928 	 -109.799
| 33> H 	 45.5284 	 -22.8217 	 -109.689
| 34> H 	 43.8867 	 -22.2576 	 -110.029
| 35> C 	 45.1345 	 -21.0736 	 -108.526
| 36> H 	 46.1775 	 -21.051 	 -108.171
| 37> H 	 44.6052 	 -21.6161 	 -107.789
| 38> H 	 44.7104 	 -20.1395 	 -108.534
| 39> H 	 41.3891 	 -18.057 	 -114.209
| 40> H 	 46.9504 	 -24.393 	 -113.962
| 41> *
| 42>
| 43>                          ****END OF INPUT****

CARTESIAN COORDINATES (ANGSTROEM)
---------------------------------
  S     42.409200  -20.435200  -114.068000
  C     42.312000  -18.673700  -114.175000
  C     43.540600  -18.094700  -114.147000
  C     44.597800  -19.059000  -113.956000
  C     44.154000  -20.363500  -113.796000
  H     45.644700  -18.899600  -113.817000
  C     43.787200  -16.611800  -114.342000
  H     42.838800  -16.139600  -114.111000
  H     44.101000  -16.457600  -115.417000
  C     44.756000  -15.920100  -113.399000
  H     45.780300  -16.157500  -113.677000
  H     44.736700  -14.811500  -113.406000
  C     44.530300  -16.224600  -111.969000
  H     44.880300  -17.206300  -111.777000
  H     45.145000  -15.649800  -111.317000
  H     43.485100  -16.050200  -111.737000
  S     45.381300  -22.526200  -114.747000
  C     46.359700  -23.506000  -113.646000
  C     46.389900  -22.986900  -112.361000
  C     45.600900  -21.790500  -112.255000
  C     44.965500  -21.483500  -113.452000
  H     46.913900  -23.536600  -111.637000
  C     45.452400  -21.046100  -110.980000
  H     44.708700  -20.169500  -111.062000
  H     46.379400  -20.611900  -110.803000
  C     44.979600  -21.892800  -109.799000
  H     45.528400  -22.821700  -109.689000
  H     43.886700  -22.257600  -110.029000
  C     45.134500  -21.073600  -108.526000
  H     46.177500  -21.051000  -108.171000
  H     44.605200  -21.616100  -107.789000
  H     44.710400  -20.139500  -108.534000
  H     41.389100  -18.057000  -114.209000
  H     46.950400  -24.393000  -113.962000

 Total Charge           Charge          ....    0
 Multiplicity           Mult            ....    1
 Number of Electrons    NEL             ....  134
 Basis Dimension        Dim             ....  322

ORBITAL ENERGIES
----------------

  NO   OCC          E(Eh)            E(eV)
   0   2.0000     -88.964003     -2420.8336
   1   2.0000     -88.963573     -2420.8219
   2   2.0000     -10.324870      -280.9540
   3   2.0000     -10.320351      -280.8310
   4   2.0000     -10.317435      -280.7517
   5   2.0000     -10.314678      -280.6767
   6   2.0000     -10.302009      -280.3319
   7   2.0000     -10.299494      -280.2635
   8   2.0000     -10.294861      -280.1374
   9   2.0000     -10.292721      -280.0792
  10   2.0000     -10.292034      -280.0605
  11   2.0000     -10.291234      -280.0387
  12   2.0000     -10.285685      -279.8877
  13   2.0000     -10.281306      -279.7685
  14   2.0000     -10.267777      -279.4004
  15   2.0000     -10.264791      -279.3192
  16   2.0000      -8.079282      -219.8484
  17   2.0000      -8.077823      -219.8087
  18   2.0000      -6.037670      -164.2934
  19   2.0000      -6.036450      -164.2602
  20   2.0000      -6.033738      -164.1863
  21   2.0000      -6.032459      -164.1516
  22   2.0000      -6.030106      -164.0875
  23   2.0000      -6.028426      -164.0418
  24   2.0000      -1.007251       -27.4087
  25   2.0000      -0.981741       -26.7145
  26   2.0000      -0.918604       -24.9965
  27   2.0000      -0.912683       -24.8354
  28   2.0000      -0.875178       -23.8148
  29   2.0000      -0.853256       -23.2183
  30   2.0000      -0.844888       -22.9906
  31   2.0000      -0.816496       -22.2180
  32   2.0000      -0.785136       -21.3646
  33   2.0000      -0.770768       -20.9737
  34   2.0000      -0.708906       -19.2903
  35   2.0000      -0.697445       -18.9784
  36   2.0000      -0.689200       -18.7541
  37   2.0000      -0.660349       -17.9690
  38   2.0000      -0.638696       -17.3798
  39   2.0000      -0.618482       -16.8298
  40   2.0000      -0.597720       -16.2648
  41   2.0000      -0.570317       -15.5191
  42   2.0000      -0.565499       -15.3880
  43   2.0000      -0.560420       -15.2498
  44   2.0000      -0.548029       -14.9126
  45   2.0000      -0.525260       -14.2931
  46   2.0000      -0.519538       -14.1374
  47   2.0000      -0.513979       -13.9861
  48   2.0000      -0.503834       -13.7100
  49   2.0000      -0.497559       -13.5393
  50   2.0000      -0.490627       -13.3506
  51   2.0000      -0.482373       -13.1260
  52   2.0000      -0.473057       -12.8725
  53   2.0000      -0.465837       -12.6761
  54   2.0000      -0.456239       -12.4149
  55   2.0000      -0.448697       -12.2097
  56   2.0000      -0.442617       -12.0442
  57   2.0000      -0.437176       -11.8962
  58   2.0000      -0.435631       -11.8541
  59   2.0000      -0.420676       -11.4472
  60   2.0000      -0.417885       -11.3712
  61   2.0000      -0.415847       -11.3158
  62   2.0000      -0.407712       -11.0944
  63   2.0000      -0.338756        -9.2180
  64   2.0000      -0.328501        -8.9390
  65   2.0000      -0.322711        -8.7814
  66   2.0000      -0.303518        -8.2591
  67   0.0000       0.044329         1.2062
  68   0.0000       0.058683         1.5968
  69   0.0000       0.120516         3.2794
  70   0.0000       0.124398         3.3850
  71   0.0000       0.127096         3.4584

MULLIKEN ATOMIC CHARGES
-----------------------
   0 S :    0.109279
   1 C :   -0.132923
   2 C :   -0.100820
   3 C :    0.064700
   4 C :   -0.191341
   5 H :    0.004568
   6 C :    0.092663
   7 H :    0.009776
   8 H :    0.061398
   9 C :   -0.106092
  10 H :    0.017505
  11 H :    0.031490
  12 C :    0.000926
  13 H :    0.014168
  14 H :    0.015342
  15 H :    0.026177
  16 S :    0.117702
  17 C :   -0.111299
  18 C :   -0.028255
  19 C :    0.009215
  20 C :   -0.189805
  21 H :    0.004055
  22 C :    0.075833
  23 H :    0.053122
  24 H :    0.010612
  25 C :   -0.139172
  26 H :    0.026901
  27 H :    0.048207
  28 C :    0.017266
  29 H :    0.034494
  30 H :    0.014234
  31 H :    0.014986
  32 H :    0.057302
  33 H :    0.067787
Sum of atomic charges:    0.0000000

LOEWDIN ATOMIC CHARGES
----------------------
   0 S :    0.385955
   1 C :   -0.195142
   2 C :   -0.068632
   3 C :   -0.054937
   4 C :   -0.194552
   5 H :    0.027579
   6 C :   -0.030563
   7 H :    0.027055
   8 H :    0.044982
   9 C :   -0.051138
  10 H :    0.017617
  11 H :    0.029499
  12 C :   -0.057200
  13 H :    0.018774
  14 H :    0.022271
  15 H :    0.025422
  16 S :    0.416670
  17 C :   -0.181285
  18 C :   -0.065557
  19 C :   -0.048005
  20 C :   -0.221383
  21 H :    0.024766
  22 C :   -0.036991
  23 H :    0.042875
  24 H :    0.021665
  25 C :   -0.040710
  26 H :    0.018566
  27 H :    0.036587
  28 C :   -0.056231
  29 H :    0.031350
  30 H :    0.023892
  31 H :    0.013803
  32 H :    0.037812
  33 H :    0.035187

  Mayer bond orders larger than 0.100000
B(  0-S ,  1-C ) :   1.1238 B(  0-S ,  4-C ) :   1.1323 B(  1-C ,  2-C ) :   1.6587
B(  1-C , 32-H ) :   0.9580 B(  2-C ,  3-C ) :   1.1916 B(  2-C ,  6-C ) :   1.0181
B(  3-C ,  4-C ) :   1.6125 B(  3-C ,  5-H ) :   0.9974 B(  4-C , 20-C ) :   1.0275
B(  6-C ,  7-H ) :   0.9372 B(  6-C ,  8-H ) :   0.9389 B(  6-C ,  9-C ) :   1.0704
B(  9-C , 10-H ) :   0.9475 B(  9-C , 11-H ) :   0.9603 B(  9-C , 12-C ) :   1.0948
B( 12-C , 13-H ) :   0.9643 B( 12-C , 14-H ) :   0.9667 B( 12-C , 15-H ) :   0.9737
B( 16-S , 17-C ) :   1.1524 B( 16-S , 20-C ) :   1.1558 B( 17-C , 18-C ) :   1.6258
B( 17-C , 33-H ) :   0.9621 B( 18-C , 19-C ) :   1.2079 B( 18-C , 21-H ) :   0.9998
B( 19-C , 20-C ) :   1.6053 B( 19-C , 22-C ) :   1.0459 B( 22-C , 23-H ) :   0.9320
B( 22-C , 24-H ) :   0.9238 B( 22-C , 25-C ) :   1.0599 B( 25-C , 26-H ) :   0.9559
B( 25-C , 27-H ) :   0.9542 B( 25-C , 28-C ) :   1.0842 B( 28-C , 29-H ) :   0.9717
B( 28-C , 30-H ) :   0.9678 B( 28-C , 31-H ) :   0.9723

Dispersion correction           -0.014792213
FINAL SINGLE POINT ENERGY     -1339.874784796940

DIPOLE MOMENT
-------------
                                X             Y             Z
Electronic contribution:     -5.35061     -17.24751     -21.32323
Nuclear contribution   :      5.73961      17.60204      21.84629
                        -----------------------------------------
Total Dipole Moment    :      0.38900       0.35453       0.52305
                        -----------------------------------------
Magnitude (a.u.)       :      0.74202
Magnitude (Debye)      :      1.88607

Rotational constants in cm-1:     0.016654     0.009687     0.007459
Rotational constants in MHz :   499.281424   290.402931   223.609555

                             ****ORCA TERMINATED NORMALLY****
TOTAL RUN TIME: 0 days 0 hours 0 minutes 22 seconds 159 msec
