                         Program Version 4.2.1 -  RELEASE  -
|  1> ! wB97X-D3 SP def2-SVP
|  2> %pal
|  3> nprocs 24
|  4> end
|  5>
|  6> * xyz 0 1
|  7> S 	 -34.7273 	 -30.3204 	 -96.9837
|  8> C 	 -33.152 	 -29.7755 	 -97.5968
|  9> C 	 -32.8384 	 -30.3045 	 -98.8857
| 10> C 	 -33.9731 	 -31.0209 	 -99.4218
| 11> C 	 -34.914 	 -31.3017 	 -98.4671
| 12> H 	 -33.9934 	 -31.469 	 -100.356
| 13> C 	 -31.5637 	 -29.9753 	 -99.6752
| 14> H 	 -30.7811 	 -30.5858 	 -99.3214
| 15> H 	 -31.3035 	 -28.9505 	 -99.3918
| 16> C 	 -31.7213 	 -30.0476 	 -101.191
| 17> H 	 -31.9613 	 -31.0691 	 -101.376
| 18> H 	 -32.5588 	 -29.3915 	 -101.481
| 19> C 	 -30.4865 	 -29.751 	 -102.064
| 20> H 	 -30.7425 	 -30.0405 	 -103.131
| 21> H 	 -30.3069 	 -28.6601 	 -102.22
| 22> H 	 -29.5679 	 -30.2384 	 -101.636
| 23> S 	 -37.6352 	 -31.1949 	 -98.7531
| 24> C 	 -38.5758 	 -32.5842 	 -98.4528
| 25> C 	 -37.7151 	 -33.7055 	 -98.6199
| 26> C 	 -36.3345 	 -33.4004 	 -98.8683
| 27> C 	 -36.1253 	 -32.0443 	 -98.6199
| 28> H 	 -37.9753 	 -34.7473 	 -98.4438
| 29> C 	 -35.3068 	 -34.3982 	 -98.9969
| 30> H 	 -34.3732 	 -33.9345 	 -99.3707
| 31> H 	 -35.5917 	 -35.1189 	 -99.7231
| 32> C 	 -34.9156 	 -35.0389 	 -97.6465
| 33> H 	 -35.7128 	 -35.6165 	 -97.2596
| 34> H 	 -34.681 	 -34.179 	 -96.965
| 35> C 	 -33.6154 	 -35.8951 	 -97.7146
| 36> H 	 -32.8574 	 -35.1574 	 -97.693
| 37> H 	 -33.4214 	 -36.5915 	 -98.506
| 38> H 	 -33.533 	 -36.4797 	 -96.7944
| 39> H 	 -32.4233 	 -29.173 	 -97.1121
| 40> H 	 -39.6053 	 -32.7014 	 -98.3984
| 41> *
| 42>
| 43>                          ****END OF INPUT****

CARTESIAN COORDINATES (ANGSTROEM)
---------------------------------
  S    -34.727300  -30.320400  -96.983700
  C    -33.152000  -29.775500  -97.596800
  C    -32.838400  -30.304500  -98.885700
  C    -33.973100  -31.020900  -99.421800
  C    -34.914000  -31.301700  -98.467100
  H    -33.993400  -31.469000  -100.356000
  C    -31.563700  -29.975300  -99.675200
  H    -30.781100  -30.585800  -99.321400
  H    -31.303500  -28.950500  -99.391800
  C    -31.721300  -30.047600  -101.191000
  H    -31.961300  -31.069100  -101.376000
  H    -32.558800  -29.391500  -101.481000
  C    -30.486500  -29.751000  -102.064000
  H    -30.742500  -30.040500  -103.131000
  H    -30.306900  -28.660100  -102.220000
  H    -29.567900  -30.238400  -101.636000
  S    -37.635200  -31.194900  -98.753100
  C    -38.575800  -32.584200  -98.452800
  C    -37.715100  -33.705500  -98.619900
  C    -36.334500  -33.400400  -98.868300
  C    -36.125300  -32.044300  -98.619900
  H    -37.975300  -34.747300  -98.443800
  C    -35.306800  -34.398200  -98.996900
  H    -34.373200  -33.934500  -99.370700
  H    -35.591700  -35.118900  -99.723100
  C    -34.915600  -35.038900  -97.646500
  H    -35.712800  -35.616500  -97.259600
  H    -34.681000  -34.179000  -96.965000
  C    -33.615400  -35.895100  -97.714600
  H    -32.857400  -35.157400  -97.693000
  H    -33.421400  -36.591500  -98.506000
  H    -33.533000  -36.479700  -96.794400
  H    -32.423300  -29.173000  -97.112100
  H    -39.605300  -32.701400  -98.398400

 Total Charge           Charge          ....    0
 Multiplicity           Mult            ....    1
 Number of Electrons    NEL             ....  134
 Basis Dimension        Dim             ....  322

ORBITAL ENERGIES
----------------

  NO   OCC          E(Eh)            E(eV)
   0   2.0000     -88.970727     -2421.0166
   1   2.0000     -88.961295     -2420.7599
   2   2.0000     -10.327425      -281.0235
   3   2.0000     -10.317601      -280.7562
   4   2.0000     -10.317292      -280.7478
   5   2.0000     -10.311090      -280.5790
   6   2.0000     -10.307976      -280.4943
   7   2.0000     -10.295537      -280.1558
   8   2.0000     -10.293297      -280.0949
   9   2.0000     -10.293033      -280.0877
  10   2.0000     -10.292768      -280.0805
  11   2.0000     -10.291998      -280.0595
  12   2.0000     -10.289033      -279.9788
  13   2.0000     -10.286421      -279.9078
  14   2.0000     -10.282433      -279.7992
  15   2.0000     -10.271750      -279.5085
  16   2.0000      -8.084071      -219.9788
  17   2.0000      -8.076903      -219.7837
  18   2.0000      -6.042603      -164.4276
  19   2.0000      -6.038864      -164.3258
  20   2.0000      -6.035350      -164.2302
  21   2.0000      -6.034776      -164.2146
  22   2.0000      -6.031295      -164.1199
  23   2.0000      -6.027655      -164.0208
  24   2.0000      -1.007638       -27.4192
  25   2.0000      -0.978913       -26.6376
  26   2.0000      -0.914699       -24.8902
  27   2.0000      -0.912753       -24.8373
  28   2.0000      -0.866964       -23.5913
  29   2.0000      -0.851449       -23.1691
  30   2.0000      -0.845874       -23.0174
  31   2.0000      -0.812225       -22.1018
  32   2.0000      -0.783169       -21.3111
  33   2.0000      -0.770336       -20.9619
  34   2.0000      -0.712519       -19.3886
  35   2.0000      -0.700723       -19.0676
  36   2.0000      -0.689869       -18.7723
  37   2.0000      -0.660044       -17.9607
  38   2.0000      -0.643392       -17.5076
  39   2.0000      -0.622153       -16.9297
  40   2.0000      -0.598902       -16.2970
  41   2.0000      -0.578296       -15.7362
  42   2.0000      -0.570069       -15.5124
  43   2.0000      -0.560369       -15.2484
  44   2.0000      -0.529199       -14.4002
  45   2.0000      -0.522812       -14.2264
  46   2.0000      -0.518488       -14.1088
  47   2.0000      -0.507693       -13.8150
  48   2.0000      -0.503168       -13.6919
  49   2.0000      -0.502545       -13.6750
  50   2.0000      -0.493901       -13.4397
  51   2.0000      -0.478857       -13.0303
  52   2.0000      -0.470333       -12.7984
  53   2.0000      -0.464936       -12.6515
  54   2.0000      -0.457447       -12.4478
  55   2.0000      -0.453642       -12.3442
  56   2.0000      -0.440989       -11.9999
  57   2.0000      -0.437476       -11.9043
  58   2.0000      -0.432886       -11.7794
  59   2.0000      -0.426649       -11.6097
  60   2.0000      -0.421391       -11.4666
  61   2.0000      -0.418816       -11.3966
  62   2.0000      -0.414668       -11.2837
  63   2.0000      -0.340539        -9.2665
  64   2.0000      -0.325171        -8.8484
  65   2.0000      -0.318267        -8.6605
  66   2.0000      -0.293065        -7.9747
  67   0.0000       0.026865         0.7310
  68   0.0000       0.058914         1.6031
  69   0.0000       0.108830         2.9614
  70   0.0000       0.112295         3.0557
  71   0.0000       0.128492         3.4964

MULLIKEN ATOMIC CHARGES
-----------------------
   0 S :    0.123033
   1 C :   -0.098293
   2 C :   -0.131998
   3 C :    0.071269
   4 C :   -0.174202
   5 H :   -0.005375
   6 C :    0.107685
   7 H :    0.025738
   8 H :    0.021025
   9 C :   -0.114421
  10 H :    0.031564
  11 H :    0.042186
  12 C :   -0.064463
  13 H :    0.043367
  14 H :    0.036674
  15 H :    0.047314
  16 S :    0.126942
  17 C :   -0.050635
  18 C :   -0.069539
  19 C :   -0.002636
  20 C :   -0.196083
  21 H :    0.017076
  22 C :    0.087377
  23 H :    0.009123
  24 H :    0.019815
  25 C :   -0.090079
  26 H :    0.020489
  27 H :    0.043510
  28 C :   -0.027602
  29 H :    0.023175
  30 H :    0.030513
  31 H :    0.029516
  32 H :    0.031642
  33 H :    0.036293
Sum of atomic charges:    0.0000000

LOEWDIN ATOMIC CHARGES
----------------------
   0 S :    0.391890
   1 C :   -0.190192
   2 C :   -0.052726
   3 C :   -0.047546
   4 C :   -0.184300
   5 H :    0.020738
   6 C :   -0.029956
   7 H :    0.025707
   8 H :    0.030843
   9 C :   -0.046264
  10 H :    0.019183
  11 H :    0.031098
  12 C :   -0.073990
  13 H :    0.036284
  14 H :    0.027098
  15 H :    0.031643
  16 S :    0.432496
  17 C :   -0.198883
  18 C :   -0.069186
  19 C :   -0.054161
  20 C :   -0.212927
  21 H :    0.025720
  22 C :   -0.039045
  23 H :    0.031964
  24 H :    0.028468
  25 C :   -0.025858
  26 H :    0.012303
  27 H :    0.035472
  28 C :   -0.065422
  29 H :    0.021496
  30 H :    0.020684
  31 H :    0.029113
  32 H :    0.019622
  33 H :    0.018632

  Mayer bond orders larger than 0.100000
B(  0-S ,  1-C ) :   1.1359 B(  0-S ,  4-C ) :   1.1285 B(  1-C ,  2-C ) :   1.6274
B(  1-C ,  4-C ) :   0.1032 B(  1-C , 32-H ) :   0.9691 B(  2-C ,  3-C ) :   1.2304
B(  2-C ,  6-C ) :   1.0030 B(  3-C ,  4-C ) :   1.5944 B(  3-C ,  5-H ) :   0.9921
B(  4-C , 20-C ) :   1.0446 B(  6-C ,  7-H ) :   0.9248 B(  6-C ,  8-H ) :   0.9413
B(  6-C ,  9-C ) :   1.0908 B(  9-C , 10-H ) :   0.9453 B(  9-C , 11-H ) :   0.9559
B(  9-C , 12-C ) :   1.0839 B( 12-C , 13-H ) :   0.9722 B( 12-C , 14-H ) :   0.9749
B( 12-C , 15-H ) :   0.9721 B( 16-S , 17-C ) :   1.1606 B( 16-S , 20-C ) :   1.1722
B( 17-C , 18-C ) :   1.5582 B( 17-C , 20-C ) :   0.1116 B( 17-C , 33-H ) :   0.9824
B( 18-C , 19-C ) :   1.2586 B( 18-C , 21-H ) :   0.9855 B( 19-C , 20-C ) :   1.5296
B( 19-C , 22-C ) :   1.0990 B( 22-C , 23-H ) :   0.9211 B( 22-C , 24-H ) :   0.9132
B( 22-C , 25-C ) :   1.0601 B( 25-C , 26-H ) :   0.9610 B( 25-C , 27-H ) :   0.9589
B( 25-C , 28-C ) :   1.0702 B( 28-C , 29-H ) :   0.9789 B( 28-C , 30-H ) :   0.9786
B( 28-C , 31-H ) :   0.9740

Dispersion correction           -0.014108183
FINAL SINGLE POINT ENERGY     -1339.853762640812

DIPOLE MOMENT
-------------
                                X             Y             Z
Electronic contribution:    -22.45177      11.15836      10.67421
Nuclear contribution   :     22.98883     -11.47608     -11.01289
                        -----------------------------------------
Total Dipole Moment    :      0.53707      -0.31772      -0.33868
                        -----------------------------------------
Magnitude (a.u.)       :      0.70999
Magnitude (Debye)      :      1.80466

Rotational constants in cm-1:     0.017484     0.008340     0.007148
Rotational constants in MHz :   524.159217   250.040360   214.302488

                             ****ORCA TERMINATED NORMALLY****
TOTAL RUN TIME: 0 days 0 hours 0 minutes 21 seconds 406 msec
