                         Program Version 4.2.1 -  RELEASE  -
|  1> ! wB97X-D3 SP def2-SVP
|  2> %pal
|  3> nprocs 24
|  4> end
|  5>
|  6> * xyz 0 1
|  7> S 	 -106.889 	 1.31919 	 -110.095
|  8> C 	 -107.558 	 2.9328 	 -110.076
|  9> C 	 -106.522 	 3.80869 	 -109.795
| 10> C 	 -105.402 	 3.15124 	 -109.251
| 11> C 	 -105.382 	 1.75918 	 -109.329
| 12> H 	 -104.599 	 3.62985 	 -108.717
| 13> C 	 -106.517 	 5.32946 	 -109.865
| 14> H 	 -107.289 	 5.79831 	 -110.56
| 15> H 	 -105.528 	 5.48459 	 -110.312
| 16> C 	 -106.572 	 6.10085 	 -108.546
| 17> H 	 -107.423 	 5.77767 	 -107.953
| 18> H 	 -105.783 	 5.88771 	 -107.875
| 19> C 	 -106.352 	 7.64718 	 -108.656
| 20> H 	 -106.457 	 8.11618 	 -107.704
| 21> H 	 -105.34 	 7.75819 	 -108.919
| 22> H 	 -106.948 	 8.09244 	 -109.452
| 23> S 	 -104.711 	 0.742414 	 -106.894
| 24> C 	 -103.641 	 -0.652074 	 -106.801
| 25> C 	 -103.304 	 -1.11727 	 -108.042
| 26> C 	 -103.823 	 -0.26167 	 -109.126
| 27> C 	 -104.574 	 0.769419 	 -108.653
| 28> H 	 -102.714 	 -1.97823 	 -108.162
| 29> C 	 -103.507 	 -0.601825 	 -110.574
| 30> H 	 -104.258 	 -0.213353 	 -111.269
| 31> H 	 -103.593 	 -1.68491 	 -110.482
| 32> C 	 -102.088 	 -0.161385 	 -111.074
| 33> H 	 -101.854 	 -0.610161 	 -111.971
| 34> H 	 -101.47 	 -0.448167 	 -110.249
| 35> C 	 -101.983 	 1.40963 	 -111.349
| 36> H 	 -102.528 	 1.63158 	 -112.274
| 37> H 	 -100.898 	 1.57879 	 -111.493
| 38> H 	 -102.274 	 1.91961 	 -110.43
| 39> H 	 -108.563 	 3.31154 	 -110.313
| 40> H 	 -103.394 	 -1.16018 	 -105.863
| 41> *
| 42>
| 43>                          ****END OF INPUT****

CARTESIAN COORDINATES (ANGSTROEM)
---------------------------------
  S    -106.889000    1.319190  -110.095000
  C    -107.558000    2.932800  -110.076000
  C    -106.522000    3.808690  -109.795000
  C    -105.402000    3.151240  -109.251000
  C    -105.382000    1.759180  -109.329000
  H    -104.599000    3.629850  -108.717000
  C    -106.517000    5.329460  -109.865000
  H    -107.289000    5.798310  -110.560000
  H    -105.528000    5.484590  -110.312000
  C    -106.572000    6.100850  -108.546000
  H    -107.423000    5.777670  -107.953000
  H    -105.783000    5.887710  -107.875000
  C    -106.352000    7.647180  -108.656000
  H    -106.457000    8.116180  -107.704000
  H    -105.340000    7.758190  -108.919000
  H    -106.948000    8.092440  -109.452000
  S    -104.711000    0.742414  -106.894000
  C    -103.641000   -0.652074  -106.801000
  C    -103.304000   -1.117270  -108.042000
  C    -103.823000   -0.261670  -109.126000
  C    -104.574000    0.769419  -108.653000
  H    -102.714000   -1.978230  -108.162000
  C    -103.507000   -0.601825  -110.574000
  H    -104.258000   -0.213353  -111.269000
  H    -103.593000   -1.684910  -110.482000
  C    -102.088000   -0.161385  -111.074000
  H    -101.854000   -0.610161  -111.971000
  H    -101.470000   -0.448167  -110.249000
  C    -101.983000    1.409630  -111.349000
  H    -102.528000    1.631580  -112.274000
  H    -100.898000    1.578790  -111.493000
  H    -102.274000    1.919610  -110.430000
  H    -108.563000    3.311540  -110.313000
  H    -103.394000   -1.160180  -105.863000

 Total Charge           Charge          ....    0
 Multiplicity           Mult            ....    1
 Number of Electrons    NEL             ....  134
 Basis Dimension        Dim             ....  322

ORBITAL ENERGIES
----------------

  NO   OCC          E(Eh)            E(eV)
   0   2.0000     -88.963369     -2420.8163
   1   2.0000     -88.962858     -2420.8024
   2   2.0000     -10.327482      -281.0251
   3   2.0000     -10.325272      -280.9649
   4   2.0000     -10.320301      -280.8297
   5   2.0000     -10.317643      -280.7574
   6   2.0000     -10.305263      -280.4205
   7   2.0000     -10.300739      -280.2974
   8   2.0000     -10.299005      -280.2502
   9   2.0000     -10.294613      -280.1307
  10   2.0000     -10.292237      -280.0660
  11   2.0000     -10.291139      -280.0361
  12   2.0000     -10.282185      -279.7925
  13   2.0000     -10.281402      -279.7712
  14   2.0000     -10.279160      -279.7102
  15   2.0000     -10.274929      -279.5950
  16   2.0000      -8.077988      -219.8132
  17   2.0000      -8.077495      -219.7998
  18   2.0000      -6.036644      -164.2654
  19   2.0000      -6.036094      -164.2505
  20   2.0000      -6.032564      -164.1544
  21   2.0000      -6.031857      -164.1352
  22   2.0000      -6.028533      -164.0447
  23   2.0000      -6.028278      -164.0378
  24   2.0000      -1.007723       -27.4215
  25   2.0000      -0.984551       -26.7910
  26   2.0000      -0.909894       -24.7595
  27   2.0000      -0.901892       -24.5417
  28   2.0000      -0.872698       -23.7473
  29   2.0000      -0.847530       -23.0625
  30   2.0000      -0.841928       -22.9100
  31   2.0000      -0.814722       -22.1697
  32   2.0000      -0.782437       -21.2912
  33   2.0000      -0.771622       -20.9969
  34   2.0000      -0.708099       -19.2684
  35   2.0000      -0.702565       -19.1178
  36   2.0000      -0.691675       -18.8214
  37   2.0000      -0.666825       -18.1452
  38   2.0000      -0.638477       -17.3738
  39   2.0000      -0.619296       -16.8519
  40   2.0000      -0.595731       -16.2107
  41   2.0000      -0.571190       -15.5429
  42   2.0000      -0.560081       -15.2406
  43   2.0000      -0.557296       -15.1648
  44   2.0000      -0.544388       -14.8135
  45   2.0000      -0.529303       -14.4031
  46   2.0000      -0.513680       -13.9779
  47   2.0000      -0.506631       -13.7861
  48   2.0000      -0.504539       -13.7292
  49   2.0000      -0.493227       -13.4214
  50   2.0000      -0.491562       -13.3761
  51   2.0000      -0.478113       -13.0101
  52   2.0000      -0.475601       -12.9418
  53   2.0000      -0.466408       -12.6916
  54   2.0000      -0.462240       -12.5782
  55   2.0000      -0.450330       -12.2541
  56   2.0000      -0.444653       -12.0996
  57   2.0000      -0.437763       -11.9121
  58   2.0000      -0.430219       -11.7068
  59   2.0000      -0.422903       -11.5078
  60   2.0000      -0.414066       -11.2673
  61   2.0000      -0.411929       -11.2092
  62   2.0000      -0.408481       -11.1153
  63   2.0000      -0.339361        -9.2345
  64   2.0000      -0.330552        -8.9948
  65   2.0000      -0.325108        -8.8466
  66   2.0000      -0.301231        -8.1969
  67   0.0000       0.039351         1.0708
  68   0.0000       0.056482         1.5370
  69   0.0000       0.104453         2.8423
  70   0.0000       0.113801         3.0967
  71   0.0000       0.129365         3.5202

MULLIKEN ATOMIC CHARGES
-----------------------
   0 S :    0.111114
   1 C :   -0.124279
   2 C :   -0.067011
   3 C :    0.001012
   4 C :   -0.150435
   5 H :    0.008765
   6 C :    0.038379
   7 H :    0.037075
   8 H :    0.030874
   9 C :   -0.075764
  10 H :    0.026320
  11 H :    0.011052
  12 C :   -0.019110
  13 H :    0.034741
  14 H :    0.015051
  15 H :    0.030180
  16 S :    0.108470
  17 C :   -0.092328
  18 C :   -0.015869
  19 C :   -0.062614
  20 C :   -0.149670
  21 H :    0.005450
  22 C :    0.065449
  23 H :    0.021494
  24 H :    0.029812
  25 C :   -0.039793
  26 H :    0.020843
  27 H :    0.019665
  28 C :   -0.066529
  29 H :    0.045692
  30 H :    0.036539
  31 H :    0.044037
  32 H :    0.056290
  33 H :    0.065099
Sum of atomic charges:    0.0000000

LOEWDIN ATOMIC CHARGES
----------------------
   0 S :    0.412243
   1 C :   -0.197651
   2 C :   -0.070822
   3 C :   -0.060658
   4 C :   -0.203187
   5 H :    0.027700
   6 C :   -0.036839
   7 H :    0.036059
   8 H :    0.035648
   9 C :   -0.044606
  10 H :    0.021561
  11 H :    0.018599
  12 C :   -0.053301
  13 H :    0.026771
  14 H :    0.019589
  15 H :    0.021909
  16 S :    0.392875
  17 C :   -0.175852
  18 C :   -0.066997
  19 C :   -0.052644
  20 C :   -0.201460
  21 H :    0.023525
  22 C :   -0.032055
  23 H :    0.025114
  24 H :    0.033481
  25 C :   -0.023925
  26 H :    0.012094
  27 H :    0.019065
  28 C :   -0.061667
  29 H :    0.027799
  30 H :    0.028566
  31 H :    0.026063
  32 H :    0.038866
  33 H :    0.034137

  Mayer bond orders larger than 0.100000
B(  0-S ,  1-C ) :   1.1543 B(  0-S ,  4-C ) :   1.1455 B(  1-C ,  2-C ) :   1.5831
B(  1-C ,  4-C ) :   0.1019 B(  1-C , 32-H ) :   0.9694 B(  2-C ,  3-C ) :   1.2428
B(  2-C ,  6-C ) :   1.0184 B(  3-C ,  4-C ) :   1.5687 B(  3-C ,  5-H ) :   1.0012
B(  4-C , 20-C ) :   1.0333 B(  6-C ,  7-H ) :   0.9472 B(  6-C ,  8-H ) :   0.9365
B(  6-C ,  9-C ) :   1.0663 B(  9-C , 10-H ) :   0.9577 B(  9-C , 11-H ) :   0.9539
B(  9-C , 12-C ) :   1.0689 B( 12-C , 13-H ) :   0.9743 B( 12-C , 14-H ) :   0.9771
B( 12-C , 15-H ) :   0.9787 B( 16-S , 17-C ) :   1.1399 B( 16-S , 20-C ) :   1.1167
B( 17-C , 18-C ) :   1.6486 B( 17-C , 33-H ) :   0.9641 B( 18-C , 19-C ) :   1.1947
B( 18-C , 21-H ) :   0.9939 B( 19-C , 20-C ) :   1.6445 B( 19-C , 22-C ) :   1.0348
B( 22-C , 23-H ) :   0.9344 B( 22-C , 24-H ) :   0.9331 B( 22-C , 25-C ) :   1.0666
B( 25-C , 26-H ) :   0.9590 B( 25-C , 27-H ) :   0.9586 B( 25-C , 28-C ) :   1.0745
B( 28-C , 29-H ) :   0.9771 B( 28-C , 30-H ) :   0.9759 B( 28-C , 31-H ) :   0.9780

Dispersion correction           -0.014459733
FINAL SINGLE POINT ENERGY     -1339.864626750286

DIPOLE MOMENT
-------------
                                X             Y             Z
Electronic contribution:     -8.87028     -17.04738       8.47136
Nuclear contribution   :      9.16332      17.22886      -8.50445
                        -----------------------------------------
Total Dipole Moment    :      0.29304       0.18147      -0.03309
                        -----------------------------------------
Magnitude (a.u.)       :      0.34626
Magnitude (Debye)      :      0.88013

Rotational constants in cm-1:     0.020178     0.007670     0.007128
Rotational constants in MHz :   604.933318   229.949215   213.682302

                             ****ORCA TERMINATED NORMALLY****
TOTAL RUN TIME: 0 days 0 hours 0 minutes 20 seconds 260 msec
