                         Program Version 4.2.1 -  RELEASE  -
|  1> ! wB97X-D3 SP def2-SVP
|  2> %pal
|  3> nprocs 24
|  4> end
|  5>
|  6> * xyz 0 1
|  7> S 	 -142.235 	 25.9658 	 -21.4213
|  8> C 	 -143.804 	 25.3016 	 -21.5202
|  9> C 	 -144.35 	 25.2616 	 -20.2636
| 10> C 	 -143.539 	 25.8915 	 -19.2308
| 11> C 	 -142.358 	 26.3835 	 -19.7275
| 12> H 	 -143.733 	 26.1015 	 -18.1585
| 13> C 	 -145.756 	 24.9203 	 -19.9247
| 14> H 	 -145.659 	 23.9458 	 -19.3516
| 15> H 	 -146.291 	 24.5205 	 -20.8021
| 16> C 	 -146.659 	 25.8503 	 -19.0689
| 17> H 	 -146.109 	 26.1499 	 -18.2087
| 18> H 	 -146.819 	 26.7731 	 -19.7547
| 19> C 	 -147.957 	 25.1759 	 -18.5784
| 20> H 	 -148.354 	 25.6825 	 -17.7158
| 21> H 	 -148.671 	 25.1414 	 -19.3691
| 22> H 	 -147.777 	 24.1215 	 -18.156
| 23> S 	 -140.123 	 27.8437 	 -20.2274
| 24> C 	 -139.259 	 28.6025 	 -19.0186
| 25> C 	 -139.851 	 28.4398 	 -17.7742
| 26> C 	 -140.961 	 27.5726 	 -17.8019
| 27> C 	 -141.191 	 27.058 	 -19.057
| 28> H 	 -139.46 	 28.8853 	 -16.9002
| 29> C 	 -141.879 	 27.4187 	 -16.6171
| 30> H 	 -141.27 	 27.4688 	 -15.6982
| 31> H 	 -142.281 	 26.4458 	 -16.6869
| 32> C 	 -143.03 	 28.4858 	 -16.5308
| 33> H 	 -143.51 	 28.6506 	 -17.5167
| 34> H 	 -142.592 	 29.3852 	 -16.2688
| 35> C 	 -144.073 	 28.2148 	 -15.5325
| 36> H 	 -143.868 	 28.5291 	 -14.5289
| 37> H 	 -144.438 	 27.1799 	 -15.4689
| 38> H 	 -144.9 	 28.8175 	 -15.7833
| 39> H 	 -144.223 	 24.911 	 -22.4334
| 40> H 	 -138.36 	 29.1649 	 -19.1734
| 41> *
| 42>
| 43>                          ****END OF INPUT****

CARTESIAN COORDINATES (ANGSTROEM)
---------------------------------
  S    -142.235000   25.965800  -21.421300
  C    -143.804000   25.301600  -21.520200
  C    -144.350000   25.261600  -20.263600
  C    -143.539000   25.891500  -19.230800
  C    -142.358000   26.383500  -19.727500
  H    -143.733000   26.101500  -18.158500
  C    -145.756000   24.920300  -19.924700
  H    -145.659000   23.945800  -19.351600
  H    -146.291000   24.520500  -20.802100
  C    -146.659000   25.850300  -19.068900
  H    -146.109000   26.149900  -18.208700
  H    -146.819000   26.773100  -19.754700
  C    -147.957000   25.175900  -18.578400
  H    -148.354000   25.682500  -17.715800
  H    -148.671000   25.141400  -19.369100
  H    -147.777000   24.121500  -18.156000
  S    -140.123000   27.843700  -20.227400
  C    -139.259000   28.602500  -19.018600
  C    -139.851000   28.439800  -17.774200
  C    -140.961000   27.572600  -17.801900
  C    -141.191000   27.058000  -19.057000
  H    -139.460000   28.885300  -16.900200
  C    -141.879000   27.418700  -16.617100
  H    -141.270000   27.468800  -15.698200
  H    -142.281000   26.445800  -16.686900
  C    -143.030000   28.485800  -16.530800
  H    -143.510000   28.650600  -17.516700
  H    -142.592000   29.385200  -16.268800
  C    -144.073000   28.214800  -15.532500
  H    -143.868000   28.529100  -14.528900
  H    -144.438000   27.179900  -15.468900
  H    -144.900000   28.817500  -15.783300
  H    -144.223000   24.911000  -22.433400
  H    -138.360000   29.164900  -19.173400

 Total Charge           Charge          ....    0
 Multiplicity           Mult            ....    1
 Number of Electrons    NEL             ....  134
 Basis Dimension        Dim             ....  322

ORBITAL ENERGIES
----------------

  NO   OCC          E(Eh)            E(eV)
   0   2.0000     -88.964561     -2420.8488
   1   2.0000     -88.958910     -2420.6950
   2   2.0000     -10.332112      -281.1510
   3   2.0000     -10.328678      -281.0576
   4   2.0000     -10.312834      -280.6265
   5   2.0000     -10.310056      -280.5509
   6   2.0000     -10.301782      -280.3257
   7   2.0000     -10.301502      -280.3181
   8   2.0000     -10.294864      -280.1375
   9   2.0000     -10.294839      -280.1368
  10   2.0000     -10.292925      -280.0847
  11   2.0000     -10.290846      -280.0282
  12   2.0000     -10.288165      -279.9552
  13   2.0000     -10.283999      -279.8418
  14   2.0000     -10.283308      -279.8230
  15   2.0000     -10.271638      -279.5055
  16   2.0000      -8.080828      -219.8905
  17   2.0000      -8.074900      -219.7292
  18   2.0000      -6.039103      -164.3323
  19   2.0000      -6.035120      -164.2240
  20   2.0000      -6.033494      -164.1797
  21   2.0000      -6.031720      -164.1315
  22   2.0000      -6.029189      -164.0626
  23   2.0000      -6.025524      -163.9628
  24   2.0000      -1.013953       -27.5911
  25   2.0000      -0.992504       -27.0074
  26   2.0000      -0.917669       -24.9711
  27   2.0000      -0.907048       -24.6820
  28   2.0000      -0.870440       -23.6859
  29   2.0000      -0.865829       -23.5604
  30   2.0000      -0.844932       -22.9918
  31   2.0000      -0.817903       -22.2563
  32   2.0000      -0.787965       -21.4416
  33   2.0000      -0.770031       -20.9536
  34   2.0000      -0.709933       -19.3183
  35   2.0000      -0.702131       -19.1060
  36   2.0000      -0.692014       -18.8306
  37   2.0000      -0.666799       -18.1445
  38   2.0000      -0.643153       -17.5011
  39   2.0000      -0.621614       -16.9150
  40   2.0000      -0.600285       -16.3346
  41   2.0000      -0.573006       -15.5923
  42   2.0000      -0.563786       -15.3414
  43   2.0000      -0.559891       -15.2354
  44   2.0000      -0.531544       -14.4641
  45   2.0000      -0.525635       -14.3033
  46   2.0000      -0.523127       -14.2350
  47   2.0000      -0.512536       -13.9468
  48   2.0000      -0.506937       -13.7945
  49   2.0000      -0.503883       -13.7113
  50   2.0000      -0.500714       -13.6251
  51   2.0000      -0.485279       -13.2051
  52   2.0000      -0.470320       -12.7981
  53   2.0000      -0.466374       -12.6907
  54   2.0000      -0.463485       -12.6121
  55   2.0000      -0.455634       -12.3984
  56   2.0000      -0.446207       -12.1419
  57   2.0000      -0.437744       -11.9116
  58   2.0000      -0.429072       -11.6756
  59   2.0000      -0.422752       -11.5037
  60   2.0000      -0.422002       -11.4833
  61   2.0000      -0.419621       -11.4185
  62   2.0000      -0.406659       -11.0658
  63   2.0000      -0.363148        -9.8818
  64   2.0000      -0.334340        -9.0979
  65   2.0000      -0.321956        -8.7609
  66   2.0000      -0.285017        -7.7557
  67   0.0000       0.025122         0.6836
  68   0.0000       0.091281         2.4839
  69   0.0000       0.099965         2.7202
  70   0.0000       0.118355         3.2206
  71   0.0000       0.123867         3.3706

MULLIKEN ATOMIC CHARGES
-----------------------
   0 S :    0.078831
   1 C :   -0.103472
   2 C :   -0.048446
   3 C :   -0.032312
   4 C :   -0.105826
   5 H :    0.015510
   6 C :    0.013416
   7 H :    0.025993
   8 H :    0.009833
   9 C :   -0.060768
  10 H :    0.019578
  11 H :    0.050978
  12 C :   -0.053084
  13 H :    0.032444
  14 H :    0.037113
  15 H :    0.036651
  16 S :    0.094198
  17 C :   -0.063345
  18 C :   -0.026794
  19 C :   -0.088361
  20 C :   -0.084774
  21 H :   -0.003063
  22 C :    0.063777
  23 H :    0.023933
  24 H :    0.011690
  25 C :   -0.045026
  26 H :    0.038884
  27 H :    0.005764
  28 C :   -0.010267
  29 H :    0.020493
  30 H :    0.025393
  31 H :    0.018434
  32 H :    0.049721
  33 H :    0.052904
Sum of atomic charges:   -0.0000000

LOEWDIN ATOMIC CHARGES
----------------------
   0 S :    0.405756
   1 C :   -0.206953
   2 C :   -0.066461
   3 C :   -0.082973
   4 C :   -0.180342
   5 H :    0.035003
   6 C :   -0.049857
   7 H :    0.035795
   8 H :    0.026053
   9 C :   -0.040937
  10 H :    0.015647
  11 H :    0.037377
  12 C :   -0.064571
  13 H :    0.025627
  14 H :    0.021630
  15 H :    0.035232
  16 S :    0.435315
  17 C :   -0.198147
  18 C :   -0.072269
  19 C :   -0.057022
  20 C :   -0.188948
  21 H :    0.023301
  22 C :   -0.025344
  23 H :    0.033422
  24 H :    0.018853
  25 C :   -0.034246
  26 H :    0.031299
  27 H :    0.018204
  28 C :   -0.063722
  29 H :    0.022825
  30 H :    0.024109
  31 H :    0.026808
  32 H :    0.031577
  33 H :    0.027960

  Mayer bond orders larger than 0.100000
B(  0-S ,  1-C ) :   1.1295 B(  0-S ,  4-C ) :   1.1512 B(  1-C ,  2-C ) :   1.6118
B(  1-C , 32-H ) :   0.9741 B(  2-C ,  3-C ) :   1.1971 B(  2-C ,  6-C ) :   1.0442
B(  3-C ,  4-C ) :   1.6189 B(  3-C ,  5-H ) :   0.9813 B(  4-C , 20-C ) :   1.0198
B(  6-C ,  7-H ) :   0.9205 B(  6-C ,  8-H ) :   0.9454 B(  6-C ,  9-C ) :   1.0600
B(  9-C , 10-H ) :   0.9493 B(  9-C , 11-H ) :   0.9551 B(  9-C , 12-C ) :   1.0772
B( 12-C , 13-H ) :   0.9759 B( 12-C , 14-H ) :   0.9788 B( 12-C , 15-H ) :   0.9720
B( 16-S , 17-C ) :   1.1995 B( 16-S , 20-C ) :   1.1396 B( 17-C , 18-C ) :   1.5581
B( 17-C , 33-H ) :   0.9696 B( 18-C , 19-C ) :   1.2784 B( 18-C , 21-H ) :   1.0022
B( 19-C , 20-C ) :   1.5935 B( 19-C , 22-C ) :   1.0494 B( 22-C , 23-H ) :   0.9293
B( 22-C , 24-H ) :   0.9356 B( 22-C , 25-C ) :   1.0547 B( 25-C , 26-H ) :   0.9610
B( 25-C , 27-H ) :   0.9449 B( 25-C , 28-C ) :   1.0945 B( 28-C , 29-H ) :   0.9705
B( 28-C , 30-H ) :   0.9720 B( 28-C , 31-H ) :   0.9664

Dispersion correction           -0.014411685
FINAL SINGLE POINT ENERGY     -1339.872034011721

DIPOLE MOMENT
-------------
                                X             Y             Z
Electronic contribution:     26.53352       0.67457     -20.47773
Nuclear contribution   :    -26.96424      -0.41207      21.07576
                        -----------------------------------------
Total Dipole Moment    :     -0.43072       0.26250       0.59803
                        -----------------------------------------
Magnitude (a.u.)       :      0.78234
Magnitude (Debye)      :      1.98856

Rotational constants in cm-1:     0.018057     0.009822     0.006588
Rotational constants in MHz :   541.322467   294.454085   197.495737

                             ****ORCA TERMINATED NORMALLY****
TOTAL RUN TIME: 0 days 0 hours 0 minutes 22 seconds 21 msec
