                         Program Version 4.2.1 -  RELEASE  -
|  1> ! wB97X-D3 SP def2-SVP
|  2> %pal
|  3> nprocs 24
|  4> end
|  5>
|  6> * xyz 0 1
|  7> S 	 3.98915 	 -27.7786 	 -113.316
|  8> C 	 5.6567 	 -27.3034 	 -113.18
|  9> C 	 6.02215 	 -26.6227 	 -114.358
| 10> C 	 4.96264 	 -26.3176 	 -115.304
| 11> C 	 3.79883 	 -26.8348 	 -114.848
| 12> H 	 5.02941 	 -25.776 	 -116.228
| 13> C 	 7.43739 	 -26.1097 	 -114.461
| 14> H 	 7.8587 	 -26.2622 	 -115.481
| 15> H 	 8.05736 	 -26.759 	 -113.859
| 16> C 	 7.51177 	 -24.666 	 -113.846
| 17> H 	 6.87202 	 -23.9992 	 -114.427
| 18> H 	 6.98281 	 -24.6786 	 -112.804
| 19> C 	 8.95959 	 -24.1515 	 -113.772
| 20> H 	 8.83675 	 -23.0526 	 -113.608
| 21> H 	 9.67499 	 -24.648 	 -113.142
| 22> H 	 9.40456 	 -24.1412 	 -114.788
| 23> S 	 1.24508 	 -25.8421 	 -115.198
| 24> C 	 0.357761 	 -26.2873 	 -116.621
| 25> C 	 0.948298 	 -27.3433 	 -117.314
| 26> C 	 2.24924 	 -27.6935 	 -116.76
| 27> C 	 2.60111 	 -26.8887 	 -115.684
| 28> H 	 0.48695 	 -27.7441 	 -118.135
| 29> C 	 3.14208 	 -28.8376 	 -117.264
| 30> H 	 4.09922 	 -28.419 	 -117.322
| 31> H 	 2.79738 	 -29.1408 	 -118.202
| 32> C 	 3.17894 	 -30.0725 	 -116.357
| 33> H 	 2.1738 	 -30.5067 	 -116.464
| 34> H 	 3.27991 	 -29.8917 	 -115.271
| 35> C 	 4.19 	 -31.0771 	 -116.794
| 36> H 	 5.08711 	 -30.4582 	 -116.713
| 37> H 	 4.06752 	 -31.4833 	 -117.831
| 38> H 	 4.28223 	 -31.9043 	 -116.113
| 39> H 	 6.25916 	 -27.4874 	 -112.35
| 40> H 	 -0.701415 	 -25.9374 	 -116.79
| 41> *
| 42>
| 43>                          ****END OF INPUT****

CARTESIAN COORDINATES (ANGSTROEM)
---------------------------------
  S      3.989150  -27.778600  -113.316000
  C      5.656700  -27.303400  -113.180000
  C      6.022150  -26.622700  -114.358000
  C      4.962640  -26.317600  -115.304000
  C      3.798830  -26.834800  -114.848000
  H      5.029410  -25.776000  -116.228000
  C      7.437390  -26.109700  -114.461000
  H      7.858700  -26.262200  -115.481000
  H      8.057360  -26.759000  -113.859000
  C      7.511770  -24.666000  -113.846000
  H      6.872020  -23.999200  -114.427000
  H      6.982810  -24.678600  -112.804000
  C      8.959590  -24.151500  -113.772000
  H      8.836750  -23.052600  -113.608000
  H      9.674990  -24.648000  -113.142000
  H      9.404560  -24.141200  -114.788000
  S      1.245080  -25.842100  -115.198000
  C      0.357761  -26.287300  -116.621000
  C      0.948298  -27.343300  -117.314000
  C      2.249240  -27.693500  -116.760000
  C      2.601110  -26.888700  -115.684000
  H      0.486950  -27.744100  -118.135000
  C      3.142080  -28.837600  -117.264000
  H      4.099220  -28.419000  -117.322000
  H      2.797380  -29.140800  -118.202000
  C      3.178940  -30.072500  -116.357000
  H      2.173800  -30.506700  -116.464000
  H      3.279910  -29.891700  -115.271000
  C      4.190000  -31.077100  -116.794000
  H      5.087110  -30.458200  -116.713000
  H      4.067520  -31.483300  -117.831000
  H      4.282230  -31.904300  -116.113000
  H      6.259160  -27.487400  -112.350000
  H     -0.701415  -25.937400  -116.790000

 Total Charge           Charge          ....    0
 Multiplicity           Mult            ....    1
 Number of Electrons    NEL             ....  134
 Basis Dimension        Dim             ....  322

ORBITAL ENERGIES
----------------

  NO   OCC          E(Eh)            E(eV)
   0   2.0000     -88.966440     -2420.8999
   1   2.0000     -88.962519     -2420.7932
   2   2.0000     -10.330304      -281.1019
   3   2.0000     -10.323383      -280.9135
   4   2.0000     -10.321208      -280.8544
   5   2.0000     -10.313562      -280.6463
   6   2.0000     -10.307763      -280.4885
   7   2.0000     -10.304491      -280.3995
   8   2.0000     -10.298005      -280.2230
   9   2.0000     -10.297312      -280.2041
  10   2.0000     -10.292328      -280.0685
  11   2.0000     -10.290375      -280.0154
  12   2.0000     -10.282221      -279.7934
  13   2.0000     -10.282136      -279.7911
  14   2.0000     -10.277682      -279.6700
  15   2.0000     -10.272331      -279.5243
  16   2.0000      -8.080037      -219.8690
  17   2.0000      -8.077242      -219.7929
  18   2.0000      -6.038623      -164.3193
  19   2.0000      -6.035672      -164.2390
  20   2.0000      -6.034713      -164.2129
  21   2.0000      -6.031790      -164.1333
  22   2.0000      -6.030757      -164.1052
  23   2.0000      -6.028058      -164.0318
  24   2.0000      -1.000879       -27.2353
  25   2.0000      -0.978496       -26.6262
  26   2.0000      -0.911450       -24.8018
  27   2.0000      -0.903915       -24.5968
  28   2.0000      -0.870006       -23.6741
  29   2.0000      -0.849881       -23.1264
  30   2.0000      -0.845586       -23.0096
  31   2.0000      -0.817212       -22.2375
  32   2.0000      -0.780208       -21.2305
  33   2.0000      -0.760727       -20.7004
  34   2.0000      -0.701538       -19.0898
  35   2.0000      -0.695947       -18.9377
  36   2.0000      -0.687976       -18.7208
  37   2.0000      -0.662594       -18.0301
  38   2.0000      -0.650447       -17.6996
  39   2.0000      -0.617164       -16.7939
  40   2.0000      -0.592295       -16.1172
  41   2.0000      -0.575424       -15.6581
  42   2.0000      -0.561596       -15.2818
  43   2.0000      -0.553039       -15.0490
  44   2.0000      -0.528350       -14.3771
  45   2.0000      -0.524804       -14.2806
  46   2.0000      -0.517022       -14.0689
  47   2.0000      -0.510570       -13.8933
  48   2.0000      -0.508953       -13.8493
  49   2.0000      -0.497978       -13.5507
  50   2.0000      -0.494587       -13.4584
  51   2.0000      -0.478906       -13.0317
  52   2.0000      -0.472504       -12.8575
  53   2.0000      -0.461722       -12.5641
  54   2.0000      -0.458483       -12.4760
  55   2.0000      -0.447599       -12.1798
  56   2.0000      -0.445219       -12.1150
  57   2.0000      -0.434042       -11.8109
  58   2.0000      -0.431260       -11.7352
  59   2.0000      -0.419708       -11.4208
  60   2.0000      -0.417067       -11.3490
  61   2.0000      -0.410215       -11.1625
  62   2.0000      -0.406429       -11.0595
  63   2.0000      -0.340634        -9.2691
  64   2.0000      -0.328348        -8.9348
  65   2.0000      -0.318155        -8.6574
  66   2.0000      -0.304904        -8.2969
  67   0.0000       0.039130         1.0648
  68   0.0000       0.052658         1.4329
  69   0.0000       0.110138         2.9970
  70   0.0000       0.117166         3.1883
  71   0.0000       0.132308         3.6003

MULLIKEN ATOMIC CHARGES
-----------------------
   0 S :    0.105469
   1 C :   -0.091786
   2 C :   -0.112961
   3 C :    0.065889
   4 C :   -0.133136
   5 H :    0.023263
   6 C :    0.056267
   7 H :    0.032001
   8 H :    0.007750
   9 C :   -0.105556
  10 H :    0.028470
  11 H :    0.044408
  12 C :   -0.033158
  13 H :    0.037805
  14 H :    0.043806
  15 H :    0.023599
  16 S :    0.104955
  17 C :   -0.109107
  18 C :   -0.008340
  19 C :   -0.035883
  20 C :   -0.219915
  21 H :   -0.015345
  22 C :    0.162625
  23 H :    0.003216
  24 H :   -0.004894
  25 C :   -0.092408
  26 H :    0.014418
  27 H :    0.035019
  28 C :   -0.032775
  29 H :    0.024156
  30 H :    0.036080
  31 H :    0.032160
  32 H :    0.034435
  33 H :    0.079475
Sum of atomic charges:   -0.0000000

LOEWDIN ATOMIC CHARGES
----------------------
   0 S :    0.388291
   1 C :   -0.191495
   2 C :   -0.056867
   3 C :   -0.049669
   4 C :   -0.178415
   5 H :    0.038516
   6 C :   -0.042323
   7 H :    0.031483
   8 H :    0.023452
   9 C :   -0.042648
  10 H :    0.022597
  11 H :    0.035168
  12 C :   -0.075038
  13 H :    0.034911
  14 H :    0.023180
  15 H :    0.027966
  16 S :    0.399586
  17 C :   -0.193363
  18 C :   -0.065998
  19 C :   -0.038604
  20 C :   -0.200439
  21 H :    0.015851
  22 C :   -0.015660
  23 H :    0.021641
  24 H :    0.021288
  25 C :   -0.045351
  26 H :    0.019103
  27 H :    0.020753
  28 C :   -0.065992
  29 H :    0.027261
  30 H :    0.027929
  31 H :    0.024283
  32 H :    0.018324
  33 H :    0.040280

  Mayer bond orders larger than 0.100000
B(  0-S ,  1-C ) :   1.1267 B(  0-S ,  4-C ) :   1.1383 B(  1-C ,  2-C ) :   1.6071
B(  1-C , 32-H ) :   0.9797 B(  2-C ,  3-C ) :   1.2020 B(  2-C ,  6-C ) :   1.0467
B(  3-C ,  4-C ) :   1.6022 B(  3-C ,  5-H ) :   0.9988 B(  4-C , 20-C ) :   1.0182
B(  6-C ,  7-H ) :   0.9407 B(  6-C ,  8-H ) :   0.9404 B(  6-C ,  9-C ) :   1.0424
B(  9-C , 10-H ) :   0.9587 B(  9-C , 11-H ) :   0.9558 B(  9-C , 12-C ) :   1.0736
B( 12-C , 13-H ) :   0.9721 B( 12-C , 14-H ) :   0.9780 B( 12-C , 15-H ) :   0.9699
B( 16-S , 17-C ) :   1.1686 B( 16-S , 20-C ) :   1.1352 B( 17-C , 18-C ) :   1.6017
B( 17-C , 33-H ) :   0.9575 B( 18-C , 19-C ) :   1.2274 B( 18-C , 21-H ) :   1.0078
B( 19-C , 20-C ) :   1.6082 B( 19-C , 22-C ) :   1.0389 B( 22-C , 23-H ) :   0.9255
B( 22-C , 24-H ) :   0.9238 B( 22-C , 25-C ) :   1.0667 B( 25-C , 26-H ) :   0.9483
B( 25-C , 27-H ) :   0.9533 B( 25-C , 28-C ) :   1.0856 B( 28-C , 29-H ) :   0.9752
B( 28-C , 30-H ) :   0.9723 B( 28-C , 31-H ) :   0.9712

Dispersion correction           -0.014788816
FINAL SINGLE POINT ENERGY     -1339.869263843085

DIPOLE MOMENT
-------------
                                X             Y             Z
Electronic contribution:    -21.21774       4.44474       5.90008
Nuclear contribution   :     21.61680      -4.52255      -6.24060
                        -----------------------------------------
Total Dipole Moment    :      0.39906      -0.07781      -0.34052
                        -----------------------------------------
Magnitude (a.u.)       :      0.53034
Magnitude (Debye)      :      1.34801

Rotational constants in cm-1:     0.019379     0.008196     0.006879
Rotational constants in MHz :   580.979038   245.706861   206.212580

                             ****ORCA TERMINATED NORMALLY****
TOTAL RUN TIME: 0 days 0 hours 0 minutes 20 seconds 368 msec
