                         Program Version 4.2.1 -  RELEASE  -
|  1> ! wB97X-D3 SP def2-SVP
|  2> %pal
|  3> nprocs 24
|  4> end
|  5>
|  6> * xyz 0 1
|  7> S 	 -67.8608 	 8.95632 	 -68.2197
|  8> C 	 -68.0268 	 8.93639 	 -69.9609
|  9> C 	 -67.4204 	 7.83062 	 -70.5363
| 10> C 	 -66.9538 	 6.89359 	 -69.5686
| 11> C 	 -67.3275 	 7.2149 	 -68.2989
| 12> H 	 -66.4802 	 5.95776 	 -69.733
| 13> C 	 -67.1276 	 7.76167 	 -72.012
| 14> H 	 -66.3506 	 7.00477 	 -72.2328
| 15> H 	 -66.7938 	 8.8245 	 -72.3121
| 16> C 	 -68.3103 	 7.27774 	 -72.9054
| 17> H 	 -69.2351 	 7.80878 	 -72.6425
| 18> H 	 -67.9694 	 7.54005 	 -73.8935
| 19> C 	 -68.6162 	 5.81536 	 -72.8978
| 20> H 	 -68.9408 	 5.6206 	 -71.9517
| 21> H 	 -69.4106 	 5.56221 	 -73.5777
| 22> H 	 -67.8142 	 5.18026 	 -73.2197
| 23> S 	 -66.02 	 7.09253 	 -65.8961
| 24> C 	 -65.8775 	 5.6035 	 -65.0517
| 25> C 	 -66.5952 	 4.57341 	 -65.7999
| 26> C 	 -67.0778 	 5.03156 	 -67.0086
| 27> C 	 -66.9937 	 6.39075 	 -67.1351
| 28> H 	 -66.6554 	 3.55826 	 -65.4054
| 29> C 	 -67.9351 	 4.10406 	 -67.8534
| 30> H 	 -68.7063 	 4.7421 	 -68.3046
| 31> H 	 -68.4495 	 3.38457 	 -67.2325
| 32> C 	 -67.0281 	 3.35014 	 -68.9319
| 33> H 	 -66.395 	 2.73067 	 -68.3475
| 34> H 	 -66.2149 	 3.8335 	 -69.4047
| 35> C 	 -67.963 	 2.65681 	 -69.8709
| 36> H 	 -67.3672 	 2.28599 	 -70.6431
| 37> H 	 -68.6146 	 3.42749 	 -70.3541
| 38> H 	 -68.4864 	 1.90556 	 -69.2396
| 39> H 	 -68.5058 	 9.69688 	 -70.5156
| 40> H 	 -65.3166 	 5.44478 	 -64.1707
| 41> *
| 42>
| 43>                          ****END OF INPUT****

CARTESIAN COORDINATES (ANGSTROEM)
---------------------------------
  S    -67.860800    8.956320  -68.219700
  C    -68.026800    8.936390  -69.960900
  C    -67.420400    7.830620  -70.536300
  C    -66.953800    6.893590  -69.568600
  C    -67.327500    7.214900  -68.298900
  H    -66.480200    5.957760  -69.733000
  C    -67.127600    7.761670  -72.012000
  H    -66.350600    7.004770  -72.232800
  H    -66.793800    8.824500  -72.312100
  C    -68.310300    7.277740  -72.905400
  H    -69.235100    7.808780  -72.642500
  H    -67.969400    7.540050  -73.893500
  C    -68.616200    5.815360  -72.897800
  H    -68.940800    5.620600  -71.951700
  H    -69.410600    5.562210  -73.577700
  H    -67.814200    5.180260  -73.219700
  S    -66.020000    7.092530  -65.896100
  C    -65.877500    5.603500  -65.051700
  C    -66.595200    4.573410  -65.799900
  C    -67.077800    5.031560  -67.008600
  C    -66.993700    6.390750  -67.135100
  H    -66.655400    3.558260  -65.405400
  C    -67.935100    4.104060  -67.853400
  H    -68.706300    4.742100  -68.304600
  H    -68.449500    3.384570  -67.232500
  C    -67.028100    3.350140  -68.931900
  H    -66.395000    2.730670  -68.347500
  H    -66.214900    3.833500  -69.404700
  C    -67.963000    2.656810  -69.870900
  H    -67.367200    2.285990  -70.643100
  H    -68.614600    3.427490  -70.354100
  H    -68.486400    1.905560  -69.239600
  H    -68.505800    9.696880  -70.515600
  H    -65.316600    5.444780  -64.170700

 Total Charge           Charge          ....    0
 Multiplicity           Mult            ....    1
 Number of Electrons    NEL             ....  134
 Basis Dimension        Dim             ....  322

ORBITAL ENERGIES
----------------

  NO   OCC          E(Eh)            E(eV)
   0   2.0000     -88.967856     -2420.9384
   1   2.0000     -88.965716     -2420.8802
   2   2.0000     -10.329657      -281.0843
   3   2.0000     -10.319399      -280.8051
   4   2.0000     -10.317176      -280.7446
   5   2.0000     -10.310435      -280.5612
   6   2.0000     -10.299193      -280.2553
   7   2.0000     -10.298505      -280.2366
   8   2.0000     -10.294897      -280.1384
   9   2.0000     -10.293221      -280.0928
  10   2.0000     -10.293088      -280.0892
  11   2.0000     -10.289405      -279.9889
  12   2.0000     -10.283330      -279.8236
  13   2.0000     -10.280646      -279.7506
  14   2.0000     -10.277067      -279.6532
  15   2.0000     -10.265495      -279.3383
  16   2.0000      -8.083241      -219.9562
  17   2.0000      -8.079469      -219.8535
  18   2.0000      -6.041502      -164.3976
  19   2.0000      -6.038095      -164.3049
  20   2.0000      -6.037452      -164.2874
  21   2.0000      -6.034448      -164.2057
  22   2.0000      -6.034437      -164.2054
  23   2.0000      -6.029869      -164.0811
  24   2.0000      -1.008844       -27.4520
  25   2.0000      -0.983231       -26.7551
  26   2.0000      -0.912614       -24.8335
  27   2.0000      -0.911320       -24.7983
  28   2.0000      -0.868641       -23.6369
  29   2.0000      -0.861769       -23.4499
  30   2.0000      -0.849629       -23.1196
  31   2.0000      -0.811922       -22.0935
  32   2.0000      -0.779137       -21.2014
  33   2.0000      -0.769394       -20.9363
  34   2.0000      -0.710042       -19.3212
  35   2.0000      -0.701259       -19.0822
  36   2.0000      -0.695114       -18.9150
  37   2.0000      -0.668848       -18.2003
  38   2.0000      -0.642329       -17.4787
  39   2.0000      -0.611969       -16.6525
  40   2.0000      -0.596578       -16.2337
  41   2.0000      -0.578972       -15.7546
  42   2.0000      -0.564828       -15.3697
  43   2.0000      -0.554701       -15.0942
  44   2.0000      -0.540362       -14.7040
  45   2.0000      -0.530959       -14.4481
  46   2.0000      -0.521154       -14.1813
  47   2.0000      -0.511744       -13.9253
  48   2.0000      -0.505983       -13.7685
  49   2.0000      -0.495057       -13.4712
  50   2.0000      -0.490461       -13.3461
  51   2.0000      -0.486095       -13.2273
  52   2.0000      -0.471721       -12.8362
  53   2.0000      -0.468535       -12.7495
  54   2.0000      -0.463562       -12.6142
  55   2.0000      -0.455062       -12.3829
  56   2.0000      -0.445661       -12.1271
  57   2.0000      -0.441280       -12.0078
  58   2.0000      -0.432638       -11.7727
  59   2.0000      -0.423280       -11.5180
  60   2.0000      -0.421311       -11.4645
  61   2.0000      -0.409934       -11.1549
  62   2.0000      -0.405121       -11.0239
  63   2.0000      -0.348224        -9.4756
  64   2.0000      -0.334055        -9.0901
  65   2.0000      -0.325994        -8.8708
  66   2.0000      -0.281694        -7.6653
  67   0.0000       0.024894         0.6774
  68   0.0000       0.063270         1.7217
  69   0.0000       0.102486         2.7888
  70   0.0000       0.123509         3.3609
  71   0.0000       0.133848         3.6422

MULLIKEN ATOMIC CHARGES
-----------------------
   0 S :    0.096132
   1 C :   -0.101922
   2 C :   -0.067342
   3 C :    0.053539
   4 C :   -0.145283
   5 H :   -0.019005
   6 C :    0.017946
   7 H :    0.024010
   8 H :    0.052593
   9 C :   -0.065683
  10 H :    0.026076
  11 H :    0.020260
  12 C :   -0.003157
  13 H :    0.015075
  14 H :    0.026754
  15 H :    0.019232
  16 S :    0.124746
  17 C :   -0.100052
  18 C :   -0.047630
  19 C :   -0.033550
  20 C :   -0.138164
  21 H :    0.022026
  22 C :    0.041134
  23 H :    0.036998
  24 H :    0.026202
  25 C :   -0.093680
  26 H :    0.001592
  27 H :    0.017830
  28 C :    0.014600
  29 H :    0.015577
  30 H :    0.040531
  31 H :    0.041863
  32 H :    0.033371
  33 H :    0.047382
Sum of atomic charges:   -0.0000000

LOEWDIN ATOMIC CHARGES
----------------------
   0 S :    0.366847
   1 C :   -0.185351
   2 C :   -0.068589
   3 C :   -0.052709
   4 C :   -0.165828
   5 H :    0.026271
   6 C :   -0.035839
   7 H :    0.031611
   8 H :    0.043081
   9 C :   -0.036438
  10 H :    0.023426
  11 H :    0.019183
  12 C :   -0.056488
  13 H :    0.012357
  14 H :    0.029690
  15 H :    0.021729
  16 S :    0.444549
  17 C :   -0.200196
  18 C :   -0.068095
  19 C :   -0.069747
  20 C :   -0.209880
  21 H :    0.030717
  22 C :   -0.016193
  23 H :    0.029984
  24 H :    0.029060
  25 C :   -0.042116
  26 H :    0.019010
  27 H :    0.015794
  28 C :   -0.058035
  29 H :    0.016428
  30 H :    0.032723
  31 H :    0.034011
  32 H :    0.018992
  33 H :    0.020042

  Mayer bond orders larger than 0.100000
B(  0-S ,  1-C ) :   1.1287 B(  0-S ,  4-C ) :   1.1224 B(  1-C ,  2-C ) :   1.6193
B(  1-C , 32-H ) :   0.9719 B(  2-C ,  3-C ) :   1.2150 B(  2-C ,  6-C ) :   1.0209
B(  3-C ,  4-C ) :   1.5898 B(  3-C ,  5-H ) :   0.9978 B(  4-C , 20-C ) :   1.0347
B(  6-C ,  7-H ) :   0.9432 B(  6-C ,  8-H ) :   0.9465 B(  6-C ,  9-C ) :   1.0593
B(  9-C , 10-H ) :   0.9573 B(  9-C , 11-H ) :   0.9552 B(  9-C , 12-C ) :   1.0924
B( 12-C , 13-H ) :   0.9735 B( 12-C , 14-H ) :   0.9664 B( 12-C , 15-H ) :   0.9704
B( 16-S , 17-C ) :   1.1980 B( 16-S , 20-C ) :   1.1672 B( 17-C , 18-C ) :   1.5136
B( 17-C , 20-C ) :   0.1175 B( 17-C , 33-H ) :   0.9786 B( 18-C , 19-C ) :   1.3102
B( 18-C , 21-H ) :   0.9905 B( 19-C , 20-C ) :   1.5556 B( 19-C , 22-C ) :   1.0283
B( 22-C , 23-H ) :   0.9517 B( 22-C , 24-H ) :   0.9479 B( 22-C , 25-C ) :   1.0221
B( 25-C , 26-H ) :   0.9436 B( 25-C , 27-H ) :   0.9592 B( 25-C , 28-C ) :   1.0762
B( 28-C , 29-H ) :   0.9702 B( 28-C , 30-H ) :   0.9734 B( 28-C , 31-H ) :   0.9701

Dispersion correction           -0.015322435
FINAL SINGLE POINT ENERGY     -1339.848011668498

DIPOLE MOMENT
-------------
                                X             Y             Z
Electronic contribution:      6.29583      19.57245      24.94202
Nuclear contribution   :     -6.20972     -20.13243     -25.43947
                        -----------------------------------------
Total Dipole Moment    :      0.08611      -0.55998      -0.49745
                        -----------------------------------------
Magnitude (a.u.)       :      0.75396
Magnitude (Debye)      :      1.91640

Rotational constants in cm-1:     0.017961     0.010437     0.007017
Rotational constants in MHz :   538.442612   312.882563   210.362184

                             ****ORCA TERMINATED NORMALLY****
TOTAL RUN TIME: 0 days 0 hours 0 minutes 22 seconds 904 msec
