                         Program Version 4.2.1 -  RELEASE  -
|  1> ! wB97X-D3 SP def2-SVP
|  2> %pal
|  3> nprocs 24
|  4> end
|  5>
|  6> * xyz 0 1
|  7> S 	 -141.163 	 8.61778 	 3.04148
|  8> C 	 -142.067 	 8.29201 	 1.61549
|  9> C 	 -141.392 	 8.73607 	 0.510379
| 10> C 	 -140.046 	 9.22059 	 0.897049
| 11> C 	 -139.798 	 9.34117 	 2.2778
| 12> H 	 -139.272 	 9.43862 	 0.163262
| 13> C 	 -141.799 	 8.5924 	 -0.944108
| 14> H 	 -141.59 	 9.5843 	 -1.32281
| 15> H 	 -142.91 	 8.4144 	 -0.953623
| 16> C 	 -141.263 	 7.41351 	 -1.76871
| 17> H 	 -140.17 	 7.53533 	 -1.98064
| 18> H 	 -141.394 	 6.48205 	 -1.16364
| 19> C 	 -142.117 	 7.27389 	 -3.03265
| 20> H 	 -142.136 	 8.26354 	 -3.48153
| 21> H 	 -141.779 	 6.49659 	 -3.69161
| 22> H 	 -143.102 	 7.03367 	 -2.8035
| 23> S 	 -138.795 	 11.1329 	 4.18853
| 24> C 	 -137.09 	 11.0743 	 4.53928
| 25> C 	 -136.46 	 10.1356 	 3.75706
| 26> C 	 -137.295 	 9.38549 	 2.86236
| 27> C 	 -138.623 	 9.79764 	 3.0267
| 28> H 	 -135.401 	 9.94762 	 3.86571
| 29> C 	 -136.645 	 8.43481 	 1.87493
| 30> H 	 -135.704 	 8.71326 	 1.58796
| 31> H 	 -137.235 	 8.42776 	 0.935267
| 32> C 	 -136.458 	 7.08052 	 2.48759
| 33> H 	 -135.983 	 7.06099 	 3.40867
| 34> H 	 -135.916 	 6.48688 	 1.77658
| 35> C 	 -137.779 	 6.51338 	 2.85807
| 36> H 	 -138.567 	 6.5899 	 2.1418
| 37> H 	 -138.183 	 6.97875 	 3.73354
| 38> H 	 -137.679 	 5.46031 	 3.05428
| 39> H 	 -142.951 	 7.75509 	 1.46617
| 40> H 	 -136.529 	 11.5849 	 5.34812
| 41> *
| 42>
| 43>                          ****END OF INPUT****

CARTESIAN COORDINATES (ANGSTROEM)
---------------------------------
  S    -141.163000    8.617780    3.041480
  C    -142.067000    8.292010    1.615490
  C    -141.392000    8.736070    0.510379
  C    -140.046000    9.220590    0.897049
  C    -139.798000    9.341170    2.277800
  H    -139.272000    9.438620    0.163262
  C    -141.799000    8.592400   -0.944108
  H    -141.590000    9.584300   -1.322810
  H    -142.910000    8.414400   -0.953623
  C    -141.263000    7.413510   -1.768710
  H    -140.170000    7.535330   -1.980640
  H    -141.394000    6.482050   -1.163640
  C    -142.117000    7.273890   -3.032650
  H    -142.136000    8.263540   -3.481530
  H    -141.779000    6.496590   -3.691610
  H    -143.102000    7.033670   -2.803500
  S    -138.795000   11.132900    4.188530
  C    -137.090000   11.074300    4.539280
  C    -136.460000   10.135600    3.757060
  C    -137.295000    9.385490    2.862360
  C    -138.623000    9.797640    3.026700
  H    -135.401000    9.947620    3.865710
  C    -136.645000    8.434810    1.874930
  H    -135.704000    8.713260    1.587960
  H    -137.235000    8.427760    0.935267
  C    -136.458000    7.080520    2.487590
  H    -135.983000    7.060990    3.408670
  H    -135.916000    6.486880    1.776580
  C    -137.779000    6.513380    2.858070
  H    -138.567000    6.589900    2.141800
  H    -138.183000    6.978750    3.733540
  H    -137.679000    5.460310    3.054280
  H    -142.951000    7.755090    1.466170
  H    -136.529000   11.584900    5.348120

 Total Charge           Charge          ....    0
 Multiplicity           Mult            ....    1
 Number of Electrons    NEL             ....  134
 Basis Dimension        Dim             ....  322

ORBITAL ENERGIES
----------------

  NO   OCC          E(Eh)            E(eV)
   0   2.0000     -88.969988     -2420.9965
   1   2.0000     -88.962422     -2420.7906
   2   2.0000     -10.333579      -281.1910
   3   2.0000     -10.330938      -281.1191
   4   2.0000     -10.318988      -280.7939
   5   2.0000     -10.307667      -280.4859
   6   2.0000     -10.306515      -280.4545
   7   2.0000     -10.301347      -280.3139
   8   2.0000     -10.298550      -280.2378
   9   2.0000     -10.296374      -280.1786
  10   2.0000     -10.295033      -280.1421
  11   2.0000     -10.291317      -280.0410
  12   2.0000     -10.285722      -279.8887
  13   2.0000     -10.273782      -279.5638
  14   2.0000     -10.270675      -279.4793
  15   2.0000     -10.255093      -279.0553
  16   2.0000      -8.084139      -219.9806
  17   2.0000      -8.077874      -219.8101
  18   2.0000      -6.042757      -164.4318
  19   2.0000      -6.038730      -164.3222
  20   2.0000      -6.036421      -164.2594
  21   2.0000      -6.034800      -164.2153
  22   2.0000      -6.032055      -164.1406
  23   2.0000      -6.028732      -164.0501
  24   2.0000      -1.005512       -27.3614
  25   2.0000      -0.985102       -26.8060
  26   2.0000      -0.923853       -25.1393
  27   2.0000      -0.914430       -24.8829
  28   2.0000      -0.871721       -23.7207
  29   2.0000      -0.850429       -23.1413
  30   2.0000      -0.842966       -22.9383
  31   2.0000      -0.811806       -22.0904
  32   2.0000      -0.788135       -21.4462
  33   2.0000      -0.775881       -21.1128
  34   2.0000      -0.709068       -19.2947
  35   2.0000      -0.700827       -19.0705
  36   2.0000      -0.694509       -18.8985
  37   2.0000      -0.657425       -17.8894
  38   2.0000      -0.638587       -17.3768
  39   2.0000      -0.619965       -16.8701
  40   2.0000      -0.604162       -16.4401
  41   2.0000      -0.574686       -15.6380
  42   2.0000      -0.566329       -15.4106
  43   2.0000      -0.555740       -15.1224
  44   2.0000      -0.548324       -14.9207
  45   2.0000      -0.533296       -14.5117
  46   2.0000      -0.522292       -14.2123
  47   2.0000      -0.508478       -13.8364
  48   2.0000      -0.506332       -13.7780
  49   2.0000      -0.502613       -13.6768
  50   2.0000      -0.491565       -13.3762
  51   2.0000      -0.476363       -12.9625
  52   2.0000      -0.470331       -12.7984
  53   2.0000      -0.464360       -12.6359
  54   2.0000      -0.460465       -12.5299
  55   2.0000      -0.446409       -12.1474
  56   2.0000      -0.445731       -12.1290
  57   2.0000      -0.435533       -11.8515
  58   2.0000      -0.430780       -11.7221
  59   2.0000      -0.426831       -11.6147
  60   2.0000      -0.425693       -11.5837
  61   2.0000      -0.411423       -11.1954
  62   2.0000      -0.409095       -11.1320
  63   2.0000      -0.343234        -9.3399
  64   2.0000      -0.332443        -9.0462
  65   2.0000      -0.321931        -8.7602
  66   2.0000      -0.298740        -8.1291
  67   0.0000       0.033872         0.9217
  68   0.0000       0.069125         1.8810
  69   0.0000       0.113530         3.0893
  70   0.0000       0.117993         3.2107
  71   0.0000       0.127261         3.4629

MULLIKEN ATOMIC CHARGES
-----------------------
   0 S :    0.111029
   1 C :   -0.076245
   2 C :   -0.117663
   3 C :    0.014601
   4 C :   -0.155095
   5 H :    0.012232
   6 C :    0.026213
   7 H :    0.039307
   8 H :    0.019964
   9 C :   -0.075041
  10 H :    0.038456
  11 H :    0.034205
  12 C :   -0.013909
  13 H :    0.029893
  14 H :    0.034837
  15 H :    0.013935
  16 S :    0.126609
  17 C :   -0.091614
  18 C :   -0.044398
  19 C :   -0.041502
  20 C :   -0.176897
  21 H :    0.014929
  22 C :    0.135031
  23 H :   -0.007605
  24 H :    0.023169
  25 C :   -0.029427
  26 H :    0.013044
  27 H :    0.021525
  28 C :   -0.034809
  29 H :    0.017705
  30 H :    0.029626
  31 H :    0.017878
  32 H :    0.020957
  33 H :    0.069060
Sum of atomic charges:   -0.0000000

LOEWDIN ATOMIC CHARGES
----------------------
   0 S :    0.430902
   1 C :   -0.201831
   2 C :   -0.066512
   3 C :   -0.067248
   4 C :   -0.209213
   5 H :    0.023445
   6 C :   -0.039178
   7 H :    0.032544
   8 H :    0.034465
   9 C :   -0.040756
  10 H :    0.025605
  11 H :    0.028257
  12 C :   -0.057817
  13 H :    0.027845
  14 H :    0.026104
  15 H :    0.015557
  16 S :    0.406524
  17 C :   -0.197591
  18 C :   -0.071619
  19 C :   -0.042392
  20 C :   -0.198489
  21 H :    0.028278
  22 C :   -0.018561
  23 H :    0.017810
  24 H :    0.034723
  25 C :   -0.031055
  26 H :    0.020759
  27 H :    0.021519
  28 C :   -0.059743
  29 H :    0.017575
  30 H :    0.023148
  31 H :    0.022645
  32 H :    0.022572
  33 H :    0.041730

  Mayer bond orders larger than 0.100000
B(  0-S ,  1-C ) :   1.1455 B(  0-S ,  4-C ) :   1.1588 B(  1-C ,  2-C ) :   1.6074
B(  1-C , 32-H ) :   0.9725 B(  2-C ,  3-C ) :   1.2447 B(  2-C ,  6-C ) :   1.0296
B(  3-C ,  4-C ) :   1.5649 B(  3-C ,  5-H ) :   0.9914 B(  4-C , 20-C ) :   1.0275
B(  6-C ,  7-H ) :   0.9325 B(  6-C ,  8-H ) :   0.9449 B(  6-C ,  9-C ) :   1.0557
B(  9-C , 10-H ) :   0.9543 B(  9-C , 11-H ) :   0.9558 B(  9-C , 12-C ) :   1.0798
B( 12-C , 13-H ) :   0.9742 B( 12-C , 14-H ) :   0.9726 B( 12-C , 15-H ) :   0.9727
B( 16-S , 17-C ) :   1.1405 B( 16-S , 20-C ) :   1.1466 B( 17-C , 18-C ) :   1.6291
B( 17-C , 33-H ) :   0.9599 B( 18-C , 19-C ) :   1.2423 B( 18-C , 21-H ) :   0.9815
B( 19-C , 20-C ) :   1.5839 B( 19-C , 22-C ) :   1.0333 B( 22-C , 23-H ) :   0.9255
B( 22-C , 24-H ) :   0.9347 B( 22-C , 25-C ) :   1.0852 B( 25-C , 26-H ) :   0.9516
B( 25-C , 27-H ) :   0.9525 B( 25-C , 28-C ) :   1.0808 B( 28-C , 29-H ) :   0.9743
B( 28-C , 30-H ) :   0.9688 B( 28-C , 31-H ) :   0.9686

Dispersion correction           -0.015275404
FINAL SINGLE POINT ENERGY     -1339.867477782220

DIPOLE MOMENT
-------------
                                X             Y             Z
Electronic contribution:     -2.27661      16.83491      21.63718
Nuclear contribution   :      2.64351     -17.20951     -22.18847
                        -----------------------------------------
Total Dipole Moment    :      0.36690      -0.37460      -0.55129
                        -----------------------------------------
Magnitude (a.u.)       :      0.76083
Magnitude (Debye)      :      1.93387

Rotational constants in cm-1:     0.022247     0.008029     0.006934
Rotational constants in MHz :   666.946687   240.707861   207.868567

                             ****ORCA TERMINATED NORMALLY****
TOTAL RUN TIME: 0 days 0 hours 0 minutes 22 seconds 317 msec
