                         Program Version 4.2.1 -  RELEASE  -
|  1> ! wB97X-D3 SP def2-SVP
|  2> %pal
|  3> nprocs 24
|  4> end
|  5>
|  6> * xyz 0 1
|  7> S 	 -104.275 	 0.168755 	 -104.537
|  8> C 	 -104.645 	 1.43401 	 -105.695
|  9> C 	 -103.515 	 2.25381 	 -105.77
| 10> C 	 -102.437 	 1.88449 	 -104.907
| 11> C 	 -102.688 	 0.693014 	 -104.23
| 12> H 	 -101.516 	 2.46342 	 -104.899
| 13> C 	 -103.514 	 3.38016 	 -106.671
| 14> H 	 -102.856 	 4.14494 	 -106.242
| 15> H 	 -104.541 	 3.83205 	 -106.81
| 16> C 	 -102.952 	 3.12196 	 -108.088
| 17> H 	 -101.944 	 2.60988 	 -108.055
| 18> H 	 -103.594 	 2.48195 	 -108.687
| 19> C 	 -102.81 	 4.3433 	 -108.959
| 20> H 	 -102.232 	 5.16889 	 -108.545
| 21> H 	 -102.514 	 4.09563 	 -109.917
| 22> H 	 -103.842 	 4.7166 	 -108.966
| 23> S 	 -102.961 	 -0.390777 	 -101.692
| 24> C 	 -101.508 	 -0.385217 	 -100.722
| 25> C 	 -100.372 	 -0.265354 	 -101.462
| 26> C 	 -100.616 	 0.0355429 	 -102.834
| 27> C 	 -101.972 	 0.181073 	 -103.057
| 28> H 	 -99.398 	 -0.539655 	 -100.959
| 29> C 	 -99.5231 	 0.309545 	 -103.767
| 30> H 	 -99.9818 	 0.439085 	 -104.783
| 31> H 	 -98.9047 	 -0.53822 	 -103.751
| 32> C 	 -98.6897 	 1.56963 	 -103.302
| 33> H 	 -98.1344 	 1.27445 	 -102.384
| 34> H 	 -99.295 	 2.37737 	 -102.916
| 35> C 	 -97.8102 	 2.10811 	 -104.4
| 36> H 	 -97.2651 	 2.99697 	 -104.116
| 37> H 	 -98.3212 	 2.44999 	 -105.378
| 38> H 	 -97.1931 	 1.30331 	 -104.718
| 39> H 	 -105.49 	 1.54623 	 -106.359
| 40> H 	 -101.422 	 -0.805666 	 -99.7354
| 41> *
| 42>
| 43>                          ****END OF INPUT****

CARTESIAN COORDINATES (ANGSTROEM)
---------------------------------
  S    -104.275000    0.168755  -104.537000
  C    -104.645000    1.434010  -105.695000
  C    -103.515000    2.253810  -105.770000
  C    -102.437000    1.884490  -104.907000
  C    -102.688000    0.693014  -104.230000
  H    -101.516000    2.463420  -104.899000
  C    -103.514000    3.380160  -106.671000
  H    -102.856000    4.144940  -106.242000
  H    -104.541000    3.832050  -106.810000
  C    -102.952000    3.121960  -108.088000
  H    -101.944000    2.609880  -108.055000
  H    -103.594000    2.481950  -108.687000
  C    -102.810000    4.343300  -108.959000
  H    -102.232000    5.168890  -108.545000
  H    -102.514000    4.095630  -109.917000
  H    -103.842000    4.716600  -108.966000
  S    -102.961000   -0.390777  -101.692000
  C    -101.508000   -0.385217  -100.722000
  C    -100.372000   -0.265354  -101.462000
  C    -100.616000    0.035543  -102.834000
  C    -101.972000    0.181073  -103.057000
  H    -99.398000   -0.539655  -100.959000
  C    -99.523100    0.309545  -103.767000
  H    -99.981800    0.439085  -104.783000
  H    -98.904700   -0.538220  -103.751000
  C    -98.689700    1.569630  -103.302000
  H    -98.134400    1.274450  -102.384000
  H    -99.295000    2.377370  -102.916000
  C    -97.810200    2.108110  -104.400000
  H    -97.265100    2.996970  -104.116000
  H    -98.321200    2.449990  -105.378000
  H    -97.193100    1.303310  -104.718000
  H    -105.490000    1.546230  -106.359000
  H    -101.422000   -0.805666  -99.735400

 Total Charge           Charge          ....    0
 Multiplicity           Mult            ....    1
 Number of Electrons    NEL             ....  134
 Basis Dimension        Dim             ....  322

ORBITAL ENERGIES
----------------

  NO   OCC          E(Eh)            E(eV)
   0   2.0000     -88.965739     -2420.8808
   1   2.0000     -88.964515     -2420.8475
   2   2.0000     -10.329770      -281.0873
   3   2.0000     -10.327414      -281.0232
   4   2.0000     -10.313671      -280.6492
   5   2.0000     -10.311098      -280.5792
   6   2.0000     -10.298851      -280.2460
   7   2.0000     -10.296556      -280.1835
   8   2.0000     -10.295996      -280.1683
   9   2.0000     -10.293935      -280.1122
  10   2.0000     -10.291974      -280.0589
  11   2.0000     -10.291264      -280.0395
  12   2.0000     -10.291035      -280.0333
  13   2.0000     -10.287056      -279.9250
  14   2.0000     -10.281047      -279.7615
  15   2.0000     -10.270961      -279.4871
  16   2.0000      -8.081199      -219.9006
  17   2.0000      -8.079042      -219.8419
  18   2.0000      -6.039664      -164.3476
  19   2.0000      -6.037658      -164.2930
  20   2.0000      -6.035417      -164.2321
  21   2.0000      -6.033927      -164.1915
  22   2.0000      -6.032143      -164.1430
  23   2.0000      -6.029331      -164.0664
  24   2.0000      -1.011683       -27.5293
  25   2.0000      -0.987681       -26.8762
  26   2.0000      -0.919719       -25.0268
  27   2.0000      -0.912939       -24.8423
  28   2.0000      -0.872598       -23.7446
  29   2.0000      -0.857567       -23.3356
  30   2.0000      -0.848341       -23.0845
  31   2.0000      -0.818519       -22.2730
  32   2.0000      -0.782946       -21.3051
  33   2.0000      -0.770528       -20.9671
  34   2.0000      -0.707463       -19.2511
  35   2.0000      -0.701197       -19.0805
  36   2.0000      -0.696468       -18.9519
  37   2.0000      -0.658120       -17.9084
  38   2.0000      -0.636686       -17.3251
  39   2.0000      -0.623365       -16.9626
  40   2.0000      -0.596097       -16.2206
  41   2.0000      -0.571937       -15.5632
  42   2.0000      -0.565413       -15.3857
  43   2.0000      -0.559006       -15.2113
  44   2.0000      -0.536277       -14.5928
  45   2.0000      -0.530931       -14.4474
  46   2.0000      -0.528062       -14.3693
  47   2.0000      -0.515289       -14.0217
  48   2.0000      -0.502733       -13.6801
  49   2.0000      -0.497235       -13.5304
  50   2.0000      -0.495297       -13.4777
  51   2.0000      -0.485469       -13.2103
  52   2.0000      -0.470043       -12.7905
  53   2.0000      -0.463556       -12.6140
  54   2.0000      -0.458222       -12.4689
  55   2.0000      -0.452029       -12.3003
  56   2.0000      -0.443170       -12.0593
  57   2.0000      -0.440033       -11.9739
  58   2.0000      -0.437176       -11.8962
  59   2.0000      -0.433718       -11.8021
  60   2.0000      -0.415074       -11.2947
  61   2.0000      -0.413151       -11.2424
  62   2.0000      -0.409996       -11.1566
  63   2.0000      -0.353512        -9.6196
  64   2.0000      -0.332389        -9.0448
  65   2.0000      -0.324474        -8.8294
  66   2.0000      -0.285483        -7.7684
  67   0.0000       0.024025         0.6538
  68   0.0000       0.072180         1.9641
  69   0.0000       0.104855         2.8533
  70   0.0000       0.119145         3.2421
  71   0.0000       0.129367         3.5203

MULLIKEN ATOMIC CHARGES
-----------------------
   0 S :    0.093230
   1 C :   -0.106358
   2 C :   -0.088856
   3 C :    0.025911
   4 C :   -0.112829
   5 H :    0.013194
   6 C :    0.030074
   7 H :    0.019416
   8 H :    0.032817
   9 C :   -0.093290
  10 H :    0.028477
  11 H :    0.019567
  12 C :   -0.004411
  13 H :    0.026909
  14 H :    0.025248
  15 H :    0.011683
  16 S :    0.102999
  17 C :   -0.073165
  18 C :   -0.074660
  19 C :   -0.044857
  20 C :   -0.142221
  21 H :    0.040802
  22 C :    0.090263
  23 H :    0.034290
  24 H :    0.022241
  25 C :   -0.095818
  26 H :    0.034193
  27 H :    0.031747
  28 C :   -0.040636
  29 H :    0.036871
  30 H :    0.034002
  31 H :    0.024653
  32 H :    0.048912
  33 H :    0.049602
Sum of atomic charges:   -0.0000000

LOEWDIN ATOMIC CHARGES
----------------------
   0 S :    0.428090
   1 C :   -0.201286
   2 C :   -0.064915
   3 C :   -0.067172
   4 C :   -0.203097
   5 H :    0.032257
   6 C :   -0.041740
   7 H :    0.031829
   8 H :    0.036725
   9 C :   -0.042071
  10 H :    0.023948
  11 H :    0.020938
  12 C :   -0.058700
  13 H :    0.022150
  14 H :    0.017240
  15 H :    0.025629
  16 S :    0.384326
  17 C :   -0.184770
  18 C :   -0.077512
  19 C :   -0.056843
  20 C :   -0.182780
  21 H :    0.041899
  22 C :   -0.026993
  23 H :    0.035949
  24 H :    0.028377
  25 C :   -0.039947
  26 H :    0.029044
  27 H :    0.022121
  28 C :   -0.070803
  29 H :    0.025617
  30 H :    0.032831
  31 H :    0.020657
  32 H :    0.032057
  33 H :    0.026945

  Mayer bond orders larger than 0.100000
B(  0-S ,  1-C ) :   1.1334 B(  0-S ,  4-C ) :   1.1810 B(  1-C ,  2-C ) :   1.5609
B(  1-C , 32-H ) :   0.9741 B(  2-C ,  3-C ) :   1.2903 B(  2-C ,  6-C ) :   1.0595
B(  3-C ,  4-C ) :   1.4975 B(  3-C ,  5-H ) :   0.9904 B(  4-C , 20-C ) :   1.0454
B(  6-C ,  7-H ) :   0.9318 B(  6-C ,  8-H ) :   0.9359 B(  6-C ,  9-C ) :   1.0621
B(  9-C , 10-H ) :   0.9543 B(  9-C , 11-H ) :   0.9544 B(  9-C , 12-C ) :   1.0846
B( 12-C , 13-H ) :   0.9747 B( 12-C , 14-H ) :   0.9727 B( 12-C , 15-H ) :   0.9702
B( 16-S , 17-C ) :   1.1343 B( 16-S , 20-C ) :   1.1195 B( 17-C , 18-C ) :   1.6652
B( 17-C , 33-H ) :   0.9600 B( 18-C , 19-C ) :   1.2010 B( 18-C , 21-H ) :   0.9763
B( 19-C , 20-C ) :   1.6146 B( 19-C , 22-C ) :   1.0736 B( 22-C , 23-H ) :   0.9359
B( 22-C , 24-H ) :   0.9151 B( 22-C , 25-C ) :   1.0430 B( 25-C , 26-H ) :   0.9467
B( 25-C , 27-H ) :   0.9629 B( 25-C , 28-C ) :   1.0886 B( 28-C , 29-H ) :   0.9728
B( 28-C , 30-H ) :   0.9734 B( 28-C , 31-H ) :   0.9704

Dispersion correction           -0.013920837
FINAL SINGLE POINT ENERGY     -1339.869731611025

DIPOLE MOMENT
-------------
                                X             Y             Z
Electronic contribution:    -17.79951     -18.33211      19.17994
Nuclear contribution   :     18.35299      18.63719     -19.47194
                        -----------------------------------------
Total Dipole Moment    :      0.55348       0.30508      -0.29200
                        -----------------------------------------
Magnitude (a.u.)       :      0.69619
Magnitude (Debye)      :      1.76956

Rotational constants in cm-1:     0.018147     0.009008     0.006277
Rotational constants in MHz :   544.032568   270.056749   188.187970

                             ****ORCA TERMINATED NORMALLY****
TOTAL RUN TIME: 0 days 0 hours 0 minutes 21 seconds 584 msec
