                         Program Version 4.2.1 -  RELEASE  -
|  1> ! wB97X-D3 SP def2-SVP
|  2> %pal
|  3> nprocs 24
|  4> end
|  5>
|  6> * xyz 0 1
|  7> S 	 -31.9614 	 22.4082 	 5.96335
|  8> C 	 -33.3854 	 22.1466 	 4.89612
|  9> C 	 -33.0234 	 21.2531 	 3.89156
| 10> C 	 -31.7494 	 20.6527 	 4.11139
| 11> C 	 -31.0168 	 21.2177 	 5.10086
| 12> H 	 -31.3541 	 19.8139 	 3.56038
| 13> C 	 -34.0002 	 20.6583 	 2.85944
| 14> H 	 -34.3938 	 19.6596 	 3.14633
| 15> H 	 -33.4274 	 20.5049 	 1.96856
| 16> C 	 -35.2462 	 21.6013 	 2.53555
| 17> H 	 -35.6798 	 21.8252 	 3.48416
| 18> H 	 -34.8451 	 22.5398 	 2.22119
| 19> C 	 -36.2699 	 21.0894 	 1.46788
| 20> H 	 -35.9375 	 20.9753 	 0.458514
| 21> H 	 -36.7338 	 20.1296 	 1.73231
| 22> H 	 -37.1357 	 21.7797 	 1.44402
| 23> S 	 -28.4011 	 21.5976 	 4.87393
| 24> C 	 -27.226 	 20.6513 	 5.82454
| 25> C 	 -27.9258 	 19.7706 	 6.60041
| 26> C 	 -29.3482 	 19.7399 	 6.40611
| 27> C 	 -29.7465 	 20.7295 	 5.51891
| 28> H 	 -27.4514 	 19.0763 	 7.34673
| 29> C 	 -30.1725 	 18.7944 	 7.22809
| 30> H 	 -31.1049 	 19.3201 	 7.31826
| 31> H 	 -29.7097 	 18.7458 	 8.23932
| 32> C 	 -30.3576 	 17.3637 	 6.7185
| 33> H 	 -29.4062 	 16.9423 	 6.48474
| 34> H 	 -31.0722 	 17.4027 	 5.90737
| 35> C 	 -31.0295 	 16.4702 	 7.74557
| 36> H 	 -31.3185 	 15.5981 	 7.14825
| 37> H 	 -31.8137 	 16.8925 	 8.35091
| 38> H 	 -30.275 	 16.0978 	 8.51077
| 39> H 	 -34.2773 	 22.757 	 4.72504
| 40> H 	 -26.1707 	 20.8881 	 5.83657
| 41> *
| 42>
| 43>                          ****END OF INPUT****

CARTESIAN COORDINATES (ANGSTROEM)
---------------------------------
  S    -31.961400   22.408200    5.963350
  C    -33.385400   22.146600    4.896120
  C    -33.023400   21.253100    3.891560
  C    -31.749400   20.652700    4.111390
  C    -31.016800   21.217700    5.100860
  H    -31.354100   19.813900    3.560380
  C    -34.000200   20.658300    2.859440
  H    -34.393800   19.659600    3.146330
  H    -33.427400   20.504900    1.968560
  C    -35.246200   21.601300    2.535550
  H    -35.679800   21.825200    3.484160
  H    -34.845100   22.539800    2.221190
  C    -36.269900   21.089400    1.467880
  H    -35.937500   20.975300    0.458514
  H    -36.733800   20.129600    1.732310
  H    -37.135700   21.779700    1.444020
  S    -28.401100   21.597600    4.873930
  C    -27.226000   20.651300    5.824540
  C    -27.925800   19.770600    6.600410
  C    -29.348200   19.739900    6.406110
  C    -29.746500   20.729500    5.518910
  H    -27.451400   19.076300    7.346730
  C    -30.172500   18.794400    7.228090
  H    -31.104900   19.320100    7.318260
  H    -29.709700   18.745800    8.239320
  C    -30.357600   17.363700    6.718500
  H    -29.406200   16.942300    6.484740
  H    -31.072200   17.402700    5.907370
  C    -31.029500   16.470200    7.745570
  H    -31.318500   15.598100    7.148250
  H    -31.813700   16.892500    8.350910
  H    -30.275000   16.097800    8.510770
  H    -34.277300   22.757000    4.725040
  H    -26.170700   20.888100    5.836570

 Total Charge           Charge          ....    0
 Multiplicity           Mult            ....    1
 Number of Electrons    NEL             ....  134
 Basis Dimension        Dim             ....  322

ORBITAL ENERGIES
----------------

  NO   OCC          E(Eh)            E(eV)
   0   2.0000     -88.968582     -2420.9582
   1   2.0000     -88.961090     -2420.7543
   2   2.0000     -10.323914      -280.9280
   3   2.0000     -10.321601      -280.8651
   4   2.0000     -10.319101      -280.7970
   5   2.0000     -10.318644      -280.7846
   6   2.0000     -10.303007      -280.3591
   7   2.0000     -10.300589      -280.2933
   8   2.0000     -10.297099      -280.1983
   9   2.0000     -10.295647      -280.1588
  10   2.0000     -10.291158      -280.0367
  11   2.0000     -10.289805      -279.9998
  12   2.0000     -10.287189      -279.9286
  13   2.0000     -10.284751      -279.8623
  14   2.0000     -10.282661      -279.8054
  15   2.0000     -10.279430      -279.7175
  16   2.0000      -8.082192      -219.9276
  17   2.0000      -8.076134      -219.7628
  18   2.0000      -6.040960      -164.3829
  19   2.0000      -6.036738      -164.2680
  20   2.0000      -6.034761      -164.2142
  21   2.0000      -6.032828      -164.1616
  22   2.0000      -6.030448      -164.0968
  23   2.0000      -6.026893      -164.0001
  24   2.0000      -1.009159       -27.4606
  25   2.0000      -0.982120       -26.7248
  26   2.0000      -0.912543       -24.8316
  27   2.0000      -0.903877       -24.5957
  28   2.0000      -0.869952       -23.6726
  29   2.0000      -0.852193       -23.1893
  30   2.0000      -0.846429       -23.0325
  31   2.0000      -0.814241       -22.1566
  32   2.0000      -0.780734       -21.2448
  33   2.0000      -0.769435       -20.9374
  34   2.0000      -0.719721       -19.5846
  35   2.0000      -0.701301       -19.0834
  36   2.0000      -0.692431       -18.8420
  37   2.0000      -0.663720       -18.0607
  38   2.0000      -0.637435       -17.3455
  39   2.0000      -0.611463       -16.6388
  40   2.0000      -0.596414       -16.2293
  41   2.0000      -0.571112       -15.5407
  42   2.0000      -0.565976       -15.4010
  43   2.0000      -0.562099       -15.2955
  44   2.0000      -0.533270       -14.5110
  45   2.0000      -0.521961       -14.2033
  46   2.0000      -0.514778       -14.0078
  47   2.0000      -0.511633       -13.9222
  48   2.0000      -0.508567       -13.8388
  49   2.0000      -0.505294       -13.7498
  50   2.0000      -0.493441       -13.4272
  51   2.0000      -0.477527       -12.9942
  52   2.0000      -0.471692       -12.8354
  53   2.0000      -0.461029       -12.5452
  54   2.0000      -0.453949       -12.3526
  55   2.0000      -0.453011       -12.3270
  56   2.0000      -0.440827       -11.9955
  57   2.0000      -0.437794       -11.9130
  58   2.0000      -0.430297       -11.7090
  59   2.0000      -0.422621       -11.5001
  60   2.0000      -0.419260       -11.4087
  61   2.0000      -0.419159       -11.4059
  62   2.0000      -0.415936       -11.3182
  63   2.0000      -0.335837        -9.1386
  64   2.0000      -0.330024        -8.9804
  65   2.0000      -0.320550        -8.7226
  66   2.0000      -0.314015        -8.5448
  67   0.0000       0.045264         1.2317
  68   0.0000       0.051418         1.3992
  69   0.0000       0.110564         3.0086
  70   0.0000       0.120140         3.2692
  71   0.0000       0.124322         3.3830

MULLIKEN ATOMIC CHARGES
-----------------------
   0 S :    0.117944
   1 C :   -0.131294
   2 C :   -0.093171
   3 C :    0.038305
   4 C :   -0.145702
   5 H :    0.013336
   6 C :    0.052688
   7 H :    0.047446
   8 H :    0.021816
   9 C :   -0.098721
  10 H :    0.027613
  11 H :    0.026060
  12 C :   -0.033910
  13 H :    0.035082
  14 H :    0.026833
  15 H :    0.033667
  16 S :    0.097480
  17 C :   -0.095187
  18 C :   -0.040672
  19 C :   -0.008638
  20 C :   -0.212470
  21 H :    0.032497
  22 C :    0.054964
  23 H :    0.019105
  24 H :    0.022593
  25 C :   -0.028441
  26 H :    0.023904
  27 H :    0.027755
  28 C :   -0.064676
  29 H :    0.038693
  30 H :    0.036155
  31 H :    0.029378
  32 H :    0.066208
  33 H :    0.063361
Sum of atomic charges:   -0.0000000

LOEWDIN ATOMIC CHARGES
----------------------
   0 S :    0.393196
   1 C :   -0.196289
   2 C :   -0.062502
   3 C :   -0.055470
   4 C :   -0.205359
   5 H :    0.032769
   6 C :   -0.027751
   7 H :    0.035387
   8 H :    0.024076
   9 C :   -0.038163
  10 H :    0.017510
  11 H :    0.020706
  12 C :   -0.066161
  13 H :    0.022980
  14 H :    0.025691
  15 H :    0.032280
  16 S :    0.405836
  17 C :   -0.177481
  18 C :   -0.074649
  19 C :   -0.056601
  20 C :   -0.208911
  21 H :    0.036993
  22 C :   -0.034858
  23 H :    0.028638
  24 H :    0.033379
  25 C :   -0.032387
  26 H :    0.022875
  27 H :    0.024992
  28 C :   -0.068031
  29 H :    0.030318
  30 H :    0.022840
  31 H :    0.027835
  32 H :    0.035171
  33 H :    0.031139

  Mayer bond orders larger than 0.100000
B(  0-S ,  1-C ) :   1.1193 B(  0-S ,  4-C ) :   1.1270 B(  1-C ,  2-C ) :   1.6319
B(  1-C , 32-H ) :   0.9518 B(  2-C ,  3-C ) :   1.2230 B(  2-C ,  6-C ) :   1.0174
B(  3-C ,  4-C ) :   1.6113 B(  3-C ,  5-H ) :   0.9961 B(  4-C , 20-C ) :   1.0188
B(  6-C ,  7-H ) :   0.9459 B(  6-C ,  8-H ) :   0.9420 B(  6-C ,  9-C ) :   1.0579
B(  9-C , 10-H ) :   0.9514 B(  9-C , 11-H ) :   0.9627 B(  9-C , 12-C ) :   1.0782
B( 12-C , 13-H ) :   0.9783 B( 12-C , 14-H ) :   0.9747 B( 12-C , 15-H ) :   0.9732
B( 16-S , 17-C ) :   1.1390 B( 16-S , 20-C ) :   1.1606 B( 17-C , 18-C ) :   1.6048
B( 17-C , 20-C ) :   0.1012 B( 17-C , 33-H ) :   0.9737 B( 18-C , 19-C ) :   1.2425
B( 18-C , 21-H ) :   0.9760 B( 19-C , 20-C ) :   1.5995 B( 19-C , 22-C ) :   1.0430
B( 22-C , 23-H ) :   0.9193 B( 22-C , 24-H ) :   0.9380 B( 22-C , 25-C ) :   1.0786
B( 25-C , 26-H ) :   0.9534 B( 25-C , 27-H ) :   0.9540 B( 25-C , 28-C ) :   1.0846
B( 28-C , 29-H ) :   0.9758 B( 28-C , 30-H ) :   0.9747 B( 28-C , 31-H ) :   0.9735

Dispersion correction           -0.013558709
FINAL SINGLE POINT ENERGY     -1339.874893945281

DIPOLE MOMENT
-------------
                                X             Y             Z
Electronic contribution:     19.05772      17.81823       4.29573
Nuclear contribution   :    -19.31424     -18.35171      -4.40102
                        -----------------------------------------
Total Dipole Moment    :     -0.25652      -0.53348      -0.10529
                        -----------------------------------------
Magnitude (a.u.)       :      0.60124
Magnitude (Debye)      :      1.52822

Rotational constants in cm-1:     0.019222     0.007390     0.006128
Rotational constants in MHz :   576.266867   221.544950   183.715071

                             ****ORCA TERMINATED NORMALLY****
TOTAL RUN TIME: 0 days 0 hours 0 minutes 19 seconds 727 msec
