                         Program Version 4.2.1 -  RELEASE  -
|  1> ! wB97X-D3 SP def2-SVP
|  2> %pal
|  3> nprocs 24
|  4> end
|  5>
|  6> * xyz 0 1
|  7> S 	 -74.5058 	 8.82789 	 -111.381
|  8> C 	 -75.5586 	 10.0546 	 -110.712
|  9> C 	 -76.255 	 9.70842 	 -109.607
| 10> C 	 -75.8342 	 8.4666 	 -109.125
| 11> C 	 -75.0072 	 7.77067 	 -110.025
| 12> H 	 -76.2643 	 7.91235 	 -108.283
| 13> C 	 -77.394 	 10.542 	 -109.008
| 14> H 	 -76.8469 	 11.4642 	 -108.864
| 15> H 	 -77.5092 	 10.2783 	 -107.997
| 16> C 	 -78.6155 	 10.5752 	 -109.809
| 17> H 	 -78.3302 	 11.2009 	 -110.658
| 18> H 	 -78.9156 	 9.58616 	 -110.208
| 19> C 	 -79.7139 	 11.2642 	 -109.03
| 20> H 	 -80.6143 	 11.321 	 -109.574
| 21> H 	 -79.975 	 10.6638 	 -108.215
| 22> H 	 -79.4418 	 12.2387 	 -108.758
| 23> S 	 -72.7661 	 6.34327 	 -109.359
| 24> C 	 -72.7804 	 4.57322 	 -109.619
| 25> C 	 -74.0805 	 4.15993 	 -109.938
| 26> C 	 -75.0276 	 5.15366 	 -110.104
| 27> C 	 -74.4837 	 6.42285 	 -109.891
| 28> H 	 -74.2426 	 3.06502 	 -109.947
| 29> C 	 -76.3812 	 4.81868 	 -110.548
| 30> H 	 -76.9506 	 5.77394 	 -110.844
| 31> H 	 -76.9922 	 4.41462 	 -109.708
| 32> C 	 -76.373 	 4.08866 	 -111.839
| 33> H 	 -76.034 	 3.07936 	 -111.788
| 34> H 	 -75.8126 	 4.62103 	 -112.538
| 35> C 	 -77.7894 	 3.73596 	 -112.254
| 36> H 	 -77.6386 	 3.28137 	 -113.252
| 37> H 	 -78.3362 	 4.67106 	 -112.529
| 38> H 	 -78.4454 	 3.03007 	 -111.639
| 39> H 	 -75.7816 	 11.0274 	 -111.223
| 40> H 	 -72.0458 	 3.91319 	 -109.209
| 41> *
| 42>
| 43>                          ****END OF INPUT****

CARTESIAN COORDINATES (ANGSTROEM)
---------------------------------
  S    -74.505800    8.827890  -111.381000
  C    -75.558600   10.054600  -110.712000
  C    -76.255000    9.708420  -109.607000
  C    -75.834200    8.466600  -109.125000
  C    -75.007200    7.770670  -110.025000
  H    -76.264300    7.912350  -108.283000
  C    -77.394000   10.542000  -109.008000
  H    -76.846900   11.464200  -108.864000
  H    -77.509200   10.278300  -107.997000
  C    -78.615500   10.575200  -109.809000
  H    -78.330200   11.200900  -110.658000
  H    -78.915600    9.586160  -110.208000
  C    -79.713900   11.264200  -109.030000
  H    -80.614300   11.321000  -109.574000
  H    -79.975000   10.663800  -108.215000
  H    -79.441800   12.238700  -108.758000
  S    -72.766100    6.343270  -109.359000
  C    -72.780400    4.573220  -109.619000
  C    -74.080500    4.159930  -109.938000
  C    -75.027600    5.153660  -110.104000
  C    -74.483700    6.422850  -109.891000
  H    -74.242600    3.065020  -109.947000
  C    -76.381200    4.818680  -110.548000
  H    -76.950600    5.773940  -110.844000
  H    -76.992200    4.414620  -109.708000
  C    -76.373000    4.088660  -111.839000
  H    -76.034000    3.079360  -111.788000
  H    -75.812600    4.621030  -112.538000
  C    -77.789400    3.735960  -112.254000
  H    -77.638600    3.281370  -113.252000
  H    -78.336200    4.671060  -112.529000
  H    -78.445400    3.030070  -111.639000
  H    -75.781600   11.027400  -111.223000
  H    -72.045800    3.913190  -109.209000

 Total Charge           Charge          ....    0
 Multiplicity           Mult            ....    1
 Number of Electrons    NEL             ....  134
 Basis Dimension        Dim             ....  322

ORBITAL ENERGIES
----------------

  NO   OCC          E(Eh)            E(eV)
   0   2.0000     -88.967374     -2420.9253
   1   2.0000     -88.962249     -2420.7859
   2   2.0000     -10.328784      -281.0605
   3   2.0000     -10.327113      -281.0150
   4   2.0000     -10.316996      -280.7397
   5   2.0000     -10.309733      -280.5421
   6   2.0000     -10.297704      -280.2148
   7   2.0000     -10.293749      -280.1071
   8   2.0000     -10.291836      -280.0551
   9   2.0000     -10.291504      -280.0461
  10   2.0000     -10.290117      -280.0083
  11   2.0000     -10.284287      -279.8497
  12   2.0000     -10.284066      -279.8437
  13   2.0000     -10.282095      -279.7900
  14   2.0000     -10.275360      -279.6067
  15   2.0000     -10.265434      -279.3367
  16   2.0000      -8.081374      -219.9054
  17   2.0000      -8.075733      -219.7519
  18   2.0000      -6.039794      -164.3511
  19   2.0000      -6.036159      -164.2522
  20   2.0000      -6.034198      -164.1989
  21   2.0000      -6.032110      -164.1421
  22   2.0000      -6.030480      -164.0977
  23   2.0000      -6.026545      -163.9906
  24   2.0000      -1.000937       -27.2369
  25   2.0000      -0.981351       -26.7039
  26   2.0000      -0.924859       -25.1667
  27   2.0000      -0.920192       -25.0397
  28   2.0000      -0.867959       -23.6184
  29   2.0000      -0.853187       -23.2164
  30   2.0000      -0.849542       -23.1172
  31   2.0000      -0.811026       -22.0691
  32   2.0000      -0.784661       -21.3517
  33   2.0000      -0.768400       -20.9092
  34   2.0000      -0.710003       -19.3202
  35   2.0000      -0.702215       -19.1082
  36   2.0000      -0.696555       -18.9542
  37   2.0000      -0.656547       -17.8656
  38   2.0000      -0.635553       -17.2943
  39   2.0000      -0.613691       -16.6994
  40   2.0000      -0.599244       -16.3063
  41   2.0000      -0.578357       -15.7379
  42   2.0000      -0.576909       -15.6985
  43   2.0000      -0.563351       -15.3296
  44   2.0000      -0.533936       -14.5291
  45   2.0000      -0.530394       -14.4327
  46   2.0000      -0.517037       -14.0693
  47   2.0000      -0.514839       -14.0095
  48   2.0000      -0.502934       -13.6855
  49   2.0000      -0.498912       -13.5761
  50   2.0000      -0.483481       -13.1562
  51   2.0000      -0.471254       -12.8235
  52   2.0000      -0.467552       -12.7227
  53   2.0000      -0.464350       -12.6356
  54   2.0000      -0.453973       -12.3532
  55   2.0000      -0.451748       -12.2927
  56   2.0000      -0.446097       -12.1389
  57   2.0000      -0.443543       -12.0694
  58   2.0000      -0.434513       -11.8237
  59   2.0000      -0.426413       -11.6033
  60   2.0000      -0.416014       -11.3203
  61   2.0000      -0.411071       -11.1858
  62   2.0000      -0.404338       -11.0026
  63   2.0000      -0.339537        -9.2393
  64   2.0000      -0.328657        -8.9432
  65   2.0000      -0.319324        -8.6892
  66   2.0000      -0.300072        -8.1654
  67   0.0000       0.035671         0.9707
  68   0.0000       0.050241         1.3671
  69   0.0000       0.111773         3.0415
  70   0.0000       0.117762         3.2045
  71   0.0000       0.136415         3.7120

MULLIKEN ATOMIC CHARGES
-----------------------
   0 S :    0.123052
   1 C :   -0.146082
   2 C :   -0.105202
   3 C :    0.052220
   4 C :   -0.196372
   5 H :    0.018303
   6 C :    0.098964
   7 H :    0.023391
   8 H :   -0.011205
   9 C :   -0.054646
  10 H :    0.020094
  11 H :    0.039223
  12 C :    0.030634
  13 H :    0.015125
  14 H :    0.014570
  15 H :    0.016675
  16 S :    0.095544
  17 C :   -0.089182
  18 C :   -0.073975
  19 C :    0.041301
  20 C :   -0.199177
  21 H :    0.031834
  22 C :    0.042195
  23 H :    0.029007
  24 H :    0.044015
  25 C :   -0.053012
  26 H :    0.021220
  27 H :    0.028958
  28 C :   -0.080515
  29 H :    0.027608
  30 H :    0.024503
  31 H :    0.057888
  32 H :    0.055437
  33 H :    0.057606
Sum of atomic charges:    0.0000000

LOEWDIN ATOMIC CHARGES
----------------------
   0 S :    0.393054
   1 C :   -0.202614
   2 C :   -0.069826
   3 C :   -0.054252
   4 C :   -0.192618
   5 H :    0.035402
   6 C :   -0.030663
   7 H :    0.035964
   8 H :    0.018564
   9 C :   -0.037775
  10 H :    0.025970
  11 H :    0.030706
  12 C :   -0.048042
  13 H :    0.022017
  14 H :    0.019850
  15 H :    0.020817
  16 S :    0.374910
  17 C :   -0.176169
  18 C :   -0.070133
  19 C :   -0.061964
  20 C :   -0.186646
  21 H :    0.036554
  22 C :   -0.041419
  23 H :    0.039826
  24 H :    0.038530
  25 C :   -0.037009
  26 H :    0.021581
  27 H :    0.025141
  28 C :   -0.073777
  29 H :    0.028411
  30 H :    0.021558
  31 H :    0.036247
  32 H :    0.032782
  33 H :    0.025024

  Mayer bond orders larger than 0.100000
B(  0-S ,  1-C ) :   1.1388 B(  0-S ,  4-C ) :   1.1406 B(  1-C ,  2-C ) :   1.6399
B(  1-C ,  4-C ) :   0.1001 B(  1-C , 32-H ) :   0.9520 B(  2-C ,  3-C ) :   1.2541
B(  2-C ,  6-C ) :   0.9902 B(  3-C ,  4-C ) :   1.5842 B(  3-C ,  5-H ) :   0.9871
B(  4-C , 20-C ) :   1.0315 B(  6-C ,  7-H ) :   0.9292 B(  6-C ,  8-H ) :   0.9375
B(  6-C ,  9-C ) :   1.0570 B(  9-C , 10-H ) :   0.9465 B(  9-C , 11-H ) :   0.9573
B(  9-C , 12-C ) :   1.0967 B( 12-C , 13-H ) :   0.9691 B( 12-C , 14-H ) :   0.9721
B( 12-C , 15-H ) :   0.9693 B( 16-S , 17-C ) :   1.1459 B( 16-S , 20-C ) :   1.1524
B( 17-C , 18-C ) :   1.6087 B( 17-C , 20-C ) :   0.1167 B( 17-C , 33-H ) :   0.9651
B( 18-C , 19-C ) :   1.2457 B( 18-C , 21-H ) :   0.9809 B( 19-C , 20-C ) :   1.5708
B( 19-C , 22-C ) :   1.0563 B( 22-C , 23-H ) :   0.9295 B( 22-C , 24-H ) :   0.9276
B( 22-C , 25-C ) :   1.0732 B( 25-C , 26-H ) :   0.9472 B( 25-C , 27-H ) :   0.9527
B( 25-C , 28-C ) :   1.0820 B( 28-C , 29-H ) :   0.9723 B( 28-C , 30-H ) :   0.9686
B( 28-C , 31-H ) :   0.9739

Dispersion correction           -0.013678163
FINAL SINGLE POINT ENERGY     -1339.846732559193

DIPOLE MOMENT
-------------
                                X             Y             Z
Electronic contribution:     27.84205       0.27415       1.85816
Nuclear contribution   :    -28.58282      -0.42463      -1.72198
                        -----------------------------------------
Total Dipole Moment    :     -0.74077      -0.15048       0.13619
                        -----------------------------------------
Magnitude (a.u.)       :      0.76807
Magnitude (Debye)      :      1.95228

Rotational constants in cm-1:     0.018408     0.008016     0.006413
Rotational constants in MHz :   551.866322   240.314184   192.253525

                             ****ORCA TERMINATED NORMALLY****
TOTAL RUN TIME: 0 days 0 hours 0 minutes 21 seconds 215 msec
