                         Program Version 4.2.1 -  RELEASE  -
|  1> ! wB97X-D3 SP def2-SVP
|  2> %pal
|  3> nprocs 24
|  4> end
|  5>
|  6> * xyz 0 1
|  7> S 	 -122.196 	 33.6179 	 -107.796
|  8> C 	 -121.79 	 32.1156 	 -108.629
|  9> C 	 -122.778 	 31.7218 	 -109.511
| 10> C 	 -123.954 	 32.5377 	 -109.325
| 11> C 	 -123.78 	 33.576 	 -108.402
| 12> H 	 -124.885 	 32.4179 	 -109.804
| 13> C 	 -122.774 	 30.5418 	 -110.426
| 14> H 	 -123.436 	 29.845 	 -109.899
| 15> H 	 -121.757 	 30.1565 	 -110.54
| 16> C 	 -123.216 	 30.8684 	 -111.92
| 17> H 	 -124.139 	 31.3595 	 -111.902
| 18> H 	 -122.609 	 31.6897 	 -112.226
| 19> C 	 -123.244 	 29.608 	 -112.889
| 20> H 	 -122.436 	 28.9648 	 -112.74
| 21> H 	 -124.216 	 29.1332 	 -112.723
| 22> H 	 -123.267 	 29.918 	 -113.928
| 23> S 	 -124.634 	 34.9076 	 -106.074
| 24> C 	 -125.932 	 36.0345 	 -106.173
| 25> C 	 -126.559 	 35.9549 	 -107.465
| 26> C 	 -125.847 	 35.0945 	 -108.358
| 27> C 	 -124.761 	 34.4202 	 -107.772
| 28> H 	 -127.28 	 36.6844 	 -107.809
| 29> C 	 -126.335 	 35.11 	 -109.815
| 30> H 	 -125.438 	 34.8198 	 -110.451
| 31> H 	 -126.531 	 36.0698 	 -110.072
| 32> C 	 -127.526 	 34.1972 	 -110.2
| 33> H 	 -128.418 	 34.3877 	 -109.559
| 34> H 	 -127.281 	 33.2674 	 -109.825
| 35> C 	 -127.793 	 34.1679 	 -111.677
| 36> H 	 -128.078 	 35.1282 	 -112.04
| 37> H 	 -128.565 	 33.4373 	 -112.046
| 38> H 	 -126.899 	 33.8901 	 -112.24
| 39> H 	 -120.748 	 31.8891 	 -108.845
| 40> H 	 -126.271 	 36.6795 	 -105.388
| 41> *
| 42>
| 43>                          ****END OF INPUT****

CARTESIAN COORDINATES (ANGSTROEM)
---------------------------------
  S    -122.196000   33.617900  -107.796000
  C    -121.790000   32.115600  -108.629000
  C    -122.778000   31.721800  -109.511000
  C    -123.954000   32.537700  -109.325000
  C    -123.780000   33.576000  -108.402000
  H    -124.885000   32.417900  -109.804000
  C    -122.774000   30.541800  -110.426000
  H    -123.436000   29.845000  -109.899000
  H    -121.757000   30.156500  -110.540000
  C    -123.216000   30.868400  -111.920000
  H    -124.139000   31.359500  -111.902000
  H    -122.609000   31.689700  -112.226000
  C    -123.244000   29.608000  -112.889000
  H    -122.436000   28.964800  -112.740000
  H    -124.216000   29.133200  -112.723000
  H    -123.267000   29.918000  -113.928000
  S    -124.634000   34.907600  -106.074000
  C    -125.932000   36.034500  -106.173000
  C    -126.559000   35.954900  -107.465000
  C    -125.847000   35.094500  -108.358000
  C    -124.761000   34.420200  -107.772000
  H    -127.280000   36.684400  -107.809000
  C    -126.335000   35.110000  -109.815000
  H    -125.438000   34.819800  -110.451000
  H    -126.531000   36.069800  -110.072000
  C    -127.526000   34.197200  -110.200000
  H    -128.418000   34.387700  -109.559000
  H    -127.281000   33.267400  -109.825000
  C    -127.793000   34.167900  -111.677000
  H    -128.078000   35.128200  -112.040000
  H    -128.565000   33.437300  -112.046000
  H    -126.899000   33.890100  -112.240000
  H    -120.748000   31.889100  -108.845000
  H    -126.271000   36.679500  -105.388000

 Total Charge           Charge          ....    0
 Multiplicity           Mult            ....    1
 Number of Electrons    NEL             ....  134
 Basis Dimension        Dim             ....  322

ORBITAL ENERGIES
----------------

  NO   OCC          E(Eh)            E(eV)
   0   2.0000     -88.971981     -2421.0507
   1   2.0000     -88.964665     -2420.8516
   2   2.0000     -10.330399      -281.1044
   3   2.0000     -10.328771      -281.0602
   4   2.0000     -10.322396      -280.8867
   5   2.0000     -10.309621      -280.5391
   6   2.0000     -10.305458      -280.4258
   7   2.0000     -10.304639      -280.4035
   8   2.0000     -10.297494      -280.2090
   9   2.0000     -10.297362      -280.2055
  10   2.0000     -10.292729      -280.0794
  11   2.0000     -10.289833      -280.0006
  12   2.0000     -10.288347      -279.9602
  13   2.0000     -10.283434      -279.8265
  14   2.0000     -10.282077      -279.7895
  15   2.0000     -10.280542      -279.7478
  16   2.0000      -8.086208      -220.0369
  17   2.0000      -8.080373      -219.8781
  18   2.0000      -6.044710      -164.4849
  19   2.0000      -6.040546      -164.3716
  20   2.0000      -6.038788      -164.3238
  21   2.0000      -6.037236      -164.2816
  22   2.0000      -6.034753      -164.2140
  23   2.0000      -6.031157      -164.1161
  24   2.0000      -1.009449       -27.4685
  25   2.0000      -0.982574       -26.7372
  26   2.0000      -0.912402       -24.8277
  27   2.0000      -0.909798       -24.7569
  28   2.0000      -0.867785       -23.6136
  29   2.0000      -0.856343       -23.3023
  30   2.0000      -0.843926       -22.9644
  31   2.0000      -0.810351       -22.0508
  32   2.0000      -0.784849       -21.3568
  33   2.0000      -0.775048       -21.0901
  34   2.0000      -0.718266       -19.5450
  35   2.0000      -0.710272       -19.3275
  36   2.0000      -0.696174       -18.9439
  37   2.0000      -0.664990       -18.0953
  38   2.0000      -0.639516       -17.4021
  39   2.0000      -0.622125       -16.9289
  40   2.0000      -0.595402       -16.2017
  41   2.0000      -0.566175       -15.4064
  42   2.0000      -0.563828       -15.3426
  43   2.0000      -0.560849       -15.2615
  44   2.0000      -0.526061       -14.3148
  45   2.0000      -0.522401       -14.2153
  46   2.0000      -0.518376       -14.1057
  47   2.0000      -0.513407       -13.9705
  48   2.0000      -0.509265       -13.8578
  49   2.0000      -0.505034       -13.7427
  50   2.0000      -0.495260       -13.4767
  51   2.0000      -0.483811       -13.1652
  52   2.0000      -0.476286       -12.9604
  53   2.0000      -0.467074       -12.7097
  54   2.0000      -0.459701       -12.5091
  55   2.0000      -0.452218       -12.3055
  56   2.0000      -0.440625       -11.9900
  57   2.0000      -0.437741       -11.9115
  58   2.0000      -0.432811       -11.7774
  59   2.0000      -0.429084       -11.6760
  60   2.0000      -0.426601       -11.6084
  61   2.0000      -0.419183       -11.4065
  62   2.0000      -0.415704       -11.3119
  63   2.0000      -0.354464        -9.6455
  64   2.0000      -0.333199        -9.0668
  65   2.0000      -0.329359        -8.9623
  66   2.0000      -0.284154        -7.7322
  67   0.0000       0.019517         0.5311
  68   0.0000       0.074836         2.0364
  69   0.0000       0.106328         2.8933
  70   0.0000       0.118367         3.2209
  71   0.0000       0.125303         3.4097

MULLIKEN ATOMIC CHARGES
-----------------------
   0 S :    0.100369
   1 C :   -0.119312
   2 C :   -0.106337
   3 C :    0.030926
   4 C :   -0.149760
   5 H :   -0.017009
   6 C :    0.065109
   7 H :    0.053295
   8 H :    0.022716
   9 C :   -0.088616
  10 H :    0.009551
  11 H :    0.021755
  12 C :   -0.015468
  13 H :    0.029402
  14 H :    0.037033
  15 H :    0.034375
  16 S :    0.126278
  17 C :   -0.104927
  18 C :   -0.022140
  19 C :   -0.066645
  20 C :   -0.119136
  21 H :    0.026725
  22 C :    0.052659
  23 H :    0.025605
  24 H :   -0.003475
  25 C :   -0.015834
  26 H :    0.023542
  27 H :   -0.003363
  28 C :   -0.033287
  29 H :    0.021671
  30 H :    0.042070
  31 H :    0.023137
  32 H :    0.056681
  33 H :    0.062412
Sum of atomic charges:   -0.0000000

LOEWDIN ATOMIC CHARGES
----------------------
   0 S :    0.421926
   1 C :   -0.209921
   2 C :   -0.054206
   3 C :   -0.064664
   4 C :   -0.197199
   5 H :    0.018472
   6 C :   -0.028917
   7 H :    0.039604
   8 H :    0.029872
   9 C :   -0.034209
  10 H :    0.012356
  11 H :    0.021494
  12 C :   -0.055000
  13 H :    0.016969
  14 H :    0.031327
  15 H :    0.029150
  16 S :    0.423095
  17 C :   -0.194789
  18 C :   -0.072065
  19 C :   -0.052816
  20 C :   -0.205373
  21 H :    0.030552
  22 C :   -0.022700
  23 H :    0.034935
  24 H :    0.011389
  25 C :   -0.040286
  26 H :    0.029440
  27 H :    0.010894
  28 C :   -0.065312
  29 H :    0.020261
  30 H :    0.034647
  31 H :    0.025705
  32 H :    0.026897
  33 H :    0.028474

  Mayer bond orders larger than 0.100000
B(  0-S ,  1-C ) :   1.1265 B(  0-S ,  4-C ) :   1.1750 B(  1-C ,  2-C ) :   1.6151
B(  1-C , 32-H ) :   0.9547 B(  2-C ,  3-C ) :   1.2384 B(  2-C ,  6-C ) :   1.0309
B(  3-C ,  4-C ) :   1.5362 B(  3-C ,  5-H ) :   0.9987 B(  4-C , 20-C ) :   1.0712
B(  6-C ,  7-H ) :   0.9400 B(  6-C ,  8-H ) :   0.9415 B(  6-C ,  9-C ) :   1.0474
B(  9-C , 10-H ) :   0.9595 B(  9-C , 11-H ) :   0.9590 B(  9-C , 12-C ) :   1.0686
B( 12-C , 13-H ) :   0.9802 B( 12-C , 14-H ) :   0.9777 B( 12-C , 15-H ) :   0.9765
B( 16-S , 17-C ) :   1.1843 B( 16-S , 20-C ) :   1.1352 B( 17-C , 18-C ) :   1.5446
B( 17-C , 20-C ) :   0.1037 B( 17-C , 33-H ) :   0.9716 B( 18-C , 19-C ) :   1.2977
B( 18-C , 21-H ) :   0.9843 B( 19-C , 20-C ) :   1.5463 B( 19-C , 22-C ) :   1.0464
B( 22-C , 23-H ) :   0.9321 B( 22-C , 24-H ) :   0.9348 B( 22-C , 25-C ) :   1.0552
B( 25-C , 26-H ) :   0.9472 B( 25-C , 27-H ) :   0.9478 B( 25-C , 28-C ) :   1.0829
B( 28-C , 29-H ) :   0.9747 B( 28-C , 30-H ) :   0.9727 B( 28-C , 31-H ) :   0.9708

Dispersion correction           -0.013967549
FINAL SINGLE POINT ENERGY     -1339.865606032878

DIPOLE MOMENT
-------------
                                X             Y             Z
Electronic contribution:     11.55575      12.36207      29.18013
Nuclear contribution   :    -11.87926     -12.41160     -29.86640
                        -----------------------------------------
Total Dipole Moment    :     -0.32352      -0.04953      -0.68627
                        -----------------------------------------
Magnitude (a.u.)       :      0.76032
Magnitude (Debye)      :      1.93258

Rotational constants in cm-1:     0.017018     0.009345     0.006257
Rotational constants in MHz :   510.178109   280.154879   187.581762

                             ****ORCA TERMINATED NORMALLY****
TOTAL RUN TIME: 0 days 0 hours 0 minutes 20 seconds 340 msec
