                         Program Version 4.2.1 -  RELEASE  -
|  1> ! wB97X-D3 SP def2-SVP
|  2> %pal
|  3> nprocs 24
|  4> end
|  5>
|  6> * xyz 0 1
|  7> S 	 23.2096 	 -23.2547 	 -122.854
|  8> C 	 22.9314 	 -24.6182 	 -123.941
|  9> C 	 22.9136 	 -25.828 	 -123.295
| 10> C 	 23.2035 	 -25.6779 	 -121.912
| 11> C 	 23.4935 	 -24.3973 	 -121.547
| 12> H 	 23.2353 	 -26.4626 	 -121.192
| 13> C 	 22.5773 	 -27.1794 	 -123.937
| 14> H 	 23.0613 	 -27.9569 	 -123.299
| 15> H 	 23.1502 	 -27.2786 	 -124.921
| 16> C 	 21.1057 	 -27.5047 	 -124.044
| 17> H 	 20.5916 	 -27.4 	 -123.082
| 18> H 	 20.7011 	 -26.811 	 -124.793
| 19> C 	 20.7628 	 -28.8785 	 -124.577
| 20> H 	 21.125 	 -29.5489 	 -123.802
| 21> H 	 19.6791 	 -29.0066 	 -124.74
| 22> H 	 21.2582 	 -29.04 	 -125.527
| 23> S 	 25.2132 	 -23.1307 	 -119.995
| 24> C 	 25.1292 	 -23.2137 	 -118.228
| 25> C 	 24.165 	 -24.1337 	 -117.819
| 26> C 	 23.2995 	 -24.5628 	 -118.89
| 27> C 	 23.7892 	 -24.0883 	 -120.139
| 28> H 	 24.0805 	 -24.3385 	 -116.811
| 29> C 	 22.1428 	 -25.4864 	 -118.795
| 30> H 	 22.3982 	 -26.4492 	 -119.18
| 31> H 	 21.3434 	 -25.1669 	 -119.494
| 32> C 	 21.5013 	 -25.6397 	 -117.42
| 33> H 	 21.066 	 -24.7143 	 -117.126
| 34> H 	 22.2898 	 -25.8771 	 -116.667
| 35> C 	 20.4634 	 -26.8091 	 -117.51
| 36> H 	 20.0198 	 -26.9672 	 -116.491
| 37> H 	 20.8354 	 -27.8209 	 -117.748
| 38> H 	 19.7382 	 -26.6015 	 -118.255
| 39> H 	 22.6946 	 -24.5121 	 -125.005
| 40> H 	 25.8284 	 -22.776 	 -117.518
| 41> *
| 42>
| 43>                          ****END OF INPUT****

CARTESIAN COORDINATES (ANGSTROEM)
---------------------------------
  S     23.209600  -23.254700  -122.854000
  C     22.931400  -24.618200  -123.941000
  C     22.913600  -25.828000  -123.295000
  C     23.203500  -25.677900  -121.912000
  C     23.493500  -24.397300  -121.547000
  H     23.235300  -26.462600  -121.192000
  C     22.577300  -27.179400  -123.937000
  H     23.061300  -27.956900  -123.299000
  H     23.150200  -27.278600  -124.921000
  C     21.105700  -27.504700  -124.044000
  H     20.591600  -27.400000  -123.082000
  H     20.701100  -26.811000  -124.793000
  C     20.762800  -28.878500  -124.577000
  H     21.125000  -29.548900  -123.802000
  H     19.679100  -29.006600  -124.740000
  H     21.258200  -29.040000  -125.527000
  S     25.213200  -23.130700  -119.995000
  C     25.129200  -23.213700  -118.228000
  C     24.165000  -24.133700  -117.819000
  C     23.299500  -24.562800  -118.890000
  C     23.789200  -24.088300  -120.139000
  H     24.080500  -24.338500  -116.811000
  C     22.142800  -25.486400  -118.795000
  H     22.398200  -26.449200  -119.180000
  H     21.343400  -25.166900  -119.494000
  C     21.501300  -25.639700  -117.420000
  H     21.066000  -24.714300  -117.126000
  H     22.289800  -25.877100  -116.667000
  C     20.463400  -26.809100  -117.510000
  H     20.019800  -26.967200  -116.491000
  H     20.835400  -27.820900  -117.748000
  H     19.738200  -26.601500  -118.255000
  H     22.694600  -24.512100  -125.005000
  H     25.828400  -22.776000  -117.518000

 Total Charge           Charge          ....    0
 Multiplicity           Mult            ....    1
 Number of Electrons    NEL             ....  134
 Basis Dimension        Dim             ....  322

ORBITAL ENERGIES
----------------

  NO   OCC          E(Eh)            E(eV)
   0   2.0000     -88.970256     -2421.0037
   1   2.0000     -88.964104     -2420.8363
   2   2.0000     -10.326670      -281.0030
   3   2.0000     -10.324355      -280.9400
   4   2.0000     -10.316692      -280.7315
   5   2.0000     -10.315289      -280.6933
   6   2.0000     -10.306190      -280.4457
   7   2.0000     -10.301082      -280.3067
   8   2.0000     -10.300360      -280.2871
   9   2.0000     -10.292519      -280.0737
  10   2.0000     -10.290198      -280.0105
  11   2.0000     -10.288175      -279.9555
  12   2.0000     -10.287938      -279.9490
  13   2.0000     -10.285710      -279.8884
  14   2.0000     -10.283717      -279.8342
  15   2.0000     -10.278676      -279.6970
  16   2.0000      -8.084401      -219.9877
  17   2.0000      -8.078937      -219.8390
  18   2.0000      -6.043018      -164.4389
  19   2.0000      -6.039139      -164.3333
  20   2.0000      -6.037363      -164.2850
  21   2.0000      -6.034928      -164.2187
  22   2.0000      -6.033332      -164.1753
  23   2.0000      -6.029879      -164.0813
  24   2.0000      -1.006250       -27.3815
  25   2.0000      -0.981428       -26.7060
  26   2.0000      -0.914948       -24.8970
  27   2.0000      -0.912063       -24.8185
  28   2.0000      -0.870330       -23.6829
  29   2.0000      -0.854218       -23.2445
  30   2.0000      -0.846210       -23.0265
  31   2.0000      -0.814853       -22.1733
  32   2.0000      -0.780578       -21.2406
  33   2.0000      -0.767986       -20.8980
  34   2.0000      -0.712162       -19.3789
  35   2.0000      -0.697408       -18.9774
  36   2.0000      -0.692556       -18.8454
  37   2.0000      -0.656616       -17.8674
  38   2.0000      -0.640397       -17.4261
  39   2.0000      -0.621432       -16.9100
  40   2.0000      -0.598097       -16.2750
  41   2.0000      -0.575966       -15.6728
  42   2.0000      -0.568912       -15.4809
  43   2.0000      -0.563383       -15.3304
  44   2.0000      -0.528374       -14.3778
  45   2.0000      -0.525531       -14.3004
  46   2.0000      -0.516430       -14.0528
  47   2.0000      -0.510999       -13.9050
  48   2.0000      -0.502448       -13.6723
  49   2.0000      -0.496694       -13.5157
  50   2.0000      -0.488333       -13.2882
  51   2.0000      -0.479456       -13.0467
  52   2.0000      -0.474852       -12.9214
  53   2.0000      -0.467405       -12.7187
  54   2.0000      -0.458523       -12.4770
  55   2.0000      -0.451829       -12.2949
  56   2.0000      -0.447446       -12.1756
  57   2.0000      -0.439985       -11.9726
  58   2.0000      -0.435646       -11.8545
  59   2.0000      -0.427121       -11.6226
  60   2.0000      -0.426442       -11.6041
  61   2.0000      -0.414692       -11.2844
  62   2.0000      -0.411132       -11.1875
  63   2.0000      -0.346522        -9.4293
  64   2.0000      -0.334419        -9.1000
  65   2.0000      -0.326447        -8.8831
  66   2.0000      -0.289371        -7.8742
  67   0.0000       0.029201         0.7946
  68   0.0000       0.070452         1.9171
  69   0.0000       0.110168         2.9978
  70   0.0000       0.117326         3.1926
  71   0.0000       0.131663         3.5827

MULLIKEN ATOMIC CHARGES
-----------------------
   0 S :    0.121796
   1 C :   -0.136146
   2 C :   -0.047805
   3 C :    0.010593
   4 C :   -0.114413
   5 H :   -0.005695
   6 C :    0.028951
   7 H :    0.016449
   8 H :    0.040308
   9 C :   -0.070546
  10 H :    0.032486
  11 H :    0.023593
  12 C :   -0.035155
  13 H :    0.028285
  14 H :    0.044022
  15 H :    0.027064
  16 S :    0.107174
  17 C :   -0.091094
  18 C :   -0.032296
  19 C :   -0.004351
  20 C :   -0.171900
  21 H :   -0.005437
  22 C :    0.019979
  23 H :    0.024399
  24 H :    0.038768
  25 C :   -0.072041
  26 H :    0.032751
  27 H :    0.035751
  28 C :   -0.049413
  29 H :    0.038391
  30 H :    0.030796
  31 H :    0.027039
  32 H :    0.050642
  33 H :    0.057055
Sum of atomic charges:    0.0000000

LOEWDIN ATOMIC CHARGES
----------------------
   0 S :    0.396007
   1 C :   -0.189921
   2 C :   -0.063415
   3 C :   -0.055194
   4 C :   -0.200482
   5 H :    0.025961
   6 C :   -0.038465
   7 H :    0.027787
   8 H :    0.038645
   9 C :   -0.046711
  10 H :    0.026866
  11 H :    0.023199
  12 C :   -0.062172
  13 H :    0.023221
  14 H :    0.031243
  15 H :    0.022555
  16 S :    0.417833
  17 C :   -0.186576
  18 C :   -0.061358
  19 C :   -0.056558
  20 C :   -0.199615
  21 H :    0.017893
  22 C :   -0.041798
  23 H :    0.024122
  24 H :    0.040003
  25 C :   -0.033687
  26 H :    0.022410
  27 H :    0.025497
  28 C :   -0.065819
  29 H :    0.031564
  30 H :    0.026754
  31 H :    0.019385
  32 H :    0.030607
  33 H :    0.030219

  Mayer bond orders larger than 0.100000
B(  0-S ,  1-C ) :   1.1275 B(  0-S ,  4-C ) :   1.1376 B(  1-C ,  2-C ) :   1.6274
B(  1-C , 32-H ) :   0.9641 B(  2-C ,  3-C ) :   1.2358 B(  2-C ,  6-C ) :   1.0167
B(  3-C ,  4-C ) :   1.5767 B(  3-C ,  5-H ) :   1.0035 B(  4-C , 20-C ) :   1.0305
B(  6-C ,  7-H ) :   0.9392 B(  6-C ,  8-H ) :   0.9392 B(  6-C ,  9-C ) :   1.0690
B(  9-C , 10-H ) :   0.9544 B(  9-C , 11-H ) :   0.9522 B(  9-C , 12-C ) :   1.0873
B( 12-C , 13-H ) :   0.9757 B( 12-C , 14-H ) :   0.9737 B( 12-C , 15-H ) :   0.9728
B( 16-S , 17-C ) :   1.1522 B( 16-S , 20-C ) :   1.1708 B( 17-C , 18-C ) :   1.6053
B( 17-C , 20-C ) :   0.1033 B( 17-C , 33-H ) :   0.9653 B( 18-C , 19-C ) :   1.2426
B( 18-C , 21-H ) :   0.9972 B( 19-C , 20-C ) :   1.5586 B( 19-C , 22-C ) :   1.0435
B( 22-C , 23-H ) :   0.9307 B( 22-C , 24-H ) :   0.9281 B( 22-C , 25-C ) :   1.0714
B( 25-C , 26-H ) :   0.9584 B( 25-C , 27-H ) :   0.9493 B( 25-C , 28-C ) :   1.0789
B( 28-C , 29-H ) :   0.9742 B( 28-C , 30-H ) :   0.9753 B( 28-C , 31-H ) :   0.9750

Dispersion correction           -0.013546719
FINAL SINGLE POINT ENERGY     -1339.881999524199

DIPOLE MOMENT
-------------
                                X             Y             Z
Electronic contribution:     19.45159      25.75696      -2.20021
Nuclear contribution   :    -19.83575     -26.42683       2.32767
                        -----------------------------------------
Total Dipole Moment    :     -0.38416      -0.66987       0.12746
                        -----------------------------------------
Magnitude (a.u.)       :      0.78266
Magnitude (Debye)      :      1.98935

Rotational constants in cm-1:     0.016453     0.008913     0.006214
Rotational constants in MHz :   493.262825   267.210455   186.278214

                             ****ORCA TERMINATED NORMALLY****
TOTAL RUN TIME: 0 days 0 hours 0 minutes 21 seconds 175 msec
