                         Program Version 4.2.1 -  RELEASE  -
|  1> ! wB97X-D3 SP def2-SVP
|  2> %pal
|  3> nprocs 24
|  4> end
|  5>
|  6> * xyz 0 1
|  7> S 	 28.8786 	 -30.6872 	 -130.973
|  8> C 	 27.6088 	 -29.8857 	 -131.941
|  9> C 	 27.3466 	 -28.6198 	 -131.429
| 10> C 	 28.1609 	 -28.3409 	 -130.289
| 11> C 	 28.9803 	 -29.3435 	 -129.919
| 12> H 	 28.0002 	 -27.4385 	 -129.706
| 13> C 	 26.4586 	 -27.5941 	 -132.016
| 14> H 	 25.897 	 -27.0676 	 -131.225
| 15> H 	 25.7064 	 -28.1442 	 -132.565
| 16> C 	 27.0004 	 -26.5685 	 -133.001
| 17> H 	 27.7894 	 -25.8856 	 -132.572
| 18> H 	 27.2779 	 -27.0851 	 -133.902
| 19> C 	 25.8698 	 -25.5848 	 -133.47
| 20> H 	 24.9914 	 -26.1387 	 -133.908
| 21> H 	 25.6106 	 -24.8589 	 -132.722
| 22> H 	 26.1365 	 -24.903 	 -134.238
| 23> S 	 29.8571 	 -30.6443 	 -127.669
| 24> C 	 31.2492 	 -30.0727 	 -126.838
| 25> C 	 31.8211 	 -28.9802 	 -127.402
| 26> C 	 31.1202 	 -28.5698 	 -128.578
| 27> C 	 30.0131 	 -29.3463 	 -128.824
| 28> H 	 32.6733 	 -28.5779 	 -126.92
| 29> C 	 31.6919 	 -27.5019 	 -129.429
| 30> H 	 31.9786 	 -26.7188 	 -128.801
| 31> H 	 30.8636 	 -27.0224 	 -129.912
| 32> C 	 32.5752 	 -27.8396 	 -130.684
| 33> H 	 31.9803 	 -28.4287 	 -131.441
| 34> H 	 33.29 	 -28.6149 	 -130.432
| 35> C 	 33.4586 	 -26.6468 	 -131.213
| 36> H 	 32.77 	 -25.8752 	 -131.427
| 37> H 	 34.0721 	 -26.9271 	 -132.048
| 38> H 	 34.0236 	 -26.2203 	 -130.392
| 39> H 	 27.1358 	 -30.3333 	 -132.765
| 40> H 	 31.722 	 -30.6271 	 -126.035
| 41> *
| 42>
| 43>                          ****END OF INPUT****

CARTESIAN COORDINATES (ANGSTROEM)
---------------------------------
  S     28.878600  -30.687200  -130.973000
  C     27.608800  -29.885700  -131.941000
  C     27.346600  -28.619800  -131.429000
  C     28.160900  -28.340900  -130.289000
  C     28.980300  -29.343500  -129.919000
  H     28.000200  -27.438500  -129.706000
  C     26.458600  -27.594100  -132.016000
  H     25.897000  -27.067600  -131.225000
  H     25.706400  -28.144200  -132.565000
  C     27.000400  -26.568500  -133.001000
  H     27.789400  -25.885600  -132.572000
  H     27.277900  -27.085100  -133.902000
  C     25.869800  -25.584800  -133.470000
  H     24.991400  -26.138700  -133.908000
  H     25.610600  -24.858900  -132.722000
  H     26.136500  -24.903000  -134.238000
  S     29.857100  -30.644300  -127.669000
  C     31.249200  -30.072700  -126.838000
  C     31.821100  -28.980200  -127.402000
  C     31.120200  -28.569800  -128.578000
  C     30.013100  -29.346300  -128.824000
  H     32.673300  -28.577900  -126.920000
  C     31.691900  -27.501900  -129.429000
  H     31.978600  -26.718800  -128.801000
  H     30.863600  -27.022400  -129.912000
  C     32.575200  -27.839600  -130.684000
  H     31.980300  -28.428700  -131.441000
  H     33.290000  -28.614900  -130.432000
  C     33.458600  -26.646800  -131.213000
  H     32.770000  -25.875200  -131.427000
  H     34.072100  -26.927100  -132.048000
  H     34.023600  -26.220300  -130.392000
  H     27.135800  -30.333300  -132.765000
  H     31.722000  -30.627100  -126.035000

 Total Charge           Charge          ....    0
 Multiplicity           Mult            ....    1
 Number of Electrons    NEL             ....  134
 Basis Dimension        Dim             ....  322

ORBITAL ENERGIES
----------------

  NO   OCC          E(Eh)            E(eV)
   0   2.0000     -88.965122     -2420.8640
   1   2.0000     -88.962745     -2420.7994
   2   2.0000     -10.326127      -280.9882
   3   2.0000     -10.325280      -280.9651
   4   2.0000     -10.314164      -280.6627
   5   2.0000     -10.309598      -280.5384
   6   2.0000     -10.300759      -280.2979
   7   2.0000     -10.299294      -280.2580
   8   2.0000     -10.293674      -280.1051
   9   2.0000     -10.290397      -280.0159
  10   2.0000     -10.289786      -279.9993
  11   2.0000     -10.287329      -279.9325
  12   2.0000     -10.285907      -279.8938
  13   2.0000     -10.280726      -279.7528
  14   2.0000     -10.279004      -279.7059
  15   2.0000     -10.275907      -279.6216
  16   2.0000      -8.080067      -219.8698
  17   2.0000      -8.078495      -219.8270
  18   2.0000      -6.038579      -164.3181
  19   2.0000      -6.036854      -164.2711
  20   2.0000      -6.034471      -164.2063
  21   2.0000      -6.032850      -164.1622
  22   2.0000      -6.030877      -164.1085
  23   2.0000      -6.029367      -164.0674
  24   2.0000      -1.010566       -27.4989
  25   2.0000      -0.989250       -26.9189
  26   2.0000      -0.914780       -24.8924
  27   2.0000      -0.903852       -24.5951
  28   2.0000      -0.866931       -23.5904
  29   2.0000      -0.851217       -23.1628
  30   2.0000      -0.846827       -23.0433
  31   2.0000      -0.819053       -22.2876
  32   2.0000      -0.785219       -21.3669
  33   2.0000      -0.774055       -21.0631
  34   2.0000      -0.708563       -19.2810
  35   2.0000      -0.703090       -19.1321
  36   2.0000      -0.693293       -18.8655
  37   2.0000      -0.662105       -18.0168
  38   2.0000      -0.643546       -17.5118
  39   2.0000      -0.625935       -17.0326
  40   2.0000      -0.599300       -16.3078
  41   2.0000      -0.574151       -15.6235
  42   2.0000      -0.567709       -15.4482
  43   2.0000      -0.546731       -14.8773
  44   2.0000      -0.532141       -14.4803
  45   2.0000      -0.524893       -14.2831
  46   2.0000      -0.515909       -14.0386
  47   2.0000      -0.510423       -13.8893
  48   2.0000      -0.507017       -13.7966
  49   2.0000      -0.494418       -13.4538
  50   2.0000      -0.493754       -13.4357
  51   2.0000      -0.482500       -13.1295
  52   2.0000      -0.465498       -12.6668
  53   2.0000      -0.459784       -12.5113
  54   2.0000      -0.456818       -12.4306
  55   2.0000      -0.454822       -12.3763
  56   2.0000      -0.450146       -12.2491
  57   2.0000      -0.445261       -12.1162
  58   2.0000      -0.430056       -11.7024
  59   2.0000      -0.427916       -11.6442
  60   2.0000      -0.422845       -11.5062
  61   2.0000      -0.418178       -11.3792
  62   2.0000      -0.398509       -10.8440
  63   2.0000      -0.339942        -9.2503
  64   2.0000      -0.332366        -9.0441
  65   2.0000      -0.329404        -8.9635
  66   2.0000      -0.301993        -8.2176
  67   0.0000       0.040735         1.1084
  68   0.0000       0.069828         1.9001
  69   0.0000       0.114633         3.1193
  70   0.0000       0.123984         3.3738
  71   0.0000       0.130185         3.5425

MULLIKEN ATOMIC CHARGES
-----------------------
   0 S :    0.108233
   1 C :   -0.115255
   2 C :   -0.069548
   3 C :    0.032559
   4 C :   -0.126804
   5 H :    0.011403
   6 C :    0.057468
   7 H :    0.024866
   8 H :    0.006839
   9 C :   -0.046545
  10 H :    0.041477
  11 H :    0.028763
  12 C :   -0.071322
  13 H :    0.037289
  14 H :    0.026682
  15 H :    0.019951
  16 S :    0.109386
  17 C :   -0.085538
  18 C :   -0.030059
  19 C :   -0.033937
  20 C :   -0.176239
  21 H :    0.004242
  22 C :    0.116118
  23 H :    0.000078
  24 H :   -0.001878
  25 C :   -0.076979
  26 H :    0.039338
  27 H :    0.015795
  28 C :   -0.017884
  29 H :    0.016555
  30 H :    0.046954
  31 H :    0.026995
  32 H :    0.027533
  33 H :    0.053461
Sum of atomic charges:    0.0000000

LOEWDIN ATOMIC CHARGES
----------------------
   0 S :    0.407366
   1 C :   -0.178637
   2 C :   -0.059857
   3 C :   -0.067712
   4 C :   -0.203150
   5 H :    0.033171
   6 C :   -0.040137
   7 H :    0.032994
   8 H :    0.029721
   9 C :   -0.032519
  10 H :    0.030848
  11 H :    0.023506
  12 C :   -0.073102
  13 H :    0.029835
  14 H :    0.021854
  15 H :    0.021519
  16 S :    0.416475
  17 C :   -0.187985
  18 C :   -0.067521
  19 C :   -0.053958
  20 C :   -0.199366
  21 H :    0.029069
  22 C :   -0.039093
  23 H :    0.023631
  24 H :    0.031363
  25 C :   -0.038151
  26 H :    0.032286
  27 H :    0.015626
  28 C :   -0.056242
  29 H :    0.018022
  30 H :    0.028299
  31 H :    0.026884
  32 H :    0.016759
  33 H :    0.028203

  Mayer bond orders larger than 0.100000
B(  0-S ,  1-C ) :   1.1270 B(  0-S ,  4-C ) :   1.1638 B(  1-C ,  2-C ) :   1.6031
B(  1-C , 32-H ) :   0.9803 B(  2-C ,  3-C ) :   1.2308 B(  2-C ,  6-C ) :   1.0422
B(  3-C ,  4-C ) :   1.6060 B(  3-C ,  5-H ) :   0.9989 B(  4-C , 20-C ) :   0.9672
B(  6-C ,  7-H ) :   0.9367 B(  6-C ,  8-H ) :   0.9298 B(  6-C ,  9-C ) :   1.0698
B(  9-C , 10-H ) :   0.9555 B(  9-C , 11-H ) :   0.9541 B(  9-C , 12-C ) :   1.0787
B( 12-C , 13-H ) :   0.9745 B( 12-C , 14-H ) :   0.9750 B( 12-C , 15-H ) :   0.9729
B( 16-S , 17-C ) :   1.1584 B( 16-S , 20-C ) :   1.1497 B( 17-C , 18-C ) :   1.6305
B( 17-C , 33-H ) :   0.9633 B( 18-C , 19-C ) :   1.2086 B( 18-C , 21-H ) :   1.0042
B( 19-C , 20-C ) :   1.6209 B( 19-C , 22-C ) :   1.0683 B( 22-C , 23-H ) :   0.9252
B( 22-C , 24-H ) :   0.9109 B( 22-C , 25-C ) :   1.0376 B( 25-C , 26-H ) :   0.9554
B( 25-C , 27-H ) :   0.9626 B( 25-C , 28-C ) :   1.0645 B( 28-C , 29-H ) :   0.9788
B( 28-C , 30-H ) :   0.9751 B( 28-C , 31-H ) :   0.9755

Dispersion correction           -0.013797422
FINAL SINGLE POINT ENERGY     -1339.870543976705

DIPOLE MOMENT
-------------
                                X             Y             Z
Electronic contribution:     -0.99850     -24.82032      16.96422
Nuclear contribution   :      1.09046      25.40917     -17.19131
                        -----------------------------------------
Total Dipole Moment    :      0.09196       0.58885      -0.22709
                        -----------------------------------------
Magnitude (a.u.)       :      0.63778
Magnitude (Debye)      :      1.62111

Rotational constants in cm-1:     0.017830     0.008357     0.006564
Rotational constants in MHz :   534.516341   250.550922   196.792540

                             ****ORCA TERMINATED NORMALLY****
TOTAL RUN TIME: 0 days 0 hours 0 minutes 21 seconds 177 msec
