                         Program Version 4.2.1 -  RELEASE  -
|  1> ! wB97X-D3 SP def2-SVP
|  2> %pal
|  3> nprocs 24
|  4> end
|  5>
|  6> * xyz 0 1
|  7> S 	 -85.1487 	 -1.76141 	 -67.3302
|  8> C 	 -85.5634 	 -0.156327 	 -67.8007
|  9> C 	 -85.5614 	 0.739742 	 -66.7489
| 10> C 	 -85.18 	 0.10191 	 -65.4824
| 11> C 	 -84.9946 	 -1.25014 	 -65.6675
| 12> H 	 -85.0545 	 0.608865 	 -64.5834
| 13> C 	 -85.6405 	 2.25489 	 -66.6873
| 14> H 	 -86.0412 	 2.50688 	 -65.6728
| 15> H 	 -86.3078 	 2.73462 	 -67.4142
| 16> C 	 -84.2707 	 2.92724 	 -66.7219
| 17> H 	 -84.3098 	 3.92088 	 -66.2895
| 18> H 	 -83.5951 	 2.42886 	 -66.049
| 19> C 	 -83.7526 	 3.03524 	 -68.1276
| 20> H 	 -82.7597 	 3.18529 	 -68.084
| 21> H 	 -83.8446 	 2.19762 	 -68.8028
| 22> H 	 -84.2441 	 3.82527 	 -68.6003
| 23> S 	 -83.1386 	 -2.41983 	 -64.0533
| 24> C 	 -83.6508 	 -3.33955 	 -62.6544
| 25> C 	 -85.0275 	 -3.3856 	 -62.611
| 26> C 	 -85.6768 	 -2.75504 	 -63.6528
| 27> C 	 -84.7995 	 -2.1703 	 -64.5786
| 28> H 	 -85.4761 	 -3.87943 	 -61.7765
| 29> C 	 -87.1732 	 -2.59075 	 -63.8
| 30> H 	 -87.5121 	 -3.42793 	 -63.201
| 31> H 	 -87.4443 	 -2.86601 	 -64.8297
| 32> C 	 -87.8993 	 -1.28566 	 -63.6782
| 33> H 	 -88.8742 	 -1.43262 	 -64.1785
| 34> H 	 -87.4042 	 -0.416815 	 -64.0901
| 35> C 	 -88.1603 	 -0.945164 	 -62.2083
| 36> H 	 -87.6328 	 -1.55625 	 -61.4705
| 37> H 	 -89.2269 	 -0.866382 	 -62.0813
| 38> H 	 -87.7014 	 0.039218 	 -61.9646
| 39> H 	 -85.7987 	 0.104924 	 -68.8068
| 40> H 	 -83.095 	 -3.71932 	 -61.7389
| 41> *
| 42>
| 43>                          ****END OF INPUT****

CARTESIAN COORDINATES (ANGSTROEM)
---------------------------------
  S    -85.148700   -1.761410  -67.330200
  C    -85.563400   -0.156327  -67.800700
  C    -85.561400    0.739742  -66.748900
  C    -85.180000    0.101910  -65.482400
  C    -84.994600   -1.250140  -65.667500
  H    -85.054500    0.608865  -64.583400
  C    -85.640500    2.254890  -66.687300
  H    -86.041200    2.506880  -65.672800
  H    -86.307800    2.734620  -67.414200
  C    -84.270700    2.927240  -66.721900
  H    -84.309800    3.920880  -66.289500
  H    -83.595100    2.428860  -66.049000
  C    -83.752600    3.035240  -68.127600
  H    -82.759700    3.185290  -68.084000
  H    -83.844600    2.197620  -68.802800
  H    -84.244100    3.825270  -68.600300
  S    -83.138600   -2.419830  -64.053300
  C    -83.650800   -3.339550  -62.654400
  C    -85.027500   -3.385600  -62.611000
  C    -85.676800   -2.755040  -63.652800
  C    -84.799500   -2.170300  -64.578600
  H    -85.476100   -3.879430  -61.776500
  C    -87.173200   -2.590750  -63.800000
  H    -87.512100   -3.427930  -63.201000
  H    -87.444300   -2.866010  -64.829700
  C    -87.899300   -1.285660  -63.678200
  H    -88.874200   -1.432620  -64.178500
  H    -87.404200   -0.416815  -64.090100
  C    -88.160300   -0.945164  -62.208300
  H    -87.632800   -1.556250  -61.470500
  H    -89.226900   -0.866382  -62.081300
  H    -87.701400    0.039218  -61.964600
  H    -85.798700    0.104924  -68.806800
  H    -83.095000   -3.719320  -61.738900

 Total Charge           Charge          ....    0
 Multiplicity           Mult            ....    1
 Number of Electrons    NEL             ....  134
 Basis Dimension        Dim             ....  322

ORBITAL ENERGIES
----------------

  NO   OCC          E(Eh)            E(eV)
   0   2.0000     -88.968683     -2420.9609
   1   2.0000     -88.965049     -2420.8621
   2   2.0000     -10.326141      -280.9886
   3   2.0000     -10.319745      -280.8145
   4   2.0000     -10.317939      -280.7654
   5   2.0000     -10.313692      -280.6498
   6   2.0000     -10.304519      -280.4002
   7   2.0000     -10.297142      -280.1995
   8   2.0000     -10.295365      -280.1511
   9   2.0000     -10.293476      -280.0997
  10   2.0000     -10.284987      -279.8687
  11   2.0000     -10.282297      -279.7955
  12   2.0000     -10.281095      -279.7628
  13   2.0000     -10.279435      -279.7177
  14   2.0000     -10.269502      -279.4473
  15   2.0000     -10.257831      -279.1298
  16   2.0000      -8.083882      -219.9736
  17   2.0000      -8.079311      -219.8492
  18   2.0000      -6.042345      -164.4206
  19   2.0000      -6.038351      -164.3119
  20   2.0000      -6.037719      -164.2947
  21   2.0000      -6.034642      -164.2110
  22   2.0000      -6.033688      -164.1850
  23   2.0000      -6.030397      -164.0954
  24   2.0000      -1.008054       -27.4305
  25   2.0000      -0.985213       -26.8090
  26   2.0000      -0.917289       -24.9607
  27   2.0000      -0.909227       -24.7413
  28   2.0000      -0.872971       -23.7547
  29   2.0000      -0.854395       -23.2493
  30   2.0000      -0.848728       -23.0951
  31   2.0000      -0.812307       -22.1040
  32   2.0000      -0.786187       -21.3932
  33   2.0000      -0.772003       -21.0073
  34   2.0000      -0.710684       -19.3387
  35   2.0000      -0.702584       -19.1183
  36   2.0000      -0.687380       -18.7046
  37   2.0000      -0.657100       -17.8806
  38   2.0000      -0.652032       -17.7427
  39   2.0000      -0.623336       -16.9618
  40   2.0000      -0.588816       -16.0225
  41   2.0000      -0.570964       -15.5367
  42   2.0000      -0.553199       -15.0533
  43   2.0000      -0.550984       -14.9930
  44   2.0000      -0.546649       -14.8751
  45   2.0000      -0.538937       -14.6652
  46   2.0000      -0.521095       -14.1797
  47   2.0000      -0.515982       -14.0406
  48   2.0000      -0.502129       -13.6636
  49   2.0000      -0.499911       -13.6033
  50   2.0000      -0.492433       -13.3998
  51   2.0000      -0.485122       -13.2008
  52   2.0000      -0.471942       -12.8422
  53   2.0000      -0.466842       -12.7034
  54   2.0000      -0.455691       -12.4000
  55   2.0000      -0.449914       -12.2428
  56   2.0000      -0.439699       -11.9648
  57   2.0000      -0.437229       -11.8976
  58   2.0000      -0.432138       -11.7591
  59   2.0000      -0.422591       -11.4993
  60   2.0000      -0.418117       -11.3775
  61   2.0000      -0.409384       -11.1399
  62   2.0000      -0.405213       -11.0264
  63   2.0000      -0.337444        -9.1823
  64   2.0000      -0.329399        -8.9634
  65   2.0000      -0.316639        -8.6162
  66   2.0000      -0.308103        -8.3839
  67   0.0000       0.045239         1.2310
  68   0.0000       0.049473         1.3462
  69   0.0000       0.114322         3.1108
  70   0.0000       0.118089         3.2134
  71   0.0000       0.129144         3.5142

MULLIKEN ATOMIC CHARGES
-----------------------
   0 S :    0.129757
   1 C :   -0.110116
   2 C :   -0.069046
   3 C :    0.061555
   4 C :   -0.170181
   5 H :    0.000375
   6 C :    0.040045
   7 H :    0.021512
   8 H :    0.024868
   9 C :   -0.056232
  10 H :    0.023800
  11 H :    0.016514
  12 C :    0.023295
  13 H :    0.002362
  14 H :    0.017718
  15 H :    0.012912
  16 S :    0.114039
  17 C :   -0.108311
  18 C :   -0.067010
  19 C :    0.008460
  20 C :   -0.195419
  21 H :    0.006134
  22 C :    0.069125
  23 H :    0.014447
  24 H :    0.020545
  25 C :   -0.037539
  26 H :    0.033726
  27 H :    0.036229
  28 C :   -0.059178
  29 H :    0.029699
  30 H :    0.035112
  31 H :    0.016747
  32 H :    0.037812
  33 H :    0.076242
Sum of atomic charges:   -0.0000000

LOEWDIN ATOMIC CHARGES
----------------------
   0 S :    0.422188
   1 C :   -0.201279
   2 C :   -0.058087
   3 C :   -0.037660
   4 C :   -0.204777
   5 H :    0.022168
   6 C :   -0.033229
   7 H :    0.032455
   8 H :    0.026943
   9 C :   -0.034126
  10 H :    0.025648
  11 H :    0.019814
  12 C :   -0.052271
  13 H :    0.013655
  14 H :    0.024978
  15 H :    0.019687
  16 S :    0.413556
  17 C :   -0.205533
  18 C :   -0.082230
  19 C :   -0.057859
  20 C :   -0.202866
  21 H :    0.027944
  22 C :   -0.036935
  23 H :    0.029182
  24 H :    0.035549
  25 C :   -0.038626
  26 H :    0.031324
  27 H :    0.027534
  28 C :   -0.071902
  29 H :    0.023109
  30 H :    0.024514
  31 H :    0.025668
  32 H :    0.021848
  33 H :    0.049614

  Mayer bond orders larger than 0.100000
B(  0-S ,  1-C ) :   1.1362 B(  0-S ,  4-C ) :   1.1527 B(  1-C ,  2-C ) :   1.6311
B(  1-C , 32-H ) :   0.9706 B(  2-C ,  3-C ) :   1.2049 B(  2-C ,  6-C ) :   1.0400
B(  3-C ,  4-C ) :   1.5918 B(  3-C ,  5-H ) :   1.0002 B(  4-C , 20-C ) :   1.0101
B(  6-C ,  7-H ) :   0.9345 B(  6-C ,  8-H ) :   0.9454 B(  6-C ,  9-C ) :   1.0749
B(  9-C , 10-H ) :   0.9511 B(  9-C , 11-H ) :   0.9541 B(  9-C , 12-C ) :   1.0792
B( 12-C , 13-H ) :   0.9664 B( 12-C , 14-H ) :   0.9738 B( 12-C , 15-H ) :   0.9726
B( 16-S , 17-C ) :   1.1673 B( 16-S , 20-C ) :   1.1615 B( 17-C , 18-C ) :   1.5852
B( 17-C , 20-C ) :   0.1121 B( 17-C , 33-H ) :   0.9539 B( 18-C , 19-C ) :   1.2856
B( 18-C , 21-H ) :   0.9915 B( 19-C , 20-C ) :   1.5529 B( 19-C , 22-C ) :   1.0372
B( 22-C , 23-H ) :   0.9345 B( 22-C , 24-H ) :   0.9250 B( 22-C , 25-C ) :   1.0723
B( 25-C , 26-H ) :   0.9614 B( 25-C , 27-H ) :   0.9554 B( 25-C , 28-C ) :   1.0521
B( 28-C , 29-H ) :   0.9822 B( 28-C , 30-H ) :   0.9805 B( 28-C , 31-H ) :   0.9791

Dispersion correction           -0.015506571
FINAL SINGLE POINT ENERGY     -1339.856813522799

DIPOLE MOMENT
-------------
                                X             Y             Z
Electronic contribution:     11.72909     -18.66145      -3.49672
Nuclear contribution   :    -12.01402      19.19769       3.67828
                        -----------------------------------------
Total Dipole Moment    :     -0.28493       0.53624       0.18156
                        -----------------------------------------
Magnitude (a.u.)       :      0.63380
Magnitude (Debye)      :      1.61099

Rotational constants in cm-1:     0.019854     0.008840     0.007716
Rotational constants in MHz :   595.221317   265.001622   231.329114

                             ****ORCA TERMINATED NORMALLY****
TOTAL RUN TIME: 0 days 0 hours 0 minutes 21 seconds 317 msec
