                         Program Version 4.2.1 -  RELEASE  -
|  1> ! wB97X-D3 SP def2-SVP
|  2> %pal
|  3> nprocs 24
|  4> end
|  5>
|  6> * xyz 0 1
|  7> S 	 -111.372 	 53.3754 	 -75.7563
|  8> C 	 -112.369 	 52.847 	 -77.1057
|  9> C 	 -112.88 	 51.5873 	 -76.9087
| 10> C 	 -112.489 	 51.0127 	 -75.6288
| 11> C 	 -111.607 	 51.8459 	 -75.0068
| 12> H 	 -112.799 	 50.1448 	 -75.1496
| 13> C 	 -113.865 	 50.9263 	 -77.7991
| 14> H 	 -114.037 	 51.6282 	 -78.6228
| 15> H 	 -114.84 	 50.9697 	 -77.2697
| 16> C 	 -113.674 	 49.4439 	 -78.2642
| 17> H 	 -112.673 	 49.1687 	 -78.4969
| 18> H 	 -113.966 	 48.8766 	 -77.3517
| 19> C 	 -114.584 	 49.0513 	 -79.4652
| 20> H 	 -115.565 	 49.5027 	 -79.3493
| 21> H 	 -114.33 	 49.4924 	 -80.4691
| 22> H 	 -114.787 	 47.9474 	 -79.4327
| 23> S 	 -109.935 	 50.1154 	 -73.8376
| 24> C 	 -109.617 	 50.1755 	 -72.1726
| 25> C 	 -110.417 	 51.106 	 -71.5292
| 26> C 	 -111.106 	 51.9047 	 -72.5285
| 27> C 	 -110.901 	 51.5027 	 -73.8192
| 28> H 	 -110.327 	 51.1589 	 -70.4163
| 29> C 	 -111.995 	 53.1249 	 -72.0939
| 30> H 	 -113.015 	 52.8203 	 -72.0816
| 31> H 	 -111.91 	 53.8003 	 -72.9456
| 32> C 	 -111.534 	 53.9264 	 -70.8227
| 33> H 	 -110.51 	 54.2643 	 -70.9587
| 34> H 	 -111.675 	 53.2631 	 -69.9788
| 35> C 	 -112.302 	 55.2068 	 -70.6371
| 36> H 	 -111.901 	 55.8045 	 -69.793
| 37> H 	 -113.364 	 54.9282 	 -70.5513
| 38> H 	 -112.048 	 55.7926 	 -71.5422
| 39> H 	 -112.384 	 53.4602 	 -78.0224
| 40> H 	 -108.958 	 49.554 	 -71.6193
| 41> *
| 42>
| 43>                          ****END OF INPUT****

CARTESIAN COORDINATES (ANGSTROEM)
---------------------------------
  S    -111.372000   53.375400  -75.756300
  C    -112.369000   52.847000  -77.105700
  C    -112.880000   51.587300  -76.908700
  C    -112.489000   51.012700  -75.628800
  C    -111.607000   51.845900  -75.006800
  H    -112.799000   50.144800  -75.149600
  C    -113.865000   50.926300  -77.799100
  H    -114.037000   51.628200  -78.622800
  H    -114.840000   50.969700  -77.269700
  C    -113.674000   49.443900  -78.264200
  H    -112.673000   49.168700  -78.496900
  H    -113.966000   48.876600  -77.351700
  C    -114.584000   49.051300  -79.465200
  H    -115.565000   49.502700  -79.349300
  H    -114.330000   49.492400  -80.469100
  H    -114.787000   47.947400  -79.432700
  S    -109.935000   50.115400  -73.837600
  C    -109.617000   50.175500  -72.172600
  C    -110.417000   51.106000  -71.529200
  C    -111.106000   51.904700  -72.528500
  C    -110.901000   51.502700  -73.819200
  H    -110.327000   51.158900  -70.416300
  C    -111.995000   53.124900  -72.093900
  H    -113.015000   52.820300  -72.081600
  H    -111.910000   53.800300  -72.945600
  C    -111.534000   53.926400  -70.822700
  H    -110.510000   54.264300  -70.958700
  H    -111.675000   53.263100  -69.978800
  C    -112.302000   55.206800  -70.637100
  H    -111.901000   55.804500  -69.793000
  H    -113.364000   54.928200  -70.551300
  H    -112.048000   55.792600  -71.542200
  H    -112.384000   53.460200  -78.022400
  H    -108.958000   49.554000  -71.619300

 Total Charge           Charge          ....    0
 Multiplicity           Mult            ....    1
 Number of Electrons    NEL             ....  134
 Basis Dimension        Dim             ....  322

ORBITAL ENERGIES
----------------

  NO   OCC          E(Eh)            E(eV)
   0   2.0000     -88.964545     -2420.8483
   1   2.0000     -88.962177     -2420.7839
   2   2.0000     -10.321420      -280.8601
   3   2.0000     -10.313154      -280.6352
   4   2.0000     -10.311754      -280.5971
   5   2.0000     -10.308198      -280.5003
   6   2.0000     -10.302999      -280.3589
   7   2.0000     -10.302670      -280.3499
   8   2.0000     -10.295564      -280.1565
   9   2.0000     -10.292231      -280.0659
  10   2.0000     -10.292121      -280.0629
  11   2.0000     -10.288349      -279.9602
  12   2.0000     -10.287705      -279.9427
  13   2.0000     -10.287155      -279.9277
  14   2.0000     -10.282681      -279.8060
  15   2.0000     -10.278822      -279.7010
  16   2.0000      -8.079788      -219.8622
  17   2.0000      -8.078938      -219.8391
  18   2.0000      -6.038199      -164.3078
  19   2.0000      -6.037252      -164.2820
  20   2.0000      -6.034370      -164.2036
  21   2.0000      -6.033070      -164.1682
  22   2.0000      -6.030494      -164.0981
  23   2.0000      -6.029853      -164.0806
  24   2.0000      -1.017959       -27.7001
  25   2.0000      -0.989342       -26.9214
  26   2.0000      -0.908865       -24.7315
  27   2.0000      -0.904213       -24.6049
  28   2.0000      -0.874364       -23.7926
  29   2.0000      -0.852305       -23.1924
  30   2.0000      -0.847068       -23.0499
  31   2.0000      -0.816792       -22.2260
  32   2.0000      -0.778691       -21.1893
  33   2.0000      -0.767107       -20.8740
  34   2.0000      -0.710756       -19.3407
  35   2.0000      -0.695040       -18.9130
  36   2.0000      -0.691023       -18.8037
  37   2.0000      -0.656811       -17.8727
  38   2.0000      -0.645148       -17.5554
  39   2.0000      -0.617125       -16.7928
  40   2.0000      -0.590170       -16.0594
  41   2.0000      -0.576284       -15.6815
  42   2.0000      -0.570867       -15.5341
  43   2.0000      -0.555088       -15.1047
  44   2.0000      -0.530984       -14.4488
  45   2.0000      -0.523149       -14.2356
  46   2.0000      -0.520591       -14.1660
  47   2.0000      -0.513859       -13.9828
  48   2.0000      -0.507943       -13.8218
  49   2.0000      -0.495895       -13.4940
  50   2.0000      -0.488277       -13.2867
  51   2.0000      -0.478680       -13.0256
  52   2.0000      -0.469404       -12.7731
  53   2.0000      -0.464969       -12.6524
  54   2.0000      -0.459262       -12.4972
  55   2.0000      -0.448329       -12.1996
  56   2.0000      -0.440951       -11.9989
  57   2.0000      -0.434374       -11.8199
  58   2.0000      -0.432826       -11.7778
  59   2.0000      -0.426984       -11.6188
  60   2.0000      -0.415507       -11.3065
  61   2.0000      -0.414511       -11.2794
  62   2.0000      -0.410392       -11.1673
  63   2.0000      -0.340238        -9.2583
  64   2.0000      -0.332264        -9.0414
  65   2.0000      -0.325842        -8.8666
  66   2.0000      -0.298220        -8.1150
  67   0.0000       0.046285         1.2595
  68   0.0000       0.067380         1.8335
  69   0.0000       0.106182         2.8894
  70   0.0000       0.124579         3.3900
  71   0.0000       0.133909         3.6438

MULLIKEN ATOMIC CHARGES
-----------------------
   0 S :    0.111253
   1 C :   -0.150145
   2 C :   -0.047969
   3 C :    0.041423
   4 C :   -0.169978
   5 H :   -0.005457
   6 C :    0.032398
   7 H :    0.007733
   8 H :    0.041901
   9 C :   -0.056428
  10 H :    0.034912
  11 H :    0.034699
  12 C :   -0.074667
  13 H :    0.015537
  14 H :    0.046977
  15 H :    0.049173
  16 S :    0.127064
  17 C :   -0.083401
  18 C :   -0.063779
  19 C :   -0.052381
  20 C :   -0.141992
  21 H :    0.040883
  22 C :    0.089521
  23 H :    0.028904
  24 H :   -0.001150
  25 C :   -0.086549
  26 H :    0.032970
  27 H :    0.032789
  28 C :   -0.051412
  29 H :    0.043053
  30 H :    0.039886
  31 H :    0.033475
  32 H :    0.061756
  33 H :    0.039003
Sum of atomic charges:   -0.0000000

LOEWDIN ATOMIC CHARGES
----------------------
   0 S :    0.412779
   1 C :   -0.202823
   2 C :   -0.056512
   3 C :   -0.055725
   4 C :   -0.192274
   5 H :    0.022488
   6 C :   -0.042159
   7 H :    0.025767
   8 H :    0.040383
   9 C :   -0.037481
  10 H :    0.019901
  11 H :    0.029220
  12 C :   -0.077147
  13 H :    0.021227
  14 H :    0.033426
  15 H :    0.035563
  16 S :    0.458637
  17 C :   -0.199480
  18 C :   -0.081730
  19 C :   -0.051012
  20 C :   -0.235863
  21 H :    0.041336
  22 C :   -0.029726
  23 H :    0.026698
  24 H :    0.017822
  25 C :   -0.041451
  26 H :    0.026809
  27 H :    0.017225
  28 C :   -0.066694
  29 H :    0.030332
  30 H :    0.026707
  31 H :    0.028982
  32 H :    0.032094
  33 H :    0.022682

  Mayer bond orders larger than 0.100000
B(  0-S ,  1-C ) :   1.1177 B(  0-S ,  4-C ) :   1.1616 B(  1-C ,  2-C ) :   1.6414
B(  1-C , 32-H ) :   0.9646 B(  2-C ,  3-C ) :   1.1699 B(  2-C ,  6-C ) :   1.0473
B(  3-C ,  4-C ) :   1.6158 B(  3-C ,  5-H ) :   1.0098 B(  4-C , 20-C ) :   1.0054
B(  6-C ,  7-H ) :   0.9431 B(  6-C ,  8-H ) :   0.9310 B(  6-C ,  9-C ) :   1.0392
B(  9-C , 10-H ) :   0.9673 B(  9-C , 11-H ) :   0.9525 B(  9-C , 12-C ) :   1.0786
B( 12-C , 13-H ) :   0.9719 B( 12-C , 14-H ) :   0.9749 B( 12-C , 15-H ) :   0.9745
B( 16-S , 17-C ) :   1.1868 B( 16-S , 20-C ) :   1.1488 B( 17-C , 18-C ) :   1.5940
B( 17-C , 33-H ) :   0.9695 B( 18-C , 19-C ) :   1.2479 B( 18-C , 21-H ) :   0.9861
B( 19-C , 20-C ) :   1.5976 B( 19-C , 22-C ) :   1.0184 B( 22-C , 23-H ) :   0.9283
B( 22-C , 24-H ) :   0.9349 B( 22-C , 25-C ) :   1.0655 B( 25-C , 26-H ) :   0.9598
B( 25-C , 27-H ) :   0.9503 B( 25-C , 28-C ) :   1.0894 B( 28-C , 29-H ) :   0.9723
B( 28-C , 30-H ) :   0.9741 B( 28-C , 31-H ) :   0.9746

Dispersion correction           -0.013542754
FINAL SINGLE POINT ENERGY     -1339.869664249334

DIPOLE MOMENT
-------------
                                X             Y             Z
Electronic contribution:     15.81317      -1.74933       0.86582
Nuclear contribution   :    -16.19172       1.63437      -0.72791
                        -----------------------------------------
Total Dipole Moment    :     -0.37856      -0.11495       0.13791
                        -----------------------------------------
Magnitude (a.u.)       :      0.41897
Magnitude (Debye)      :      1.06495

Rotational constants in cm-1:     0.021610     0.007239     0.006106
Rotational constants in MHz :   647.862679   217.025526   183.044985

                             ****ORCA TERMINATED NORMALLY****
TOTAL RUN TIME: 0 days 0 hours 0 minutes 19 seconds 761 msec
