                         Program Version 4.2.1 -  RELEASE  -
|  1> ! wB97X-D3 SP def2-SVP
|  2> %pal
|  3> nprocs 24
|  4> end
|  5>
|  6> * xyz 0 1
|  7> S 	 -46.1022 	 29.1826 	 28.9412
|  8> C 	 -47.7902 	 29.7096 	 29.1315
|  9> C 	 -48.5678 	 28.7601 	 29.7822
| 10> C 	 -47.7172 	 27.7013 	 30.2709
| 11> C 	 -46.3789 	 27.7616 	 29.9112
| 12> H 	 -47.9815 	 26.8627 	 30.892
| 13> C 	 -50.0544 	 28.9019 	 30.0022
| 14> H 	 -50.2523 	 29.8879 	 30.4482
| 15> H 	 -50.4696 	 28.25 	 30.797
| 16> C 	 -50.9742 	 28.9362 	 28.7615
| 17> H 	 -51.9894 	 29.2994 	 29.2079
| 18> H 	 -50.5171 	 29.6139 	 28.0559
| 19> C 	 -51.1619 	 27.6173 	 28.1715
| 20> H 	 -50.5793 	 26.8816 	 28.6429
| 21> H 	 -52.1928 	 27.333 	 28.153
| 22> H 	 -50.925 	 27.6786 	 27.0929
| 23> S 	 -44.6597 	 26.1414 	 28.7276
| 24> C 	 -43.5507 	 25.1311 	 29.6467
| 25> C 	 -44.0106 	 25.0264 	 30.9618
| 26> C 	 -45.0049 	 25.9989 	 31.2986
| 27> C 	 -45.394 	 26.7098 	 30.1677
| 28> H 	 -43.6314 	 24.3099 	 31.6423
| 29> C 	 -45.5756 	 26.0308 	 32.7564
| 30> H 	 -44.9984 	 25.2438 	 33.2826
| 31> H 	 -46.6529 	 25.6754 	 32.6995
| 32> C 	 -45.6182 	 27.4368 	 33.5251
| 33> H 	 -46.2762 	 28.001 	 32.8944
| 34> H 	 -44.6488 	 27.9738 	 33.5379
| 35> C 	 -46.2239 	 27.5038 	 34.9273
| 36> H 	 -47.323 	 27.1583 	 34.8641
| 37> H 	 -46.2567 	 28.5608 	 35.2715
| 38> H 	 -45.6851 	 26.9257 	 35.6548
| 39> H 	 -48.1839 	 30.5884 	 28.7014
| 40> H 	 -42.9226 	 24.415 	 29.0526
| 41> *
| 42>
| 43>                          ****END OF INPUT****

CARTESIAN COORDINATES (ANGSTROEM)
---------------------------------
  S    -46.102200   29.182600   28.941200
  C    -47.790200   29.709600   29.131500
  C    -48.567800   28.760100   29.782200
  C    -47.717200   27.701300   30.270900
  C    -46.378900   27.761600   29.911200
  H    -47.981500   26.862700   30.892000
  C    -50.054400   28.901900   30.002200
  H    -50.252300   29.887900   30.448200
  H    -50.469600   28.250000   30.797000
  C    -50.974200   28.936200   28.761500
  H    -51.989400   29.299400   29.207900
  H    -50.517100   29.613900   28.055900
  C    -51.161900   27.617300   28.171500
  H    -50.579300   26.881600   28.642900
  H    -52.192800   27.333000   28.153000
  H    -50.925000   27.678600   27.092900
  S    -44.659700   26.141400   28.727600
  C    -43.550700   25.131100   29.646700
  C    -44.010600   25.026400   30.961800
  C    -45.004900   25.998900   31.298600
  C    -45.394000   26.709800   30.167700
  H    -43.631400   24.309900   31.642300
  C    -45.575600   26.030800   32.756400
  H    -44.998400   25.243800   33.282600
  H    -46.652900   25.675400   32.699500
  C    -45.618200   27.436800   33.525100
  H    -46.276200   28.001000   32.894400
  H    -44.648800   27.973800   33.537900
  C    -46.223900   27.503800   34.927300
  H    -47.323000   27.158300   34.864100
  H    -46.256700   28.560800   35.271500
  H    -45.685100   26.925700   35.654800
  H    -48.183900   30.588400   28.701400
  H    -42.922600   24.415000   29.052600

 Total Charge           Charge          ....    0
 Multiplicity           Mult            ....    1
 Number of Electrons    NEL             ....  134
 Basis Dimension        Dim             ....  322

ORBITAL ENERGIES
----------------

  NO   OCC          E(Eh)            E(eV)
   0   2.0000     -88.968910     -2420.9671
   1   2.0000     -88.963887     -2420.8304
   2   2.0000     -10.328851      -281.0623
   3   2.0000     -10.327083      -281.0142
   4   2.0000     -10.321459      -280.8612
   5   2.0000     -10.315425      -280.6970
   6   2.0000     -10.308773      -280.5160
   7   2.0000     -10.308344      -280.5043
   8   2.0000     -10.307467      -280.4804
   9   2.0000     -10.297069      -280.1975
  10   2.0000     -10.294629      -280.1311
  11   2.0000     -10.294360      -280.1238
  12   2.0000     -10.288722      -279.9704
  13   2.0000     -10.287828      -279.9460
  14   2.0000     -10.285193      -279.8743
  15   2.0000     -10.263194      -279.2757
  16   2.0000      -8.083040      -219.9507
  17   2.0000      -8.079547      -219.8557
  18   2.0000      -6.041603      -164.4004
  19   2.0000      -6.037936      -164.3006
  20   2.0000      -6.037564      -164.2905
  21   2.0000      -6.033908      -164.1910
  22   2.0000      -6.033833      -164.1890
  23   2.0000      -6.030381      -164.0950
  24   2.0000      -1.008491       -27.4424
  25   2.0000      -0.982900       -26.7461
  26   2.0000      -0.918626       -24.9971
  27   2.0000      -0.895257       -24.3612
  28   2.0000      -0.872199       -23.7337
  29   2.0000      -0.850967       -23.1560
  30   2.0000      -0.847512       -23.0620
  31   2.0000      -0.812977       -22.1222
  32   2.0000      -0.783270       -21.3139
  33   2.0000      -0.771398       -20.9908
  34   2.0000      -0.703387       -19.1401
  35   2.0000      -0.695421       -18.9234
  36   2.0000      -0.685902       -18.6643
  37   2.0000      -0.667389       -18.1606
  38   2.0000      -0.642863       -17.4932
  39   2.0000      -0.609916       -16.5967
  40   2.0000      -0.591273       -16.0893
  41   2.0000      -0.578374       -15.7384
  42   2.0000      -0.559959       -15.2373
  43   2.0000      -0.556346       -15.1389
  44   2.0000      -0.541120       -14.7246
  45   2.0000      -0.517494       -14.0817
  46   2.0000      -0.516274       -14.0485
  47   2.0000      -0.510453       -13.8901
  48   2.0000      -0.505850       -13.7649
  49   2.0000      -0.497492       -13.5374
  50   2.0000      -0.493179       -13.4201
  51   2.0000      -0.482998       -13.1430
  52   2.0000      -0.474638       -12.9156
  53   2.0000      -0.465658       -12.6712
  54   2.0000      -0.458185       -12.4678
  55   2.0000      -0.449055       -12.2194
  56   2.0000      -0.437873       -11.9151
  57   2.0000      -0.431369       -11.7382
  58   2.0000      -0.426700       -11.6111
  59   2.0000      -0.423351       -11.5200
  60   2.0000      -0.420646       -11.4464
  61   2.0000      -0.415220       -11.2987
  62   2.0000      -0.413133       -11.2419
  63   2.0000      -0.344815        -9.3829
  64   2.0000      -0.332475        -9.0471
  65   2.0000      -0.328192        -8.9306
  66   2.0000      -0.292863        -7.9692
  67   0.0000       0.027448         0.7469
  68   0.0000       0.063872         1.7380
  69   0.0000       0.101799         2.7701
  70   0.0000       0.117176         3.1885
  71   0.0000       0.132192         3.5971

MULLIKEN ATOMIC CHARGES
-----------------------
   0 S :    0.120082
   1 C :   -0.115263
   2 C :   -0.041674
   3 C :    0.035487
   4 C :   -0.153129
   5 H :   -0.002172
   6 C :    0.019395
   7 H :    0.030212
   8 H :    0.025659
   9 C :   -0.101489
  10 H :    0.043007
  11 H :    0.028728
  12 C :    0.003386
  13 H :    0.024778
  14 H :    0.022756
  15 H :    0.026943
  16 S :    0.102782
  17 C :   -0.111545
  18 C :   -0.033506
  19 C :   -0.024433
  20 C :   -0.173752
  21 H :    0.012914
  22 C :    0.038926
  23 H :    0.021550
  24 H :    0.044000
  25 C :   -0.077277
  26 H :    0.031789
  27 H :    0.040196
  28 C :   -0.067023
  29 H :    0.034541
  30 H :    0.044914
  31 H :    0.035317
  32 H :    0.034517
  33 H :    0.079384
Sum of atomic charges:    0.0000000

LOEWDIN ATOMIC CHARGES
----------------------
   0 S :    0.403105
   1 C :   -0.179050
   2 C :   -0.060958
   3 C :   -0.064071
   4 C :   -0.206708
   5 H :    0.026241
   6 C :   -0.043504
   7 H :    0.036149
   8 H :    0.030909
   9 C :   -0.042333
  10 H :    0.036526
  11 H :    0.021315
  12 C :   -0.067781
  13 H :    0.019803
  14 H :    0.025667
  15 H :    0.034133
  16 S :    0.423160
  17 C :   -0.196691
  18 C :   -0.060634
  19 C :   -0.063198
  20 C :   -0.202530
  21 H :    0.025450
  22 C :   -0.030663
  23 H :    0.027059
  24 H :    0.035654
  25 C :   -0.046236
  26 H :    0.022867
  27 H :    0.028262
  28 C :   -0.069745
  29 H :    0.031522
  30 H :    0.033957
  31 H :    0.018543
  32 H :    0.017757
  33 H :    0.036024

  Mayer bond orders larger than 0.100000
B(  0-S ,  1-C ) :   1.1391 B(  0-S ,  4-C ) :   1.1491 B(  1-C ,  2-C ) :   1.5999
B(  1-C , 32-H ) :   0.9734 B(  2-C ,  3-C ) :   1.2320 B(  2-C ,  6-C ) :   1.0161
B(  3-C ,  4-C ) :   1.5707 B(  3-C ,  5-H ) :   0.9961 B(  4-C , 20-C ) :   1.0275
B(  6-C ,  7-H ) :   0.9381 B(  6-C ,  8-H ) :   0.9480 B(  6-C ,  9-C ) :   1.0823
B(  9-C , 10-H ) :   0.9583 B(  9-C , 11-H ) :   0.9609 B(  9-C , 12-C ) :   1.0704
B( 12-C , 13-H ) :   0.9798 B( 12-C , 14-H ) :   0.9725 B( 12-C , 15-H ) :   0.9717
B( 16-S , 17-C ) :   1.1535 B( 16-S , 20-C ) :   1.1846 B( 17-C , 18-C ) :   1.5780
B( 17-C , 20-C ) :   0.1035 B( 17-C , 33-H ) :   0.9630 B( 18-C , 19-C ) :   1.2656
B( 18-C , 21-H ) :   0.9894 B( 19-C , 20-C ) :   1.5753 B( 19-C , 22-C ) :   1.0278
B( 22-C , 23-H ) :   0.9390 B( 22-C , 24-H ) :   0.9385 B( 22-C , 25-C ) :   1.0416
B( 25-C , 26-H ) :   0.9535 B( 25-C , 27-H ) :   0.9593 B( 25-C , 28-C ) :   1.0921
B( 28-C , 29-H ) :   0.9720 B( 28-C , 30-H ) :   0.9720 B( 28-C , 31-H ) :   0.9774

Dispersion correction           -0.014033692
FINAL SINGLE POINT ENERGY     -1339.863176543949

DIPOLE MOMENT
-------------
                                X             Y             Z
Electronic contribution:     19.99626      -0.59507     -15.42359
Nuclear contribution   :    -20.53188       0.42818      15.75569
                        -----------------------------------------
Total Dipole Moment    :     -0.53562      -0.16689       0.33210
                        -----------------------------------------
Magnitude (a.u.)       :      0.65195
Magnitude (Debye)      :      1.65712

Rotational constants in cm-1:     0.017230     0.008724     0.006986
Rotational constants in MHz :   516.544831   261.543604   209.448361

                             ****ORCA TERMINATED NORMALLY****
TOTAL RUN TIME: 0 days 0 hours 0 minutes 21 seconds 255 msec
