                         Program Version 4.2.1 -  RELEASE  -
|  1> ! wB97X-D3 SP def2-SVP
|  2> %pal
|  3> nprocs 24
|  4> end
|  5>
|  6> * xyz 0 1
|  7> S 	 -133.186 	 7.24453 	 -1.08714
|  8> C 	 -131.933 	 8.03427 	 -0.10462
|  9> C 	 -131.799 	 7.40603 	 1.1403
| 10> C 	 -132.438 	 6.09849 	 1.13344
| 11> C 	 -133.434 	 6.00641 	 0.121822
| 12> H 	 -132.446 	 5.35316 	 1.92752
| 13> C 	 -130.742 	 7.82788 	 2.15189
| 14> H 	 -129.901 	 8.31829 	 1.63901
| 15> H 	 -130.417 	 6.90522 	 2.62335
| 16> C 	 -131.217 	 8.76787 	 3.27765
| 17> H 	 -130.38 	 8.90839 	 3.92793
| 18> H 	 -131.587 	 9.77889 	 2.92322
| 19> C 	 -132.352 	 8.18061 	 4.13943
| 20> H 	 -132.831 	 8.85972 	 4.81512
| 21> H 	 -133.298 	 8.02246 	 3.61499
| 22> H 	 -132.053 	 7.37588 	 4.75683
| 23> S 	 -136.09 	 5.83601 	 0.0254171
| 24> C 	 -136.846 	 4.22449 	 -0.188002
| 25> C 	 -135.945 	 3.18791 	 0.0791769
| 26> C 	 -134.608 	 3.74512 	 0.310178
| 27> C 	 -134.529 	 5.09985 	 0.0595718
| 28> H 	 -136.151 	 2.18125 	 0.18758
| 29> C 	 -133.466 	 2.82081 	 0.670656
| 30> H 	 -133.914 	 1.98365 	 1.13798
| 31> H 	 -132.848 	 3.34042 	 1.46514
| 32> C 	 -132.689 	 2.39047 	 -0.494679
| 33> H 	 -131.954 	 1.70485 	 -0.0870521
| 34> H 	 -132.227 	 3.27962 	 -0.944025
| 35> C 	 -133.493 	 1.73454 	 -1.69416
| 36> H 	 -134.112 	 2.51428 	 -2.25857
| 37> H 	 -134.167 	 1.0024 	 -1.3429
| 38> H 	 -132.776 	 1.28295 	 -2.39916
| 39> H 	 -131.454 	 8.96602 	 -0.431242
| 40> H 	 -137.94 	 4.06609 	 -0.291075
| 41> *
| 42>
| 43>                          ****END OF INPUT****

CARTESIAN COORDINATES (ANGSTROEM)
---------------------------------
  S    -133.186000    7.244530   -1.087140
  C    -131.933000    8.034270   -0.104620
  C    -131.799000    7.406030    1.140300
  C    -132.438000    6.098490    1.133440
  C    -133.434000    6.006410    0.121822
  H    -132.446000    5.353160    1.927520
  C    -130.742000    7.827880    2.151890
  H    -129.901000    8.318290    1.639010
  H    -130.417000    6.905220    2.623350
  C    -131.217000    8.767870    3.277650
  H    -130.380000    8.908390    3.927930
  H    -131.587000    9.778890    2.923220
  C    -132.352000    8.180610    4.139430
  H    -132.831000    8.859720    4.815120
  H    -133.298000    8.022460    3.614990
  H    -132.053000    7.375880    4.756830
  S    -136.090000    5.836010    0.025417
  C    -136.846000    4.224490   -0.188002
  C    -135.945000    3.187910    0.079177
  C    -134.608000    3.745120    0.310178
  C    -134.529000    5.099850    0.059572
  H    -136.151000    2.181250    0.187580
  C    -133.466000    2.820810    0.670656
  H    -133.914000    1.983650    1.137980
  H    -132.848000    3.340420    1.465140
  C    -132.689000    2.390470   -0.494679
  H    -131.954000    1.704850   -0.087052
  H    -132.227000    3.279620   -0.944025
  C    -133.493000    1.734540   -1.694160
  H    -134.112000    2.514280   -2.258570
  H    -134.167000    1.002400   -1.342900
  H    -132.776000    1.282950   -2.399160
  H    -131.454000    8.966020   -0.431242
  H    -137.940000    4.066090   -0.291075

 Total Charge           Charge          ....    0
 Multiplicity           Mult            ....    1
 Number of Electrons    NEL             ....  134
 Basis Dimension        Dim             ....  322

ORBITAL ENERGIES
----------------

  NO   OCC          E(Eh)            E(eV)
   0   2.0000     -88.967430     -2420.9268
   1   2.0000     -88.965062     -2420.8624
   2   2.0000     -10.330567      -281.1090
   3   2.0000     -10.323431      -280.9148
   4   2.0000     -10.319861      -280.8177
   5   2.0000     -10.318554      -280.7821
   6   2.0000     -10.308062      -280.4966
   7   2.0000     -10.301785      -280.3258
   8   2.0000     -10.299778      -280.2712
   9   2.0000     -10.295928      -280.1664
  10   2.0000     -10.294506      -280.1278
  11   2.0000     -10.290540      -280.0198
  12   2.0000     -10.286605      -279.9127
  13   2.0000     -10.281456      -279.7726
  14   2.0000     -10.279781      -279.7271
  15   2.0000     -10.268618      -279.4233
  16   2.0000      -8.081587      -219.9112
  17   2.0000      -8.079622      -219.8577
  18   2.0000      -6.040034      -164.3577
  19   2.0000      -6.038311      -164.3108
  20   2.0000      -6.036085      -164.2502
  21   2.0000      -6.034358      -164.2032
  22   2.0000      -6.032537      -164.1537
  23   2.0000      -6.029980      -164.0841
  24   2.0000      -1.005069       -27.3493
  25   2.0000      -0.976254       -26.5652
  26   2.0000      -0.914599       -24.8875
  27   2.0000      -0.908430       -24.7196
  28   2.0000      -0.868745       -23.6398
  29   2.0000      -0.843787       -22.9606
  30   2.0000      -0.837784       -22.7973
  31   2.0000      -0.809414       -22.0253
  32   2.0000      -0.785745       -21.3812
  33   2.0000      -0.773105       -21.0373
  34   2.0000      -0.707050       -19.2398
  35   2.0000      -0.701600       -19.0915
  36   2.0000      -0.683820       -18.6077
  37   2.0000      -0.671411       -18.2700
  38   2.0000      -0.639269       -17.3954
  39   2.0000      -0.607374       -16.5275
  40   2.0000      -0.592453       -16.1215
  41   2.0000      -0.573873       -15.6159
  42   2.0000      -0.556638       -15.1469
  43   2.0000      -0.548922       -14.9369
  44   2.0000      -0.541507       -14.7351
  45   2.0000      -0.537000       -14.6125
  46   2.0000      -0.521206       -14.1827
  47   2.0000      -0.513011       -13.9598
  48   2.0000      -0.496828       -13.5194
  49   2.0000      -0.489550       -13.3213
  50   2.0000      -0.486884       -13.2488
  51   2.0000      -0.476826       -12.9751
  52   2.0000      -0.471550       -12.8315
  53   2.0000      -0.462233       -12.5780
  54   2.0000      -0.458290       -12.4707
  55   2.0000      -0.448869       -12.2144
  56   2.0000      -0.442695       -12.0463
  57   2.0000      -0.439448       -11.9580
  58   2.0000      -0.436776       -11.8853
  59   2.0000      -0.419255       -11.4085
  60   2.0000      -0.415221       -11.2987
  61   2.0000      -0.412718       -11.2306
  62   2.0000      -0.407029       -11.0758
  63   2.0000      -0.344473        -9.3736
  64   2.0000      -0.330784        -9.0011
  65   2.0000      -0.324724        -8.8362
  66   2.0000      -0.284721        -7.7477
  67   0.0000       0.023857         0.6492
  68   0.0000       0.065867         1.7923
  69   0.0000       0.096084         2.6146
  70   0.0000       0.108850         2.9619
  71   0.0000       0.129538         3.5249

MULLIKEN ATOMIC CHARGES
-----------------------
   0 S :    0.114863
   1 C :   -0.131394
   2 C :   -0.086605
   3 C :    0.043536
   4 C :   -0.182413
   5 H :    0.019761
   6 C :    0.056934
   7 H :    0.037047
   8 H :    0.020769
   9 C :   -0.057436
  10 H :    0.028117
  11 H :    0.037085
  12 C :   -0.060204
  13 H :    0.012044
  14 H :    0.034686
  15 H :    0.025866
  16 S :    0.108909
  17 C :   -0.098739
  18 C :    0.006036
  19 C :   -0.090872
  20 C :   -0.143226
  21 H :   -0.006564
  22 C :    0.090454
  23 H :    0.000326
  24 H :    0.031206
  25 C :   -0.058182
  26 H :    0.031170
  27 H :    0.039543
  28 C :   -0.073597
  29 H :    0.058863
  30 H :    0.015456
  31 H :    0.043442
  32 H :    0.063496
  33 H :    0.069624
Sum of atomic charges:   -0.0000000

LOEWDIN ATOMIC CHARGES
----------------------
   0 S :    0.401552
   1 C :   -0.194495
   2 C :   -0.058504
   3 C :   -0.060066
   4 C :   -0.199264
   5 H :    0.026696
   6 C :   -0.030115
   7 H :    0.034592
   8 H :    0.030613
   9 C :   -0.037321
  10 H :    0.021700
  11 H :    0.030097
  12 C :   -0.079182
  13 H :    0.026606
  14 H :    0.032302
  15 H :    0.018196
  16 S :    0.402057
  17 C :   -0.178499
  18 C :   -0.053770
  19 C :   -0.050646
  20 C :   -0.214459
  21 H :    0.018308
  22 C :   -0.036399
  23 H :    0.022022
  24 H :    0.036261
  25 C :   -0.038794
  26 H :    0.023582
  27 H :    0.029717
  28 C :   -0.067020
  29 H :    0.038337
  30 H :    0.010713
  31 H :    0.030326
  32 H :    0.030876
  33 H :    0.033984

  Mayer bond orders larger than 0.100000
B(  0-S ,  1-C ) :   1.1341 B(  0-S ,  4-C ) :   1.1581 B(  1-C ,  2-C ) :   1.5987
B(  1-C ,  4-C ) :   0.1052 B(  1-C , 32-H ) :   0.9669 B(  2-C ,  3-C ) :   1.2462
B(  2-C ,  6-C ) :   1.0191 B(  3-C ,  4-C ) :   1.5528 B(  3-C ,  5-H ) :   0.9724
B(  4-C , 20-C ) :   1.0723 B(  6-C ,  7-H ) :   0.9501 B(  6-C ,  8-H ) :   0.9427
B(  6-C ,  9-C ) :   1.0663 B(  9-C , 10-H ) :   0.9563 B(  9-C , 11-H ) :   0.9576
B(  9-C , 12-C ) :   1.0833 B( 12-C , 13-H ) :   0.9665 B( 12-C , 14-H ) :   0.9666
B( 12-C , 15-H ) :   0.9775 B( 16-S , 17-C ) :   1.1383 B( 16-S , 20-C ) :   1.1419
B( 17-C , 18-C ) :   1.6064 B( 17-C , 33-H ) :   0.9645 B( 18-C , 19-C ) :   1.2269
B( 18-C , 21-H ) :   0.9984 B( 19-C , 20-C ) :   1.5980 B( 19-C , 22-C ) :   1.0446
B( 22-C , 23-H ) :   0.9179 B( 22-C , 24-H ) :   0.9309 B( 22-C , 25-C ) :   1.0899
B( 25-C , 26-H ) :   0.9546 B( 25-C , 27-H ) :   0.9533 B( 25-C , 28-C ) :   1.0723
B( 28-C , 29-H ) :   0.9699 B( 28-C , 30-H ) :   0.9770 B( 28-C , 31-H ) :   0.9747

Dispersion correction           -0.015159296
FINAL SINGLE POINT ENERGY     -1339.857088995218

DIPOLE MOMENT
-------------
                                X             Y             Z
Electronic contribution:    -12.77954       7.58133     -11.76926
Nuclear contribution   :     13.05600      -7.84047      12.26936
                        -----------------------------------------
Total Dipole Moment    :      0.27646      -0.25914       0.50010
                        -----------------------------------------
Magnitude (a.u.)       :      0.62744
Magnitude (Debye)      :      1.59483

Rotational constants in cm-1:     0.020835     0.008260     0.007721
Rotational constants in MHz :   624.615990   247.613785   231.480902

                             ****ORCA TERMINATED NORMALLY****
TOTAL RUN TIME: 0 days 0 hours 0 minutes 21 seconds 167 msec
