                         Program Version 4.2.1 -  RELEASE  -
|  1> ! wB97X-D3 SP def2-SVP
|  2> %pal
|  3> nprocs 24
|  4> end
|  5>
|  6> * xyz 0 1
|  7> S 	 -18.1955 	 -34.1899 	 -106.38
|  8> C 	 -18.6021 	 -33.1635 	 -105.038
|  9> C 	 -17.6218 	 -33.262 	 -104.034
| 10> C 	 -16.6249 	 -34.228 	 -104.305
| 11> C 	 -16.7853 	 -34.7629 	 -105.571
| 12> H 	 -15.7256 	 -34.4429 	 -103.706
| 13> C 	 -17.5984 	 -32.6172 	 -102.728
| 14> H 	 -17.415 	 -33.4088 	 -101.988
| 15> H 	 -18.5975 	 -32.2215 	 -102.514
| 16> C 	 -16.4715 	 -31.6434 	 -102.513
| 17> H 	 -16.5459 	 -31.2457 	 -101.485
| 18> H 	 -15.4671 	 -32.0841 	 -102.684
| 19> C 	 -16.6051 	 -30.4024 	 -103.45
| 20> H 	 -16.6162 	 -30.7453 	 -104.536
| 21> H 	 -17.5342 	 -29.7675 	 -103.289
| 22> H 	 -15.702 	 -29.8088 	 -103.365
| 23> S 	 -16.5027 	 -37.3497 	 -106.489
| 24> C 	 -14.8955 	 -37.9597 	 -106.826
| 25> C 	 -13.9573 	 -37.0256 	 -106.621
| 26> C 	 -14.4879 	 -35.7257 	 -106.246
| 27> C 	 -15.8824 	 -35.7809 	 -106.055
| 28> H 	 -12.9286 	 -37.2892 	 -106.665
| 29> C 	 -13.5724 	 -34.5672 	 -105.866
| 30> H 	 -12.5802 	 -35.052 	 -105.658
| 31> H 	 -13.9895 	 -34.2494 	 -104.857
| 32> C 	 -13.466 	 -33.4798 	 -106.891
| 33> H 	 -13.2832 	 -33.9826 	 -107.796
| 34> H 	 -12.569 	 -32.9534 	 -106.739
| 35> C 	 -14.6618 	 -32.4967 	 -107.098
| 36> H 	 -15.2038 	 -32.3279 	 -106.158
| 37> H 	 -15.3431 	 -32.9885 	 -107.794
| 38> H 	 -14.3765 	 -31.4959 	 -107.463
| 39> H 	 -19.4006 	 -32.4901 	 -105.043
| 40> H 	 -14.6128 	 -39.0007 	 -106.981
| 41> *
| 42>
| 43>                          ****END OF INPUT****

CARTESIAN COORDINATES (ANGSTROEM)
---------------------------------
  S    -18.195500  -34.189900  -106.380000
  C    -18.602100  -33.163500  -105.038000
  C    -17.621800  -33.262000  -104.034000
  C    -16.624900  -34.228000  -104.305000
  C    -16.785300  -34.762900  -105.571000
  H    -15.725600  -34.442900  -103.706000
  C    -17.598400  -32.617200  -102.728000
  H    -17.415000  -33.408800  -101.988000
  H    -18.597500  -32.221500  -102.514000
  C    -16.471500  -31.643400  -102.513000
  H    -16.545900  -31.245700  -101.485000
  H    -15.467100  -32.084100  -102.684000
  C    -16.605100  -30.402400  -103.450000
  H    -16.616200  -30.745300  -104.536000
  H    -17.534200  -29.767500  -103.289000
  H    -15.702000  -29.808800  -103.365000
  S    -16.502700  -37.349700  -106.489000
  C    -14.895500  -37.959700  -106.826000
  C    -13.957300  -37.025600  -106.621000
  C    -14.487900  -35.725700  -106.246000
  C    -15.882400  -35.780900  -106.055000
  H    -12.928600  -37.289200  -106.665000
  C    -13.572400  -34.567200  -105.866000
  H    -12.580200  -35.052000  -105.658000
  H    -13.989500  -34.249400  -104.857000
  C    -13.466000  -33.479800  -106.891000
  H    -13.283200  -33.982600  -107.796000
  H    -12.569000  -32.953400  -106.739000
  C    -14.661800  -32.496700  -107.098000
  H    -15.203800  -32.327900  -106.158000
  H    -15.343100  -32.988500  -107.794000
  H    -14.376500  -31.495900  -107.463000
  H    -19.400600  -32.490100  -105.043000
  H    -14.612800  -39.000700  -106.981000

 Total Charge           Charge          ....    0
 Multiplicity           Mult            ....    1
 Number of Electrons    NEL             ....  134
 Basis Dimension        Dim             ....  322

ORBITAL ENERGIES
----------------

  NO   OCC          E(Eh)            E(eV)
   0   2.0000     -88.971112     -2421.0270
   1   2.0000     -88.963301     -2420.8145
   2   2.0000     -10.326094      -280.9873
   3   2.0000     -10.324829      -280.9529
   4   2.0000     -10.312202      -280.6093
   5   2.0000     -10.311290      -280.5845
   6   2.0000     -10.302975      -280.3582
   7   2.0000     -10.298126      -280.2263
   8   2.0000     -10.297150      -280.1997
   9   2.0000     -10.292385      -280.0700
  10   2.0000     -10.292167      -280.0641
  11   2.0000     -10.287869      -279.9471
  12   2.0000     -10.286087      -279.8987
  13   2.0000     -10.283210      -279.8204
  14   2.0000     -10.274741      -279.5899
  15   2.0000     -10.273974      -279.5690
  16   2.0000      -8.086034      -220.0322
  17   2.0000      -8.078221      -219.8196
  18   2.0000      -6.044403      -164.4766
  19   2.0000      -6.040464      -164.3694
  20   2.0000      -6.036984      -164.2747
  21   2.0000      -6.036776      -164.2690
  22   2.0000      -6.032667      -164.1572
  23   2.0000      -6.028966      -164.0565
  24   2.0000      -1.010442       -27.4955
  25   2.0000      -0.986445       -26.8425
  26   2.0000      -0.920462       -25.0470
  27   2.0000      -0.908044       -24.7091
  28   2.0000      -0.872335       -23.7374
  29   2.0000      -0.850714       -23.1491
  30   2.0000      -0.841492       -22.8982
  31   2.0000      -0.814509       -22.1639
  32   2.0000      -0.781106       -21.2550
  33   2.0000      -0.771304       -20.9883
  34   2.0000      -0.711656       -19.3652
  35   2.0000      -0.696832       -18.9618
  36   2.0000      -0.693553       -18.8725
  37   2.0000      -0.657611       -17.8945
  38   2.0000      -0.641688       -17.4612
  39   2.0000      -0.623841       -16.9756
  40   2.0000      -0.589836       -16.0502
  41   2.0000      -0.571018       -15.5382
  42   2.0000      -0.552466       -15.0334
  43   2.0000      -0.550956       -14.9923
  44   2.0000      -0.541237       -14.7278
  45   2.0000      -0.536102       -14.5881
  46   2.0000      -0.523701       -14.2506
  47   2.0000      -0.506157       -13.7732
  48   2.0000      -0.503149       -13.6914
  49   2.0000      -0.498210       -13.5570
  50   2.0000      -0.493006       -13.4154
  51   2.0000      -0.483971       -13.1695
  52   2.0000      -0.468153       -12.7391
  53   2.0000      -0.465287       -12.6611
  54   2.0000      -0.455477       -12.3942
  55   2.0000      -0.447815       -12.1857
  56   2.0000      -0.441970       -12.0266
  57   2.0000      -0.439015       -11.9462
  58   2.0000      -0.433468       -11.7953
  59   2.0000      -0.422221       -11.4892
  60   2.0000      -0.418557       -11.3895
  61   2.0000      -0.415063       -11.2944
  62   2.0000      -0.408250       -11.1090
  63   2.0000      -0.346495        -9.4286
  64   2.0000      -0.331079        -9.0091
  65   2.0000      -0.327177        -8.9029
  66   2.0000      -0.293319        -7.9816
  67   0.0000       0.034141         0.9290
  68   0.0000       0.068814         1.8725
  69   0.0000       0.113849         3.0980
  70   0.0000       0.119306         3.2465
  71   0.0000       0.123364         3.3569

MULLIKEN ATOMIC CHARGES
-----------------------
   0 S :    0.132474
   1 C :   -0.104091
   2 C :   -0.078919
   3 C :   -0.008603
   4 C :   -0.147129
   5 H :    0.037469
   6 C :    0.085519
   7 H :    0.032297
   8 H :    0.015538
   9 C :   -0.081598
  10 H :    0.038356
  11 H :    0.035561
  12 C :   -0.104352
  13 H :    0.051314
  14 H :    0.042776
  15 H :    0.034407
  16 S :    0.108475
  17 C :   -0.083828
  18 C :   -0.029145
  19 C :   -0.057159
  20 C :   -0.172827
  21 H :    0.008094
  22 C :    0.040758
  23 H :    0.025485
  24 H :    0.019983
  25 C :    0.000022
  26 H :    0.006508
  27 H :    0.010251
  28 C :   -0.047637
  29 H :    0.031915
  30 H :    0.037561
  31 H :    0.038156
  32 H :    0.025861
  33 H :    0.056506
Sum of atomic charges:    0.0000000

LOEWDIN ATOMIC CHARGES
----------------------
   0 S :    0.432509
   1 C :   -0.200103
   2 C :   -0.059624
   3 C :   -0.060923
   4 C :   -0.202050
   5 H :    0.036975
   6 C :   -0.039583
   7 H :    0.037841
   8 H :    0.029913
   9 C :   -0.040812
  10 H :    0.028697
  11 H :    0.026823
  12 C :   -0.079674
  13 H :    0.029766
  14 H :    0.029982
  15 H :    0.022318
  16 S :    0.403808
  17 C :   -0.187803
  18 C :   -0.072042
  19 C :   -0.057596
  20 C :   -0.203756
  21 H :    0.026971
  22 C :   -0.034391
  23 H :    0.036643
  24 H :    0.030456
  25 C :   -0.038756
  26 H :    0.021164
  27 H :    0.017525
  28 C :   -0.064572
  29 H :    0.024304
  30 H :    0.026547
  31 H :    0.029048
  32 H :    0.015765
  33 H :    0.034630

  Mayer bond orders larger than 0.100000
B(  0-S ,  1-C ) :   1.1384 B(  0-S ,  4-C ) :   1.1717 B(  1-C ,  2-C ) :   1.5680
B(  1-C , 32-H ) :   0.9789 B(  2-C ,  3-C ) :   1.2527 B(  2-C ,  6-C ) :   1.0411
B(  3-C ,  4-C ) :   1.5532 B(  3-C ,  5-H ) :   0.9840 B(  4-C , 20-C ) :   1.0399
B(  6-C ,  7-H ) :   0.9330 B(  6-C ,  8-H ) :   0.9382 B(  6-C ,  9-C ) :   1.0721
B(  9-C , 10-H ) :   0.9538 B(  9-C , 11-H ) :   0.9548 B(  9-C , 12-C ) :   1.0699
B( 12-C , 13-H ) :   0.9718 B( 12-C , 14-H ) :   0.9735 B( 12-C , 15-H ) :   0.9748
B( 16-S , 17-C ) :   1.1380 B( 16-S , 20-C ) :   1.1464 B( 17-C , 18-C ) :   1.6498
B( 17-C , 33-H ) :   0.9610 B( 18-C , 19-C ) :   1.2304 B( 18-C , 21-H ) :   0.9893
B( 19-C , 20-C ) :   1.5900 B( 19-C , 22-C ) :   1.0227 B( 22-C , 23-H ) :   0.9328
B( 22-C , 24-H ) :   0.9382 B( 22-C , 25-C ) :   1.0775 B( 25-C , 26-H ) :   0.9488
B( 25-C , 27-H ) :   0.9528 B( 25-C , 28-C ) :   1.0639 B( 28-C , 29-H ) :   0.9768
B( 28-C , 30-H ) :   0.9737 B( 28-C , 31-H ) :   0.9754

Dispersion correction           -0.016898687
FINAL SINGLE POINT ENERGY     -1339.886134826181

DIPOLE MOMENT
-------------
                                X             Y             Z
Electronic contribution:    -11.98499     -22.66483      -9.57638
Nuclear contribution   :     12.45701      22.94376       9.99477
                        -----------------------------------------
Total Dipole Moment    :      0.47201       0.27892       0.41839
                        -----------------------------------------
Magnitude (a.u.)       :      0.68967
Magnitude (Debye)      :      1.75300

Rotational constants in cm-1:     0.021204     0.009811     0.008182
Rotational constants in MHz :   635.673994   294.133476   245.295595

                             ****ORCA TERMINATED NORMALLY****
TOTAL RUN TIME: 0 days 0 hours 0 minutes 22 seconds 508 msec
