                         Program Version 4.2.1 -  RELEASE  -
|  1> ! wB97X-D3 SP def2-SVP
|  2> %pal
|  3> nprocs 24
|  4> end
|  5>
|  6> * xyz 0 1
|  7> S 	 -68.083 	 7.50031 	 -78.5554
|  8> C 	 -67.7467 	 7.38783 	 -80.2814
|  9> C 	 -68.3557 	 6.32051 	 -80.8377
| 10> C 	 -69.1756 	 5.61134 	 -79.9274
| 11> C 	 -69.1991 	 6.11907 	 -78.6811
| 12> H 	 -69.6236 	 4.56771 	 -80.0811
| 13> C 	 -68.2231 	 6.01318 	 -82.2754
| 14> H 	 -68.0546 	 7.06777 	 -82.7134
| 15> H 	 -69.2302 	 5.67154 	 -82.5689
| 16> C 	 -67.0864 	 5.11946 	 -82.8153
| 17> H 	 -67.2476 	 4.95445 	 -83.8996
| 18> H 	 -66.2034 	 5.59134 	 -82.735
| 19> C 	 -66.7461 	 3.82442 	 -82.0207
| 20> H 	 -66.5606 	 4.21512 	 -81.0384
| 21> H 	 -67.5271 	 3.12665 	 -82.0037
| 22> H 	 -65.875 	 3.30869 	 -82.3118
| 23> S 	 -71.4757 	 6.3954 	 -77.1784
| 24> C 	 -71.8693 	 5.22744 	 -75.9379
| 25> C 	 -70.8545 	 4.27604 	 -75.7949
| 26> C 	 -69.8187 	 4.43109 	 -76.7978
| 27> C 	 -69.9401 	 5.59892 	 -77.5497
| 28> H 	 -71.0426 	 3.51252 	 -75.0702
| 29> C 	 -68.699 	 3.41704 	 -76.8554
| 30> H 	 -68.1707 	 3.52863 	 -77.8107
| 31> H 	 -69.154 	 2.41735 	 -76.9557
| 32> C 	 -67.79 	 3.39303 	 -75.654
| 33> H 	 -68.3953 	 3.00305 	 -74.7717
| 34> H 	 -67.6373 	 4.45056 	 -75.4674
| 35> C 	 -66.4888 	 2.64358 	 -75.809
| 36> H 	 -65.8764 	 2.97028 	 -76.7043
| 37> H 	 -66.7189 	 1.57271 	 -75.8256
| 38> H 	 -65.8173 	 2.82345 	 -74.9252
| 39> H 	 -67.0296 	 8.05307 	 -80.7837
| 40> H 	 -72.6554 	 5.21589 	 -75.2876
| 41> *
| 42>
| 43>                          ****END OF INPUT****

CARTESIAN COORDINATES (ANGSTROEM)
---------------------------------
  S    -68.083000    7.500310  -78.555400
  C    -67.746700    7.387830  -80.281400
  C    -68.355700    6.320510  -80.837700
  C    -69.175600    5.611340  -79.927400
  C    -69.199100    6.119070  -78.681100
  H    -69.623600    4.567710  -80.081100
  C    -68.223100    6.013180  -82.275400
  H    -68.054600    7.067770  -82.713400
  H    -69.230200    5.671540  -82.568900
  C    -67.086400    5.119460  -82.815300
  H    -67.247600    4.954450  -83.899600
  H    -66.203400    5.591340  -82.735000
  C    -66.746100    3.824420  -82.020700
  H    -66.560600    4.215120  -81.038400
  H    -67.527100    3.126650  -82.003700
  H    -65.875000    3.308690  -82.311800
  S    -71.475700    6.395400  -77.178400
  C    -71.869300    5.227440  -75.937900
  C    -70.854500    4.276040  -75.794900
  C    -69.818700    4.431090  -76.797800
  C    -69.940100    5.598920  -77.549700
  H    -71.042600    3.512520  -75.070200
  C    -68.699000    3.417040  -76.855400
  H    -68.170700    3.528630  -77.810700
  H    -69.154000    2.417350  -76.955700
  C    -67.790000    3.393030  -75.654000
  H    -68.395300    3.003050  -74.771700
  H    -67.637300    4.450560  -75.467400
  C    -66.488800    2.643580  -75.809000
  H    -65.876400    2.970280  -76.704300
  H    -66.718900    1.572710  -75.825600
  H    -65.817300    2.823450  -74.925200
  H    -67.029600    8.053070  -80.783700
  H    -72.655400    5.215890  -75.287600

 Total Charge           Charge          ....    0
 Multiplicity           Mult            ....    1
 Number of Electrons    NEL             ....  134
 Basis Dimension        Dim             ....  322

ORBITAL ENERGIES
----------------

  NO   OCC          E(Eh)            E(eV)
   0   2.0000     -88.964222     -2420.8396
   1   2.0000     -88.963528     -2420.8207
   2   2.0000     -10.327196      -281.0173
   3   2.0000     -10.326961      -281.0109
   4   2.0000     -10.314295      -280.6662
   5   2.0000     -10.313472      -280.6438
   6   2.0000     -10.308246      -280.5016
   7   2.0000     -10.296726      -280.1881
   8   2.0000     -10.295984      -280.1680
   9   2.0000     -10.294477      -280.1270
  10   2.0000     -10.294440      -280.1260
  11   2.0000     -10.287590      -279.9396
  12   2.0000     -10.285602      -279.8855
  13   2.0000     -10.285138      -279.8728
  14   2.0000     -10.282482      -279.8006
  15   2.0000     -10.268314      -279.4150
  16   2.0000      -8.078696      -219.8325
  17   2.0000      -8.077992      -219.8133
  18   2.0000      -6.037274      -164.2826
  19   2.0000      -6.036512      -164.2618
  20   2.0000      -6.033147      -164.1703
  21   2.0000      -6.032643      -164.1566
  22   2.0000      -6.029481      -164.0705
  23   2.0000      -6.028640      -164.0476
  24   2.0000      -1.007082       -27.4041
  25   2.0000      -0.983855       -26.7720
  26   2.0000      -0.912842       -24.8397
  27   2.0000      -0.911187       -24.7947
  28   2.0000      -0.872803       -23.7502
  29   2.0000      -0.849535       -23.1170
  30   2.0000      -0.846443       -23.0329
  31   2.0000      -0.820186       -22.3184
  32   2.0000      -0.784016       -21.3342
  33   2.0000      -0.771532       -20.9944
  34   2.0000      -0.711336       -19.3564
  35   2.0000      -0.705932       -19.2094
  36   2.0000      -0.692502       -18.8439
  37   2.0000      -0.660355       -17.9692
  38   2.0000      -0.639721       -17.4077
  39   2.0000      -0.614059       -16.7094
  40   2.0000      -0.592675       -16.1275
  41   2.0000      -0.577560       -15.7162
  42   2.0000      -0.566621       -15.4185
  43   2.0000      -0.546546       -14.8723
  44   2.0000      -0.546098       -14.8601
  45   2.0000      -0.526339       -14.3224
  46   2.0000      -0.517275       -14.0758
  47   2.0000      -0.515066       -14.0157
  48   2.0000      -0.501092       -13.6354
  49   2.0000      -0.500894       -13.6300
  50   2.0000      -0.490104       -13.3364
  51   2.0000      -0.480205       -13.0670
  52   2.0000      -0.473221       -12.8770
  53   2.0000      -0.469761       -12.7829
  54   2.0000      -0.460139       -12.5210
  55   2.0000      -0.443544       -12.0694
  56   2.0000      -0.440582       -11.9889
  57   2.0000      -0.439760       -11.9665
  58   2.0000      -0.426183       -11.5970
  59   2.0000      -0.424115       -11.5407
  60   2.0000      -0.418384       -11.3848
  61   2.0000      -0.415889       -11.3169
  62   2.0000      -0.410137       -11.1604
  63   2.0000      -0.338247        -9.2042
  64   2.0000      -0.326862        -8.8944
  65   2.0000      -0.325392        -8.8544
  66   2.0000      -0.311014        -8.4631
  67   0.0000       0.042512         1.1568
  68   0.0000       0.055322         1.5054
  69   0.0000       0.111745         3.0407
  70   0.0000       0.119433         3.2499
  71   0.0000       0.125513         3.4154

MULLIKEN ATOMIC CHARGES
-----------------------
   0 S :    0.102686
   1 C :   -0.133960
   2 C :   -0.096267
   3 C :    0.036578
   4 C :   -0.183881
   5 H :    0.047228
   6 C :    0.028723
   7 H :    0.039107
   8 H :    0.033313
   9 C :   -0.013288
  10 H :    0.035374
  11 H :   -0.005321
  12 C :   -0.032587
  13 H :    0.031040
  14 H :    0.018156
  15 H :    0.024654
  16 S :    0.110888
  17 C :   -0.050569
  18 C :   -0.046337
  19 C :   -0.030440
  20 C :   -0.168484
  21 H :    0.017812
  22 C :    0.084407
  23 H :    0.014864
  24 H :    0.019125
  25 C :   -0.093652
  26 H :    0.035947
  27 H :    0.030345
  28 C :   -0.056751
  29 H :    0.046114
  30 H :    0.035180
  31 H :    0.043536
  32 H :    0.056917
  33 H :    0.019543
Sum of atomic charges:   -0.0000000

LOEWDIN ATOMIC CHARGES
----------------------
   0 S :    0.381836
   1 C :   -0.185849
   2 C :   -0.081942
   3 C :   -0.064752
   4 C :   -0.192316
   5 H :    0.049497
   6 C :   -0.035516
   7 H :    0.045743
   8 H :    0.032608
   9 C :   -0.030927
  10 H :    0.028322
  11 H :    0.008608
  12 C :   -0.054270
  13 H :    0.026618
  14 H :    0.013073
  15 H :    0.021976
  16 S :    0.404796
  17 C :   -0.167332
  18 C :   -0.068717
  19 C :   -0.046485
  20 C :   -0.202664
  21 H :    0.029110
  22 C :   -0.038274
  23 H :    0.027377
  24 H :    0.029885
  25 C :   -0.050022
  26 H :    0.030377
  27 H :    0.023676
  28 C :   -0.072110
  29 H :    0.033475
  30 H :    0.026080
  31 H :    0.033828
  32 H :    0.033046
  33 H :    0.011249

  Mayer bond orders larger than 0.100000
B(  0-S ,  1-C ) :   1.1275 B(  0-S ,  4-C ) :   1.1337 B(  1-C ,  2-C ) :   1.6376
B(  1-C , 32-H ) :   0.9649 B(  2-C ,  3-C ) :   1.2126 B(  2-C ,  6-C ) :   1.0070
B(  3-C ,  4-C ) :   1.6343 B(  3-C ,  5-H ) :   0.9794 B(  4-C , 20-C ) :   1.0103
B(  6-C ,  7-H ) :   0.9453 B(  6-C ,  8-H ) :   0.9421 B(  6-C ,  9-C ) :   1.0661
B(  9-C , 10-H ) :   0.9558 B(  9-C , 11-H ) :   0.9518 B(  9-C , 12-C ) :   1.0751
B( 12-C , 13-H ) :   0.9702 B( 12-C , 14-H ) :   0.9805 B( 12-C , 15-H ) :   0.9758
B( 16-S , 17-C ) :   1.1594 B( 16-S , 20-C ) :   1.1343 B( 17-C , 18-C ) :   1.6327
B( 17-C , 33-H ) :   0.9742 B( 18-C , 19-C ) :   1.2061 B( 18-C , 21-H ) :   0.9921
B( 19-C , 20-C ) :   1.6137 B( 19-C , 22-C ) :   1.0593 B( 22-C , 23-H ) :   0.9315
B( 22-C , 24-H ) :   0.9239 B( 22-C , 25-C ) :   1.0573 B( 25-C , 26-H ) :   0.9473
B( 25-C , 27-H ) :   0.9568 B( 25-C , 28-C ) :   1.0923 B( 28-C , 29-H ) :   0.9721
B( 28-C , 30-H ) :   0.9724 B( 28-C , 31-H ) :   0.9726

Dispersion correction           -0.014514493
FINAL SINGLE POINT ENERGY     -1339.867351428822

DIPOLE MOMENT
-------------
                                X             Y             Z
Electronic contribution:    -16.58761      19.57108       7.71358
Nuclear contribution   :     16.86439     -20.15021      -7.88196
                        -----------------------------------------
Total Dipole Moment    :      0.27678      -0.57913      -0.16838
                        -----------------------------------------
Magnitude (a.u.)       :      0.66359
Magnitude (Debye)      :      1.68672

Rotational constants in cm-1:     0.017255     0.009031     0.007128
Rotational constants in MHz :   517.305444   270.730756   213.687015

                             ****ORCA TERMINATED NORMALLY****
TOTAL RUN TIME: 0 days 0 hours 0 minutes 21 seconds 701 msec
