                         Program Version 4.2.1 -  RELEASE  -
|  1> ! wB97X-D3 SP def2-SVP
|  2> %pal
|  3> nprocs 24
|  4> end
|  5>
|  6> * xyz 0 1
|  7> S 	 -102.121 	 46.2431 	 -101.443
|  8> C 	 -102.645 	 47.9176 	 -101.363
|  9> C 	 -101.871 	 48.6847 	 -100.536
| 10> C 	 -100.721 	 47.982 	 -100.098
| 11> C 	 -100.8 	 46.613 	 -100.385
| 12> H 	 -99.9707 	 48.3902 	 -99.4309
| 13> C 	 -102.203 	 50.1359 	 -100.108
| 14> H 	 -102.056 	 50.0463 	 -98.9859
| 15> H 	 -103.278 	 50.302 	 -100.363
| 16> C 	 -101.27 	 51.2641 	 -100.732
| 17> H 	 -101.114 	 51.1869 	 -101.834
| 18> H 	 -101.805 	 52.2166 	 -100.592
| 19> C 	 -99.8631 	 51.2982 	 -100.097
| 20> H 	 -99.7958 	 51.5784 	 -99.0308
| 21> H 	 -99.2489 	 50.5243 	 -100.446
| 22> H 	 -99.365 	 52.1148 	 -100.574
| 23> S 	 -100.44 	 44.3373 	 -98.8573
| 24> C 	 -98.8103 	 43.9601 	 -98.3698
| 25> C 	 -97.8673 	 44.6409 	 -99.1049
| 26> C 	 -98.464 	 45.5378 	 -100.038
| 27> C 	 -99.8827 	 45.5704 	 -99.8763
| 28> H 	 -96.8405 	 44.4201 	 -98.8982
| 29> C 	 -97.6252 	 46.4137 	 -100.982
| 30> H 	 -96.5162 	 46.3043 	 -100.753
| 31> H 	 -97.9422 	 47.4002 	 -100.66
| 32> C 	 -97.7817 	 46.2989 	 -102.485
| 33> H 	 -97.6013 	 47.2303 	 -103.02
| 34> H 	 -98.8173 	 45.9737 	 -102.863
| 35> C 	 -96.8306 	 45.2879 	 -103.124
| 36> H 	 -96.8231 	 45.2649 	 -104.296
| 37> H 	 -97.1128 	 44.2965 	 -102.839
| 38> H 	 -95.73 	 45.3302 	 -102.791
| 39> H 	 -103.58 	 48.1781 	 -101.935
| 40> H 	 -98.6335 	 43.2422 	 -97.5542
| 41> *
| 42>
| 43>                          ****END OF INPUT****

CARTESIAN COORDINATES (ANGSTROEM)
---------------------------------
  S    -102.121000   46.243100  -101.443000
  C    -102.645000   47.917600  -101.363000
  C    -101.871000   48.684700  -100.536000
  C    -100.721000   47.982000  -100.098000
  C    -100.800000   46.613000  -100.385000
  H    -99.970700   48.390200  -99.430900
  C    -102.203000   50.135900  -100.108000
  H    -102.056000   50.046300  -98.985900
  H    -103.278000   50.302000  -100.363000
  C    -101.270000   51.264100  -100.732000
  H    -101.114000   51.186900  -101.834000
  H    -101.805000   52.216600  -100.592000
  C    -99.863100   51.298200  -100.097000
  H    -99.795800   51.578400  -99.030800
  H    -99.248900   50.524300  -100.446000
  H    -99.365000   52.114800  -100.574000
  S    -100.440000   44.337300  -98.857300
  C    -98.810300   43.960100  -98.369800
  C    -97.867300   44.640900  -99.104900
  C    -98.464000   45.537800  -100.038000
  C    -99.882700   45.570400  -99.876300
  H    -96.840500   44.420100  -98.898200
  C    -97.625200   46.413700  -100.982000
  H    -96.516200   46.304300  -100.753000
  H    -97.942200   47.400200  -100.660000
  C    -97.781700   46.298900  -102.485000
  H    -97.601300   47.230300  -103.020000
  H    -98.817300   45.973700  -102.863000
  C    -96.830600   45.287900  -103.124000
  H    -96.823100   45.264900  -104.296000
  H    -97.112800   44.296500  -102.839000
  H    -95.730000   45.330200  -102.791000
  H    -103.580000   48.178100  -101.935000
  H    -98.633500   43.242200  -97.554200

 Total Charge           Charge          ....    0
 Multiplicity           Mult            ....    1
 Number of Electrons    NEL             ....  134
 Basis Dimension        Dim             ....  322

ORBITAL ENERGIES
----------------

  NO   OCC          E(Eh)            E(eV)
   0   2.0000     -88.966465     -2420.9006
   1   2.0000     -88.964882     -2420.8575
   2   2.0000     -10.329702      -281.0855
   3   2.0000     -10.323363      -280.9130
   4   2.0000     -10.314979      -280.6848
   5   2.0000     -10.313666      -280.6491
   6   2.0000     -10.307057      -280.4693
   7   2.0000     -10.305510      -280.4272
   8   2.0000     -10.300060      -280.2789
   9   2.0000     -10.298385      -280.2333
  10   2.0000     -10.296262      -280.1755
  11   2.0000     -10.293430      -280.0985
  12   2.0000     -10.291942      -280.0580
  13   2.0000     -10.287654      -279.9413
  14   2.0000     -10.282156      -279.7917
  15   2.0000     -10.275765      -279.6178
  16   2.0000      -8.082342      -219.9317
  17   2.0000      -8.079981      -219.8675
  18   2.0000      -6.040559      -164.3720
  19   2.0000      -6.038277      -164.3099
  20   2.0000      -6.036693      -164.2668
  21   2.0000      -6.034500      -164.2071
  22   2.0000      -6.033351      -164.1758
  23   2.0000      -6.030900      -164.1091
  24   2.0000      -1.007656       -27.4197
  25   2.0000      -0.986019       -26.8309
  26   2.0000      -0.904508       -24.6129
  27   2.0000      -0.902008       -24.5449
  28   2.0000      -0.866205       -23.5706
  29   2.0000      -0.847979       -23.0747
  30   2.0000      -0.847510       -23.0619
  31   2.0000      -0.811396       -22.0792
  32   2.0000      -0.782477       -21.2923
  33   2.0000      -0.766144       -20.8478
  34   2.0000      -0.703306       -19.1379
  35   2.0000      -0.698101       -18.9963
  36   2.0000      -0.681866       -18.5545
  37   2.0000      -0.659456       -17.9447
  38   2.0000      -0.638480       -17.3739
  39   2.0000      -0.614780       -16.7290
  40   2.0000      -0.589588       -16.0435
  41   2.0000      -0.567032       -15.4297
  42   2.0000      -0.551900       -15.0180
  43   2.0000      -0.542882       -14.7726
  44   2.0000      -0.538827       -14.6622
  45   2.0000      -0.534742       -14.5511
  46   2.0000      -0.518179       -14.1004
  47   2.0000      -0.508798       -13.8451
  48   2.0000      -0.497727       -13.5438
  49   2.0000      -0.489137       -13.3101
  50   2.0000      -0.482268       -13.1232
  51   2.0000      -0.476367       -12.9626
  52   2.0000      -0.471179       -12.8214
  53   2.0000      -0.462727       -12.5914
  54   2.0000      -0.458769       -12.4837
  55   2.0000      -0.445864       -12.1326
  56   2.0000      -0.444427       -12.0935
  57   2.0000      -0.436773       -11.8852
  58   2.0000      -0.432622       -11.7722
  59   2.0000      -0.429960       -11.6998
  60   2.0000      -0.420055       -11.4303
  61   2.0000      -0.412663       -11.2291
  62   2.0000      -0.405552       -11.0356
  63   2.0000      -0.342318        -9.3149
  64   2.0000      -0.332154        -9.0384
  65   2.0000      -0.325661        -8.8617
  66   2.0000      -0.289567        -7.8795
  67   0.0000       0.035532         0.9669
  68   0.0000       0.065085         1.7711
  69   0.0000       0.114150         3.1062
  70   0.0000       0.122471         3.3326
  71   0.0000       0.130347         3.5469

MULLIKEN ATOMIC CHARGES
-----------------------
   0 S :    0.110465
   1 C :   -0.166231
   2 C :   -0.076194
   3 C :    0.031082
   4 C :   -0.174252
   5 H :    0.022882
   6 C :    0.037998
   7 H :    0.051996
   8 H :    0.034940
   9 C :   -0.081107
  10 H :    0.042050
  11 H :    0.036007
  12 C :   -0.039845
  13 H :    0.045065
  14 H :    0.030144
  15 H :    0.012284
  16 S :    0.129329
  17 C :   -0.124365
  18 C :   -0.024231
  19 C :   -0.041639
  20 C :   -0.161621
  21 H :    0.014560
  22 C :    0.094562
  23 H :    0.029646
  24 H :    0.022110
  25 C :   -0.051306
  26 H :    0.029082
  27 H :    0.044764
  28 C :   -0.112794
  29 H :    0.047075
  30 H :    0.024583
  31 H :    0.030301
  32 H :    0.067857
  33 H :    0.064806
Sum of atomic charges:    0.0000000

LOEWDIN ATOMIC CHARGES
----------------------
   0 S :    0.405774
   1 C :   -0.206895
   2 C :   -0.068061
   3 C :   -0.066285
   4 C :   -0.195802
   5 H :    0.031731
   6 C :   -0.033131
   7 H :    0.041911
   8 H :    0.033207
   9 C :   -0.039104
  10 H :    0.032471
  11 H :    0.025399
  12 C :   -0.072917
  13 H :    0.031263
  14 H :    0.020638
  15 H :    0.027679
  16 S :    0.438817
  17 C :   -0.193107
  18 C :   -0.071724
  19 C :   -0.052354
  20 C :   -0.229861
  21 H :    0.031717
  22 C :   -0.034794
  23 H :    0.037987
  24 H :    0.033450
  25 C :   -0.049849
  26 H :    0.025106
  27 H :    0.037327
  28 C :   -0.082938
  29 H :    0.035318
  30 H :    0.016541
  31 H :    0.024766
  32 H :    0.034630
  33 H :    0.031090

  Mayer bond orders larger than 0.100000
B(  0-S ,  1-C ) :   1.1336 B(  0-S ,  4-C ) :   1.1729 B(  1-C ,  2-C ) :   1.6204
B(  1-C , 32-H ) :   0.9612 B(  2-C ,  3-C ) :   1.2544 B(  2-C ,  6-C ) :   0.9995
B(  3-C ,  4-C ) :   1.5730 B(  3-C ,  5-H ) :   0.9833 B(  4-C , 20-C ) :   1.0092
B(  6-C ,  7-H ) :   0.9467 B(  6-C ,  8-H ) :   0.9474 B(  6-C ,  9-C ) :   1.0468
B(  9-C , 10-H ) :   0.9581 B(  9-C , 11-H ) :   0.9608 B(  9-C , 12-C ) :   1.0863
B( 12-C , 13-H ) :   0.9742 B( 12-C , 14-H ) :   0.9686 B( 12-C , 15-H ) :   0.9632
B( 16-S , 17-C ) :   1.1713 B( 16-S , 20-C ) :   1.1784 B( 17-C , 18-C ) :   1.5810
B( 17-C , 20-C ) :   0.1018 B( 17-C , 33-H ) :   0.9665 B( 18-C , 19-C ) :   1.2618
B( 18-C , 21-H ) :   0.9998 B( 19-C , 20-C ) :   1.5403 B( 19-C , 22-C ) :   1.0278
B( 22-C , 23-H ) :   0.9429 B( 22-C , 24-H ) :   0.9226 B( 22-C , 25-C ) :   1.0564
B( 25-C , 26-H ) :   0.9572 B( 25-C , 27-H ) :   0.9553 B( 25-C , 28-C ) :   1.0675
B( 28-C , 29-H ) :   0.9744 B( 28-C , 30-H ) :   0.9783 B( 28-C , 31-H ) :   0.9729

Dispersion correction           -0.014777735
FINAL SINGLE POINT ENERGY     -1339.870170127582

DIPOLE MOMENT
-------------
                                X             Y             Z
Electronic contribution:    -14.58056     -19.65923       8.22239
Nuclear contribution   :     14.86135      20.22452      -8.13330
                        -----------------------------------------
Total Dipole Moment    :      0.28079       0.56529       0.08909
                        -----------------------------------------
Magnitude (a.u.)       :      0.63744
Magnitude (Debye)      :      1.62025

Rotational constants in cm-1:     0.017489     0.008956     0.007714
Rotational constants in MHz :   524.308809   268.479141   231.264458

                             ****ORCA TERMINATED NORMALLY****
TOTAL RUN TIME: 0 days 0 hours 0 minutes 21 seconds 915 msec
