                         Program Version 4.2.1 -  RELEASE  -
|  1> ! wB97X-D3 SP def2-SVP
|  2> %pal
|  3> nprocs 24
|  4> end
|  5>
|  6> * xyz 0 1
|  7> S 	 -122.827 	 33.3573 	 -113.572
|  8> C 	 -121.137 	 33.1734 	 -113.598
|  9> C 	 -120.642 	 32.61 	 -112.465
| 10> C 	 -121.579 	 32.551 	 -111.419
| 11> C 	 -122.861 	 32.9358 	 -111.77
| 12> H 	 -121.236 	 32.3216 	 -110.381
| 13> C 	 -119.193 	 32.3252 	 -112.258
| 14> H 	 -118.912 	 32.755 	 -111.323
| 15> H 	 -118.715 	 32.9618 	 -112.967
| 16> C 	 -118.596 	 30.864 	 -112.434
| 17> H 	 -118.745 	 30.6404 	 -113.461
| 18> H 	 -117.505 	 30.7854 	 -112.335
| 19> C 	 -119.101 	 29.9372 	 -111.377
| 20> H 	 -118.624 	 29.9569 	 -110.403
| 21> H 	 -120.141 	 29.8859 	 -111.233
| 22> H 	 -118.841 	 28.9419 	 -111.808
| 23> S 	 -125.39 	 32.0928 	 -111.558
| 24> C 	 -126.473 	 32.6543 	 -110.275
| 25> C 	 -125.85 	 33.6664 	 -109.593
| 26> C 	 -124.465 	 33.8733 	 -109.942
| 27> C 	 -124.082 	 33.0779 	 -111.015
| 28> H 	 -126.368 	 34.1659 	 -108.862
| 29> C 	 -123.617 	 34.9936 	 -109.301
| 30> H 	 -124.244 	 35.4497 	 -108.516
| 31> H 	 -123.37 	 35.8366 	 -109.954
| 32> C 	 -122.279 	 34.6153 	 -108.573
| 33> H 	 -121.965 	 35.5232 	 -108.102
| 34> H 	 -121.451 	 34.358 	 -109.232
| 35> C 	 -122.493 	 33.6061 	 -107.369
| 36> H 	 -121.665 	 33.8058 	 -106.652
| 37> H 	 -122.551 	 32.5768 	 -107.704
| 38> H 	 -123.37 	 33.9535 	 -106.856
| 39> H 	 -120.579 	 33.2977 	 -114.496
| 40> H 	 -127.438 	 32.298 	 -110.06
| 41> *
| 42>
| 43>                          ****END OF INPUT****

CARTESIAN COORDINATES (ANGSTROEM)
---------------------------------
  S    -122.827000   33.357300  -113.572000
  C    -121.137000   33.173400  -113.598000
  C    -120.642000   32.610000  -112.465000
  C    -121.579000   32.551000  -111.419000
  C    -122.861000   32.935800  -111.770000
  H    -121.236000   32.321600  -110.381000
  C    -119.193000   32.325200  -112.258000
  H    -118.912000   32.755000  -111.323000
  H    -118.715000   32.961800  -112.967000
  C    -118.596000   30.864000  -112.434000
  H    -118.745000   30.640400  -113.461000
  H    -117.505000   30.785400  -112.335000
  C    -119.101000   29.937200  -111.377000
  H    -118.624000   29.956900  -110.403000
  H    -120.141000   29.885900  -111.233000
  H    -118.841000   28.941900  -111.808000
  S    -125.390000   32.092800  -111.558000
  C    -126.473000   32.654300  -110.275000
  C    -125.850000   33.666400  -109.593000
  C    -124.465000   33.873300  -109.942000
  C    -124.082000   33.077900  -111.015000
  H    -126.368000   34.165900  -108.862000
  C    -123.617000   34.993600  -109.301000
  H    -124.244000   35.449700  -108.516000
  H    -123.370000   35.836600  -109.954000
  C    -122.279000   34.615300  -108.573000
  H    -121.965000   35.523200  -108.102000
  H    -121.451000   34.358000  -109.232000
  C    -122.493000   33.606100  -107.369000
  H    -121.665000   33.805800  -106.652000
  H    -122.551000   32.576800  -107.704000
  H    -123.370000   33.953500  -106.856000
  H    -120.579000   33.297700  -114.496000
  H    -127.438000   32.298000  -110.060000

 Total Charge           Charge          ....    0
 Multiplicity           Mult            ....    1
 Number of Electrons    NEL             ....  134
 Basis Dimension        Dim             ....  322

ORBITAL ENERGIES
----------------

  NO   OCC          E(Eh)            E(eV)
   0   2.0000     -88.963520     -2420.8204
   1   2.0000     -88.962918     -2420.8041
   2   2.0000     -10.335797      -281.2513
   3   2.0000     -10.325147      -280.9615
   4   2.0000     -10.314828      -280.6807
   5   2.0000     -10.307740      -280.4879
   6   2.0000     -10.306869      -280.4642
   7   2.0000     -10.298543      -280.2376
   8   2.0000     -10.296106      -280.1713
   9   2.0000     -10.292159      -280.0639
  10   2.0000     -10.289395      -279.9887
  11   2.0000     -10.287311      -279.9320
  12   2.0000     -10.285535      -279.8836
  13   2.0000     -10.282854      -279.8107
  14   2.0000     -10.278520      -279.6928
  15   2.0000     -10.271599      -279.5044
  16   2.0000      -8.078115      -219.8167
  17   2.0000      -8.077982      -219.8131
  18   2.0000      -6.036582      -164.2638
  19   2.0000      -6.036543      -164.2627
  20   2.0000      -6.032758      -164.1597
  21   2.0000      -6.032324      -164.1479
  22   2.0000      -6.028801      -164.0520
  23   2.0000      -6.028761      -164.0509
  24   2.0000      -1.006363       -27.3845
  25   2.0000      -0.986252       -26.8373
  26   2.0000      -0.908874       -24.7317
  27   2.0000      -0.897750       -24.4290
  28   2.0000      -0.875535       -23.8245
  29   2.0000      -0.853375       -23.2215
  30   2.0000      -0.842256       -22.9189
  31   2.0000      -0.821734       -22.3605
  32   2.0000      -0.780443       -21.2369
  33   2.0000      -0.769843       -20.9485
  34   2.0000      -0.712112       -19.3775
  35   2.0000      -0.705951       -19.2099
  36   2.0000      -0.691272       -18.8105
  37   2.0000      -0.669086       -18.2068
  38   2.0000      -0.641519       -17.4566
  39   2.0000      -0.620065       -16.8728
  40   2.0000      -0.589909       -16.0522
  41   2.0000      -0.571771       -15.5587
  42   2.0000      -0.554349       -15.0846
  43   2.0000      -0.550847       -14.9893
  44   2.0000      -0.540990       -14.7211
  45   2.0000      -0.539788       -14.6884
  46   2.0000      -0.517554       -14.0834
  47   2.0000      -0.509637       -13.8679
  48   2.0000      -0.506667       -13.7871
  49   2.0000      -0.500119       -13.6089
  50   2.0000      -0.490258       -13.3406
  51   2.0000      -0.482813       -13.1380
  52   2.0000      -0.474775       -12.9193
  53   2.0000      -0.468350       -12.7444
  54   2.0000      -0.459864       -12.5135
  55   2.0000      -0.441132       -12.0038
  56   2.0000      -0.440284       -11.9807
  57   2.0000      -0.437113       -11.8944
  58   2.0000      -0.428143       -11.6504
  59   2.0000      -0.423432       -11.5222
  60   2.0000      -0.421360       -11.4658
  61   2.0000      -0.415044       -11.2939
  62   2.0000      -0.404535       -11.0079
  63   2.0000      -0.348429        -9.4812
  64   2.0000      -0.331229        -9.0132
  65   2.0000      -0.326598        -8.8872
  66   2.0000      -0.293201        -7.9784
  67   0.0000       0.033769         0.9189
  68   0.0000       0.053788         1.4636
  69   0.0000       0.113578         3.0906
  70   0.0000       0.116872         3.1802
  71   0.0000       0.124637         3.3916

MULLIKEN ATOMIC CHARGES
-----------------------
   0 S :    0.102334
   1 C :   -0.105145
   2 C :   -0.099134
   3 C :    0.048128
   4 C :   -0.156628
   5 H :    0.029777
   6 C :    0.067093
   7 H :    0.008779
   8 H :    0.001935
   9 C :   -0.027161
  10 H :    0.019076
  11 H :    0.028733
  12 C :   -0.052476
  13 H :    0.035558
  14 H :    0.028768
  15 H :    0.025089
  16 S :    0.103125
  17 C :   -0.069126
  18 C :   -0.009229
  19 C :   -0.000649
  20 C :   -0.172331
  21 H :   -0.014669
  22 C :    0.053675
  23 H :    0.010406
  24 H :    0.046847
  25 C :   -0.089611
  26 H :    0.015344
  27 H :    0.033905
  28 C :   -0.051559
  29 H :    0.035903
  30 H :    0.053433
  31 H :    0.019110
  32 H :    0.040498
  33 H :    0.040201
Sum of atomic charges:    0.0000000

LOEWDIN ATOMIC CHARGES
----------------------
   0 S :    0.385333
   1 C :   -0.194843
   2 C :   -0.077674
   3 C :   -0.054238
   4 C :   -0.168173
   5 H :    0.039621
   6 C :   -0.031644
   7 H :    0.023007
   8 H :    0.025610
   9 C :   -0.033441
  10 H :    0.019483
  11 H :    0.031151
  12 C :   -0.069172
  13 H :    0.027241
  14 H :    0.016742
  15 H :    0.034762
  16 S :    0.412377
  17 C :   -0.170444
  18 C :   -0.058258
  19 C :   -0.057210
  20 C :   -0.207312
  21 H :    0.016279
  22 C :   -0.031468
  23 H :    0.028657
  24 H :    0.036048
  25 C :   -0.039552
  26 H :    0.020652
  27 H :    0.018188
  28 C :   -0.064232
  29 H :    0.030532
  30 H :    0.024875
  31 H :    0.021176
  32 H :    0.023363
  33 H :    0.022561

  Mayer bond orders larger than 0.100000
B(  0-S ,  1-C ) :   1.1543 B(  0-S ,  4-C ) :   1.1243 B(  1-C ,  2-C ) :   1.6176
B(  1-C ,  4-C ) :   0.1041 B(  1-C , 32-H ) :   0.9624 B(  2-C ,  3-C ) :   1.2448
B(  2-C ,  6-C ) :   1.0176 B(  3-C ,  4-C ) :   1.5872 B(  3-C ,  5-H ) :   0.9831
B(  4-C , 20-C ) :   1.0377 B(  6-C ,  7-H ) :   0.9425 B(  6-C ,  8-H ) :   0.9383
B(  6-C ,  9-C ) :   1.0619 B(  9-C , 10-H ) :   0.9597 B(  9-C , 11-H ) :   0.9535
B(  9-C , 12-C ) :   1.0755 B( 12-C , 13-H ) :   0.9752 B( 12-C , 14-H ) :   0.9779
B( 12-C , 15-H ) :   0.9690 B( 16-S , 17-C ) :   1.1404 B( 16-S , 20-C ) :   1.1611
B( 17-C , 18-C ) :   1.6118 B( 17-C , 33-H ) :   0.9761 B( 18-C , 19-C ) :   1.2394
B( 18-C , 21-H ) :   0.9992 B( 19-C , 20-C ) :   1.5787 B( 19-C , 22-C ) :   1.0340
B( 22-C , 23-H ) :   0.9342 B( 22-C , 24-H ) :   0.9404 B( 22-C , 25-C ) :   1.0814
B( 25-C , 26-H ) :   0.9532 B( 25-C , 27-H ) :   0.9559 B( 25-C , 28-C ) :   1.0638
B( 28-C , 29-H ) :   0.9782 B( 28-C , 30-H ) :   0.9779 B( 28-C , 31-H ) :   0.9749

Dispersion correction           -0.014835117
FINAL SINGLE POINT ENERGY     -1339.863976383260

DIPOLE MOMENT
-------------
                                X             Y             Z
Electronic contribution:    -21.24832       1.96973     -16.19942
Nuclear contribution   :     21.68185      -1.80272      16.61265
                        -----------------------------------------
Total Dipole Moment    :      0.43353       0.16701       0.41323
                        -----------------------------------------
Magnitude (a.u.)       :      0.62177
Magnitude (Debye)      :      1.58042

Rotational constants in cm-1:     0.018720     0.009046     0.007474
Rotational constants in MHz :   561.224912   271.191852   224.065812

                             ****ORCA TERMINATED NORMALLY****
TOTAL RUN TIME: 0 days 0 hours 0 minutes 22 seconds 137 msec
