                         Program Version 4.2.1 -  RELEASE  -
|  1> ! wB97X-D3 SP def2-SVP
|  2> %pal
|  3> nprocs 24
|  4> end
|  5>
|  6> * xyz 0 1
|  7> S 	 -42.8391 	 -2.55421 	 16.8625
|  8> C 	 -43.085 	 -1.40099 	 15.4839
|  9> C 	 -43.2701 	 -2.09338 	 14.3225
| 10> C 	 -43.3185 	 -3.51526 	 14.508
| 11> C 	 -43.0284 	 -3.91009 	 15.8043
| 12> H 	 -43.5649 	 -4.19828 	 13.7532
| 13> C 	 -43.5126 	 -1.4465 	 12.9657
| 14> H 	 -43.8169 	 -2.17154 	 12.2893
| 15> H 	 -42.4769 	 -1.06206 	 12.6743
| 16> C 	 -44.6069 	 -0.339381 	 12.9721
| 17> H 	 -45.4862 	 -0.717025 	 13.4687
| 18> H 	 -44.1933 	 0.477618 	 13.4863
| 19> C 	 -44.7687 	 0.256239 	 11.5578
| 20> H 	 -44.7981 	 -0.477234 	 10.8364
| 21> H 	 -45.7239 	 0.804202 	 11.423
| 22> H 	 -43.8173 	 0.784252 	 11.3473
| 23> S 	 -43.0939 	 -5.75248 	 17.9929
| 24> C 	 -42.7724 	 -7.39708 	 17.6911
| 25> C 	 -42.1498 	 -7.52315 	 16.4613
| 26> C 	 -42.1769 	 -6.34961 	 15.6316
| 27> C 	 -42.7325 	 -5.2323 	 16.3433
| 28> H 	 -41.7848 	 -8.43971 	 16.1586
| 29> C 	 -41.5413 	 -6.32211 	 14.2319
| 30> H 	 -40.4709 	 -6.36583 	 14.3252
| 31> H 	 -41.8371 	 -5.36922 	 13.778
| 32> C 	 -42.0218 	 -7.40462 	 13.2932
| 33> H 	 -43.0295 	 -7.15164 	 12.9554
| 34> H 	 -42.0441 	 -8.34296 	 13.962
| 35> C 	 -41.0609 	 -7.51887 	 12.0731
| 36> H 	 -40.0079 	 -7.82157 	 12.3707
| 37> H 	 -40.76 	 -6.49737 	 11.8523
| 38> H 	 -41.3176 	 -8.37579 	 11.3818
| 39> H 	 -42.9159 	 -0.306426 	 15.4874
| 40> H 	 -42.7803 	 -8.17237 	 18.4088
| 41> *
| 42>
| 43>                          ****END OF INPUT****

CARTESIAN COORDINATES (ANGSTROEM)
---------------------------------
  S    -42.839100   -2.554210   16.862500
  C    -43.085000   -1.400990   15.483900
  C    -43.270100   -2.093380   14.322500
  C    -43.318500   -3.515260   14.508000
  C    -43.028400   -3.910090   15.804300
  H    -43.564900   -4.198280   13.753200
  C    -43.512600   -1.446500   12.965700
  H    -43.816900   -2.171540   12.289300
  H    -42.476900   -1.062060   12.674300
  C    -44.606900   -0.339381   12.972100
  H    -45.486200   -0.717025   13.468700
  H    -44.193300    0.477618   13.486300
  C    -44.768700    0.256239   11.557800
  H    -44.798100   -0.477234   10.836400
  H    -45.723900    0.804202   11.423000
  H    -43.817300    0.784252   11.347300
  S    -43.093900   -5.752480   17.992900
  C    -42.772400   -7.397080   17.691100
  C    -42.149800   -7.523150   16.461300
  C    -42.176900   -6.349610   15.631600
  C    -42.732500   -5.232300   16.343300
  H    -41.784800   -8.439710   16.158600
  C    -41.541300   -6.322110   14.231900
  H    -40.470900   -6.365830   14.325200
  H    -41.837100   -5.369220   13.778000
  C    -42.021800   -7.404620   13.293200
  H    -43.029500   -7.151640   12.955400
  H    -42.044100   -8.342960   13.962000
  C    -41.060900   -7.518870   12.073100
  H    -40.007900   -7.821570   12.370700
  H    -40.760000   -6.497370   11.852300
  H    -41.317600   -8.375790   11.381800
  H    -42.915900   -0.306426   15.487400
  H    -42.780300   -8.172370   18.408800

 Total Charge           Charge          ....    0
 Multiplicity           Mult            ....    1
 Number of Electrons    NEL             ....  134
 Basis Dimension        Dim             ....  322

ORBITAL ENERGIES
----------------

  NO   OCC          E(Eh)            E(eV)
   0   2.0000     -88.968750     -2420.9628
   1   2.0000     -88.965034     -2420.8616
   2   2.0000     -10.334356      -281.2121
   3   2.0000     -10.333154      -281.1794
   4   2.0000     -10.316161      -280.7170
   5   2.0000     -10.315430      -280.6971
   6   2.0000     -10.309956      -280.5482
   7   2.0000     -10.299928      -280.2753
   8   2.0000     -10.294318      -280.1226
   9   2.0000     -10.293589      -280.1028
  10   2.0000     -10.291630      -280.0495
  11   2.0000     -10.290777      -280.0263
  12   2.0000     -10.290385      -280.0156
  13   2.0000     -10.289653      -279.9957
  14   2.0000     -10.283988      -279.8415
  15   2.0000     -10.277468      -279.6641
  16   2.0000      -8.083828      -219.9721
  17   2.0000      -8.079355      -219.8504
  18   2.0000      -6.042395      -164.4219
  19   2.0000      -6.038161      -164.3067
  20   2.0000      -6.038055      -164.3038
  21   2.0000      -6.034639      -164.2109
  22   2.0000      -6.033950      -164.1921
  23   2.0000      -6.029909      -164.0822
  24   2.0000      -1.005997       -27.3746
  25   2.0000      -0.983787       -26.7702
  26   2.0000      -0.914603       -24.8876
  27   2.0000      -0.913716       -24.8635
  28   2.0000      -0.870952       -23.6998
  29   2.0000      -0.851064       -23.1586
  30   2.0000      -0.842149       -22.9160
  31   2.0000      -0.814266       -22.1573
  32   2.0000      -0.783516       -21.3206
  33   2.0000      -0.771508       -20.9938
  34   2.0000      -0.712111       -19.3775
  35   2.0000      -0.703759       -19.1503
  36   2.0000      -0.697552       -18.9814
  37   2.0000      -0.658882       -17.9291
  38   2.0000      -0.635155       -17.2834
  39   2.0000      -0.621795       -16.9199
  40   2.0000      -0.601530       -16.3685
  41   2.0000      -0.579734       -15.7754
  42   2.0000      -0.568193       -15.4613
  43   2.0000      -0.562976       -15.3194
  44   2.0000      -0.537800       -14.6343
  45   2.0000      -0.527090       -14.3428
  46   2.0000      -0.517701       -14.0873
  47   2.0000      -0.515631       -14.0310
  48   2.0000      -0.510199       -13.8832
  49   2.0000      -0.498107       -13.5542
  50   2.0000      -0.495012       -13.4700
  51   2.0000      -0.478039       -13.0081
  52   2.0000      -0.472886       -12.8679
  53   2.0000      -0.462594       -12.5878
  54   2.0000      -0.454463       -12.3666
  55   2.0000      -0.450762       -12.2659
  56   2.0000      -0.445347       -12.1185
  57   2.0000      -0.442158       -12.0317
  58   2.0000      -0.431417       -11.7394
  59   2.0000      -0.424818       -11.5599
  60   2.0000      -0.419330       -11.4106
  61   2.0000      -0.416236       -11.3264
  62   2.0000      -0.406774       -11.0689
  63   2.0000      -0.355665        -9.6781
  64   2.0000      -0.332943        -9.0598
  65   2.0000      -0.328419        -8.9367
  66   2.0000      -0.284242        -7.7346
  67   0.0000       0.018907         0.5145
  68   0.0000       0.076819         2.0903
  69   0.0000       0.097374         2.6497
  70   0.0000       0.121883         3.3166
  71   0.0000       0.133847         3.6422

MULLIKEN ATOMIC CHARGES
-----------------------
   0 S :    0.088878
   1 C :   -0.134021
   2 C :   -0.098978
   3 C :    0.023082
   4 C :   -0.123701
   5 H :   -0.003065
   6 C :    0.053194
   7 H :    0.001002
   8 H :    0.049860
   9 C :   -0.064525
  10 H :    0.043257
  11 H :    0.019415
  12 C :   -0.019852
  13 H :   -0.000933
  14 H :    0.047185
  15 H :    0.029406
  16 S :    0.115117
  17 C :   -0.065101
  18 C :   -0.017481
  19 C :   -0.062533
  20 C :   -0.122655
  21 H :   -0.009856
  22 C :    0.069477
  23 H :    0.035619
  24 H :    0.010614
  25 C :   -0.102508
  26 H :    0.036058
  27 H :    0.037135
  28 C :   -0.047509
  29 H :    0.015510
  30 H :    0.027551
  31 H :    0.062608
  32 H :    0.058719
  33 H :    0.049031
Sum of atomic charges:   -0.0000000

LOEWDIN ATOMIC CHARGES
----------------------
   0 S :    0.386296
   1 C :   -0.191628
   2 C :   -0.060325
   3 C :   -0.069608
   4 C :   -0.179422
   5 H :    0.020955
   6 C :   -0.026069
   7 H :    0.015196
   8 H :    0.042919
   9 C :   -0.031351
  10 H :    0.025958
  11 H :    0.016925
  12 C :   -0.061892
  13 H :    0.007665
  14 H :    0.034180
  15 H :    0.032759
  16 S :    0.422790
  17 C :   -0.189426
  18 C :   -0.065555
  19 C :   -0.045970
  20 C :   -0.204613
  21 H :    0.014272
  22 C :   -0.034260
  23 H :    0.030603
  24 H :    0.027412
  25 C :   -0.044239
  26 H :    0.023613
  27 H :    0.026949
  28 C :   -0.086326
  29 H :    0.029076
  30 H :    0.030200
  31 H :    0.041025
  32 H :    0.036011
  33 H :    0.025880

  Mayer bond orders larger than 0.100000
B(  0-S ,  1-C ) :   1.1039 B(  0-S ,  4-C ) :   1.1566 B(  1-C ,  2-C ) :   1.6457
B(  1-C , 32-H ) :   0.9650 B(  2-C ,  3-C ) :   1.2356 B(  2-C ,  6-C ) :   1.0132
B(  3-C ,  4-C ) :   1.5687 B(  3-C ,  5-H ) :   0.9898 B(  4-C , 20-C ) :   1.0602
B(  6-C ,  7-H ) :   0.9455 B(  6-C ,  8-H ) :   0.9333 B(  6-C ,  9-C ) :   1.0676
B(  9-C , 10-H ) :   0.9638 B(  9-C , 11-H ) :   0.9544 B(  9-C , 12-C ) :   1.0732
B( 12-C , 13-H ) :   0.9757 B( 12-C , 14-H ) :   0.9734 B( 12-C , 15-H ) :   0.9738
B( 16-S , 17-C ) :   1.1747 B( 16-S , 20-C ) :   1.1454 B( 17-C , 18-C ) :   1.5728
B( 17-C , 20-C ) :   0.1019 B( 17-C , 33-H ) :   0.9713 B( 18-C , 19-C ) :   1.2748
B( 18-C , 21-H ) :   0.9959 B( 19-C , 20-C ) :   1.5364 B( 19-C , 22-C ) :   1.0364
B( 22-C , 23-H ) :   0.9408 B( 22-C , 24-H ) :   0.9235 B( 22-C , 25-C ) :   1.0534
B( 25-C , 26-H ) :   0.9540 B( 25-C , 27-H ) :   0.9612 B( 25-C , 28-C ) :   1.0727
B( 28-C , 29-H ) :   0.9684 B( 28-C , 30-H ) :   0.9648 B( 28-C , 31-H ) :   0.9704

Dispersion correction           -0.013354033
FINAL SINGLE POINT ENERGY     -1339.850446867168

DIPOLE MOMENT
-------------
                                X             Y             Z
Electronic contribution:     -0.83638      -2.99835      30.70659
Nuclear contribution   :      1.03939       2.83637     -31.37481
                        -----------------------------------------
Total Dipole Moment    :      0.20301      -0.16198      -0.66822
                        -----------------------------------------
Magnitude (a.u.)       :      0.71692
Magnitude (Debye)      :      1.82226

Rotational constants in cm-1:     0.018138     0.008031     0.005838
Rotational constants in MHz :   543.753142   240.774518   175.019721

                             ****ORCA TERMINATED NORMALLY****
TOTAL RUN TIME: 0 days 0 hours 0 minutes 21 seconds 229 msec
