                         Program Version 4.2.1 -  RELEASE  -
|  1> ! wB97X-D3 SP def2-SVP
|  2> %pal
|  3> nprocs 24
|  4> end
|  5>
|  6> * xyz 0 1
|  7> S 	 -36.1142 	 8.36021 	 3.31416
|  8> C 	 -35.9549 	 9.26549 	 4.79565
|  9> C 	 -34.6629 	 9.20213 	 5.29498
| 10> C 	 -33.7896 	 8.43793 	 4.50652
| 11> C 	 -34.4013 	 7.90976 	 3.39686
| 12> H 	 -32.7467 	 8.39119 	 4.65497
| 13> C 	 -34.1017 	 9.80472 	 6.50974
| 14> H 	 -34.8948 	 10.373 	 6.98541
| 15> H 	 -33.3361 	 10.4599 	 6.335
| 16> C 	 -33.5722 	 8.84711 	 7.5922
| 17> H 	 -32.6951 	 8.35937 	 7.17218
| 18> H 	 -33.2057 	 9.55027 	 8.36653
| 19> C 	 -34.6256 	 7.94873 	 8.1522
| 20> H 	 -34.1564 	 7.24676 	 8.84388
| 21> H 	 -35.341 	 8.53357 	 8.72136
| 22> H 	 -35.1585 	 7.52568 	 7.29943
| 23> S 	 -33.8937 	 5.46863 	 2.39829
| 24> C 	 -32.9605 	 5.1794 	 0.999134
| 25> C 	 -32.3845 	 6.4138 	 0.574384
| 26> C 	 -32.8104 	 7.60117 	 1.36026
| 27> C 	 -33.7306 	 7.22063 	 2.33004
| 28> H 	 -31.7615 	 6.45332 	 -0.272291
| 29> C 	 -32.3315 	 9.00039 	 0.975523
| 30> H 	 -32.349 	 9.71988 	 1.79024
| 31> H 	 -32.9722 	 9.44929 	 0.205151
| 32> C 	 -30.8651 	 9.14583 	 0.531208
| 33> H 	 -30.7363 	 10.1617 	 0.207818
| 34> H 	 -30.7442 	 8.53551 	 -0.371569
| 35> C 	 -29.8428 	 8.68698 	 1.53108
| 36> H 	 -30.1789 	 7.71379 	 1.95615
| 37> H 	 -29.7813 	 9.37454 	 2.42323
| 38> H 	 -28.8835 	 8.50724 	 1.08049
| 39> H 	 -36.7813 	 9.88476 	 5.10443
| 40> H 	 -32.8755 	 4.24802 	 0.483019
| 41> *
| 42>
| 43>                          ****END OF INPUT****

CARTESIAN COORDINATES (ANGSTROEM)
---------------------------------
  S    -36.114200    8.360210    3.314160
  C    -35.954900    9.265490    4.795650
  C    -34.662900    9.202130    5.294980
  C    -33.789600    8.437930    4.506520
  C    -34.401300    7.909760    3.396860
  H    -32.746700    8.391190    4.654970
  C    -34.101700    9.804720    6.509740
  H    -34.894800   10.373000    6.985410
  H    -33.336100   10.459900    6.335000
  C    -33.572200    8.847110    7.592200
  H    -32.695100    8.359370    7.172180
  H    -33.205700    9.550270    8.366530
  C    -34.625600    7.948730    8.152200
  H    -34.156400    7.246760    8.843880
  H    -35.341000    8.533570    8.721360
  H    -35.158500    7.525680    7.299430
  S    -33.893700    5.468630    2.398290
  C    -32.960500    5.179400    0.999134
  C    -32.384500    6.413800    0.574384
  C    -32.810400    7.601170    1.360260
  C    -33.730600    7.220630    2.330040
  H    -31.761500    6.453320   -0.272291
  C    -32.331500    9.000390    0.975523
  H    -32.349000    9.719880    1.790240
  H    -32.972200    9.449290    0.205151
  C    -30.865100    9.145830    0.531208
  H    -30.736300   10.161700    0.207818
  H    -30.744200    8.535510   -0.371569
  C    -29.842800    8.686980    1.531080
  H    -30.178900    7.713790    1.956150
  H    -29.781300    9.374540    2.423230
  H    -28.883500    8.507240    1.080490
  H    -36.781300    9.884760    5.104430
  H    -32.875500    4.248020    0.483019

 Total Charge           Charge          ....    0
 Multiplicity           Mult            ....    1
 Number of Electrons    NEL             ....  134
 Basis Dimension        Dim             ....  322

ORBITAL ENERGIES
----------------

  NO   OCC          E(Eh)            E(eV)
   0   2.0000     -88.966190     -2420.8931
   1   2.0000     -88.961245     -2420.7585
   2   2.0000     -10.325635      -280.9748
   3   2.0000     -10.324293      -280.9383
   4   2.0000     -10.318558      -280.7822
   5   2.0000     -10.315969      -280.7118
   6   2.0000     -10.312966      -280.6301
   7   2.0000     -10.297932      -280.2210
   8   2.0000     -10.295405      -280.1522
   9   2.0000     -10.293225      -280.0929
  10   2.0000     -10.287529      -279.9379
  11   2.0000     -10.283432      -279.8264
  12   2.0000     -10.282345      -279.7968
  13   2.0000     -10.278389      -279.6892
  14   2.0000     -10.276540      -279.6389
  15   2.0000     -10.270883      -279.4849
  16   2.0000      -8.080882      -219.8920
  17   2.0000      -8.076751      -219.7796
  18   2.0000      -6.039262      -164.3367
  19   2.0000      -6.035433      -164.2325
  20   2.0000      -6.035244      -164.2273
  21   2.0000      -6.031744      -164.1321
  22   2.0000      -6.030946      -164.1104
  23   2.0000      -6.027675      -164.0214
  24   2.0000      -1.006397       -27.3855
  25   2.0000      -0.982604       -26.7380
  26   2.0000      -0.919629       -25.0244
  27   2.0000      -0.912149       -24.8208
  28   2.0000      -0.870529       -23.6883
  29   2.0000      -0.853397       -23.2221
  30   2.0000      -0.843626       -22.9562
  31   2.0000      -0.810785       -22.0626
  32   2.0000      -0.785729       -21.3808
  33   2.0000      -0.775949       -21.1146
  34   2.0000      -0.708269       -19.2730
  35   2.0000      -0.694465       -18.8974
  36   2.0000      -0.691297       -18.8111
  37   2.0000      -0.658116       -17.9083
  38   2.0000      -0.647108       -17.6087
  39   2.0000      -0.627205       -17.0671
  40   2.0000      -0.602820       -16.4036
  41   2.0000      -0.569008       -15.4835
  42   2.0000      -0.556848       -15.1526
  43   2.0000      -0.555774       -15.1234
  44   2.0000      -0.544625       -14.8200
  45   2.0000      -0.538338       -14.6489
  46   2.0000      -0.521215       -14.1830
  47   2.0000      -0.517125       -14.0717
  48   2.0000      -0.504765       -13.7353
  49   2.0000      -0.496687       -13.5155
  50   2.0000      -0.492902       -13.4125
  51   2.0000      -0.480860       -13.0849
  52   2.0000      -0.472005       -12.8439
  53   2.0000      -0.463573       -12.6145
  54   2.0000      -0.458317       -12.4714
  55   2.0000      -0.446212       -12.1420
  56   2.0000      -0.441650       -12.0179
  57   2.0000      -0.437825       -11.9138
  58   2.0000      -0.435598       -11.8532
  59   2.0000      -0.422546       -11.4981
  60   2.0000      -0.417062       -11.3488
  61   2.0000      -0.412928       -11.2363
  62   2.0000      -0.409493       -11.1429
  63   2.0000      -0.337550        -9.1852
  64   2.0000      -0.326116        -8.8741
  65   2.0000      -0.321221        -8.7409
  66   2.0000      -0.306933        -8.3521
  67   0.0000       0.040334         1.0975
  68   0.0000       0.056149         1.5279
  69   0.0000       0.111074         3.0225
  70   0.0000       0.120019         3.2659
  71   0.0000       0.130066         3.5393

MULLIKEN ATOMIC CHARGES
-----------------------
   0 S :    0.113587
   1 C :   -0.131174
   2 C :   -0.079450
   3 C :    0.059440
   4 C :   -0.163819
   5 H :    0.003194
   6 C :    0.107171
   7 H :   -0.002864
   8 H :    0.008841
   9 C :   -0.106059
  10 H :    0.026842
  11 H :    0.027827
  12 C :   -0.017803
  13 H :    0.039534
  14 H :    0.019220
  15 H :    0.046316
  16 S :    0.110942
  17 C :   -0.081656
  18 C :   -0.046725
  19 C :   -0.005828
  20 C :   -0.192640
  21 H :    0.003734
  22 C :    0.069879
  23 H :    0.016927
  24 H :    0.047799
  25 C :   -0.083749
  26 H :    0.024936
  27 H :    0.019881
  28 C :   -0.051082
  29 H :    0.038756
  30 H :    0.032629
  31 H :    0.036104
  32 H :    0.050755
  33 H :    0.058534
Sum of atomic charges:   -0.0000000

LOEWDIN ATOMIC CHARGES
----------------------
   0 S :    0.404281
   1 C :   -0.194227
   2 C :   -0.067957
   3 C :   -0.044467
   4 C :   -0.195489
   5 H :    0.028362
   6 C :   -0.029601
   7 H :    0.025462
   8 H :    0.020649
   9 C :   -0.038222
  10 H :    0.017612
  11 H :    0.026792
  12 C :   -0.062526
  13 H :    0.029276
  14 H :    0.024285
  15 H :    0.030551
  16 S :    0.424423
  17 C :   -0.198010
  18 C :   -0.068296
  19 C :   -0.050204
  20 C :   -0.203201
  21 H :    0.017038
  22 C :   -0.032614
  23 H :    0.028516
  24 H :    0.039326
  25 C :   -0.043616
  26 H :    0.023139
  27 H :    0.018907
  28 C :   -0.069286
  29 H :    0.031215
  30 H :    0.027935
  31 H :    0.025298
  32 H :    0.026107
  33 H :    0.028546

  Mayer bond orders larger than 0.100000
B(  0-S ,  1-C ) :   1.1457 B(  0-S ,  4-C ) :   1.1537 B(  1-C ,  2-C ) :   1.5842
B(  1-C , 32-H ) :   0.9718 B(  2-C ,  3-C ) :   1.2323 B(  2-C ,  6-C ) :   1.0448
B(  3-C ,  4-C ) :   1.5786 B(  3-C ,  5-H ) :   1.0086 B(  4-C , 20-C ) :   1.0106
B(  6-C ,  7-H ) :   0.9315 B(  6-C ,  8-H ) :   0.9285 B(  6-C ,  9-C ) :   1.0791
B(  9-C , 10-H ) :   0.9543 B(  9-C , 11-H ) :   0.9529 B(  9-C , 12-C ) :   1.0759
B( 12-C , 13-H ) :   0.9719 B( 12-C , 14-H ) :   0.9706 B( 12-C , 15-H ) :   0.9748
B( 16-S , 17-C ) :   1.1718 B( 16-S , 20-C ) :   1.1595 B( 17-C , 18-C ) :   1.5833
B( 17-C , 33-H ) :   0.9743 B( 18-C , 19-C ) :   1.2188 B( 18-C , 21-H ) :   0.9948
B( 19-C , 20-C ) :   1.6028 B( 19-C , 22-C ) :   1.0367 B( 22-C , 23-H ) :   0.9396
B( 22-C , 24-H ) :   0.9350 B( 22-C , 25-C ) :   1.0766 B( 25-C , 26-H ) :   0.9529
B( 25-C , 27-H ) :   0.9505 B( 25-C , 28-C ) :   1.0806 B( 28-C , 29-H ) :   0.9695
B( 28-C , 30-H ) :   0.9727 B( 28-C , 31-H ) :   0.9731

Dispersion correction           -0.014670354
FINAL SINGLE POINT ENERGY     -1339.880858930180

DIPOLE MOMENT
-------------
                                X             Y             Z
Electronic contribution:    -16.26535     -11.26634     -10.09065
Nuclear contribution   :     16.70937      11.71930      10.12561
                        -----------------------------------------
Total Dipole Moment    :      0.44402       0.45296       0.03496
                        -----------------------------------------
Magnitude (a.u.)       :      0.63526
Magnitude (Debye)      :      1.61470

Rotational constants in cm-1:     0.019349     0.008386     0.007422
Rotational constants in MHz :   580.074918   251.417184   222.494551

                             ****ORCA TERMINATED NORMALLY****
TOTAL RUN TIME: 0 days 0 hours 0 minutes 22 seconds 101 msec
