                         Program Version 4.2.1 -  RELEASE  -
|  1> ! wB97X-D3 SP def2-SVP
|  2> %pal
|  3> nprocs 24
|  4> end
|  5>
|  6> * xyz 0 1
|  7> S 	 -110.454 	 20.7003 	 -113.61
|  8> C 	 -111.257 	 19.7483 	 -112.398
|  9> C 	 -111.596 	 18.4995 	 -112.871
| 10> C 	 -111.352 	 18.3314 	 -114.301
| 11> C 	 -110.627 	 19.4446 	 -114.841
| 12> H 	 -111.392 	 17.3922 	 -114.82
| 13> C 	 -112.475 	 17.475 	 -112.173
| 14> H 	 -112.233 	 17.5417 	 -111.152
| 15> H 	 -112.189 	 16.5276 	 -112.572
| 16> C 	 -113.995 	 17.6582 	 -112.271
| 17> H 	 -114.479 	 17.0474 	 -111.549
| 18> H 	 -114.289 	 18.7093 	 -112.043
| 19> C 	 -114.49 	 17.229 	 -113.639
| 20> H 	 -115.542 	 17.1126 	 -113.596
| 21> H 	 -114.31 	 17.8566 	 -114.484
| 22> H 	 -114.105 	 16.3141 	 -113.997
| 23> S 	 -108.346 	 19.8427 	 -116.321
| 24> C 	 -108.525 	 19.8958 	 -118.071
| 25> C 	 -109.849 	 19.9424 	 -118.497
| 26> C 	 -110.743 	 19.7559 	 -117.376
| 27> C 	 -110.106 	 19.6218 	 -116.172
| 28> H 	 -110.057 	 19.9597 	 -119.575
| 29> C 	 -112.279 	 19.7432 	 -117.555
| 30> H 	 -112.452 	 20.4194 	 -118.459
| 31> H 	 -112.762 	 20.1488 	 -116.662
| 32> C 	 -112.944 	 18.4011 	 -118.005
| 33> H 	 -112.757 	 17.6598 	 -117.221
| 34> H 	 -112.229 	 18.0965 	 -118.831
| 35> C 	 -114.432 	 18.5124 	 -118.446
| 36> H 	 -115.008 	 18.6225 	 -117.505
| 37> H 	 -114.695 	 17.5679 	 -118.915
| 38> H 	 -114.582 	 19.3493 	 -119.055
| 39> H 	 -111.66 	 20.0793 	 -111.44
| 40> H 	 -107.792 	 19.7457 	 -118.802
| 41> *
| 42>
| 43>                          ****END OF INPUT****

CARTESIAN COORDINATES (ANGSTROEM)
---------------------------------
  S    -110.454000   20.700300  -113.610000
  C    -111.257000   19.748300  -112.398000
  C    -111.596000   18.499500  -112.871000
  C    -111.352000   18.331400  -114.301000
  C    -110.627000   19.444600  -114.841000
  H    -111.392000   17.392200  -114.820000
  C    -112.475000   17.475000  -112.173000
  H    -112.233000   17.541700  -111.152000
  H    -112.189000   16.527600  -112.572000
  C    -113.995000   17.658200  -112.271000
  H    -114.479000   17.047400  -111.549000
  H    -114.289000   18.709300  -112.043000
  C    -114.490000   17.229000  -113.639000
  H    -115.542000   17.112600  -113.596000
  H    -114.310000   17.856600  -114.484000
  H    -114.105000   16.314100  -113.997000
  S    -108.346000   19.842700  -116.321000
  C    -108.525000   19.895800  -118.071000
  C    -109.849000   19.942400  -118.497000
  C    -110.743000   19.755900  -117.376000
  C    -110.106000   19.621800  -116.172000
  H    -110.057000   19.959700  -119.575000
  C    -112.279000   19.743200  -117.555000
  H    -112.452000   20.419400  -118.459000
  H    -112.762000   20.148800  -116.662000
  C    -112.944000   18.401100  -118.005000
  H    -112.757000   17.659800  -117.221000
  H    -112.229000   18.096500  -118.831000
  C    -114.432000   18.512400  -118.446000
  H    -115.008000   18.622500  -117.505000
  H    -114.695000   17.567900  -118.915000
  H    -114.582000   19.349300  -119.055000
  H    -111.660000   20.079300  -111.440000
  H    -107.792000   19.745700  -118.802000

 Total Charge           Charge          ....    0
 Multiplicity           Mult            ....    1
 Number of Electrons    NEL             ....  134
 Basis Dimension        Dim             ....  322

ORBITAL ENERGIES
----------------

  NO   OCC          E(Eh)            E(eV)
   0   2.0000     -88.969117     -2420.9728
   1   2.0000     -88.967154     -2420.9193
   2   2.0000     -10.335738      -281.2497
   3   2.0000     -10.325794      -280.9791
   4   2.0000     -10.316572      -280.7282
   5   2.0000     -10.313790      -280.6525
   6   2.0000     -10.307494      -280.4812
   7   2.0000     -10.300363      -280.2871
   8   2.0000     -10.300153      -280.2814
   9   2.0000     -10.299639      -280.2674
  10   2.0000     -10.296613      -280.1851
  11   2.0000     -10.292034      -280.0605
  12   2.0000     -10.287311      -279.9320
  13   2.0000     -10.283451      -279.8269
  14   2.0000     -10.281330      -279.7692
  15   2.0000     -10.265251      -279.3317
  16   2.0000      -8.083436      -219.9615
  17   2.0000      -8.081381      -219.9055
  18   2.0000      -6.042032      -164.4120
  19   2.0000      -6.039967      -164.3559
  20   2.0000      -6.037809      -164.2971
  21   2.0000      -6.036120      -164.2512
  22   2.0000      -6.034316      -164.2021
  23   2.0000      -6.031913      -164.1367
  24   2.0000      -1.002313       -27.2743
  25   2.0000      -0.979211       -26.6457
  26   2.0000      -0.914738       -24.8913
  27   2.0000      -0.899633       -24.4803
  28   2.0000      -0.870927       -23.6991
  29   2.0000      -0.849122       -23.1058
  30   2.0000      -0.844793       -22.9880
  31   2.0000      -0.813576       -22.1385
  32   2.0000      -0.785215       -21.3668
  33   2.0000      -0.772723       -21.0269
  34   2.0000      -0.708909       -19.2904
  35   2.0000      -0.707366       -19.2484
  36   2.0000      -0.689743       -18.7689
  37   2.0000      -0.663381       -18.0515
  38   2.0000      -0.637753       -17.3541
  39   2.0000      -0.611348       -16.6356
  40   2.0000      -0.587858       -15.9964
  41   2.0000      -0.573249       -15.5989
  42   2.0000      -0.563866       -15.3436
  43   2.0000      -0.553740       -15.0680
  44   2.0000      -0.544885       -14.8271
  45   2.0000      -0.520560       -14.1652
  46   2.0000      -0.518280       -14.1031
  47   2.0000      -0.515576       -14.0295
  48   2.0000      -0.505349       -13.7512
  49   2.0000      -0.496221       -13.5029
  50   2.0000      -0.486503       -13.2384
  51   2.0000      -0.486055       -13.2262
  52   2.0000      -0.469656       -12.7800
  53   2.0000      -0.465768       -12.6742
  54   2.0000      -0.461674       -12.5628
  55   2.0000      -0.449877       -12.2418
  56   2.0000      -0.441197       -12.0056
  57   2.0000      -0.438695       -11.9375
  58   2.0000      -0.429245       -11.6804
  59   2.0000      -0.427456       -11.6317
  60   2.0000      -0.417822       -11.3695
  61   2.0000      -0.415328       -11.3016
  62   2.0000      -0.414529       -11.2799
  63   2.0000      -0.342838        -9.3291
  64   2.0000      -0.332580        -9.0500
  65   2.0000      -0.328012        -8.9257
  66   2.0000      -0.294692        -8.0190
  67   0.0000       0.034274         0.9326
  68   0.0000       0.052381         1.4254
  69   0.0000       0.108371         2.9489
  70   0.0000       0.117566         3.1991
  71   0.0000       0.122296         3.3278

MULLIKEN ATOMIC CHARGES
-----------------------
   0 S :    0.124357
   1 C :   -0.112346
   2 C :   -0.117593
   3 C :    0.040143
   4 C :   -0.179829
   5 H :    0.023966
   6 C :    0.084834
   7 H :    0.007434
   8 H :    0.012561
   9 C :   -0.028481
  10 H :    0.023822
  11 H :    0.029352
  12 C :   -0.025141
  13 H :    0.017130
  14 H :    0.027218
  15 H :    0.001917
  16 S :    0.111523
  17 C :   -0.066689
  18 C :   -0.052162
  19 C :   -0.012179
  20 C :   -0.172441
  21 H :    0.033646
  22 C :    0.032259
  23 H :    0.026548
  24 H :    0.039328
  25 C :   -0.107688
  26 H :    0.022615
  27 H :    0.023071
  28 C :   -0.002861
  29 H :    0.038943
  30 H :    0.043618
  31 H :    0.025530
  32 H :    0.050133
  33 H :    0.037462
Sum of atomic charges:    0.0000000

LOEWDIN ATOMIC CHARGES
----------------------
   0 S :    0.412246
   1 C :   -0.208900
   2 C :   -0.061939
   3 C :   -0.060323
   4 C :   -0.189181
   5 H :    0.028800
   6 C :   -0.025790
   7 H :    0.022116
   8 H :    0.025305
   9 C :   -0.028079
  10 H :    0.021965
  11 H :    0.029702
  12 C :   -0.064556
  13 H :    0.022378
  14 H :    0.022748
  15 H :    0.017231
  16 S :    0.389070
  17 C :   -0.169919
  18 C :   -0.070775
  19 C :   -0.051215
  20 C :   -0.198535
  21 H :    0.037645
  22 C :   -0.034740
  23 H :    0.034419
  24 H :    0.026599
  25 C :   -0.047176
  26 H :    0.017354
  27 H :    0.024378
  28 C :   -0.055704
  29 H :    0.032971
  30 H :    0.031244
  31 H :    0.017534
  32 H :    0.033499
  33 H :    0.019627

  Mayer bond orders larger than 0.100000
B(  0-S ,  1-C ) :   1.1330 B(  0-S ,  4-C ) :   1.1610 B(  1-C ,  2-C ) :   1.6211
B(  1-C , 32-H ) :   0.9629 B(  2-C ,  3-C ) :   1.2396 B(  2-C ,  6-C ) :   1.0408
B(  3-C ,  4-C ) :   1.5599 B(  3-C ,  5-H ) :   0.9828 B(  4-C , 20-C ) :   1.0505
B(  6-C ,  7-H ) :   0.9340 B(  6-C ,  8-H ) :   0.9387 B(  6-C ,  9-C ) :   1.0780
B(  9-C , 10-H ) :   0.9538 B(  9-C , 11-H ) :   0.9506 B(  9-C , 12-C ) :   1.0846
B( 12-C , 13-H ) :   0.9700 B( 12-C , 14-H ) :   0.9703 B( 12-C , 15-H ) :   0.9709
B( 16-S , 17-C ) :   1.1455 B( 16-S , 20-C ) :   1.1125 B( 17-C , 18-C ) :   1.6513
B( 17-C , 33-H ) :   0.9672 B( 18-C , 19-C ) :   1.2042 B( 18-C , 21-H ) :   0.9831
B( 19-C , 20-C ) :   1.6393 B( 19-C , 22-C ) :   1.0408 B( 22-C , 23-H ) :   0.9381
B( 22-C , 24-H ) :   0.9341 B( 22-C , 25-C ) :   1.0550 B( 25-C , 26-H ) :   0.9541
B( 25-C , 27-H ) :   0.9569 B( 25-C , 28-C ) :   1.0682 B( 28-C , 29-H ) :   0.9748
B( 28-C , 30-H ) :   0.9740 B( 28-C , 31-H ) :   0.9756

Dispersion correction           -0.015170605
FINAL SINGLE POINT ENERGY     -1339.870915571060

DIPOLE MOMENT
-------------
                                X             Y             Z
Electronic contribution:     27.82939      14.06013       3.91232
Nuclear contribution   :    -28.43322     -14.46137      -4.10475
                        -----------------------------------------
Total Dipole Moment    :     -0.60384      -0.40124      -0.19243
                        -----------------------------------------
Magnitude (a.u.)       :      0.75009
Magnitude (Debye)      :      1.90658

Rotational constants in cm-1:     0.016723     0.010359     0.007016
Rotational constants in MHz :   501.350715   310.546731   210.328760

                             ****ORCA TERMINATED NORMALLY****
TOTAL RUN TIME: 0 days 0 hours 0 minutes 22 seconds 449 msec
