                         Program Version 4.2.1 -  RELEASE  -
|  1> ! wB97X-D3 SP def2-SVP
|  2> %pal
|  3> nprocs 24
|  4> end
|  5>
|  6> * xyz 0 1
|  7> S 	 -129.685 	 11.7247 	 -11.4526
|  8> C 	 -129.634 	 10.704 	 -9.97086
|  9> C 	 -128.983 	 9.50414 	 -10.2204
| 10> C 	 -128.701 	 9.33636 	 -11.6221
| 11> C 	 -129.27 	 10.3086 	 -12.4423
| 12> H 	 -128.129 	 8.45585 	 -12.0805
| 13> C 	 -128.54 	 8.51185 	 -9.09382
| 14> H 	 -129.323 	 7.78326 	 -9.12089
| 15> H 	 -128.504 	 9.11971 	 -8.21422
| 16> C 	 -127.257 	 7.69873 	 -9.35643
| 17> H 	 -127.041 	 6.98447 	 -8.58284
| 18> H 	 -127.312 	 7.2226 	 -10.3977
| 19> C 	 -125.94 	 8.49662 	 -9.19096
| 20> H 	 -125.814 	 9.00948 	 -8.22185
| 21> H 	 -125.15 	 7.85059 	 -9.25713
| 22> H 	 -125.826 	 9.22621 	 -9.98308
| 23> S 	 -128.236 	 11.7908 	 -14.6113
| 24> C 	 -128.776 	 11.4265 	 -16.2163
| 25> C 	 -129.574 	 10.2846 	 -16.1593
| 26> C 	 -129.59 	 9.5592 	 -14.9083
| 27> C 	 -129.165 	 10.4006 	 -13.9135
| 28> H 	 -130.175 	 10.0044 	 -17.0342
| 29> C 	 -130.38 	 8.29601 	 -14.77
| 30> H 	 -129.968 	 7.6508 	 -14.0135
| 31> H 	 -130.126 	 7.70882 	 -15.7025
| 32> C 	 -131.948 	 8.43141 	 -14.5744
| 33> H 	 -132.431 	 8.92959 	 -15.3948
| 34> H 	 -132.204 	 8.91422 	 -13.6322
| 35> C 	 -132.661 	 7.15057 	 -14.5302
| 36> H 	 -133.722 	 7.36046 	 -14.688
| 37> H 	 -132.481 	 6.5837 	 -13.597
| 38> H 	 -132.447 	 6.45339 	 -15.3819
| 39> H 	 -129.809 	 10.9633 	 -8.91255
| 40> H 	 -128.667 	 12.1357 	 -17.0896
| 41> *
| 42>
| 43>                          ****END OF INPUT****

CARTESIAN COORDINATES (ANGSTROEM)
---------------------------------
  S    -129.685000   11.724700  -11.452600
  C    -129.634000   10.704000   -9.970860
  C    -128.983000    9.504140  -10.220400
  C    -128.701000    9.336360  -11.622100
  C    -129.270000   10.308600  -12.442300
  H    -128.129000    8.455850  -12.080500
  C    -128.540000    8.511850   -9.093820
  H    -129.323000    7.783260   -9.120890
  H    -128.504000    9.119710   -8.214220
  C    -127.257000    7.698730   -9.356430
  H    -127.041000    6.984470   -8.582840
  H    -127.312000    7.222600  -10.397700
  C    -125.940000    8.496620   -9.190960
  H    -125.814000    9.009480   -8.221850
  H    -125.150000    7.850590   -9.257130
  H    -125.826000    9.226210   -9.983080
  S    -128.236000   11.790800  -14.611300
  C    -128.776000   11.426500  -16.216300
  C    -129.574000   10.284600  -16.159300
  C    -129.590000    9.559200  -14.908300
  C    -129.165000   10.400600  -13.913500
  H    -130.175000   10.004400  -17.034200
  C    -130.380000    8.296010  -14.770000
  H    -129.968000    7.650800  -14.013500
  H    -130.126000    7.708820  -15.702500
  C    -131.948000    8.431410  -14.574400
  H    -132.431000    8.929590  -15.394800
  H    -132.204000    8.914220  -13.632200
  C    -132.661000    7.150570  -14.530200
  H    -133.722000    7.360460  -14.688000
  H    -132.481000    6.583700  -13.597000
  H    -132.447000    6.453390  -15.381900
  H    -129.809000   10.963300   -8.912550
  H    -128.667000   12.135700  -17.089600

 Total Charge           Charge          ....    0
 Multiplicity           Mult            ....    1
 Number of Electrons    NEL             ....  134
 Basis Dimension        Dim             ....  322

ORBITAL ENERGIES
----------------

  NO   OCC          E(Eh)            E(eV)
   0   2.0000     -88.969371     -2420.9797
   1   2.0000     -88.960736     -2420.7447
   2   2.0000     -10.335456      -281.2421
   3   2.0000     -10.331769      -281.1417
   4   2.0000     -10.319767      -280.8151
   5   2.0000     -10.319028      -280.7950
   6   2.0000     -10.306290      -280.4484
   7   2.0000     -10.304558      -280.4013
   8   2.0000     -10.304332      -280.3951
   9   2.0000     -10.297134      -280.1993
  10   2.0000     -10.296489      -280.1817
  11   2.0000     -10.296268      -280.1757
  12   2.0000     -10.296096      -280.1710
  13   2.0000     -10.284141      -279.8457
  14   2.0000     -10.276388      -279.6347
  15   2.0000     -10.269538      -279.4483
  16   2.0000      -8.082557      -219.9376
  17   2.0000      -8.075121      -219.7352
  18   2.0000      -6.041329      -164.3929
  19   2.0000      -6.037614      -164.2918
  20   2.0000      -6.033803      -164.1881
  21   2.0000      -6.032770      -164.1600
  22   2.0000      -6.029692      -164.0763
  23   2.0000      -6.025700      -163.9676
  24   2.0000      -0.999418       -27.1956
  25   2.0000      -0.977793       -26.6071
  26   2.0000      -0.909880       -24.7591
  27   2.0000      -0.908763       -24.7287
  28   2.0000      -0.866618       -23.5819
  29   2.0000      -0.857197       -23.3255
  30   2.0000      -0.838514       -22.8171
  31   2.0000      -0.809385       -22.0245
  32   2.0000      -0.784357       -21.3434
  33   2.0000      -0.774259       -21.0687
  34   2.0000      -0.706102       -19.2140
  35   2.0000      -0.694372       -18.8948
  36   2.0000      -0.688076       -18.7235
  37   2.0000      -0.654483       -17.8094
  38   2.0000      -0.629434       -17.1278
  39   2.0000      -0.614955       -16.7338
  40   2.0000      -0.596173       -16.2227
  41   2.0000      -0.566305       -15.4099
  42   2.0000      -0.560053       -15.2398
  43   2.0000      -0.556977       -15.1561
  44   2.0000      -0.545860       -14.8536
  45   2.0000      -0.531423       -14.4608
  46   2.0000      -0.518562       -14.1108
  47   2.0000      -0.513683       -13.9780
  48   2.0000      -0.497624       -13.5410
  49   2.0000      -0.495957       -13.4957
  50   2.0000      -0.483477       -13.1561
  51   2.0000      -0.479631       -13.0514
  52   2.0000      -0.466796       -12.7022
  53   2.0000      -0.461029       -12.5452
  54   2.0000      -0.454503       -12.3677
  55   2.0000      -0.451728       -12.2921
  56   2.0000      -0.445014       -12.1094
  57   2.0000      -0.434281       -11.8174
  58   2.0000      -0.430421       -11.7124
  59   2.0000      -0.426865       -11.6156
  60   2.0000      -0.420778       -11.4500
  61   2.0000      -0.415840       -11.3156
  62   2.0000      -0.409003       -11.1295
  63   2.0000      -0.341283        -9.2868
  64   2.0000      -0.328984        -8.9521
  65   2.0000      -0.323879        -8.8132
  66   2.0000      -0.292523        -7.9600
  67   0.0000       0.022744         0.6189
  68   0.0000       0.061449         1.6721
  69   0.0000       0.105255         2.8641
  70   0.0000       0.109978         2.9927
  71   0.0000       0.130694         3.5564

MULLIKEN ATOMIC CHARGES
-----------------------
   0 S :    0.106188
   1 C :   -0.118869
   2 C :   -0.130239
   3 C :    0.003282
   4 C :   -0.151085
   5 H :    0.047274
   6 C :    0.130899
   7 H :    0.040481
   8 H :    0.018000
   9 C :   -0.121328
  10 H :    0.034705
  11 H :    0.048036
  12 C :   -0.032591
  13 H :    0.030981
  14 H :    0.011082
  15 H :    0.031594
  16 S :    0.087395
  17 C :   -0.111935
  18 C :   -0.060141
  19 C :   -0.011688
  20 C :   -0.157255
  21 H :    0.028161
  22 C :    0.045802
  23 H :    0.012898
  24 H :    0.027880
  25 C :   -0.032271
  26 H :    0.021557
  27 H :    0.042270
  28 C :   -0.072854
  29 H :    0.033301
  30 H :    0.037711
  31 H :    0.023525
  32 H :    0.050844
  33 H :    0.086391
Sum of atomic charges:   -0.0000000

LOEWDIN ATOMIC CHARGES
----------------------
   0 S :    0.380587
   1 C :   -0.195163
   2 C :   -0.062240
   3 C :   -0.071363
   4 C :   -0.186370
   5 H :    0.042029
   6 C :   -0.021050
   7 H :    0.034632
   8 H :    0.026073
   9 C :   -0.043978
  10 H :    0.027691
  11 H :    0.033683
  12 C :   -0.060706
  13 H :    0.028453
  14 H :    0.012143
  15 H :    0.022265
  16 S :    0.374835
  17 C :   -0.207728
  18 C :   -0.069975
  19 C :   -0.061266
  20 C :   -0.171102
  21 H :    0.030954
  22 C :   -0.036094
  23 H :    0.026364
  24 H :    0.038917
  25 C :   -0.035916
  26 H :    0.024152
  27 H :    0.033085
  28 C :   -0.072008
  29 H :    0.029611
  30 H :    0.024617
  31 H :    0.024430
  32 H :    0.034832
  33 H :    0.045607

  Mayer bond orders larger than 0.100000
B(  0-S ,  1-C ) :   1.1161 B(  0-S ,  4-C ) :   1.1358 B(  1-C ,  2-C ) :   1.6473
B(  1-C ,  4-C ) :   0.1005 B(  1-C , 32-H ) :   0.9610 B(  2-C ,  3-C ) :   1.2325
B(  2-C ,  6-C ) :   0.9907 B(  3-C ,  4-C ) :   1.5847 B(  3-C ,  5-H ) :   0.9719
B(  4-C , 20-C ) :   1.0478 B(  6-C ,  7-H ) :   0.9329 B(  6-C ,  8-H ) :   0.9451
B(  6-C ,  9-C ) :   1.0850 B(  9-C , 10-H ) :   0.9589 B(  9-C , 11-H ) :   0.9475
B(  9-C , 12-C ) :   1.0726 B( 12-C , 13-H ) :   0.9741 B( 12-C , 14-H ) :   0.9760
B( 12-C , 15-H ) :   0.9764 B( 16-S , 17-C ) :   1.1313 B( 16-S , 20-C ) :   1.1316
B( 17-C , 18-C ) :   1.6381 B( 17-C , 33-H ) :   0.9604 B( 18-C , 19-C ) :   1.1955
B( 18-C , 21-H ) :   0.9837 B( 19-C , 20-C ) :   1.6170 B( 19-C , 22-C ) :   1.0762
B( 22-C , 23-H ) :   0.9306 B( 22-C , 24-H ) :   0.9283 B( 22-C , 25-C ) :   1.0569
B( 25-C , 26-H ) :   0.9572 B( 25-C , 27-H ) :   0.9526 B( 25-C , 28-C ) :   1.0946
B( 28-C , 29-H ) :   0.9722 B( 28-C , 30-H ) :   0.9735 B( 28-C , 31-H ) :   0.9698

Dispersion correction           -0.013940117
FINAL SINGLE POINT ENERGY     -1339.847310035149

DIPOLE MOMENT
-------------
                                X             Y             Z
Electronic contribution:      2.71978      23.10697      -6.97902
Nuclear contribution   :     -2.81082     -23.75419       7.12905
                        -----------------------------------------
Total Dipole Moment    :     -0.09105      -0.64722       0.15003
                        -----------------------------------------
Magnitude (a.u.)       :      0.67059
Magnitude (Debye)      :      1.70451

Rotational constants in cm-1:     0.016947     0.008599     0.007145
Rotational constants in MHz :   508.067790   257.803167   214.205804

                             ****ORCA TERMINATED NORMALLY****
TOTAL RUN TIME: 0 days 0 hours 0 minutes 20 seconds 116 msec
