                         Program Version 4.2.1 -  RELEASE  -
|  1> ! wB97X-D3 SP def2-SVP
|  2> %pal
|  3> nprocs 24
|  4> end
|  5>
|  6> * xyz 0 1
|  7> S 	 -64.4584 	 7.80262 	 -86.121
|  8> C 	 -65.9569 	 6.91676 	 -86.032
|  9> C 	 -66.5407 	 7.03212 	 -84.7434
| 10> C 	 -65.6394 	 7.54622 	 -83.761
| 11> C 	 -64.525 	 8.11608 	 -84.412
| 12> H 	 -65.8411 	 7.77079 	 -82.7465
| 13> C 	 -67.8821 	 6.57903 	 -84.2527
| 14> H 	 -67.7756 	 6.1553 	 -83.2225
| 15> H 	 -68.1203 	 5.70901 	 -84.7425
| 16> C 	 -69.0244 	 7.60443 	 -84.1883
| 17> H 	 -69.5295 	 7.54328 	 -83.1979
| 18> H 	 -68.576 	 8.66379 	 -84.1778
| 19> C 	 -69.9809 	 7.41845 	 -85.3592
| 20> H 	 -70.8495 	 8.01617 	 -85.1544
| 21> H 	 -69.3642 	 7.69577 	 -86.2584
| 22> H 	 -70.2081 	 6.35201 	 -85.3826
| 23> S 	 -62.8171 	 10.2603 	 -84.4252
| 24> C 	 -61.7336 	 10.612 	 -83.0682
| 25> C 	 -61.8564 	 9.57455 	 -82.1513
| 26> C 	 -62.7662 	 8.48918 	 -82.4869
| 27> C 	 -63.4166 	 8.78377 	 -83.7051
| 28> H 	 -61.2666 	 9.50514 	 -81.2264
| 29> C 	 -63.043 	 7.31773 	 -81.5775
| 30> H 	 -62.0165 	 6.81489 	 -81.4053
| 31> H 	 -63.6803 	 6.53132 	 -82.128
| 32> C 	 -63.6364 	 7.7883 	 -80.189
| 33> H 	 -64.3149 	 8.51312 	 -80.479
| 34> H 	 -62.9337 	 8.27506 	 -79.595
| 35> C 	 -64.0464 	 6.61943 	 -79.3078
| 36> H 	 -63.251 	 6.31933 	 -78.6849
| 37> H 	 -64.2937 	 5.77479 	 -79.8847
| 38> H 	 -64.947 	 6.80552 	 -78.7515
| 39> H 	 -66.5196 	 6.4366 	 -86.8669
| 40> H 	 -61.1447 	 11.4958 	 -82.8636
| 41> *
| 42>
| 43>                          ****END OF INPUT****

CARTESIAN COORDINATES (ANGSTROEM)
---------------------------------
  S    -64.458400    7.802620  -86.121000
  C    -65.956900    6.916760  -86.032000
  C    -66.540700    7.032120  -84.743400
  C    -65.639400    7.546220  -83.761000
  C    -64.525000    8.116080  -84.412000
  H    -65.841100    7.770790  -82.746500
  C    -67.882100    6.579030  -84.252700
  H    -67.775600    6.155300  -83.222500
  H    -68.120300    5.709010  -84.742500
  C    -69.024400    7.604430  -84.188300
  H    -69.529500    7.543280  -83.197900
  H    -68.576000    8.663790  -84.177800
  C    -69.980900    7.418450  -85.359200
  H    -70.849500    8.016170  -85.154400
  H    -69.364200    7.695770  -86.258400
  H    -70.208100    6.352010  -85.382600
  S    -62.817100   10.260300  -84.425200
  C    -61.733600   10.612000  -83.068200
  C    -61.856400    9.574550  -82.151300
  C    -62.766200    8.489180  -82.486900
  C    -63.416600    8.783770  -83.705100
  H    -61.266600    9.505140  -81.226400
  C    -63.043000    7.317730  -81.577500
  H    -62.016500    6.814890  -81.405300
  H    -63.680300    6.531320  -82.128000
  C    -63.636400    7.788300  -80.189000
  H    -64.314900    8.513120  -80.479000
  H    -62.933700    8.275060  -79.595000
  C    -64.046400    6.619430  -79.307800
  H    -63.251000    6.319330  -78.684900
  H    -64.293700    5.774790  -79.884700
  H    -64.947000    6.805520  -78.751500
  H    -66.519600    6.436600  -86.866900
  H    -61.144700   11.495800  -82.863600

 Total Charge           Charge          ....    0
 Multiplicity           Mult            ....    1
 Number of Electrons    NEL             ....  134
 Basis Dimension        Dim             ....  322

ORBITAL ENERGIES
----------------

  NO   OCC          E(Eh)            E(eV)
   0   2.0000     -88.974281     -2421.1133
   1   2.0000     -88.964806     -2420.8554
   2   2.0000     -10.332950      -281.1739
   3   2.0000     -10.329686      -281.0850
   4   2.0000     -10.320833      -280.8441
   5   2.0000     -10.320317      -280.8301
   6   2.0000     -10.305631      -280.4305
   7   2.0000     -10.305345      -280.4227
   8   2.0000     -10.304686      -280.4048
   9   2.0000     -10.297921      -280.2207
  10   2.0000     -10.293259      -280.0938
  11   2.0000     -10.291482      -280.0455
  12   2.0000     -10.283828      -279.8372
  13   2.0000     -10.279659      -279.7238
  14   2.0000     -10.279455      -279.7182
  15   2.0000     -10.269380      -279.4440
  16   2.0000      -8.088751      -220.1061
  17   2.0000      -8.079151      -219.8449
  18   2.0000      -6.047227      -164.5534
  19   2.0000      -6.043293      -164.4464
  20   2.0000      -6.039563      -164.3449
  21   2.0000      -6.037778      -164.2963
  22   2.0000      -6.033630      -164.1834
  23   2.0000      -6.029886      -164.0815
  24   2.0000      -1.003473       -27.3059
  25   2.0000      -0.979025       -26.6406
  26   2.0000      -0.914040       -24.8723
  27   2.0000      -0.908030       -24.7088
  28   2.0000      -0.864289       -23.5185
  29   2.0000      -0.856637       -23.3103
  30   2.0000      -0.848471       -23.0881
  31   2.0000      -0.810068       -22.0431
  32   2.0000      -0.779703       -21.2168
  33   2.0000      -0.768967       -20.9247
  34   2.0000      -0.711666       -19.3654
  35   2.0000      -0.698147       -18.9976
  36   2.0000      -0.692238       -18.8367
  37   2.0000      -0.658851       -17.9283
  38   2.0000      -0.639079       -17.3902
  39   2.0000      -0.620089       -16.8735
  40   2.0000      -0.590729       -16.0746
  41   2.0000      -0.572298       -15.5730
  42   2.0000      -0.568687       -15.4747
  43   2.0000      -0.552707       -15.0399
  44   2.0000      -0.526632       -14.3304
  45   2.0000      -0.524459       -14.2713
  46   2.0000      -0.519660       -14.1407
  47   2.0000      -0.511991       -13.9320
  48   2.0000      -0.507764       -13.8170
  49   2.0000      -0.496840       -13.5197
  50   2.0000      -0.492508       -13.4018
  51   2.0000      -0.485631       -13.2147
  52   2.0000      -0.470699       -12.8084
  53   2.0000      -0.461502       -12.5581
  54   2.0000      -0.457753       -12.4561
  55   2.0000      -0.450598       -12.2614
  56   2.0000      -0.447930       -12.1888
  57   2.0000      -0.439877       -11.9697
  58   2.0000      -0.434672       -11.8280
  59   2.0000      -0.420968       -11.4551
  60   2.0000      -0.418757       -11.3950
  61   2.0000      -0.416577       -11.3356
  62   2.0000      -0.407615       -11.0918
  63   2.0000      -0.349331        -9.5058
  64   2.0000      -0.333866        -9.0850
  65   2.0000      -0.325452        -8.8560
  66   2.0000      -0.285131        -7.7588
  67   0.0000       0.026805         0.7294
  68   0.0000       0.069840         1.9004
  69   0.0000       0.106977         2.9110
  70   0.0000       0.111166         3.0250
  71   0.0000       0.125452         3.4137

MULLIKEN ATOMIC CHARGES
-----------------------
   0 S :    0.137023
   1 C :   -0.132748
   2 C :   -0.099648
   3 C :    0.019369
   4 C :   -0.133777
   5 H :    0.012316
   6 C :    0.074081
   7 H :    0.021410
   8 H :   -0.008929
   9 C :   -0.101956
  10 H :    0.029658
  11 H :    0.043720
  12 C :   -0.030587
  13 H :    0.040590
  14 H :    0.044550
  15 H :    0.029020
  16 S :    0.093269
  17 C :   -0.082583
  18 C :   -0.046396
  19 C :   -0.042311
  20 C :   -0.160097
  21 H :    0.023515
  22 C :   -0.021622
  23 H :    0.043744
  24 H :    0.055887
  25 C :   -0.042550
  26 H :    0.020164
  27 H :    0.016388
  28 C :    0.009711
  29 H :    0.026197
  30 H :    0.006897
  31 H :    0.030380
  32 H :    0.062315
  33 H :    0.063000
Sum of atomic charges:   -0.0000000

LOEWDIN ATOMIC CHARGES
----------------------
   0 S :    0.427150
   1 C :   -0.223049
   2 C :   -0.054484
   3 C :   -0.059256
   4 C :   -0.192521
   5 H :    0.028036
   6 C :   -0.039479
   7 H :    0.039163
   8 H :    0.015094
   9 C :   -0.047809
  10 H :    0.022812
  11 H :    0.032024
  12 C :   -0.061892
  13 H :    0.024589
  14 H :    0.035110
  15 H :    0.023163
  16 S :    0.393610
  17 C :   -0.189035
  18 C :   -0.069300
  19 C :   -0.066028
  20 C :   -0.198103
  21 H :    0.030664
  22 C :   -0.042270
  23 H :    0.038811
  24 H :    0.040241
  25 C :   -0.030893
  26 H :    0.014414
  27 H :    0.019607
  28 C :   -0.054916
  29 H :    0.023865
  30 H :    0.018727
  31 H :    0.028812
  32 H :    0.037511
  33 H :    0.035630

  Mayer bond orders larger than 0.100000
B(  0-S ,  1-C ) :   1.1339 B(  0-S ,  4-C ) :   1.1750 B(  1-C ,  2-C ) :   1.5890
B(  1-C ,  4-C ) :   0.1017 B(  1-C , 32-H ) :   0.9612 B(  2-C ,  3-C ) :   1.2540
B(  2-C ,  6-C ) :   1.0420 B(  3-C ,  4-C ) :   1.5402 B(  3-C ,  5-H ) :   0.9956
B(  4-C , 20-C ) :   1.0289 B(  6-C ,  7-H ) :   0.9398 B(  6-C ,  8-H ) :   0.9355
B(  6-C ,  9-C ) :   1.0330 B(  9-C , 10-H ) :   0.9588 B(  9-C , 11-H ) :   0.9600
B(  9-C , 12-C ) :   1.0734 B( 12-C , 13-H ) :   0.9735 B( 12-C , 14-H ) :   0.9747
B( 12-C , 15-H ) :   0.9796 B( 16-S , 17-C ) :   1.1314 B( 16-S , 20-C ) :   1.1468
B( 17-C , 18-C ) :   1.6125 B( 17-C , 33-H ) :   0.9713 B( 18-C , 19-C ) :   1.2411
B( 18-C , 21-H ) :   0.9798 B( 19-C , 20-C ) :   1.5735 B( 19-C , 22-C ) :   1.0556
B( 22-C , 23-H ) :   0.9281 B( 22-C , 24-H ) :   0.9376 B( 22-C , 25-C ) :   1.0493
B( 25-C , 26-H ) :   0.9650 B( 25-C , 27-H ) :   0.9528 B( 25-C , 28-C ) :   1.0731
B( 28-C , 29-H ) :   0.9760 B( 28-C , 30-H ) :   0.9737 B( 28-C , 31-H ) :   0.9725

Dispersion correction           -0.014155700
FINAL SINGLE POINT ENERGY     -1339.856420316804

DIPOLE MOMENT
-------------
                                X             Y             Z
Electronic contribution:     18.30716      11.34279     -18.18143
Nuclear contribution   :    -18.64674     -11.58695      18.83264
                        -----------------------------------------
Total Dipole Moment    :     -0.33958      -0.24416       0.65121
                        -----------------------------------------
Magnitude (a.u.)       :      0.77395
Magnitude (Debye)      :      1.96724

Rotational constants in cm-1:     0.017484     0.008694     0.006558
Rotational constants in MHz :   524.167501   260.653309   196.592755

                             ****ORCA TERMINATED NORMALLY****
TOTAL RUN TIME: 0 days 0 hours 0 minutes 21 seconds 281 msec
