                         Program Version 4.2.1 -  RELEASE  -
|  1> ! wB97X-D3 SP def2-SVP
|  2> %pal
|  3> nprocs 24
|  4> end
|  5>
|  6> * xyz 0 1
|  7> S 	 -137.658 	 24.9894 	 -17.0849
|  8> C 	 -138.231 	 23.6822 	 -16.1284
|  9> C 	 -138.269 	 22.5369 	 -16.8874
| 10> C 	 -137.8 	 22.7662 	 -18.2212
| 11> C 	 -137.369 	 24.0643 	 -18.5295
| 12> H 	 -137.618 	 22.153 	 -19.0218
| 13> C 	 -138.815 	 21.21 	 -16.5221
| 14> H 	 -139.787 	 21.0039 	 -17.095
| 15> H 	 -139.076 	 21.175 	 -15.4822
| 16> C 	 -138.014 	 19.936 	 -16.7961
| 17> H 	 -138.714 	 19.1641 	 -16.5458
| 18> H 	 -137.667 	 19.8714 	 -17.8004
| 19> C 	 -136.807 	 19.7459 	 -15.8079
| 20> H 	 -137.069 	 19.8616 	 -14.8182
| 21> H 	 -136.309 	 18.7918 	 -15.9255
| 22> H 	 -136.114 	 20.6136 	 -15.9922
| 23> S 	 -134.932 	 25.2917 	 -19.0144
| 24> C 	 -134.392 	 25.59 	 -20.611
| 25> C 	 -135.245 	 24.9744 	 -21.52
| 26> C 	 -136.309 	 24.2779 	 -20.8861
| 27> C 	 -136.408 	 24.5224 	 -19.5206
| 28> H 	 -135.137 	 24.9517 	 -22.616
| 29> C 	 -137.265 	 23.5495 	 -21.7803
| 30> H 	 -137.304 	 24.2897 	 -22.6043
| 31> H 	 -138.276 	 23.5251 	 -21.3052
| 32> C 	 -136.915 	 22.2171 	 -22.2683
| 33> H 	 -136.396 	 21.6751 	 -21.4433
| 34> H 	 -136.235 	 22.2899 	 -23.0724
| 35> C 	 -138.134 	 21.3642 	 -22.6874
| 36> H 	 -138.733 	 21.7975 	 -23.471
| 37> H 	 -138.841 	 21.1769 	 -21.9341
| 38> H 	 -137.769 	 20.4614 	 -23.1366
| 39> H 	 -138.603 	 23.7222 	 -15.1009
| 40> H 	 -133.653 	 26.3308 	 -20.8764
| 41> *
| 42>
| 43>                          ****END OF INPUT****

CARTESIAN COORDINATES (ANGSTROEM)
---------------------------------
  S    -137.658000   24.989400  -17.084900
  C    -138.231000   23.682200  -16.128400
  C    -138.269000   22.536900  -16.887400
  C    -137.800000   22.766200  -18.221200
  C    -137.369000   24.064300  -18.529500
  H    -137.618000   22.153000  -19.021800
  C    -138.815000   21.210000  -16.522100
  H    -139.787000   21.003900  -17.095000
  H    -139.076000   21.175000  -15.482200
  C    -138.014000   19.936000  -16.796100
  H    -138.714000   19.164100  -16.545800
  H    -137.667000   19.871400  -17.800400
  C    -136.807000   19.745900  -15.807900
  H    -137.069000   19.861600  -14.818200
  H    -136.309000   18.791800  -15.925500
  H    -136.114000   20.613600  -15.992200
  S    -134.932000   25.291700  -19.014400
  C    -134.392000   25.590000  -20.611000
  C    -135.245000   24.974400  -21.520000
  C    -136.309000   24.277900  -20.886100
  C    -136.408000   24.522400  -19.520600
  H    -135.137000   24.951700  -22.616000
  C    -137.265000   23.549500  -21.780300
  H    -137.304000   24.289700  -22.604300
  H    -138.276000   23.525100  -21.305200
  C    -136.915000   22.217100  -22.268300
  H    -136.396000   21.675100  -21.443300
  H    -136.235000   22.289900  -23.072400
  C    -138.134000   21.364200  -22.687400
  H    -138.733000   21.797500  -23.471000
  H    -138.841000   21.176900  -21.934100
  H    -137.769000   20.461400  -23.136600
  H    -138.603000   23.722200  -15.100900
  H    -133.653000   26.330800  -20.876400

 Total Charge           Charge          ....    0
 Multiplicity           Mult            ....    1
 Number of Electrons    NEL             ....  134
 Basis Dimension        Dim             ....  322

ORBITAL ENERGIES
----------------

  NO   OCC          E(Eh)            E(eV)
   0   2.0000     -88.964834     -2420.8562
   1   2.0000     -88.964144     -2420.8374
   2   2.0000     -10.330168      -281.0982
   3   2.0000     -10.328260      -281.0463
   4   2.0000     -10.317809      -280.7619
   5   2.0000     -10.315419      -280.6968
   6   2.0000     -10.303170      -280.3635
   7   2.0000     -10.297786      -280.2170
   8   2.0000     -10.294297      -280.1221
   9   2.0000     -10.293458      -280.0992
  10   2.0000     -10.291253      -280.0392
  11   2.0000     -10.286474      -279.9092
  12   2.0000     -10.284446      -279.8540
  13   2.0000     -10.283740      -279.8348
  14   2.0000     -10.272812      -279.5374
  15   2.0000     -10.271980      -279.5148
  16   2.0000      -8.080327      -219.8769
  17   2.0000      -8.079634      -219.8580
  18   2.0000      -6.038863      -164.3258
  19   2.0000      -6.038105      -164.3052
  20   2.0000      -6.034571      -164.2090
  21   2.0000      -6.033736      -164.1863
  22   2.0000      -6.031135      -164.1155
  23   2.0000      -6.030643      -164.1021
  24   2.0000      -1.013777       -27.5863
  25   2.0000      -0.992455       -27.0061
  26   2.0000      -0.920756       -25.0550
  27   2.0000      -0.914693       -24.8901
  28   2.0000      -0.874062       -23.7844
  29   2.0000      -0.855908       -23.2905
  30   2.0000      -0.844739       -22.9865
  31   2.0000      -0.816579       -22.2203
  32   2.0000      -0.785057       -21.3625
  33   2.0000      -0.778105       -21.1733
  34   2.0000      -0.713799       -19.4235
  35   2.0000      -0.702433       -19.1142
  36   2.0000      -0.695381       -18.9223
  37   2.0000      -0.664829       -18.0909
  38   2.0000      -0.650264       -17.6946
  39   2.0000      -0.622785       -16.9468
  40   2.0000      -0.600701       -16.3459
  41   2.0000      -0.574432       -15.6311
  42   2.0000      -0.571101       -15.5404
  43   2.0000      -0.548370       -14.9219
  44   2.0000      -0.536688       -14.6040
  45   2.0000      -0.527416       -14.3517
  46   2.0000      -0.523806       -14.2535
  47   2.0000      -0.520012       -14.1502
  48   2.0000      -0.512186       -13.9373
  49   2.0000      -0.504205       -13.7201
  50   2.0000      -0.491776       -13.3819
  51   2.0000      -0.486626       -13.2418
  52   2.0000      -0.475300       -12.9336
  53   2.0000      -0.469096       -12.7648
  54   2.0000      -0.461483       -12.5576
  55   2.0000      -0.453740       -12.3469
  56   2.0000      -0.439523       -11.9600
  57   2.0000      -0.437852       -11.9146
  58   2.0000      -0.434886       -11.8338
  59   2.0000      -0.423498       -11.5240
  60   2.0000      -0.421255       -11.4629
  61   2.0000      -0.411242       -11.1905
  62   2.0000      -0.408030       -11.1031
  63   2.0000      -0.353811        -9.6277
  64   2.0000      -0.329150        -8.9566
  65   2.0000      -0.324654        -8.8343
  66   2.0000      -0.292947        -7.9715
  67   0.0000       0.022344         0.6080
  68   0.0000       0.074706         2.0329
  69   0.0000       0.113956         3.1009
  70   0.0000       0.116965         3.1828
  71   0.0000       0.129252         3.5171

MULLIKEN ATOMIC CHARGES
-----------------------
   0 S :    0.099524
   1 C :   -0.109585
   2 C :   -0.058342
   3 C :    0.066562
   4 C :   -0.174105
   5 H :   -0.041058
   6 C :    0.037725
   7 H :    0.053051
   8 H :    0.003106
   9 C :   -0.060218
  10 H :    0.024821
  11 H :    0.032462
  12 C :   -0.045565
  13 H :    0.004787
  14 H :    0.040024
  15 H :    0.039085
  16 S :    0.117331
  17 C :   -0.088260
  18 C :   -0.040091
  19 C :   -0.067912
  20 C :   -0.120160
  21 H :    0.027585
  22 C :    0.027144
  23 H :    0.027605
  24 H :    0.026155
  25 C :   -0.033747
  26 H :    0.033792
  27 H :    0.013862
  28 C :   -0.025085
  29 H :    0.017666
  30 H :    0.024303
  31 H :    0.026798
  32 H :    0.055892
  33 H :    0.064849
Sum of atomic charges:   -0.0000000

LOEWDIN ATOMIC CHARGES
----------------------
   0 S :    0.426552
   1 C :   -0.201858
   2 C :   -0.073394
   3 C :   -0.047773
   4 C :   -0.200680
   5 H :    0.012338
   6 C :   -0.037240
   7 H :    0.046141
   8 H :    0.023508
   9 C :   -0.030777
  10 H :    0.023487
  11 H :    0.018311
  12 C :   -0.063666
  13 H :    0.009618
  14 H :    0.025509
  15 H :    0.033313
  16 S :    0.432413
  17 C :   -0.200003
  18 C :   -0.074444
  19 C :   -0.062718
  20 C :   -0.207263
  21 H :    0.034117
  22 C :   -0.043418
  23 H :    0.035551
  24 H :    0.032158
  25 C :   -0.038621
  26 H :    0.028816
  27 H :    0.019215
  28 C :   -0.057329
  29 H :    0.023846
  30 H :    0.018157
  31 H :    0.026194
  32 H :    0.037974
  33 H :    0.031966

  Mayer bond orders larger than 0.100000
B(  0-S ,  1-C ) :   1.1589 B(  0-S ,  4-C ) :   1.1553 B(  1-C ,  2-C ) :   1.5689
B(  1-C , 32-H ) :   0.9671 B(  2-C ,  3-C ) :   1.2422 B(  2-C ,  6-C ) :   1.0448
B(  3-C ,  4-C ) :   1.5484 B(  3-C ,  5-H ) :   1.0066 B(  4-C , 20-C ) :   1.0450
B(  6-C ,  7-H ) :   0.9364 B(  6-C ,  8-H ) :   0.9371 B(  6-C ,  9-C ) :   1.0763
B(  9-C , 10-H ) :   0.9542 B(  9-C , 11-H ) :   0.9587 B(  9-C , 12-C ) :   1.0721
B( 12-C , 13-H ) :   0.9744 B( 12-C , 14-H ) :   0.9771 B( 12-C , 15-H ) :   0.9779
B( 16-S , 17-C ) :   1.1764 B( 16-S , 20-C ) :   1.1466 B( 17-C , 18-C ) :   1.5595
B( 17-C , 33-H ) :   0.9678 B( 18-C , 19-C ) :   1.2859 B( 18-C , 21-H ) :   0.9848
B( 19-C , 20-C ) :   1.5558 B( 19-C , 22-C ) :   1.0462 B( 22-C , 23-H ) :   0.9304
B( 22-C , 24-H ) :   0.9404 B( 22-C , 25-C ) :   1.0642 B( 25-C , 26-H ) :   0.9543
B( 25-C , 27-H ) :   0.9448 B( 25-C , 28-C ) :   1.0924 B( 28-C , 29-H ) :   0.9716
B( 28-C , 30-H ) :   0.9754 B( 28-C , 31-H ) :   0.9730

Dispersion correction           -0.014121484
FINAL SINGLE POINT ENERGY     -1339.863018691671

DIPOLE MOMENT
-------------
                                X             Y             Z
Electronic contribution:      7.65132      25.93594       7.57079
Nuclear contribution   :     -7.84122     -26.49187      -7.83425
                        -----------------------------------------
Total Dipole Moment    :     -0.18990      -0.55592      -0.26347
                        -----------------------------------------
Magnitude (a.u.)       :      0.64384
Magnitude (Debye)      :      1.63651

Rotational constants in cm-1:     0.016413     0.009645     0.007182
Rotational constants in MHz :   492.058928   289.152764   215.300323

                             ****ORCA TERMINATED NORMALLY****
TOTAL RUN TIME: 0 days 0 hours 0 minutes 21 seconds 973 msec
