                         Program Version 4.2.1 -  RELEASE  -
|  1> ! wB97X-D3 SP def2-SVP
|  2> %pal
|  3> nprocs 24
|  4> end
|  5>
|  6> * xyz 0 1
|  7> S 	 -29.9549 	 20.6347 	 5.30967
|  8> C 	 -31.3705 	 21.5918 	 5.29158
|  9> C 	 -32.5248 	 20.863 	 5.64526
| 10> C 	 -32.2355 	 19.5269 	 6.02081
| 11> C 	 -30.9266 	 19.2782 	 5.9182
| 12> H 	 -33.0238 	 18.9247 	 6.43496
| 13> C 	 -33.9476 	 21.4379 	 5.70996
| 14> H 	 -34.6482 	 20.6311 	 5.97607
| 15> H 	 -34.1462 	 21.688 	 4.66113
| 16> C 	 -34.0691 	 22.6758 	 6.50785
| 17> H 	 -33.8226 	 22.3287 	 7.54187
| 18> H 	 -33.2512 	 23.3502 	 6.23754
| 19> C 	 -35.4318 	 23.4103 	 6.40991
| 20> H 	 -35.5561 	 23.793 	 5.36556
| 21> H 	 -36.1728 	 22.5889 	 6.56732
| 22> H 	 -35.7178 	 24.2247 	 7.08333
| 23> S 	 -28.795 	 17.5807 	 5.22223
| 24> C 	 -28.5919 	 16.1068 	 6.06658
| 25> C 	 -29.7017 	 15.8906 	 6.8818
| 26> C 	 -30.6699 	 16.9138 	 6.84905
| 27> C 	 -30.2821 	 17.9771 	 6.11188
| 28> H 	 -29.6864 	 15.0137 	 7.48553
| 29> C 	 -31.8066 	 16.8558 	 7.76981
| 30> H 	 -31.9959 	 17.8192 	 8.175
| 31> H 	 -31.4829 	 16.434 	 8.70862
| 32> C 	 -33.054 	 16.1525 	 7.31794
| 33> H 	 -32.8994 	 15.0563 	 7.06042
| 34> H 	 -33.4751 	 16.5886 	 6.37975
| 35> C 	 -34.1061 	 16.2171 	 8.41792
| 36> H 	 -35.0405 	 15.8502 	 8.04313
| 37> H 	 -34.3447 	 17.1957 	 8.90171
| 38> H 	 -33.8806 	 15.5725 	 9.30675
| 39> H 	 -31.4216 	 22.6375 	 4.91096
| 40> H 	 -27.9076 	 15.3586 	 5.84508
| 41> *
| 42>
| 43>                          ****END OF INPUT****

CARTESIAN COORDINATES (ANGSTROEM)
---------------------------------
  S    -29.954900   20.634700    5.309670
  C    -31.370500   21.591800    5.291580
  C    -32.524800   20.863000    5.645260
  C    -32.235500   19.526900    6.020810
  C    -30.926600   19.278200    5.918200
  H    -33.023800   18.924700    6.434960
  C    -33.947600   21.437900    5.709960
  H    -34.648200   20.631100    5.976070
  H    -34.146200   21.688000    4.661130
  C    -34.069100   22.675800    6.507850
  H    -33.822600   22.328700    7.541870
  H    -33.251200   23.350200    6.237540
  C    -35.431800   23.410300    6.409910
  H    -35.556100   23.793000    5.365560
  H    -36.172800   22.588900    6.567320
  H    -35.717800   24.224700    7.083330
  S    -28.795000   17.580700    5.222230
  C    -28.591900   16.106800    6.066580
  C    -29.701700   15.890600    6.881800
  C    -30.669900   16.913800    6.849050
  C    -30.282100   17.977100    6.111880
  H    -29.686400   15.013700    7.485530
  C    -31.806600   16.855800    7.769810
  H    -31.995900   17.819200    8.175000
  H    -31.482900   16.434000    8.708620
  C    -33.054000   16.152500    7.317940
  H    -32.899400   15.056300    7.060420
  H    -33.475100   16.588600    6.379750
  C    -34.106100   16.217100    8.417920
  H    -35.040500   15.850200    8.043130
  H    -34.344700   17.195700    8.901710
  H    -33.880600   15.572500    9.306750
  H    -31.421600   22.637500    4.910960
  H    -27.907600   15.358600    5.845080

 Total Charge           Charge          ....    0
 Multiplicity           Mult            ....    1
 Number of Electrons    NEL             ....  134
 Basis Dimension        Dim             ....  322

ORBITAL ENERGIES
----------------

  NO   OCC          E(Eh)            E(eV)
   0   2.0000     -88.970799     -2421.0185
   1   2.0000     -88.962408     -2420.7902
   2   2.0000     -10.328673      -281.0575
   3   2.0000     -10.323296      -280.9112
   4   2.0000     -10.314822      -280.6806
   5   2.0000     -10.308247      -280.5017
   6   2.0000     -10.300802      -280.2991
   7   2.0000     -10.296129      -280.1719
   8   2.0000     -10.291911      -280.0571
   9   2.0000     -10.290735      -280.0251
  10   2.0000     -10.289481      -279.9910
  11   2.0000     -10.288690      -279.9695
  12   2.0000     -10.287953      -279.9494
  13   2.0000     -10.286961      -279.9224
  14   2.0000     -10.282910      -279.8122
  15   2.0000     -10.280945      -279.7587
  16   2.0000      -8.085648      -220.0217
  17   2.0000      -8.077527      -219.8007
  18   2.0000      -6.044134      -164.4693
  19   2.0000      -6.040271      -164.3641
  20   2.0000      -6.036296      -164.2560
  21   2.0000      -6.036020      -164.2485
  22   2.0000      -6.031958      -164.1379
  23   2.0000      -6.028321      -164.0390
  24   2.0000      -1.012909       -27.5627
  25   2.0000      -0.990135       -26.9429
  26   2.0000      -0.919792       -25.0288
  27   2.0000      -0.916684       -24.9443
  28   2.0000      -0.870837       -23.6967
  29   2.0000      -0.857260       -23.3272
  30   2.0000      -0.852635       -23.2014
  31   2.0000      -0.813276       -22.1304
  32   2.0000      -0.784593       -21.3499
  33   2.0000      -0.770410       -20.9639
  34   2.0000      -0.707266       -19.2457
  35   2.0000      -0.704515       -19.1708
  36   2.0000      -0.694932       -18.9101
  37   2.0000      -0.669653       -18.2222
  38   2.0000      -0.636343       -17.3158
  39   2.0000      -0.628276       -17.0963
  40   2.0000      -0.605502       -16.4765
  41   2.0000      -0.574567       -15.6348
  42   2.0000      -0.562365       -15.3027
  43   2.0000      -0.556265       -15.1367
  44   2.0000      -0.537176       -14.6173
  45   2.0000      -0.527567       -14.3558
  46   2.0000      -0.517014       -14.0687
  47   2.0000      -0.513534       -13.9740
  48   2.0000      -0.503637       -13.7047
  49   2.0000      -0.499203       -13.5840
  50   2.0000      -0.492680       -13.4065
  51   2.0000      -0.485547       -13.2124
  52   2.0000      -0.475793       -12.9470
  53   2.0000      -0.465556       -12.6684
  54   2.0000      -0.456258       -12.4154
  55   2.0000      -0.452583       -12.3154
  56   2.0000      -0.450176       -12.2499
  57   2.0000      -0.440440       -11.9850
  58   2.0000      -0.434495       -11.8232
  59   2.0000      -0.421658       -11.4739
  60   2.0000      -0.418449       -11.3866
  61   2.0000      -0.415459       -11.3052
  62   2.0000      -0.409576       -11.1451
  63   2.0000      -0.363159        -9.8821
  64   2.0000      -0.333980        -9.0881
  65   2.0000      -0.330480        -8.9928
  66   2.0000      -0.281407        -7.6575
  67   0.0000       0.024922         0.6782
  68   0.0000       0.077696         2.1142
  69   0.0000       0.103247         2.8095
  70   0.0000       0.125356         3.4111
  71   0.0000       0.131735         3.5847

MULLIKEN ATOMIC CHARGES
-----------------------
   0 S :    0.125597
   1 C :   -0.143098
   2 C :   -0.106600
   3 C :   -0.011174
   4 C :   -0.097091
   5 H :    0.004922
   6 C :    0.076708
   7 H :    0.020008
   8 H :    0.026996
   9 C :   -0.085378
  10 H :    0.030898
  11 H :    0.026641
  12 C :   -0.054878
  13 H :    0.035232
  14 H :    0.028922
  15 H :    0.048530
  16 S :    0.094433
  17 C :   -0.064922
  18 C :   -0.039873
  19 C :   -0.005850
  20 C :   -0.106788
  21 H :    0.005573
  22 C :    0.040624
  23 H :    0.005643
  24 H :    0.005907
  25 C :   -0.066414
  26 H :    0.040777
  27 H :    0.034755
  28 C :   -0.059666
  29 H :    0.025146
  30 H :    0.030883
  31 H :    0.032939
  32 H :    0.063999
  33 H :    0.036597
Sum of atomic charges:   -0.0000000

LOEWDIN ATOMIC CHARGES
----------------------
   0 S :    0.416736
   1 C :   -0.222954
   2 C :   -0.055134
   3 C :   -0.064929
   4 C :   -0.171189
   5 H :    0.034932
   6 C :   -0.035315
   7 H :    0.027656
   8 H :    0.032158
   9 C :   -0.048710
  10 H :    0.028368
  11 H :    0.021838
  12 C :   -0.072689
  13 H :    0.029405
  14 H :    0.028408
  15 H :    0.029073
  16 S :    0.400373
  17 C :   -0.189693
  18 C :   -0.062636
  19 C :   -0.068107
  20 C :   -0.177285
  21 H :    0.025419
  22 C :   -0.040911
  23 H :    0.026775
  24 H :    0.032972
  25 C :   -0.041299
  26 H :    0.035368
  27 H :    0.024787
  28 C :   -0.073896
  29 H :    0.021756
  30 H :    0.026590
  31 H :    0.029251
  32 H :    0.034298
  33 H :    0.018587

  Mayer bond orders larger than 0.100000
B(  0-S ,  1-C ) :   1.1419 B(  0-S ,  4-C ) :   1.1434 B(  1-C ,  2-C ) :   1.6002
B(  1-C , 32-H ) :   0.9583 B(  2-C ,  3-C ) :   1.2643 B(  2-C ,  6-C ) :   1.0123
B(  3-C ,  4-C ) :   1.5575 B(  3-C ,  5-H ) :   0.9944 B(  4-C , 20-C ) :   1.0585
B(  6-C ,  7-H ) :   0.9416 B(  6-C ,  8-H ) :   0.9273 B(  6-C ,  9-C ) :   1.0656
B(  9-C , 10-H ) :   0.9544 B(  9-C , 11-H ) :   0.9550 B(  9-C , 12-C ) :   1.0639
B( 12-C , 13-H ) :   0.9742 B( 12-C , 14-H ) :   0.9747 B( 12-C , 15-H ) :   0.9776
B( 16-S , 17-C ) :   1.1567 B( 16-S , 20-C ) :   1.1255 B( 17-C , 18-C ) :   1.5969
B( 17-C , 33-H ) :   0.9752 B( 18-C , 19-C ) :   1.2469 B( 18-C , 21-H ) :   0.9979
B( 19-C , 20-C ) :   1.6059 B( 19-C , 22-C ) :   1.0413 B( 22-C , 23-H ) :   0.9318
B( 22-C , 24-H ) :   0.9269 B( 22-C , 25-C ) :   1.0596 B( 25-C , 26-H ) :   0.9476
B( 25-C , 27-H ) :   0.9531 B( 25-C , 28-C ) :   1.0793 B( 28-C , 29-H ) :   0.9731
B( 28-C , 30-H ) :   0.9744 B( 28-C , 31-H ) :   0.9725

Dispersion correction           -0.013869420
FINAL SINGLE POINT ENERGY     -1339.877876965856

DIPOLE MOMENT
-------------
                                X             Y             Z
Electronic contribution:     29.80677      -3.20893     -11.85988
Nuclear contribution   :    -30.44565       3.07922      12.14398
                        -----------------------------------------
Total Dipole Moment    :     -0.63888      -0.12971       0.28410
                        -----------------------------------------
Magnitude (a.u.)       :      0.71113
Magnitude (Debye)      :      1.80756

Rotational constants in cm-1:     0.018958     0.008712     0.006134
Rotational constants in MHz :   568.341013   261.188629   183.902728

                             ****ORCA TERMINATED NORMALLY****
TOTAL RUN TIME: 0 days 0 hours 0 minutes 21 seconds 645 msec
