                         Program Version 4.2.1 -  RELEASE  -
|  1> ! wB97X-D3 SP def2-SVP
|  2> %pal
|  3> nprocs 24
|  4> end
|  5>
|  6> * xyz 0 1
|  7> S 	 -109.259 	 49.195 	 -111.956
|  8> C 	 -108.609 	 49.1004 	 -113.583
|  9> C 	 -109.591 	 49.4554 	 -114.525
| 10> C 	 -110.87 	 49.8468 	 -113.867
| 11> C 	 -110.82 	 49.7707 	 -112.506
| 12> H 	 -111.809 	 50.1861 	 -114.258
| 13> C 	 -109.519 	 49.4129 	 -116.083
| 14> H 	 -110.538 	 49.5058 	 -116.522
| 15> H 	 -109.124 	 48.4737 	 -116.214
| 16> C 	 -108.703 	 50.4234 	 -116.832
| 17> H 	 -107.635 	 50.286 	 -116.6
| 18> H 	 -108.831 	 50.2027 	 -117.925
| 19> C 	 -108.989 	 51.8477 	 -116.455
| 20> H 	 -108.712 	 52.0817 	 -115.415
| 21> H 	 -108.437 	 52.4966 	 -117.056
| 22> H 	 -110.037 	 52.032 	 -116.632
| 23> S 	 -111.378 	 51.4794 	 -110.282
| 24> C 	 -113.057 	 51.4989 	 -109.781
| 25> C 	 -113.817 	 50.7282 	 -110.591
| 26> C 	 -113.183 	 50.1129 	 -111.71
| 27> C 	 -111.782 	 50.2165 	 -111.574
| 28> H 	 -114.846 	 50.4976 	 -110.341
| 29> C 	 -114.021 	 49.1893 	 -112.668
| 30> H 	 -114.556 	 48.4642 	 -112.011
| 31> H 	 -113.387 	 48.4939 	 -113.14
| 32> C 	 -114.911 	 49.874 	 -113.747
| 33> H 	 -115.552 	 49.1055 	 -114.207
| 34> H 	 -114.313 	 50.4156 	 -114.5
| 35> C 	 -115.992 	 50.8983 	 -113.36
| 36> H 	 -115.424 	 51.7921 	 -112.965
| 37> H 	 -116.609 	 50.5314 	 -112.52
| 38> H 	 -116.698 	 51.1409 	 -114.132
| 39> H 	 -107.622 	 48.7131 	 -113.763
| 40> H 	 -113.486 	 52.0827 	 -108.962
| 41> *
| 42>
| 43>                          ****END OF INPUT****

CARTESIAN COORDINATES (ANGSTROEM)
---------------------------------
  S    -109.259000   49.195000  -111.956000
  C    -108.609000   49.100400  -113.583000
  C    -109.591000   49.455400  -114.525000
  C    -110.870000   49.846800  -113.867000
  C    -110.820000   49.770700  -112.506000
  H    -111.809000   50.186100  -114.258000
  C    -109.519000   49.412900  -116.083000
  H    -110.538000   49.505800  -116.522000
  H    -109.124000   48.473700  -116.214000
  C    -108.703000   50.423400  -116.832000
  H    -107.635000   50.286000  -116.600000
  H    -108.831000   50.202700  -117.925000
  C    -108.989000   51.847700  -116.455000
  H    -108.712000   52.081700  -115.415000
  H    -108.437000   52.496600  -117.056000
  H    -110.037000   52.032000  -116.632000
  S    -111.378000   51.479400  -110.282000
  C    -113.057000   51.498900  -109.781000
  C    -113.817000   50.728200  -110.591000
  C    -113.183000   50.112900  -111.710000
  C    -111.782000   50.216500  -111.574000
  H    -114.846000   50.497600  -110.341000
  C    -114.021000   49.189300  -112.668000
  H    -114.556000   48.464200  -112.011000
  H    -113.387000   48.493900  -113.140000
  C    -114.911000   49.874000  -113.747000
  H    -115.552000   49.105500  -114.207000
  H    -114.313000   50.415600  -114.500000
  C    -115.992000   50.898300  -113.360000
  H    -115.424000   51.792100  -112.965000
  H    -116.609000   50.531400  -112.520000
  H    -116.698000   51.140900  -114.132000
  H    -107.622000   48.713100  -113.763000
  H    -113.486000   52.082700  -108.962000

 Total Charge           Charge          ....    0
 Multiplicity           Mult            ....    1
 Number of Electrons    NEL             ....  134
 Basis Dimension        Dim             ....  322

ORBITAL ENERGIES
----------------

  NO   OCC          E(Eh)            E(eV)
   0   2.0000     -88.967465     -2420.9278
   1   2.0000     -88.962386     -2420.7896
   2   2.0000     -10.333503      -281.1889
   3   2.0000     -10.322984      -280.9027
   4   2.0000     -10.319918      -280.8193
   5   2.0000     -10.316731      -280.7325
   6   2.0000     -10.315211      -280.6912
   7   2.0000     -10.310173      -280.5541
   8   2.0000     -10.302895      -280.3560
   9   2.0000     -10.296110      -280.1714
  10   2.0000     -10.295935      -280.1666
  11   2.0000     -10.288672      -279.9690
  12   2.0000     -10.288134      -279.9544
  13   2.0000     -10.284570      -279.8574
  14   2.0000     -10.281374      -279.7704
  15   2.0000     -10.266271      -279.3594
  16   2.0000      -8.080669      -219.8862
  17   2.0000      -8.077301      -219.7945
  18   2.0000      -6.039385      -164.3400
  19   2.0000      -6.035893      -164.2450
  20   2.0000      -6.035566      -164.2361
  21   2.0000      -6.031725      -164.1316
  22   2.0000      -6.031092      -164.1144
  23   2.0000      -6.028023      -164.0308
  24   2.0000      -1.001456       -27.2510
  25   2.0000      -0.976063       -26.5600
  26   2.0000      -0.915644       -24.9159
  27   2.0000      -0.903063       -24.5736
  28   2.0000      -0.874580       -23.7985
  29   2.0000      -0.848880       -23.0992
  30   2.0000      -0.840927       -22.8828
  31   2.0000      -0.812656       -22.1135
  32   2.0000      -0.790533       -21.5115
  33   2.0000      -0.777030       -21.1441
  34   2.0000      -0.707604       -19.2549
  35   2.0000      -0.697083       -18.9686
  36   2.0000      -0.688750       -18.7418
  37   2.0000      -0.657736       -17.8979
  38   2.0000      -0.641347       -17.4519
  39   2.0000      -0.606059       -16.4917
  40   2.0000      -0.594309       -16.1720
  41   2.0000      -0.578709       -15.7475
  42   2.0000      -0.558495       -15.1974
  43   2.0000      -0.555933       -15.1277
  44   2.0000      -0.544292       -14.8110
  45   2.0000      -0.540982       -14.7209
  46   2.0000      -0.515987       -14.0407
  47   2.0000      -0.507514       -13.8102
  48   2.0000      -0.502320       -13.6688
  49   2.0000      -0.501252       -13.6398
  50   2.0000      -0.487649       -13.2696
  51   2.0000      -0.480470       -13.0743
  52   2.0000      -0.472707       -12.8630
  53   2.0000      -0.468206       -12.7405
  54   2.0000      -0.460981       -12.5439
  55   2.0000      -0.447474       -12.1764
  56   2.0000      -0.437850       -11.9145
  57   2.0000      -0.435415       -11.8482
  58   2.0000      -0.430927       -11.7261
  59   2.0000      -0.421458       -11.4685
  60   2.0000      -0.416331       -11.3289
  61   2.0000      -0.410781       -11.1779
  62   2.0000      -0.408228       -11.1084
  63   2.0000      -0.354489        -9.6461
  64   2.0000      -0.332644        -9.0517
  65   2.0000      -0.325456        -8.8561
  66   2.0000      -0.288941        -7.8625
  67   0.0000       0.023091         0.6283
  68   0.0000       0.067016         1.8236
  69   0.0000       0.105622         2.8741
  70   0.0000       0.116367         3.1665
  71   0.0000       0.126497         3.4422

MULLIKEN ATOMIC CHARGES
-----------------------
   0 S :    0.096798
   1 C :   -0.124627
   2 C :   -0.098822
   3 C :    0.039440
   4 C :   -0.171971
   5 H :   -0.007374
   6 C :    0.101797
   7 H :    0.028526
   8 H :    0.014248
   9 C :   -0.098332
  10 H :    0.019605
  11 H :    0.038978
  12 C :   -0.009755
  13 H :    0.046713
  14 H :    0.015274
  15 H :    0.015423
  16 S :    0.097060
  17 C :   -0.083713
  18 C :   -0.025473
  19 C :   -0.048644
  20 C :   -0.123195
  21 H :    0.016917
  22 C :    0.062865
  23 H :    0.037067
  24 H :    0.016392
  25 C :   -0.077324
  26 H :    0.035248
  27 H :    0.042103
  28 C :   -0.083666
  29 H :    0.046951
  30 H :    0.024165
  31 H :    0.041835
  32 H :    0.052195
  33 H :    0.063299
Sum of atomic charges:   -0.0000000

LOEWDIN ATOMIC CHARGES
----------------------
   0 S :    0.396611
   1 C :   -0.197461
   2 C :   -0.049580
   3 C :   -0.058460
   4 C :   -0.195750
   5 H :    0.028272
   6 C :   -0.028447
   7 H :    0.034662
   8 H :    0.022526
   9 C :   -0.046658
  10 H :    0.021073
  11 H :    0.030827
  12 C :   -0.058138
  13 H :    0.033508
  14 H :    0.017502
  15 H :    0.020140
  16 S :    0.364703
  17 C :   -0.184446
  18 C :   -0.075524
  19 C :   -0.050399
  20 C :   -0.171309
  21 H :    0.029414
  22 C :   -0.029896
  23 H :    0.040412
  24 H :    0.026276
  25 C :   -0.043297
  26 H :    0.029867
  27 H :    0.025722
  28 C :   -0.073933
  29 H :    0.030738
  30 H :    0.021610
  31 H :    0.025406
  32 H :    0.026580
  33 H :    0.037450

  Mayer bond orders larger than 0.100000
B(  0-S ,  1-C ) :   1.1323 B(  0-S ,  4-C ) :   1.1298 B(  1-C ,  2-C ) :   1.6152
B(  1-C , 32-H ) :   0.9773 B(  2-C ,  3-C ) :   1.1947 B(  2-C ,  6-C ) :   0.9956
B(  3-C ,  4-C ) :   1.6103 B(  3-C ,  5-H ) :   0.9911 B(  4-C , 20-C ) :   1.0783
B(  6-C ,  7-H ) :   0.9464 B(  6-C ,  8-H ) :   0.9336 B(  6-C ,  9-C ) :   1.0889
B(  9-C , 10-H ) :   0.9508 B(  9-C , 11-H ) :   0.9535 B(  9-C , 12-C ) :   1.0870
B( 12-C , 13-H ) :   0.9676 B( 12-C , 14-H ) :   0.9702 B( 12-C , 15-H ) :   0.9754
B( 16-S , 17-C ) :   1.1263 B( 16-S , 20-C ) :   1.1100 B( 17-C , 18-C ) :   1.6418
B( 17-C , 33-H ) :   0.9623 B( 18-C , 19-C ) :   1.2264 B( 18-C , 21-H ) :   0.9836
B( 19-C , 20-C ) :   1.6012 B( 19-C , 22-C ) :   1.0168 B( 22-C , 23-H ) :   0.9437
B( 22-C , 24-H ) :   0.9364 B( 22-C , 25-C ) :   1.0655 B( 25-C , 26-H ) :   0.9551
B( 25-C , 27-H ) :   0.9557 B( 25-C , 28-C ) :   1.0798 B( 28-C , 29-H ) :   0.9725
B( 28-C , 30-H ) :   0.9737 B( 28-C , 31-H ) :   0.9742

Dispersion correction           -0.014566946
FINAL SINGLE POINT ENERGY     -1339.862055184120

DIPOLE MOMENT
-------------
                                X             Y             Z
Electronic contribution:     11.63552      -2.39740      23.54670
Nuclear contribution   :    -12.08841       2.26923     -24.11271
                        -----------------------------------------
Total Dipole Moment    :     -0.45288      -0.12817      -0.56601
                        -----------------------------------------
Magnitude (a.u.)       :      0.73613
Magnitude (Debye)      :      1.87110

Rotational constants in cm-1:     0.017981     0.008783     0.006907
Rotational constants in MHz :   539.062518   263.302844   207.076303

                             ****ORCA TERMINATED NORMALLY****
TOTAL RUN TIME: 0 days 0 hours 0 minutes 22 seconds 631 msec
