                         Program Version 4.2.1 -  RELEASE  -
|  1> ! wB97X-D3 SP def2-SVP
|  2> %pal
|  3> nprocs 24
|  4> end
|  5>
|  6> * xyz 0 1
|  7> S 	 -65.9767 	 -43.6842 	 -90.2802
|  8> C 	 -64.4791 	 -44.6207 	 -89.974
|  9> C 	 -64.7259 	 -45.9367 	 -90.2891
| 10> C 	 -65.9504 	 -46.0856 	 -90.9771
| 11> C 	 -66.7937 	 -44.9779 	 -90.9842
| 12> H 	 -66.2734 	 -47.0662 	 -91.253
| 13> C 	 -63.8295 	 -47.1111 	 -89.9392
| 14> H 	 -62.7876 	 -46.8499 	 -90.0815
| 15> H 	 -64.0074 	 -47.9931 	 -90.6266
| 16> C 	 -64.0047 	 -47.6495 	 -88.4906
| 17> H 	 -63.2296 	 -48.396 	 -88.2135
| 18> H 	 -63.923 	 -46.7745 	 -87.798
| 19> C 	 -65.262 	 -48.4354 	 -88.164
| 20> H 	 -66.1914 	 -47.8755 	 -88.2792
| 21> H 	 -65.3183 	 -49.3542 	 -88.7583
| 22> H 	 -65.1212 	 -48.6669 	 -87.1536
| 23> S 	 -69.2628 	 -43.7796 	 -90.7405
| 24> C 	 -70.4352 	 -43.9557 	 -91.9999
| 25> C 	 -69.8842 	 -44.6574 	 -93.0371
| 26> C 	 -68.613 	 -45.1765 	 -92.8049
| 27> C 	 -68.1098 	 -44.7905 	 -91.6056
| 28> H 	 -70.4698 	 -44.8246 	 -93.9217
| 29> C 	 -67.9574 	 -45.9834 	 -93.8409
| 30> H 	 -68.7616 	 -46.1452 	 -94.5782
| 31> H 	 -67.5561 	 -46.8872 	 -93.4405
| 32> C 	 -66.7204 	 -45.3536 	 -94.5085
| 33> H 	 -66.025 	 -46.0059 	 -95.0636
| 34> H 	 -66.1 	 -45.2014 	 -93.6188
| 35> C 	 -66.9548 	 -43.974 	 -95.1236
| 36> H 	 -67.2802 	 -44.0045 	 -96.1334
| 37> H 	 -65.9796 	 -43.3513 	 -95.0884
| 38> H 	 -67.8633 	 -43.5596 	 -94.6549
| 39> H 	 -63.6159 	 -44.289 	 -89.378
| 40> H 	 -71.4296 	 -43.5983 	 -91.9926
| 41> *
| 42>
| 43>                          ****END OF INPUT****

CARTESIAN COORDINATES (ANGSTROEM)
---------------------------------
  S    -65.976700  -43.684200  -90.280200
  C    -64.479100  -44.620700  -89.974000
  C    -64.725900  -45.936700  -90.289100
  C    -65.950400  -46.085600  -90.977100
  C    -66.793700  -44.977900  -90.984200
  H    -66.273400  -47.066200  -91.253000
  C    -63.829500  -47.111100  -89.939200
  H    -62.787600  -46.849900  -90.081500
  H    -64.007400  -47.993100  -90.626600
  C    -64.004700  -47.649500  -88.490600
  H    -63.229600  -48.396000  -88.213500
  H    -63.923000  -46.774500  -87.798000
  C    -65.262000  -48.435400  -88.164000
  H    -66.191400  -47.875500  -88.279200
  H    -65.318300  -49.354200  -88.758300
  H    -65.121200  -48.666900  -87.153600
  S    -69.262800  -43.779600  -90.740500
  C    -70.435200  -43.955700  -91.999900
  C    -69.884200  -44.657400  -93.037100
  C    -68.613000  -45.176500  -92.804900
  C    -68.109800  -44.790500  -91.605600
  H    -70.469800  -44.824600  -93.921700
  C    -67.957400  -45.983400  -93.840900
  H    -68.761600  -46.145200  -94.578200
  H    -67.556100  -46.887200  -93.440500
  C    -66.720400  -45.353600  -94.508500
  H    -66.025000  -46.005900  -95.063600
  H    -66.100000  -45.201400  -93.618800
  C    -66.954800  -43.974000  -95.123600
  H    -67.280200  -44.004500  -96.133400
  H    -65.979600  -43.351300  -95.088400
  H    -67.863300  -43.559600  -94.654900
  H    -63.615900  -44.289000  -89.378000
  H    -71.429600  -43.598300  -91.992600

 Total Charge           Charge          ....    0
 Multiplicity           Mult            ....    1
 Number of Electrons    NEL             ....  134
 Basis Dimension        Dim             ....  322

ORBITAL ENERGIES
----------------

  NO   OCC          E(Eh)            E(eV)
   0   2.0000     -88.967674     -2420.9335
   1   2.0000     -88.967526     -2420.9295
   2   2.0000     -10.331602      -281.1372
   3   2.0000     -10.328048      -281.0405
   4   2.0000     -10.316958      -280.7387
   5   2.0000     -10.315369      -280.6955
   6   2.0000     -10.301698      -280.3235
   7   2.0000     -10.298405      -280.2338
   8   2.0000     -10.295593      -280.1573
   9   2.0000     -10.291806      -280.0543
  10   2.0000     -10.290125      -280.0085
  11   2.0000     -10.288990      -279.9776
  12   2.0000     -10.286793      -279.9179
  13   2.0000     -10.279601      -279.7222
  14   2.0000     -10.273836      -279.5653
  15   2.0000     -10.271152      -279.4923
  16   2.0000      -8.082756      -219.9430
  17   2.0000      -8.082706      -219.9416
  18   2.0000      -6.041285      -164.3917
  19   2.0000      -6.041246      -164.3907
  20   2.0000      -6.037091      -164.2776
  21   2.0000      -6.036970      -164.2743
  22   2.0000      -6.033626      -164.1833
  23   2.0000      -6.033530      -164.1807
  24   2.0000      -1.017927       -27.6992
  25   2.0000      -0.994364       -27.0580
  26   2.0000      -0.915285       -24.9062
  27   2.0000      -0.912626       -24.8338
  28   2.0000      -0.873623       -23.7725
  29   2.0000      -0.850485       -23.1429
  30   2.0000      -0.845840       -23.0165
  31   2.0000      -0.816428       -22.2161
  32   2.0000      -0.787504       -21.4291
  33   2.0000      -0.778516       -21.1845
  34   2.0000      -0.713662       -19.4197
  35   2.0000      -0.693666       -18.8756
  36   2.0000      -0.690786       -18.7972
  37   2.0000      -0.670551       -18.2466
  38   2.0000      -0.636904       -17.3310
  39   2.0000      -0.621774       -16.9193
  40   2.0000      -0.594275       -16.1710
  41   2.0000      -0.577112       -15.7040
  42   2.0000      -0.556692       -15.1484
  43   2.0000      -0.552358       -15.0304
  44   2.0000      -0.549790       -14.9605
  45   2.0000      -0.541583       -14.7372
  46   2.0000      -0.512019       -13.9328
  47   2.0000      -0.511082       -13.9073
  48   2.0000      -0.508846       -13.8464
  49   2.0000      -0.502440       -13.6721
  50   2.0000      -0.488224       -13.2853
  51   2.0000      -0.481311       -13.0971
  52   2.0000      -0.474881       -12.9222
  53   2.0000      -0.470745       -12.8096
  54   2.0000      -0.462492       -12.5850
  55   2.0000      -0.443517       -12.0687
  56   2.0000      -0.437549       -11.9063
  57   2.0000      -0.435835       -11.8597
  58   2.0000      -0.431500       -11.7417
  59   2.0000      -0.426040       -11.5931
  60   2.0000      -0.421212       -11.4618
  61   2.0000      -0.416254       -11.3268
  62   2.0000      -0.396352       -10.7853
  63   2.0000      -0.353873        -9.6294
  64   2.0000      -0.335711        -9.1352
  65   2.0000      -0.331867        -9.0306
  66   2.0000      -0.291777        -7.9397
  67   0.0000       0.024860         0.6765
  68   0.0000       0.069503         1.8913
  69   0.0000       0.107694         2.9305
  70   0.0000       0.119970         3.2646
  71   0.0000       0.134571         3.6619

MULLIKEN ATOMIC CHARGES
-----------------------
   0 S :    0.108410
   1 C :   -0.137011
   2 C :   -0.083939
   3 C :    0.014654
   4 C :   -0.122588
   5 H :   -0.004373
   6 C :    0.063856
   7 H :    0.028776
   8 H :    0.026131
   9 C :   -0.112129
  10 H :    0.034947
  11 H :    0.031527
  12 C :   -0.032157
  13 H :    0.042606
  14 H :    0.027855
  15 H :    0.024548
  16 S :    0.106995
  17 C :   -0.066734
  18 C :   -0.047571
  19 C :   -0.044633
  20 C :   -0.144330
  21 H :    0.011807
  22 C :    0.110087
  23 H :    0.015707
  24 H :    0.020820
  25 C :   -0.086415
  26 H :    0.027061
  27 H :    0.031110
  28 C :   -0.051203
  29 H :    0.015225
  30 H :    0.055643
  31 H :    0.033139
  32 H :    0.058373
  33 H :    0.043809
Sum of atomic charges:   -0.0000000

LOEWDIN ATOMIC CHARGES
----------------------
   0 S :    0.426112
   1 C :   -0.196919
   2 C :   -0.061413
   3 C :   -0.077541
   4 C :   -0.207854
   5 H :    0.021728
   6 C :   -0.035575
   7 H :    0.030953
   8 H :    0.033397
   9 C :   -0.043706
  10 H :    0.028936
  11 H :    0.024917
  12 C :   -0.062594
  13 H :    0.025270
  14 H :    0.024270
  15 H :    0.022573
  16 S :    0.412236
  17 C :   -0.178971
  18 C :   -0.072310
  19 C :   -0.064548
  20 C :   -0.188008
  21 H :    0.029345
  22 C :   -0.025699
  23 H :    0.028339
  24 H :    0.031218
  25 C :   -0.051533
  26 H :    0.025315
  27 H :    0.028232
  28 C :   -0.074294
  29 H :    0.015109
  30 H :    0.041273
  31 H :    0.031306
  32 H :    0.034479
  33 H :    0.025952

  Mayer bond orders larger than 0.100000
B(  0-S ,  1-C ) :   1.1317 B(  0-S ,  4-C ) :   1.1884 B(  1-C ,  2-C ) :   1.5902
B(  1-C ,  4-C ) :   0.1082 B(  1-C , 32-H ) :   0.9655 B(  2-C ,  3-C ) :   1.2858
B(  2-C ,  6-C ) :   1.0218 B(  3-C ,  4-C ) :   1.5196 B(  3-C ,  5-H ) :   0.9986
B(  4-C , 20-C ) :   1.0258 B(  6-C ,  7-H ) :   0.9393 B(  6-C ,  8-H ) :   0.9444
B(  6-C ,  9-C ) :   1.0658 B(  9-C , 10-H ) :   0.9585 B(  9-C , 11-H ) :   0.9556
B(  9-C , 12-C ) :   1.0819 B( 12-C , 13-H ) :   0.9743 B( 12-C , 14-H ) :   0.9732
B( 12-C , 15-H ) :   0.9723 B( 16-S , 17-C ) :   1.1612 B( 16-S , 20-C ) :   1.1431
B( 17-C , 18-C ) :   1.5917 B( 17-C , 20-C ) :   0.1023 B( 17-C , 33-H ) :   0.9731
B( 18-C , 19-C ) :   1.2582 B( 18-C , 21-H ) :   0.9884 B( 19-C , 20-C ) :   1.5813
B( 19-C , 22-C ) :   1.0540 B( 22-C , 23-H ) :   0.9304 B( 22-C , 24-H ) :   0.9233
B( 22-C , 25-C ) :   1.0677 B( 25-C , 26-H ) :   0.9552 B( 25-C , 27-H ) :   0.9532
B( 25-C , 28-C ) :   1.0643 B( 28-C , 29-H ) :   0.9730 B( 28-C , 30-H ) :   0.9743
B( 28-C , 31-H ) :   0.9736

Dispersion correction           -0.015344771
FINAL SINGLE POINT ENERGY     -1339.875155491320

DIPOLE MOMENT
-------------
                                X             Y             Z
Electronic contribution:    -11.37935      16.15111       6.26955
Nuclear contribution   :     11.49617     -16.65153      -6.36631
                        -----------------------------------------
Total Dipole Moment    :      0.11682      -0.50042      -0.09676
                        -----------------------------------------
Magnitude (a.u.)       :      0.52291
Magnitude (Debye)      :      1.32912

Rotational constants in cm-1:     0.021253     0.008585     0.007762
Rotational constants in MHz :   637.134499   257.368773   232.688357

                             ****ORCA TERMINATED NORMALLY****
TOTAL RUN TIME: 0 days 0 hours 0 minutes 22 seconds 625 msec
