                         Program Version 4.2.1 -  RELEASE  -
|  1> ! wB97X-D3 SP def2-SVP
|  2> %pal
|  3> nprocs 24
|  4> end
|  5>
|  6> * xyz 0 1
|  7> S 	 -55.0563 	 -48.3394 	 -82.5842
|  8> C 	 -54.8096 	 -46.7482 	 -81.8639
|  9> C 	 -53.5473 	 -46.7686 	 -81.1972
| 10> C 	 -52.8726 	 -48.056 	 -81.2562
| 11> C 	 -53.5516 	 -48.9787 	 -82.0028
| 12> H 	 -51.9318 	 -48.2316 	 -80.9136
| 13> C 	 -52.8624 	 -45.5895 	 -80.4496
| 14> H 	 -53.1606 	 -45.8439 	 -79.3932
| 15> H 	 -53.3618 	 -44.6623 	 -80.6436
| 16> C 	 -51.321 	 -45.3526 	 -80.5775
| 17> H 	 -51.1528 	 -44.3468 	 -80.2737
| 18> H 	 -50.7818 	 -45.9987 	 -79.8347
| 19> C 	 -50.6154 	 -45.5496 	 -81.959
| 20> H 	 -49.4902 	 -45.3659 	 -81.9433
| 21> H 	 -50.8011 	 -46.4675 	 -82.528
| 22> H 	 -51.1161 	 -44.8758 	 -82.6043
| 23> S 	 -54.2681 	 -51.6846 	 -82.2565
| 24> C 	 -53.1156 	 -52.9102 	 -82.6915
| 25> C 	 -51.9197 	 -52.3413 	 -82.8975
| 26> C 	 -51.8708 	 -50.9286 	 -82.7304
| 27> C 	 -53.0854 	 -50.3436 	 -82.3683
| 28> H 	 -51.1066 	 -52.9952 	 -83.1239
| 29> C 	 -50.6409 	 -50.1393 	 -83.1124
| 30> H 	 -49.8767 	 -50.5522 	 -82.5334
| 31> H 	 -50.9461 	 -49.1245 	 -82.7893
| 32> C 	 -50.242 	 -50.1113 	 -84.566
| 33> H 	 -51.0775 	 -50.2868 	 -85.2194
| 34> H 	 -49.5877 	 -50.902 	 -84.7348
| 35> C 	 -49.5791 	 -48.8233 	 -84.8871
| 36> H 	 -48.6645 	 -48.6764 	 -84.3063
| 37> H 	 -50.2596 	 -48.013 	 -84.767
| 38> H 	 -49.2871 	 -48.7222 	 -85.9641
| 39> H 	 -55.3304 	 -45.896 	 -82.028
| 40> H 	 -53.3678 	 -53.9658 	 -82.7929
| 41> *
| 42>
| 43>                          ****END OF INPUT****

CARTESIAN COORDINATES (ANGSTROEM)
---------------------------------
  S    -55.056300  -48.339400  -82.584200
  C    -54.809600  -46.748200  -81.863900
  C    -53.547300  -46.768600  -81.197200
  C    -52.872600  -48.056000  -81.256200
  C    -53.551600  -48.978700  -82.002800
  H    -51.931800  -48.231600  -80.913600
  C    -52.862400  -45.589500  -80.449600
  H    -53.160600  -45.843900  -79.393200
  H    -53.361800  -44.662300  -80.643600
  C    -51.321000  -45.352600  -80.577500
  H    -51.152800  -44.346800  -80.273700
  H    -50.781800  -45.998700  -79.834700
  C    -50.615400  -45.549600  -81.959000
  H    -49.490200  -45.365900  -81.943300
  H    -50.801100  -46.467500  -82.528000
  H    -51.116100  -44.875800  -82.604300
  S    -54.268100  -51.684600  -82.256500
  C    -53.115600  -52.910200  -82.691500
  C    -51.919700  -52.341300  -82.897500
  C    -51.870800  -50.928600  -82.730400
  C    -53.085400  -50.343600  -82.368300
  H    -51.106600  -52.995200  -83.123900
  C    -50.640900  -50.139300  -83.112400
  H    -49.876700  -50.552200  -82.533400
  H    -50.946100  -49.124500  -82.789300
  C    -50.242000  -50.111300  -84.566000
  H    -51.077500  -50.286800  -85.219400
  H    -49.587700  -50.902000  -84.734800
  C    -49.579100  -48.823300  -84.887100
  H    -48.664500  -48.676400  -84.306300
  H    -50.259600  -48.013000  -84.767000
  H    -49.287100  -48.722200  -85.964100
  H    -55.330400  -45.896000  -82.028000
  H    -53.367800  -53.965800  -82.792900

 Total Charge           Charge          ....    0
 Multiplicity           Mult            ....    1
 Number of Electrons    NEL             ....  134
 Basis Dimension        Dim             ....  322

ORBITAL ENERGIES
----------------

  NO   OCC          E(Eh)            E(eV)
   0   2.0000     -88.967984     -2420.9419
   1   2.0000     -88.958068     -2420.6721
   2   2.0000     -10.335111      -281.2327
   3   2.0000     -10.333733      -281.1952
   4   2.0000     -10.315252      -280.6923
   5   2.0000     -10.314668      -280.6764
   6   2.0000     -10.312703      -280.6229
   7   2.0000     -10.303036      -280.3599
   8   2.0000     -10.301423      -280.3160
   9   2.0000     -10.296812      -280.1905
  10   2.0000     -10.289182      -279.9829
  11   2.0000     -10.286716      -279.9158
  12   2.0000     -10.283007      -279.8148
  13   2.0000     -10.282273      -279.7949
  14   2.0000     -10.273921      -279.5676
  15   2.0000     -10.272713      -279.5347
  16   2.0000      -8.082436      -219.9343
  17   2.0000      -8.072974      -219.6768
  18   2.0000      -6.041104      -164.3868
  19   2.0000      -6.036817      -164.2701
  20   2.0000      -6.033193      -164.1715
  21   2.0000      -6.031608      -164.1284
  22   2.0000      -6.027318      -164.0117
  23   2.0000      -6.023713      -163.9136
  24   2.0000      -1.004766       -27.3411
  25   2.0000      -0.983958       -26.7749
  26   2.0000      -0.919340       -25.0165
  27   2.0000      -0.903062       -24.5736
  28   2.0000      -0.870122       -23.6772
  29   2.0000      -0.852593       -23.2002
  30   2.0000      -0.842774       -22.9330
  31   2.0000      -0.821123       -22.3439
  32   2.0000      -0.783844       -21.3295
  33   2.0000      -0.773077       -21.0365
  34   2.0000      -0.709693       -19.3117
  35   2.0000      -0.702954       -19.1283
  36   2.0000      -0.701147       -19.0792
  37   2.0000      -0.658059       -17.9067
  38   2.0000      -0.646024       -17.5792
  39   2.0000      -0.625912       -17.0319
  40   2.0000      -0.595732       -16.2107
  41   2.0000      -0.580418       -15.7940
  42   2.0000      -0.568006       -15.4562
  43   2.0000      -0.551941       -15.0191
  44   2.0000      -0.535828       -14.5806
  45   2.0000      -0.528144       -14.3715
  46   2.0000      -0.521510       -14.1910
  47   2.0000      -0.514796       -14.0083
  48   2.0000      -0.507591       -13.8122
  49   2.0000      -0.502945       -13.6858
  50   2.0000      -0.492194       -13.3933
  51   2.0000      -0.488407       -13.2902
  52   2.0000      -0.475131       -12.9290
  53   2.0000      -0.468716       -12.7544
  54   2.0000      -0.453331       -12.3358
  55   2.0000      -0.448395       -12.2014
  56   2.0000      -0.440465       -11.9856
  57   2.0000      -0.437650       -11.9091
  58   2.0000      -0.431050       -11.7295
  59   2.0000      -0.429030       -11.6745
  60   2.0000      -0.417038       -11.3482
  61   2.0000      -0.413085       -11.2406
  62   2.0000      -0.405948       -11.0464
  63   2.0000      -0.353525        -9.6199
  64   2.0000      -0.328676        -8.9437
  65   2.0000      -0.326698        -8.8899
  66   2.0000      -0.293150        -7.9770
  67   0.0000       0.029255         0.7961
  68   0.0000       0.074296         2.0217
  69   0.0000       0.115394         3.1400
  70   0.0000       0.121355         3.3022
  71   0.0000       0.129499         3.5239

MULLIKEN ATOMIC CHARGES
-----------------------
   0 S :    0.112802
   1 C :   -0.069014
   2 C :   -0.131791
   3 C :    0.063960
   4 C :   -0.120557
   5 H :   -0.022119
   6 C :    0.049630
   7 H :    0.058220
   8 H :    0.015405
   9 C :   -0.071895
  10 H :    0.030217
  11 H :    0.035574
  12 C :   -0.064598
  13 H :    0.054857
  14 H :    0.033981
  15 H :    0.017097
  16 S :    0.073429
  17 C :   -0.085672
  18 C :   -0.023058
  19 C :   -0.079790
  20 C :   -0.138695
  21 H :    0.007569
  22 C :    0.089852
  23 H :    0.015999
  24 H :    0.010212
  25 C :    0.006257
  26 H :    0.026734
  27 H :    0.005558
  28 C :   -0.068425
  29 H :    0.031947
  30 H :    0.032211
  31 H :    0.029230
  32 H :    0.009862
  33 H :    0.065011
Sum of atomic charges:    0.0000000

LOEWDIN ATOMIC CHARGES
----------------------
   0 S :    0.412687
   1 C :   -0.190672
   2 C :   -0.047674
   3 C :   -0.057313
   4 C :   -0.190415
   5 H :    0.013983
   6 C :   -0.037351
   7 H :    0.048664
   8 H :    0.023253
   9 C :   -0.041718
  10 H :    0.025314
  11 H :    0.025156
  12 C :   -0.076356
  13 H :    0.038693
  14 H :    0.024684
  15 H :    0.020673
  16 S :    0.382284
  17 C :   -0.177458
  18 C :   -0.080151
  19 C :   -0.056639
  20 C :   -0.185090
  21 H :    0.029231
  22 C :   -0.025276
  23 H :    0.024797
  24 H :    0.031131
  25 C :   -0.035603
  26 H :    0.026281
  27 H :    0.015727
  28 C :   -0.061461
  29 H :    0.025789
  30 H :    0.020510
  31 H :    0.029988
  32 H :    0.008219
  33 H :    0.036115

  Mayer bond orders larger than 0.100000
B(  0-S ,  1-C ) :   1.1260 B(  0-S ,  4-C ) :   1.1665 B(  1-C ,  2-C ) :   1.5997
B(  1-C , 32-H ) :   0.9839 B(  2-C ,  3-C ) :   1.2274 B(  2-C ,  6-C ) :   1.0146
B(  3-C ,  4-C ) :   1.5669 B(  3-C ,  5-H ) :   1.0079 B(  4-C , 20-C ) :   1.0131
B(  6-C ,  7-H ) :   0.9410 B(  6-C ,  8-H ) :   0.9483 B(  6-C ,  9-C ) :   1.0594
B(  9-C , 10-H ) :   0.9580 B(  9-C , 11-H ) :   0.9556 B(  9-C , 12-C ) :   1.0717
B( 12-C , 13-H ) :   0.9741 B( 12-C , 14-H ) :   0.9716 B( 12-C , 15-H ) :   0.9707
B( 16-S , 17-C ) :   1.1543 B( 16-S , 20-C ) :   1.1279 B( 17-C , 18-C ) :   1.6132
B( 17-C , 33-H ) :   0.9665 B( 18-C , 19-C ) :   1.2248 B( 18-C , 21-H ) :   1.0006
B( 19-C , 20-C ) :   1.6059 B( 19-C , 22-C ) :   1.0441 B( 22-C , 23-H ) :   0.9129
B( 22-C , 24-H ) :   0.9400 B( 22-C , 25-C ) :   1.0682 B( 25-C , 26-H ) :   0.9531
B( 25-C , 27-H ) :   0.9407 B( 25-C , 28-C ) :   1.1070 B( 28-C , 29-H ) :   0.9731
B( 28-C , 30-H ) :   0.9735 B( 28-C , 31-H ) :   0.9687

Dispersion correction           -0.015070917
FINAL SINGLE POINT ENERGY     -1339.861859881070

DIPOLE MOMENT
-------------
                                X             Y             Z
Electronic contribution:    -25.33851     -16.28820       3.47553
Nuclear contribution   :     26.06256      16.56921      -3.53083
                        -----------------------------------------
Total Dipole Moment    :      0.72406       0.28101      -0.05530
                        -----------------------------------------
Magnitude (a.u.)       :      0.77864
Magnitude (Debye)      :      1.97915

Rotational constants in cm-1:     0.017109     0.010242     0.007252
Rotational constants in MHz :   512.911582   307.052295   217.417393

                             ****ORCA TERMINATED NORMALLY****
TOTAL RUN TIME: 0 days 0 hours 0 minutes 22 seconds 457 msec
