                         Program Version 4.2.1 -  RELEASE  -
|  1> ! wB97X-D3 SP def2-SVP
|  2> %pal
|  3> nprocs 24
|  4> end
|  5>
|  6> * xyz 0 1
|  7> S 	 -63.8005 	 15.3397 	 -89.3966
|  8> C 	 -64.4297 	 16.7217 	 -88.4358
|  9> C 	 -64.9622 	 16.3577 	 -87.2154
| 10> C 	 -64.7397 	 15.0049 	 -86.9711
| 11> C 	 -64.1047 	 14.3317 	 -88.0047
| 12> H 	 -64.9762 	 14.4187 	 -86.067
| 13> C 	 -65.76 	 17.2247 	 -86.3317
| 14> H 	 -65.562 	 18.2542 	 -86.5656
| 15> H 	 -65.1821 	 17.1085 	 -85.5069
| 16> C 	 -67.2408 	 16.9309 	 -86.4212
| 17> H 	 -67.5433 	 16.0377 	 -85.9939
| 18> H 	 -67.9153 	 17.6604 	 -86.0419
| 19> C 	 -67.7582 	 16.866 	 -87.8936
| 20> H 	 -68.8558 	 16.8486 	 -87.8628
| 21> H 	 -67.4894 	 17.7483 	 -88.487
| 22> H 	 -67.3884 	 15.9703 	 -88.3942
| 23> S 	 -64.9295 	 11.7452 	 -87.944
| 24> C 	 -63.7952 	 10.4599 	 -88.1322
| 25> C 	 -62.474 	 10.9758 	 -88.2116
| 26> C 	 -62.4416 	 12.3719 	 -88.0402
| 27> C 	 -63.6919 	 12.9347 	 -87.9867
| 28> H 	 -61.6119 	 10.304 	 -88.286
| 29> C 	 -61.0694 	 13.1097 	 -87.9043
| 30> H 	 -61.3782 	 13.8476 	 -87.0994
| 31> H 	 -60.7829 	 13.6508 	 -88.7448
| 32> C 	 -59.8006 	 12.3674 	 -87.4383
| 33> H 	 -59.5509 	 11.6526 	 -88.2366
| 34> H 	 -59.9764 	 11.7619 	 -86.5258
| 35> C 	 -58.5574 	 13.2153 	 -87.1505
| 36> H 	 -58.68 	 13.8117 	 -86.352
| 37> H 	 -58.2203 	 13.7977 	 -88.0156
| 38> H 	 -57.7001 	 12.5789 	 -86.907
| 39> H 	 -64.3969 	 17.8235 	 -88.6851
| 40> H 	 -64.0093 	 9.42638 	 -88.2527
| 41> *
| 42>
| 43>                          ****END OF INPUT****

CARTESIAN COORDINATES (ANGSTROEM)
---------------------------------
  S    -63.800500   15.339700  -89.396600
  C    -64.429700   16.721700  -88.435800
  C    -64.962200   16.357700  -87.215400
  C    -64.739700   15.004900  -86.971100
  C    -64.104700   14.331700  -88.004700
  H    -64.976200   14.418700  -86.067000
  C    -65.760000   17.224700  -86.331700
  H    -65.562000   18.254200  -86.565600
  H    -65.182100   17.108500  -85.506900
  C    -67.240800   16.930900  -86.421200
  H    -67.543300   16.037700  -85.993900
  H    -67.915300   17.660400  -86.041900
  C    -67.758200   16.866000  -87.893600
  H    -68.855800   16.848600  -87.862800
  H    -67.489400   17.748300  -88.487000
  H    -67.388400   15.970300  -88.394200
  S    -64.929500   11.745200  -87.944000
  C    -63.795200   10.459900  -88.132200
  C    -62.474000   10.975800  -88.211600
  C    -62.441600   12.371900  -88.040200
  C    -63.691900   12.934700  -87.986700
  H    -61.611900   10.304000  -88.286000
  C    -61.069400   13.109700  -87.904300
  H    -61.378200   13.847600  -87.099400
  H    -60.782900   13.650800  -88.744800
  C    -59.800600   12.367400  -87.438300
  H    -59.550900   11.652600  -88.236600
  H    -59.976400   11.761900  -86.525800
  C    -58.557400   13.215300  -87.150500
  H    -58.680000   13.811700  -86.352000
  H    -58.220300   13.797700  -88.015600
  H    -57.700100   12.578900  -86.907000
  H    -64.396900   17.823500  -88.685100
  H    -64.009300    9.426380  -88.252700

 Total Charge           Charge          ....    0
 Multiplicity           Mult            ....    1
 Number of Electrons    NEL             ....  134
 Basis Dimension        Dim             ....  322

ORBITAL ENERGIES
----------------

  NO   OCC          E(Eh)            E(eV)
   0   2.0000     -88.970274     -2421.0042
   1   2.0000     -88.967202     -2420.9207
   2   2.0000     -10.325916      -280.9825
   3   2.0000     -10.318119      -280.7703
   4   2.0000     -10.315917      -280.7104
   5   2.0000     -10.314710      -280.6775
   6   2.0000     -10.301407      -280.3155
   7   2.0000     -10.292922      -280.0847
   8   2.0000     -10.292902      -280.0841
   9   2.0000     -10.291161      -280.0367
  10   2.0000     -10.290259      -280.0122
  11   2.0000     -10.289455      -279.9903
  12   2.0000     -10.280598      -279.7493
  13   2.0000     -10.280306      -279.7414
  14   2.0000     -10.274440      -279.5817
  15   2.0000     -10.271033      -279.4890
  16   2.0000      -8.083886      -219.9737
  17   2.0000      -8.082604      -219.9388
  18   2.0000      -6.042336      -164.4203
  19   2.0000      -6.040950      -164.3826
  20   2.0000      -6.038733      -164.3223
  21   2.0000      -6.036809      -164.2699
  22   2.0000      -6.034597      -164.2097
  23   2.0000      -6.033731      -164.1862
  24   2.0000      -1.009583       -27.4722
  25   2.0000      -0.986518       -26.8445
  26   2.0000      -0.921199       -25.0671
  27   2.0000      -0.903641       -24.5893
  28   2.0000      -0.864156       -23.5149
  29   2.0000      -0.853773       -23.2323
  30   2.0000      -0.847643       -23.0655
  31   2.0000      -0.810757       -22.0618
  32   2.0000      -0.788362       -21.4524
  33   2.0000      -0.775411       -21.1000
  34   2.0000      -0.709458       -19.3053
  35   2.0000      -0.701694       -19.0941
  36   2.0000      -0.694722       -18.9043
  37   2.0000      -0.659020       -17.9329
  38   2.0000      -0.631968       -17.1967
  39   2.0000      -0.618548       -16.8316
  40   2.0000      -0.596225       -16.2241
  41   2.0000      -0.572244       -15.5715
  42   2.0000      -0.569255       -15.4902
  43   2.0000      -0.560905       -15.2630
  44   2.0000      -0.548273       -14.9193
  45   2.0000      -0.522556       -14.2195
  46   2.0000      -0.512825       -13.9547
  47   2.0000      -0.508945       -13.8491
  48   2.0000      -0.505282       -13.7494
  49   2.0000      -0.487233       -13.2583
  50   2.0000      -0.484611       -13.1869
  51   2.0000      -0.477004       -12.9799
  52   2.0000      -0.468851       -12.7581
  53   2.0000      -0.465819       -12.6756
  54   2.0000      -0.459094       -12.4926
  55   2.0000      -0.451677       -12.2908
  56   2.0000      -0.447622       -12.1804
  57   2.0000      -0.445345       -12.1185
  58   2.0000      -0.428110       -11.6495
  59   2.0000      -0.426700       -11.6111
  60   2.0000      -0.425140       -11.5687
  61   2.0000      -0.411553       -11.1989
  62   2.0000      -0.408143       -11.1061
  63   2.0000      -0.337723        -9.1899
  64   2.0000      -0.333872        -9.0851
  65   2.0000      -0.325394        -8.8544
  66   2.0000      -0.296831        -8.0772
  67   0.0000       0.034728         0.9450
  68   0.0000       0.063726         1.7341
  69   0.0000       0.109131         2.9696
  70   0.0000       0.120627         3.2824
  71   0.0000       0.137854         3.7512

MULLIKEN ATOMIC CHARGES
-----------------------
   0 S :    0.129666
   1 C :   -0.142268
   2 C :   -0.133569
   3 C :    0.009959
   4 C :   -0.174702
   5 H :    0.020093
   6 C :    0.188486
   7 H :   -0.004599
   8 H :    0.002714
   9 C :   -0.018918
  10 H :    0.015349
  11 H :    0.022645
  12 C :   -0.090250
  13 H :    0.030909
  14 H :    0.028531
  15 H :    0.051363
  16 S :    0.135911
  17 C :   -0.089179
  18 C :   -0.060304
  19 C :   -0.012143
  20 C :   -0.197996
  21 H :    0.027190
  22 C :    0.084373
  23 H :    0.039473
  24 H :    0.021899
  25 C :   -0.119933
  26 H :    0.031767
  27 H :    0.033296
  28 C :    0.000551
  29 H :    0.009762
  30 H :    0.028701
  31 H :    0.027882
  32 H :    0.057490
  33 H :    0.045851
Sum of atomic charges:    0.0000000

LOEWDIN ATOMIC CHARGES
----------------------
   0 S :    0.397666
   1 C :   -0.195491
   2 C :   -0.063814
   3 C :   -0.067685
   4 C :   -0.196440
   5 H :    0.036376
   6 C :   -0.025780
   7 H :    0.030110
   8 H :    0.023562
   9 C :   -0.028059
  10 H :    0.016093
  11 H :    0.024530
  12 C :   -0.060013
  13 H :    0.025592
  14 H :    0.022163
  15 H :    0.025623
  16 S :    0.444815
  17 C :   -0.195906
  18 C :   -0.072696
  19 C :   -0.057284
  20 C :   -0.224959
  21 H :    0.033016
  22 C :   -0.030831
  23 H :    0.041276
  24 H :    0.020075
  25 C :   -0.045240
  26 H :    0.021985
  27 H :    0.026280
  28 C :   -0.052730
  29 H :    0.008172
  30 H :    0.027027
  31 H :    0.032457
  32 H :    0.037272
  33 H :    0.022838

  Mayer bond orders larger than 0.100000
B(  0-S ,  1-C ) :   1.1277 B(  0-S ,  4-C ) :   1.1482 B(  1-C ,  2-C ) :   1.6177
B(  1-C , 32-H ) :   0.9534 B(  2-C ,  3-C ) :   1.2374 B(  2-C ,  6-C ) :   1.0049
B(  3-C ,  4-C ) :   1.5819 B(  3-C ,  5-H ) :   0.9917 B(  4-C , 20-C ) :   1.0187
B(  6-C ,  7-H ) :   0.9245 B(  6-C ,  8-H ) :   0.9310 B(  6-C ,  9-C ) :   1.0553
B(  9-C , 10-H ) :   0.9583 B(  9-C , 11-H ) :   0.9615 B(  9-C , 12-C ) :   1.0737
B( 12-C , 13-H ) :   0.9760 B( 12-C , 14-H ) :   0.9773 B( 12-C , 15-H ) :   0.9718
B( 16-S , 17-C ) :   1.1835 B( 16-S , 20-C ) :   1.1668 B( 17-C , 18-C ) :   1.5575
B( 17-C , 20-C ) :   0.1079 B( 17-C , 33-H ) :   0.9720 B( 18-C , 19-C ) :   1.2898
B( 18-C , 21-H ) :   0.9831 B( 19-C , 20-C ) :   1.5798 B( 19-C , 22-C ) :   1.0047
B( 22-C , 23-H ) :   0.9385 B( 22-C , 24-H ) :   0.9348 B( 22-C , 25-C ) :   1.0738
B( 25-C , 26-H ) :   0.9468 B( 25-C , 27-H ) :   0.9564 B( 25-C , 28-C ) :   1.0935
B( 28-C , 29-H ) :   0.9755 B( 28-C , 30-H ) :   0.9724 B( 28-C , 31-H ) :   0.9696

Dispersion correction           -0.014638143
FINAL SINGLE POINT ENERGY     -1339.854657425869

DIPOLE MOMENT
-------------
                                X             Y             Z
Electronic contribution:     -6.62370      -8.86478      -8.27742
Nuclear contribution   :      6.80086       8.99484       8.61895
                        -----------------------------------------
Total Dipole Moment    :      0.17717       0.13006       0.34153
                        -----------------------------------------
Magnitude (a.u.)       :      0.40614
Magnitude (Debye)      :      1.03232

Rotational constants in cm-1:     0.021420     0.007943     0.006593
Rotational constants in MHz :   642.158783   238.126589   197.660372

                             ****ORCA TERMINATED NORMALLY****
TOTAL RUN TIME: 0 days 0 hours 0 minutes 21 seconds 404 msec
