                         Program Version 4.2.1 -  RELEASE  -
|  1> ! wB97X-D3 SP def2-SVP
|  2> %pal
|  3> nprocs 24
|  4> end
|  5>
|  6> * xyz 0 1
|  7> S 	 -56.8949 	 9.44245 	 -93.2954
|  8> C 	 -55.1767 	 9.18209 	 -93.7179
|  9> C 	 -54.9862 	 9.44488 	 -95.0561
| 10> C 	 -56.1175 	 10.1311 	 -95.6988
| 11> C 	 -57.2028 	 10.265 	 -94.8448
| 12> H 	 -56.2724 	 10.5059 	 -96.693
| 13> C 	 -53.7167 	 9.28475 	 -95.843
| 14> H 	 -52.8509 	 9.57942 	 -95.1877
| 15> H 	 -53.8395 	 9.98918 	 -96.621
| 16> C 	 -53.4402 	 7.84796 	 -96.2198
| 17> H 	 -53.6091 	 7.13156 	 -95.3792
| 18> H 	 -54.1869 	 7.48567 	 -96.9442
| 19> C 	 -52.0198 	 7.65136 	 -96.8225
| 20> H 	 -51.1721 	 8.0614 	 -96.2527
| 21> H 	 -51.7092 	 6.59885 	 -97.0358
| 22> H 	 -51.9473 	 8.15704 	 -97.7835
| 23> S 	 -59.7651 	 10.2988 	 -95.9998
| 24> C 	 -60.7032 	 11.8155 	 -95.9511
| 25> C 	 -60.1682 	 12.7337 	 -95.1085
| 26> C 	 -58.8902 	 12.3325 	 -94.601
| 27> C 	 -58.4655 	 11.0775 	 -95.1041
| 28> H 	 -60.6512 	 13.7373 	 -94.9495
| 29> C 	 -57.9358 	 13.2188 	 -93.8573
| 30> H 	 -56.9656 	 12.9543 	 -94.2566
| 31> H 	 -57.8978 	 12.9459 	 -92.8126
| 32> C 	 -58.2314 	 14.7765 	 -94.0598
| 33> H 	 -59.2437 	 14.8775 	 -93.7004
| 34> H 	 -58.1828 	 15.0405 	 -95.1641
| 35> C 	 -57.2697 	 15.6803 	 -93.2203
| 36> H 	 -56.2309 	 15.6748 	 -93.5594
| 37> H 	 -57.3966 	 15.4348 	 -92.1275
| 38> H 	 -57.6436 	 16.7323 	 -93.1094
| 39> H 	 -54.3912 	 8.81166 	 -93.1425
| 40> H 	 -61.6398 	 11.9826 	 -96.4403
| 41> *
| 42>
| 43>                          ****END OF INPUT****

CARTESIAN COORDINATES (ANGSTROEM)
---------------------------------
  S    -56.894900    9.442450  -93.295400
  C    -55.176700    9.182090  -93.717900
  C    -54.986200    9.444880  -95.056100
  C    -56.117500   10.131100  -95.698800
  C    -57.202800   10.265000  -94.844800
  H    -56.272400   10.505900  -96.693000
  C    -53.716700    9.284750  -95.843000
  H    -52.850900    9.579420  -95.187700
  H    -53.839500    9.989180  -96.621000
  C    -53.440200    7.847960  -96.219800
  H    -53.609100    7.131560  -95.379200
  H    -54.186900    7.485670  -96.944200
  C    -52.019800    7.651360  -96.822500
  H    -51.172100    8.061400  -96.252700
  H    -51.709200    6.598850  -97.035800
  H    -51.947300    8.157040  -97.783500
  S    -59.765100   10.298800  -95.999800
  C    -60.703200   11.815500  -95.951100
  C    -60.168200   12.733700  -95.108500
  C    -58.890200   12.332500  -94.601000
  C    -58.465500   11.077500  -95.104100
  H    -60.651200   13.737300  -94.949500
  C    -57.935800   13.218800  -93.857300
  H    -56.965600   12.954300  -94.256600
  H    -57.897800   12.945900  -92.812600
  C    -58.231400   14.776500  -94.059800
  H    -59.243700   14.877500  -93.700400
  H    -58.182800   15.040500  -95.164100
  C    -57.269700   15.680300  -93.220300
  H    -56.230900   15.674800  -93.559400
  H    -57.396600   15.434800  -92.127500
  H    -57.643600   16.732300  -93.109400
  H    -54.391200    8.811660  -93.142500
  H    -61.639800   11.982600  -96.440300

 Total Charge           Charge          ....    0
 Multiplicity           Mult            ....    1
 Number of Electrons    NEL             ....  134
 Basis Dimension        Dim             ....  322

ORBITAL ENERGIES
----------------

  NO   OCC          E(Eh)            E(eV)
   0   2.0000     -88.965842     -2420.8836
   1   2.0000     -88.965530     -2420.8751
   2   2.0000     -10.336435      -281.2687
   3   2.0000     -10.330961      -281.1197
   4   2.0000     -10.316755      -280.7332
   5   2.0000     -10.314348      -280.6677
   6   2.0000     -10.306111      -280.4435
   7   2.0000     -10.304171      -280.3908
   8   2.0000     -10.299195      -280.2553
   9   2.0000     -10.297514      -280.2096
  10   2.0000     -10.297260      -280.2027
  11   2.0000     -10.292629      -280.0767
  12   2.0000     -10.290977      -280.0317
  13   2.0000     -10.287541      -279.9382
  14   2.0000     -10.287265      -279.9307
  15   2.0000     -10.282364      -279.7974
  16   2.0000      -8.079515      -219.8548
  17   2.0000      -8.079285      -219.8485
  18   2.0000      -6.038041      -164.3035
  19   2.0000      -6.038023      -164.3030
  20   2.0000      -6.034189      -164.1986
  21   2.0000      -6.034023      -164.1941
  22   2.0000      -6.030243      -164.0913
  23   2.0000      -6.029807      -164.0794
  24   2.0000      -0.996405       -27.1136
  25   2.0000      -0.978344       -26.6221
  26   2.0000      -0.911818       -24.8118
  27   2.0000      -0.898876       -24.4596
  28   2.0000      -0.863777       -23.5046
  29   2.0000      -0.843412       -22.9504
  30   2.0000      -0.841556       -22.8999
  31   2.0000      -0.818457       -22.2713
  32   2.0000      -0.777710       -21.1626
  33   2.0000      -0.765240       -20.8232
  34   2.0000      -0.706876       -19.2351
  35   2.0000      -0.703288       -19.1374
  36   2.0000      -0.697072       -18.9683
  37   2.0000      -0.649344       -17.6695
  38   2.0000      -0.640589       -17.4313
  39   2.0000      -0.611376       -16.6364
  40   2.0000      -0.592729       -16.1290
  41   2.0000      -0.569434       -15.4951
  42   2.0000      -0.565096       -15.3771
  43   2.0000      -0.558750       -15.2044
  44   2.0000      -0.523943       -14.2572
  45   2.0000      -0.517281       -14.0759
  46   2.0000      -0.514797       -14.0083
  47   2.0000      -0.509391       -13.8612
  48   2.0000      -0.500016       -13.6061
  49   2.0000      -0.496492       -13.5102
  50   2.0000      -0.491174       -13.3655
  51   2.0000      -0.476451       -12.9649
  52   2.0000      -0.469126       -12.7656
  53   2.0000      -0.463455       -12.6113
  54   2.0000      -0.457049       -12.4369
  55   2.0000      -0.453218       -12.3327
  56   2.0000      -0.441690       -12.0190
  57   2.0000      -0.438356       -11.9283
  58   2.0000      -0.431103       -11.7309
  59   2.0000      -0.425096       -11.5675
  60   2.0000      -0.420993       -11.4558
  61   2.0000      -0.412070       -11.2130
  62   2.0000      -0.409360       -11.1392
  63   2.0000      -0.336721        -9.1626
  64   2.0000      -0.330753        -9.0002
  65   2.0000      -0.317679        -8.6445
  66   2.0000      -0.308434        -8.3929
  67   0.0000       0.033305         0.9063
  68   0.0000       0.057224         1.5571
  69   0.0000       0.109928         2.9913
  70   0.0000       0.118389         3.2215
  71   0.0000       0.127162         3.4603

MULLIKEN ATOMIC CHARGES
-----------------------
   0 S :    0.106937
   1 C :   -0.085202
   2 C :   -0.103474
   3 C :    0.048560
   4 C :   -0.168831
   5 H :    0.016143
   6 C :    0.087953
   7 H :    0.031581
   8 H :    0.017025
   9 C :   -0.076808
  10 H :    0.036077
  11 H :    0.029656
  12 C :   -0.062329
  13 H :    0.029222
  14 H :    0.038510
  15 H :    0.025800
  16 S :    0.104598
  17 C :   -0.078925
  18 C :   -0.056528
  19 C :   -0.033907
  20 C :   -0.192619
  21 H :    0.044383
  22 C :    0.088669
  23 H :    0.031245
  24 H :    0.031844
  25 C :   -0.120598
  26 H :    0.035402
  27 H :    0.051867
  28 C :   -0.061521
  29 H :    0.052897
  30 H :    0.030272
  31 H :    0.033069
  32 H :    0.022562
  33 H :    0.046469
Sum of atomic charges:    0.0000000

LOEWDIN ATOMIC CHARGES
----------------------
   0 S :    0.374480
   1 C :   -0.176158
   2 C :   -0.055926
   3 C :   -0.059840
   4 C :   -0.186237
   5 H :    0.033766
   6 C :   -0.032077
   7 H :    0.037794
   8 H :    0.025515
   9 C :   -0.044373
  10 H :    0.028752
  11 H :    0.027624
  12 C :   -0.077172
  13 H :    0.023819
  14 H :    0.030337
  15 H :    0.024326
  16 S :    0.388674
  17 C :   -0.168356
  18 C :   -0.081390
  19 C :   -0.050268
  20 C :   -0.206869
  21 H :    0.044343
  22 C :   -0.032338
  23 H :    0.032385
  24 H :    0.031885
  25 C :   -0.041101
  26 H :    0.018797
  27 H :    0.032420
  28 C :   -0.078862
  29 H :    0.027695
  30 H :    0.031823
  31 H :    0.031019
  32 H :    0.019607
  33 H :    0.025905

  Mayer bond orders larger than 0.100000
B(  0-S ,  1-C ) :   1.1131 B(  0-S ,  4-C ) :   1.1314 B(  1-C ,  2-C ) :   1.6506
B(  1-C , 32-H ) :   0.9740 B(  2-C ,  3-C ) :   1.1851 B(  2-C ,  6-C ) :   1.0258
B(  3-C ,  4-C ) :   1.6324 B(  3-C ,  5-H ) :   0.9884 B(  4-C , 20-C ) :   0.9948
B(  6-C ,  7-H ) :   0.9430 B(  6-C ,  8-H ) :   0.9399 B(  6-C ,  9-C ) :   1.0514
B(  9-C , 10-H ) :   0.9616 B(  9-C , 11-H ) :   0.9508 B(  9-C , 12-C ) :   1.0720
B( 12-C , 13-H ) :   0.9767 B( 12-C , 14-H ) :   0.9761 B( 12-C , 15-H ) :   0.9734
B( 16-S , 17-C ) :   1.1483 B( 16-S , 20-C ) :   1.1429 B( 17-C , 18-C ) :   1.6303
B( 17-C , 33-H ) :   0.9643 B( 18-C , 19-C ) :   1.2403 B( 18-C , 21-H ) :   0.9743
B( 19-C , 20-C ) :   1.5989 B( 19-C , 22-C ) :   1.0357 B( 22-C , 23-H ) :   0.9369
B( 22-C , 24-H ) :   0.9215 B( 22-C , 25-C ) :   1.0620 B( 25-C , 26-H ) :   0.9490
B( 25-C , 27-H ) :   0.9608 B( 25-C , 28-C ) :   1.0827 B( 28-C , 29-H ) :   0.9774
B( 28-C , 30-H ) :   0.9707 B( 28-C , 31-H ) :   0.9729

Dispersion correction           -0.013655694
FINAL SINGLE POINT ENERGY     -1339.867645022412

DIPOLE MOMENT
-------------
                                X             Y             Z
Electronic contribution:    -20.04161     -10.04515       2.32397
Nuclear contribution   :     20.39700      10.47106      -2.46338
                        -----------------------------------------
Total Dipole Moment    :      0.35539       0.42591      -0.13941
                        -----------------------------------------
Magnitude (a.u.)       :      0.57195
Magnitude (Debye)      :      1.45379

Rotational constants in cm-1:     0.019795     0.006945     0.005990
Rotational constants in MHz :   593.435810   208.212137   179.561226

                             ****ORCA TERMINATED NORMALLY****
TOTAL RUN TIME: 0 days 0 hours 0 minutes 20 seconds 624 msec
