                         Program Version 4.2.1 -  RELEASE  -
|  1> ! wB97X-D3 SP def2-SVP
|  2> %pal
|  3> nprocs 24
|  4> end
|  5>
|  6> * xyz 0 1
|  7> S 	 -114.825 	 15.2557 	 -107.316
|  8> C 	 -114.362 	 16.9106 	 -107.058
|  9> C 	 -114.893 	 17.7298 	 -108.065
| 10> C 	 -115.666 	 16.9817 	 -109.012
| 11> C 	 -115.702 	 15.6551 	 -108.818
| 12> H 	 -116.201 	 17.4296 	 -109.877
| 13> C 	 -114.621 	 19.2073 	 -108.251
| 14> H 	 -113.736 	 19.2768 	 -107.519
| 15> H 	 -115.467 	 19.7915 	 -107.834
| 16> C 	 -114.356 	 19.7428 	 -109.679
| 17> H 	 -113.468 	 19.2876 	 -110.068
| 18> H 	 -115.145 	 19.55 	 -110.372
| 19> C 	 -114.216 	 21.2735 	 -109.767
| 20> H 	 -114.042 	 21.5402 	 -110.771
| 21> H 	 -115.126 	 21.8902 	 -109.436
| 22> H 	 -113.488 	 21.641 	 -109.096
| 23> S 	 -117.264 	 13.3921 	 -108.553
| 24> C 	 -117.928 	 12.6657 	 -109.917
| 25> C 	 -117.682 	 13.3725 	 -111.066
| 26> C 	 -116.877 	 14.585 	 -110.902
| 27> C 	 -116.537 	 14.6682 	 -109.538
| 28> H 	 -117.888 	 12.9005 	 -112.073
| 29> C 	 -116.598 	 15.5097 	 -112.05
| 30> H 	 -116.876 	 16.4988 	 -111.933
| 31> H 	 -117.101 	 15.2267 	 -112.93
| 32> C 	 -115.15 	 15.4653 	 -112.43
| 33> H 	 -114.775 	 14.4352 	 -112.507
| 34> H 	 -114.519 	 15.9115 	 -111.678
| 35> C 	 -114.854 	 16.2657 	 -113.718
| 36> H 	 -113.921 	 15.995 	 -114.214
| 37> H 	 -114.865 	 17.3404 	 -113.7
| 38> H 	 -115.5 	 15.9276 	 -114.54
| 39> H 	 -113.59 	 17.299 	 -106.309
| 40> H 	 -118.452 	 11.7543 	 -109.855
| 41> *
| 42>
| 43>                          ****END OF INPUT****

CARTESIAN COORDINATES (ANGSTROEM)
---------------------------------
  S    -114.825000   15.255700  -107.316000
  C    -114.362000   16.910600  -107.058000
  C    -114.893000   17.729800  -108.065000
  C    -115.666000   16.981700  -109.012000
  C    -115.702000   15.655100  -108.818000
  H    -116.201000   17.429600  -109.877000
  C    -114.621000   19.207300  -108.251000
  H    -113.736000   19.276800  -107.519000
  H    -115.467000   19.791500  -107.834000
  C    -114.356000   19.742800  -109.679000
  H    -113.468000   19.287600  -110.068000
  H    -115.145000   19.550000  -110.372000
  C    -114.216000   21.273500  -109.767000
  H    -114.042000   21.540200  -110.771000
  H    -115.126000   21.890200  -109.436000
  H    -113.488000   21.641000  -109.096000
  S    -117.264000   13.392100  -108.553000
  C    -117.928000   12.665700  -109.917000
  C    -117.682000   13.372500  -111.066000
  C    -116.877000   14.585000  -110.902000
  C    -116.537000   14.668200  -109.538000
  H    -117.888000   12.900500  -112.073000
  C    -116.598000   15.509700  -112.050000
  H    -116.876000   16.498800  -111.933000
  H    -117.101000   15.226700  -112.930000
  C    -115.150000   15.465300  -112.430000
  H    -114.775000   14.435200  -112.507000
  H    -114.519000   15.911500  -111.678000
  C    -114.854000   16.265700  -113.718000
  H    -113.921000   15.995000  -114.214000
  H    -114.865000   17.340400  -113.700000
  H    -115.500000   15.927600  -114.540000
  H    -113.590000   17.299000  -106.309000
  H    -118.452000   11.754300  -109.855000

 Total Charge           Charge          ....    0
 Multiplicity           Mult            ....    1
 Number of Electrons    NEL             ....  134
 Basis Dimension        Dim             ....  322

ORBITAL ENERGIES
----------------

  NO   OCC          E(Eh)            E(eV)
   0   2.0000     -88.966400     -2420.8988
   1   2.0000     -88.965518     -2420.8748
   2   2.0000     -10.332910      -281.1728
   3   2.0000     -10.328513      -281.0531
   4   2.0000     -10.321127      -280.8522
   5   2.0000     -10.310491      -280.5627
   6   2.0000     -10.308506      -280.5087
   7   2.0000     -10.302238      -280.3381
   8   2.0000     -10.301430      -280.3162
   9   2.0000     -10.297748      -280.2160
  10   2.0000     -10.290200      -280.0106
  11   2.0000     -10.288808      -279.9727
  12   2.0000     -10.284520      -279.8560
  13   2.0000     -10.282532      -279.8019
  14   2.0000     -10.278607      -279.6951
  15   2.0000     -10.276752      -279.6446
  16   2.0000      -8.082240      -219.9289
  17   2.0000      -8.079833      -219.8634
  18   2.0000      -6.040662      -164.3748
  19   2.0000      -6.038482      -164.3155
  20   2.0000      -6.036573      -164.2635
  21   2.0000      -6.034421      -164.2050
  22   2.0000      -6.033052      -164.1677
  23   2.0000      -6.030442      -164.0967
  24   2.0000      -1.007008       -27.4021
  25   2.0000      -0.985459       -26.8157
  26   2.0000      -0.921486       -25.0749
  27   2.0000      -0.908801       -24.7297
  28   2.0000      -0.868899       -23.6439
  29   2.0000      -0.853468       -23.2240
  30   2.0000      -0.845563       -23.0089
  31   2.0000      -0.814930       -22.1754
  32   2.0000      -0.789316       -21.4784
  33   2.0000      -0.768910       -20.9231
  34   2.0000      -0.712295       -19.3825
  35   2.0000      -0.704756       -19.1774
  36   2.0000      -0.689028       -18.7494
  37   2.0000      -0.660557       -17.9747
  38   2.0000      -0.633782       -17.2461
  39   2.0000      -0.623774       -16.9737
  40   2.0000      -0.606118       -16.4933
  41   2.0000      -0.571935       -15.5631
  42   2.0000      -0.568334       -15.4652
  43   2.0000      -0.560253       -15.2453
  44   2.0000      -0.528704       -14.3868
  45   2.0000      -0.523405       -14.2426
  46   2.0000      -0.520457       -14.1624
  47   2.0000      -0.507634       -13.8134
  48   2.0000      -0.499990       -13.6054
  49   2.0000      -0.499374       -13.5887
  50   2.0000      -0.490329       -13.3425
  51   2.0000      -0.489873       -13.3301
  52   2.0000      -0.469827       -12.7847
  53   2.0000      -0.466811       -12.7026
  54   2.0000      -0.455428       -12.3928
  55   2.0000      -0.448292       -12.1986
  56   2.0000      -0.446045       -12.1375
  57   2.0000      -0.438431       -11.9303
  58   2.0000      -0.433939       -11.8081
  59   2.0000      -0.430616       -11.7177
  60   2.0000      -0.425097       -11.5675
  61   2.0000      -0.416975       -11.3465
  62   2.0000      -0.411980       -11.2106
  63   2.0000      -0.358405        -9.7527
  64   2.0000      -0.330919        -9.0048
  65   2.0000      -0.327080        -8.9003
  66   2.0000      -0.286887        -7.8066
  67   0.0000       0.028155         0.7661
  68   0.0000       0.077770         2.1162
  69   0.0000       0.108324         2.9476
  70   0.0000       0.116493         3.1699
  71   0.0000       0.127811         3.4779

MULLIKEN ATOMIC CHARGES
-----------------------
   0 S :    0.096361
   1 C :   -0.143026
   2 C :   -0.100908
   3 C :   -0.002941
   4 C :   -0.109206
   5 H :    0.017824
   6 C :    0.039760
   7 H :    0.027845
   8 H :    0.045758
   9 C :   -0.055366
  10 H :    0.030857
  11 H :    0.026195
  12 C :   -0.046928
  13 H :    0.028672
  14 H :    0.030627
  15 H :    0.021244
  16 S :    0.117107
  17 C :   -0.076254
  18 C :   -0.049903
  19 C :   -0.043538
  20 C :   -0.160267
  21 H :    0.038386
  22 C :    0.148388
  23 H :    0.010583
  24 H :   -0.007417
  25 C :   -0.092589
  26 H :    0.033411
  27 H :    0.034544
  28 C :   -0.051637
  29 H :    0.023185
  30 H :    0.033928
  31 H :    0.013514
  32 H :    0.077849
  33 H :    0.043942
Sum of atomic charges:   -0.0000000

LOEWDIN ATOMIC CHARGES
----------------------
   0 S :    0.388792
   1 C :   -0.218736
   2 C :   -0.069480
   3 C :   -0.072872
   4 C :   -0.180575
   5 H :    0.035885
   6 C :   -0.040042
   7 H :    0.039138
   8 H :    0.036506
   9 C :   -0.036202
  10 H :    0.024911
  11 H :    0.021367
  12 C :   -0.061251
  13 H :    0.021023
  14 H :    0.032212
  15 H :    0.017227
  16 S :    0.427083
  17 C :   -0.203814
  18 C :   -0.078638
  19 C :   -0.046010
  20 C :   -0.185326
  21 H :    0.038820
  22 C :   -0.024073
  23 H :    0.021546
  24 H :    0.027411
  25 C :   -0.035567
  26 H :    0.029403
  27 H :    0.023059
  28 C :   -0.075231
  29 H :    0.029031
  30 H :    0.021806
  31 H :    0.023237
  32 H :    0.047305
  33 H :    0.022056

  Mayer bond orders larger than 0.100000
B(  0-S ,  1-C ) :   1.1338 B(  0-S ,  4-C ) :   1.1299 B(  1-C ,  2-C ) :   1.6191
B(  1-C , 32-H ) :   0.9511 B(  2-C ,  3-C ) :   1.2370 B(  2-C ,  6-C ) :   1.0183
B(  3-C ,  4-C ) :   1.6033 B(  3-C ,  5-H ) :   0.9823 B(  4-C , 20-C ) :   1.0437
B(  6-C ,  7-H ) :   0.9434 B(  6-C ,  8-H ) :   0.9333 B(  6-C ,  9-C ) :   1.0673
B(  9-C , 10-H ) :   0.9557 B(  9-C , 11-H ) :   0.9500 B(  9-C , 12-C ) :   1.0881
B( 12-C , 13-H ) :   0.9746 B( 12-C , 14-H ) :   0.9730 B( 12-C , 15-H ) :   0.9763
B( 16-S , 17-C ) :   1.1596 B( 16-S , 20-C ) :   1.1536 B( 17-C , 18-C ) :   1.6148
B( 17-C , 33-H ) :   0.9726 B( 18-C , 19-C ) :   1.2449 B( 18-C , 21-H ) :   0.9745
B( 19-C , 20-C ) :   1.5865 B( 19-C , 22-C ) :   1.0490 B( 22-C , 23-H ) :   0.9281
B( 22-C , 24-H ) :   0.9217 B( 22-C , 25-C ) :   1.0597 B( 25-C , 26-H ) :   0.9549
B( 25-C , 27-H ) :   0.9535 B( 25-C , 28-C ) :   1.0821 B( 28-C , 29-H ) :   0.9712
B( 28-C , 30-H ) :   0.9762 B( 28-C , 31-H ) :   0.9697

Dispersion correction           -0.014119675
FINAL SINGLE POINT ENERGY     -1339.870874057762

DIPOLE MOMENT
-------------
                                X             Y             Z
Electronic contribution:     -8.47577     -24.37899      21.01552
Nuclear contribution   :      8.56194      24.81649     -21.60725
                        -----------------------------------------
Total Dipole Moment    :      0.08617       0.43750      -0.59173
                        -----------------------------------------
Magnitude (a.u.)       :      0.74093
Magnitude (Debye)      :      1.88329

Rotational constants in cm-1:     0.017247     0.009487     0.006647
Rotational constants in MHz :   517.063826   284.399064   199.279290

                             ****ORCA TERMINATED NORMALLY****
TOTAL RUN TIME: 0 days 0 hours 0 minutes 20 seconds 702 msec
