                         Program Version 4.2.1 -  RELEASE  -
|  1> ! wB97X-D3 SP def2-SVP
|  2> %pal
|  3> nprocs 24
|  4> end
|  5>
|  6> * xyz 0 1
|  7> S 	 -96.1838 	 5.40705 	 -2.1465
|  8> C 	 -97.0092 	 6.97119 	 -2.39546
|  9> C 	 -96.1873 	 7.84808 	 -3.0595
| 10> C 	 -94.8502 	 7.31683 	 -3.26379
| 11> C 	 -94.6838 	 6.03292 	 -2.87093
| 12> H 	 -94.0658 	 7.72558 	 -3.84882
| 13> C 	 -96.5996 	 9.28248 	 -3.54057
| 14> H 	 -95.8118 	 9.92557 	 -3.67944
| 15> H 	 -97.2659 	 9.71086 	 -2.77144
| 16> C 	 -97.2375 	 9.26365 	 -4.92154
| 17> H 	 -96.6287 	 8.57899 	 -5.54161
| 18> H 	 -98.2603 	 8.85988 	 -4.84168
| 19> C 	 -97.2365 	 10.6703 	 -5.58666
| 20> H 	 -97.9595 	 10.6443 	 -6.37244
| 21> H 	 -97.6309 	 11.46 	 -4.91749
| 22> H 	 -96.2643 	 10.8826 	 -5.94089
| 23> S 	 -93.597 	 3.58926 	 -3.57736
| 24> C 	 -91.9002 	 3.19415 	 -3.19676
| 25> C 	 -91.2425 	 4.37027 	 -2.7182
| 26> C 	 -92.13 	 5.44782 	 -2.56594
| 27> C 	 -93.4748 	 5.21237 	 -2.93767
| 28> H 	 -90.1856 	 4.36142 	 -2.44413
| 29> C 	 -91.6732 	 6.82441 	 -1.96022
| 30> H 	 -90.9774 	 6.59069 	 -1.1427
| 31> H 	 -92.4884 	 7.37709 	 -1.58538
| 32> C 	 -90.9642 	 7.79677 	 -2.90517
| 33> H 	 -91.7763 	 8.01113 	 -3.5615
| 34> H 	 -90.1004 	 7.36167 	 -3.48986
| 35> C 	 -90.3644 	 9.036 	 -2.16433
| 36> H 	 -89.9292 	 8.72181 	 -1.2241
| 37> H 	 -91.0817 	 9.87715 	 -1.94057
| 38> H 	 -89.7815 	 9.45688 	 -2.89569
| 39> H 	 -98.038 	 7.03447 	 -2.28416
| 40> H 	 -91.3928 	 2.30005 	 -3.35381
| 41> *
| 42>
| 43>                          ****END OF INPUT****

CARTESIAN COORDINATES (ANGSTROEM)
---------------------------------
  S    -96.183800    5.407050   -2.146500
  C    -97.009200    6.971190   -2.395460
  C    -96.187300    7.848080   -3.059500
  C    -94.850200    7.316830   -3.263790
  C    -94.683800    6.032920   -2.870930
  H    -94.065800    7.725580   -3.848820
  C    -96.599600    9.282480   -3.540570
  H    -95.811800    9.925570   -3.679440
  H    -97.265900    9.710860   -2.771440
  C    -97.237500    9.263650   -4.921540
  H    -96.628700    8.578990   -5.541610
  H    -98.260300    8.859880   -4.841680
  C    -97.236500   10.670300   -5.586660
  H    -97.959500   10.644300   -6.372440
  H    -97.630900   11.460000   -4.917490
  H    -96.264300   10.882600   -5.940890
  S    -93.597000    3.589260   -3.577360
  C    -91.900200    3.194150   -3.196760
  C    -91.242500    4.370270   -2.718200
  C    -92.130000    5.447820   -2.565940
  C    -93.474800    5.212370   -2.937670
  H    -90.185600    4.361420   -2.444130
  C    -91.673200    6.824410   -1.960220
  H    -90.977400    6.590690   -1.142700
  H    -92.488400    7.377090   -1.585380
  C    -90.964200    7.796770   -2.905170
  H    -91.776300    8.011130   -3.561500
  H    -90.100400    7.361670   -3.489860
  C    -90.364400    9.036000   -2.164330
  H    -89.929200    8.721810   -1.224100
  H    -91.081700    9.877150   -1.940570
  H    -89.781500    9.456880   -2.895690
  H    -98.038000    7.034470   -2.284160
  H    -91.392800    2.300050   -3.353810

 Total Charge           Charge          ....    0
 Multiplicity           Mult            ....    1
 Number of Electrons    NEL             ....  134
 Basis Dimension        Dim             ....  322

ORBITAL ENERGIES
----------------

  NO   OCC          E(Eh)            E(eV)
   0   2.0000     -88.970235     -2421.0032
   1   2.0000     -88.962969     -2420.8055
   2   2.0000     -10.332900      -281.1725
   3   2.0000     -10.331246      -281.1275
   4   2.0000     -10.323796      -280.9248
   5   2.0000     -10.314498      -280.6718
   6   2.0000     -10.309735      -280.5422
   7   2.0000     -10.308585      -280.5109
   8   2.0000     -10.301248      -280.3112
   9   2.0000     -10.293714      -280.1062
  10   2.0000     -10.289828      -280.0005
  11   2.0000     -10.288529      -279.9651
  12   2.0000     -10.287420      -279.9349
  13   2.0000     -10.287324      -279.9323
  14   2.0000     -10.277694      -279.6703
  15   2.0000     -10.277315      -279.6600
  16   2.0000      -8.083996      -219.9767
  17   2.0000      -8.077131      -219.7899
  18   2.0000      -6.042503      -164.4249
  19   2.0000      -6.038433      -164.3141
  20   2.0000      -6.035826      -164.2432
  21   2.0000      -6.035007      -164.2209
  22   2.0000      -6.031765      -164.1327
  23   2.0000      -6.027665      -164.0211
  24   2.0000      -1.002154       -27.2700
  25   2.0000      -0.978600       -26.6291
  26   2.0000      -0.911485       -24.8028
  27   2.0000      -0.905247       -24.6330
  28   2.0000      -0.870376       -23.6841
  29   2.0000      -0.849071       -23.1044
  30   2.0000      -0.841685       -22.9034
  31   2.0000      -0.817121       -22.2350
  32   2.0000      -0.784060       -21.3354
  33   2.0000      -0.774470       -21.0744
  34   2.0000      -0.706352       -19.2208
  35   2.0000      -0.697086       -18.9687
  36   2.0000      -0.691647       -18.8207
  37   2.0000      -0.664839       -18.0912
  38   2.0000      -0.653289       -17.7769
  39   2.0000      -0.618285       -16.8244
  40   2.0000      -0.594363       -16.1734
  41   2.0000      -0.578921       -15.7532
  42   2.0000      -0.569378       -15.4936
  43   2.0000      -0.562309       -15.3012
  44   2.0000      -0.533057       -14.5052
  45   2.0000      -0.523374       -14.2417
  46   2.0000      -0.518318       -14.1042
  47   2.0000      -0.514619       -14.0035
  48   2.0000      -0.508230       -13.8297
  49   2.0000      -0.503889       -13.7115
  50   2.0000      -0.489209       -13.3120
  51   2.0000      -0.480689       -13.0802
  52   2.0000      -0.472844       -12.8667
  53   2.0000      -0.467008       -12.7079
  54   2.0000      -0.462079       -12.5738
  55   2.0000      -0.446839       -12.1591
  56   2.0000      -0.439043       -11.9470
  57   2.0000      -0.433338       -11.7917
  58   2.0000      -0.431793       -11.7497
  59   2.0000      -0.427481       -11.6324
  60   2.0000      -0.420386       -11.4393
  61   2.0000      -0.414235       -11.2719
  62   2.0000      -0.411221       -11.1899
  63   2.0000      -0.348402        -9.4805
  64   2.0000      -0.333648        -9.0790
  65   2.0000      -0.330318        -8.9884
  66   2.0000      -0.294573        -8.0157
  67   0.0000       0.023107         0.6288
  68   0.0000       0.068091         1.8528
  69   0.0000       0.110059         2.9949
  70   0.0000       0.121584         3.3085
  71   0.0000       0.127867         3.4794

MULLIKEN ATOMIC CHARGES
-----------------------
   0 S :    0.087668
   1 C :   -0.099970
   2 C :   -0.084121
   3 C :    0.021511
   4 C :   -0.120774
   5 H :    0.005663
   6 C :    0.110218
   7 H :   -0.008872
   8 H :    0.034559
   9 C :   -0.112345
  10 H :    0.037320
  11 H :    0.029676
  12 C :   -0.025715
  13 H :    0.027058
  14 H :    0.032257
  15 H :    0.034154
  16 S :    0.110101
  17 C :   -0.077307
  18 C :   -0.043914
  19 C :   -0.020655
  20 C :   -0.166333
  21 H :    0.030266
  22 C :    0.064207
  23 H :    0.016864
  24 H :    0.021058
  25 C :   -0.093876
  26 H :    0.010715
  27 H :    0.036634
  28 C :   -0.018986
  29 H :    0.037909
  30 H :    0.031398
  31 H :    0.021253
  32 H :    0.032180
  33 H :    0.040195
Sum of atomic charges:   -0.0000000

LOEWDIN ATOMIC CHARGES
----------------------
   0 S :    0.371414
   1 C :   -0.170918
   2 C :   -0.050374
   3 C :   -0.065899
   4 C :   -0.176232
   5 H :    0.026275
   6 C :   -0.024478
   7 H :    0.015040
   8 H :    0.033575
   9 C :   -0.038984
  10 H :    0.027407
  11 H :    0.021511
  12 C :   -0.060746
  13 H :    0.024973
  14 H :    0.028834
  15 H :    0.020066
  16 S :    0.408414
  17 C :   -0.168176
  18 C :   -0.068264
  19 C :   -0.052775
  20 C :   -0.207474
  21 H :    0.036632
  22 C :   -0.026773
  23 H :    0.024341
  24 H :    0.023714
  25 C :   -0.039832
  26 H :    0.014773
  27 H :    0.027279
  28 C :   -0.060518
  29 H :    0.026039
  30 H :    0.031388
  31 H :    0.017067
  32 H :    0.014885
  33 H :    0.017815

  Mayer bond orders larger than 0.100000
B(  0-S ,  1-C ) :   1.1192 B(  0-S ,  4-C ) :   1.1308 B(  1-C ,  2-C ) :   1.6461
B(  1-C , 32-H ) :   0.9783 B(  2-C ,  3-C ) :   1.1969 B(  2-C ,  6-C ) :   1.0200
B(  3-C ,  4-C ) :   1.6167 B(  3-C ,  5-H ) :   0.9980 B(  4-C , 20-C ) :   1.0398
B(  6-C ,  7-H ) :   0.9418 B(  6-C ,  8-H ) :   0.9414 B(  6-C ,  9-C ) :   1.0575
B(  9-C , 10-H ) :   0.9590 B(  9-C , 11-H ) :   0.9584 B(  9-C , 12-C ) :   1.0809
B( 12-C , 13-H ) :   0.9743 B( 12-C , 14-H ) :   0.9739 B( 12-C , 15-H ) :   0.9755
B( 16-S , 17-C ) :   1.1698 B( 16-S , 20-C ) :   1.1497 B( 17-C , 18-C ) :   1.5522
B( 17-C , 20-C ) :   0.1167 B( 17-C , 33-H ) :   0.9780 B( 18-C , 19-C ) :   1.2983
B( 18-C , 21-H ) :   0.9864 B( 19-C , 20-C ) :   1.5418 B( 19-C , 22-C ) :   1.0370
B( 22-C , 23-H ) :   0.9373 B( 22-C , 24-H ) :   0.9393 B( 22-C , 25-C ) :   1.0602
B( 25-C , 26-H ) :   0.9530 B( 25-C , 27-H ) :   0.9616 B( 25-C , 28-C ) :   1.0686
B( 28-C , 29-H ) :   0.9766 B( 28-C , 30-H ) :   0.9733 B( 28-C , 31-H ) :   0.9761

Dispersion correction           -0.013757111
FINAL SINGLE POINT ENERGY     -1339.863291507799

DIPOLE MOMENT
-------------
                                X             Y             Z
Electronic contribution:     -5.33848     -29.21295       5.52614
Nuclear contribution   :      5.58347      29.81846      -5.73902
                        -----------------------------------------
Total Dipole Moment    :      0.24500       0.60552      -0.21288
                        -----------------------------------------
Magnitude (a.u.)       :      0.68702
Magnitude (Debye)      :      1.74626

Rotational constants in cm-1:     0.016813     0.008497     0.006388
Rotational constants in MHz :   504.047033   254.744527   191.508104

                             ****ORCA TERMINATED NORMALLY****
TOTAL RUN TIME: 0 days 0 hours 0 minutes 21 seconds 66 msec
