                         Program Version 4.2.1 -  RELEASE  -
|  1> ! wB97X-D3 SP def2-SVP
|  2> %pal
|  3> nprocs 24
|  4> end
|  5>
|  6> * xyz 0 1
|  7> S 	 -52.9025 	 10.7682 	 20.0183
|  8> C 	 -53.0531 	 9.13295 	 19.4008
|  9> C 	 -53.2839 	 8.24779 	 20.4522
| 10> C 	 -53.4042 	 8.90727 	 21.6872
| 11> C 	 -53.5101 	 10.2649 	 21.5341
| 12> H 	 -53.4947 	 8.50112 	 22.6787
| 13> C 	 -53.3239 	 6.7687 	 20.3165
| 14> H 	 -52.809 	 6.36835 	 19.4387
| 15> H 	 -54.3552 	 6.60688 	 20.023
| 16> C 	 -53.0127 	 5.83547 	 21.5308
| 17> H 	 -51.9791 	 5.85479 	 22.0032
| 18> H 	 -53.8135 	 5.99086 	 22.1781
| 19> C 	 -53.2005 	 4.3588 	 21.1851
| 20> H 	 -53.1405 	 3.70814 	 22.0269
| 21> H 	 -54.2788 	 4.24205 	 20.9822
| 22> H 	 -52.5275 	 3.86082 	 20.4943
| 23> S 	 -55.2363 	 11.9837 	 22.7791
| 24> C 	 -54.6928 	 12.7592 	 24.2734
| 25> C 	 -53.4311 	 12.344 	 24.5768
| 26> C 	 -52.8242 	 11.4641 	 23.6546
| 27> C 	 -53.6592 	 11.2053 	 22.5948
| 28> H 	 -52.9969 	 12.6149 	 25.5469
| 29> C 	 -51.4826 	 10.7228 	 23.7875
| 30> H 	 -51.6938 	 9.66664 	 23.8538
| 31> H 	 -50.9418 	 11.015 	 24.6739
| 32> C 	 -50.4714 	 10.9784 	 22.63
| 33> H 	 -50.2471 	 12.0147 	 22.4953
| 34> H 	 -50.8204 	 10.6125 	 21.6457
| 35> C 	 -49.1006 	 10.3917 	 22.9026
| 36> H 	 -49.0908 	 9.31303 	 22.8815
| 37> H 	 -48.8673 	 10.6966 	 23.9049
| 38> H 	 -48.3843 	 10.7398 	 22.1706
| 39> H 	 -52.7435 	 8.65324 	 18.4649
| 40> H 	 -55.2005 	 13.3652 	 24.97
| 41> *
| 42>
| 43>                          ****END OF INPUT****

CARTESIAN COORDINATES (ANGSTROEM)
---------------------------------
  S    -52.902500   10.768200   20.018300
  C    -53.053100    9.132950   19.400800
  C    -53.283900    8.247790   20.452200
  C    -53.404200    8.907270   21.687200
  C    -53.510100   10.264900   21.534100
  H    -53.494700    8.501120   22.678700
  C    -53.323900    6.768700   20.316500
  H    -52.809000    6.368350   19.438700
  H    -54.355200    6.606880   20.023000
  C    -53.012700    5.835470   21.530800
  H    -51.979100    5.854790   22.003200
  H    -53.813500    5.990860   22.178100
  C    -53.200500    4.358800   21.185100
  H    -53.140500    3.708140   22.026900
  H    -54.278800    4.242050   20.982200
  H    -52.527500    3.860820   20.494300
  S    -55.236300   11.983700   22.779100
  C    -54.692800   12.759200   24.273400
  C    -53.431100   12.344000   24.576800
  C    -52.824200   11.464100   23.654600
  C    -53.659200   11.205300   22.594800
  H    -52.996900   12.614900   25.546900
  C    -51.482600   10.722800   23.787500
  H    -51.693800    9.666640   23.853800
  H    -50.941800   11.015000   24.673900
  C    -50.471400   10.978400   22.630000
  H    -50.247100   12.014700   22.495300
  H    -50.820400   10.612500   21.645700
  C    -49.100600   10.391700   22.902600
  H    -49.090800    9.313030   22.881500
  H    -48.867300   10.696600   23.904900
  H    -48.384300   10.739800   22.170600
  H    -52.743500    8.653240   18.464900
  H    -55.200500   13.365200   24.970000

 Total Charge           Charge          ....    0
 Multiplicity           Mult            ....    1
 Number of Electrons    NEL             ....  134
 Basis Dimension        Dim             ....  322

ORBITAL ENERGIES
----------------

  NO   OCC          E(Eh)            E(eV)
   0   2.0000     -88.968164     -2420.9468
   1   2.0000     -88.964384     -2420.8440
   2   2.0000     -10.318007      -280.7672
   3   2.0000     -10.317711      -280.7592
   4   2.0000     -10.312693      -280.6226
   5   2.0000     -10.311458      -280.5890
   6   2.0000     -10.300196      -280.2826
   7   2.0000     -10.299197      -280.2554
   8   2.0000     -10.293842      -280.1097
   9   2.0000     -10.293072      -280.0887
  10   2.0000     -10.292808      -280.0815
  11   2.0000     -10.290330      -280.0141
  12   2.0000     -10.289506      -279.9917
  13   2.0000     -10.277702      -279.6705
  14   2.0000     -10.276181      -279.6291
  15   2.0000     -10.268097      -279.4091
  16   2.0000      -8.082628      -219.9395
  17   2.0000      -8.078497      -219.8271
  18   2.0000      -6.041108      -164.3869
  19   2.0000      -6.037253      -164.2820
  20   2.0000      -6.037076      -164.2772
  21   2.0000      -6.033312      -164.1748
  22   2.0000      -6.033082      -164.1685
  23   2.0000      -6.029212      -164.0632
  24   2.0000      -1.013943       -27.5908
  25   2.0000      -0.986208       -26.8361
  26   2.0000      -0.916680       -24.9441
  27   2.0000      -0.905415       -24.6376
  28   2.0000      -0.875277       -23.8175
  29   2.0000      -0.854807       -23.2605
  30   2.0000      -0.849112       -23.1055
  31   2.0000      -0.817669       -22.2499
  32   2.0000      -0.785091       -21.3634
  33   2.0000      -0.770960       -20.9789
  34   2.0000      -0.715927       -19.4814
  35   2.0000      -0.695547       -18.9268
  36   2.0000      -0.690561       -18.7911
  37   2.0000      -0.659106       -17.9352
  38   2.0000      -0.641656       -17.4603
  39   2.0000      -0.621523       -16.9125
  40   2.0000      -0.594855       -16.1868
  41   2.0000      -0.580832       -15.8052
  42   2.0000      -0.569103       -15.4861
  43   2.0000      -0.567829       -15.4514
  44   2.0000      -0.527613       -14.3571
  45   2.0000      -0.522643       -14.2218
  46   2.0000      -0.515173       -14.0186
  47   2.0000      -0.508269       -13.8307
  48   2.0000      -0.505150       -13.7458
  49   2.0000      -0.495916       -13.4946
  50   2.0000      -0.494547       -13.4573
  51   2.0000      -0.479435       -13.0461
  52   2.0000      -0.474676       -12.9166
  53   2.0000      -0.469465       -12.7748
  54   2.0000      -0.460347       -12.5267
  55   2.0000      -0.455648       -12.3988
  56   2.0000      -0.439408       -11.9569
  57   2.0000      -0.437877       -11.9152
  58   2.0000      -0.431928       -11.7534
  59   2.0000      -0.425243       -11.5714
  60   2.0000      -0.419906       -11.4262
  61   2.0000      -0.415256       -11.2997
  62   2.0000      -0.412911       -11.2359
  63   2.0000      -0.336390        -9.1536
  64   2.0000      -0.327916        -8.9231
  65   2.0000      -0.320717        -8.7271
  66   2.0000      -0.304682        -8.2908
  67   0.0000       0.037186         1.0119
  68   0.0000       0.054991         1.4964
  69   0.0000       0.109000         2.9660
  70   0.0000       0.117780         3.2050
  71   0.0000       0.137495         3.7414

MULLIKEN ATOMIC CHARGES
-----------------------
   0 S :    0.123874
   1 C :   -0.104154
   2 C :   -0.063381
   3 C :    0.020528
   4 C :   -0.160336
   5 H :    0.016254
   6 C :    0.041265
   7 H :    0.014700
   8 H :    0.033282
   9 C :   -0.054374
  10 H :    0.053970
  11 H :    0.022983
  12 C :   -0.059535
  13 H :    0.015388
  14 H :    0.020587
  15 H :    0.038275
  16 S :    0.113263
  17 C :   -0.058272
  18 C :   -0.062834
  19 C :    0.007632
  20 C :   -0.208129
  21 H :    0.017118
  22 C :    0.113442
  23 H :    0.026652
  24 H :    0.001414
  25 C :   -0.094974
  26 H :    0.021924
  27 H :    0.041461
  28 C :   -0.022436
  29 H :    0.019941
  30 H :    0.011008
  31 H :    0.035642
  32 H :    0.042988
  33 H :    0.034835
Sum of atomic charges:    0.0000000

LOEWDIN ATOMIC CHARGES
----------------------
   0 S :    0.445028
   1 C :   -0.212594
   2 C :   -0.060470
   3 C :   -0.056102
   4 C :   -0.210024
   5 H :    0.030886
   6 C :   -0.038663
   7 H :    0.027543
   8 H :    0.040626
   9 C :   -0.038337
  10 H :    0.035004
  11 H :    0.019689
  12 C :   -0.070197
  13 H :    0.023342
  14 H :    0.027637
  15 H :    0.023314
  16 S :    0.395878
  17 C :   -0.176311
  18 C :   -0.073954
  19 C :   -0.053507
  20 C :   -0.200804
  21 H :    0.032518
  22 C :   -0.022029
  23 H :    0.029996
  24 H :    0.024527
  25 C :   -0.042415
  26 H :    0.021200
  27 H :    0.014600
  28 C :   -0.058226
  29 H :    0.018672
  30 H :    0.017505
  31 H :    0.027395
  32 H :    0.033364
  33 H :    0.024907

  Mayer bond orders larger than 0.100000
B(  0-S ,  1-C ) :   1.1310 B(  0-S ,  4-C ) :   1.1839 B(  1-C ,  2-C ) :   1.5928
B(  1-C ,  4-C ) :   0.1031 B(  1-C , 32-H ) :   0.9663 B(  2-C ,  3-C ) :   1.2564
B(  2-C ,  6-C ) :   1.0152 B(  3-C ,  4-C ) :   1.5515 B(  3-C ,  5-H ) :   1.0010
B(  4-C , 20-C ) :   1.0179 B(  6-C ,  7-H ) :   0.9427 B(  6-C ,  8-H ) :   0.9268
B(  6-C ,  9-C ) :   1.0706 B(  9-C , 10-H ) :   0.9606 B(  9-C , 11-H ) :   0.9427
B(  9-C , 12-C ) :   1.0911 B( 12-C , 13-H ) :   0.9694 B( 12-C , 14-H ) :   0.9736
B( 12-C , 15-H ) :   0.9755 B( 16-S , 17-C ) :   1.1377 B( 16-S , 20-C ) :   1.1417
B( 17-C , 18-C ) :   1.6328 B( 17-C , 20-C ) :   0.1018 B( 17-C , 33-H ) :   0.9688
B( 18-C , 19-C ) :   1.2487 B( 18-C , 21-H ) :   0.9821 B( 19-C , 20-C ) :   1.6024
B( 19-C , 22-C ) :   1.0388 B( 22-C , 23-H ) :   0.9312 B( 22-C , 24-H ) :   0.9286
B( 22-C , 25-C ) :   1.0644 B( 25-C , 26-H ) :   0.9565 B( 25-C , 27-H ) :   0.9478
B( 25-C , 28-C ) :   1.0942 B( 28-C , 29-H ) :   0.9747 B( 28-C , 30-H ) :   0.9722
B( 28-C , 31-H ) :   0.9741

Dispersion correction           -0.014808215
FINAL SINGLE POINT ENERGY     -1339.855633998608

DIPOLE MOMENT
-------------
                                X             Y             Z
Electronic contribution:    -15.92766      22.77990      -4.05931
Nuclear contribution   :     16.26736     -23.45028       4.44490
                        -----------------------------------------
Total Dipole Moment    :      0.33970      -0.67039       0.38560
                        -----------------------------------------
Magnitude (a.u.)       :      0.84469
Magnitude (Debye)      :      2.14703

Rotational constants in cm-1:     0.017959     0.008707     0.007781
Rotational constants in MHz :   538.383755   261.023540   233.267848

                             ****ORCA TERMINATED NORMALLY****
TOTAL RUN TIME: 0 days 0 hours 0 minutes 22 seconds 402 msec
