                         Program Version 4.2.1 -  RELEASE  -
|  1> ! wB97X-D3 SP def2-SVP
|  2> %pal
|  3> nprocs 24
|  4> end
|  5>
|  6> * xyz 0 1
|  7> S 	 -95.7696 	 45.125 	 -90.6935
|  8> C 	 -95.2131 	 44.226 	 -89.3384
|  9> C 	 -95.6065 	 42.8982 	 -89.2767
| 10> C 	 -96.4185 	 42.587 	 -90.427
| 11> C 	 -96.6284 	 43.6722 	 -91.251
| 12> H 	 -97.0047 	 41.6874 	 -90.5851
| 13> C 	 -95.3524 	 41.7868 	 -88.3477
| 14> H 	 -94.9057 	 40.8627 	 -88.8566
| 15> H 	 -96.2519 	 41.3932 	 -87.8644
| 16> C 	 -94.4004 	 42.1333 	 -87.2164
| 17> H 	 -93.4395 	 42.5154 	 -87.6945
| 18> H 	 -94.7707 	 42.872 	 -86.4672
| 19> C 	 -94.0346 	 40.9234 	 -86.3062
| 20> H 	 -93.4172 	 41.2585 	 -85.4872
| 21> H 	 -94.931 	 40.4524 	 -85.8614
| 22> H 	 -93.4735 	 40.0739 	 -86.9054
| 23> S 	 -98.5441 	 45.21 	 -92.4242
| 24> C 	 -99.1869 	 44.6697 	 -93.8882
| 25> C 	 -98.7088 	 43.463 	 -94.3157
| 26> C 	 -97.7636 	 42.9424 	 -93.4356
| 27> C 	 -97.4371 	 43.8409 	 -92.4257
| 28> H 	 -98.9955 	 43.073 	 -95.3405
| 29> C 	 -97.0175 	 41.5958 	 -93.629
| 30> H 	 -95.9467 	 41.7412 	 -93.3011
| 31> H 	 -96.9199 	 41.4375 	 -94.6882
| 32> C 	 -97.7489 	 40.2702 	 -93.2492
| 33> H 	 -98.0967 	 40.3717 	 -92.2303
| 34> H 	 -97.1406 	 39.3674 	 -93.3117
| 35> C 	 -98.8909 	 39.9521 	 -94.231
| 36> H 	 -99.6675 	 39.181 	 -93.7663
| 37> H 	 -98.6564 	 39.6427 	 -95.2677
| 38> H 	 -99.443 	 40.8597 	 -94.3648
| 39> H 	 -94.527 	 44.5929 	 -88.6296
| 40> H 	 -99.8602 	 45.2403 	 -94.5647
| 41> *
| 42>
| 43>                          ****END OF INPUT****

CARTESIAN COORDINATES (ANGSTROEM)
---------------------------------
  S    -95.769600   45.125000  -90.693500
  C    -95.213100   44.226000  -89.338400
  C    -95.606500   42.898200  -89.276700
  C    -96.418500   42.587000  -90.427000
  C    -96.628400   43.672200  -91.251000
  H    -97.004700   41.687400  -90.585100
  C    -95.352400   41.786800  -88.347700
  H    -94.905700   40.862700  -88.856600
  H    -96.251900   41.393200  -87.864400
  C    -94.400400   42.133300  -87.216400
  H    -93.439500   42.515400  -87.694500
  H    -94.770700   42.872000  -86.467200
  C    -94.034600   40.923400  -86.306200
  H    -93.417200   41.258500  -85.487200
  H    -94.931000   40.452400  -85.861400
  H    -93.473500   40.073900  -86.905400
  S    -98.544100   45.210000  -92.424200
  C    -99.186900   44.669700  -93.888200
  C    -98.708800   43.463000  -94.315700
  C    -97.763600   42.942400  -93.435600
  C    -97.437100   43.840900  -92.425700
  H    -98.995500   43.073000  -95.340500
  C    -97.017500   41.595800  -93.629000
  H    -95.946700   41.741200  -93.301100
  H    -96.919900   41.437500  -94.688200
  C    -97.748900   40.270200  -93.249200
  H    -98.096700   40.371700  -92.230300
  H    -97.140600   39.367400  -93.311700
  C    -98.890900   39.952100  -94.231000
  H    -99.667500   39.181000  -93.766300
  H    -98.656400   39.642700  -95.267700
  H    -99.443000   40.859700  -94.364800
  H    -94.527000   44.592900  -88.629600
  H    -99.860200   45.240300  -94.564700

 Total Charge           Charge          ....    0
 Multiplicity           Mult            ....    1
 Number of Electrons    NEL             ....  134
 Basis Dimension        Dim             ....  322

ORBITAL ENERGIES
----------------

  NO   OCC          E(Eh)            E(eV)
   0   2.0000     -88.968108     -2420.9453
   1   2.0000     -88.966902     -2420.9125
   2   2.0000     -10.326468      -280.9975
   3   2.0000     -10.321993      -280.8757
   4   2.0000     -10.312918      -280.6288
   5   2.0000     -10.309987      -280.5490
   6   2.0000     -10.303332      -280.3679
   7   2.0000     -10.300676      -280.2956
   8   2.0000     -10.297680      -280.2141
   9   2.0000     -10.296025      -280.1691
  10   2.0000     -10.294250      -280.1208
  11   2.0000     -10.293503      -280.1005
  12   2.0000     -10.292495      -280.0730
  13   2.0000     -10.291422      -280.0438
  14   2.0000     -10.289317      -279.9866
  15   2.0000     -10.286142      -279.9001
  16   2.0000      -8.083855      -219.9729
  17   2.0000      -8.081913      -219.9200
  18   2.0000      -6.042148      -164.4152
  19   2.0000      -6.040326      -164.3656
  20   2.0000      -6.038238      -164.3088
  21   2.0000      -6.036571      -164.2635
  22   2.0000      -6.034750      -164.2139
  23   2.0000      -6.032576      -164.1548
  24   2.0000      -1.013962       -27.5913
  25   2.0000      -0.988880       -26.9088
  26   2.0000      -0.915207       -24.9041
  27   2.0000      -0.906678       -24.6720
  28   2.0000      -0.869730       -23.6666
  29   2.0000      -0.856033       -23.2939
  30   2.0000      -0.849324       -23.1113
  31   2.0000      -0.810128       -22.0447
  32   2.0000      -0.781780       -21.2733
  33   2.0000      -0.768694       -20.9172
  34   2.0000      -0.710391       -19.3307
  35   2.0000      -0.699301       -19.0289
  36   2.0000      -0.686794       -18.6886
  37   2.0000      -0.662631       -18.0311
  38   2.0000      -0.638340       -17.3701
  39   2.0000      -0.614893       -16.7321
  40   2.0000      -0.595114       -16.1939
  41   2.0000      -0.571229       -15.5439
  42   2.0000      -0.566897       -15.4261
  43   2.0000      -0.551539       -15.0082
  44   2.0000      -0.541337       -14.7305
  45   2.0000      -0.519006       -14.1229
  46   2.0000      -0.518806       -14.1174
  47   2.0000      -0.506975       -13.7955
  48   2.0000      -0.500776       -13.6268
  49   2.0000      -0.491512       -13.3747
  50   2.0000      -0.489158       -13.3107
  51   2.0000      -0.481796       -13.1103
  52   2.0000      -0.474282       -12.9059
  53   2.0000      -0.465173       -12.6580
  54   2.0000      -0.455272       -12.3886
  55   2.0000      -0.448751       -12.2111
  56   2.0000      -0.445551       -12.1241
  57   2.0000      -0.431563       -11.7434
  58   2.0000      -0.431440       -11.7401
  59   2.0000      -0.425833       -11.5875
  60   2.0000      -0.423441       -11.5224
  61   2.0000      -0.417083       -11.3494
  62   2.0000      -0.413172       -11.2430
  63   2.0000      -0.353467        -9.6183
  64   2.0000      -0.337010        -9.1705
  65   2.0000      -0.329646        -8.9701
  66   2.0000      -0.286244        -7.7891
  67   0.0000       0.027940         0.7603
  68   0.0000       0.073109         1.9894
  69   0.0000       0.108261         2.9459
  70   0.0000       0.119624         3.2551
  71   0.0000       0.130969         3.5638

MULLIKEN ATOMIC CHARGES
-----------------------
   0 S :    0.110069
   1 C :   -0.091153
   2 C :   -0.059298
   3 C :    0.015156
   4 C :   -0.153004
   5 H :    0.010391
   6 C :    0.043045
   7 H :    0.046259
   8 H :    0.034748
   9 C :   -0.138429
  10 H :    0.041625
  11 H :    0.044984
  12 C :   -0.074135
  13 H :    0.038752
  14 H :    0.033066
  15 H :    0.042636
  16 S :    0.124410
  17 C :   -0.091596
  18 C :   -0.063624
  19 C :   -0.030198
  20 C :   -0.139830
  21 H :    0.042337
  22 C :    0.018644
  23 H :    0.053831
  24 H :    0.010524
  25 C :   -0.020728
  26 H :    0.029992
  27 H :    0.037406
  28 C :   -0.113418
  29 H :    0.050152
  30 H :    0.040854
  31 H :    0.020436
  32 H :    0.025112
  33 H :    0.060983
Sum of atomic charges:   -0.0000000

LOEWDIN ATOMIC CHARGES
----------------------
   0 S :    0.403321
   1 C :   -0.197549
   2 C :   -0.062855
   3 C :   -0.055076
   4 C :   -0.180356
   5 H :    0.032552
   6 C :   -0.043329
   7 H :    0.044953
   8 H :    0.035124
   9 C :   -0.053925
  10 H :    0.028910
  11 H :    0.028685
  12 C :   -0.074303
  13 H :    0.023979
  14 H :    0.023683
  15 H :    0.032218
  16 S :    0.431592
  17 C :   -0.209022
  18 C :   -0.086188
  19 C :   -0.056975
  20 C :   -0.203500
  21 H :    0.043589
  22 C :   -0.038694
  23 H :    0.041489
  24 H :    0.026098
  25 C :   -0.037681
  26 H :    0.018595
  27 H :    0.028270
  28 C :   -0.080171
  29 H :    0.041146
  30 H :    0.026313
  31 H :    0.016786
  32 H :    0.016006
  33 H :    0.036315

  Mayer bond orders larger than 0.100000
B(  0-S ,  1-C ) :   1.1287 B(  0-S ,  4-C ) :   1.1332 B(  1-C ,  2-C ) :   1.6454
B(  1-C , 32-H ) :   0.9623 B(  2-C ,  3-C ) :   1.2097 B(  2-C ,  6-C ) :   1.0281
B(  3-C ,  4-C ) :   1.6110 B(  3-C ,  5-H ) :   0.9910 B(  4-C , 20-C ) :   1.0360
B(  6-C ,  7-H ) :   0.9386 B(  6-C ,  8-H ) :   0.9277 B(  6-C ,  9-C ) :   1.0734
B(  9-C , 10-H ) :   0.9523 B(  9-C , 11-H ) :   0.9517 B(  9-C , 12-C ) :   1.0857
B( 12-C , 13-H ) :   0.9745 B( 12-C , 14-H ) :   0.9726 B( 12-C , 15-H ) :   0.9731
B( 16-S , 17-C ) :   1.1731 B( 16-S , 20-C ) :   1.1442 B( 17-C , 18-C ) :   1.6045
B( 17-C , 20-C ) :   0.1031 B( 17-C , 33-H ) :   0.9552 B( 18-C , 19-C ) :   1.2621
B( 18-C , 21-H ) :   0.9743 B( 19-C , 20-C ) :   1.5935 B( 19-C , 22-C ) :   1.0298
B( 22-C , 23-H ) :   0.9430 B( 22-C , 24-H ) :   0.9399 B( 22-C , 25-C ) :   1.0477
B( 25-C , 26-H ) :   0.9559 B( 25-C , 27-H ) :   0.9576 B( 25-C , 28-C ) :   1.0667
B( 28-C , 29-H ) :   0.9712 B( 28-C , 30-H ) :   0.9737 B( 28-C , 31-H ) :   0.9762

Dispersion correction           -0.014003454
FINAL SINGLE POINT ENERGY     -1339.870679452759

DIPOLE MOMENT
-------------
                                X             Y             Z
Electronic contribution:     -5.23676      27.07481      -7.56616
Nuclear contribution   :      5.22942     -27.61372       7.58359
                        -----------------------------------------
Total Dipole Moment    :     -0.00735      -0.53891       0.01742
                        -----------------------------------------
Magnitude (a.u.)       :      0.53924
Magnitude (Debye)      :      1.37064

Rotational constants in cm-1:     0.020514     0.007953     0.006034
Rotational constants in MHz :   615.004438   238.439836   180.895097

                             ****ORCA TERMINATED NORMALLY****
TOTAL RUN TIME: 0 days 0 hours 0 minutes 21 seconds 248 msec
