                         Program Version 4.2.1 -  RELEASE  -
|  1> ! wB97X-D3 SP def2-SVP
|  2> %pal
|  3> nprocs 24
|  4> end
|  5>
|  6> * xyz 0 1
|  7> S 	 -101.261 	 21.8049 	 -123.645
|  8> C 	 -101.864 	 23.1124 	 -122.694
|  9> C 	 -102.161 	 22.6615 	 -121.432
| 10> C 	 -102.068 	 21.2448 	 -121.325
| 11> C 	 -101.575 	 20.5832 	 -122.419
| 12> H 	 -102.306 	 20.6604 	 -120.36
| 13> C 	 -102.959 	 23.4779 	 -120.447
| 14> H 	 -102.955 	 23.0531 	 -119.395
| 15> H 	 -103.989 	 23.5136 	 -120.796
| 16> C 	 -102.462 	 24.9716 	 -120.328
| 17> H 	 -101.688 	 24.8764 	 -119.643
| 18> H 	 -102.051 	 25.3751 	 -121.203
| 19> C 	 -103.562 	 25.8572 	 -119.616
| 20> H 	 -103.881 	 25.474 	 -118.66
| 21> H 	 -103.172 	 26.8065 	 -119.459
| 22> H 	 -104.401 	 26.0185 	 -120.26
| 23> S 	 -99.8266 	 18.5822 	 -121.615
| 24> C 	 -99.8035 	 17.0403 	 -122.503
| 25> C 	 -100.89 	 17.057 	 -123.31
| 26> C 	 -101.733 	 18.1786 	 -123.394
| 27> C 	 -101.201 	 19.1875 	 -122.589
| 28> H 	 -101.033 	 16.1697 	 -123.922
| 29> C 	 -102.786 	 18.3595 	 -124.396
| 30> H 	 -102.272 	 18.3648 	 -125.337
| 31> H 	 -103.197 	 19.3768 	 -124.229
| 32> C 	 -103.954 	 17.3643 	 -124.466
| 33> H 	 -104.347 	 17.1616 	 -123.448
| 34> H 	 -103.721 	 16.4697 	 -124.881
| 35> C 	 -105.124 	 18.0678 	 -125.239
| 36> H 	 -104.786 	 18.4183 	 -126.224
| 37> H 	 -105.469 	 18.9391 	 -124.72
| 38> H 	 -106.007 	 17.4917 	 -125.404
| 39> H 	 -102.001 	 24.0992 	 -123.067
| 40> H 	 -99.246 	 16.105 	 -122.38
| 41> *
| 42>
| 43>                          ****END OF INPUT****

CARTESIAN COORDINATES (ANGSTROEM)
---------------------------------
  S    -101.261000   21.804900  -123.645000
  C    -101.864000   23.112400  -122.694000
  C    -102.161000   22.661500  -121.432000
  C    -102.068000   21.244800  -121.325000
  C    -101.575000   20.583200  -122.419000
  H    -102.306000   20.660400  -120.360000
  C    -102.959000   23.477900  -120.447000
  H    -102.955000   23.053100  -119.395000
  H    -103.989000   23.513600  -120.796000
  C    -102.462000   24.971600  -120.328000
  H    -101.688000   24.876400  -119.643000
  H    -102.051000   25.375100  -121.203000
  C    -103.562000   25.857200  -119.616000
  H    -103.881000   25.474000  -118.660000
  H    -103.172000   26.806500  -119.459000
  H    -104.401000   26.018500  -120.260000
  S    -99.826600   18.582200  -121.615000
  C    -99.803500   17.040300  -122.503000
  C    -100.890000   17.057000  -123.310000
  C    -101.733000   18.178600  -123.394000
  C    -101.201000   19.187500  -122.589000
  H    -101.033000   16.169700  -123.922000
  C    -102.786000   18.359500  -124.396000
  H    -102.272000   18.364800  -125.337000
  H    -103.197000   19.376800  -124.229000
  C    -103.954000   17.364300  -124.466000
  H    -104.347000   17.161600  -123.448000
  H    -103.721000   16.469700  -124.881000
  C    -105.124000   18.067800  -125.239000
  H    -104.786000   18.418300  -126.224000
  H    -105.469000   18.939100  -124.720000
  H    -106.007000   17.491700  -125.404000
  H    -102.001000   24.099200  -123.067000
  H    -99.246000   16.105000  -122.380000

 Total Charge           Charge          ....    0
 Multiplicity           Mult            ....    1
 Number of Electrons    NEL             ....  134
 Basis Dimension        Dim             ....  322

ORBITAL ENERGIES
----------------

  NO   OCC          E(Eh)            E(eV)
   0   2.0000     -88.963753     -2420.8268
   1   2.0000     -88.962788     -2420.8005
   2   2.0000     -10.329699      -281.0854
   3   2.0000     -10.327930      -281.0373
   4   2.0000     -10.317859      -280.7632
   5   2.0000     -10.311902      -280.6011
   6   2.0000     -10.300368      -280.2873
   7   2.0000     -10.298034      -280.2238
   8   2.0000     -10.297353      -280.2052
   9   2.0000     -10.295029      -280.1420
  10   2.0000     -10.287795      -279.9451
  11   2.0000     -10.285996      -279.8962
  12   2.0000     -10.284702      -279.8610
  13   2.0000     -10.280710      -279.7524
  14   2.0000     -10.274721      -279.5894
  15   2.0000     -10.272796      -279.5370
  16   2.0000      -8.077804      -219.8082
  17   2.0000      -8.077345      -219.7957
  18   2.0000      -6.036324      -164.2567
  19   2.0000      -6.036057      -164.2495
  20   2.0000      -6.032077      -164.1412
  21   2.0000      -6.032006      -164.1392
  22   2.0000      -6.028700      -164.0493
  23   2.0000      -6.027922      -164.0281
  24   2.0000      -1.007459       -27.4144
  25   2.0000      -0.986882       -26.8544
  26   2.0000      -0.911823       -24.8120
  27   2.0000      -0.906981       -24.6802
  28   2.0000      -0.870399       -23.6848
  29   2.0000      -0.850648       -23.1473
  30   2.0000      -0.845900       -23.0181
  31   2.0000      -0.815625       -22.1943
  32   2.0000      -0.780326       -21.2337
  33   2.0000      -0.769586       -20.9415
  34   2.0000      -0.714788       -19.4504
  35   2.0000      -0.710886       -19.3442
  36   2.0000      -0.703540       -19.1443
  37   2.0000      -0.655691       -17.8423
  38   2.0000      -0.639396       -17.3989
  39   2.0000      -0.611418       -16.6375
  40   2.0000      -0.595707       -16.2100
  41   2.0000      -0.578474       -15.7411
  42   2.0000      -0.572575       -15.5806
  43   2.0000      -0.558784       -15.2053
  44   2.0000      -0.528837       -14.3904
  45   2.0000      -0.519606       -14.1392
  46   2.0000      -0.514387       -13.9972
  47   2.0000      -0.512892       -13.9565
  48   2.0000      -0.507906       -13.8208
  49   2.0000      -0.502288       -13.6680
  50   2.0000      -0.492465       -13.4007
  51   2.0000      -0.478559       -13.0222
  52   2.0000      -0.470562       -12.8046
  53   2.0000      -0.467769       -12.7286
  54   2.0000      -0.457890       -12.4598
  55   2.0000      -0.451092       -12.2748
  56   2.0000      -0.443185       -12.0597
  57   2.0000      -0.436618       -11.8810
  58   2.0000      -0.428229       -11.6527
  59   2.0000      -0.426640       -11.6095
  60   2.0000      -0.423640       -11.5278
  61   2.0000      -0.417148       -11.3512
  62   2.0000      -0.414618       -11.2823
  63   2.0000      -0.335749        -9.1362
  64   2.0000      -0.332077        -9.0363
  65   2.0000      -0.323506        -8.8031
  66   2.0000      -0.305718        -8.3190
  67   0.0000       0.034594         0.9414
  68   0.0000       0.060272         1.6401
  69   0.0000       0.112296         3.0557
  70   0.0000       0.124379         3.3845
  71   0.0000       0.130894         3.5618

MULLIKEN ATOMIC CHARGES
-----------------------
   0 S :    0.112449
   1 C :   -0.127010
   2 C :   -0.051778
   3 C :    0.005120
   4 C :   -0.176425
   5 H :    0.041477
   6 C :    0.004130
   7 H :    0.036917
   8 H :    0.045253
   9 C :   -0.063535
  10 H :    0.017266
  11 H :    0.017170
  12 C :   -0.014957
  13 H :    0.028262
  14 H :    0.013228
  15 H :    0.025829
  16 S :    0.103264
  17 C :   -0.083986
  18 C :   -0.055001
  19 C :    0.025936
  20 C :   -0.179824
  21 H :    0.009854
  22 C :    0.048628
  23 H :    0.038875
  24 H :    0.026886
  25 C :   -0.032614
  26 H :    0.033787
  27 H :    0.010723
  28 C :   -0.051103
  29 H :    0.023924
  30 H :    0.028500
  31 H :    0.025681
  32 H :    0.048885
  33 H :    0.064189
Sum of atomic charges:   -0.0000000

LOEWDIN ATOMIC CHARGES
----------------------
   0 S :    0.414971
   1 C :   -0.192541
   2 C :   -0.077505
   3 C :   -0.069244
   4 C :   -0.203625
   5 H :    0.045355
   6 C :   -0.030553
   7 H :    0.034632
   8 H :    0.030645
   9 C :   -0.026558
  10 H :    0.018200
  11 H :    0.012823
  12 C :   -0.053552
  13 H :    0.025156
  14 H :    0.017161
  15 H :    0.021086
  16 S :    0.380326
  17 C :   -0.183390
  18 C :   -0.076049
  19 C :   -0.054041
  20 C :   -0.185730
  21 H :    0.026580
  22 C :   -0.032453
  23 H :    0.036864
  24 H :    0.034771
  25 C :   -0.024103
  26 H :    0.030237
  27 H :    0.006735
  28 C :   -0.060530
  29 H :    0.024212
  30 H :    0.023115
  31 H :    0.020230
  32 H :    0.023792
  33 H :    0.042983

  Mayer bond orders larger than 0.100000
B(  0-S ,  1-C ) :   1.1600 B(  0-S ,  4-C ) :   1.1402 B(  1-C ,  2-C ) :   1.5705
B(  1-C ,  4-C ) :   0.1001 B(  1-C , 32-H ) :   0.9757 B(  2-C ,  3-C ) :   1.2568
B(  2-C ,  6-C ) :   1.0241 B(  3-C ,  4-C ) :   1.5889 B(  3-C ,  5-H ) :   0.9830
B(  4-C , 20-C ) :   1.0242 B(  6-C ,  7-H ) :   0.9500 B(  6-C ,  8-H ) :   0.9528
B(  6-C ,  9-C ) :   1.0377 B(  9-C , 10-H ) :   0.9579 B(  9-C , 11-H ) :   0.9660
B(  9-C , 12-C ) :   1.0827 B( 12-C , 13-H ) :   0.9742 B( 12-C , 14-H ) :   0.9729
B( 12-C , 15-H ) :   0.9782 B( 16-S , 17-C ) :   1.1226 B( 16-S , 20-C ) :   1.1378
B( 17-C , 18-C ) :   1.6504 B( 17-C , 20-C ) :   0.1005 B( 17-C , 33-H ) :   0.9621
B( 18-C , 19-C ) :   1.2262 B( 18-C , 21-H ) :   0.9799 B( 19-C , 20-C ) :   1.5704
B( 19-C , 22-C ) :   1.0622 B( 22-C , 23-H ) :   0.9253 B( 22-C , 24-H ) :   0.9296
B( 22-C , 25-C ) :   1.0527 B( 25-C , 26-H ) :   0.9605 B( 25-C , 27-H ) :   0.9555
B( 25-C , 28-C ) :   1.0824 B( 28-C , 29-H ) :   0.9739 B( 28-C , 30-H ) :   0.9772
B( 28-C , 31-H ) :   0.9758

Dispersion correction           -0.013409543
FINAL SINGLE POINT ENERGY     -1339.864903661508

DIPOLE MOMENT
-------------
                                X             Y             Z
Electronic contribution:     20.38144      -9.36744      -1.32005
Nuclear contribution   :    -20.87856       9.36524       1.29120
                        -----------------------------------------
Total Dipole Moment    :     -0.49712      -0.00220      -0.02885
                        -----------------------------------------
Magnitude (a.u.)       :      0.49796
Magnitude (Debye)      :      1.26572

Rotational constants in cm-1:     0.020707     0.007060     0.005935
Rotational constants in MHz :   620.792464   211.640157   177.936667

                             ****ORCA TERMINATED NORMALLY****
TOTAL RUN TIME: 0 days 0 hours 0 minutes 20 seconds 702 msec
