                         Program Version 4.2.1 -  RELEASE  -
|  1> ! wB97X-D3 SP def2-SVP
|  2> %pal
|  3> nprocs 24
|  4> end
|  5>
|  6> * xyz 0 1
|  7> S 	 -84.7364 	 4.004 	 -113.98
|  8> C 	 -85.6139 	 3.18105 	 -112.681
|  9> C 	 -86.6904 	 2.48437 	 -113.247
| 10> C 	 -86.9137 	 2.87638 	 -114.607
| 11> C 	 -85.9862 	 3.70955 	 -115.157
| 12> H 	 -87.7344 	 2.55593 	 -115.148
| 13> C 	 -87.5983 	 1.48637 	 -112.523
| 14> H 	 -88.6019 	 1.53809 	 -112.928
| 15> H 	 -87.7771 	 1.90042 	 -111.524
| 16> C 	 -87.0746 	 0.0299068 	 -112.477
| 17> H 	 -87.7361 	 -0.558034 	 -111.84
| 18> H 	 -87.0866 	 -0.383269 	 -113.451
| 19> C 	 -85.6295 	 -0.159921 	 -111.773
| 20> H 	 -85.7153 	 -0.275023 	 -110.676
| 21> H 	 -85.2117 	 -1.14725 	 -111.819
| 22> H 	 -84.9078 	 0.607816 	 -112.004
| 23> S 	 -85.6023 	 3.16015 	 -117.832
| 24> C 	 -85.9448 	 4.35875 	 -119.048
| 25> C 	 -86.059 	 5.53882 	 -118.442
| 26> C 	 -86.0597 	 5.48485 	 -117.017
| 27> C 	 -85.8677 	 4.22739 	 -116.519
| 28> H 	 -86.2684 	 6.39797 	 -119.1
| 29> C 	 -86.2911 	 6.70153 	 -116.195
| 30> H 	 -85.7969 	 7.55189 	 -116.717
| 31> H 	 -85.8443 	 6.59855 	 -115.165
| 32> C 	 -87.7931 	 7.02985 	 -115.892
| 33> H 	 -87.912 	 7.84939 	 -115.182
| 34> H 	 -88.2894 	 6.19492 	 -115.507
| 35> C 	 -88.4856 	 7.45692 	 -117.26
| 36> H 	 -89.5549 	 7.06471 	 -117.217
| 37> H 	 -88.0409 	 6.95038 	 -118.084
| 38> H 	 -88.4712 	 8.58543 	 -117.411
| 39> H 	 -85.2916 	 2.99588 	 -111.73
| 40> H 	 -85.8948 	 4.17264 	 -120.107
| 41> *
| 42>
| 43>                          ****END OF INPUT****

CARTESIAN COORDINATES (ANGSTROEM)
---------------------------------
  S    -84.736400    4.004000  -113.980000
  C    -85.613900    3.181050  -112.681000
  C    -86.690400    2.484370  -113.247000
  C    -86.913700    2.876380  -114.607000
  C    -85.986200    3.709550  -115.157000
  H    -87.734400    2.555930  -115.148000
  C    -87.598300    1.486370  -112.523000
  H    -88.601900    1.538090  -112.928000
  H    -87.777100    1.900420  -111.524000
  C    -87.074600    0.029907  -112.477000
  H    -87.736100   -0.558034  -111.840000
  H    -87.086600   -0.383269  -113.451000
  C    -85.629500   -0.159921  -111.773000
  H    -85.715300   -0.275023  -110.676000
  H    -85.211700   -1.147250  -111.819000
  H    -84.907800    0.607816  -112.004000
  S    -85.602300    3.160150  -117.832000
  C    -85.944800    4.358750  -119.048000
  C    -86.059000    5.538820  -118.442000
  C    -86.059700    5.484850  -117.017000
  C    -85.867700    4.227390  -116.519000
  H    -86.268400    6.397970  -119.100000
  C    -86.291100    6.701530  -116.195000
  H    -85.796900    7.551890  -116.717000
  H    -85.844300    6.598550  -115.165000
  C    -87.793100    7.029850  -115.892000
  H    -87.912000    7.849390  -115.182000
  H    -88.289400    6.194920  -115.507000
  C    -88.485600    7.456920  -117.260000
  H    -89.554900    7.064710  -117.217000
  H    -88.040900    6.950380  -118.084000
  H    -88.471200    8.585430  -117.411000
  H    -85.291600    2.995880  -111.730000
  H    -85.894800    4.172640  -120.107000

 Total Charge           Charge          ....    0
 Multiplicity           Mult            ....    1
 Number of Electrons    NEL             ....  134
 Basis Dimension        Dim             ....  322

ORBITAL ENERGIES
----------------

  NO   OCC          E(Eh)            E(eV)
   0   2.0000     -88.966005     -2420.8881
   1   2.0000     -88.960113     -2420.7277
   2   2.0000     -10.330109      -281.0966
   3   2.0000     -10.323203      -280.9086
   4   2.0000     -10.313941      -280.6566
   5   2.0000     -10.313332      -280.6400
   6   2.0000     -10.304530      -280.4005
   7   2.0000     -10.299396      -280.2608
   8   2.0000     -10.296683      -280.1870
   9   2.0000     -10.294460      -280.1265
  10   2.0000     -10.291230      -280.0386
  11   2.0000     -10.290674      -280.0235
  12   2.0000     -10.288807      -279.9727
  13   2.0000     -10.282302      -279.7957
  14   2.0000     -10.279675      -279.7242
  15   2.0000     -10.279429      -279.7175
  16   2.0000      -8.080274      -219.8754
  17   2.0000      -8.076204      -219.7647
  18   2.0000      -6.038863      -164.3258
  19   2.0000      -6.034745      -164.2138
  20   2.0000      -6.034742      -164.2137
  21   2.0000      -6.031055      -164.1133
  22   2.0000      -6.030371      -164.0947
  23   2.0000      -6.026961      -164.0020
  24   2.0000      -1.015910       -27.6443
  25   2.0000      -0.990301       -26.9475
  26   2.0000      -0.906260       -24.6606
  27   2.0000      -0.902361       -24.5545
  28   2.0000      -0.872587       -23.7443
  29   2.0000      -0.843472       -22.9520
  30   2.0000      -0.838202       -22.8086
  31   2.0000      -0.821714       -22.3600
  32   2.0000      -0.786285       -21.3959
  33   2.0000      -0.768184       -20.9034
  34   2.0000      -0.715076       -19.4582
  35   2.0000      -0.705847       -19.2071
  36   2.0000      -0.693010       -18.8578
  37   2.0000      -0.665215       -18.1014
  38   2.0000      -0.646583       -17.5944
  39   2.0000      -0.622757       -16.9461
  40   2.0000      -0.592952       -16.1350
  41   2.0000      -0.577397       -15.7118
  42   2.0000      -0.551157       -14.9978
  43   2.0000      -0.549740       -14.9592
  44   2.0000      -0.543102       -14.7786
  45   2.0000      -0.536729       -14.6051
  46   2.0000      -0.517865       -14.0918
  47   2.0000      -0.514262       -13.9938
  48   2.0000      -0.506275       -13.7764
  49   2.0000      -0.493678       -13.4337
  50   2.0000      -0.484127       -13.1738
  51   2.0000      -0.481501       -13.1023
  52   2.0000      -0.478113       -13.0101
  53   2.0000      -0.467679       -12.7262
  54   2.0000      -0.459263       -12.4972
  55   2.0000      -0.444306       -12.0902
  56   2.0000      -0.436255       -11.8711
  57   2.0000      -0.434455       -11.8221
  58   2.0000      -0.434304       -11.8180
  59   2.0000      -0.421126       -11.4594
  60   2.0000      -0.415871       -11.3164
  61   2.0000      -0.414339       -11.2747
  62   2.0000      -0.405550       -11.0356
  63   2.0000      -0.339530        -9.2391
  64   2.0000      -0.334254        -9.0955
  65   2.0000      -0.326033        -8.8718
  66   2.0000      -0.308411        -8.3923
  67   0.0000       0.035714         0.9718
  68   0.0000       0.065061         1.7704
  69   0.0000       0.116027         3.1573
  70   0.0000       0.122218         3.3257
  71   0.0000       0.127986         3.4827

MULLIKEN ATOMIC CHARGES
-----------------------
   0 S :    0.109111
   1 C :   -0.070768
   2 C :   -0.126565
   3 C :    0.070263
   4 C :   -0.156463
   5 H :   -0.023145
   6 C :    0.064259
   7 H :    0.021606
   8 H :    0.024895
   9 C :   -0.030484
  10 H :    0.032074
  11 H :    0.034004
  12 C :   -0.081508
  13 H :    0.016944
  14 H :    0.023392
  15 H :    0.049695
  16 S :    0.103004
  17 C :   -0.095410
  18 C :   -0.040332
  19 C :   -0.014292
  20 C :   -0.149289
  21 H :    0.039010
  22 C :    0.024037
  23 H :    0.034604
  24 H :    0.032765
  25 C :   -0.024850
  26 H :    0.034948
  27 H :    0.019512
  28 C :   -0.092873
  29 H :    0.036408
  30 H :    0.014479
  31 H :    0.047236
  32 H :    0.016933
  33 H :    0.056802
Sum of atomic charges:    0.0000000

LOEWDIN ATOMIC CHARGES
----------------------
   0 S :    0.409548
   1 C :   -0.176739
   2 C :   -0.055911
   3 C :   -0.054349
   4 C :   -0.192821
   5 H :    0.018904
   6 C :   -0.034231
   7 H :    0.031021
   8 H :    0.032731
   9 C :   -0.025469
  10 H :    0.027597
  11 H :    0.019768
  12 C :   -0.081333
  13 H :    0.028969
  14 H :    0.027700
  15 H :    0.021860
  16 S :    0.419678
  17 C :   -0.178764
  18 C :   -0.081848
  19 C :   -0.059836
  20 C :   -0.214418
  21 H :    0.037992
  22 C :   -0.039099
  23 H :    0.034081
  24 H :    0.031242
  25 C :   -0.026677
  26 H :    0.024809
  27 H :    0.015436
  28 C :   -0.076414
  29 H :    0.031908
  30 H :    0.012981
  31 H :    0.031096
  32 H :    0.008561
  33 H :    0.032024

  Mayer bond orders larger than 0.100000
B(  0-S ,  1-C ) :   1.1399 B(  0-S ,  4-C ) :   1.1541 B(  1-C ,  2-C ) :   1.5974
B(  1-C ,  4-C ) :   0.1028 B(  1-C , 32-H ) :   0.9772 B(  2-C ,  3-C ) :   1.2433
B(  2-C ,  6-C ) :   1.0203 B(  3-C ,  4-C ) :   1.5862 B(  3-C ,  5-H ) :   1.0123
B(  4-C , 20-C ) :   0.9977 B(  6-C ,  7-H ) :   0.9424 B(  6-C ,  8-H ) :   0.9429
B(  6-C ,  9-C ) :   1.0645 B(  9-C , 10-H ) :   0.9577 B(  9-C , 11-H ) :   0.9625
B(  9-C , 12-C ) :   1.0620 B( 12-C , 13-H ) :   0.9726 B( 12-C , 14-H ) :   0.9709
B( 12-C , 15-H ) :   0.9784 B( 16-S , 17-C ) :   1.1590 B( 16-S , 20-C ) :   1.1515
B( 17-C , 18-C ) :   1.6158 B( 17-C , 33-H ) :   0.9697 B( 18-C , 19-C ) :   1.2342
B( 18-C , 21-H ) :   0.9771 B( 19-C , 20-C ) :   1.6008 B( 19-C , 22-C ) :   1.0598
B( 22-C , 23-H ) :   0.9383 B( 22-C , 24-H ) :   0.9270 B( 22-C , 25-C ) :   1.0684
B( 25-C , 26-H ) :   0.9619 B( 25-C , 27-H ) :   0.9609 B( 25-C , 28-C ) :   1.0556
B( 28-C , 29-H ) :   0.9757 B( 28-C , 30-H ) :   0.9787 B( 28-C , 31-H ) :   0.9779

Dispersion correction           -0.014866729
FINAL SINGLE POINT ENERGY     -1339.864980665918

DIPOLE MOMENT
-------------
                                X             Y             Z
Electronic contribution:     12.52519      -0.26000      -9.95438
Nuclear contribution   :    -12.94938       0.15283      10.06859
                        -----------------------------------------
Total Dipole Moment    :     -0.42419      -0.10717       0.11421
                        -----------------------------------------
Magnitude (a.u.)       :      0.45218
Magnitude (Debye)      :      1.14935

Rotational constants in cm-1:     0.024087     0.007590     0.006856
Rotational constants in MHz :   722.097672   227.528184   205.546590

                             ****ORCA TERMINATED NORMALLY****
TOTAL RUN TIME: 0 days 0 hours 0 minutes 21 seconds 737 msec
