                         Program Version 4.2.1 -  RELEASE  -
|  1> ! wB97X-D3 SP def2-SVP
|  2> %pal
|  3> nprocs 24
|  4> end
|  5>
|  6> * xyz 0 1
|  7> S 	 -45.1163 	 16.9807 	 27.3529
|  8> C 	 -45.01 	 16.7947 	 25.6429
|  9> C 	 -46.0399 	 16.022 	 25.1159
| 10> C 	 -47.0702 	 15.7394 	 26.0916
| 11> C 	 -46.7144 	 16.1894 	 27.381
| 12> H 	 -47.9673 	 15.1867 	 25.8861
| 13> C 	 -46.2429 	 15.6603 	 23.6292
| 14> H 	 -46.8492 	 14.8114 	 23.6755
| 15> H 	 -45.2247 	 15.2979 	 23.2569
| 16> C 	 -46.9134 	 16.6969 	 22.6622
| 17> H 	 -46.3417 	 17.7171 	 22.5983
| 18> H 	 -46.9816 	 16.1691 	 21.6948
| 19> C 	 -48.3954 	 17.0755 	 23.0669
| 20> H 	 -48.4356 	 17.9983 	 23.6341
| 21> H 	 -49.2307 	 17.0273 	 22.3682
| 22> H 	 -48.6707 	 16.3904 	 23.8232
| 23> S 	 -46.7209 	 14.7414 	 29.6577
| 24> C 	 -48.192 	 14.5637 	 30.623
| 25> C 	 -49.1948 	 15.2642 	 30.0242
| 26> C 	 -48.7313 	 16.0024 	 28.8946
| 27> C 	 -47.4358 	 15.8303 	 28.5654
| 28> H 	 -50.1925 	 15.1777 	 30.4944
| 29> C 	 -49.69 	 16.9156 	 28.0858
| 30> H 	 -50.679 	 16.5495 	 28.0439
| 31> H 	 -49.3214 	 16.9491 	 27.0615
| 32> C 	 -49.8899 	 18.3346 	 28.6454
| 33> H 	 -50.7935 	 18.7171 	 28.1498
| 34> H 	 -49.0126 	 18.9429 	 28.3082
| 35> C 	 -50.1457 	 18.4261 	 30.162
| 36> H 	 -49.281 	 18.1043 	 30.7045
| 37> H 	 -50.9581 	 17.7634 	 30.455
| 38> H 	 -50.4504 	 19.5124 	 30.337
| 39> H 	 -44.2356 	 17.2055 	 24.9799
| 40> H 	 -48.2097 	 14.1772 	 31.6255
| 41> *
| 42>
| 43>                          ****END OF INPUT****

CARTESIAN COORDINATES (ANGSTROEM)
---------------------------------
  S    -45.116300   16.980700   27.352900
  C    -45.010000   16.794700   25.642900
  C    -46.039900   16.022000   25.115900
  C    -47.070200   15.739400   26.091600
  C    -46.714400   16.189400   27.381000
  H    -47.967300   15.186700   25.886100
  C    -46.242900   15.660300   23.629200
  H    -46.849200   14.811400   23.675500
  H    -45.224700   15.297900   23.256900
  C    -46.913400   16.696900   22.662200
  H    -46.341700   17.717100   22.598300
  H    -46.981600   16.169100   21.694800
  C    -48.395400   17.075500   23.066900
  H    -48.435600   17.998300   23.634100
  H    -49.230700   17.027300   22.368200
  H    -48.670700   16.390400   23.823200
  S    -46.720900   14.741400   29.657700
  C    -48.192000   14.563700   30.623000
  C    -49.194800   15.264200   30.024200
  C    -48.731300   16.002400   28.894600
  C    -47.435800   15.830300   28.565400
  H    -50.192500   15.177700   30.494400
  C    -49.690000   16.915600   28.085800
  H    -50.679000   16.549500   28.043900
  H    -49.321400   16.949100   27.061500
  C    -49.889900   18.334600   28.645400
  H    -50.793500   18.717100   28.149800
  H    -49.012600   18.942900   28.308200
  C    -50.145700   18.426100   30.162000
  H    -49.281000   18.104300   30.704500
  H    -50.958100   17.763400   30.455000
  H    -50.450400   19.512400   30.337000
  H    -44.235600   17.205500   24.979900
  H    -48.209700   14.177200   31.625500

 Total Charge           Charge          ....    0
 Multiplicity           Mult            ....    1
 Number of Electrons    NEL             ....  134
 Basis Dimension        Dim             ....  322

ORBITAL ENERGIES
----------------

  NO   OCC          E(Eh)            E(eV)
   0   2.0000     -88.973883     -2421.1024
   1   2.0000     -88.958273     -2420.6777
   2   2.0000     -10.334170      -281.2071
   3   2.0000     -10.318268      -280.7744
   4   2.0000     -10.317684      -280.7585
   5   2.0000     -10.314435      -280.6700
   6   2.0000     -10.306301      -280.4487
   7   2.0000     -10.304557      -280.4013
   8   2.0000     -10.301690      -280.3232
   9   2.0000     -10.299884      -280.2741
  10   2.0000     -10.298031      -280.2237
  11   2.0000     -10.295123      -280.1445
  12   2.0000     -10.283377      -279.8249
  13   2.0000     -10.281479      -279.7733
  14   2.0000     -10.277032      -279.6523
  15   2.0000     -10.275512      -279.6109
  16   2.0000      -8.088091      -220.0881
  17   2.0000      -8.074239      -219.7112
  18   2.0000      -6.046593      -164.5362
  19   2.0000      -6.042627      -164.4282
  20   2.0000      -6.038927      -164.3276
  21   2.0000      -6.032788      -164.1605
  22   2.0000      -6.028449      -164.0424
  23   2.0000      -6.024979      -163.9480
  24   2.0000      -1.013207       -27.5708
  25   2.0000      -0.985574       -26.8188
  26   2.0000      -0.904157       -24.6034
  27   2.0000      -0.902359       -24.5544
  28   2.0000      -0.876139       -23.8409
  29   2.0000      -0.847433       -23.0598
  30   2.0000      -0.838882       -22.8271
  31   2.0000      -0.815858       -22.2006
  32   2.0000      -0.783185       -21.3115
  33   2.0000      -0.774363       -21.0715
  34   2.0000      -0.708060       -19.2673
  35   2.0000      -0.703137       -19.1333
  36   2.0000      -0.682159       -18.5625
  37   2.0000      -0.665483       -18.1087
  38   2.0000      -0.641196       -17.4478
  39   2.0000      -0.611735       -16.6461
  40   2.0000      -0.586950       -15.9717
  41   2.0000      -0.572933       -15.5903
  42   2.0000      -0.558043       -15.1851
  43   2.0000      -0.546790       -14.8789
  44   2.0000      -0.541010       -14.7216
  45   2.0000      -0.536596       -14.6015
  46   2.0000      -0.517454       -14.0806
  47   2.0000      -0.510453       -13.8901
  48   2.0000      -0.508080       -13.8256
  49   2.0000      -0.491639       -13.3782
  50   2.0000      -0.486089       -13.2272
  51   2.0000      -0.481151       -13.0928
  52   2.0000      -0.475570       -12.9409
  53   2.0000      -0.467449       -12.7199
  54   2.0000      -0.460930       -12.5425
  55   2.0000      -0.446901       -12.1608
  56   2.0000      -0.440854       -11.9963
  57   2.0000      -0.434643       -11.8272
  58   2.0000      -0.427038       -11.6203
  59   2.0000      -0.420893       -11.4531
  60   2.0000      -0.417949       -11.3730
  61   2.0000      -0.413781       -11.2595
  62   2.0000      -0.407046       -11.0763
  63   2.0000      -0.348606        -9.4861
  64   2.0000      -0.332116        -9.0373
  65   2.0000      -0.326673        -8.8892
  66   2.0000      -0.298438        -8.1209
  67   0.0000       0.030982         0.8431
  68   0.0000       0.065457         1.7812
  69   0.0000       0.112802         3.0695
  70   0.0000       0.124040         3.3753
  71   0.0000       0.124285         3.3820

MULLIKEN ATOMIC CHARGES
-----------------------
   0 S :    0.133152
   1 C :   -0.115162
   2 C :   -0.114399
   3 C :    0.046962
   4 C :   -0.183896
   5 H :    0.025641
   6 C :    0.056288
   7 H :    0.011167
   8 H :    0.042296
   9 C :   -0.086589
  10 H :    0.055996
  11 H :    0.046205
  12 C :   -0.039105
  13 H :    0.034458
  14 H :    0.041613
  15 H :   -0.010601
  16 S :    0.092342
  17 C :   -0.104197
  18 C :   -0.048516
  19 C :   -0.073782
  20 C :   -0.117582
  21 H :    0.035570
  22 C :    0.104885
  23 H :    0.003857
  24 H :    0.017314
  25 C :   -0.099754
  26 H :    0.026461
  27 H :    0.038880
  28 C :   -0.055623
  29 H :    0.048761
  30 H :    0.020946
  31 H :    0.049118
  32 H :    0.056469
  33 H :    0.060827
Sum of atomic charges:   -0.0000000

LOEWDIN ATOMIC CHARGES
----------------------
   0 S :    0.415963
   1 C :   -0.206819
   2 C :   -0.069292
   3 C :   -0.047047
   4 C :   -0.192117
   5 H :    0.029989
   6 C :   -0.034837
   7 H :    0.021058
   8 H :    0.040202
   9 C :   -0.040983
  10 H :    0.036973
  11 H :    0.030371
  12 C :   -0.075995
  13 H :    0.029282
  14 H :    0.028739
  15 H :    0.015624
  16 S :    0.411604
  17 C :   -0.178904
  18 C :   -0.074147
  19 C :   -0.064911
  20 C :   -0.217990
  21 H :    0.040189
  22 C :   -0.031552
  23 H :    0.019989
  24 H :    0.027900
  25 C :   -0.042073
  26 H :    0.022874
  27 H :    0.026233
  28 C :   -0.067245
  29 H :    0.023254
  30 H :    0.020141
  31 H :    0.037787
  32 H :    0.035835
  33 H :    0.029905

  Mayer bond orders larger than 0.100000
B(  0-S ,  1-C ) :   1.1505 B(  0-S ,  4-C ) :   1.1461 B(  1-C ,  2-C ) :   1.6048
B(  1-C , 32-H ) :   0.9638 B(  2-C ,  3-C ) :   1.2579 B(  2-C ,  6-C ) :   1.0204
B(  3-C ,  4-C ) :   1.5534 B(  3-C ,  5-H ) :   0.9845 B(  4-C , 20-C ) :   1.0371
B(  6-C ,  7-H ) :   0.9367 B(  6-C ,  8-H ) :   0.9434 B(  6-C ,  9-C ) :   1.0689
B(  9-C , 10-H ) :   0.9638 B(  9-C , 11-H ) :   0.9568 B(  9-C , 12-C ) :   1.0493
B( 12-C , 13-H ) :   0.9743 B( 12-C , 14-H ) :   0.9762 B( 12-C , 15-H ) :   0.9758
B( 16-S , 17-C ) :   1.1529 B( 16-S , 20-C ) :   1.1419 B( 17-C , 18-C ) :   1.6150
B( 17-C , 33-H ) :   0.9678 B( 18-C , 19-C ) :   1.2270 B( 18-C , 21-H ) :   0.9914
B( 19-C , 20-C ) :   1.6210 B( 19-C , 22-C ) :   1.0386 B( 22-C , 23-H ) :   0.9353
B( 22-C , 24-H ) :   0.9308 B( 22-C , 25-C ) :   1.0782 B( 25-C , 26-H ) :   0.9581
B( 25-C , 27-H ) :   0.9564 B( 25-C , 28-C ) :   1.0840 B( 28-C , 29-H ) :   0.9690
B( 28-C , 30-H ) :   0.9725 B( 28-C , 31-H ) :   0.9729

Dispersion correction           -0.015145883
FINAL SINGLE POINT ENERGY     -1339.867010624771

DIPOLE MOMENT
-------------
                                X             Y             Z
Electronic contribution:     18.18924      -9.82570      14.41573
Nuclear contribution   :    -18.66440       9.81850     -14.79972
                        -----------------------------------------
Total Dipole Moment    :     -0.47515      -0.00720      -0.38399
                        -----------------------------------------
Magnitude (a.u.)       :      0.61096
Magnitude (Debye)      :      1.55293

Rotational constants in cm-1:     0.019683     0.008850     0.007290
Rotational constants in MHz :   590.088646   265.311195   218.548652

                             ****ORCA TERMINATED NORMALLY****
TOTAL RUN TIME: 0 days 0 hours 0 minutes 22 seconds 263 msec
