                         Program Version 4.2.1 -  RELEASE  -
|  1> ! wB97X-D3 SP def2-SVP
|  2> %pal
|  3> nprocs 24
|  4> end
|  5>
|  6> * xyz 0 1
|  7> S 	 -36.9144 	 -6.58963 	 11.8851
|  8> C 	 -35.6927 	 -5.3917 	 11.8444
|  9> C 	 -36.1663 	 -4.0617 	 11.5982
| 10> C 	 -37.58 	 -4.10211 	 11.3735
| 11> C 	 -38.1157 	 -5.40916 	 11.3199
| 12> H 	 -38.1888 	 -3.34088 	 11.0733
| 13> C 	 -35.3819 	 -2.83903 	 11.2728
| 14> H 	 -34.4888 	 -2.98402 	 11.8561
| 15> H 	 -35.7562 	 -1.9301 	 11.7878
| 16> C 	 -34.9747 	 -2.43401 	 9.82659
| 17> H 	 -34.1708 	 -1.67751 	 9.8795
| 18> H 	 -34.5385 	 -3.23416 	 9.372
| 19> C 	 -36.2049 	 -1.98331 	 8.96847
| 20> H 	 -36.8821 	 -2.84428 	 8.76485
| 21> H 	 -36.775 	 -1.13537 	 9.4356
| 22> H 	 -35.7764 	 -1.68891 	 8.05022
| 23> S 	 -39.9724 	 -7.47098 	 10.7997
| 24> C 	 -41.6362 	 -7.04449 	 10.4007
| 25> C 	 -41.9145 	 -5.74628 	 10.607
| 26> C 	 -40.7184 	 -4.99098 	 10.8953
| 27> C 	 -39.5623 	 -5.77156 	 11.0518
| 28> H 	 -42.8664 	 -5.33515 	 10.4285
| 29> C 	 -40.8567 	 -3.41239 	 11.0401
| 30> H 	 -40.1173 	 -3.15966 	 11.7153
| 31> H 	 -41.8685 	 -3.17253 	 11.4017
| 32> C 	 -40.7215 	 -2.60716 	 9.76067
| 33> H 	 -41.3982 	 -3.06457 	 9.07688
| 34> H 	 -39.6655 	 -2.69703 	 9.37709
| 35> C 	 -41.2386 	 -1.17373 	 9.85997
| 36> H 	 -40.8481 	 -0.483248 	 9.07109
| 37> H 	 -40.846 	 -0.651049 	 10.7247
| 38> H 	 -42.3049 	 -0.97497 	 9.89259
| 39> H 	 -34.6553 	 -5.57728 	 11.9055
| 40> H 	 -42.4321 	 -7.76088 	 10.0661
| 41> *
| 42>
| 43>                          ****END OF INPUT****

CARTESIAN COORDINATES (ANGSTROEM)
---------------------------------
  S    -36.914400   -6.589630   11.885100
  C    -35.692700   -5.391700   11.844400
  C    -36.166300   -4.061700   11.598200
  C    -37.580000   -4.102110   11.373500
  C    -38.115700   -5.409160   11.319900
  H    -38.188800   -3.340880   11.073300
  C    -35.381900   -2.839030   11.272800
  H    -34.488800   -2.984020   11.856100
  H    -35.756200   -1.930100   11.787800
  C    -34.974700   -2.434010    9.826590
  H    -34.170800   -1.677510    9.879500
  H    -34.538500   -3.234160    9.372000
  C    -36.204900   -1.983310    8.968470
  H    -36.882100   -2.844280    8.764850
  H    -36.775000   -1.135370    9.435600
  H    -35.776400   -1.688910    8.050220
  S    -39.972400   -7.470980   10.799700
  C    -41.636200   -7.044490   10.400700
  C    -41.914500   -5.746280   10.607000
  C    -40.718400   -4.990980   10.895300
  C    -39.562300   -5.771560   11.051800
  H    -42.866400   -5.335150   10.428500
  C    -40.856700   -3.412390   11.040100
  H    -40.117300   -3.159660   11.715300
  H    -41.868500   -3.172530   11.401700
  C    -40.721500   -2.607160    9.760670
  H    -41.398200   -3.064570    9.076880
  H    -39.665500   -2.697030    9.377090
  C    -41.238600   -1.173730    9.859970
  H    -40.848100   -0.483248    9.071090
  H    -40.846000   -0.651049   10.724700
  H    -42.304900   -0.974970    9.892590
  H    -34.655300   -5.577280   11.905500
  H    -42.432100   -7.760880   10.066100

 Total Charge           Charge          ....    0
 Multiplicity           Mult            ....    1
 Number of Electrons    NEL             ....  134
 Basis Dimension        Dim             ....  322

ORBITAL ENERGIES
----------------

  NO   OCC          E(Eh)            E(eV)
   0   2.0000     -88.974554     -2421.1207
   1   2.0000     -88.966391     -2420.8986
   2   2.0000     -10.339755      -281.3590
   3   2.0000     -10.337358      -281.2938
   4   2.0000     -10.319953      -280.8202
   5   2.0000     -10.316011      -280.7129
   6   2.0000     -10.309731      -280.5420
   7   2.0000     -10.306848      -280.4636
   8   2.0000     -10.291217      -280.0383
   9   2.0000     -10.290573      -280.0207
  10   2.0000     -10.290517      -280.0192
  11   2.0000     -10.290306      -280.0135
  12   2.0000     -10.288930      -279.9760
  13   2.0000     -10.287393      -279.9342
  14   2.0000     -10.282294      -279.7954
  15   2.0000     -10.281123      -279.7636
  16   2.0000      -8.088902      -220.1102
  17   2.0000      -8.080784      -219.8893
  18   2.0000      -6.047424      -164.5588
  19   2.0000      -6.043424      -164.4499
  20   2.0000      -6.039752      -164.3500
  21   2.0000      -6.039475      -164.3425
  22   2.0000      -6.035465      -164.2333
  23   2.0000      -6.031263      -164.1190
  24   2.0000      -1.001279       -27.2462
  25   2.0000      -0.982748       -26.7419
  26   2.0000      -0.910492       -24.7757
  27   2.0000      -0.908339       -24.7172
  28   2.0000      -0.866065       -23.5668
  29   2.0000      -0.853971       -23.2377
  30   2.0000      -0.844535       -22.9810
  31   2.0000      -0.816779       -22.2257
  32   2.0000      -0.784479       -21.3468
  33   2.0000      -0.772407       -21.0183
  34   2.0000      -0.708703       -19.2848
  35   2.0000      -0.703563       -19.1449
  36   2.0000      -0.690568       -18.7913
  37   2.0000      -0.667075       -18.1520
  38   2.0000      -0.643745       -17.5172
  39   2.0000      -0.620043       -16.8722
  40   2.0000      -0.591240       -16.0885
  41   2.0000      -0.575726       -15.6663
  42   2.0000      -0.574706       -15.6385
  43   2.0000      -0.547460       -14.8972
  44   2.0000      -0.540785       -14.7155
  45   2.0000      -0.517855       -14.0915
  46   2.0000      -0.514693       -14.0055
  47   2.0000      -0.509299       -13.8587
  48   2.0000      -0.502276       -13.6676
  49   2.0000      -0.497677       -13.5425
  50   2.0000      -0.492541       -13.4027
  51   2.0000      -0.479513       -13.0482
  52   2.0000      -0.471587       -12.8325
  53   2.0000      -0.469178       -12.7670
  54   2.0000      -0.461488       -12.5577
  55   2.0000      -0.459345       -12.4994
  56   2.0000      -0.444425       -12.0934
  57   2.0000      -0.442890       -12.0517
  58   2.0000      -0.429275       -11.6812
  59   2.0000      -0.425343       -11.5742
  60   2.0000      -0.424911       -11.5624
  61   2.0000      -0.415833       -11.3154
  62   2.0000      -0.408857       -11.1256
  63   2.0000      -0.361355        -9.8330
  64   2.0000      -0.336954        -9.1690
  65   2.0000      -0.328312        -8.9338
  66   2.0000      -0.281155        -7.6506
  67   0.0000       0.018798         0.5115
  68   0.0000       0.080142         2.1808
  69   0.0000       0.093993         2.5577
  70   0.0000       0.116196         3.1619
  71   0.0000       0.127743         3.4761

MULLIKEN ATOMIC CHARGES
-----------------------
   0 S :    0.124048
   1 C :   -0.090835
   2 C :   -0.080932
   3 C :    0.040587
   4 C :   -0.116906
   5 H :   -0.050885
   6 C :    0.033439
   7 H :    0.007623
   8 H :    0.027761
   9 C :   -0.010048
  10 H :    0.031675
  11 H :    0.002361
  12 C :   -0.076476
  13 H :    0.058708
  14 H :    0.040362
  15 H :    0.026823
  16 S :    0.086828
  17 C :   -0.098364
  18 C :    0.007184
  19 C :   -0.104891
  20 C :   -0.110445
  21 H :    0.002745
  22 C :    0.069513
  23 H :    0.014171
  24 H :    0.019019
  25 C :   -0.039805
  26 H :    0.017382
  27 H :    0.044420
  28 C :   -0.065930
  29 H :    0.034635
  30 H :    0.015414
  31 H :    0.036490
  32 H :    0.032056
  33 H :    0.072272
Sum of atomic charges:   -0.0000000

LOEWDIN ATOMIC CHARGES
----------------------
   0 S :    0.418052
   1 C :   -0.202090
   2 C :   -0.058109
   3 C :   -0.052356
   4 C :   -0.177516
   5 H :    0.009443
   6 C :   -0.046373
   7 H :    0.028578
   8 H :    0.035135
   9 C :   -0.023780
  10 H :    0.029590
  11 H :    0.010706
  12 C :   -0.067033
  13 H :    0.032484
  14 H :    0.028080
  15 H :    0.020324
  16 S :    0.381941
  17 C :   -0.179739
  18 C :   -0.068927
  19 C :   -0.052389
  20 C :   -0.191684
  21 H :    0.026504
  22 C :   -0.021542
  23 H :    0.013075
  24 H :    0.032201
  25 C :   -0.042915
  26 H :    0.022635
  27 H :    0.030440
  28 C :   -0.077458
  29 H :    0.034798
  30 H :    0.020994
  31 H :    0.025886
  32 H :    0.018971
  33 H :    0.042075

  Mayer bond orders larger than 0.100000
B(  0-S ,  1-C ) :   1.1628 B(  0-S ,  4-C ) :   1.1483 B(  1-C ,  2-C ) :   1.5716
B(  1-C ,  4-C ) :   0.1017 B(  1-C , 32-H ) :   0.9691 B(  2-C ,  3-C ) :   1.2575
B(  2-C ,  6-C ) :   1.0478 B(  3-C ,  4-C ) :   1.5567 B(  3-C ,  5-H ) :   0.9959
B(  4-C , 20-C ) :   1.0526 B(  6-C ,  7-H ) :   0.9252 B(  6-C ,  8-H ) :   0.9372
B(  6-C ,  9-C ) :   1.0661 B(  9-C , 10-H ) :   0.9538 B(  9-C , 11-H ) :   0.9505
B(  9-C , 12-C ) :   1.0768 B( 12-C , 13-H ) :   0.9706 B( 12-C , 14-H ) :   0.9776
B( 12-C , 15-H ) :   0.9718 B( 16-S , 17-C ) :   1.1408 B( 16-S , 20-C ) :   1.1174
B( 17-C , 18-C ) :   1.6428 B( 17-C , 33-H ) :   0.9559 B( 18-C , 19-C ) :   1.2314
B( 18-C , 21-H ) :   0.9944 B( 19-C , 20-C ) :   1.6227 B( 19-C , 22-C ) :   1.0273
B( 22-C , 23-H ) :   0.9305 B( 22-C , 24-H ) :   0.9387 B( 22-C , 25-C ) :   1.0744
B( 25-C , 26-H ) :   0.9502 B( 25-C , 27-H ) :   0.9481 B( 25-C , 28-C ) :   1.0767
B( 28-C , 29-H ) :   0.9722 B( 28-C , 30-H ) :   0.9731 B( 28-C , 31-H ) :   0.9750

Dispersion correction           -0.014767823
FINAL SINGLE POINT ENERGY     -1339.856665287642

DIPOLE MOMENT
-------------
                                X             Y             Z
Electronic contribution:     -0.73456     -31.01624      10.10105
Nuclear contribution   :      0.67315      31.67431     -10.41228
                        -----------------------------------------
Total Dipole Moment    :     -0.06142       0.65807      -0.31123
                        -----------------------------------------
Magnitude (a.u.)       :      0.73054
Magnitude (Debye)      :      1.85688

Rotational constants in cm-1:     0.015700     0.010688     0.006855
Rotational constants in MHz :   470.679235   320.407074   205.516914

                             ****ORCA TERMINATED NORMALLY****
TOTAL RUN TIME: 0 days 0 hours 0 minutes 22 seconds 280 msec
