                         Program Version 4.2.1 -  RELEASE  -
|  1> ! wB97X-D3 SP def2-SVP
|  2> %pal
|  3> nprocs 24
|  4> end
|  5>
|  6> * xyz 0 1
|  7> S 	 -118.179 	 46.8442 	 -116.72
|  8> C 	 -117.551 	 45.2064 	 -116.989
|  9> C 	 -116.41 	 45.027 	 -116.224
| 10> C 	 -116.199 	 46.0773 	 -115.277
| 11> C 	 -116.937 	 47.2024 	 -115.491
| 12> H 	 -115.488 	 46.0567 	 -114.427
| 13> C 	 -115.472 	 43.7845 	 -116.293
| 14> H 	 -116.087 	 43.0567 	 -116.879
| 15> H 	 -115.363 	 43.4356 	 -115.35
| 16> C 	 -114.087 	 44.0921 	 -116.911
| 17> H 	 -113.429 	 44.6907 	 -116.329
| 18> H 	 -113.597 	 43.1257 	 -117.019
| 19> C 	 -114.131 	 44.8504 	 -118.233
| 20> H 	 -113.273 	 44.5519 	 -118.736
| 21> H 	 -114.952 	 44.4632 	 -118.84
| 22> H 	 -114.316 	 45.8886 	 -118.194
| 23> S 	 -116.673 	 49.9461 	 -115.349
| 24> C 	 -116.769 	 50.7132 	 -113.792
| 25> C 	 -117.184 	 49.8352 	 -112.818
| 26> C 	 -117.087 	 48.4633 	 -113.256
| 27> C 	 -116.956 	 48.3461 	 -114.641
| 28> H 	 -117.368 	 50.3132 	 -111.837
| 29> C 	 -117.424 	 47.3266 	 -112.414
| 30> H 	 -116.826 	 46.5052 	 -112.678
| 31> H 	 -118.489 	 47.1063 	 -112.646
| 32> C 	 -117.345 	 47.6222 	 -110.914
| 33> H 	 -117.783 	 46.7619 	 -110.375
| 34> H 	 -117.982 	 48.5399 	 -110.659
| 35> C 	 -115.926 	 47.8233 	 -110.594
| 36> H 	 -115.392 	 48.5229 	 -111.224
| 37> H 	 -115.341 	 46.9137 	 -110.6
| 38> H 	 -115.813 	 48.1579 	 -109.52
| 39> H 	 -117.989 	 44.4728 	 -117.637
| 40> H 	 -116.644 	 51.7642 	 -113.573
| 41> *
| 42>
| 43>                          ****END OF INPUT****

CARTESIAN COORDINATES (ANGSTROEM)
---------------------------------
  S    -118.179000   46.844200  -116.720000
  C    -117.551000   45.206400  -116.989000
  C    -116.410000   45.027000  -116.224000
  C    -116.199000   46.077300  -115.277000
  C    -116.937000   47.202400  -115.491000
  H    -115.488000   46.056700  -114.427000
  C    -115.472000   43.784500  -116.293000
  H    -116.087000   43.056700  -116.879000
  H    -115.363000   43.435600  -115.350000
  C    -114.087000   44.092100  -116.911000
  H    -113.429000   44.690700  -116.329000
  H    -113.597000   43.125700  -117.019000
  C    -114.131000   44.850400  -118.233000
  H    -113.273000   44.551900  -118.736000
  H    -114.952000   44.463200  -118.840000
  H    -114.316000   45.888600  -118.194000
  S    -116.673000   49.946100  -115.349000
  C    -116.769000   50.713200  -113.792000
  C    -117.184000   49.835200  -112.818000
  C    -117.087000   48.463300  -113.256000
  C    -116.956000   48.346100  -114.641000
  H    -117.368000   50.313200  -111.837000
  C    -117.424000   47.326600  -112.414000
  H    -116.826000   46.505200  -112.678000
  H    -118.489000   47.106300  -112.646000
  C    -117.345000   47.622200  -110.914000
  H    -117.783000   46.761900  -110.375000
  H    -117.982000   48.539900  -110.659000
  C    -115.926000   47.823300  -110.594000
  H    -115.392000   48.522900  -111.224000
  H    -115.341000   46.913700  -110.600000
  H    -115.813000   48.157900  -109.520000
  H    -117.989000   44.472800  -117.637000
  H    -116.644000   51.764200  -113.573000

 Total Charge           Charge          ....    0
 Multiplicity           Mult            ....    1
 Number of Electrons    NEL             ....  134
 Basis Dimension        Dim             ....  322

ORBITAL ENERGIES
----------------

  NO   OCC          E(Eh)            E(eV)
   0   2.0000     -88.964174     -2420.8382
   1   2.0000     -88.962516     -2420.7931
   2   2.0000     -10.327127      -281.0154
   3   2.0000     -10.322848      -280.8990
   4   2.0000     -10.317623      -280.7568
   5   2.0000     -10.315327      -280.6943
   6   2.0000     -10.303709      -280.3782
   7   2.0000     -10.302807      -280.3536
   8   2.0000     -10.296006      -280.1686
   9   2.0000     -10.294884      -280.1380
  10   2.0000     -10.291116      -280.0355
  11   2.0000     -10.288660      -279.9687
  12   2.0000     -10.283448      -279.8269
  13   2.0000     -10.280706      -279.7522
  14   2.0000     -10.273027      -279.5433
  15   2.0000     -10.262317      -279.2518
  16   2.0000      -8.078092      -219.8160
  17   2.0000      -8.077259      -219.7934
  18   2.0000      -6.036783      -164.2692
  19   2.0000      -6.035787      -164.2421
  20   2.0000      -6.032747      -164.1594
  21   2.0000      -6.031766      -164.1327
  22   2.0000      -6.028642      -164.0477
  23   2.0000      -6.028004      -164.0303
  24   2.0000      -1.005950       -27.3733
  25   2.0000      -0.982045       -26.7228
  26   2.0000      -0.922765       -25.1097
  27   2.0000      -0.909597       -24.7514
  28   2.0000      -0.874856       -23.8060
  29   2.0000      -0.849289       -23.1103
  30   2.0000      -0.841983       -22.9115
  31   2.0000      -0.817809       -22.2537
  32   2.0000      -0.786101       -21.3909
  33   2.0000      -0.772188       -21.0123
  34   2.0000      -0.711891       -19.3715
  35   2.0000      -0.698661       -19.0115
  36   2.0000      -0.697746       -18.9866
  37   2.0000      -0.649796       -17.6819
  38   2.0000      -0.641200       -17.4479
  39   2.0000      -0.618730       -16.8365
  40   2.0000      -0.599812       -16.3217
  41   2.0000      -0.567398       -15.4397
  42   2.0000      -0.561052       -15.2670
  43   2.0000      -0.555654       -15.1201
  44   2.0000      -0.550691       -14.9851
  45   2.0000      -0.536004       -14.5854
  46   2.0000      -0.525067       -14.2878
  47   2.0000      -0.512877       -13.9561
  48   2.0000      -0.508355       -13.8330
  49   2.0000      -0.497818       -13.5463
  50   2.0000      -0.491932       -13.3861
  51   2.0000      -0.483160       -13.1474
  52   2.0000      -0.469197       -12.7675
  53   2.0000      -0.465529       -12.6677
  54   2.0000      -0.457567       -12.4510
  55   2.0000      -0.450104       -12.2479
  56   2.0000      -0.441945       -12.0259
  57   2.0000      -0.435548       -11.8519
  58   2.0000      -0.434453       -11.8221
  59   2.0000      -0.420077       -11.4309
  60   2.0000      -0.415442       -11.3048
  61   2.0000      -0.410882       -11.1807
  62   2.0000      -0.409833       -11.1521
  63   2.0000      -0.346116        -9.4183
  64   2.0000      -0.328906        -8.9500
  65   2.0000      -0.325924        -8.8689
  66   2.0000      -0.291181        -7.9234
  67   0.0000       0.033780         0.9192
  68   0.0000       0.060840         1.6555
  69   0.0000       0.116304         3.1648
  70   0.0000       0.119876         3.2620
  71   0.0000       0.127269         3.4632

MULLIKEN ATOMIC CHARGES
-----------------------
   0 S :    0.095149
   1 C :   -0.123944
   2 C :   -0.117420
   3 C :   -0.006349
   4 C :   -0.121758
   5 H :    0.032891
   6 C :    0.130472
   7 H :    0.021490
   8 H :    0.000846
   9 C :   -0.079801
  10 H :    0.025026
  11 H :    0.030186
  12 C :   -0.009656
  13 H :    0.018428
  14 H :    0.006828
  15 H :    0.044463
  16 S :    0.107016
  17 C :   -0.090106
  18 C :   -0.058748
  19 C :   -0.072427
  20 C :   -0.156219
  21 H :    0.036659
  22 C :    0.098316
  23 H :   -0.000020
  24 H :    0.049542
  25 C :   -0.073252
  26 H :    0.033950
  27 H :    0.041470
  28 C :   -0.058546
  29 H :    0.043890
  30 H :    0.019706
  31 H :    0.030156
  32 H :    0.047376
  33 H :    0.054383
Sum of atomic charges:    0.0000000

LOEWDIN ATOMIC CHARGES
----------------------
   0 S :    0.378223
   1 C :   -0.186959
   2 C :   -0.061997
   3 C :   -0.063853
   4 C :   -0.188476
   5 H :    0.036021
   6 C :   -0.017218
   7 H :    0.033556
   8 H :    0.013665
   9 C :   -0.035671
  10 H :    0.021122
  11 H :    0.026563
  12 C :   -0.057251
  13 H :    0.020455
  14 H :    0.022927
  15 H :    0.025230
  16 S :    0.399165
  17 C :   -0.184265
  18 C :   -0.080967
  19 C :   -0.051008
  20 C :   -0.199764
  21 H :    0.039648
  22 C :   -0.033090
  23 H :    0.021561
  24 H :    0.045423
  25 C :   -0.046590
  26 H :    0.029413
  27 H :    0.030004
  28 C :   -0.072696
  29 H :    0.025309
  30 H :    0.024135
  31 H :    0.029895
  32 H :    0.027070
  33 H :    0.030418

  Mayer bond orders larger than 0.100000
B(  0-S ,  1-C ) :   1.1269 B(  0-S ,  4-C ) :   1.1217 B(  1-C ,  2-C ) :   1.6210
B(  1-C , 32-H ) :   0.9704 B(  2-C ,  3-C ) :   1.2184 B(  2-C ,  6-C ) :   1.0169
B(  3-C ,  4-C ) :   1.6062 B(  3-C ,  5-H ) :   0.9858 B(  4-C , 20-C ) :   1.0562
B(  6-C ,  7-H ) :   0.9415 B(  6-C ,  8-H ) :   0.9349 B(  6-C ,  9-C ) :   1.0733
B(  9-C , 10-H ) :   0.9557 B(  9-C , 11-H ) :   0.9589 B(  9-C , 12-C ) :   1.0783
B( 12-C , 13-H ) :   0.9705 B( 12-C , 14-H ) :   0.9753 B( 12-C , 15-H ) :   0.9721
B( 16-S , 17-C ) :   1.1618 B( 16-S , 20-C ) :   1.1243 B( 17-C , 18-C ) :   1.6367
B( 17-C , 33-H ) :   0.9620 B( 18-C , 19-C ) :   1.2054 B( 18-C , 21-H ) :   0.9789
B( 19-C , 20-C ) :   1.5944 B( 19-C , 22-C ) :   1.0566 B( 22-C , 23-H ) :   0.9207
B( 22-C , 24-H ) :   0.9168 B( 22-C , 25-C ) :   1.0941 B( 25-C , 26-H ) :   0.9498
B( 25-C , 27-H ) :   0.9437 B( 25-C , 28-C ) :   1.0813 B( 28-C , 29-H ) :   0.9743
B( 28-C , 30-H ) :   0.9676 B( 28-C , 31-H ) :   0.9688

Dispersion correction           -0.014945692
FINAL SINGLE POINT ENERGY     -1339.861798904956

DIPOLE MOMENT
-------------
                                X             Y             Z
Electronic contribution:    -12.04120      14.49069     -10.75203
Nuclear contribution   :     12.27523     -14.93747      11.28189
                        -----------------------------------------
Total Dipole Moment    :      0.23403      -0.44678       0.52986
                        -----------------------------------------
Magnitude (a.u.)       :      0.73153
Magnitude (Debye)      :      1.85939

Rotational constants in cm-1:     0.020434     0.008361     0.007230
Rotational constants in MHz :   612.606002   250.670923   216.750382

                             ****ORCA TERMINATED NORMALLY****
TOTAL RUN TIME: 0 days 0 hours 0 minutes 22 seconds 239 msec
