                         Program Version 4.2.1 -  RELEASE  -
|  1> ! wB97X-D3 SP def2-SVP
|  2> %pal
|  3> nprocs 24
|  4> end
|  5>
|  6> * xyz 0 1
|  7> S 	 -138.382 	 8.01719 	 -13.9359
|  8> C 	 -138.688 	 9.01297 	 -12.5592
|  9> C 	 -137.917 	 10.1952 	 -12.6654
| 10> C 	 -137.049 	 10.1961 	 -13.7497
| 11> C 	 -137.044 	 9.01797 	 -14.4471
| 12> H 	 -136.479 	 11.0032 	 -14.1351
| 13> C 	 -138.014 	 11.4129 	 -11.8144
| 14> H 	 -137.11 	 11.4234 	 -11.1205
| 15> H 	 -138.894 	 11.3216 	 -11.2365
| 16> C 	 -138.278 	 12.76 	 -12.3744
| 17> H 	 -137.439 	 13.2395 	 -12.8071
| 18> H 	 -139.065 	 12.7823 	 -13.1156
| 19> C 	 -138.616 	 13.7255 	 -11.1841
| 20> H 	 -139.589 	 13.4891 	 -10.6966
| 21> H 	 -137.782 	 13.6608 	 -10.4849
| 22> H 	 -138.71 	 14.7194 	 -11.5442
| 23> S 	 -136.96 	 8.99456 	 -17.1986
| 24> C 	 -135.484 	 8.64705 	 -18.0522
| 25> C 	 -134.464 	 8.38769 	 -17.1443
| 26> C 	 -134.871 	 8.48402 	 -15.719
| 27> C 	 -136.177 	 8.7361 	 -15.5807
| 28> H 	 -133.453 	 8.09716 	 -17.5527
| 29> C 	 -133.957 	 8.06905 	 -14.5296
| 30> H 	 -133.452 	 7.18328 	 -14.8431
| 31> H 	 -134.488 	 7.73261 	 -13.6487
| 32> C 	 -132.797 	 9.06584 	 -14.1476
| 33> H 	 -133.159 	 10.0994 	 -14.0439
| 34> H 	 -132.066 	 9.13002 	 -14.9256
| 35> C 	 -132.239 	 8.62726 	 -12.8146
| 36> H 	 -131.334 	 9.2327 	 -12.7289
| 37> H 	 -131.886 	 7.64857 	 -12.8681
| 38> H 	 -132.748 	 8.81804 	 -11.8673
| 39> H 	 -139.366 	 8.88154 	 -11.733
| 40> H 	 -135.219 	 8.87526 	 -19.0637
| 41> *
| 42>
| 43>                          ****END OF INPUT****

CARTESIAN COORDINATES (ANGSTROEM)
---------------------------------
  S    -138.382000    8.017190  -13.935900
  C    -138.688000    9.012970  -12.559200
  C    -137.917000   10.195200  -12.665400
  C    -137.049000   10.196100  -13.749700
  C    -137.044000    9.017970  -14.447100
  H    -136.479000   11.003200  -14.135100
  C    -138.014000   11.412900  -11.814400
  H    -137.110000   11.423400  -11.120500
  H    -138.894000   11.321600  -11.236500
  C    -138.278000   12.760000  -12.374400
  H    -137.439000   13.239500  -12.807100
  H    -139.065000   12.782300  -13.115600
  C    -138.616000   13.725500  -11.184100
  H    -139.589000   13.489100  -10.696600
  H    -137.782000   13.660800  -10.484900
  H    -138.710000   14.719400  -11.544200
  S    -136.960000    8.994560  -17.198600
  C    -135.484000    8.647050  -18.052200
  C    -134.464000    8.387690  -17.144300
  C    -134.871000    8.484020  -15.719000
  C    -136.177000    8.736100  -15.580700
  H    -133.453000    8.097160  -17.552700
  C    -133.957000    8.069050  -14.529600
  H    -133.452000    7.183280  -14.843100
  H    -134.488000    7.732610  -13.648700
  C    -132.797000    9.065840  -14.147600
  H    -133.159000   10.099400  -14.043900
  H    -132.066000    9.130020  -14.925600
  C    -132.239000    8.627260  -12.814600
  H    -131.334000    9.232700  -12.728900
  H    -131.886000    7.648570  -12.868100
  H    -132.748000    8.818040  -11.867300
  H    -139.366000    8.881540  -11.733000
  H    -135.219000    8.875260  -19.063700

 Total Charge           Charge          ....    0
 Multiplicity           Mult            ....    1
 Number of Electrons    NEL             ....  134
 Basis Dimension        Dim             ....  322

ORBITAL ENERGIES
----------------

  NO   OCC          E(Eh)            E(eV)
   0   2.0000     -88.969584     -2420.9855
   1   2.0000     -88.958272     -2420.6777
   2   2.0000     -10.325341      -280.9668
   3   2.0000     -10.324454      -280.9427
   4   2.0000     -10.316375      -280.7228
   5   2.0000     -10.315370      -280.6955
   6   2.0000     -10.307836      -280.4905
   7   2.0000     -10.302157      -280.3359
   8   2.0000     -10.295268      -280.1485
   9   2.0000     -10.290313      -280.0137
  10   2.0000     -10.286396      -279.9071
  11   2.0000     -10.285706      -279.8883
  12   2.0000     -10.283874      -279.8384
  13   2.0000     -10.282091      -279.7899
  14   2.0000     -10.279771      -279.7268
  15   2.0000     -10.270550      -279.4759
  16   2.0000      -8.084266      -219.9841
  17   2.0000      -8.072681      -219.6688
  18   2.0000      -6.042715      -164.4306
  19   2.0000      -6.038738      -164.3224
  20   2.0000      -6.035132      -164.2243
  21   2.0000      -6.031422      -164.1233
  22   2.0000      -6.027234      -164.0094
  23   2.0000      -6.023201      -163.8996
  24   2.0000      -1.007479       -27.4149
  25   2.0000      -0.980780       -26.6884
  26   2.0000      -0.920209       -25.0402
  27   2.0000      -0.905021       -24.6269
  28   2.0000      -0.871340       -23.7104
  29   2.0000      -0.853999       -23.2385
  30   2.0000      -0.845879       -23.0175
  31   2.0000      -0.811841       -22.0913
  32   2.0000      -0.779525       -21.2120
  33   2.0000      -0.771166       -20.9845
  34   2.0000      -0.709815       -19.3151
  35   2.0000      -0.702116       -19.1056
  36   2.0000      -0.695469       -18.9247
  37   2.0000      -0.656634       -17.8679
  38   2.0000      -0.644899       -17.5486
  39   2.0000      -0.623781       -16.9739
  40   2.0000      -0.591385       -16.0924
  41   2.0000      -0.578775       -15.7493
  42   2.0000      -0.566345       -15.4110
  43   2.0000      -0.561912       -15.2904
  44   2.0000      -0.527847       -14.3634
  45   2.0000      -0.523060       -14.2332
  46   2.0000      -0.515905       -14.0385
  47   2.0000      -0.509615       -13.8673
  48   2.0000      -0.507680       -13.8147
  49   2.0000      -0.496106       -13.4997
  50   2.0000      -0.490325       -13.3424
  51   2.0000      -0.478758       -13.0277
  52   2.0000      -0.473578       -12.8867
  53   2.0000      -0.468619       -12.7518
  54   2.0000      -0.456126       -12.4118
  55   2.0000      -0.454684       -12.3726
  56   2.0000      -0.448205       -12.1963
  57   2.0000      -0.437127       -11.8948
  58   2.0000      -0.429173       -11.6784
  59   2.0000      -0.422908       -11.5079
  60   2.0000      -0.422010       -11.4835
  61   2.0000      -0.415311       -11.3012
  62   2.0000      -0.403639       -10.9836
  63   2.0000      -0.338263        -9.2046
  64   2.0000      -0.331688        -9.0257
  65   2.0000      -0.322137        -8.7658
  66   2.0000      -0.301789        -8.2121
  67   0.0000       0.040764         1.1093
  68   0.0000       0.054306         1.4778
  69   0.0000       0.118416         3.2223
  70   0.0000       0.121362         3.3024
  71   0.0000       0.127196         3.4612

MULLIKEN ATOMIC CHARGES
-----------------------
   0 S :    0.132720
   1 C :   -0.100133
   2 C :   -0.094729
   3 C :    0.054648
   4 C :   -0.168043
   5 H :    0.006831
   6 C :    0.063733
   7 H :    0.047659
   8 H :   -0.006349
   9 C :   -0.050813
  10 H :    0.015549
  11 H :    0.031252
  12 C :   -0.065283
  13 H :    0.038827
  14 H :    0.031727
  15 H :    0.025628
  16 S :    0.080162
  17 C :   -0.071057
  18 C :   -0.079334
  19 C :    0.016511
  20 C :   -0.180995
  21 H :    0.039048
  22 C :    0.054740
  23 H :    0.016597
  24 H :    0.034131
  25 C :   -0.075692
  26 H :    0.028210
  27 H :    0.023768
  28 C :   -0.027939
  29 H :    0.016709
  30 H :    0.014019
  31 H :    0.047622
  32 H :    0.041391
  33 H :    0.058884
Sum of atomic charges:   -0.0000000

LOEWDIN ATOMIC CHARGES
----------------------
   0 S :    0.429115
   1 C :   -0.208375
   2 C :   -0.067736
   3 C :   -0.052203
   4 C :   -0.202633
   5 H :    0.030677
   6 C :   -0.042079
   7 H :    0.041341
   8 H :    0.024010
   9 C :   -0.033554
  10 H :    0.015321
  11 H :    0.024898
  12 C :   -0.056878
  13 H :    0.026167
  14 H :    0.025021
  15 H :    0.020009
  16 S :    0.367787
  17 C :   -0.188766
  18 C :   -0.080150
  19 C :   -0.052001
  20 C :   -0.174778
  21 H :    0.037286
  22 C :   -0.025015
  23 H :    0.028021
  24 H :    0.031671
  25 C :   -0.033294
  26 H :    0.024174
  27 H :    0.019824
  28 C :   -0.065516
  29 H :    0.029192
  30 H :    0.015576
  31 H :    0.031152
  32 H :    0.029604
  33 H :    0.032133

  Mayer bond orders larger than 0.100000
B(  0-S ,  1-C ) :   1.1536 B(  0-S ,  4-C ) :   1.1614 B(  1-C ,  2-C ) :   1.5687
B(  1-C ,  4-C ) :   0.1075 B(  1-C , 32-H ) :   0.9695 B(  2-C ,  3-C ) :   1.2638
B(  2-C ,  6-C ) :   1.0334 B(  3-C ,  4-C ) :   1.5555 B(  3-C ,  5-H ) :   1.0047
B(  4-C , 20-C ) :   1.0071 B(  6-C ,  7-H ) :   0.9256 B(  6-C ,  8-H ) :   0.9396
B(  6-C ,  9-C ) :   1.0746 B(  9-C , 10-H ) :   0.9447 B(  9-C , 11-H ) :   0.9558
B(  9-C , 12-C ) :   1.0839 B( 12-C , 13-H ) :   0.9756 B( 12-C , 14-H ) :   0.9756
B( 12-C , 15-H ) :   0.9748 B( 16-S , 17-C ) :   1.1366 B( 16-S , 20-C ) :   1.1036
B( 17-C , 18-C ) :   1.6683 B( 17-C , 33-H ) :   0.9634 B( 18-C , 19-C ) :   1.1742
B( 18-C , 21-H ) :   0.9771 B( 19-C , 20-C ) :   1.6982 B( 19-C , 22-C ) :   1.0264
B( 22-C , 23-H ) :   0.9348 B( 22-C , 24-H ) :   0.9519 B( 22-C , 25-C ) :   1.0493
B( 25-C , 26-H ) :   0.9585 B( 25-C , 27-H ) :   0.9563 B( 25-C , 28-C ) :   1.0899
B( 28-C , 29-H ) :   0.9685 B( 28-C , 30-H ) :   0.9701 B( 28-C , 31-H ) :   0.9758

Dispersion correction           -0.013525503
FINAL SINGLE POINT ENERGY     -1339.855706780260

DIPOLE MOMENT
-------------
                                X             Y             Z
Electronic contribution:    -13.11592     -15.42712     -18.95808
Nuclear contribution   :     13.59942      15.86832      19.30017
                        -----------------------------------------
Total Dipole Moment    :      0.48350       0.44120       0.34209
                        -----------------------------------------
Magnitude (a.u.)       :      0.73855
Magnitude (Debye)      :      1.87724

Rotational constants in cm-1:     0.016395     0.008345     0.006933
Rotational constants in MHz :   491.506038   250.169644   207.838666

                             ****ORCA TERMINATED NORMALLY****
TOTAL RUN TIME: 0 days 0 hours 0 minutes 19 seconds 870 msec
