                         Program Version 4.2.1 -  RELEASE  -
|  1> ! wB97X-D3 SP def2-SVP
|  2> %pal
|  3> nprocs 24
|  4> end
|  5>
|  6> * xyz 0 1
|  7> S 	 -130.063 	 65.7068 	 -56.1174
|  8> C 	 -128.455 	 65.8097 	 -55.4753
|  9> C 	 -127.676 	 66.6021 	 -56.3179
| 10> C 	 -128.361 	 67.0469 	 -57.4861
| 11> C 	 -129.689 	 66.8192 	 -57.4884
| 12> H 	 -127.981 	 67.7235 	 -58.1968
| 13> C 	 -126.311 	 67.2076 	 -56.0045
| 14> H 	 -126.137 	 67.1006 	 -54.9836
| 15> H 	 -126.538 	 68.2951 	 -56.1685
| 16> C 	 -125.169 	 66.9277 	 -56.8991
| 17> H 	 -125.113 	 65.8782 	 -57.1128
| 18> H 	 -125.132 	 67.342 	 -57.9153
| 19> C 	 -123.814 	 67.3505 	 -56.242
| 20> H 	 -123.644 	 67.0042 	 -55.2244
| 21> H 	 -123.037 	 67.2062 	 -56.914
| 22> H 	 -123.742 	 68.3766 	 -56.001
| 23> S 	 -131.552 	 68.8382 	 -58.1327
| 24> C 	 -132.199 	 68.9756 	 -59.749
| 25> C 	 -131.802 	 67.9045 	 -60.4783
| 26> C 	 -130.945 	 67.0297 	 -59.8075
| 27> C 	 -130.644 	 67.3233 	 -58.457
| 28> H 	 -132.25 	 67.7988 	 -61.5528
| 29> C 	 -130.272 	 65.9628 	 -60.6614
| 30> H 	 -129.391 	 65.7681 	 -60.1331
| 31> H 	 -130.172 	 66.2426 	 -61.7018
| 32> C 	 -130.965 	 64.5968 	 -60.6888
| 33> H 	 -132.056 	 64.7839 	 -60.791
| 34> H 	 -131.049 	 64.0184 	 -59.7691
| 35> C 	 -130.577 	 63.7298 	 -61.9077
| 36> H 	 -130.87 	 64.1544 	 -62.8525
| 37> H 	 -131.199 	 62.8361 	 -61.7754
| 38> H 	 -129.557 	 63.4786 	 -61.8849
| 39> H 	 -128.207 	 65.6016 	 -54.41
| 40> H 	 -132.78 	 69.8118 	 -60.0737
| 41> *
| 42>
| 43>                          ****END OF INPUT****

CARTESIAN COORDINATES (ANGSTROEM)
---------------------------------
  S    -130.063000   65.706800  -56.117400
  C    -128.455000   65.809700  -55.475300
  C    -127.676000   66.602100  -56.317900
  C    -128.361000   67.046900  -57.486100
  C    -129.689000   66.819200  -57.488400
  H    -127.981000   67.723500  -58.196800
  C    -126.311000   67.207600  -56.004500
  H    -126.137000   67.100600  -54.983600
  H    -126.538000   68.295100  -56.168500
  C    -125.169000   66.927700  -56.899100
  H    -125.113000   65.878200  -57.112800
  H    -125.132000   67.342000  -57.915300
  C    -123.814000   67.350500  -56.242000
  H    -123.644000   67.004200  -55.224400
  H    -123.037000   67.206200  -56.914000
  H    -123.742000   68.376600  -56.001000
  S    -131.552000   68.838200  -58.132700
  C    -132.199000   68.975600  -59.749000
  C    -131.802000   67.904500  -60.478300
  C    -130.945000   67.029700  -59.807500
  C    -130.644000   67.323300  -58.457000
  H    -132.250000   67.798800  -61.552800
  C    -130.272000   65.962800  -60.661400
  H    -129.391000   65.768100  -60.133100
  H    -130.172000   66.242600  -61.701800
  C    -130.965000   64.596800  -60.688800
  H    -132.056000   64.783900  -60.791000
  H    -131.049000   64.018400  -59.769100
  C    -130.577000   63.729800  -61.907700
  H    -130.870000   64.154400  -62.852500
  H    -131.199000   62.836100  -61.775400
  H    -129.557000   63.478600  -61.884900
  H    -128.207000   65.601600  -54.410000
  H    -132.780000   69.811800  -60.073700

 Total Charge           Charge          ....    0
 Multiplicity           Mult            ....    1
 Number of Electrons    NEL             ....  134
 Basis Dimension        Dim             ....  322

ORBITAL ENERGIES
----------------

  NO   OCC          E(Eh)            E(eV)
   0   2.0000     -88.962621     -2420.7960
   1   2.0000     -88.962264     -2420.7863
   2   2.0000     -10.333435      -281.1871
   3   2.0000     -10.332603      -281.1644
   4   2.0000     -10.319024      -280.7949
   5   2.0000     -10.317983      -280.7666
   6   2.0000     -10.305965      -280.4396
   7   2.0000     -10.303039      -280.3599
   8   2.0000     -10.296552      -280.1834
   9   2.0000     -10.290033      -280.0060
  10   2.0000     -10.289457      -279.9904
  11   2.0000     -10.286144      -279.9002
  12   2.0000     -10.281603      -279.7766
  13   2.0000     -10.280365      -279.7429
  14   2.0000     -10.271735      -279.5081
  15   2.0000     -10.270495      -279.4744
  16   2.0000      -8.076992      -219.7861
  17   2.0000      -8.076636      -219.7764
  18   2.0000      -6.035626      -164.2377
  19   2.0000      -6.035102      -164.2235
  20   2.0000      -6.031522      -164.1261
  21   2.0000      -6.031047      -164.1131
  22   2.0000      -6.027633      -164.0202
  23   2.0000      -6.027577      -164.0187
  24   2.0000      -1.005135       -27.3511
  25   2.0000      -0.986609       -26.8470
  26   2.0000      -0.916189       -24.9308
  27   2.0000      -0.906796       -24.6752
  28   2.0000      -0.875579       -23.8257
  29   2.0000      -0.849632       -23.1197
  30   2.0000      -0.847112       -23.0511
  31   2.0000      -0.819064       -22.2879
  32   2.0000      -0.783094       -21.3091
  33   2.0000      -0.771969       -21.0063
  34   2.0000      -0.715666       -19.4743
  35   2.0000      -0.703038       -19.1306
  36   2.0000      -0.693151       -18.8616
  37   2.0000      -0.657371       -17.8880
  38   2.0000      -0.647727       -17.6255
  39   2.0000      -0.624840       -17.0028
  40   2.0000      -0.599253       -16.3065
  41   2.0000      -0.569823       -15.5057
  42   2.0000      -0.564481       -15.3603
  43   2.0000      -0.561548       -15.2805
  44   2.0000      -0.538983       -14.6665
  45   2.0000      -0.526832       -14.3358
  46   2.0000      -0.520320       -14.1586
  47   2.0000      -0.513675       -13.9778
  48   2.0000      -0.507674       -13.8145
  49   2.0000      -0.499247       -13.5852
  50   2.0000      -0.489994       -13.3334
  51   2.0000      -0.479861       -13.0577
  52   2.0000      -0.473959       -12.8971
  53   2.0000      -0.470179       -12.7942
  54   2.0000      -0.460862       -12.5407
  55   2.0000      -0.453983       -12.3535
  56   2.0000      -0.444615       -12.0986
  57   2.0000      -0.444033       -12.0828
  58   2.0000      -0.432146       -11.7593
  59   2.0000      -0.415034       -11.2936
  60   2.0000      -0.411372       -11.1940
  61   2.0000      -0.407358       -11.0848
  62   2.0000      -0.399589       -10.8734
  63   2.0000      -0.340238        -9.2584
  64   2.0000      -0.329195        -8.9578
  65   2.0000      -0.319266        -8.6877
  66   2.0000      -0.310780        -8.4568
  67   0.0000       0.036189         0.9848
  68   0.0000       0.049500         1.3470
  69   0.0000       0.113762         3.0956
  70   0.0000       0.124077         3.3763
  71   0.0000       0.128491         3.4964

MULLIKEN ATOMIC CHARGES
-----------------------
   0 S :    0.096853
   1 C :   -0.126530
   2 C :   -0.097176
   3 C :    0.074079
   4 C :   -0.174867
   5 H :    0.002901
   6 C :    0.078475
   7 H :    0.000410
   8 H :    0.040428
   9 C :   -0.056089
  10 H :    0.024033
  11 H :    0.030896
  12 C :   -0.019394
  13 H :    0.022455
  14 H :    0.020542
  15 H :    0.003511
  16 S :    0.087550
  17 C :   -0.092024
  18 C :   -0.061210
  19 C :   -0.037534
  20 C :   -0.159520
  21 H :    0.057792
  22 C :    0.142603
  23 H :    0.009173
  24 H :    0.019481
  25 C :   -0.122009
  26 H :    0.009748
  27 H :    0.029239
  28 C :   -0.021607
  29 H :    0.028001
  30 H :    0.030879
  31 H :    0.029549
  32 H :    0.072811
  33 H :    0.056550
Sum of atomic charges:   -0.0000000

LOEWDIN ATOMIC CHARGES
----------------------
   0 S :    0.382299
   1 C :   -0.210588
   2 C :   -0.061538
   3 C :   -0.048401
   4 C :   -0.181305
   5 H :    0.028126
   6 C :   -0.030625
   7 H :    0.020884
   8 H :    0.044213
   9 C :   -0.040093
  10 H :    0.021582
  11 H :    0.029044
  12 C :   -0.060370
  13 H :    0.026300
  14 H :    0.018303
  15 H :    0.019972
  16 S :    0.392516
  17 C :   -0.173518
  18 C :   -0.094442
  19 C :   -0.048085
  20 C :   -0.198626
  21 H :    0.052000
  22 C :   -0.024421
  23 H :    0.024846
  24 H :    0.031490
  25 C :   -0.047622
  26 H :    0.020668
  27 H :    0.024684
  28 C :   -0.057772
  29 H :    0.021278
  30 H :    0.032374
  31 H :    0.016716
  32 H :    0.040901
  33 H :    0.029210

  Mayer bond orders larger than 0.100000
B(  0-S ,  1-C ) :   1.1358 B(  0-S ,  4-C ) :   1.1192 B(  1-C ,  2-C ) :   1.6210
B(  1-C , 32-H ) :   0.9587 B(  2-C ,  3-C ) :   1.2161 B(  2-C ,  6-C ) :   1.0216
B(  3-C ,  4-C ) :   1.6238 B(  3-C ,  5-H ) :   0.9961 B(  4-C , 20-C ) :   1.0401
B(  6-C ,  7-H ) :   0.9470 B(  6-C ,  8-H ) :   0.9376 B(  6-C ,  9-C ) :   1.0559
B(  9-C , 10-H ) :   0.9569 B(  9-C , 11-H ) :   0.9501 B(  9-C , 12-C ) :   1.0844
B( 12-C , 13-H ) :   0.9741 B( 12-C , 14-H ) :   0.9746 B( 12-C , 15-H ) :   0.9695
B( 16-S , 17-C ) :   1.1805 B( 16-S , 20-C ) :   1.1238 B( 17-C , 18-C ) :   1.5813
B( 17-C , 20-C ) :   0.1082 B( 17-C , 33-H ) :   0.9703 B( 18-C , 19-C ) :   1.2700
B( 18-C , 21-H ) :   0.9742 B( 19-C , 20-C ) :   1.5685 B( 19-C , 22-C ) :   1.0474
B( 22-C , 23-H ) :   0.9178 B( 22-C , 24-H ) :   0.9434 B( 22-C , 25-C ) :   1.0564
B( 25-C , 26-H ) :   0.9548 B( 25-C , 27-H ) :   0.9550 B( 25-C , 28-C ) :   1.0839
B( 28-C , 29-H ) :   0.9748 B( 28-C , 30-H ) :   0.9721 B( 28-C , 31-H ) :   0.9774

Dispersion correction           -0.013535320
FINAL SINGLE POINT ENERGY     -1339.843124938752

DIPOLE MOMENT
-------------
                                X             Y             Z
Electronic contribution:    -19.60617       8.56103      10.59941
Nuclear contribution   :     20.04485      -8.33452     -10.96646
                        -----------------------------------------
Total Dipole Moment    :      0.43869       0.22652      -0.36705
                        -----------------------------------------
Magnitude (a.u.)       :      0.61521
Magnitude (Debye)      :      1.56375

Rotational constants in cm-1:     0.017318     0.007481     0.006653
Rotational constants in MHz :   519.194697   224.260335   199.466292

                             ****ORCA TERMINATED NORMALLY****
TOTAL RUN TIME: 0 days 0 hours 0 minutes 20 seconds 780 msec
