                         Program Version 4.2.1 -  RELEASE  -
|  1> ! wB97X-D3 SP def2-SVP
|  2> %pal
|  3> nprocs 24
|  4> end
|  5>
|  6> * xyz 0 1
|  7> S 	 -113.206 	 18.2828 	 -114.35
|  8> C 	 -114.835 	 18.7646 	 -113.998
|  9> C 	 -115.804 	 17.7961 	 -114.253
| 10> C 	 -115.194 	 16.6471 	 -114.791
| 11> C 	 -113.816 	 16.7036 	 -114.875
| 12> H 	 -115.62 	 15.7918 	 -115.176
| 13> C 	 -117.305 	 17.9739 	 -114.024
| 14> H 	 -117.405 	 18.506 	 -113.097
| 15> H 	 -117.721 	 16.9729 	 -113.84
| 16> C 	 -118.112 	 18.7139 	 -115.094
| 17> H 	 -119.101 	 19.1716 	 -114.743
| 18> H 	 -117.473 	 19.5423 	 -115.398
| 19> C 	 -118.398 	 17.8214 	 -116.341
| 20> H 	 -119.009 	 18.2794 	 -117.122
| 21> H 	 -117.443 	 17.6015 	 -116.75
| 22> H 	 -118.908 	 16.8283 	 -116.17
| 23> S 	 -111.728 	 14.9983 	 -114.335
| 24> C 	 -110.865 	 14.2808 	 -115.565
| 25> C 	 -111.626 	 14.233 	 -116.747
| 26> C 	 -112.842 	 15.0149 	 -116.653
| 27> C 	 -112.913 	 15.6782 	 -115.418
| 28> H 	 -111.262 	 13.8316 	 -117.621
| 29> C 	 -113.748 	 15.2014 	 -117.845
| 30> H 	 -114.627 	 15.707 	 -117.435
| 31> H 	 -114.261 	 14.276 	 -118.035
| 32> C 	 -113.244 	 15.7884 	 -119.127
| 33> H 	 -112.177 	 15.606 	 -119.281
| 34> H 	 -113.256 	 16.8634 	 -118.881
| 35> C 	 -113.991 	 15.5212 	 -120.337
| 36> H 	 -115.073 	 15.4643 	 -120.195
| 37> H 	 -113.769 	 14.4723 	 -120.726
| 38> H 	 -113.828 	 16.0537 	 -121.283
| 39> H 	 -114.95 	 19.7707 	 -113.693
| 40> H 	 -109.895 	 13.7791 	 -115.505
| 41> *
| 42>
| 43>                          ****END OF INPUT****

CARTESIAN COORDINATES (ANGSTROEM)
---------------------------------
  S    -113.206000   18.282800  -114.350000
  C    -114.835000   18.764600  -113.998000
  C    -115.804000   17.796100  -114.253000
  C    -115.194000   16.647100  -114.791000
  C    -113.816000   16.703600  -114.875000
  H    -115.620000   15.791800  -115.176000
  C    -117.305000   17.973900  -114.024000
  H    -117.405000   18.506000  -113.097000
  H    -117.721000   16.972900  -113.840000
  C    -118.112000   18.713900  -115.094000
  H    -119.101000   19.171600  -114.743000
  H    -117.473000   19.542300  -115.398000
  C    -118.398000   17.821400  -116.341000
  H    -119.009000   18.279400  -117.122000
  H    -117.443000   17.601500  -116.750000
  H    -118.908000   16.828300  -116.170000
  S    -111.728000   14.998300  -114.335000
  C    -110.865000   14.280800  -115.565000
  C    -111.626000   14.233000  -116.747000
  C    -112.842000   15.014900  -116.653000
  C    -112.913000   15.678200  -115.418000
  H    -111.262000   13.831600  -117.621000
  C    -113.748000   15.201400  -117.845000
  H    -114.627000   15.707000  -117.435000
  H    -114.261000   14.276000  -118.035000
  C    -113.244000   15.788400  -119.127000
  H    -112.177000   15.606000  -119.281000
  H    -113.256000   16.863400  -118.881000
  C    -113.991000   15.521200  -120.337000
  H    -115.073000   15.464300  -120.195000
  H    -113.769000   14.472300  -120.726000
  H    -113.828000   16.053700  -121.283000
  H    -114.950000   19.770700  -113.693000
  H    -109.895000   13.779100  -115.505000

 Total Charge           Charge          ....    0
 Multiplicity           Mult            ....    1
 Number of Electrons    NEL             ....  134
 Basis Dimension        Dim             ....  322

ORBITAL ENERGIES
----------------

  NO   OCC          E(Eh)            E(eV)
   0   2.0000     -88.968358     -2420.9521
   1   2.0000     -88.962608     -2420.7956
   2   2.0000     -10.328917      -281.0641
   3   2.0000     -10.324935      -280.9558
   4   2.0000     -10.314846      -280.6812
   5   2.0000     -10.312413      -280.6150
   6   2.0000     -10.306301      -280.4487
   7   2.0000     -10.305496      -280.4268
   8   2.0000     -10.296110      -280.1714
   9   2.0000     -10.294071      -280.1159
  10   2.0000     -10.290047      -280.0064
  11   2.0000     -10.286926      -279.9215
  12   2.0000     -10.286556      -279.9114
  13   2.0000     -10.281689      -279.7790
  14   2.0000     -10.280121      -279.7363
  15   2.0000     -10.279540      -279.7205
  16   2.0000      -8.083137      -219.9534
  17   2.0000      -8.079112      -219.8438
  18   2.0000      -6.041386      -164.3945
  19   2.0000      -6.037660      -164.2931
  20   2.0000      -6.037388      -164.2857
  21   2.0000      -6.034149      -164.1975
  22   2.0000      -6.033334      -164.1754
  23   2.0000      -6.030038      -164.0857
  24   2.0000      -1.008691       -27.4479
  25   2.0000      -0.988559       -26.9001
  26   2.0000      -0.920440       -25.0465
  27   2.0000      -0.909517       -24.7492
  28   2.0000      -0.867634       -23.6095
  29   2.0000      -0.856201       -23.2984
  30   2.0000      -0.850645       -23.1472
  31   2.0000      -0.813332       -22.1319
  32   2.0000      -0.787535       -21.4299
  33   2.0000      -0.772989       -21.0341
  34   2.0000      -0.708204       -19.2712
  35   2.0000      -0.702205       -19.1080
  36   2.0000      -0.692956       -18.8563
  37   2.0000      -0.662951       -18.0398
  38   2.0000      -0.653173       -17.7737
  39   2.0000      -0.619163       -16.8483
  40   2.0000      -0.601122       -16.3574
  41   2.0000      -0.572902       -15.5895
  42   2.0000      -0.558335       -15.1931
  43   2.0000      -0.552001       -15.0207
  44   2.0000      -0.541657       -14.7392
  45   2.0000      -0.531930       -14.4745
  46   2.0000      -0.520913       -14.1748
  47   2.0000      -0.514343       -13.9960
  48   2.0000      -0.507830       -13.8188
  49   2.0000      -0.496809       -13.5189
  50   2.0000      -0.487186       -13.2570
  51   2.0000      -0.484771       -13.1913
  52   2.0000      -0.472495       -12.8572
  53   2.0000      -0.465850       -12.6764
  54   2.0000      -0.462659       -12.5896
  55   2.0000      -0.449176       -12.2227
  56   2.0000      -0.447328       -12.1724
  57   2.0000      -0.437517       -11.9054
  58   2.0000      -0.432595       -11.7715
  59   2.0000      -0.428332       -11.6555
  60   2.0000      -0.424152       -11.5418
  61   2.0000      -0.416224       -11.3260
  62   2.0000      -0.394141       -10.7251
  63   2.0000      -0.341842        -9.3020
  64   2.0000      -0.334556        -9.1037
  65   2.0000      -0.324084        -8.8188
  66   2.0000      -0.295798        -8.0491
  67   0.0000       0.031172         0.8482
  68   0.0000       0.065617         1.7855
  69   0.0000       0.110758         3.0139
  70   0.0000       0.119078         3.2403
  71   0.0000       0.126642         3.4461

MULLIKEN ATOMIC CHARGES
-----------------------
   0 S :    0.123820
   1 C :   -0.126432
   2 C :   -0.071078
   3 C :    0.072649
   4 C :   -0.181351
   5 H :   -0.020745
   6 C :    0.089638
   7 H :    0.025729
   8 H :    0.023824
   9 C :   -0.062528
  10 H :    0.044392
  11 H :    0.028657
  12 C :   -0.074999
  13 H :    0.036881
  14 H :    0.024736
  15 H :    0.034034
  16 S :    0.129571
  17 C :   -0.090719
  18 C :   -0.025290
  19 C :   -0.033093
  20 C :   -0.195683
  21 H :   -0.013301
  22 C :    0.095330
  23 H :   -0.003248
  24 H :    0.011211
  25 C :   -0.023522
  26 H :    0.027792
  27 H :    0.032171
  28 C :   -0.069423
  29 H :    0.027783
  30 H :    0.020618
  31 H :    0.040171
  32 H :    0.038450
  33 H :    0.063957
Sum of atomic charges:   -0.0000000

LOEWDIN ATOMIC CHARGES
----------------------
   0 S :    0.412752
   1 C :   -0.184551
   2 C :   -0.063767
   3 C :   -0.048970
   4 C :   -0.194018
   5 H :    0.018905
   6 C :   -0.029896
   7 H :    0.032653
   8 H :    0.031089
   9 C :   -0.040811
  10 H :    0.030811
  11 H :    0.025248
  12 C :   -0.074020
  13 H :    0.025950
  14 H :    0.018980
  15 H :    0.028683
  16 S :    0.445442
  17 C :   -0.214136
  18 C :   -0.066079
  19 C :   -0.047422
  20 C :   -0.211488
  21 H :    0.013323
  22 C :   -0.038662
  23 H :    0.030348
  24 H :    0.029429
  25 C :   -0.052258
  26 H :    0.027303
  27 H :    0.033229
  28 C :   -0.076615
  29 H :    0.025268
  30 H :    0.030256
  31 H :    0.032104
  32 H :    0.015808
  33 H :    0.035113

  Mayer bond orders larger than 0.100000
B(  0-S ,  1-C ) :   1.1704 B(  0-S ,  4-C ) :   1.1545 B(  1-C ,  2-C ) :   1.5738
B(  1-C ,  4-C ) :   0.1040 B(  1-C , 32-H ) :   0.9765 B(  2-C ,  3-C ) :   1.2428
B(  2-C ,  6-C ) :   1.0164 B(  3-C ,  4-C ) :   1.5743 B(  3-C ,  5-H ) :   1.0078
B(  4-C , 20-C ) :   1.0244 B(  6-C ,  7-H ) :   0.9344 B(  6-C ,  8-H ) :   0.9438
B(  6-C ,  9-C ) :   1.0616 B(  9-C , 10-H ) :   0.9593 B(  9-C , 11-H ) :   0.9552
B(  9-C , 12-C ) :   1.0677 B( 12-C , 13-H ) :   0.9755 B( 12-C , 14-H ) :   0.9780
B( 12-C , 15-H ) :   0.9771 B( 16-S , 17-C ) :   1.1812 B( 16-S , 20-C ) :   1.1671
B( 17-C , 18-C ) :   1.5707 B( 17-C , 33-H ) :   0.9673 B( 18-C , 19-C ) :   1.2499
B( 18-C , 21-H ) :   1.0035 B( 19-C , 20-C ) :   1.5630 B( 19-C , 22-C ) :   1.0553
B( 22-C , 23-H ) :   0.9125 B( 22-C , 24-H ) :   0.9236 B( 22-C , 25-C ) :   1.0449
B( 25-C , 26-H ) :   0.9591 B( 25-C , 27-H ) :   0.9458 B( 25-C , 28-C ) :   1.0866
B( 28-C , 29-H ) :   0.9729 B( 28-C , 30-H ) :   0.9651 B( 28-C , 31-H ) :   0.9717

Dispersion correction           -0.014214444
FINAL SINGLE POINT ENERGY     -1339.865570267461

DIPOLE MOMENT
-------------
                                X             Y             Z
Electronic contribution:     21.59942      -1.36698      20.71271
Nuclear contribution   :    -21.98933       1.40284     -21.13105
                        -----------------------------------------
Total Dipole Moment    :     -0.38991       0.03586      -0.41834
                        -----------------------------------------
Magnitude (a.u.)       :      0.57300
Magnitude (Debye)      :      1.45644

Rotational constants in cm-1:     0.016703     0.009286     0.006701
Rotational constants in MHz :   500.757015   278.376511   200.898108

                             ****ORCA TERMINATED NORMALLY****
TOTAL RUN TIME: 0 days 0 hours 0 minutes 21 seconds 634 msec
