                         Program Version 4.2.1 -  RELEASE  -
|  1> ! wB97X-D3 SP def2-SVP
|  2> %pal
|  3> nprocs 24
|  4> end
|  5>
|  6> * xyz 0 1
|  7> S 	 -51.8507 	 18.1656 	 28.4845
|  8> C 	 -52.5124 	 18.7662 	 26.8881
|  9> C 	 -52.1183 	 17.9524 	 25.8362
| 10> C 	 -51.3363 	 16.8133 	 26.2873
| 11> C 	 -51.0762 	 16.7301 	 27.6577
| 12> H 	 -50.8152 	 16.1848 	 25.6061
| 13> C 	 -52.4141 	 18.1584 	 24.3519
| 14> H 	 -51.5233 	 17.8648 	 23.7619
| 15> H 	 -52.4984 	 19.214 	 24.2083
| 16> C 	 -53.6395 	 17.3411 	 23.8767
| 17> H 	 -53.5173 	 16.3763 	 24.3117
| 18> H 	 -54.5364 	 17.6865 	 24.4214
| 19> C 	 -53.8529 	 17.2032 	 22.3501
| 20> H 	 -52.8892 	 16.9926 	 21.9186
| 21> H 	 -54.6127 	 16.4429 	 22.1233
| 22> H 	 -54.2443 	 18.0921 	 21.8798
| 23> S 	 -50.6095 	 15.5781 	 30.1212
| 24> C 	 -49.5756 	 14.0991 	 30.199
| 25> C 	 -48.8383 	 14.0056 	 29.0219
| 26> C 	 -49.2027 	 14.8954 	 27.9777
| 27> C 	 -50.3431 	 15.6671 	 28.3649
| 28> H 	 -48.0686 	 13.3541 	 29.0247
| 29> C 	 -48.4681 	 14.9961 	 26.6551
| 30> H 	 -49.1036 	 14.6458 	 25.8682
| 31> H 	 -47.6412 	 14.2041 	 26.6254
| 32> C 	 -47.8264 	 16.415 	 26.3016
| 33> H 	 -48.6526 	 17.0929 	 26.1896
| 34> H 	 -47.2078 	 16.3034 	 25.4472
| 35> C 	 -46.9364 	 16.929 	 27.496
| 36> H 	 -46.2525 	 17.6908 	 27.1472
| 37> H 	 -46.354 	 16.071 	 27.7551
| 38> H 	 -47.4718 	 17.2523 	 28.3843
| 39> H 	 -53.1416 	 19.6362 	 26.8072
| 40> H 	 -49.3578 	 13.5046 	 31.1119
| 41> *
| 42>
| 43>                          ****END OF INPUT****

CARTESIAN COORDINATES (ANGSTROEM)
---------------------------------
  S    -51.850700   18.165600   28.484500
  C    -52.512400   18.766200   26.888100
  C    -52.118300   17.952400   25.836200
  C    -51.336300   16.813300   26.287300
  C    -51.076200   16.730100   27.657700
  H    -50.815200   16.184800   25.606100
  C    -52.414100   18.158400   24.351900
  H    -51.523300   17.864800   23.761900
  H    -52.498400   19.214000   24.208300
  C    -53.639500   17.341100   23.876700
  H    -53.517300   16.376300   24.311700
  H    -54.536400   17.686500   24.421400
  C    -53.852900   17.203200   22.350100
  H    -52.889200   16.992600   21.918600
  H    -54.612700   16.442900   22.123300
  H    -54.244300   18.092100   21.879800
  S    -50.609500   15.578100   30.121200
  C    -49.575600   14.099100   30.199000
  C    -48.838300   14.005600   29.021900
  C    -49.202700   14.895400   27.977700
  C    -50.343100   15.667100   28.364900
  H    -48.068600   13.354100   29.024700
  C    -48.468100   14.996100   26.655100
  H    -49.103600   14.645800   25.868200
  H    -47.641200   14.204100   26.625400
  C    -47.826400   16.415000   26.301600
  H    -48.652600   17.092900   26.189600
  H    -47.207800   16.303400   25.447200
  C    -46.936400   16.929000   27.496000
  H    -46.252500   17.690800   27.147200
  H    -46.354000   16.071000   27.755100
  H    -47.471800   17.252300   28.384300
  H    -53.141600   19.636200   26.807200
  H    -49.357800   13.504600   31.111900

 Total Charge           Charge          ....    0
 Multiplicity           Mult            ....    1
 Number of Electrons    NEL             ....  134
 Basis Dimension        Dim             ....  322

ORBITAL ENERGIES
----------------

  NO   OCC          E(Eh)            E(eV)
   0   2.0000     -88.969857     -2420.9929
   1   2.0000     -88.968133     -2420.9460
   2   2.0000     -10.342379      -281.4304
   3   2.0000     -10.338516      -281.3253
   4   2.0000     -10.326537      -280.9993
   5   2.0000     -10.322753      -280.8964
   6   2.0000     -10.313639      -280.6484
   7   2.0000     -10.308017      -280.4954
   8   2.0000     -10.301944      -280.3302
   9   2.0000     -10.296348      -280.1779
  10   2.0000     -10.296103      -280.1712
  11   2.0000     -10.291879      -280.0563
  12   2.0000     -10.287680      -279.9420
  13   2.0000     -10.286659      -279.9142
  14   2.0000     -10.280059      -279.7346
  15   2.0000     -10.270912      -279.4857
  16   2.0000      -8.083108      -219.9526
  17   2.0000      -8.080377      -219.8782
  18   2.0000      -6.041714      -164.4034
  19   2.0000      -6.039282      -164.3372
  20   2.0000      -6.038089      -164.3048
  21   2.0000      -6.035395      -164.2314
  22   2.0000      -6.033591      -164.1824
  23   2.0000      -6.030698      -164.1036
  24   2.0000      -0.994714       -27.0676
  25   2.0000      -0.970224       -26.4011
  26   2.0000      -0.906947       -24.6793
  27   2.0000      -0.900322       -24.4990
  28   2.0000      -0.866782       -23.5863
  29   2.0000      -0.845117       -22.9968
  30   2.0000      -0.839927       -22.8556
  31   2.0000      -0.813762       -22.1436
  32   2.0000      -0.781800       -21.2739
  33   2.0000      -0.771348       -20.9895
  34   2.0000      -0.711722       -19.3669
  35   2.0000      -0.704702       -19.1759
  36   2.0000      -0.690983       -18.8026
  37   2.0000      -0.666307       -18.1311
  38   2.0000      -0.639062       -17.3898
  39   2.0000      -0.619792       -16.8654
  40   2.0000      -0.590641       -16.0721
  41   2.0000      -0.567759       -15.4495
  42   2.0000      -0.561423       -15.2771
  43   2.0000      -0.551366       -15.0034
  44   2.0000      -0.543959       -14.8019
  45   2.0000      -0.523003       -14.2316
  46   2.0000      -0.514917       -14.0116
  47   2.0000      -0.510524       -13.8921
  48   2.0000      -0.499652       -13.5962
  49   2.0000      -0.497179       -13.5289
  50   2.0000      -0.486456       -13.2371
  51   2.0000      -0.480140       -13.0653
  52   2.0000      -0.469511       -12.7760
  53   2.0000      -0.461109       -12.5474
  54   2.0000      -0.458041       -12.4639
  55   2.0000      -0.447771       -12.1845
  56   2.0000      -0.443583       -12.0705
  57   2.0000      -0.439385       -11.9563
  58   2.0000      -0.433767       -11.8034
  59   2.0000      -0.429399       -11.6845
  60   2.0000      -0.419485       -11.4148
  61   2.0000      -0.417451       -11.3594
  62   2.0000      -0.412169       -11.2157
  63   2.0000      -0.356680        -9.7058
  64   2.0000      -0.335257        -9.1228
  65   2.0000      -0.327224        -8.9042
  66   2.0000      -0.280719        -7.6387
  67   0.0000       0.007734         0.2105
  68   0.0000       0.067614         1.8399
  69   0.0000       0.085325         2.3218
  70   0.0000       0.123077         3.3491
  71   0.0000       0.126264         3.4358

MULLIKEN ATOMIC CHARGES
-----------------------
   0 S :    0.075464
   1 C :   -0.122453
   2 C :   -0.097507
   3 C :    0.021831
   4 C :   -0.113882
   5 H :   -0.002510
   6 C :    0.072906
   7 H :    0.023855
   8 H :    0.018795
   9 C :   -0.069949
  10 H :    0.018296
  11 H :    0.024212
  12 C :   -0.018951
  13 H :    0.026141
  14 H :    0.040627
  15 H :    0.028260
  16 S :    0.085324
  17 C :   -0.100943
  18 C :    0.009216
  19 C :   -0.021375
  20 C :   -0.135711
  21 H :   -0.026405
  22 C :    0.000913
  23 H :    0.041268
  24 H :    0.024550
  25 C :   -0.050050
  26 H :    0.044659
  27 H :    0.030902
  28 C :   -0.048898
  29 H :    0.035140
  30 H :    0.011794
  31 H :    0.052149
  32 H :    0.047997
  33 H :    0.074335
Sum of atomic charges:    0.0000000

LOEWDIN ATOMIC CHARGES
----------------------
   0 S :    0.333382
   1 C :   -0.168925
   2 C :   -0.056415
   3 C :   -0.065301
   4 C :   -0.162298
   5 H :    0.022136
   6 C :   -0.028392
   7 H :    0.031684
   8 H :    0.024478
   9 C :   -0.042054
  10 H :    0.021342
  11 H :    0.026536
  12 C :   -0.062291
  13 H :    0.022820
  14 H :    0.032406
  15 H :    0.023103
  16 S :    0.375569
  17 C :   -0.172790
  18 C :   -0.054947
  19 C :   -0.050004
  20 C :   -0.180405
  21 H :    0.012523
  22 C :   -0.039846
  23 H :    0.026719
  24 H :    0.035064
  25 C :   -0.025294
  26 H :    0.021277
  27 H :    0.020949
  28 C :   -0.061488
  29 H :    0.025180
  30 H :    0.018446
  31 H :    0.029659
  32 H :    0.027273
  33 H :    0.039903

  Mayer bond orders larger than 0.100000
B(  0-S ,  1-C ) :   1.1043 B(  0-S ,  4-C ) :   1.1091 B(  1-C ,  2-C ) :   1.6447
B(  1-C , 32-H ) :   0.9695 B(  2-C ,  3-C ) :   1.2199 B(  2-C ,  6-C ) :   1.0279
B(  3-C ,  4-C ) :   1.5896 B(  3-C ,  5-H ) :   0.9866 B(  4-C , 20-C ) :   1.1038
B(  6-C ,  7-H ) :   0.9393 B(  6-C ,  8-H ) :   0.9404 B(  6-C ,  9-C ) :   1.0543
B(  9-C , 10-H ) :   0.9576 B(  9-C , 11-H ) :   0.9524 B(  9-C , 12-C ) :   1.0750
B( 12-C , 13-H ) :   0.9742 B( 12-C , 14-H ) :   0.9745 B( 12-C , 15-H ) :   0.9766
B( 16-S , 17-C ) :   1.1352 B( 16-S , 20-C ) :   1.1412 B( 17-C , 18-C ) :   1.5992
B( 17-C , 20-C ) :   0.1079 B( 17-C , 33-H ) :   0.9642 B( 18-C , 19-C ) :   1.2615
B( 18-C , 21-H ) :   1.0028 B( 19-C , 20-C ) :   1.5163 B( 19-C , 22-C ) :   1.0340
B( 22-C , 23-H ) :   0.9353 B( 22-C , 24-H ) :   0.9363 B( 22-C , 25-C ) :   1.0614
B( 25-C , 26-H ) :   0.9540 B( 25-C , 27-H ) :   0.9587 B( 25-C , 28-C ) :   1.0763
B( 28-C , 29-H ) :   0.9764 B( 28-C , 30-H ) :   0.9790 B( 28-C , 31-H ) :   0.9732

Dispersion correction           -0.014928421
FINAL SINGLE POINT ENERGY     -1339.864345598769

DIPOLE MOMENT
-------------
                                X             Y             Z
Electronic contribution:     -4.70962      -0.75835      25.95402
Nuclear contribution   :      5.07650       0.60661     -26.60919
                        -----------------------------------------
Total Dipole Moment    :      0.36688      -0.15174      -0.65516
                        -----------------------------------------
Magnitude (a.u.)       :      0.76607
Magnitude (Debye)      :      1.94721

Rotational constants in cm-1:     0.020292     0.008066     0.006995
Rotational constants in MHz :   608.333604   241.816273   209.704749

                             ****ORCA TERMINATED NORMALLY****
TOTAL RUN TIME: 0 days 0 hours 0 minutes 20 seconds 864 msec
