                         Program Version 4.2.1 -  RELEASE  -
|  1> ! wB97X-D3 SP def2-SVP
|  2> %pal
|  3> nprocs 24
|  4> end
|  5>
|  6> * xyz 0 1
|  7> S 	 -77.8665 	 -18.0899 	 -53.4413
|  8> C 	 -79.111 	 -17.3769 	 -52.347
|  9> C 	 -80.3126 	 -17.274 	 -53.0261
| 10> C 	 -80.2031 	 -17.7501 	 -54.3484
| 11> C 	 -78.9615 	 -18.1584 	 -54.8227
| 12> H 	 -81.0301 	 -17.9407 	 -54.9683
| 13> C 	 -81.6131 	 -16.7577 	 -52.4628
| 14> H 	 -81.6249 	 -16.996 	 -51.3378
| 15> H 	 -82.4997 	 -17.2969 	 -52.859
| 16> C 	 -81.9022 	 -15.3306 	 -52.6636
| 17> H 	 -81.0853 	 -14.9007 	 -52.1004
| 18> H 	 -81.8934 	 -14.9499 	 -53.6905
| 19> C 	 -83.1824 	 -14.9044 	 -51.9489
| 20> H 	 -83.4308 	 -13.9237 	 -52.3295
| 21> H 	 -84.0523 	 -15.4607 	 -52.2104
| 22> H 	 -83.1243 	 -14.8056 	 -50.9066
| 23> S 	 -78.4946 	 -20.5731 	 -56.111
| 24> C 	 -78.2238 	 -20.6345 	 -57.8266
| 25> C 	 -78.4296 	 -19.3922 	 -58.3374
| 26> C 	 -78.7065 	 -18.3613 	 -57.3841
| 27> C 	 -78.6204 	 -18.8233 	 -56.0859
| 28> H 	 -78.4175 	 -19.218 	 -59.3994
| 29> C 	 -78.8284 	 -16.8859 	 -57.7605
| 30> H 	 -77.9324 	 -16.5558 	 -58.2654
| 31> H 	 -79.0784 	 -16.3296 	 -56.9568
| 32> C 	 -80.161 	 -16.7501 	 -58.5994
| 33> H 	 -80.2378 	 -17.5841 	 -59.2613
| 34> H 	 -80.0156 	 -15.8582 	 -59.3271
| 35> C 	 -81.4556 	 -16.4395 	 -57.8293
| 36> H 	 -81.725 	 -17.3356 	 -57.1859
| 37> H 	 -82.2422 	 -16.3741 	 -58.5317
| 38> H 	 -81.2624 	 -15.5627 	 -57.1711
| 39> H 	 -79.025 	 -17.0872 	 -51.2756
| 40> H 	 -78.1965 	 -21.5175 	 -58.3952
| 41> *
| 42>
| 43>                          ****END OF INPUT****

CARTESIAN COORDINATES (ANGSTROEM)
---------------------------------
  S    -77.866500  -18.089900  -53.441300
  C    -79.111000  -17.376900  -52.347000
  C    -80.312600  -17.274000  -53.026100
  C    -80.203100  -17.750100  -54.348400
  C    -78.961500  -18.158400  -54.822700
  H    -81.030100  -17.940700  -54.968300
  C    -81.613100  -16.757700  -52.462800
  H    -81.624900  -16.996000  -51.337800
  H    -82.499700  -17.296900  -52.859000
  C    -81.902200  -15.330600  -52.663600
  H    -81.085300  -14.900700  -52.100400
  H    -81.893400  -14.949900  -53.690500
  C    -83.182400  -14.904400  -51.948900
  H    -83.430800  -13.923700  -52.329500
  H    -84.052300  -15.460700  -52.210400
  H    -83.124300  -14.805600  -50.906600
  S    -78.494600  -20.573100  -56.111000
  C    -78.223800  -20.634500  -57.826600
  C    -78.429600  -19.392200  -58.337400
  C    -78.706500  -18.361300  -57.384100
  C    -78.620400  -18.823300  -56.085900
  H    -78.417500  -19.218000  -59.399400
  C    -78.828400  -16.885900  -57.760500
  H    -77.932400  -16.555800  -58.265400
  H    -79.078400  -16.329600  -56.956800
  C    -80.161000  -16.750100  -58.599400
  H    -80.237800  -17.584100  -59.261300
  H    -80.015600  -15.858200  -59.327100
  C    -81.455600  -16.439500  -57.829300
  H    -81.725000  -17.335600  -57.185900
  H    -82.242200  -16.374100  -58.531700
  H    -81.262400  -15.562700  -57.171100
  H    -79.025000  -17.087200  -51.275600
  H    -78.196500  -21.517500  -58.395200

 Total Charge           Charge          ....    0
 Multiplicity           Mult            ....    1
 Number of Electrons    NEL             ....  134
 Basis Dimension        Dim             ....  322

ORBITAL ENERGIES
----------------

  NO   OCC          E(Eh)            E(eV)
   0   2.0000     -88.966121     -2420.8912
   1   2.0000     -88.961433     -2420.7637
   2   2.0000     -10.332630      -281.1652
   3   2.0000     -10.327473      -281.0248
   4   2.0000     -10.323623      -280.9201
   5   2.0000     -10.314336      -280.6673
   6   2.0000     -10.303199      -280.3643
   7   2.0000     -10.300095      -280.2798
   8   2.0000     -10.295571      -280.1567
   9   2.0000     -10.291600      -280.0487
  10   2.0000     -10.290882      -280.0291
  11   2.0000     -10.289715      -279.9974
  12   2.0000     -10.285588      -279.8851
  13   2.0000     -10.285084      -279.8714
  14   2.0000     -10.282148      -279.7915
  15   2.0000     -10.270364      -279.4708
  16   2.0000      -8.079560      -219.8560
  17   2.0000      -8.076672      -219.7774
  18   2.0000      -6.038248      -164.3091
  19   2.0000      -6.035202      -164.2262
  20   2.0000      -6.034095      -164.1961
  21   2.0000      -6.031103      -164.1147
  22   2.0000      -6.030336      -164.0938
  23   2.0000      -6.027358      -164.0127
  24   2.0000      -1.006530       -27.3891
  25   2.0000      -0.984365       -26.7859
  26   2.0000      -0.921958       -25.0877
  27   2.0000      -0.908005       -24.7081
  28   2.0000      -0.873076       -23.7576
  29   2.0000      -0.847129       -23.0515
  30   2.0000      -0.843822       -22.9616
  31   2.0000      -0.816074       -22.2065
  32   2.0000      -0.786004       -21.3883
  33   2.0000      -0.777470       -21.1560
  34   2.0000      -0.706392       -19.2219
  35   2.0000      -0.699534       -19.0353
  36   2.0000      -0.696347       -18.9486
  37   2.0000      -0.655868       -17.8471
  38   2.0000      -0.641619       -17.4593
  39   2.0000      -0.620281       -16.8787
  40   2.0000      -0.606507       -16.5039
  41   2.0000      -0.580089       -15.7850
  42   2.0000      -0.569708       -15.5025
  43   2.0000      -0.561265       -15.2728
  44   2.0000      -0.537096       -14.6151
  45   2.0000      -0.526136       -14.3169
  46   2.0000      -0.522829       -14.2269
  47   2.0000      -0.514419       -13.9981
  48   2.0000      -0.505116       -13.7449
  49   2.0000      -0.500550       -13.6207
  50   2.0000      -0.492058       -13.3896
  51   2.0000      -0.477279       -12.9874
  52   2.0000      -0.474675       -12.9166
  53   2.0000      -0.469132       -12.7657
  54   2.0000      -0.459807       -12.5120
  55   2.0000      -0.450318       -12.2538
  56   2.0000      -0.441293       -12.0082
  57   2.0000      -0.438729       -11.9384
  58   2.0000      -0.431502       -11.7418
  59   2.0000      -0.429540       -11.6884
  60   2.0000      -0.418818       -11.3966
  61   2.0000      -0.410612       -11.1733
  62   2.0000      -0.398660       -10.8481
  63   2.0000      -0.339401        -9.2356
  64   2.0000      -0.331698        -9.0260
  65   2.0000      -0.325378        -8.8540
  66   2.0000      -0.306345        -8.3361
  67   0.0000       0.033978         0.9246
  68   0.0000       0.058680         1.5968
  69   0.0000       0.112915         3.0726
  70   0.0000       0.119539         3.2528
  71   0.0000       0.133772         3.6401

MULLIKEN ATOMIC CHARGES
-----------------------
   0 S :    0.099108
   1 C :   -0.133144
   2 C :   -0.060522
   3 C :    0.059200
   4 C :   -0.175684
   5 H :   -0.015496
   6 C :    0.013896
   7 H :    0.032241
   8 H :    0.022469
   9 C :   -0.050401
  10 H :    0.015173
  11 H :    0.037592
  12 C :   -0.010661
  13 H :    0.017710
  14 H :    0.017468
  15 H :    0.025244
  16 S :    0.100432
  17 C :   -0.060309
  18 C :   -0.031773
  19 C :   -0.073777
  20 C :   -0.142747
  21 H :    0.015265
  22 C :    0.172775
  23 H :    0.046380
  24 H :   -0.014934
  25 C :   -0.148146
  26 H :    0.018627
  27 H :    0.028944
  28 C :   -0.035010
  29 H :    0.035495
  30 H :    0.034502
  31 H :    0.050836
  32 H :    0.062198
  33 H :    0.047051
Sum of atomic charges:    0.0000000

LOEWDIN ATOMIC CHARGES
----------------------
   0 S :    0.386378
   1 C :   -0.185012
   2 C :   -0.069647
   3 C :   -0.055093
   4 C :   -0.194765
   5 H :    0.019565
   6 C :   -0.039714
   7 H :    0.037749
   8 H :    0.028219
   9 C :   -0.042177
  10 H :    0.025707
  11 H :    0.027638
  12 C :   -0.058036
  13 H :    0.028316
  14 H :    0.019981
  15 H :    0.019545
  16 S :    0.407643
  17 C :   -0.175745
  18 C :   -0.072839
  19 C :   -0.051337
  20 C :   -0.203951
  21 H :    0.027602
  22 C :   -0.010505
  23 H :    0.035787
  24 H :    0.012392
  25 C :   -0.041604
  26 H :    0.011734
  27 H :    0.026798
  28 C :   -0.063678
  29 H :    0.028400
  30 H :    0.023741
  31 H :    0.031817
  32 H :    0.040277
  33 H :    0.024816

  Mayer bond orders larger than 0.100000
B(  0-S ,  1-C ) :   1.1407 B(  0-S ,  4-C ) :   1.1407 B(  1-C ,  2-C ) :   1.5984
B(  1-C ,  4-C ) :   0.1040 B(  1-C , 32-H ) :   0.9619 B(  2-C ,  3-C ) :   1.2627
B(  2-C ,  6-C ) :   1.0199 B(  3-C ,  4-C ) :   1.5702 B(  3-C ,  5-H ) :   0.9994
B(  4-C , 20-C ) :   1.0151 B(  6-C ,  7-H ) :   0.9446 B(  6-C ,  8-H ) :   0.9386
B(  6-C ,  9-C ) :   1.0680 B(  9-C , 10-H ) :   0.9475 B(  9-C , 11-H ) :   0.9570
B(  9-C , 12-C ) :   1.0887 B( 12-C , 13-H ) :   0.9701 B( 12-C , 14-H ) :   0.9722
B( 12-C , 15-H ) :   0.9750 B( 16-S , 17-C ) :   1.1555 B( 16-S , 20-C ) :   1.1480
B( 17-C , 18-C ) :   1.6060 B( 17-C , 33-H ) :   0.9738 B( 18-C , 19-C ) :   1.2417
B( 18-C , 21-H ) :   0.9874 B( 19-C , 20-C ) :   1.5970 B( 19-C , 22-C ) :   1.0492
B( 22-C , 23-H ) :   0.9471 B( 22-C , 24-H ) :   0.9252 B( 22-C , 25-C ) :   1.0363
B( 25-C , 26-H ) :   0.9634 B( 25-C , 27-H ) :   0.9551 B( 25-C , 28-C ) :   1.0851
B( 28-C , 29-H ) :   0.9699 B( 28-C , 30-H ) :   0.9689 B( 28-C , 31-H ) :   0.9713

Dispersion correction           -0.014597509
FINAL SINGLE POINT ENERGY     -1339.860954758346

DIPOLE MOMENT
-------------
                                X             Y             Z
Electronic contribution:     22.22594     -20.81501       1.68095
Nuclear contribution   :    -22.86613      21.18850      -1.95656
                        -----------------------------------------
Total Dipole Moment    :     -0.64020       0.37348      -0.27561
                        -----------------------------------------
Magnitude (a.u.)       :      0.79076
Magnitude (Debye)      :      2.00996

Rotational constants in cm-1:     0.019489     0.008671     0.006698
Rotational constants in MHz :   584.252027   259.936196   200.808382

                             ****ORCA TERMINATED NORMALLY****
TOTAL RUN TIME: 0 days 0 hours 0 minutes 22 seconds 25 msec
