                         Program Version 4.2.1 -  RELEASE  -
|  1> ! wB97X-D3 SP def2-SVP
|  2> %pal
|  3> nprocs 24
|  4> end
|  5>
|  6> * xyz 0 1
|  7> S 	 -86.8002 	 -32.8807 	 -65.6761
|  8> C 	 -85.4555 	 -33.7833 	 -66.3023
|  9> C 	 -85.4141 	 -35.07 	 -65.7808
| 10> C 	 -86.4888 	 -35.2922 	 -64.8863
| 11> C 	 -87.2112 	 -34.1322 	 -64.6474
| 12> H 	 -86.6093 	 -36.2254 	 -64.3155
| 13> C 	 -84.4297 	 -36.1615 	 -66.1443
| 14> H 	 -84.2355 	 -36.7263 	 -65.1603
| 15> H 	 -83.5043 	 -35.6281 	 -66.4445
| 16> C 	 -84.7677 	 -37.0754 	 -67.3674
| 17> H 	 -85.2214 	 -36.3524 	 -68.1421
| 18> H 	 -83.8927 	 -37.5268 	 -67.8459
| 19> C 	 -85.8048 	 -38.2304 	 -66.9663
| 20> H 	 -85.5193 	 -38.7655 	 -66.108
| 21> H 	 -86.8063 	 -37.9237 	 -66.7539
| 22> H 	 -85.9568 	 -38.7774 	 -67.8651
| 23> S 	 -87.7589 	 -33.803 	 -62.0092
| 24> C 	 -89.4499 	 -33.5758 	 -61.4594
| 25> C 	 -90.2957 	 -33.5175 	 -62.5842
| 26> C 	 -89.6158 	 -33.6904 	 -63.8634
| 27> C 	 -88.2647 	 -33.8382 	 -63.693
| 28> H 	 -91.3347 	 -33.577 	 -62.3047
| 29> C 	 -90.3698 	 -33.8299 	 -65.1839
| 30> H 	 -90.9853 	 -34.7258 	 -65.2654
| 31> H 	 -89.6701 	 -34.0336 	 -66.0071
| 32> C 	 -91.2379 	 -32.6056 	 -65.4146
| 33> H 	 -91.662 	 -32.1777 	 -64.5039
| 34> H 	 -92.0251 	 -32.9858 	 -65.9246
| 35> C 	 -90.4369 	 -31.5199 	 -66.2256
| 36> H 	 -91.0585 	 -30.5706 	 -66.3169
| 37> H 	 -90.1918 	 -31.875 	 -67.1638
| 38> H 	 -89.5468 	 -31.2147 	 -65.6971
| 39> H 	 -84.8991 	 -33.3765 	 -67.1034
| 40> H 	 -89.7655 	 -33.4566 	 -60.4795
| 41> *
| 42>
| 43>                          ****END OF INPUT****

CARTESIAN COORDINATES (ANGSTROEM)
---------------------------------
  S    -86.800200  -32.880700  -65.676100
  C    -85.455500  -33.783300  -66.302300
  C    -85.414100  -35.070000  -65.780800
  C    -86.488800  -35.292200  -64.886300
  C    -87.211200  -34.132200  -64.647400
  H    -86.609300  -36.225400  -64.315500
  C    -84.429700  -36.161500  -66.144300
  H    -84.235500  -36.726300  -65.160300
  H    -83.504300  -35.628100  -66.444500
  C    -84.767700  -37.075400  -67.367400
  H    -85.221400  -36.352400  -68.142100
  H    -83.892700  -37.526800  -67.845900
  C    -85.804800  -38.230400  -66.966300
  H    -85.519300  -38.765500  -66.108000
  H    -86.806300  -37.923700  -66.753900
  H    -85.956800  -38.777400  -67.865100
  S    -87.758900  -33.803000  -62.009200
  C    -89.449900  -33.575800  -61.459400
  C    -90.295700  -33.517500  -62.584200
  C    -89.615800  -33.690400  -63.863400
  C    -88.264700  -33.838200  -63.693000
  H    -91.334700  -33.577000  -62.304700
  C    -90.369800  -33.829900  -65.183900
  H    -90.985300  -34.725800  -65.265400
  H    -89.670100  -34.033600  -66.007100
  C    -91.237900  -32.605600  -65.414600
  H    -91.662000  -32.177700  -64.503900
  H    -92.025100  -32.985800  -65.924600
  C    -90.436900  -31.519900  -66.225600
  H    -91.058500  -30.570600  -66.316900
  H    -90.191800  -31.875000  -67.163800
  H    -89.546800  -31.214700  -65.697100
  H    -84.899100  -33.376500  -67.103400
  H    -89.765500  -33.456600  -60.479500

 Total Charge           Charge          ....    0
 Multiplicity           Mult            ....    1
 Number of Electrons    NEL             ....  134
 Basis Dimension        Dim             ....  322

ORBITAL ENERGIES
----------------

  NO   OCC          E(Eh)            E(eV)
   0   2.0000     -88.965731     -2420.8806
   1   2.0000     -88.962394     -2420.7898
   2   2.0000     -10.322837      -280.8987
   3   2.0000     -10.321293      -280.8567
   4   2.0000     -10.317453      -280.7522
   5   2.0000     -10.307935      -280.4932
   6   2.0000     -10.306092      -280.4430
   7   2.0000     -10.301760      -280.3251
   8   2.0000     -10.300164      -280.2817
   9   2.0000     -10.300053      -280.2787
  10   2.0000     -10.298115      -280.2260
  11   2.0000     -10.293325      -280.0956
  12   2.0000     -10.289200      -279.9834
  13   2.0000     -10.275465      -279.6096
  14   2.0000     -10.272398      -279.5262
  15   2.0000     -10.272291      -279.5232
  16   2.0000      -8.082056      -219.9239
  17   2.0000      -8.076378      -219.7694
  18   2.0000      -6.040220      -164.3628
  19   2.0000      -6.036245      -164.2546
  20   2.0000      -6.035030      -164.2215
  21   2.0000      -6.033175      -164.1710
  22   2.0000      -6.030965      -164.1109
  23   2.0000      -6.027056      -164.0045
  24   2.0000      -1.013600       -27.5814
  25   2.0000      -0.979979       -26.6666
  26   2.0000      -0.907891       -24.7050
  27   2.0000      -0.905112       -24.6294
  28   2.0000      -0.864994       -23.5377
  29   2.0000      -0.847573       -23.0636
  30   2.0000      -0.838680       -22.8216
  31   2.0000      -0.812137       -22.0994
  32   2.0000      -0.784666       -21.3518
  33   2.0000      -0.772640       -21.0246
  34   2.0000      -0.706756       -19.2318
  35   2.0000      -0.705857       -19.2074
  36   2.0000      -0.696825       -18.9616
  37   2.0000      -0.658334       -17.9142
  38   2.0000      -0.644263       -17.5313
  39   2.0000      -0.615386       -16.7455
  40   2.0000      -0.601830       -16.3766
  41   2.0000      -0.566543       -15.4164
  42   2.0000      -0.547832       -14.9073
  43   2.0000      -0.542791       -14.7701
  44   2.0000      -0.540131       -14.6977
  45   2.0000      -0.531766       -14.4701
  46   2.0000      -0.527726       -14.3601
  47   2.0000      -0.517503       -14.0820
  48   2.0000      -0.498710       -13.5706
  49   2.0000      -0.490584       -13.3495
  50   2.0000      -0.483962       -13.1693
  51   2.0000      -0.478502       -13.0207
  52   2.0000      -0.470316       -12.7980
  53   2.0000      -0.466946       -12.7062
  54   2.0000      -0.455759       -12.4018
  55   2.0000      -0.446203       -12.1418
  56   2.0000      -0.443598       -12.0709
  57   2.0000      -0.442888       -12.0516
  58   2.0000      -0.434355       -11.8194
  59   2.0000      -0.420316       -11.4374
  60   2.0000      -0.418083       -11.3766
  61   2.0000      -0.414021       -11.2661
  62   2.0000      -0.410699       -11.1757
  63   2.0000      -0.335001        -9.1158
  64   2.0000      -0.330460        -8.9923
  65   2.0000      -0.325850        -8.8668
  66   2.0000      -0.302264        -8.2250
  67   0.0000       0.041935         1.1411
  68   0.0000       0.062100         1.6898
  69   0.0000       0.108166         2.9433
  70   0.0000       0.119392         3.2488
  71   0.0000       0.128886         3.5072

MULLIKEN ATOMIC CHARGES
-----------------------
   0 S :    0.131344
   1 C :   -0.120301
   2 C :   -0.083858
   3 C :    0.043920
   4 C :   -0.197603
   5 H :    0.018791
   6 C :    0.026564
   7 H :    0.044485
   8 H :    0.028701
   9 C :   -0.088105
  10 H :    0.040392
  11 H :    0.044124
  12 C :   -0.026893
  13 H :    0.026622
  14 H :    0.022046
  15 H :    0.027732
  16 S :    0.103691
  17 C :   -0.085497
  18 C :   -0.040918
  19 C :    0.003634
  20 C :   -0.166172
  21 H :    0.027278
  22 C :    0.051183
  23 H :    0.030962
  24 H :    0.021512
  25 C :   -0.032495
  26 H :    0.033151
  27 H :   -0.004587
  28 C :   -0.030426
  29 H :    0.036019
  30 H :    0.017178
  31 H :    0.029180
  32 H :    0.032806
  33 H :    0.035537
Sum of atomic charges:    0.0000000

LOEWDIN ATOMIC CHARGES
----------------------
   0 S :    0.464314
   1 C :   -0.201157
   2 C :   -0.063829
   3 C :   -0.068030
   4 C :   -0.222212
   5 H :    0.035863
   6 C :   -0.042592
   7 H :    0.037562
   8 H :    0.034094
   9 C :   -0.037557
  10 H :    0.034488
  11 H :    0.025011
  12 C :   -0.064194
  13 H :    0.018574
  14 H :    0.023326
  15 H :    0.024881
  16 S :    0.384532
  17 C :   -0.163190
  18 C :   -0.068096
  19 C :   -0.054020
  20 C :   -0.203313
  21 H :    0.031481
  22 C :   -0.029745
  23 H :    0.031996
  24 H :    0.029123
  25 C :   -0.030151
  26 H :    0.026263
  27 H :    0.008098
  28 C :   -0.055085
  29 H :    0.031469
  30 H :    0.011470
  31 H :    0.019828
  32 H :    0.015549
  33 H :    0.015250

  Mayer bond orders larger than 0.100000
B(  0-S ,  1-C ) :   1.1576 B(  0-S ,  4-C ) :   1.2120 B(  1-C ,  2-C ) :   1.5713
B(  1-C ,  4-C ) :   0.1016 B(  1-C , 32-H ) :   0.9790 B(  2-C ,  3-C ) :   1.2730
B(  2-C ,  6-C ) :   1.0245 B(  3-C ,  4-C ) :   1.5449 B(  3-C ,  5-H ) :   0.9943
B(  4-C , 20-C ) :   0.9836 B(  6-C ,  7-H ) :   0.9453 B(  6-C ,  8-H ) :   0.9379
B(  6-C ,  9-C ) :   1.0569 B(  9-C , 10-H ) :   0.9548 B(  9-C , 11-H ) :   0.9622
B(  9-C , 12-C ) :   1.0633 B( 12-C , 13-H ) :   0.9797 B( 12-C , 14-H ) :   0.9751
B( 12-C , 15-H ) :   0.9747 B( 16-S , 17-C ) :   1.1343 B( 16-S , 20-C ) :   1.1373
B( 17-C , 18-C ) :   1.6500 B( 17-C , 33-H ) :   0.9764 B( 18-C , 19-C ) :   1.1870
B( 18-C , 21-H ) :   0.9833 B( 19-C , 20-C ) :   1.6365 B( 19-C , 22-C ) :   1.0499
B( 22-C , 23-H ) :   0.9428 B( 22-C , 24-H ) :   0.9305 B( 22-C , 25-C ) :   1.0524
B( 25-C , 26-H ) :   0.9631 B( 25-C , 27-H ) :   0.9512 B( 25-C , 28-C ) :   1.0740
B( 28-C , 29-H ) :   0.9751 B( 28-C , 30-H ) :   0.9765 B( 28-C , 31-H ) :   0.9759

Dispersion correction           -0.015029671
FINAL SINGLE POINT ENERGY     -1339.862736778532

DIPOLE MOMENT
-------------
                                X             Y             Z
Electronic contribution:      4.16153       9.50366      15.97422
Nuclear contribution   :     -4.40113      -9.88633     -16.30067
                        -----------------------------------------
Total Dipole Moment    :     -0.23960      -0.38267      -0.32645
                        -----------------------------------------
Magnitude (a.u.)       :      0.55715
Magnitude (Debye)      :      1.41617

Rotational constants in cm-1:     0.020377     0.008333     0.007340
Rotational constants in MHz :   610.877586   249.812929   220.060387

                             ****ORCA TERMINATED NORMALLY****
TOTAL RUN TIME: 0 days 0 hours 0 minutes 20 seconds 474 msec
