                         Program Version 4.2.1 -  RELEASE  -
|  1> ! wB97X-D3 SP def2-SVP
|  2> %pal
|  3> nprocs 24
|  4> end
|  5>
|  6> * xyz 0 1
|  7> S 	 -105.373 	 58.6146 	 -99.4271
|  8> C 	 -106.089 	 57.7648 	 -100.772
|  9> C 	 -105.143 	 57.4872 	 -101.778
| 10> C 	 -103.863 	 58.0735 	 -101.419
| 11> C 	 -103.773 	 58.6953 	 -100.195
| 12> H 	 -102.957 	 57.9741 	 -101.993
| 13> C 	 -105.422 	 56.768 	 -103.149
| 14> H 	 -106.419 	 56.4011 	 -103.017
| 15> H 	 -104.681 	 55.9573 	 -103.181
| 16> C 	 -105.055 	 57.5445 	 -104.465
| 17> H 	 -103.945 	 57.6552 	 -104.518
| 18> H 	 -105.259 	 56.9603 	 -105.382
| 19> C 	 -105.892 	 58.8856 	 -104.603
| 20> H 	 -106.922 	 58.8931 	 -104.482
| 21> H 	 -105.506 	 59.5958 	 -103.824
| 22> H 	 -105.662 	 59.3034 	 -105.621
| 23> S 	 -102.825 	 59.9228 	 -97.9471
| 24> C 	 -101.177 	 60.4164 	 -97.9394
| 25> C 	 -100.535 	 60.2821 	 -99.1379
| 26> C 	 -101.32 	 59.5171 	 -100.058
| 27> C 	 -102.604 	 59.2683 	 -99.5311
| 28> H 	 -99.5509 	 60.7332 	 -99.2564
| 29> C 	 -100.68 	 59.0953 	 -101.371
| 30> H 	 -99.7343 	 59.6581 	 -101.542
| 31> H 	 -101.36 	 59.29 	 -102.184
| 32> C 	 -100.262 	 57.6696 	 -101.472
| 33> H 	 -101.115 	 57.0541 	 -101.36
| 34> H 	 -99.5642 	 57.435 	 -100.724
| 35> C 	 -99.5645 	 57.4812 	 -102.798
| 36> H 	 -99.432 	 56.3891 	 -103.095
| 37> H 	 -98.5459 	 57.8651 	 -102.694
| 38> H 	 -99.992 	 57.9071 	 -103.704
| 39> H 	 -107.119 	 57.4797 	 -100.851
| 40> H 	 -100.828 	 60.9821 	 -97.1914
| 41> *
| 42>
| 43>                          ****END OF INPUT****

CARTESIAN COORDINATES (ANGSTROEM)
---------------------------------
  S    -105.373000   58.614600  -99.427100
  C    -106.089000   57.764800  -100.772000
  C    -105.143000   57.487200  -101.778000
  C    -103.863000   58.073500  -101.419000
  C    -103.773000   58.695300  -100.195000
  H    -102.957000   57.974100  -101.993000
  C    -105.422000   56.768000  -103.149000
  H    -106.419000   56.401100  -103.017000
  H    -104.681000   55.957300  -103.181000
  C    -105.055000   57.544500  -104.465000
  H    -103.945000   57.655200  -104.518000
  H    -105.259000   56.960300  -105.382000
  C    -105.892000   58.885600  -104.603000
  H    -106.922000   58.893100  -104.482000
  H    -105.506000   59.595800  -103.824000
  H    -105.662000   59.303400  -105.621000
  S    -102.825000   59.922800  -97.947100
  C    -101.177000   60.416400  -97.939400
  C    -100.535000   60.282100  -99.137900
  C    -101.320000   59.517100  -100.058000
  C    -102.604000   59.268300  -99.531100
  H    -99.550900   60.733200  -99.256400
  C    -100.680000   59.095300  -101.371000
  H    -99.734300   59.658100  -101.542000
  H    -101.360000   59.290000  -102.184000
  C    -100.262000   57.669600  -101.472000
  H    -101.115000   57.054100  -101.360000
  H    -99.564200   57.435000  -100.724000
  C    -99.564500   57.481200  -102.798000
  H    -99.432000   56.389100  -103.095000
  H    -98.545900   57.865100  -102.694000
  H    -99.992000   57.907100  -103.704000
  H    -107.119000   57.479700  -100.851000
  H    -100.828000   60.982100  -97.191400

 Total Charge           Charge          ....    0
 Multiplicity           Mult            ....    1
 Number of Electrons    NEL             ....  134
 Basis Dimension        Dim             ....  322

ORBITAL ENERGIES
----------------

  NO   OCC          E(Eh)            E(eV)
   0   2.0000     -88.969567     -2420.9850
   1   2.0000     -88.965177     -2420.8656
   2   2.0000     -10.332313      -281.1565
   3   2.0000     -10.331164      -281.1253
   4   2.0000     -10.316424      -280.7242
   5   2.0000     -10.309175      -280.5269
   6   2.0000     -10.307739      -280.4878
   7   2.0000     -10.305076      -280.4154
   8   2.0000     -10.302058      -280.3333
   9   2.0000     -10.300520      -280.2914
  10   2.0000     -10.294602      -280.1304
  11   2.0000     -10.292579      -280.0753
  12   2.0000     -10.291913      -280.0572
  13   2.0000     -10.282877      -279.8113
  14   2.0000     -10.278938      -279.7041
  15   2.0000     -10.276981      -279.6509
  16   2.0000      -8.085328      -220.0130
  17   2.0000      -8.079541      -219.8555
  18   2.0000      -6.043679      -164.4569
  19   2.0000      -6.039871      -164.3532
  20   2.0000      -6.038288      -164.3102
  21   2.0000      -6.036044      -164.2491
  22   2.0000      -6.034093      -164.1960
  23   2.0000      -6.030094      -164.0872
  24   2.0000      -1.010179       -27.4884
  25   2.0000      -0.982247       -26.7283
  26   2.0000      -0.925871       -25.1942
  27   2.0000      -0.899480       -24.4761
  28   2.0000      -0.869286       -23.6545
  29   2.0000      -0.858962       -23.3736
  30   2.0000      -0.837032       -22.7768
  31   2.0000      -0.815159       -22.1816
  32   2.0000      -0.783248       -21.3133
  33   2.0000      -0.773401       -21.0453
  34   2.0000      -0.712287       -19.3823
  35   2.0000      -0.703316       -19.1382
  36   2.0000      -0.695504       -18.9256
  37   2.0000      -0.668354       -18.1868
  38   2.0000      -0.637857       -17.3570
  39   2.0000      -0.623934       -16.9781
  40   2.0000      -0.603740       -16.4286
  41   2.0000      -0.583081       -15.8665
  42   2.0000      -0.557033       -15.1576
  43   2.0000      -0.543226       -14.7819
  44   2.0000      -0.538056       -14.6412
  45   2.0000      -0.523501       -14.2452
  46   2.0000      -0.519477       -14.1357
  47   2.0000      -0.515951       -14.0397
  48   2.0000      -0.502381       -13.6705
  49   2.0000      -0.500053       -13.6071
  50   2.0000      -0.491323       -13.3696
  51   2.0000      -0.485172       -13.2022
  52   2.0000      -0.472740       -12.8639
  53   2.0000      -0.465672       -12.6716
  54   2.0000      -0.458656       -12.4807
  55   2.0000      -0.454043       -12.3551
  56   2.0000      -0.447662       -12.1815
  57   2.0000      -0.440683       -11.9916
  58   2.0000      -0.433735       -11.8025
  59   2.0000      -0.427687       -11.6380
  60   2.0000      -0.422969       -11.5096
  61   2.0000      -0.418831       -11.3970
  62   2.0000      -0.405156       -11.0248
  63   2.0000      -0.364844        -9.9279
  64   2.0000      -0.337983        -9.1970
  65   2.0000      -0.324850        -8.8396
  66   2.0000      -0.279811        -7.6141
  67   0.0000       0.019712         0.5364
  68   0.0000       0.085944         2.3386
  69   0.0000       0.096689         2.6310
  70   0.0000       0.115328         3.1382
  71   0.0000       0.126600         3.4450

MULLIKEN ATOMIC CHARGES
-----------------------
   0 S :    0.088792
   1 C :   -0.114387
   2 C :   -0.108693
   3 C :   -0.014917
   4 C :   -0.092972
   5 H :   -0.022787
   6 C :    0.096483
   7 H :    0.018835
   8 H :    0.035736
   9 C :   -0.094431
  10 H :    0.037691
  11 H :    0.038475
  12 C :   -0.066001
  13 H :    0.027224
  14 H :    0.049816
  15 H :    0.036434
  16 S :    0.109591
  17 C :   -0.033323
  18 C :   -0.036978
  19 C :   -0.052598
  20 C :   -0.104648
  21 H :    0.025284
  22 C :    0.021830
  23 H :    0.017412
  24 H :    0.029578
  25 C :   -0.000125
  26 H :    0.022019
  27 H :    0.016004
  28 C :   -0.075765
  29 H :    0.037690
  30 H :    0.031381
  31 H :    0.027751
  32 H :    0.043358
  33 H :    0.006243
Sum of atomic charges:   -0.0000000

LOEWDIN ATOMIC CHARGES
----------------------
   0 S :    0.384205
   1 C :   -0.200539
   2 C :   -0.058735
   3 C :   -0.077366
   4 C :   -0.175556
   5 H :    0.022361
   6 C :   -0.026333
   7 H :    0.025247
   8 H :    0.035689
   9 C :   -0.042531
  10 H :    0.028980
  11 H :    0.027545
  12 C :   -0.070729
  13 H :    0.014620
  14 H :    0.034220
  15 H :    0.029626
  16 S :    0.428953
  17 C :   -0.173126
  18 C :   -0.063575
  19 C :   -0.049371
  20 C :   -0.201116
  21 H :    0.037118
  22 C :   -0.031480
  23 H :    0.034358
  24 H :    0.024418
  25 C :   -0.033875
  26 H :    0.016254
  27 H :    0.023157
  28 C :   -0.069759
  29 H :    0.032875
  30 H :    0.026570
  31 H :    0.021668
  32 H :    0.025765
  33 H :    0.000461

  Mayer bond orders larger than 0.100000
B(  0-S ,  1-C ) :   1.1368 B(  0-S ,  4-C ) :   1.1213 B(  1-C ,  2-C ) :   1.6132
B(  1-C , 32-H ) :   0.9660 B(  2-C ,  3-C ) :   1.2287 B(  2-C ,  6-C ) :   1.0161
B(  3-C ,  4-C ) :   1.5998 B(  3-C ,  5-H ) :   0.9849 B(  4-C , 20-C ) :   1.0941
B(  6-C ,  7-H ) :   0.9466 B(  6-C ,  8-H ) :   0.9378 B(  6-C ,  9-C ) :   1.0633
B(  9-C , 10-H ) :   0.9544 B(  9-C , 11-H ) :   0.9598 B(  9-C , 12-C ) :   1.0573
B( 12-C , 13-H ) :   0.9817 B( 12-C , 14-H ) :   0.9761 B( 12-C , 15-H ) :   0.9776
B( 16-S , 17-C ) :   1.1622 B( 16-S , 20-C ) :   1.1469 B( 17-C , 18-C ) :   1.6124
B( 17-C , 33-H ) :   0.9761 B( 18-C , 19-C ) :   1.2553 B( 18-C , 21-H ) :   0.9907
B( 19-C , 20-C ) :   1.5578 B( 19-C , 22-C ) :   1.0405 B( 22-C , 23-H ) :   0.9347
B( 22-C , 24-H ) :   0.9244 B( 22-C , 25-C ) :   1.0811 B( 25-C , 26-H ) :   0.9495
B( 25-C , 27-H ) :   0.9446 B( 25-C , 28-C ) :   1.0811 B( 28-C , 29-H ) :   0.9724
B( 28-C , 30-H ) :   0.9737 B( 28-C , 31-H ) :   0.9743

Dispersion correction           -0.014397967
FINAL SINGLE POINT ENERGY     -1339.868352060331

DIPOLE MOMENT
-------------
                                X             Y             Z
Electronic contribution:     -8.57024       7.99089      28.91301
Nuclear contribution   :      9.00559      -8.07368     -29.48691
                        -----------------------------------------
Total Dipole Moment    :      0.43535      -0.08279      -0.57390
                        -----------------------------------------
Magnitude (a.u.)       :      0.72508
Magnitude (Debye)      :      1.84300

Rotational constants in cm-1:     0.016985     0.010026     0.006916
Rotational constants in MHz :   509.196329   300.576534   207.344612

                             ****ORCA TERMINATED NORMALLY****
TOTAL RUN TIME: 0 days 0 hours 0 minutes 22 seconds 169 msec
