                         Program Version 4.2.1 -  RELEASE  -
|  1> ! wB97X-D3 SP def2-SVP
|  2> %pal
|  3> nprocs 24
|  4> end
|  5>
|  6> * xyz 0 1
|  7> S 	 -16.5437 	 -25.1328 	 -93.4957
|  8> C 	 -15.2408 	 -26.3899 	 -93.2103
|  9> C 	 -15.6875 	 -27.6027 	 -93.7262
| 10> C 	 -16.9284 	 -27.5026 	 -94.4257
| 11> C 	 -17.4189 	 -26.2395 	 -94.5179
| 12> H 	 -17.4398 	 -28.2851 	 -94.9049
| 13> C 	 -15.0115 	 -28.9419 	 -93.3912
| 14> H 	 -15.6997 	 -29.7374 	 -93.3125
| 15> H 	 -14.6071 	 -28.7599 	 -92.3397
| 16> C 	 -14.0232 	 -29.5232 	 -94.3452
| 17> H 	 -13.6287 	 -30.4743 	 -93.8975
| 18> H 	 -14.4871 	 -29.7931 	 -95.3076
| 19> C 	 -12.8249 	 -28.5261 	 -94.647
| 20> H 	 -12.2895 	 -28.3951 	 -93.7784
| 21> H 	 -12.0265 	 -28.8145 	 -95.3658
| 22> H 	 -13.1168 	 -27.5049 	 -94.8416
| 23> S 	 -19.9423 	 -25.151 	 -94.0707
| 24> C 	 -21.1784 	 -25.1996 	 -95.3277
| 25> C 	 -20.6777 	 -25.8982 	 -96.4342
| 26> C 	 -19.3181 	 -26.3924 	 -96.3448
| 27> C 	 -18.722 	 -25.9191 	 -95.1512
| 28> H 	 -21.3384 	 -26.1364 	 -97.2414
| 29> C 	 -18.5823 	 -26.9908 	 -97.5102
| 30> H 	 -18.5793 	 -28.0504 	 -97.2812
| 31> H 	 -17.58 	 -26.649 	 -97.4551
| 32> C 	 -19.027 	 -26.9506 	 -98.9534
| 33> H 	 -20.0534 	 -27.3052 	 -99.0764
| 34> H 	 -18.3566 	 -27.6273 	 -99.5002
| 35> C 	 -19.0358 	 -25.5326 	 -99.5466
| 36> H 	 -19.6227 	 -25.529 	 -100.514
| 37> H 	 -17.9924 	 -25.2187 	 -99.7679
| 38> H 	 -19.5269 	 -24.8962 	 -98.7032
| 39> H 	 -14.237 	 -26.203 	 -92.7822
| 40> H 	 -22.2201 	 -24.9608 	 -95.2395
| 41> *
| 42>
| 43>                          ****END OF INPUT****

CARTESIAN COORDINATES (ANGSTROEM)
---------------------------------
  S    -16.543700  -25.132800  -93.495700
  C    -15.240800  -26.389900  -93.210300
  C    -15.687500  -27.602700  -93.726200
  C    -16.928400  -27.502600  -94.425700
  C    -17.418900  -26.239500  -94.517900
  H    -17.439800  -28.285100  -94.904900
  C    -15.011500  -28.941900  -93.391200
  H    -15.699700  -29.737400  -93.312500
  H    -14.607100  -28.759900  -92.339700
  C    -14.023200  -29.523200  -94.345200
  H    -13.628700  -30.474300  -93.897500
  H    -14.487100  -29.793100  -95.307600
  C    -12.824900  -28.526100  -94.647000
  H    -12.289500  -28.395100  -93.778400
  H    -12.026500  -28.814500  -95.365800
  H    -13.116800  -27.504900  -94.841600
  S    -19.942300  -25.151000  -94.070700
  C    -21.178400  -25.199600  -95.327700
  C    -20.677700  -25.898200  -96.434200
  C    -19.318100  -26.392400  -96.344800
  C    -18.722000  -25.919100  -95.151200
  H    -21.338400  -26.136400  -97.241400
  C    -18.582300  -26.990800  -97.510200
  H    -18.579300  -28.050400  -97.281200
  H    -17.580000  -26.649000  -97.455100
  C    -19.027000  -26.950600  -98.953400
  H    -20.053400  -27.305200  -99.076400
  H    -18.356600  -27.627300  -99.500200
  C    -19.035800  -25.532600  -99.546600
  H    -19.622700  -25.529000  -100.514000
  H    -17.992400  -25.218700  -99.767900
  H    -19.526900  -24.896200  -98.703200
  H    -14.237000  -26.203000  -92.782200
  H    -22.220100  -24.960800  -95.239500

 Total Charge           Charge          ....    0
 Multiplicity           Mult            ....    1
 Number of Electrons    NEL             ....  134
 Basis Dimension        Dim             ....  322

ORBITAL ENERGIES
----------------

  NO   OCC          E(Eh)            E(eV)
   0   2.0000     -88.967869     -2420.9388
   1   2.0000     -88.967336     -2420.9243
   2   2.0000     -10.336337      -281.2660
   3   2.0000     -10.331326      -281.1297
   4   2.0000     -10.325450      -280.9698
   5   2.0000     -10.321066      -280.8505
   6   2.0000     -10.312021      -280.6044
   7   2.0000     -10.307036      -280.4687
   8   2.0000     -10.297147      -280.1996
   9   2.0000     -10.296080      -280.1706
  10   2.0000     -10.294951      -280.1399
  11   2.0000     -10.289845      -280.0009
  12   2.0000     -10.288783      -279.9720
  13   2.0000     -10.287919      -279.9485
  14   2.0000     -10.287538      -279.9381
  15   2.0000     -10.271035      -279.4891
  16   2.0000      -8.081539      -219.9099
  17   2.0000      -8.080875      -219.8918
  18   2.0000      -6.040191      -164.3619
  19   2.0000      -6.039537      -164.3442
  20   2.0000      -6.036328      -164.2568
  21   2.0000      -6.035479      -164.2337
  22   2.0000      -6.032054      -164.1405
  23   2.0000      -6.031618      -164.1287
  24   2.0000      -1.001227       -27.2448
  25   2.0000      -0.976496       -26.5718
  26   2.0000      -0.915046       -24.8997
  27   2.0000      -0.912435       -24.8286
  28   2.0000      -0.864335       -23.5198
  29   2.0000      -0.848750       -23.0957
  30   2.0000      -0.839405       -22.8414
  31   2.0000      -0.812397       -22.1064
  32   2.0000      -0.788569       -21.4581
  33   2.0000      -0.777353       -21.1528
  34   2.0000      -0.707625       -19.2555
  35   2.0000      -0.697961       -18.9925
  36   2.0000      -0.692817       -18.8525
  37   2.0000      -0.653557       -17.7842
  38   2.0000      -0.640777       -17.4364
  39   2.0000      -0.618326       -16.8255
  40   2.0000      -0.598866       -16.2960
  41   2.0000      -0.568679       -15.4745
  42   2.0000      -0.557575       -15.1724
  43   2.0000      -0.549712       -14.9584
  44   2.0000      -0.543397       -14.7866
  45   2.0000      -0.536650       -14.6030
  46   2.0000      -0.523667       -14.2497
  47   2.0000      -0.520933       -14.1753
  48   2.0000      -0.502530       -13.6745
  49   2.0000      -0.491701       -13.3799
  50   2.0000      -0.485779       -13.2187
  51   2.0000      -0.474593       -12.9143
  52   2.0000      -0.470524       -12.8036
  53   2.0000      -0.463171       -12.6035
  54   2.0000      -0.459541       -12.5047
  55   2.0000      -0.448157       -12.1950
  56   2.0000      -0.441509       -12.0141
  57   2.0000      -0.438451       -11.9309
  58   2.0000      -0.428839       -11.6693
  59   2.0000      -0.422872       -11.5069
  60   2.0000      -0.418733       -11.3943
  61   2.0000      -0.414803       -11.2874
  62   2.0000      -0.413693       -11.2572
  63   2.0000      -0.347398        -9.4532
  64   2.0000      -0.332901        -9.0587
  65   2.0000      -0.328592        -8.9414
  66   2.0000      -0.290711        -7.9107
  67   0.0000       0.021937         0.5969
  68   0.0000       0.062479         1.7001
  69   0.0000       0.098441         2.6787
  70   0.0000       0.121479         3.3056
  71   0.0000       0.124152         3.3783

MULLIKEN ATOMIC CHARGES
-----------------------
   0 S :    0.093846
   1 C :   -0.146994
   2 C :   -0.068666
   3 C :    0.042419
   4 C :   -0.129096
   5 H :   -0.007617
   6 C :    0.046841
   7 H :    0.017822
   8 H :    0.043888
   9 C :   -0.060130
  10 H :    0.040347
  11 H :    0.033887
  12 C :   -0.050803
  13 H :   -0.005342
  14 H :    0.038336
  15 H :    0.030395
  16 S :    0.093666
  17 C :   -0.074520
  18 C :   -0.051319
  19 C :   -0.044840
  20 C :   -0.148723
  21 H :    0.014253
  22 C :    0.063134
  23 H :    0.032900
  24 H :    0.030510
  25 C :   -0.064431
  26 H :    0.023591
  27 H :    0.033469
  28 C :   -0.102293
  29 H :    0.047936
  30 H :    0.040776
  31 H :    0.060736
  32 H :    0.069747
  33 H :    0.056277
Sum of atomic charges:    0.0000000

LOEWDIN ATOMIC CHARGES
----------------------
   0 S :    0.374774
   1 C :   -0.180145
   2 C :   -0.056215
   3 C :   -0.058031
   4 C :   -0.192480
   5 H :    0.024483
   6 C :   -0.034813
   7 H :    0.028211
   8 H :    0.040532
   9 C :   -0.035710
  10 H :    0.032043
  11 H :    0.024386
  12 C :   -0.076448
  13 H :    0.010935
  14 H :    0.030842
  15 H :    0.023983
  16 S :    0.383205
  17 C :   -0.183758
  18 C :   -0.073427
  19 C :   -0.053803
  20 C :   -0.177046
  21 H :    0.024852
  22 C :   -0.038309
  23 H :    0.037423
  24 H :    0.031999
  25 C :   -0.044930
  26 H :    0.021285
  27 H :    0.029336
  28 C :   -0.079063
  29 H :    0.030803
  30 H :    0.025402
  31 H :    0.041124
  32 H :    0.037577
  33 H :    0.030986

  Mayer bond orders larger than 0.100000
B(  0-S ,  1-C ) :   1.1143 B(  0-S ,  4-C ) :   1.1431 B(  1-C ,  2-C ) :   1.6156
B(  1-C , 32-H ) :   0.9663 B(  2-C ,  3-C ) :   1.2286 B(  2-C ,  6-C ) :   1.0046
B(  3-C ,  4-C ) :   1.5795 B(  3-C ,  5-H ) :   1.0032 B(  4-C , 20-C ) :   1.0247
B(  6-C ,  7-H ) :   0.9403 B(  6-C ,  8-H ) :   0.9489 B(  6-C ,  9-C ) :   1.0768
B(  9-C , 10-H ) :   0.9552 B(  9-C , 11-H ) :   0.9567 B(  9-C , 12-C ) :   1.0587
B( 12-C , 13-H ) :   0.9717 B( 12-C , 14-H ) :   0.9774 B( 12-C , 15-H ) :   0.9756
B( 16-S , 17-C ) :   1.1428 B( 16-S , 20-C ) :   1.1426 B( 17-C , 18-C ) :   1.6126
B( 17-C , 20-C ) :   0.1006 B( 17-C , 33-H ) :   0.9679 B( 18-C , 19-C ) :   1.2454
B( 18-C , 21-H ) :   0.9795 B( 19-C , 20-C ) :   1.5860 B( 19-C , 22-C ) :   1.0301
B( 22-C , 23-H ) :   0.9107 B( 22-C , 24-H ) :   0.9416 B( 22-C , 25-C ) :   1.0990
B( 25-C , 26-H ) :   0.9477 B( 25-C , 27-H ) :   0.9478 B( 25-C , 28-C ) :   1.0707
B( 28-C , 29-H ) :   0.9755 B( 28-C , 30-H ) :   0.9751 B( 28-C , 31-H ) :   0.9709

Dispersion correction           -0.014241398
FINAL SINGLE POINT ENERGY     -1339.856506568678

DIPOLE MOMENT
-------------
                                X             Y             Z
Electronic contribution:    -12.70097      14.94735      17.43903
Nuclear contribution   :     12.79396     -15.68958     -17.78253
                        -----------------------------------------
Total Dipole Moment    :      0.09299      -0.74223      -0.34350
                        -----------------------------------------
Magnitude (a.u.)       :      0.82314
Magnitude (Debye)      :      2.09224

Rotational constants in cm-1:     0.019300     0.008154     0.006424
Rotational constants in MHz :   578.587023   244.444070   192.597285

                             ****ORCA TERMINATED NORMALLY****
TOTAL RUN TIME: 0 days 0 hours 0 minutes 21 seconds 362 msec
