                         Program Version 4.2.1 -  RELEASE  -
|  1> ! wB97X-D3 SP def2-SVP
|  2> %pal
|  3> nprocs 24
|  4> end
|  5>
|  6> * xyz 0 1
|  7> S 	 -99.2105 	 26.9529 	 -116.886
|  8> C 	 -100.781 	 26.5121 	 -116.503
|  9> C 	 -101.693 	 26.9474 	 -117.421
| 10> C 	 -101.06 	 27.3891 	 -118.64
| 11> C 	 -99.6982 	 27.3904 	 -118.54
| 12> H 	 -101.584 	 27.7541 	 -119.561
| 13> C 	 -103.176 	 26.8339 	 -117.305
| 14> H 	 -103.498 	 27.5684 	 -116.518
| 15> H 	 -103.433 	 25.8322 	 -116.889
| 16> C 	 -104.179 	 27.1605 	 -118.565
| 17> H 	 -103.834 	 28.1475 	 -118.919
| 18> H 	 -103.992 	 26.4401 	 -119.396
| 19> C 	 -105.648 	 27.1502 	 -118.244
| 20> H 	 -105.893 	 28.0898 	 -117.699
| 21> H 	 -106.197 	 27.1426 	 -119.237
| 22> H 	 -105.962 	 26.2234 	 -117.746
| 23> S 	 -97.9062 	 29.4946 	 -119.058
| 24> C 	 -96.9162 	 29.4829 	 -120.506
| 25> C 	 -97.2376 	 28.3852 	 -121.327
| 26> C 	 -98.3179 	 27.554 	 -120.764
| 27> C 	 -98.6761 	 27.9571 	 -119.509
| 28> H 	 -96.7613 	 28.3534 	 -122.29
| 29> C 	 -98.9575 	 26.4264 	 -121.528
| 30> H 	 -98.3381 	 26.2944 	 -122.394
| 31> H 	 -99.8949 	 26.8545 	 -121.788
| 32> C 	 -99.0843 	 25.0857 	 -120.79
| 33> H 	 -98.8822 	 25.2282 	 -119.731
| 34> H 	 -98.2409 	 24.4331 	 -121.12
| 35> C 	 -100.342 	 24.2566 	 -121.138
| 36> H 	 -100.244 	 24.039 	 -122.207
| 37> H 	 -101.18 	 24.8558 	 -120.861
| 38> H 	 -100.36 	 23.3963 	 -120.562
| 39> H 	 -101.04 	 26.0946 	 -115.569
| 40> H 	 -96.0877 	 30.1389 	 -120.695
| 41> *
| 42>
| 43>                          ****END OF INPUT****

CARTESIAN COORDINATES (ANGSTROEM)
---------------------------------
  S    -99.210500   26.952900  -116.886000
  C    -100.781000   26.512100  -116.503000
  C    -101.693000   26.947400  -117.421000
  C    -101.060000   27.389100  -118.640000
  C    -99.698200   27.390400  -118.540000
  H    -101.584000   27.754100  -119.561000
  C    -103.176000   26.833900  -117.305000
  H    -103.498000   27.568400  -116.518000
  H    -103.433000   25.832200  -116.889000
  C    -104.179000   27.160500  -118.565000
  H    -103.834000   28.147500  -118.919000
  H    -103.992000   26.440100  -119.396000
  C    -105.648000   27.150200  -118.244000
  H    -105.893000   28.089800  -117.699000
  H    -106.197000   27.142600  -119.237000
  H    -105.962000   26.223400  -117.746000
  S    -97.906200   29.494600  -119.058000
  C    -96.916200   29.482900  -120.506000
  C    -97.237600   28.385200  -121.327000
  C    -98.317900   27.554000  -120.764000
  C    -98.676100   27.957100  -119.509000
  H    -96.761300   28.353400  -122.290000
  C    -98.957500   26.426400  -121.528000
  H    -98.338100   26.294400  -122.394000
  H    -99.894900   26.854500  -121.788000
  C    -99.084300   25.085700  -120.790000
  H    -98.882200   25.228200  -119.731000
  H    -98.240900   24.433100  -121.120000
  C    -100.342000   24.256600  -121.138000
  H    -100.244000   24.039000  -122.207000
  H    -101.180000   24.855800  -120.861000
  H    -100.360000   23.396300  -120.562000
  H    -101.040000   26.094600  -115.569000
  H    -96.087700   30.138900  -120.695000

 Total Charge           Charge          ....    0
 Multiplicity           Mult            ....    1
 Number of Electrons    NEL             ....  134
 Basis Dimension        Dim             ....  322

ORBITAL ENERGIES
----------------

  NO   OCC          E(Eh)            E(eV)
   0   2.0000     -88.964481     -2420.8466
   1   2.0000     -88.961971     -2420.7783
   2   2.0000     -10.331987      -281.1477
   3   2.0000     -10.325894      -280.9819
   4   2.0000     -10.317949      -280.7657
   5   2.0000     -10.305526      -280.4276
   6   2.0000     -10.303528      -280.3732
   7   2.0000     -10.300871      -280.3009
   8   2.0000     -10.300363      -280.2871
   9   2.0000     -10.299450      -280.2623
  10   2.0000     -10.298832      -280.2455
  11   2.0000     -10.297486      -280.2089
  12   2.0000     -10.289867      -280.0015
  13   2.0000     -10.283673      -279.8330
  14   2.0000     -10.279132      -279.7094
  15   2.0000     -10.267977      -279.4059
  16   2.0000      -8.080226      -219.8741
  17   2.0000      -8.076242      -219.7657
  18   2.0000      -6.038560      -164.3176
  19   2.0000      -6.034872      -164.2172
  20   2.0000      -6.034655      -164.2113
  21   2.0000      -6.031032      -164.1127
  22   2.0000      -6.030787      -164.1061
  23   2.0000      -6.026939      -164.0014
  24   2.0000      -1.007050       -27.4032
  25   2.0000      -0.981502       -26.7080
  26   2.0000      -0.906268       -24.6608
  27   2.0000      -0.901645       -24.5350
  28   2.0000      -0.865629       -23.5550
  29   2.0000      -0.854231       -23.2448
  30   2.0000      -0.847022       -23.0486
  31   2.0000      -0.816314       -22.2130
  32   2.0000      -0.779935       -21.2231
  33   2.0000      -0.766661       -20.8619
  34   2.0000      -0.707375       -19.2487
  35   2.0000      -0.694309       -18.8931
  36   2.0000      -0.681598       -18.5472
  37   2.0000      -0.659711       -17.9516
  38   2.0000      -0.643391       -17.5076
  39   2.0000      -0.618182       -16.8216
  40   2.0000      -0.586779       -15.9671
  41   2.0000      -0.568559       -15.4713
  42   2.0000      -0.568234       -15.4624
  43   2.0000      -0.559763       -15.2319
  44   2.0000      -0.526279       -14.3208
  45   2.0000      -0.522979       -14.2310
  46   2.0000      -0.513740       -13.9796
  47   2.0000      -0.510923       -13.9029
  48   2.0000      -0.505246       -13.7484
  49   2.0000      -0.502423       -13.6716
  50   2.0000      -0.491167       -13.3653
  51   2.0000      -0.479954       -13.0602
  52   2.0000      -0.474250       -12.9050
  53   2.0000      -0.473642       -12.8884
  54   2.0000      -0.458482       -12.4759
  55   2.0000      -0.453311       -12.3352
  56   2.0000      -0.435654       -11.8547
  57   2.0000      -0.432588       -11.7713
  58   2.0000      -0.430981       -11.7276
  59   2.0000      -0.424842       -11.5605
  60   2.0000      -0.417923       -11.3723
  61   2.0000      -0.410359       -11.1664
  62   2.0000      -0.407863       -11.0985
  63   2.0000      -0.343480        -9.3466
  64   2.0000      -0.325252        -8.8506
  65   2.0000      -0.322084        -8.7644
  66   2.0000      -0.300439        -8.1754
  67   0.0000       0.040396         1.0992
  68   0.0000       0.060152         1.6368
  69   0.0000       0.114191         3.1073
  70   0.0000       0.123989         3.3739
  71   0.0000       0.129326         3.5191

MULLIKEN ATOMIC CHARGES
-----------------------
   0 S :    0.120855
   1 C :   -0.098117
   2 C :   -0.062470
   3 C :    0.026258
   4 C :   -0.186715
   5 H :    0.037735
   6 C :   -0.005427
   7 H :    0.041301
   8 H :    0.037381
   9 C :   -0.112177
  10 H :    0.036757
  11 H :    0.038366
  12 C :   -0.050314
  13 H :    0.048002
  14 H :    0.044196
  15 H :    0.042002
  16 S :    0.101495
  17 C :   -0.099143
  18 C :   -0.036926
  19 C :   -0.078355
  20 C :   -0.163325
  21 H :    0.019720
  22 C :    0.144481
  23 H :    0.010383
  24 H :    0.027109
  25 C :   -0.115705
  26 H :    0.043697
  27 H :    0.023655
  28 C :   -0.003493
  29 H :    0.037509
  30 H :    0.023763
  31 H :    0.020644
  32 H :    0.029071
  33 H :    0.057788
Sum of atomic charges:   -0.0000000

LOEWDIN ATOMIC CHARGES
----------------------
   0 S :    0.425059
   1 C :   -0.206986
   2 C :   -0.070439
   3 C :   -0.064994
   4 C :   -0.188718
   5 H :    0.042254
   6 C :   -0.045390
   7 H :    0.037290
   8 H :    0.032460
   9 C :   -0.047289
  10 H :    0.022761
  11 H :    0.023541
  12 C :   -0.070961
  13 H :    0.031838
  14 H :    0.038244
  15 H :    0.028099
  16 S :    0.387373
  17 C :   -0.182818
  18 C :   -0.072767
  19 C :   -0.053266
  20 C :   -0.197603
  21 H :    0.029525
  22 C :   -0.026120
  23 H :    0.029129
  24 H :    0.029911
  25 C :   -0.042456
  26 H :    0.021657
  27 H :    0.026238
  28 C :   -0.050221
  29 H :    0.029188
  30 H :    0.018938
  31 H :    0.018317
  32 H :    0.020576
  33 H :    0.027627

  Mayer bond orders larger than 0.100000
B(  0-S ,  1-C ) :   1.1536 B(  0-S ,  4-C ) :   1.1527 B(  1-C ,  2-C ) :   1.6087
B(  1-C , 32-H ) :   0.9776 B(  2-C ,  3-C ) :   1.2414 B(  2-C ,  6-C ) :   1.0144
B(  3-C ,  4-C ) :   1.5883 B(  3-C ,  5-H ) :   0.9823 B(  4-C , 20-C ) :   0.9897
B(  6-C ,  7-H ) :   0.9353 B(  6-C ,  8-H ) :   0.9467 B(  6-C ,  9-C ) :   1.0576
B(  9-C , 10-H ) :   0.9505 B(  9-C , 11-H ) :   0.9583 B(  9-C , 12-C ) :   1.0881
B( 12-C , 13-H ) :   0.9736 B( 12-C , 14-H ) :   0.9700 B( 12-C , 15-H ) :   0.9732
B( 16-S , 17-C ) :   1.1518 B( 16-S , 20-C ) :   1.1300 B( 17-C , 18-C ) :   1.6339
B( 17-C , 33-H ) :   0.9661 B( 18-C , 19-C ) :   1.2097 B( 18-C , 21-H ) :   0.9886
B( 19-C , 20-C ) :   1.6498 B( 19-C , 22-C ) :   1.0280 B( 22-C , 23-H ) :   0.9254
B( 22-C , 24-H ) :   0.9354 B( 22-C , 25-C ) :   1.0435 B( 25-C , 26-H ) :   0.9655
B( 25-C , 27-H ) :   0.9553 B( 25-C , 28-C ) :   1.0748 B( 28-C , 29-H ) :   0.9772
B( 28-C , 30-H ) :   0.9780 B( 28-C , 31-H ) :   0.9714

Dispersion correction           -0.014757357
FINAL SINGLE POINT ENERGY     -1339.870884788476

DIPOLE MOMENT
-------------
                                X             Y             Z
Electronic contribution:     23.24278      13.51317      10.05755
Nuclear contribution   :    -23.76910     -13.70610     -10.36414
                        -----------------------------------------
Total Dipole Moment    :     -0.52633      -0.19292      -0.30659
                        -----------------------------------------
Magnitude (a.u.)       :      0.63894
Magnitude (Debye)      :      1.62405

Rotational constants in cm-1:     0.018475     0.008504     0.007384
Rotational constants in MHz :   553.871739   254.947183   221.374579

                             ****ORCA TERMINATED NORMALLY****
TOTAL RUN TIME: 0 days 0 hours 0 minutes 21 seconds 990 msec
