                         Program Version 4.2.1 -  RELEASE  -
|  1> ! wB97X-D3 SP def2-SVP
|  2> %pal
|  3> nprocs 24
|  4> end
|  5>
|  6> * xyz 0 1
|  7> S 	 -34.4781 	 5.4896 	 6.37645
|  8> C 	 -34.9378 	 7.0828 	 6.82111
|  9> C 	 -35.324 	 7.78144 	 5.67246
| 10> C 	 -35.3712 	 6.99657 	 4.52039
| 11> C 	 -34.9541 	 5.71049 	 4.73224
| 12> H 	 -35.7432 	 7.23313 	 3.62499
| 13> C 	 -35.9245 	 9.20389 	 5.67479
| 14> H 	 -35.8507 	 9.66472 	 6.67184
| 15> H 	 -36.9696 	 9.06681 	 5.39404
| 16> C 	 -35.2921 	 10.1827 	 4.60528
| 17> H 	 -35.3107 	 9.75747 	 3.59913
| 18> H 	 -35.9175 	 11.113 	 4.54559
| 19> C 	 -33.805 	 10.4938 	 4.83082
| 20> H 	 -33.4281 	 11.2383 	 4.14713
| 21> H 	 -33.6642 	 10.9933 	 5.82472
| 22> H 	 -33.3426 	 9.53617 	 4.85285
| 23> S 	 -36.2447 	 3.45161 	 4.18151
| 24> C 	 -35.7157 	 2.59197 	 2.70464
| 25> C 	 -34.6921 	 3.21833 	 2.05224
| 26> C 	 -34.2072 	 4.38958 	 2.70783
| 27> C 	 -34.9983 	 4.63186 	 3.83706
| 28> H 	 -34.3923 	 2.81689 	 1.08992
| 29> C 	 -33.0939 	 5.26835 	 2.26025
| 30> H 	 -32.9806 	 6.08496 	 3.01299
| 31> H 	 -33.4336 	 5.78841 	 1.31872
| 32> C 	 -31.6702 	 4.65187 	 2.03111
| 33> H 	 -30.9474 	 5.42472 	 1.80839
| 34> H 	 -31.8105 	 4.01816 	 1.12073
| 35> C 	 -31.1718 	 3.9258 	 3.32538
| 36> H 	 -31.6223 	 2.92925 	 3.48281
| 37> H 	 -31.3499 	 4.63942 	 4.11585
| 38> H 	 -30.0569 	 3.95194 	 3.25165
| 39> H 	 -34.8717 	 7.59571 	 7.75072
| 40> H 	 -36.0635 	 1.55222 	 2.51253
| 41> *
| 42>
| 43>                          ****END OF INPUT****

CARTESIAN COORDINATES (ANGSTROEM)
---------------------------------
  S    -34.478100    5.489600    6.376450
  C    -34.937800    7.082800    6.821110
  C    -35.324000    7.781440    5.672460
  C    -35.371200    6.996570    4.520390
  C    -34.954100    5.710490    4.732240
  H    -35.743200    7.233130    3.624990
  C    -35.924500    9.203890    5.674790
  H    -35.850700    9.664720    6.671840
  H    -36.969600    9.066810    5.394040
  C    -35.292100   10.182700    4.605280
  H    -35.310700    9.757470    3.599130
  H    -35.917500   11.113000    4.545590
  C    -33.805000   10.493800    4.830820
  H    -33.428100   11.238300    4.147130
  H    -33.664200   10.993300    5.824720
  H    -33.342600    9.536170    4.852850
  S    -36.244700    3.451610    4.181510
  C    -35.715700    2.591970    2.704640
  C    -34.692100    3.218330    2.052240
  C    -34.207200    4.389580    2.707830
  C    -34.998300    4.631860    3.837060
  H    -34.392300    2.816890    1.089920
  C    -33.093900    5.268350    2.260250
  H    -32.980600    6.084960    3.012990
  H    -33.433600    5.788410    1.318720
  C    -31.670200    4.651870    2.031110
  H    -30.947400    5.424720    1.808390
  H    -31.810500    4.018160    1.120730
  C    -31.171800    3.925800    3.325380
  H    -31.622300    2.929250    3.482810
  H    -31.349900    4.639420    4.115850
  H    -30.056900    3.951940    3.251650
  H    -34.871700    7.595710    7.750720
  H    -36.063500    1.552220    2.512530

 Total Charge           Charge          ....    0
 Multiplicity           Mult            ....    1
 Number of Electrons    NEL             ....  134
 Basis Dimension        Dim             ....  322

ORBITAL ENERGIES
----------------

  NO   OCC          E(Eh)            E(eV)
   0   2.0000     -88.965721     -2420.8803
   1   2.0000     -88.965539     -2420.8754
   2   2.0000     -10.320453      -280.8338
   3   2.0000     -10.320428      -280.8331
   4   2.0000     -10.316911      -280.7374
   5   2.0000     -10.309745      -280.5424
   6   2.0000     -10.305808      -280.4353
   7   2.0000     -10.297616      -280.2124
   8   2.0000     -10.296651      -280.1861
   9   2.0000     -10.295394      -280.1519
  10   2.0000     -10.295344      -280.1506
  11   2.0000     -10.292260      -280.0666
  12   2.0000     -10.290149      -280.0092
  13   2.0000     -10.280214      -279.7388
  14   2.0000     -10.279450      -279.7180
  15   2.0000     -10.273539      -279.5572
  16   2.0000      -8.081053      -219.8966
  17   2.0000      -8.080251      -219.8748
  18   2.0000      -6.039413      -164.3408
  19   2.0000      -6.038631      -164.3195
  20   2.0000      -6.035254      -164.2276
  21   2.0000      -6.034981      -164.2202
  22   2.0000      -6.032118      -164.1423
  23   2.0000      -6.030944      -164.1103
  24   2.0000      -1.014799       -27.6141
  25   2.0000      -0.984959       -26.8021
  26   2.0000      -0.905339       -24.6355
  27   2.0000      -0.903200       -24.5773
  28   2.0000      -0.874778       -23.8039
  29   2.0000      -0.851755       -23.1774
  30   2.0000      -0.846173       -23.0255
  31   2.0000      -0.814945       -22.1758
  32   2.0000      -0.781356       -21.2618
  33   2.0000      -0.767371       -20.8812
  34   2.0000      -0.710690       -19.3389
  35   2.0000      -0.692940       -18.8558
  36   2.0000      -0.689693       -18.7675
  37   2.0000      -0.656199       -17.8561
  38   2.0000      -0.649412       -17.6714
  39   2.0000      -0.623315       -16.9613
  40   2.0000      -0.592921       -16.1342
  41   2.0000      -0.564686       -15.3659
  42   2.0000      -0.555379       -15.1126
  43   2.0000      -0.549710       -14.9584
  44   2.0000      -0.544866       -14.8265
  45   2.0000      -0.537938       -14.6380
  46   2.0000      -0.518353       -14.1051
  47   2.0000      -0.514292       -13.9946
  48   2.0000      -0.497714       -13.5435
  49   2.0000      -0.493156       -13.4195
  50   2.0000      -0.489215       -13.3122
  51   2.0000      -0.478170       -13.0117
  52   2.0000      -0.470754       -12.8099
  53   2.0000      -0.462097       -12.5743
  54   2.0000      -0.459803       -12.5119
  55   2.0000      -0.449004       -12.2180
  56   2.0000      -0.446044       -12.1375
  57   2.0000      -0.432561       -11.7706
  58   2.0000      -0.431399       -11.7390
  59   2.0000      -0.424977       -11.5642
  60   2.0000      -0.418652       -11.3921
  61   2.0000      -0.413846       -11.2613
  62   2.0000      -0.413273       -11.2457
  63   2.0000      -0.343324        -9.3423
  64   2.0000      -0.330118        -8.9830
  65   2.0000      -0.322823        -8.7845
  66   2.0000      -0.299972        -8.1626
  67   0.0000       0.035586         0.9683
  68   0.0000       0.063085         1.7166
  69   0.0000       0.111148         3.0245
  70   0.0000       0.122282         3.3275
  71   0.0000       0.127922         3.4809

MULLIKEN ATOMIC CHARGES
-----------------------
   0 S :    0.131422
   1 C :   -0.099504
   2 C :   -0.100486
   3 C :    0.103429
   4 C :   -0.199153
   5 H :   -0.046830
   6 C :    0.067464
   7 H :    0.022963
   8 H :    0.044509
   9 C :   -0.117082
  10 H :    0.029713
  11 H :    0.034719
  12 C :   -0.044332
  13 H :    0.037618
  14 H :    0.021681
  15 H :    0.042644
  16 S :    0.114307
  17 C :   -0.108519
  18 C :   -0.038505
  19 C :    0.026858
  20 C :   -0.195603
  21 H :    0.019986
  22 C :    0.010917
  23 H :    0.034586
  24 H :    0.044095
  25 C :   -0.084609
  26 H :    0.033672
  27 H :    0.035117
  28 C :   -0.049541
  29 H :    0.063814
  30 H :    0.024784
  31 H :    0.034446
  32 H :    0.033933
  33 H :    0.071485
Sum of atomic charges:   -0.0000000

LOEWDIN ATOMIC CHARGES
----------------------
   0 S :    0.435479
   1 C :   -0.211122
   2 C :   -0.066525
   3 C :   -0.045999
   4 C :   -0.207811
   5 H :    0.010892
   6 C :   -0.026709
   7 H :    0.027738
   8 H :    0.035730
   9 C :   -0.046858
  10 H :    0.020541
  11 H :    0.025112
  12 C :   -0.066134
  13 H :    0.025665
  14 H :    0.025117
  15 H :    0.023965
  16 S :    0.391427
  17 C :   -0.176511
  18 C :   -0.069547
  19 C :   -0.051161
  20 C :   -0.201737
  21 H :    0.033310
  22 C :   -0.044529
  23 H :    0.031505
  24 H :    0.037999
  25 C :   -0.040135
  26 H :    0.025021
  27 H :    0.022827
  28 C :   -0.067778
  29 H :    0.033576
  30 H :    0.024866
  31 H :    0.031217
  32 H :    0.025740
  33 H :    0.034830

  Mayer bond orders larger than 0.100000
B(  0-S ,  1-C ) :   1.1500 B(  0-S ,  4-C ) :   1.1721 B(  1-C ,  2-C ) :   1.5779
B(  1-C ,  4-C ) :   0.1013 B(  1-C , 32-H ) :   0.9714 B(  2-C ,  3-C ) :   1.2464
B(  2-C ,  6-C ) :   1.0228 B(  3-C ,  4-C ) :   1.5499 B(  3-C ,  5-H ) :   1.0211
B(  4-C , 20-C ) :   1.0441 B(  6-C ,  7-H ) :   0.9475 B(  6-C ,  8-H ) :   0.9433
B(  6-C ,  9-C ) :   1.0604 B(  9-C , 10-H ) :   0.9586 B(  9-C , 11-H ) :   0.9585
B(  9-C , 12-C ) :   1.0684 B( 12-C , 13-H ) :   0.9744 B( 12-C , 14-H ) :   0.9753
B( 12-C , 15-H ) :   0.9758 B( 16-S , 17-C ) :   1.1280 B( 16-S , 20-C ) :   1.1520
B( 17-C , 18-C ) :   1.6472 B( 17-C , 20-C ) :   0.1020 B( 17-C , 33-H ) :   0.9605
B( 18-C , 19-C ) :   1.1992 B( 18-C , 21-H ) :   0.9892 B( 19-C , 20-C ) :   1.5904
B( 19-C , 22-C ) :   1.0530 B( 22-C , 23-H ) :   0.9284 B( 22-C , 24-H ) :   0.9322
B( 22-C , 25-C ) :   1.0678 B( 25-C , 26-H ) :   0.9585 B( 25-C , 27-H ) :   0.9573
B( 25-C , 28-C ) :   1.0639 B( 28-C , 29-H ) :   0.9735 B( 28-C , 30-H ) :   0.9738
B( 28-C , 31-H ) :   0.9765

Dispersion correction           -0.015073206
FINAL SINGLE POINT ENERGY     -1339.876051202752

DIPOLE MOMENT
-------------
                                X             Y             Z
Electronic contribution:    -13.67529     -18.04384       8.39994
Nuclear contribution   :     13.80349      18.36876      -8.77754
                        -----------------------------------------
Total Dipole Moment    :      0.12820       0.32492      -0.37760
                        -----------------------------------------
Magnitude (a.u.)       :      0.51438
Magnitude (Debye)      :      1.30745

Rotational constants in cm-1:     0.019328     0.008952     0.007612
Rotational constants in MHz :   579.447392   268.369786   228.208008

                             ****ORCA TERMINATED NORMALLY****
TOTAL RUN TIME: 0 days 0 hours 0 minutes 22 seconds 134 msec
