                         Program Version 4.2.1 -  RELEASE  -
|  1> ! wB97X-D3 SP def2-SVP
|  2> %pal
|  3> nprocs 24
|  4> end
|  5>
|  6> * xyz 0 1
|  7> S 	 -65.8016 	 7.71241 	 -75.2915
|  8> C 	 -64.8725 	 8.60841 	 -74.173
|  9> C 	 -65.5473 	 9.67121 	 -73.5095
| 10> C 	 -66.8793 	 9.79706 	 -74.1163
| 11> C 	 -67.1538 	 8.85857 	 -75.1225
| 12> H 	 -67.607 	 10.4444 	 -73.8243
| 13> C 	 -65.0481 	 10.6396 	 -72.4419
| 14> H 	 -64.9962 	 11.678 	 -72.6966
| 15> H 	 -64.0253 	 10.4736 	 -72.2378
| 16> C 	 -65.6984 	 10.5841 	 -71.0705
| 17> H 	 -65.3314 	 11.4213 	 -70.471
| 18> H 	 -66.7317 	 10.8331 	 -71.2081
| 19> C 	 -65.5943 	 9.22583 	 -70.3173
| 20> H 	 -66.3863 	 9.16072 	 -69.5676
| 21> H 	 -65.7398 	 8.27385 	 -70.8948
| 22> H 	 -64.5713 	 9.21253 	 -69.8688
| 23> S 	 -68.5443 	 9.32828 	 -77.4088
| 24> C 	 -70.2846 	 9.28889 	 -77.3992
| 25> C 	 -70.6955 	 8.74812 	 -76.2186
| 26> C 	 -69.6855 	 8.3505 	 -75.2624
| 27> C 	 -68.4267 	 8.7645 	 -75.7778
| 28> H 	 -71.7821 	 8.65842 	 -76.0076
| 29> C 	 -69.9444 	 7.78879 	 -73.8695
| 30> H 	 -71.0369 	 7.77205 	 -73.6772
| 31> H 	 -69.4309 	 8.44132 	 -73.1094
| 32> C 	 -69.4083 	 6.32413 	 -73.5518
| 33> H 	 -69.4339 	 6.13901 	 -72.4843
| 34> H 	 -68.3372 	 6.21166 	 -73.7407
| 35> C 	 -70.1068 	 5.3091 	 -74.4686
| 36> H 	 -71.2087 	 5.31164 	 -74.2489
| 37> H 	 -69.7629 	 4.28232 	 -74.1533
| 38> H 	 -69.815 	 5.40932 	 -75.5126
| 39> H 	 -63.7938 	 8.51184 	 -73.9293
| 40> H 	 -71.0557 	 9.63697 	 -78.1117
| 41> *
| 42>
| 43>                          ****END OF INPUT****

CARTESIAN COORDINATES (ANGSTROEM)
---------------------------------
  S    -65.801600    7.712410  -75.291500
  C    -64.872500    8.608410  -74.173000
  C    -65.547300    9.671210  -73.509500
  C    -66.879300    9.797060  -74.116300
  C    -67.153800    8.858570  -75.122500
  H    -67.607000   10.444400  -73.824300
  C    -65.048100   10.639600  -72.441900
  H    -64.996200   11.678000  -72.696600
  H    -64.025300   10.473600  -72.237800
  C    -65.698400   10.584100  -71.070500
  H    -65.331400   11.421300  -70.471000
  H    -66.731700   10.833100  -71.208100
  C    -65.594300    9.225830  -70.317300
  H    -66.386300    9.160720  -69.567600
  H    -65.739800    8.273850  -70.894800
  H    -64.571300    9.212530  -69.868800
  S    -68.544300    9.328280  -77.408800
  C    -70.284600    9.288890  -77.399200
  C    -70.695500    8.748120  -76.218600
  C    -69.685500    8.350500  -75.262400
  C    -68.426700    8.764500  -75.777800
  H    -71.782100    8.658420  -76.007600
  C    -69.944400    7.788790  -73.869500
  H    -71.036900    7.772050  -73.677200
  H    -69.430900    8.441320  -73.109400
  C    -69.408300    6.324130  -73.551800
  H    -69.433900    6.139010  -72.484300
  H    -68.337200    6.211660  -73.740700
  C    -70.106800    5.309100  -74.468600
  H    -71.208700    5.311640  -74.248900
  H    -69.762900    4.282320  -74.153300
  H    -69.815000    5.409320  -75.512600
  H    -63.793800    8.511840  -73.929300
  H    -71.055700    9.636970  -78.111700

 Total Charge           Charge          ....    0
 Multiplicity           Mult            ....    1
 Number of Electrons    NEL             ....  134
 Basis Dimension        Dim             ....  322

ORBITAL ENERGIES
----------------

  NO   OCC          E(Eh)            E(eV)
   0   2.0000     -88.973069     -2421.0803
   1   2.0000     -88.965967     -2420.8871
   2   2.0000     -10.328695      -281.0581
   3   2.0000     -10.324472      -280.9432
   4   2.0000     -10.320740      -280.8416
   5   2.0000     -10.316101      -280.7154
   6   2.0000     -10.310182      -280.5543
   7   2.0000     -10.309169      -280.5267
   8   2.0000     -10.301203      -280.3100
   9   2.0000     -10.293612      -280.1034
  10   2.0000     -10.293381      -280.0971
  11   2.0000     -10.288797      -279.9724
  12   2.0000     -10.286596      -279.9125
  13   2.0000     -10.285970      -279.8955
  14   2.0000     -10.283650      -279.8323
  15   2.0000     -10.280224      -279.7391
  16   2.0000      -8.087337      -220.0676
  17   2.0000      -8.081002      -219.8952
  18   2.0000      -6.045840      -164.5157
  19   2.0000      -6.041851      -164.4071
  20   2.0000      -6.039524      -164.3438
  21   2.0000      -6.038190      -164.3075
  22   2.0000      -6.035353      -164.2303
  23   2.0000      -6.031827      -164.1344
  24   2.0000      -1.004526       -27.3346
  25   2.0000      -0.980631       -26.6843
  26   2.0000      -0.911996       -24.8167
  27   2.0000      -0.899082       -24.4653
  28   2.0000      -0.870834       -23.6966
  29   2.0000      -0.846471       -23.0336
  30   2.0000      -0.842524       -22.9262
  31   2.0000      -0.810382       -22.0516
  32   2.0000      -0.783977       -21.3331
  33   2.0000      -0.767856       -20.8944
  34   2.0000      -0.710394       -19.3308
  35   2.0000      -0.695757       -18.9325
  36   2.0000      -0.686520       -18.6811
  37   2.0000      -0.652977       -17.7684
  38   2.0000      -0.643955       -17.5229
  39   2.0000      -0.622611       -16.9421
  40   2.0000      -0.587092       -15.9756
  41   2.0000      -0.567576       -15.4445
  42   2.0000      -0.551218       -14.9994
  43   2.0000      -0.545151       -14.8343
  44   2.0000      -0.544025       -14.8037
  45   2.0000      -0.537723       -14.6322
  46   2.0000      -0.510157       -13.8821
  47   2.0000      -0.506768       -13.7899
  48   2.0000      -0.503374       -13.6975
  49   2.0000      -0.494706       -13.4616
  50   2.0000      -0.485272       -13.2049
  51   2.0000      -0.477240       -12.9863
  52   2.0000      -0.472527       -12.8581
  53   2.0000      -0.458391       -12.4735
  54   2.0000      -0.457620       -12.4525
  55   2.0000      -0.451626       -12.2894
  56   2.0000      -0.438534       -11.9331
  57   2.0000      -0.436228       -11.8704
  58   2.0000      -0.431101       -11.7308
  59   2.0000      -0.428468       -11.6592
  60   2.0000      -0.418610       -11.3910
  61   2.0000      -0.413620       -11.2552
  62   2.0000      -0.411901       -11.2084
  63   2.0000      -0.337494        -9.1837
  64   2.0000      -0.329678        -8.9710
  65   2.0000      -0.318886        -8.6773
  66   2.0000      -0.303928        -8.2703
  67   0.0000       0.037150         1.0109
  68   0.0000       0.054010         1.4697
  69   0.0000       0.109529         2.9804
  70   0.0000       0.124470         3.3870
  71   0.0000       0.127498         3.4694

MULLIKEN ATOMIC CHARGES
-----------------------
   0 S :    0.138751
   1 C :   -0.111002
   2 C :   -0.099308
   3 C :    0.084046
   4 C :   -0.173560
   5 H :   -0.021215
   6 C :    0.103081
   7 H :    0.028116
   8 H :   -0.010385
   9 C :   -0.080745
  10 H :    0.030269
  11 H :    0.013835
  12 C :   -0.078052
  13 H :    0.033893
  14 H :    0.050451
  15 H :    0.039192
  16 S :    0.127766
  17 C :   -0.089723
  18 C :   -0.070277
  19 C :    0.000884
  20 C :   -0.211541
  21 H :    0.024920
  22 C :    0.046418
  23 H :    0.026678
  24 H :    0.042715
  25 C :   -0.070175
  26 H :    0.027283
  27 H :    0.026184
  28 C :   -0.074828
  29 H :    0.035861
  30 H :    0.030102
  31 H :    0.057132
  32 H :    0.056670
  33 H :    0.066564
Sum of atomic charges:    0.0000000

LOEWDIN ATOMIC CHARGES
----------------------
   0 S :    0.418539
   1 C :   -0.215219
   2 C :   -0.057667
   3 C :   -0.031598
   4 C :   -0.201146
   5 H :    0.013210
   6 C :   -0.035304
   7 H :    0.033366
   8 H :    0.022215
   9 C :   -0.040375
  10 H :    0.028595
  11 H :    0.014469
  12 C :   -0.074614
  13 H :    0.026027
  14 H :    0.033297
  15 H :    0.029143
  16 S :    0.427676
  17 C :   -0.206946
  18 C :   -0.079402
  19 C :   -0.053069
  20 C :   -0.214012
  21 H :    0.032442
  22 C :   -0.035497
  23 H :    0.030956
  24 H :    0.038583
  25 C :   -0.042859
  26 H :    0.023018
  27 H :    0.021562
  28 C :   -0.072592
  29 H :    0.026590
  30 H :    0.028747
  31 H :    0.030192
  32 H :    0.036554
  33 H :    0.045118

  Mayer bond orders larger than 0.100000
B(  0-S ,  1-C ) :   1.1619 B(  0-S ,  4-C ) :   1.1231 B(  1-C ,  2-C ) :   1.6083
B(  1-C , 32-H ) :   0.9528 B(  2-C ,  3-C ) :   1.2256 B(  2-C ,  6-C ) :   1.0290
B(  3-C ,  4-C ) :   1.5914 B(  3-C ,  5-H ) :   1.0036 B(  4-C , 20-C ) :   1.0479
B(  6-C ,  7-H ) :   0.9396 B(  6-C ,  8-H ) :   0.9298 B(  6-C ,  9-C ) :   1.0765
B(  9-C , 10-H ) :   0.9536 B(  9-C , 11-H ) :   0.9592 B(  9-C , 12-C ) :   1.0622
B( 12-C , 13-H ) :   0.9762 B( 12-C , 14-H ) :   0.9769 B( 12-C , 15-H ) :   0.9772
B( 16-S , 17-C ) :   1.1399 B( 16-S , 20-C ) :   1.1713 B( 17-C , 18-C ) :   1.6284
B( 17-C , 33-H ) :   0.9617 B( 18-C , 19-C ) :   1.2496 B( 18-C , 21-H ) :   0.9752
B( 19-C , 20-C ) :   1.5423 B( 19-C , 22-C ) :   1.0421 B( 22-C , 23-H ) :   0.9410
B( 22-C , 24-H ) :   0.9312 B( 22-C , 25-C ) :   1.0638 B( 25-C , 26-H ) :   0.9591
B( 25-C , 27-H ) :   0.9551 B( 25-C , 28-C ) :   1.0685 B( 28-C , 29-H ) :   0.9772
B( 28-C , 30-H ) :   0.9731 B( 28-C , 31-H ) :   0.9739

Dispersion correction           -0.015278494
FINAL SINGLE POINT ENERGY     -1339.869923090048

DIPOLE MOMENT
-------------
                                X             Y             Z
Electronic contribution:      3.02426       3.66979     -24.84992
Nuclear contribution   :     -3.18331      -3.45899      25.46150
                        -----------------------------------------
Total Dipole Moment    :     -0.15905       0.21080       0.61158
                        -----------------------------------------
Magnitude (a.u.)       :      0.66616
Magnitude (Debye)      :      1.69324

Rotational constants in cm-1:     0.019167     0.008803     0.007678
Rotational constants in MHz :   574.626269   263.893240   230.184567

                             ****ORCA TERMINATED NORMALLY****
TOTAL RUN TIME: 0 days 0 hours 0 minutes 22 seconds 29 msec
