                         Program Version 4.2.1 -  RELEASE  -
|  1> ! wB97X-D3 SP def2-SVP
|  2> %pal
|  3> nprocs 24
|  4> end
|  5>
|  6> * xyz 0 1
|  7> S 	 -38.5049 	 -13.742 	 5.9305
|  8> C 	 -39.6076 	 -14.4996 	 7.00104
|  9> C 	 -40.7045 	 -13.6917 	 7.14457
| 10> C 	 -40.6505 	 -12.5306 	 6.31013
| 11> C 	 -39.4517 	 -12.3484 	 5.63833
| 12> H 	 -41.4401 	 -11.7818 	 6.13258
| 13> C 	 -41.9536 	 -13.9758 	 8.02507
| 14> H 	 -42.1638 	 -15.1071 	 8.1466
| 15> H 	 -42.8037 	 -13.4413 	 7.65416
| 16> C 	 -41.7216 	 -13.4218 	 9.48035
| 17> H 	 -42.4798 	 -13.8939 	 10.1722
| 18> H 	 -40.7531 	 -13.7639 	 9.90166
| 19> C 	 -41.6984 	 -11.9052 	 9.51547
| 20> H 	 -40.8943 	 -11.4303 	 8.99419
| 21> H 	 -42.7451 	 -11.6204 	 9.17389
| 22> H 	 -41.59 	 -11.5114 	 10.5337
| 23> S 	 -38.8549 	 -11.6878 	 2.97887
| 24> C 	 -38.7405 	 -9.97489 	 2.49546
| 25> C 	 -39.0922 	 -9.1975 	 3.57545
| 26> C 	 -39.2985 	 -9.96654 	 4.80301
| 27> C 	 -39.118 	 -11.3175 	 4.66577
| 28> H 	 -39.0241 	 -8.13342 	 3.33878
| 29> C 	 -39.6383 	 -9.27926 	 6.11242
| 30> H 	 -40.6257 	 -9.33323 	 6.35064
| 31> H 	 -39.357 	 -8.14151 	 5.85063
| 32> C 	 -38.874 	 -9.57345 	 7.3561
| 33> H 	 -37.8766 	 -9.28672 	 7.20429
| 34> H 	 -38.7885 	 -10.6968 	 7.46503
| 35> C 	 -39.3521 	 -8.71482 	 8.54018
| 36> H 	 -40.3963 	 -8.84223 	 8.64629
| 37> H 	 -39.3272 	 -7.73027 	 8.28221
| 38> H 	 -38.9804 	 -8.96787 	 9.49762
| 39> H 	 -39.4431 	 -15.4975 	 7.49774
| 40> H 	 -38.4076 	 -9.53737 	 1.50857
| 41> *
| 42>
| 43>                          ****END OF INPUT****

CARTESIAN COORDINATES (ANGSTROEM)
---------------------------------
  S    -38.504900  -13.742000    5.930500
  C    -39.607600  -14.499600    7.001040
  C    -40.704500  -13.691700    7.144570
  C    -40.650500  -12.530600    6.310130
  C    -39.451700  -12.348400    5.638330
  H    -41.440100  -11.781800    6.132580
  C    -41.953600  -13.975800    8.025070
  H    -42.163800  -15.107100    8.146600
  H    -42.803700  -13.441300    7.654160
  C    -41.721600  -13.421800    9.480350
  H    -42.479800  -13.893900   10.172200
  H    -40.753100  -13.763900    9.901660
  C    -41.698400  -11.905200    9.515470
  H    -40.894300  -11.430300    8.994190
  H    -42.745100  -11.620400    9.173890
  H    -41.590000  -11.511400   10.533700
  S    -38.854900  -11.687800    2.978870
  C    -38.740500   -9.974890    2.495460
  C    -39.092200   -9.197500    3.575450
  C    -39.298500   -9.966540    4.803010
  C    -39.118000  -11.317500    4.665770
  H    -39.024100   -8.133420    3.338780
  C    -39.638300   -9.279260    6.112420
  H    -40.625700   -9.333230    6.350640
  H    -39.357000   -8.141510    5.850630
  C    -38.874000   -9.573450    7.356100
  H    -37.876600   -9.286720    7.204290
  H    -38.788500  -10.696800    7.465030
  C    -39.352100   -8.714820    8.540180
  H    -40.396300   -8.842230    8.646290
  H    -39.327200   -7.730270    8.282210
  H    -38.980400   -8.967870    9.497620
  H    -39.443100  -15.497500    7.497740
  H    -38.407600   -9.537370    1.508570

 Total Charge           Charge          ....    0
 Multiplicity           Mult            ....    1
 Number of Electrons    NEL             ....  134
 Basis Dimension        Dim             ....  322

ORBITAL ENERGIES
----------------

  NO   OCC          E(Eh)            E(eV)
   0   2.0000     -88.966610     -2420.9045
   1   2.0000     -88.963850     -2420.8294
   2   2.0000     -10.329097      -281.0690
   3   2.0000     -10.328069      -281.0410
   4   2.0000     -10.325766      -280.9784
   5   2.0000     -10.319291      -280.8022
   6   2.0000     -10.308101      -280.4977
   7   2.0000     -10.305486      -280.4265
   8   2.0000     -10.302914      -280.3565
   9   2.0000     -10.299577      -280.2657
  10   2.0000     -10.297885      -280.2197
  11   2.0000     -10.292283      -280.0672
  12   2.0000     -10.289382      -279.9883
  13   2.0000     -10.279437      -279.7177
  14   2.0000     -10.276309      -279.6326
  15   2.0000     -10.264156      -279.3019
  16   2.0000      -8.082507      -219.9362
  17   2.0000      -8.078198      -219.8189
  18   2.0000      -6.040853      -164.3800
  19   2.0000      -6.036937      -164.2734
  20   2.0000      -6.036589      -164.2639
  21   2.0000      -6.033601      -164.1826
  22   2.0000      -6.032723      -164.1587
  23   2.0000      -6.028729      -164.0500
  24   2.0000      -1.014989       -27.6192
  25   2.0000      -0.988477       -26.8978
  26   2.0000      -0.914263       -24.8784
  27   2.0000      -0.908016       -24.7084
  28   2.0000      -0.874570       -23.7983
  29   2.0000      -0.849670       -23.1207
  30   2.0000      -0.842489       -22.9253
  31   2.0000      -0.819688       -22.3049
  32   2.0000      -0.781987       -21.2790
  33   2.0000      -0.775087       -21.0912
  34   2.0000      -0.712944       -19.4002
  35   2.0000      -0.694119       -18.8879
  36   2.0000      -0.690718       -18.7954
  37   2.0000      -0.659885       -17.9564
  38   2.0000      -0.642692       -17.4885
  39   2.0000      -0.615585       -16.7509
  40   2.0000      -0.596131       -16.2216
  41   2.0000      -0.578470       -15.7410
  42   2.0000      -0.568151       -15.4602
  43   2.0000      -0.548407       -14.9229
  44   2.0000      -0.541304       -14.7296
  45   2.0000      -0.524674       -14.2771
  46   2.0000      -0.516552       -14.0561
  47   2.0000      -0.513877       -13.9833
  48   2.0000      -0.505859       -13.7651
  49   2.0000      -0.503537       -13.7019
  50   2.0000      -0.493935       -13.4407
  51   2.0000      -0.481914       -13.1136
  52   2.0000      -0.478509       -13.0209
  53   2.0000      -0.472079       -12.8459
  54   2.0000      -0.460194       -12.5225
  55   2.0000      -0.443161       -12.0590
  56   2.0000      -0.437626       -11.9084
  57   2.0000      -0.433764       -11.8033
  58   2.0000      -0.430605       -11.7174
  59   2.0000      -0.422760       -11.5039
  60   2.0000      -0.416093       -11.3225
  61   2.0000      -0.410855       -11.1799
  62   2.0000      -0.401535       -10.9263
  63   2.0000      -0.349296        -9.5048
  64   2.0000      -0.330713        -8.9992
  65   2.0000      -0.327024        -8.8988
  66   2.0000      -0.303715        -8.2645
  67   0.0000       0.028720         0.7815
  68   0.0000       0.072944         1.9849
  69   0.0000       0.115135         3.1330
  70   0.0000       0.121889         3.3168
  71   0.0000       0.131046         3.5660

MULLIKEN ATOMIC CHARGES
-----------------------
   0 S :    0.120444
   1 C :   -0.138477
   2 C :   -0.082093
   3 C :    0.026857
   4 C :   -0.213904
   5 H :    0.024866
   6 C :    0.056892
   7 H :    0.046698
   8 H :    0.020927
   9 C :   -0.092624
  10 H :    0.038631
  11 H :    0.023998
  12 C :   -0.061392
  13 H :    0.042922
  14 H :    0.029015
  15 H :    0.031039
  16 S :    0.096536
  17 C :   -0.130972
  18 C :   -0.034100
  19 C :   -0.029790
  20 C :   -0.087419
  21 H :    0.030249
  22 C :    0.024426
  23 H :    0.009029
  24 H :    0.033272
  25 C :   -0.073445
  26 H :    0.010483
  27 H :    0.053078
  28 C :    0.043503
  29 H :   -0.004359
  30 H :   -0.001260
  31 H :    0.028991
  32 H :    0.075877
  33 H :    0.082100
Sum of atomic charges:    0.0000000

LOEWDIN ATOMIC CHARGES
----------------------
   0 S :    0.444507
   1 C :   -0.213577
   2 C :   -0.070103
   3 C :   -0.063675
   4 C :   -0.218007
   5 H :    0.035295
   6 C :   -0.027831
   7 H :    0.040221
   8 H :    0.023579
   9 C :   -0.047852
  10 H :    0.027131
  11 H :    0.020771
  12 C :   -0.071439
  13 H :    0.023475
  14 H :    0.029199
  15 H :    0.027945
  16 S :    0.389681
  17 C :   -0.183829
  18 C :   -0.078184
  19 C :   -0.055181
  20 C :   -0.202000
  21 H :    0.037801
  22 C :   -0.031781
  23 H :    0.011638
  24 H :    0.042544
  25 C :   -0.044087
  26 H :    0.016776
  27 H :    0.030270
  28 C :   -0.049219
  29 H :    0.019238
  30 H :    0.015971
  31 H :    0.025694
  32 H :    0.046879
  33 H :    0.048149

  Mayer bond orders larger than 0.100000
B(  0-S ,  1-C ) :   1.1627 B(  0-S ,  4-C ) :   1.1714 B(  1-C ,  2-C ) :   1.5830
B(  1-C , 32-H ) :   0.9644 B(  2-C ,  3-C ) :   1.2653 B(  2-C ,  6-C ) :   1.0172
B(  3-C ,  4-C ) :   1.5443 B(  3-C ,  5-H ) :   0.9905 B(  4-C , 20-C ) :   1.0319
B(  6-C ,  7-H ) :   0.9478 B(  6-C ,  8-H ) :   0.9468 B(  6-C ,  9-C ) :   1.0556
B(  9-C , 10-H ) :   0.9589 B(  9-C , 11-H ) :   0.9561 B(  9-C , 12-C ) :   1.0773
B( 12-C , 13-H ) :   0.9699 B( 12-C , 14-H ) :   0.9744 B( 12-C , 15-H ) :   0.9693
B( 16-S , 17-C ) :   1.1423 B( 16-S , 20-C ) :   1.1259 B( 17-C , 18-C ) :   1.6444
B( 17-C , 33-H ) :   0.9574 B( 18-C , 19-C ) :   1.2129 B( 18-C , 21-H ) :   0.9880
B( 19-C , 20-C ) :   1.6164 B( 19-C , 22-C ) :   1.0246 B( 22-C , 23-H ) :   0.9303
B( 22-C , 24-H ) :   0.9442 B( 22-C , 25-C ) :   1.0676 B( 25-C , 26-H ) :   0.9489
B( 25-C , 27-H ) :   0.9474 B( 25-C , 28-C ) :   1.0764 B( 28-C , 29-H ) :   0.9670
B( 28-C , 30-H ) :   0.9647 B( 28-C , 31-H ) :   0.9722

Dispersion correction           -0.016173410
FINAL SINGLE POINT ENERGY     -1339.855484956072

DIPOLE MOMENT
-------------
                                X             Y             Z
Electronic contribution:     11.66690     -11.71569     -25.64542
Nuclear contribution   :    -12.02142      12.02865      26.04735
                        -----------------------------------------
Total Dipole Moment    :     -0.35452       0.31296       0.40193
                        -----------------------------------------
Magnitude (a.u.)       :      0.62062
Magnitude (Debye)      :      1.57750

Rotational constants in cm-1:     0.019209     0.010261     0.007572
Rotational constants in MHz :   575.863939   307.612546   226.998398

                             ****ORCA TERMINATED NORMALLY****
TOTAL RUN TIME: 0 days 0 hours 0 minutes 22 seconds 242 msec
