                         Program Version 4.2.1 -  RELEASE  -
|  1> ! wB97X-D3 SP def2-SVP
|  2> %pal
|  3> nprocs 24
|  4> end
|  5>
|  6> * xyz 0 1
|  7> S 	 -42.2132 	 -50.5263 	 -69.5583
|  8> C 	 -40.5759 	 -50.0165 	 -69.2506
|  9> C 	 -39.6988 	 -51.0887 	 -69.3434
| 10> C 	 -40.3561 	 -52.3167 	 -69.4896
| 11> C 	 -41.724 	 -52.223 	 -69.5802
| 12> H 	 -39.8215 	 -53.3367 	 -69.528
| 13> C 	 -38.1726 	 -50.7881 	 -69.1459
| 14> H 	 -38.0071 	 -49.695 	 -69.1819
| 15> H 	 -37.6806 	 -51.1413 	 -70.0331
| 16> C 	 -37.5923 	 -51.5226 	 -67.8705
| 17> H 	 -37.9019 	 -51.1917 	 -66.8934
| 18> H 	 -37.8937 	 -52.5178 	 -67.8786
| 19> C 	 -36.1304 	 -51.4473 	 -67.9243
| 20> H 	 -35.724 	 -50.4044 	 -67.9481
| 21> H 	 -35.8067 	 -52.0017 	 -67.0853
| 22> H 	 -35.7064 	 -51.9459 	 -68.7615
| 23> S 	 -43.7408 	 -52.9879 	 -71.2822
| 24> C 	 -44.5071 	 -54.5244 	 -71.0493
| 25> C 	 -43.7958 	 -55.2307 	 -70.1555
| 26> C 	 -42.7248 	 -54.5777 	 -69.4761
| 27> C 	 -42.6403 	 -53.2928 	 -69.9329
| 28> H 	 -44.0008 	 -56.256 	 -69.9497
| 29> C 	 -42.1163 	 -55.1713 	 -68.2675
| 30> H 	 -41.1396 	 -54.7873 	 -67.8653
| 31> H 	 -41.7973 	 -56.1823 	 -68.4234
| 32> C 	 -43.119 	 -55.1117 	 -67.1098
| 33> H 	 -42.75 	 -55.5013 	 -66.1154
| 34> H 	 -44.0572 	 -55.617 	 -67.4041
| 35> C 	 -43.4329 	 -53.6789 	 -66.6229
| 36> H 	 -44.215 	 -53.7022 	 -65.8529
| 37> H 	 -43.788 	 -53.1313 	 -67.475
| 38> H 	 -42.5065 	 -53.1849 	 -66.3296
| 39> H 	 -40.1317 	 -49.0623 	 -69.1889
| 40> H 	 -45.4189 	 -54.8437 	 -71.6592
| 41> *
| 42>
| 43>                          ****END OF INPUT****

CARTESIAN COORDINATES (ANGSTROEM)
---------------------------------
  S    -42.213200  -50.526300  -69.558300
  C    -40.575900  -50.016500  -69.250600
  C    -39.698800  -51.088700  -69.343400
  C    -40.356100  -52.316700  -69.489600
  C    -41.724000  -52.223000  -69.580200
  H    -39.821500  -53.336700  -69.528000
  C    -38.172600  -50.788100  -69.145900
  H    -38.007100  -49.695000  -69.181900
  H    -37.680600  -51.141300  -70.033100
  C    -37.592300  -51.522600  -67.870500
  H    -37.901900  -51.191700  -66.893400
  H    -37.893700  -52.517800  -67.878600
  C    -36.130400  -51.447300  -67.924300
  H    -35.724000  -50.404400  -67.948100
  H    -35.806700  -52.001700  -67.085300
  H    -35.706400  -51.945900  -68.761500
  S    -43.740800  -52.987900  -71.282200
  C    -44.507100  -54.524400  -71.049300
  C    -43.795800  -55.230700  -70.155500
  C    -42.724800  -54.577700  -69.476100
  C    -42.640300  -53.292800  -69.932900
  H    -44.000800  -56.256000  -69.949700
  C    -42.116300  -55.171300  -68.267500
  H    -41.139600  -54.787300  -67.865300
  H    -41.797300  -56.182300  -68.423400
  C    -43.119000  -55.111700  -67.109800
  H    -42.750000  -55.501300  -66.115400
  H    -44.057200  -55.617000  -67.404100
  C    -43.432900  -53.678900  -66.622900
  H    -44.215000  -53.702200  -65.852900
  H    -43.788000  -53.131300  -67.475000
  H    -42.506500  -53.184900  -66.329600
  H    -40.131700  -49.062300  -69.188900
  H    -45.418900  -54.843700  -71.659200

 Total Charge           Charge          ....    0
 Multiplicity           Mult            ....    1
 Number of Electrons    NEL             ....  134
 Basis Dimension        Dim             ....  322

ORBITAL ENERGIES
----------------

  NO   OCC          E(Eh)            E(eV)
   0   2.0000     -88.968593     -2420.9585
   1   2.0000     -88.961871     -2420.7756
   2   2.0000     -10.328538      -281.0538
   3   2.0000     -10.326530      -280.9992
   4   2.0000     -10.318704      -280.7862
   5   2.0000     -10.307692      -280.4866
   6   2.0000     -10.299677      -280.2685
   7   2.0000     -10.299184      -280.2551
   8   2.0000     -10.298951      -280.2487
   9   2.0000     -10.297872      -280.2193
  10   2.0000     -10.293794      -280.1084
  11   2.0000     -10.287725      -279.9432
  12   2.0000     -10.287181      -279.9284
  13   2.0000     -10.279884      -279.7299
  14   2.0000     -10.268960      -279.4326
  15   2.0000     -10.266661      -279.3701
  16   2.0000      -8.082708      -219.9417
  17   2.0000      -8.077157      -219.7906
  18   2.0000      -6.041245      -164.3906
  19   2.0000      -6.037286      -164.2829
  20   2.0000      -6.035680      -164.2392
  21   2.0000      -6.033480      -164.1793
  22   2.0000      -6.031694      -164.1307
  23   2.0000      -6.027746      -164.0233
  24   2.0000      -1.011773       -27.5317
  25   2.0000      -0.988619       -26.9017
  26   2.0000      -0.914447       -24.8834
  27   2.0000      -0.913492       -24.8574
  28   2.0000      -0.874980       -23.8094
  29   2.0000      -0.851765       -23.1777
  30   2.0000      -0.844010       -22.9667
  31   2.0000      -0.816622       -22.2214
  32   2.0000      -0.785185       -21.3660
  33   2.0000      -0.770039       -20.9538
  34   2.0000      -0.711381       -19.3577
  35   2.0000      -0.698644       -19.0111
  36   2.0000      -0.687114       -18.6973
  37   2.0000      -0.660386       -17.9700
  38   2.0000      -0.637512       -17.3476
  39   2.0000      -0.619363       -16.8537
  40   2.0000      -0.606895       -16.5145
  41   2.0000      -0.566721       -15.4213
  42   2.0000      -0.562367       -15.3028
  43   2.0000      -0.556055       -15.1310
  44   2.0000      -0.544417       -14.8143
  45   2.0000      -0.534090       -14.5333
  46   2.0000      -0.517057       -14.0698
  47   2.0000      -0.507410       -13.8073
  48   2.0000      -0.500802       -13.6275
  49   2.0000      -0.495368       -13.4797
  50   2.0000      -0.489773       -13.3274
  51   2.0000      -0.483361       -13.1529
  52   2.0000      -0.472789       -12.8652
  53   2.0000      -0.464449       -12.6383
  54   2.0000      -0.460056       -12.5188
  55   2.0000      -0.457271       -12.4430
  56   2.0000      -0.442678       -12.0459
  57   2.0000      -0.436805       -11.8861
  58   2.0000      -0.430802       -11.7227
  59   2.0000      -0.425902       -11.5894
  60   2.0000      -0.419408       -11.4127
  61   2.0000      -0.408286       -11.1100
  62   2.0000      -0.401796       -10.9334
  63   2.0000      -0.353010        -9.6059
  64   2.0000      -0.332709        -9.0535
  65   2.0000      -0.330274        -8.9872
  66   2.0000      -0.290988        -7.9182
  67   0.0000       0.027532         0.7492
  68   0.0000       0.077468         2.1080
  69   0.0000       0.109984         2.9928
  70   0.0000       0.125271         3.4088
  71   0.0000       0.134952         3.6722

MULLIKEN ATOMIC CHARGES
-----------------------
   0 S :    0.117568
   1 C :   -0.082009
   2 C :   -0.116129
   3 C :    0.006474
   4 C :   -0.152330
   5 H :    0.043753
   6 C :    0.064859
   7 H :    0.021098
   8 H :    0.023903
   9 C :   -0.030866
  10 H :    0.024044
  11 H :    0.004395
  12 C :   -0.020511
  13 H :    0.035017
  14 H :    0.017052
  15 H :    0.014391
  16 S :    0.097994
  17 C :   -0.106491
  18 C :   -0.023951
  19 C :   -0.020283
  20 C :   -0.164275
  21 H :    0.004485
  22 C :    0.082586
  23 H :    0.020042
  24 H :    0.017197
  25 C :   -0.114517
  26 H :    0.034671
  27 H :    0.033378
  28 C :   -0.041830
  29 H :    0.038817
  30 H :    0.029504
  31 H :    0.029835
  32 H :    0.024788
  33 H :    0.087340
Sum of atomic charges:    0.0000000

LOEWDIN ATOMIC CHARGES
----------------------
   0 S :    0.407183
   1 C :   -0.198939
   2 C :   -0.065654
   3 C :   -0.071947
   4 C :   -0.192925
   5 H :    0.045234
   6 C :   -0.019924
   7 H :    0.029792
   8 H :    0.027854
   9 C :   -0.032248
  10 H :    0.025790
  11 H :    0.015921
  12 C :   -0.061171
  13 H :    0.029854
  14 H :    0.021985
  15 H :    0.017791
  16 S :    0.394785
  17 C :   -0.197872
  18 C :   -0.067994
  19 C :   -0.063085
  20 C :   -0.181946
  21 H :    0.024816
  22 C :   -0.038787
  23 H :    0.035074
  24 H :    0.030152
  25 C :   -0.042574
  26 H :    0.028590
  27 H :    0.021864
  28 C :   -0.062892
  29 H :    0.027541
  30 H :    0.018314
  31 H :    0.024495
  32 H :    0.021513
  33 H :    0.049413

  Mayer bond orders larger than 0.100000
B(  0-S ,  1-C ) :   1.1345 B(  0-S ,  4-C ) :   1.1484 B(  1-C ,  2-C ) :   1.6116
B(  1-C ,  4-C ) :   0.1022 B(  1-C , 32-H ) :   0.9680 B(  2-C ,  3-C ) :   1.2781
B(  2-C ,  6-C ) :   1.0125 B(  3-C ,  4-C ) :   1.5604 B(  3-C ,  5-H ) :   0.9748
B(  4-C , 20-C ) :   1.0494 B(  6-C ,  7-H ) :   0.9459 B(  6-C ,  8-H ) :   0.9412
B(  6-C ,  9-C ) :   1.0507 B(  9-C , 10-H ) :   0.9552 B(  9-C , 11-H ) :   0.9523
B(  9-C , 12-C ) :   1.1006 B( 12-C , 13-H ) :   0.9722 B( 12-C , 14-H ) :   0.9680
B( 12-C , 15-H ) :   0.9723 B( 16-S , 17-C ) :   1.1272 B( 16-S , 20-C ) :   1.1469
B( 17-C , 18-C ) :   1.6208 B( 17-C , 33-H ) :   0.9611 B( 18-C , 19-C ) :   1.2234
B( 18-C , 21-H ) :   0.9903 B( 19-C , 20-C ) :   1.6082 B( 19-C , 22-C ) :   1.0643
B( 22-C , 23-H ) :   0.9356 B( 22-C , 24-H ) :   0.9202 B( 22-C , 25-C ) :   1.0697
B( 25-C , 26-H ) :   0.9592 B( 25-C , 27-H ) :   0.9562 B( 25-C , 28-C ) :   1.0665
B( 28-C , 29-H ) :   0.9738 B( 28-C , 30-H ) :   0.9748 B( 28-C , 31-H ) :   0.9733

Dispersion correction           -0.014901291
FINAL SINGLE POINT ENERGY     -1339.868449304181

DIPOLE MOMENT
-------------
                                X             Y             Z
Electronic contribution:    -18.61961       6.29184     -17.90366
Nuclear contribution   :     19.12373      -6.68043      18.12891
                        -----------------------------------------
Total Dipole Moment    :      0.50412      -0.38859       0.22525
                        -----------------------------------------
Magnitude (a.u.)       :      0.67519
Magnitude (Debye)      :      1.71619

Rotational constants in cm-1:     0.021128     0.008338     0.007099
Rotational constants in MHz :   633.401570   249.958913   212.816957

                             ****ORCA TERMINATED NORMALLY****
TOTAL RUN TIME: 0 days 0 hours 0 minutes 21 seconds 66 msec
