                         Program Version 4.2.1 -  RELEASE  -
|  1> ! wB97X-D3 SP def2-SVP
|  2> %pal
|  3> nprocs 24
|  4> end
|  5>
|  6> * xyz 0 1
|  7> S 	 -123.523 	 67.2503 	 -38.7175
|  8> C 	 -123.967 	 68.7897 	 -37.9303
|  9> C 	 -123.746 	 69.8609 	 -38.8072
| 10> C 	 -123.418 	 69.3099 	 -40.1426
| 11> C 	 -123.449 	 67.9301 	 -40.2851
| 12> H 	 -123.15 	 69.8545 	 -41.0612
| 13> C 	 -123.776 	 71.3766 	 -38.5565
| 14> H 	 -122.893 	 71.8768 	 -38.9856
| 15> H 	 -123.608 	 71.3772 	 -37.4294
| 16> C 	 -125.071 	 72.0802 	 -38.9824
| 17> H 	 -125.097 	 73.0836 	 -38.6734
| 18> H 	 -125.14 	 72.0154 	 -40.1165
| 19> C 	 -126.361 	 71.379 	 -38.5004
| 20> H 	 -126.684 	 70.5181 	 -39.1513
| 21> H 	 -126.33 	 70.9224 	 -37.4623
| 22> H 	 -127.211 	 71.9386 	 -38.3921
| 23> S 	 -122.524 	 65.5189 	 -41.3583
| 24> C 	 -122.506 	 65.2775 	 -43.0412
| 25> C 	 -123.128 	 66.3126 	 -43.727
| 26> C 	 -123.414 	 67.4258 	 -42.8615
| 27> C 	 -123.244 	 67.1735 	 -41.4972
| 28> H 	 -123.262 	 66.2288 	 -44.8195
| 29> C 	 -124.043 	 68.6899 	 -43.4333
| 30> H 	 -124.406 	 69.3353 	 -42.6416
| 31> H 	 -124.939 	 68.3245 	 -43.8408
| 32> C 	 -123.153 	 69.3562 	 -44.4556
| 33> H 	 -123.7 	 70.0681 	 -44.9752
| 34> H 	 -122.958 	 68.7689 	 -45.3587
| 35> C 	 -121.88 	 70.154 	 -43.9543
| 36> H 	 -122.205 	 70.9104 	 -43.2272
| 37> H 	 -121.358 	 70.6452 	 -44.7725
| 38> H 	 -121.103 	 69.5033 	 -43.6008
| 39> H 	 -124.109 	 68.9327 	 -36.8834
| 40> H 	 -122.086 	 64.3763 	 -43.5108
| 41> *
| 42>
| 43>                          ****END OF INPUT****

CARTESIAN COORDINATES (ANGSTROEM)
---------------------------------
  S    -123.523000   67.250300  -38.717500
  C    -123.967000   68.789700  -37.930300
  C    -123.746000   69.860900  -38.807200
  C    -123.418000   69.309900  -40.142600
  C    -123.449000   67.930100  -40.285100
  H    -123.150000   69.854500  -41.061200
  C    -123.776000   71.376600  -38.556500
  H    -122.893000   71.876800  -38.985600
  H    -123.608000   71.377200  -37.429400
  C    -125.071000   72.080200  -38.982400
  H    -125.097000   73.083600  -38.673400
  H    -125.140000   72.015400  -40.116500
  C    -126.361000   71.379000  -38.500400
  H    -126.684000   70.518100  -39.151300
  H    -126.330000   70.922400  -37.462300
  H    -127.211000   71.938600  -38.392100
  S    -122.524000   65.518900  -41.358300
  C    -122.506000   65.277500  -43.041200
  C    -123.128000   66.312600  -43.727000
  C    -123.414000   67.425800  -42.861500
  C    -123.244000   67.173500  -41.497200
  H    -123.262000   66.228800  -44.819500
  C    -124.043000   68.689900  -43.433300
  H    -124.406000   69.335300  -42.641600
  H    -124.939000   68.324500  -43.840800
  C    -123.153000   69.356200  -44.455600
  H    -123.700000   70.068100  -44.975200
  H    -122.958000   68.768900  -45.358700
  C    -121.880000   70.154000  -43.954300
  H    -122.205000   70.910400  -43.227200
  H    -121.358000   70.645200  -44.772500
  H    -121.103000   69.503300  -43.600800
  H    -124.109000   68.932700  -36.883400
  H    -122.086000   64.376300  -43.510800

 Total Charge           Charge          ....    0
 Multiplicity           Mult            ....    1
 Number of Electrons    NEL             ....  134
 Basis Dimension        Dim             ....  322

ORBITAL ENERGIES
----------------

  NO   OCC          E(Eh)            E(eV)
   0   2.0000     -88.964141     -2420.8374
   1   2.0000     -88.963080     -2420.8085
   2   2.0000     -10.332297      -281.1561
   3   2.0000     -10.328951      -281.0650
   4   2.0000     -10.320213      -280.8273
   5   2.0000     -10.318148      -280.7711
   6   2.0000     -10.311866      -280.6001
   7   2.0000     -10.308597      -280.5112
   8   2.0000     -10.304451      -280.3984
   9   2.0000     -10.298197      -280.2282
  10   2.0000     -10.294154      -280.1182
  11   2.0000     -10.293767      -280.1076
  12   2.0000     -10.288079      -279.9529
  13   2.0000     -10.284627      -279.8589
  14   2.0000     -10.281039      -279.7613
  15   2.0000     -10.275052      -279.5984
  16   2.0000      -8.079029      -219.8416
  17   2.0000      -8.078167      -219.8181
  18   2.0000      -6.037811      -164.2972
  19   2.0000      -6.036677      -164.2663
  20   2.0000      -6.033619      -164.1831
  21   2.0000      -6.032608      -164.1556
  22   2.0000      -6.029373      -164.0676
  23   2.0000      -6.028928      -164.0555
  24   2.0000      -1.005020       -27.3480
  25   2.0000      -0.981470       -26.7072
  26   2.0000      -0.911688       -24.8083
  27   2.0000      -0.909820       -24.7575
  28   2.0000      -0.868801       -23.6413
  29   2.0000      -0.848264       -23.0824
  30   2.0000      -0.835524       -22.7358
  31   2.0000      -0.810087       -22.0436
  32   2.0000      -0.787064       -21.4171
  33   2.0000      -0.780050       -21.2262
  34   2.0000      -0.716851       -19.5065
  35   2.0000      -0.703718       -19.1491
  36   2.0000      -0.697587       -18.9823
  37   2.0000      -0.656559       -17.8659
  38   2.0000      -0.636245       -17.3131
  39   2.0000      -0.614393       -16.7185
  40   2.0000      -0.594734       -16.1835
  41   2.0000      -0.569123       -15.4866
  42   2.0000      -0.560112       -15.2414
  43   2.0000      -0.548290       -14.9197
  44   2.0000      -0.546468       -14.8701
  45   2.0000      -0.535399       -14.5689
  46   2.0000      -0.517927       -14.0935
  47   2.0000      -0.512907       -13.9569
  48   2.0000      -0.507245       -13.8028
  49   2.0000      -0.491594       -13.3769
  50   2.0000      -0.485006       -13.1977
  51   2.0000      -0.474738       -12.9183
  52   2.0000      -0.470471       -12.8022
  53   2.0000      -0.465657       -12.6712
  54   2.0000      -0.458427       -12.4744
  55   2.0000      -0.451252       -12.2792
  56   2.0000      -0.445026       -12.1098
  57   2.0000      -0.441771       -12.0212
  58   2.0000      -0.433317       -11.7912
  59   2.0000      -0.425214       -11.5707
  60   2.0000      -0.417304       -11.3554
  61   2.0000      -0.412441       -11.2231
  62   2.0000      -0.401716       -10.9313
  63   2.0000      -0.361244        -9.8300
  64   2.0000      -0.331145        -9.0109
  65   2.0000      -0.321993        -8.7619
  66   2.0000      -0.282497        -7.6871
  67   0.0000       0.021226         0.5776
  68   0.0000       0.076073         2.0701
  69   0.0000       0.102481         2.7886
  70   0.0000       0.116040         3.1576
  71   0.0000       0.131368         3.5747

MULLIKEN ATOMIC CHARGES
-----------------------
   0 S :    0.096188
   1 C :   -0.106711
   2 C :   -0.092762
   3 C :   -0.026337
   4 C :   -0.107223
   5 H :    0.007146
   6 C :    0.042354
   7 H :    0.045749
   8 H :    0.031576
   9 C :   -0.034807
  10 H :    0.031963
  11 H :    0.042117
  12 C :   -0.069094
  13 H :    0.044982
  14 H :    0.020940
  15 H :    0.009955
  16 S :    0.088301
  17 C :   -0.096034
  18 C :   -0.043183
  19 C :   -0.073598
  20 C :   -0.120071
  21 H :    0.034064
  22 C :    0.102405
  23 H :    0.015075
  24 H :    0.018533
  25 C :   -0.055601
  26 H :   -0.000591
  27 H :    0.016846
  28 C :   -0.047838
  29 H :    0.044820
  30 H :    0.027427
  31 H :    0.040259
  32 H :    0.042354
  33 H :    0.070795
Sum of atomic charges:   -0.0000000

LOEWDIN ATOMIC CHARGES
----------------------
   0 S :    0.402374
   1 C :   -0.187511
   2 C :   -0.052851
   3 C :   -0.079582
   4 C :   -0.202836
   5 H :    0.026921
   6 C :   -0.035385
   7 H :    0.036970
   8 H :    0.036039
   9 C :   -0.037235
  10 H :    0.019931
  11 H :    0.035339
  12 C :   -0.076044
  13 H :    0.035046
  14 H :    0.028611
  15 H :    0.011141
  16 S :    0.394498
  17 C :   -0.192627
  18 C :   -0.081424
  19 C :   -0.046748
  20 C :   -0.183211
  21 H :    0.037572
  22 C :   -0.027558
  23 H :    0.029128
  24 H :    0.032475
  25 C :   -0.043690
  26 H :    0.016724
  27 H :    0.026835
  28 C :   -0.062525
  29 H :    0.026388
  30 H :    0.028712
  31 H :    0.024793
  32 H :    0.023354
  33 H :    0.036377

  Mayer bond orders larger than 0.100000
B(  0-S ,  1-C ) :   1.1270 B(  0-S ,  4-C ) :   1.1383 B(  1-C ,  2-C ) :   1.6182
B(  1-C , 32-H ) :   0.9693 B(  2-C ,  3-C ) :   1.2146 B(  2-C ,  6-C ) :   1.0147
B(  3-C ,  4-C ) :   1.5731 B(  3-C ,  5-H ) :   0.9845 B(  4-C , 20-C ) :   1.0973
B(  6-C ,  7-H ) :   0.9479 B(  6-C ,  8-H ) :   0.9399 B(  6-C ,  9-C ) :   1.0696
B(  9-C , 10-H ) :   0.9603 B(  9-C , 11-H ) :   0.9563 B(  9-C , 12-C ) :   1.0652
B( 12-C , 13-H ) :   0.9728 B( 12-C , 14-H ) :   0.9751 B( 12-C , 15-H ) :   0.9756
B( 16-S , 17-C ) :   1.1835 B( 16-S , 20-C ) :   1.1072 B( 17-C , 18-C ) :   1.5929
B( 17-C , 33-H ) :   0.9637 B( 18-C , 19-C ) :   1.2381 B( 18-C , 21-H ) :   0.9871
B( 19-C , 20-C ) :   1.5899 B( 19-C , 22-C ) :   1.0285 B( 22-C , 23-H ) :   0.9398
B( 22-C , 24-H ) :   0.9243 B( 22-C , 25-C ) :   1.0799 B( 25-C , 26-H ) :   0.9450
B( 25-C , 27-H ) :   0.9492 B( 25-C , 28-C ) :   1.0703 B( 28-C , 29-H ) :   0.9708
B( 28-C , 30-H ) :   0.9712 B( 28-C , 31-H ) :   0.9787

Dispersion correction           -0.014858769
FINAL SINGLE POINT ENERGY     -1339.857574390620

DIPOLE MOMENT
-------------
                                X             Y             Z
Electronic contribution:      6.54930     -26.02291       7.93058
Nuclear contribution   :     -6.64166      26.65419      -8.45422
                        -----------------------------------------
Total Dipole Moment    :     -0.09236       0.63128      -0.52364
                        -----------------------------------------
Magnitude (a.u.)       :      0.82538
Magnitude (Debye)      :      2.09794

Rotational constants in cm-1:     0.019044     0.009324     0.006889
Rotational constants in MHz :   570.928327   279.527253   206.516648

                             ****ORCA TERMINATED NORMALLY****
TOTAL RUN TIME: 0 days 0 hours 0 minutes 22 seconds 112 msec
