                         Program Version 4.2.1 -  RELEASE  -
|  1> ! wB97X-D3 SP def2-SVP
|  2> %pal
|  3> nprocs 24
|  4> end
|  5>
|  6> * xyz 0 1
|  7> S 	 -144.669 	 6.49543 	 -0.864368
|  8> C 	 -144.249 	 7.97808 	 -0.0200572
|  9> C 	 -142.886 	 7.99609 	 0.299019
| 10> C 	 -142.214 	 6.83351 	 -0.192163
| 11> C 	 -143.029 	 6.04072 	 -1.02328
| 12> H 	 -141.262 	 6.56493 	 0.104434
| 13> C 	 -142.167 	 9.13369 	 1.0039
| 14> H 	 -142.45 	 9.97438 	 0.346945
| 15> H 	 -141.128 	 9.03566 	 0.958025
| 16> C 	 -142.557 	 9.48395 	 2.41137
| 17> H 	 -143.598 	 9.5574 	 2.48426
| 18> H 	 -142.391 	 8.6153 	 3.01341
| 19> C 	 -142.092 	 10.7967 	 2.94637
| 20> H 	 -140.973 	 10.9486 	 2.83662
| 21> H 	 -142.692 	 11.6125 	 2.47184
| 22> H 	 -142.285 	 10.8799 	 3.98757
| 23> S 	 -143.544 	 3.36031 	 -1.52537
| 24> C 	 -142.304 	 2.47168 	 -2.35403
| 25> C 	 -141.136 	 3.17061 	 -2.64054
| 26> C 	 -141.377 	 4.54267 	 -2.35761
| 27> C 	 -142.561 	 4.8053 	 -1.72449
| 28> H 	 -140.337 	 2.68265 	 -3.19997
| 29> C 	 -140.415 	 5.64999 	 -2.81161
| 30> H 	 -139.44 	 5.16053 	 -2.81441
| 31> H 	 -140.375 	 6.32595 	 -1.91394
| 32> C 	 -140.821 	 6.24631 	 -4.19539
| 33> H 	 -140.875 	 5.40595 	 -4.88137
| 34> H 	 -139.964 	 6.71401 	 -4.59689
| 35> C 	 -142.069 	 7.23332 	 -4.19139
| 36> H 	 -142.929 	 6.77467 	 -3.70816
| 37> H 	 -142.427 	 7.47605 	 -5.24179
| 38> H 	 -141.951 	 8.10656 	 -3.53051
| 39> H 	 -144.804 	 8.86745 	 0.0820856
| 40> H 	 -142.409 	 1.39431 	 -2.68812
| 41> *
| 42>
| 43>                          ****END OF INPUT****

CARTESIAN COORDINATES (ANGSTROEM)
---------------------------------
  S    -144.669000    6.495430   -0.864368
  C    -144.249000    7.978080   -0.020057
  C    -142.886000    7.996090    0.299019
  C    -142.214000    6.833510   -0.192163
  C    -143.029000    6.040720   -1.023280
  H    -141.262000    6.564930    0.104434
  C    -142.167000    9.133690    1.003900
  H    -142.450000    9.974380    0.346945
  H    -141.128000    9.035660    0.958025
  C    -142.557000    9.483950    2.411370
  H    -143.598000    9.557400    2.484260
  H    -142.391000    8.615300    3.013410
  C    -142.092000   10.796700    2.946370
  H    -140.973000   10.948600    2.836620
  H    -142.692000   11.612500    2.471840
  H    -142.285000   10.879900    3.987570
  S    -143.544000    3.360310   -1.525370
  C    -142.304000    2.471680   -2.354030
  C    -141.136000    3.170610   -2.640540
  C    -141.377000    4.542670   -2.357610
  C    -142.561000    4.805300   -1.724490
  H    -140.337000    2.682650   -3.199970
  C    -140.415000    5.649990   -2.811610
  H    -139.440000    5.160530   -2.814410
  H    -140.375000    6.325950   -1.913940
  C    -140.821000    6.246310   -4.195390
  H    -140.875000    5.405950   -4.881370
  H    -139.964000    6.714010   -4.596890
  C    -142.069000    7.233320   -4.191390
  H    -142.929000    6.774670   -3.708160
  H    -142.427000    7.476050   -5.241790
  H    -141.951000    8.106560   -3.530510
  H    -144.804000    8.867450    0.082086
  H    -142.409000    1.394310   -2.688120

 Total Charge           Charge          ....    0
 Multiplicity           Mult            ....    1
 Number of Electrons    NEL             ....  134
 Basis Dimension        Dim             ....  322

ORBITAL ENERGIES
----------------

  NO   OCC          E(Eh)            E(eV)
   0   2.0000     -88.972071     -2421.0531
   1   2.0000     -88.967455     -2420.9275
   2   2.0000     -10.333091      -281.1777
   3   2.0000     -10.323957      -280.9291
   4   2.0000     -10.321660      -280.8666
   5   2.0000     -10.310342      -280.5587
   6   2.0000     -10.302839      -280.3545
   7   2.0000     -10.299701      -280.2691
   8   2.0000     -10.295818      -280.1635
   9   2.0000     -10.292967      -280.0859
  10   2.0000     -10.289039      -279.9790
  11   2.0000     -10.287812      -279.9456
  12   2.0000     -10.287431      -279.9352
  13   2.0000     -10.282785      -279.8088
  14   2.0000     -10.280691      -279.7518
  15   2.0000     -10.274135      -279.5734
  16   2.0000      -8.086668      -220.0494
  17   2.0000      -8.082409      -219.9335
  18   2.0000      -6.045173      -164.4975
  19   2.0000      -6.041148      -164.3880
  20   2.0000      -6.040804      -164.3786
  21   2.0000      -6.037504      -164.2888
  22   2.0000      -6.037041      -164.2762
  23   2.0000      -6.033136      -164.1700
  24   2.0000      -1.008070       -27.4310
  25   2.0000      -0.986299       -26.8386
  26   2.0000      -0.920772       -25.0555
  27   2.0000      -0.898605       -24.4523
  28   2.0000      -0.868167       -23.6240
  29   2.0000      -0.851556       -23.1720
  30   2.0000      -0.842934       -22.9374
  31   2.0000      -0.811005       -22.0686
  32   2.0000      -0.784908       -21.3584
  33   2.0000      -0.771390       -20.9906
  34   2.0000      -0.707849       -19.2616
  35   2.0000      -0.705957       -19.2101
  36   2.0000      -0.691326       -18.8119
  37   2.0000      -0.662449       -18.0261
  38   2.0000      -0.640502       -17.4289
  39   2.0000      -0.620030       -16.8719
  40   2.0000      -0.584167       -15.8960
  41   2.0000      -0.580470       -15.7954
  42   2.0000      -0.565015       -15.3748
  43   2.0000      -0.540649       -14.7118
  44   2.0000      -0.536011       -14.5856
  45   2.0000      -0.525192       -14.2912
  46   2.0000      -0.516668       -14.0592
  47   2.0000      -0.506553       -13.7840
  48   2.0000      -0.500893       -13.6300
  49   2.0000      -0.498415       -13.5625
  50   2.0000      -0.492768       -13.4089
  51   2.0000      -0.479498       -13.0478
  52   2.0000      -0.473490       -12.8843
  53   2.0000      -0.462182       -12.5766
  54   2.0000      -0.460314       -12.5258
  55   2.0000      -0.449107       -12.2208
  56   2.0000      -0.441137       -12.0039
  57   2.0000      -0.438105       -11.9214
  58   2.0000      -0.434889       -11.8339
  59   2.0000      -0.428683       -11.6651
  60   2.0000      -0.423832       -11.5331
  61   2.0000      -0.414469       -11.2783
  62   2.0000      -0.404709       -11.0127
  63   2.0000      -0.345827        -9.4104
  64   2.0000      -0.335507        -9.1296
  65   2.0000      -0.329227        -8.9587
  66   2.0000      -0.284646        -7.7456
  67   0.0000       0.023881         0.6498
  68   0.0000       0.071168         1.9366
  69   0.0000       0.099516         2.7080
  70   0.0000       0.116975         3.1831
  71   0.0000       0.139191         3.7876

MULLIKEN ATOMIC CHARGES
-----------------------
   0 S :    0.122742
   1 C :   -0.099369
   2 C :   -0.111138
   3 C :    0.042006
   4 C :   -0.149694
   5 H :   -0.003466
   6 C :    0.084942
   7 H :    0.027478
   8 H :    0.003145
   9 C :   -0.037394
  10 H :   -0.000687
  11 H :    0.017195
  12 C :   -0.046363
  13 H :    0.037397
  14 H :    0.037323
  15 H :    0.027776
  16 S :    0.110422
  17 C :   -0.118145
  18 C :   -0.033029
  19 C :   -0.099038
  20 C :   -0.125915
  21 H :    0.029748
  22 C :    0.059506
  23 H :    0.013209
  24 H :    0.020526
  25 C :   -0.004889
  26 H :    0.014297
  27 H :    0.015900
  28 C :   -0.055391
  29 H :    0.031719
  30 H :    0.046481
  31 H :    0.038153
  32 H :    0.031695
  33 H :    0.072856
Sum of atomic charges:    0.0000000

LOEWDIN ATOMIC CHARGES
----------------------
   0 S :    0.426640
   1 C :   -0.205200
   2 C :   -0.049650
   3 C :   -0.061523
   4 C :   -0.199176
   5 H :    0.016751
   6 C :   -0.027843
   7 H :    0.038323
   8 H :    0.019846
   9 C :   -0.047568
  10 H :    0.018144
  11 H :    0.022447
  12 C :   -0.062804
  13 H :    0.028798
  14 H :    0.032115
  15 H :    0.024352
  16 S :    0.402144
  17 C :   -0.188755
  18 C :   -0.077354
  19 C :   -0.058169
  20 C :   -0.203398
  21 H :    0.038136
  22 C :   -0.033444
  23 H :    0.027780
  24 H :    0.031868
  25 C :   -0.032574
  26 H :    0.025832
  27 H :    0.017874
  28 C :   -0.071639
  29 H :    0.024036
  30 H :    0.034709
  31 H :    0.030486
  32 H :    0.020617
  33 H :    0.038198

  Mayer bond orders larger than 0.100000
B(  0-S ,  1-C ) :   1.1313 B(  0-S ,  4-C ) :   1.1810 B(  1-C ,  2-C ) :   1.5909
B(  1-C ,  4-C ) :   0.1056 B(  1-C , 32-H ) :   0.9695 B(  2-C ,  3-C ) :   1.2742
B(  2-C ,  6-C ) :   1.0168 B(  3-C ,  4-C ) :   1.5199 B(  3-C ,  5-H ) :   0.9956
B(  4-C , 20-C ) :   1.0168 B(  6-C ,  7-H ) :   0.9338 B(  6-C ,  8-H ) :   0.9416
B(  6-C ,  9-C ) :   1.0704 B(  9-C , 10-H ) :   0.9465 B(  9-C , 11-H ) :   0.9490
B(  9-C , 12-C ) :   1.0880 B( 12-C , 13-H ) :   0.9750 B( 12-C , 14-H ) :   0.9724
B( 12-C , 15-H ) :   0.9700 B( 16-S , 17-C ) :   1.1707 B( 16-S , 20-C ) :   1.1180
B( 17-C , 18-C ) :   1.6190 B( 17-C , 33-H ) :   0.9546 B( 18-C , 19-C ) :   1.2395
B( 18-C , 21-H ) :   0.9886 B( 19-C , 20-C ) :   1.6392 B( 19-C , 22-C ) :   1.0238
B( 22-C , 23-H ) :   0.9311 B( 22-C , 24-H ) :   0.9352 B( 22-C , 25-C ) :   1.0630
B( 25-C , 26-H ) :   0.9515 B( 25-C , 27-H ) :   0.9564 B( 25-C , 28-C ) :   1.0606
B( 28-C , 29-H ) :   0.9714 B( 28-C , 30-H ) :   0.9740 B( 28-C , 31-H ) :   0.9752

Dispersion correction           -0.015183302
FINAL SINGLE POINT ENERGY     -1339.858116609402

DIPOLE MOMENT
-------------
                                X             Y             Z
Electronic contribution:    -13.45209     -22.09655      -2.99768
Nuclear contribution   :     13.94364      22.37206       3.02551
                        -----------------------------------------
Total Dipole Moment    :      0.49156       0.27550       0.02783
                        -----------------------------------------
Magnitude (a.u.)       :      0.56418
Magnitude (Debye)      :      1.43404

Rotational constants in cm-1:     0.022675     0.007712     0.006877
Rotational constants in MHz :   679.786025   231.193059   206.159124

                             ****ORCA TERMINATED NORMALLY****
TOTAL RUN TIME: 0 days 0 hours 0 minutes 22 seconds 279 msec
