                         Program Version 4.2.1 -  RELEASE  -
|  1> ! wB97X-D3 SP def2-SVP
|  2> %pal
|  3> nprocs 24
|  4> end
|  5>
|  6> * xyz 0 1
|  7> S 	 -47.6556 	 19.629 	 -89.4133
|  8> C 	 -47.4558 	 21.3686 	 -89.3179
|  9> C 	 -48.6649 	 22.0236 	 -89.2904
| 10> C 	 -49.7066 	 21.0917 	 -89.3534
| 11> C 	 -49.3599 	 19.7885 	 -89.5158
| 12> H 	 -50.7466 	 21.3456 	 -89.4981
| 13> C 	 -48.9486 	 23.4854 	 -88.9696
| 14> H 	 -48.1789 	 24.0922 	 -89.3179
| 15> H 	 -48.9497 	 23.6253 	 -87.8496
| 16> C 	 -50.2242 	 24.0828 	 -89.5811
| 17> H 	 -51.0577 	 23.5973 	 -89.1304
| 18> H 	 -50.2347 	 25.1441 	 -89.3397
| 19> C 	 -50.4027 	 23.8359 	 -91.1381
| 20> H 	 -49.4776 	 24.2186 	 -91.6454
| 21> H 	 -50.6913 	 22.8524 	 -91.4256
| 22> H 	 -51.2036 	 24.4971 	 -91.4895
| 23> S 	 -51.3119 	 18.154 	 -88.7035
| 24> C 	 -52.051 	 17.0412 	 -89.8872
| 25> C 	 -51.2068 	 16.9566 	 -90.9931
| 26> C 	 -50.1545 	 17.8904 	 -91.0142
| 27> C 	 -50.1018 	 18.658 	 -89.8775
| 28> H 	 -51.4468 	 16.2649 	 -91.7773
| 29> C 	 -49.3496 	 18.0862 	 -92.2698
| 30> H 	 -48.7324 	 18.9525 	 -92.0005
| 31> H 	 -50.1058 	 18.2972 	 -93.0606
| 32> C 	 -48.6162 	 16.8813 	 -92.7324
| 33> H 	 -49.1955 	 16.2501 	 -93.4078
| 34> H 	 -48.6145 	 16.247 	 -91.8934
| 35> C 	 -47.2153 	 17.1088 	 -93.3511
| 36> H 	 -46.7327 	 16.1386 	 -93.5443
| 37> H 	 -46.4475 	 17.5633 	 -92.6674
| 38> H 	 -47.2588 	 17.7194 	 -94.28
| 39> H 	 -46.4969 	 21.8155 	 -89.3049
| 40> H 	 -52.78 	 16.2637 	 -89.5995
| 41> *
| 42>
| 43>                          ****END OF INPUT****

CARTESIAN COORDINATES (ANGSTROEM)
---------------------------------
  S    -47.655600   19.629000  -89.413300
  C    -47.455800   21.368600  -89.317900
  C    -48.664900   22.023600  -89.290400
  C    -49.706600   21.091700  -89.353400
  C    -49.359900   19.788500  -89.515800
  H    -50.746600   21.345600  -89.498100
  C    -48.948600   23.485400  -88.969600
  H    -48.178900   24.092200  -89.317900
  H    -48.949700   23.625300  -87.849600
  C    -50.224200   24.082800  -89.581100
  H    -51.057700   23.597300  -89.130400
  H    -50.234700   25.144100  -89.339700
  C    -50.402700   23.835900  -91.138100
  H    -49.477600   24.218600  -91.645400
  H    -50.691300   22.852400  -91.425600
  H    -51.203600   24.497100  -91.489500
  S    -51.311900   18.154000  -88.703500
  C    -52.051000   17.041200  -89.887200
  C    -51.206800   16.956600  -90.993100
  C    -50.154500   17.890400  -91.014200
  C    -50.101800   18.658000  -89.877500
  H    -51.446800   16.264900  -91.777300
  C    -49.349600   18.086200  -92.269800
  H    -48.732400   18.952500  -92.000500
  H    -50.105800   18.297200  -93.060600
  C    -48.616200   16.881300  -92.732400
  H    -49.195500   16.250100  -93.407800
  H    -48.614500   16.247000  -91.893400
  C    -47.215300   17.108800  -93.351100
  H    -46.732700   16.138600  -93.544300
  H    -46.447500   17.563300  -92.667400
  H    -47.258800   17.719400  -94.280000
  H    -46.496900   21.815500  -89.304900
  H    -52.780000   16.263700  -89.599500

 Total Charge           Charge          ....    0
 Multiplicity           Mult            ....    1
 Number of Electrons    NEL             ....  134
 Basis Dimension        Dim             ....  322

ORBITAL ENERGIES
----------------

  NO   OCC          E(Eh)            E(eV)
   0   2.0000     -88.964632     -2420.8507
   1   2.0000     -88.962133     -2420.7827
   2   2.0000     -10.321324      -280.8575
   3   2.0000     -10.321226      -280.8548
   4   2.0000     -10.318292      -280.7750
   5   2.0000     -10.311096      -280.5792
   6   2.0000     -10.298953      -280.2488
   7   2.0000     -10.297786      -280.2170
   8   2.0000     -10.292236      -280.0660
   9   2.0000     -10.291806      -280.0543
  10   2.0000     -10.287512      -279.9374
  11   2.0000     -10.285947      -279.8948
  12   2.0000     -10.285187      -279.8742
  13   2.0000     -10.283557      -279.8298
  14   2.0000     -10.281028      -279.7610
  15   2.0000     -10.278184      -279.6836
  16   2.0000      -8.079955      -219.8668
  17   2.0000      -8.076398      -219.7700
  18   2.0000      -6.038288      -164.3102
  19   2.0000      -6.034931      -164.2188
  20   2.0000      -6.034316      -164.2021
  21   2.0000      -6.030953      -164.1106
  22   2.0000      -6.030920      -164.1097
  23   2.0000      -6.027168      -164.0076
  24   2.0000      -1.016126       -27.6502
  25   2.0000      -0.986862       -26.8539
  26   2.0000      -0.913663       -24.8620
  27   2.0000      -0.911910       -24.8143
  28   2.0000      -0.874356       -23.7924
  29   2.0000      -0.848063       -23.0770
  30   2.0000      -0.842299       -22.9201
  31   2.0000      -0.814212       -22.1558
  32   2.0000      -0.786562       -21.4034
  33   2.0000      -0.773085       -21.0367
  34   2.0000      -0.712023       -19.3751
  35   2.0000      -0.702306       -19.1107
  36   2.0000      -0.693158       -18.8618
  37   2.0000      -0.666649       -18.1404
  38   2.0000      -0.642831       -17.4923
  39   2.0000      -0.628491       -17.1021
  40   2.0000      -0.595158       -16.1951
  41   2.0000      -0.567611       -15.4455
  42   2.0000      -0.561190       -15.2708
  43   2.0000      -0.552635       -15.0380
  44   2.0000      -0.536311       -14.5938
  45   2.0000      -0.528114       -14.3707
  46   2.0000      -0.524272       -14.2662
  47   2.0000      -0.513415       -13.9707
  48   2.0000      -0.506076       -13.7710
  49   2.0000      -0.498613       -13.5679
  50   2.0000      -0.486474       -13.2376
  51   2.0000      -0.483080       -13.1453
  52   2.0000      -0.475511       -12.9393
  53   2.0000      -0.465121       -12.6566
  54   2.0000      -0.459012       -12.4904
  55   2.0000      -0.445609       -12.1256
  56   2.0000      -0.437241       -11.8979
  57   2.0000      -0.434572       -11.8253
  58   2.0000      -0.432310       -11.7638
  59   2.0000      -0.425634       -11.5821
  60   2.0000      -0.419982       -11.4283
  61   2.0000      -0.415404       -11.3037
  62   2.0000      -0.406269       -11.0551
  63   2.0000      -0.341046        -9.2803
  64   2.0000      -0.333226        -9.0675
  65   2.0000      -0.328204        -8.9309
  66   2.0000      -0.298215        -8.1148
  67   0.0000       0.031723         0.8632
  68   0.0000       0.066824         1.8184
  69   0.0000       0.111159         3.0248
  70   0.0000       0.116327         3.1654
  71   0.0000       0.126236         3.4350

MULLIKEN ATOMIC CHARGES
-----------------------
   0 S :    0.113659
   1 C :   -0.126402
   2 C :   -0.070488
   3 C :    0.047151
   4 C :   -0.198324
   5 H :    0.004017
   6 C :    0.093947
   7 H :   -0.000202
   8 H :    0.057720
   9 C :   -0.093148
  10 H :    0.026669
  11 H :    0.035189
  12 C :   -0.061541
  13 H :    0.036708
  14 H :    0.040638
  15 H :    0.032285
  16 S :    0.097415
  17 C :   -0.101997
  18 C :   -0.044852
  19 C :   -0.036505
  20 C :   -0.172736
  21 H :    0.016532
  22 C :    0.108419
  23 H :    0.029609
  24 H :    0.040010
  25 C :   -0.059135
  26 H :    0.020359
  27 H :    0.012371
  28 C :   -0.069660
  29 H :    0.031279
  30 H :    0.039517
  31 H :    0.045014
  32 H :    0.032183
  33 H :    0.074299
Sum of atomic charges:   -0.0000000

LOEWDIN ATOMIC CHARGES
----------------------
   0 S :    0.426800
   1 C :   -0.183529
   2 C :   -0.064435
   3 C :   -0.060961
   4 C :   -0.213747
   5 H :    0.028860
   6 C :   -0.028429
   7 H :    0.017604
   8 H :    0.045097
   9 C :   -0.037786
  10 H :    0.015884
  11 H :    0.028267
  12 C :   -0.065285
  13 H :    0.029659
  14 H :    0.020616
  15 H :    0.028378
  16 S :    0.390163
  17 C :   -0.181275
  18 C :   -0.068069
  19 C :   -0.059701
  20 C :   -0.200054
  21 H :    0.028539
  22 C :   -0.032367
  23 H :    0.028432
  24 H :    0.040826
  25 C :   -0.048761
  26 H :    0.025467
  27 H :    0.018497
  28 C :   -0.069581
  29 H :    0.027896
  30 H :    0.030049
  31 H :    0.029126
  32 H :    0.018230
  33 H :    0.035594

  Mayer bond orders larger than 0.100000
B(  0-S ,  1-C ) :   1.1520 B(  0-S ,  4-C ) :   1.1523 B(  1-C ,  2-C ) :   1.5972
B(  1-C ,  4-C ) :   0.1007 B(  1-C , 32-H ) :   0.9777 B(  2-C ,  3-C ) :   1.2525
B(  2-C ,  6-C ) :   1.0153 B(  3-C ,  4-C ) :   1.5890 B(  3-C ,  5-H ) :   0.9883
B(  4-C , 20-C ) :   1.0226 B(  6-C ,  7-H ) :   0.9329 B(  6-C ,  8-H ) :   0.9397
B(  6-C ,  9-C ) :   1.0770 B(  9-C , 10-H ) :   0.9506 B(  9-C , 11-H ) :   0.9573
B(  9-C , 12-C ) :   1.0753 B( 12-C , 13-H ) :   0.9777 B( 12-C , 14-H ) :   0.9735
B( 12-C , 15-H ) :   0.9747 B( 16-S , 17-C ) :   1.1441 B( 16-S , 20-C ) :   1.1412
B( 17-C , 18-C ) :   1.6114 B( 17-C , 20-C ) :   0.1075 B( 17-C , 33-H ) :   0.9616
B( 18-C , 19-C ) :   1.2335 B( 18-C , 21-H ) :   0.9894 B( 19-C , 20-C ) :   1.5937
B( 19-C , 22-C ) :   1.0530 B( 22-C , 23-H ) :   0.9308 B( 22-C , 24-H ) :   0.9297
B( 22-C , 25-C ) :   1.0484 B( 25-C , 26-H ) :   0.9430 B( 25-C , 27-H ) :   0.9617
B( 25-C , 28-C ) :   1.0881 B( 28-C , 29-H ) :   0.9736 B( 28-C , 30-H ) :   0.9749
B( 28-C , 31-H ) :   0.9752

Dispersion correction           -0.014634282
FINAL SINGLE POINT ENERGY     -1339.870732516087

DIPOLE MOMENT
-------------
                                X             Y             Z
Electronic contribution:     -2.63012     -10.23155      16.34543
Nuclear contribution   :      2.60443      10.46583     -16.70725
                        -----------------------------------------
Total Dipole Moment    :     -0.02569       0.23428      -0.36182
                        -----------------------------------------
Magnitude (a.u.)       :      0.43181
Magnitude (Debye)      :      1.09757

Rotational constants in cm-1:     0.018056     0.009057     0.007630
Rotational constants in MHz :   541.314093   271.523236   228.746499

                             ****ORCA TERMINATED NORMALLY****
TOTAL RUN TIME: 0 days 0 hours 0 minutes 20 seconds 749 msec
