                         Program Version 4.2.1 -  RELEASE  -
|  1> ! wB97X-D3 SP def2-SVP
|  2> %pal
|  3> nprocs 24
|  4> end
|  5>
|  6> * xyz 0 1
|  7> S 	 -101.871 	 -6.15677 	 -107.868
|  8> C 	 -103.011 	 -7.47682 	 -107.684
|  9> C 	 -103.983 	 -7.18688 	 -106.768
| 10> C 	 -103.794 	 -5.91818 	 -106.14
| 11> C 	 -102.634 	 -5.28711 	 -106.544
| 12> H 	 -104.408 	 -5.56606 	 -105.382
| 13> C 	 -105.301 	 -7.95939 	 -106.504
| 14> H 	 -105.55 	 -8.59511 	 -107.357
| 15> H 	 -106.132 	 -7.26565 	 -106.456
| 16> C 	 -105.21 	 -8.93671 	 -105.289
| 17> H 	 -104.947 	 -8.43941 	 -104.395
| 18> H 	 -106.209 	 -9.17641 	 -105.134
| 19> C 	 -104.226 	 -10.1183 	 -105.428
| 20> H 	 -104.589 	 -10.6833 	 -106.278
| 21> H 	 -103.218 	 -9.90089 	 -105.757
| 22> H 	 -104.137 	 -10.7259 	 -104.559
| 23> S 	 -101.935 	 -2.75595 	 -107.424
| 24> C 	 -101.288 	 -1.61476 	 -106.224
| 25> C 	 -101.273 	 -2.18429 	 -104.966
| 26> C 	 -101.695 	 -3.53441 	 -104.906
| 27> C 	 -102.096 	 -3.98496 	 -106.138
| 28> H 	 -101.039 	 -1.5097 	 -104.194
| 29> C 	 -101.795 	 -4.3852 	 -103.689
| 30> H 	 -100.91 	 -4.20273 	 -103.109
| 31> H 	 -101.698 	 -5.39399 	 -103.977
| 32> C 	 -102.989 	 -4.16614 	 -102.822
| 33> H 	 -103.955 	 -4.33841 	 -103.453
| 34> H 	 -103.056 	 -3.12308 	 -102.556
| 35> C 	 -102.979 	 -4.901 	 -101.409
| 36> H 	 -102.952 	 -6.02479 	 -101.613
| 37> H 	 -103.731 	 -4.59813 	 -100.624
| 38> H 	 -101.981 	 -4.83204 	 -100.921
| 39> H 	 -103.154 	 -8.39624 	 -108.26
| 40> H 	 -101.056 	 -0.57947 	 -106.441
| 41> *
| 42>
| 43>                          ****END OF INPUT****

CARTESIAN COORDINATES (ANGSTROEM)
---------------------------------
  S    -101.871000   -6.156770  -107.868000
  C    -103.011000   -7.476820  -107.684000
  C    -103.983000   -7.186880  -106.768000
  C    -103.794000   -5.918180  -106.140000
  C    -102.634000   -5.287110  -106.544000
  H    -104.408000   -5.566060  -105.382000
  C    -105.301000   -7.959390  -106.504000
  H    -105.550000   -8.595110  -107.357000
  H    -106.132000   -7.265650  -106.456000
  C    -105.210000   -8.936710  -105.289000
  H    -104.947000   -8.439410  -104.395000
  H    -106.209000   -9.176410  -105.134000
  C    -104.226000  -10.118300  -105.428000
  H    -104.589000  -10.683300  -106.278000
  H    -103.218000   -9.900890  -105.757000
  H    -104.137000  -10.725900  -104.559000
  S    -101.935000   -2.755950  -107.424000
  C    -101.288000   -1.614760  -106.224000
  C    -101.273000   -2.184290  -104.966000
  C    -101.695000   -3.534410  -104.906000
  C    -102.096000   -3.984960  -106.138000
  H    -101.039000   -1.509700  -104.194000
  C    -101.795000   -4.385200  -103.689000
  H    -100.910000   -4.202730  -103.109000
  H    -101.698000   -5.393990  -103.977000
  C    -102.989000   -4.166140  -102.822000
  H    -103.955000   -4.338410  -103.453000
  H    -103.056000   -3.123080  -102.556000
  C    -102.979000   -4.901000  -101.409000
  H    -102.952000   -6.024790  -101.613000
  H    -103.731000   -4.598130  -100.624000
  H    -101.981000   -4.832040  -100.921000
  H    -103.154000   -8.396240  -108.260000
  H    -101.056000   -0.579470  -106.441000

 Total Charge           Charge          ....    0
 Multiplicity           Mult            ....    1
 Number of Electrons    NEL             ....  134
 Basis Dimension        Dim             ....  322

ORBITAL ENERGIES
----------------

  NO   OCC          E(Eh)            E(eV)
   0   2.0000     -88.967680     -2420.9336
   1   2.0000     -88.964668     -2420.8517
   2   2.0000     -10.329647      -281.0840
   3   2.0000     -10.326709      -281.0040
   4   2.0000     -10.319414      -280.8055
   5   2.0000     -10.312321      -280.6125
   6   2.0000     -10.301225      -280.3106
   7   2.0000     -10.297252      -280.2025
   8   2.0000     -10.296962      -280.1946
   9   2.0000     -10.296375      -280.1786
  10   2.0000     -10.295246      -280.1479
  11   2.0000     -10.291619      -280.0492
  12   2.0000     -10.289224      -279.9840
  13   2.0000     -10.282882      -279.8114
  14   2.0000     -10.280771      -279.7540
  15   2.0000     -10.274620      -279.5866
  16   2.0000      -8.082025      -219.9231
  17   2.0000      -8.078594      -219.8297
  18   2.0000      -6.040679      -164.3752
  19   2.0000      -6.037119      -164.2784
  20   2.0000      -6.036570      -164.2634
  21   2.0000      -6.033282      -164.1739
  22   2.0000      -6.032653      -164.1568
  23   2.0000      -6.029318      -164.0661
  24   2.0000      -1.005426       -27.3590
  25   2.0000      -0.982654       -26.7394
  26   2.0000      -0.912408       -24.8279
  27   2.0000      -0.907584       -24.6966
  28   2.0000      -0.867423       -23.6038
  29   2.0000      -0.848716       -23.0947
  30   2.0000      -0.843775       -22.9603
  31   2.0000      -0.814223       -22.1561
  32   2.0000      -0.786260       -21.3952
  33   2.0000      -0.775538       -21.1035
  34   2.0000      -0.711135       -19.3510
  35   2.0000      -0.702846       -19.1254
  36   2.0000      -0.698723       -19.0132
  37   2.0000      -0.663775       -18.0622
  38   2.0000      -0.638847       -17.3839
  39   2.0000      -0.624887       -17.0040
  40   2.0000      -0.599447       -16.3118
  41   2.0000      -0.571041       -15.5388
  42   2.0000      -0.560400       -15.2493
  43   2.0000      -0.550564       -14.9816
  44   2.0000      -0.536403       -14.5963
  45   2.0000      -0.528085       -14.3699
  46   2.0000      -0.515526       -14.0282
  47   2.0000      -0.510031       -13.8787
  48   2.0000      -0.504150       -13.7186
  49   2.0000      -0.496873       -13.5206
  50   2.0000      -0.488890       -13.3034
  51   2.0000      -0.477529       -12.9942
  52   2.0000      -0.473714       -12.8904
  53   2.0000      -0.464525       -12.6404
  54   2.0000      -0.455572       -12.3968
  55   2.0000      -0.452530       -12.3140
  56   2.0000      -0.449528       -12.2323
  57   2.0000      -0.442054       -12.0289
  58   2.0000      -0.438743       -11.9388
  59   2.0000      -0.423953       -11.5364
  60   2.0000      -0.421831       -11.4786
  61   2.0000      -0.411118       -11.1871
  62   2.0000      -0.409313       -11.1380
  63   2.0000      -0.341972        -9.3055
  64   2.0000      -0.334282        -9.0963
  65   2.0000      -0.330316        -8.9884
  66   2.0000      -0.297581        -8.0976
  67   0.0000       0.033289         0.9058
  68   0.0000       0.064882         1.7655
  69   0.0000       0.107502         2.9253
  70   0.0000       0.122273         3.3272
  71   0.0000       0.130930         3.5628

MULLIKEN ATOMIC CHARGES
-----------------------
   0 S :    0.120419
   1 C :   -0.106133
   2 C :   -0.104012
   3 C :    0.079473
   4 C :   -0.162628
   5 H :   -0.024225
   6 C :    0.035395
   7 H :    0.016375
   8 H :    0.032541
   9 C :   -0.013449
  10 H :    0.009524
  11 H :    0.011462
  12 C :   -0.039731
  13 H :    0.013947
  14 H :    0.031242
  15 H :    0.037670
  16 S :    0.097799
  17 C :   -0.102321
  18 C :   -0.028099
  19 C :   -0.008927
  20 C :   -0.171725
  21 H :    0.002458
  22 C :    0.128735
  23 H :    0.005708
  24 H :    0.018950
  25 C :   -0.079611
  26 H :    0.037799
  27 H :    0.020769
  28 C :   -0.085957
  29 H :    0.035172
  30 H :    0.062715
  31 H :    0.027509
  32 H :    0.042612
  33 H :    0.058545
Sum of atomic charges:   -0.0000000

LOEWDIN ATOMIC CHARGES
----------------------
   0 S :    0.404321
   1 C :   -0.204527
   2 C :   -0.063886
   3 C :   -0.049012
   4 C :   -0.188999
   5 H :    0.017529
   6 C :   -0.023822
   7 H :    0.026848
   8 H :    0.031587
   9 C :   -0.030431
  10 H :    0.015545
  11 H :    0.016733
  12 C :   -0.062615
  13 H :    0.022635
  14 H :    0.026721
  15 H :    0.025253
  16 S :    0.375051
  17 C :   -0.171529
  18 C :   -0.065089
  19 C :   -0.052244
  20 C :   -0.182992
  21 H :    0.025781
  22 C :   -0.030212
  23 H :    0.030307
  24 H :    0.027592
  25 C :   -0.043480
  26 H :    0.030059
  27 H :    0.020142
  28 C :   -0.084528
  29 H :    0.030856
  30 H :    0.036203
  31 H :    0.026942
  32 H :    0.033606
  33 H :    0.029656

  Mayer bond orders larger than 0.100000
B(  0-S ,  1-C ) :   1.1229 B(  0-S ,  4-C ) :   1.1481 B(  1-C ,  2-C ) :   1.6479
B(  1-C , 32-H ) :   0.9561 B(  2-C ,  3-C ) :   1.2384 B(  2-C ,  6-C ) :   1.0129
B(  3-C ,  4-C ) :   1.5705 B(  3-C ,  5-H ) :   1.0050 B(  4-C , 20-C ) :   1.0231
B(  6-C ,  7-H ) :   0.9458 B(  6-C ,  8-H ) :   0.9492 B(  6-C ,  9-C ) :   1.0636
B(  9-C , 10-H ) :   0.9577 B(  9-C , 11-H ) :   0.9564 B(  9-C , 12-C ) :   1.0657
B( 12-C , 13-H ) :   0.9749 B( 12-C , 14-H ) :   0.9739 B( 12-C , 15-H ) :   0.9763
B( 16-S , 17-C ) :   1.1373 B( 16-S , 20-C ) :   1.1356 B( 17-C , 18-C ) :   1.6343
B( 17-C , 33-H ) :   0.9674 B( 18-C , 19-C ) :   1.2026 B( 18-C , 21-H ) :   0.9988
B( 19-C , 20-C ) :   1.6211 B( 19-C , 22-C ) :   1.0596 B( 22-C , 23-H ) :   0.9152
B( 22-C , 24-H ) :   0.9156 B( 22-C , 25-C ) :   1.0698 B( 25-C , 26-H ) :   0.9483
B( 25-C , 27-H ) :   0.9545 B( 25-C , 28-C ) :   1.0607 B( 28-C , 29-H ) :   0.9747
B( 28-C , 30-H ) :   0.9764 B( 28-C , 31-H ) :   0.9715

Dispersion correction           -0.014668122
FINAL SINGLE POINT ENERGY     -1339.871946558306

DIPOLE MOMENT
-------------
                                X             Y             Z
Electronic contribution:     11.80294      16.42147     -22.91432
Nuclear contribution   :    -12.16143     -16.52149      23.49524
                        -----------------------------------------
Total Dipole Moment    :     -0.35849      -0.10002       0.58091
                        -----------------------------------------
Magnitude (a.u.)       :      0.68991
Magnitude (Debye)      :      1.75362

Rotational constants in cm-1:     0.018029     0.009427     0.006735
Rotational constants in MHz :   540.501367   282.602848   201.918399

                             ****ORCA TERMINATED NORMALLY****
TOTAL RUN TIME: 0 days 0 hours 0 minutes 21 seconds 894 msec
