                         Program Version 4.2.1 -  RELEASE  -
|  1> ! wB97X-D3 SP def2-SVP
|  2> %pal
|  3> nprocs 24
|  4> end
|  5>
|  6> * xyz 0 1
|  7> S 	 -61.2012 	 6.63058 	 -7.90533
|  8> C 	 -60.8465 	 4.89439 	 -7.9524
|  9> C 	 -60.5171 	 4.41998 	 -9.18284
| 10> C 	 -60.4029 	 5.45972 	 -10.1403
| 11> C 	 -60.7378 	 6.72095 	 -9.6049
| 12> H 	 -60.0944 	 5.26893 	 -11.1203
| 13> C 	 -60.378 	 2.96536 	 -9.4981
| 14> H 	 -60.0985 	 2.83885 	 -10.5684
| 15> H 	 -61.3406 	 2.47413 	 -9.30225
| 16> C 	 -59.3148 	 2.1461 	 -8.74316
| 17> H 	 -58.3399 	 2.68263 	 -8.79623
| 18> H 	 -59.5338 	 2.11248 	 -7.70049
| 19> C 	 -59.2336 	 0.747981 	 -9.39851
| 20> H 	 -60.1139 	 0.100875 	 -9.4269
| 21> H 	 -58.7971 	 0.796315 	 -10.3624
| 22> H 	 -58.5968 	 0.191985 	 -8.73572
| 23> S 	 -62.8794 	 8.30395 	 -10.1727
| 24> C 	 -62.9517 	 9.43241 	 -11.5195
| 25> C 	 -61.7103 	 9.41273 	 -12.154
| 26> C 	 -60.8128 	 8.44219 	 -11.5838
| 27> C 	 -61.217 	 7.78046 	 -10.4309
| 28> H 	 -61.5941 	 9.98671 	 -13.1188
| 29> C 	 -59.5709 	 8.22467 	 -12.4115
| 30> H 	 -59.0268 	 7.50369 	 -11.8009
| 31> H 	 -58.9225 	 9.13639 	 -12.3931
| 32> C 	 -59.7236 	 7.66227 	 -13.8028
| 33> H 	 -58.6033 	 7.54777 	 -14.1936
| 34> H 	 -60.2644 	 8.34429 	 -14.5085
| 35> C 	 -60.4603 	 6.32204 	 -14.0171
| 36> H 	 -60.6032 	 6.04292 	 -15.0689
| 37> H 	 -61.419 	 6.2876 	 -13.5079
| 38> H 	 -59.9788 	 5.49925 	 -13.5335
| 39> H 	 -60.7575 	 4.34941 	 -7.02175
| 40> H 	 -63.838 	 10.0008 	 -11.779
| 41> *
| 42>
| 43>                          ****END OF INPUT****

CARTESIAN COORDINATES (ANGSTROEM)
---------------------------------
  S    -61.201200    6.630580   -7.905330
  C    -60.846500    4.894390   -7.952400
  C    -60.517100    4.419980   -9.182840
  C    -60.402900    5.459720  -10.140300
  C    -60.737800    6.720950   -9.604900
  H    -60.094400    5.268930  -11.120300
  C    -60.378000    2.965360   -9.498100
  H    -60.098500    2.838850  -10.568400
  H    -61.340600    2.474130   -9.302250
  C    -59.314800    2.146100   -8.743160
  H    -58.339900    2.682630   -8.796230
  H    -59.533800    2.112480   -7.700490
  C    -59.233600    0.747981   -9.398510
  H    -60.113900    0.100875   -9.426900
  H    -58.797100    0.796315  -10.362400
  H    -58.596800    0.191985   -8.735720
  S    -62.879400    8.303950  -10.172700
  C    -62.951700    9.432410  -11.519500
  C    -61.710300    9.412730  -12.154000
  C    -60.812800    8.442190  -11.583800
  C    -61.217000    7.780460  -10.430900
  H    -61.594100    9.986710  -13.118800
  C    -59.570900    8.224670  -12.411500
  H    -59.026800    7.503690  -11.800900
  H    -58.922500    9.136390  -12.393100
  C    -59.723600    7.662270  -13.802800
  H    -58.603300    7.547770  -14.193600
  H    -60.264400    8.344290  -14.508500
  C    -60.460300    6.322040  -14.017100
  H    -60.603200    6.042920  -15.068900
  H    -61.419000    6.287600  -13.507900
  H    -59.978800    5.499250  -13.533500
  H    -60.757500    4.349410   -7.021750
  H    -63.838000   10.000800  -11.779000

 Total Charge           Charge          ....    0
 Multiplicity           Mult            ....    1
 Number of Electrons    NEL             ....  134
 Basis Dimension        Dim             ....  322

ORBITAL ENERGIES
----------------

  NO   OCC          E(Eh)            E(eV)
   0   2.0000     -88.972796     -2421.0729
   1   2.0000     -88.957167     -2420.6476
   2   2.0000     -10.334639      -281.2198
   3   2.0000     -10.327550      -281.0269
   4   2.0000     -10.317791      -280.7614
   5   2.0000     -10.315233      -280.6918
   6   2.0000     -10.299634      -280.2673
   7   2.0000     -10.299360      -280.2598
   8   2.0000     -10.298445      -280.2349
   9   2.0000     -10.298295      -280.2309
  10   2.0000     -10.296006      -280.1686
  11   2.0000     -10.294545      -280.1288
  12   2.0000     -10.291823      -280.0547
  13   2.0000     -10.288578      -279.9664
  14   2.0000     -10.278384      -279.6890
  15   2.0000     -10.275542      -279.6117
  16   2.0000      -8.086870      -220.0549
  17   2.0000      -8.071896      -219.6475
  18   2.0000      -6.045328      -164.5017
  19   2.0000      -6.041570      -164.3995
  20   2.0000      -6.037611      -164.2918
  21   2.0000      -6.030549      -164.0996
  22   2.0000      -6.026199      -163.9812
  23   2.0000      -6.022664      -163.8850
  24   2.0000      -1.007926       -27.4271
  25   2.0000      -0.981680       -26.7129
  26   2.0000      -0.916498       -24.9392
  27   2.0000      -0.904902       -24.6236
  28   2.0000      -0.873688       -23.7743
  29   2.0000      -0.855701       -23.2848
  30   2.0000      -0.839639       -22.8477
  31   2.0000      -0.813465       -22.1355
  32   2.0000      -0.781882       -21.2761
  33   2.0000      -0.774289       -21.0695
  34   2.0000      -0.712362       -19.3844
  35   2.0000      -0.707421       -19.2499
  36   2.0000      -0.690344       -18.7852
  37   2.0000      -0.659559       -17.9475
  38   2.0000      -0.640636       -17.4326
  39   2.0000      -0.622197       -16.9308
  40   2.0000      -0.592623       -16.1261
  41   2.0000      -0.577935       -15.7264
  42   2.0000      -0.564971       -15.3736
  43   2.0000      -0.549461       -14.9516
  44   2.0000      -0.530739       -14.4421
  45   2.0000      -0.523627       -14.2486
  46   2.0000      -0.520583       -14.1658
  47   2.0000      -0.515729       -14.0337
  48   2.0000      -0.512436       -13.9441
  49   2.0000      -0.498716       -13.5707
  50   2.0000      -0.495955       -13.4956
  51   2.0000      -0.480987       -13.0883
  52   2.0000      -0.473450       -12.8832
  53   2.0000      -0.461423       -12.5560
  54   2.0000      -0.457332       -12.4446
  55   2.0000      -0.450001       -12.2452
  56   2.0000      -0.447241       -12.1700
  57   2.0000      -0.435010       -11.8372
  58   2.0000      -0.431028       -11.7289
  59   2.0000      -0.428348       -11.6559
  60   2.0000      -0.422169       -11.4878
  61   2.0000      -0.409949       -11.1553
  62   2.0000      -0.397131       -10.8065
  63   2.0000      -0.353225        -9.6117
  64   2.0000      -0.335586        -9.1318
  65   2.0000      -0.322215        -8.7679
  66   2.0000      -0.285572        -7.7708
  67   0.0000       0.022332         0.6077
  68   0.0000       0.065277         1.7763
  69   0.0000       0.106813         2.9065
  70   0.0000       0.122334         3.3289
  71   0.0000       0.125093         3.4039

MULLIKEN ATOMIC CHARGES
-----------------------
   0 S :    0.112958
   1 C :   -0.140529
   2 C :   -0.048397
   3 C :    0.068831
   4 C :   -0.137199
   5 H :   -0.032624
   6 C :    0.039652
   7 H :    0.019690
   8 H :    0.046719
   9 C :   -0.090430
  10 H :    0.037626
  11 H :    0.023402
  12 C :   -0.030645
  13 H :    0.033032
  14 H :    0.033285
  15 H :    0.022082
  16 S :    0.071806
  17 C :   -0.106698
  18 C :   -0.037567
  19 C :   -0.102579
  20 C :   -0.092439
  21 H :    0.046909
  22 C :    0.074311
  23 H :    0.005625
  24 H :    0.046041
  25 C :   -0.115502
  26 H :    0.046901
  27 H :    0.037467
  28 C :   -0.048444
  29 H :    0.040563
  30 H :    0.038344
  31 H :    0.019334
  32 H :    0.053036
  33 H :    0.065437
Sum of atomic charges:   -0.0000000

LOEWDIN ATOMIC CHARGES
----------------------
   0 S :    0.403013
   1 C :   -0.181445
   2 C :   -0.066681
   3 C :   -0.034471
   4 C :   -0.192930
   5 H :    0.019097
   6 C :   -0.035869
   7 H :    0.031106
   8 H :    0.038144
   9 C :   -0.035282
  10 H :    0.030508
  11 H :    0.015278
  12 C :   -0.062609
  13 H :    0.028560
  14 H :    0.022045
  15 H :    0.026447
  16 S :    0.391040
  17 C :   -0.184925
  18 C :   -0.080132
  19 C :   -0.076141
  20 C :   -0.193368
  21 H :    0.042359
  22 C :   -0.044519
  23 H :    0.025277
  24 H :    0.041224
  25 C :   -0.048532
  26 H :    0.038515
  27 H :    0.024204
  28 C :   -0.071647
  29 H :    0.031675
  30 H :    0.028720
  31 H :    0.014711
  32 H :    0.024851
  33 H :    0.031777

  Mayer bond orders larger than 0.100000
B(  0-S ,  1-C ) :   1.1341 B(  0-S ,  4-C ) :   1.1570 B(  1-C ,  2-C ) :   1.5903
B(  1-C , 32-H ) :   0.9691 B(  2-C ,  3-C ) :   1.2888 B(  2-C ,  6-C ) :   1.0158
B(  3-C ,  4-C ) :   1.5015 B(  3-C ,  5-H ) :   0.9985 B(  4-C , 20-C ) :   1.0548
B(  6-C ,  7-H ) :   0.9467 B(  6-C ,  8-H ) :   0.9377 B(  6-C ,  9-C ) :   1.0639
B(  9-C , 10-H ) :   0.9562 B(  9-C , 11-H ) :   0.9559 B(  9-C , 12-C ) :   1.0825
B( 12-C , 13-H ) :   0.9747 B( 12-C , 14-H ) :   0.9752 B( 12-C , 15-H ) :   0.9715
B( 16-S , 17-C ) :   1.1599 B( 16-S , 20-C ) :   1.1199 B( 17-C , 18-C ) :   1.5830
B( 17-C , 33-H ) :   0.9706 B( 18-C , 19-C ) :   1.2448 B( 18-C , 21-H ) :   0.9835
B( 19-C , 20-C ) :   1.5884 B( 19-C , 22-C ) :   1.0476 B( 22-C , 23-H ) :   0.9302
B( 22-C , 24-H ) :   0.9340 B( 22-C , 25-C ) :   1.0728 B( 25-C , 26-H ) :   0.9521
B( 25-C , 27-H ) :   0.9545 B( 25-C , 28-C ) :   1.0727 B( 28-C , 29-H ) :   0.9720
B( 28-C , 30-H ) :   0.9715 B( 28-C , 31-H ) :   0.9679

Dispersion correction           -0.014556763
FINAL SINGLE POINT ENERGY     -1339.864074041869

DIPOLE MOMENT
-------------
                                X             Y             Z
Electronic contribution:    -13.37531      20.91954      15.37197
Nuclear contribution   :     13.59516     -21.57092     -15.73628
                        -----------------------------------------
Total Dipole Moment    :      0.21984      -0.65138      -0.36431
                        -----------------------------------------
Magnitude (a.u.)       :      0.77804
Magnitude (Debye)      :      1.97763

Rotational constants in cm-1:     0.020412     0.008301     0.006416
Rotational constants in MHz :   611.932015   248.867978   192.336079

                             ****ORCA TERMINATED NORMALLY****
TOTAL RUN TIME: 0 days 0 hours 0 minutes 21 seconds 717 msec
