                         Program Version 4.2.1 -  RELEASE  -
|  1> ! wB97X-D3 SP def2-SVP
|  2> %pal
|  3> nprocs 24
|  4> end
|  5>
|  6> * xyz 0 1
|  7> S 	 -43.2924 	 20.7831 	 20.7135
|  8> C 	 -44.2347 	 19.3099 	 20.8634
|  9> C 	 -44.1266 	 18.7071 	 22.1211
| 10> C 	 -43.23 	 19.4387 	 22.9983
| 11> C 	 -42.6516 	 20.4801 	 22.3457
| 12> H 	 -43.0387 	 19.1918 	 24.056
| 13> C 	 -44.7657 	 17.3917 	 22.3941
| 14> H 	 -44.6767 	 16.7691 	 21.4763
| 15> H 	 -45.7994 	 17.6316 	 22.6344
| 16> C 	 -44.3524 	 16.6063 	 23.6451
| 17> H 	 -43.2892 	 16.3199 	 23.5719
| 18> H 	 -44.4292 	 17.2375 	 24.524
| 19> C 	 -45.0314 	 15.1886 	 23.6544
| 20> H 	 -46.0868 	 15.2933 	 23.9341
| 21> H 	 -44.9719 	 14.5767 	 22.7606
| 22> H 	 -44.4305 	 14.6667 	 24.3378
| 23> S 	 -42.1224 	 23.1158 	 23.0466
| 24> C 	 -40.6548 	 23.5735 	 23.8515
| 25> C 	 -39.8284 	 22.4521 	 23.8886
| 26> C 	 -40.4444 	 21.2094 	 23.5248
| 27> C 	 -41.6925 	 21.391 	 22.8941
| 28> H 	 -38.8341 	 22.4697 	 24.3654
| 29> C 	 -39.6707 	 19.901 	 23.5244
| 30> H 	 -38.8962 	 19.9861 	 22.7983
| 31> H 	 -40.442 	 19.2274 	 23.219
| 32> C 	 -39.1868 	 19.5136 	 24.897
| 33> H 	 -38.1937 	 19.9277 	 25.2585
| 34> H 	 -38.9607 	 18.4427 	 24.7714
| 35> C 	 -40.2601 	 19.5329 	 26.0219
| 36> H 	 -40.5912 	 20.4764 	 26.3683
| 37> H 	 -39.8922 	 19.0718 	 26.9223
| 38> H 	 -41.0563 	 18.9967 	 25.5618
| 39> H 	 -44.8794 	 18.8582 	 20.0953
| 40> H 	 -40.3759 	 24.516 	 24.1902
| 41> *
| 42>
| 43>                          ****END OF INPUT****

CARTESIAN COORDINATES (ANGSTROEM)
---------------------------------
  S    -43.292400   20.783100   20.713500
  C    -44.234700   19.309900   20.863400
  C    -44.126600   18.707100   22.121100
  C    -43.230000   19.438700   22.998300
  C    -42.651600   20.480100   22.345700
  H    -43.038700   19.191800   24.056000
  C    -44.765700   17.391700   22.394100
  H    -44.676700   16.769100   21.476300
  H    -45.799400   17.631600   22.634400
  C    -44.352400   16.606300   23.645100
  H    -43.289200   16.319900   23.571900
  H    -44.429200   17.237500   24.524000
  C    -45.031400   15.188600   23.654400
  H    -46.086800   15.293300   23.934100
  H    -44.971900   14.576700   22.760600
  H    -44.430500   14.666700   24.337800
  S    -42.122400   23.115800   23.046600
  C    -40.654800   23.573500   23.851500
  C    -39.828400   22.452100   23.888600
  C    -40.444400   21.209400   23.524800
  C    -41.692500   21.391000   22.894100
  H    -38.834100   22.469700   24.365400
  C    -39.670700   19.901000   23.524400
  H    -38.896200   19.986100   22.798300
  H    -40.442000   19.227400   23.219000
  C    -39.186800   19.513600   24.897000
  H    -38.193700   19.927700   25.258500
  H    -38.960700   18.442700   24.771400
  C    -40.260100   19.532900   26.021900
  H    -40.591200   20.476400   26.368300
  H    -39.892200   19.071800   26.922300
  H    -41.056300   18.996700   25.561800
  H    -44.879400   18.858200   20.095300
  H    -40.375900   24.516000   24.190200

 Total Charge           Charge          ....    0
 Multiplicity           Mult            ....    1
 Number of Electrons    NEL             ....  134
 Basis Dimension        Dim             ....  322

ORBITAL ENERGIES
----------------

  NO   OCC          E(Eh)            E(eV)
   0   2.0000     -88.968896     -2420.9667
   1   2.0000     -88.961132     -2420.7555
   2   2.0000     -10.328901      -281.0637
   3   2.0000     -10.325449      -280.9697
   4   2.0000     -10.314447      -280.6704
   5   2.0000     -10.313491      -280.6444
   6   2.0000     -10.301778      -280.3256
   7   2.0000     -10.300779      -280.2985
   8   2.0000     -10.299814      -280.2722
   9   2.0000     -10.293068      -280.0886
  10   2.0000     -10.292184      -280.0646
  11   2.0000     -10.291268      -280.0397
  12   2.0000     -10.290008      -280.0054
  13   2.0000     -10.284452      -279.8542
  14   2.0000     -10.280447      -279.7452
  15   2.0000     -10.271580      -279.5039
  16   2.0000      -8.082947      -219.9482
  17   2.0000      -8.075568      -219.7474
  18   2.0000      -6.041477      -164.3969
  19   2.0000      -6.037734      -164.2951
  20   2.0000      -6.034114      -164.1966
  21   2.0000      -6.033544      -164.1811
  22   2.0000      -6.029955      -164.0834
  23   2.0000      -6.026454      -163.9881
  24   2.0000      -1.003046       -27.2943
  25   2.0000      -0.978815       -26.6349
  26   2.0000      -0.913738       -24.8641
  27   2.0000      -0.912663       -24.8348
  28   2.0000      -0.870662       -23.6919
  29   2.0000      -0.850450       -23.1419
  30   2.0000      -0.841354       -22.8944
  31   2.0000      -0.815921       -22.2023
  32   2.0000      -0.785633       -21.3782
  33   2.0000      -0.771946       -21.0057
  34   2.0000      -0.716240       -19.4899
  35   2.0000      -0.698246       -19.0002
  36   2.0000      -0.690327       -18.7847
  37   2.0000      -0.651552       -17.7296
  38   2.0000      -0.638959       -17.3870
  39   2.0000      -0.619113       -16.8469
  40   2.0000      -0.591693       -16.1008
  41   2.0000      -0.577673       -15.7193
  42   2.0000      -0.569283       -15.4910
  43   2.0000      -0.561448       -15.2778
  44   2.0000      -0.536539       -14.6000
  45   2.0000      -0.525874       -14.3098
  46   2.0000      -0.524359       -14.2685
  47   2.0000      -0.509738       -13.8707
  48   2.0000      -0.502376       -13.6704
  49   2.0000      -0.498562       -13.5666
  50   2.0000      -0.491145       -13.3647
  51   2.0000      -0.482033       -13.1168
  52   2.0000      -0.478491       -13.0204
  53   2.0000      -0.470115       -12.7925
  54   2.0000      -0.454622       -12.3709
  55   2.0000      -0.450471       -12.2579
  56   2.0000      -0.445088       -12.1115
  57   2.0000      -0.439492       -11.9592
  58   2.0000      -0.434778       -11.8309
  59   2.0000      -0.424577       -11.5533
  60   2.0000      -0.418726       -11.3941
  61   2.0000      -0.410546       -11.1715
  62   2.0000      -0.401216       -10.9176
  63   2.0000      -0.345817        -9.4102
  64   2.0000      -0.327392        -8.9088
  65   2.0000      -0.325220        -8.8497
  66   2.0000      -0.290176        -7.8961
  67   0.0000       0.032528         0.8851
  68   0.0000       0.062212         1.6929
  69   0.0000       0.112714         3.0671
  70   0.0000       0.120518         3.2795
  71   0.0000       0.127883         3.4799

MULLIKEN ATOMIC CHARGES
-----------------------
   0 S :    0.121043
   1 C :   -0.129874
   2 C :   -0.090191
   3 C :    0.024747
   4 C :   -0.156220
   5 H :    0.030104
   6 C :    0.048851
   7 H :    0.042828
   8 H :    0.037632
   9 C :   -0.125868
  10 H :    0.026134
  11 H :    0.041144
  12 C :   -0.019169
  13 H :    0.040227
  14 H :    0.032467
  15 H :    0.021827
  16 S :    0.096901
  17 C :   -0.062661
  18 C :   -0.033877
  19 C :   -0.090433
  20 C :   -0.151381
  21 H :    0.025198
  22 C :    0.131003
  23 H :    0.040447
  24 H :    0.008230
  25 C :   -0.122944
  26 H :    0.035412
  27 H :    0.026766
  28 C :   -0.007860
  29 H :    0.031358
  30 H :    0.027822
  31 H :    0.013863
  32 H :    0.050088
  33 H :    0.036386
Sum of atomic charges:   -0.0000000

LOEWDIN ATOMIC CHARGES
----------------------
   0 S :    0.395158
   1 C :   -0.204172
   2 C :   -0.061042
   3 C :   -0.061531
   4 C :   -0.184087
   5 H :    0.037894
   6 C :   -0.043536
   7 H :    0.038042
   8 H :    0.037233
   9 C :   -0.041814
  10 H :    0.022250
  11 H :    0.023875
  12 C :   -0.056708
  13 H :    0.026395
  14 H :    0.028245
  15 H :    0.021430
  16 S :    0.398120
  17 C :   -0.179575
  18 C :   -0.076983
  19 C :   -0.055442
  20 C :   -0.198845
  21 H :    0.031777
  22 C :   -0.025861
  23 H :    0.034988
  24 H :    0.028051
  25 C :   -0.048439
  26 H :    0.023997
  27 H :    0.028455
  28 C :   -0.055695
  29 H :    0.020203
  30 H :    0.026748
  31 H :    0.019553
  32 H :    0.031622
  33 H :    0.019696

  Mayer bond orders larger than 0.100000
B(  0-S ,  1-C ) :   1.1197 B(  0-S ,  4-C ) :   1.1375 B(  1-C ,  2-C ) :   1.6462
B(  1-C , 32-H ) :   0.9661 B(  2-C ,  3-C ) :   1.2157 B(  2-C ,  6-C ) :   1.0123
B(  3-C ,  4-C ) :   1.5949 B(  3-C ,  5-H ) :   0.9845 B(  4-C , 20-C ) :   1.0375
B(  6-C ,  7-H ) :   0.9510 B(  6-C ,  8-H ) :   0.9231 B(  6-C ,  9-C ) :   1.0854
B(  9-C , 10-H ) :   0.9606 B(  9-C , 11-H ) :   0.9487 B(  9-C , 12-C ) :   1.0717
B( 12-C , 13-H ) :   0.9771 B( 12-C , 14-H ) :   0.9749 B( 12-C , 15-H ) :   0.9768
B( 16-S , 17-C ) :   1.1619 B( 16-S , 20-C ) :   1.1378 B( 17-C , 18-C ) :   1.5800
B( 17-C , 20-C ) :   0.1082 B( 17-C , 33-H ) :   0.9795 B( 18-C , 19-C ) :   1.2586
B( 18-C , 21-H ) :   0.9796 B( 19-C , 20-C ) :   1.5702 B( 19-C , 22-C ) :   1.0414
B( 22-C , 23-H ) :   0.9392 B( 22-C , 24-H ) :   0.9215 B( 22-C , 25-C ) :   1.0748
B( 25-C , 26-H ) :   0.9544 B( 25-C , 27-H ) :   0.9561 B( 25-C , 28-C ) :   1.0735
B( 28-C , 29-H ) :   0.9714 B( 28-C , 30-H ) :   0.9713 B( 28-C , 31-H ) :   0.9742

Dispersion correction           -0.014693537
FINAL SINGLE POINT ENERGY     -1339.865180533711

DIPOLE MOMENT
-------------
                                X             Y             Z
Electronic contribution:     -2.17895      26.47615     -15.43955
Nuclear contribution   :      2.33307     -27.15977      15.82108
                        -----------------------------------------
Total Dipole Moment    :      0.15412      -0.68362       0.38153
                        -----------------------------------------
Magnitude (a.u.)       :      0.79791
Magnitude (Debye)      :      2.02812

Rotational constants in cm-1:     0.018478     0.009080     0.006696
Rotational constants in MHz :   553.942773   272.224850   200.755274

                             ****ORCA TERMINATED NORMALLY****
TOTAL RUN TIME: 0 days 0 hours 0 minutes 20 seconds 796 msec
