                         Program Version 4.2.1 -  RELEASE  -
|  1> ! wB97X-D3 SP def2-SVP
|  2> %pal
|  3> nprocs 24
|  4> end
|  5>
|  6> * xyz 0 1
|  7> S 	 -104.543 	 23.2677 	 -119.11
|  8> C 	 -104.451 	 23.5609 	 -117.381
|  9> C 	 -105.439 	 22.7911 	 -116.808
| 10> C 	 -106.054 	 21.8491 	 -117.712
| 11> C 	 -105.459 	 21.7816 	 -118.952
| 12> H 	 -106.803 	 21.0978 	 -117.514
| 13> C 	 -105.969 	 23.0326 	 -115.42
| 14> H 	 -106.341 	 22.047 	 -115.205
| 15> H 	 -106.752 	 23.7552 	 -115.491
| 16> C 	 -105.003 	 23.3825 	 -114.307
| 17> H 	 -104.638 	 24.3127 	 -114.573
| 18> H 	 -105.683 	 23.4501 	 -113.451
| 19> C 	 -103.744 	 22.4813 	 -114.163
| 20> H 	 -103.018 	 22.4972 	 -114.999
| 21> H 	 -103.086 	 22.7606 	 -113.313
| 22> H 	 -104.179 	 21.4119 	 -114.085
| 23> S 	 -106.008 	 21.6817 	 -121.668
| 24> C 	 -106.307 	 20.1811 	 -122.45
| 25> C 	 -106.143 	 19.1292 	 -121.574
| 26> C 	 -105.872 	 19.5401 	 -120.261
| 27> C 	 -105.689 	 20.9059 	 -120.121
| 28> H 	 -106.259 	 18.0629 	 -121.88
| 29> C 	 -105.575 	 18.6092 	 -119.1
| 30> H 	 -105.654 	 19.1746 	 -118.18
| 31> H 	 -104.524 	 18.3029 	 -119.077
| 32> C 	 -106.589 	 17.4145 	 -118.948
| 33> H 	 -106.688 	 16.7933 	 -119.798
| 34> H 	 -107.52 	 17.8213 	 -118.769
| 35> C 	 -106.168 	 16.3979 	 -117.798
| 36> H 	 -106.392 	 16.7704 	 -116.818
| 37> H 	 -105.103 	 16.2479 	 -117.847
| 38> H 	 -106.509 	 15.4649 	 -117.935
| 39> H 	 -104.083 	 24.4677 	 -116.954
| 40> H 	 -106.638 	 20.1667 	 -123.43
| 41> *
| 42>
| 43>                          ****END OF INPUT****

CARTESIAN COORDINATES (ANGSTROEM)
---------------------------------
  S    -104.543000   23.267700  -119.110000
  C    -104.451000   23.560900  -117.381000
  C    -105.439000   22.791100  -116.808000
  C    -106.054000   21.849100  -117.712000
  C    -105.459000   21.781600  -118.952000
  H    -106.803000   21.097800  -117.514000
  C    -105.969000   23.032600  -115.420000
  H    -106.341000   22.047000  -115.205000
  H    -106.752000   23.755200  -115.491000
  C    -105.003000   23.382500  -114.307000
  H    -104.638000   24.312700  -114.573000
  H    -105.683000   23.450100  -113.451000
  C    -103.744000   22.481300  -114.163000
  H    -103.018000   22.497200  -114.999000
  H    -103.086000   22.760600  -113.313000
  H    -104.179000   21.411900  -114.085000
  S    -106.008000   21.681700  -121.668000
  C    -106.307000   20.181100  -122.450000
  C    -106.143000   19.129200  -121.574000
  C    -105.872000   19.540100  -120.261000
  C    -105.689000   20.905900  -120.121000
  H    -106.259000   18.062900  -121.880000
  C    -105.575000   18.609200  -119.100000
  H    -105.654000   19.174600  -118.180000
  H    -104.524000   18.302900  -119.077000
  C    -106.589000   17.414500  -118.948000
  H    -106.688000   16.793300  -119.798000
  H    -107.520000   17.821300  -118.769000
  C    -106.168000   16.397900  -117.798000
  H    -106.392000   16.770400  -116.818000
  H    -105.103000   16.247900  -117.847000
  H    -106.509000   15.464900  -117.935000
  H    -104.083000   24.467700  -116.954000
  H    -106.638000   20.166700  -123.430000

 Total Charge           Charge          ....    0
 Multiplicity           Mult            ....    1
 Number of Electrons    NEL             ....  134
 Basis Dimension        Dim             ....  322

ORBITAL ENERGIES
----------------

  NO   OCC          E(Eh)            E(eV)
   0   2.0000     -88.966135     -2420.8916
   1   2.0000     -88.957433     -2420.6548
   2   2.0000     -10.334320      -281.2111
   3   2.0000     -10.330195      -281.0989
   4   2.0000     -10.315341      -280.6947
   5   2.0000     -10.310004      -280.5495
   6   2.0000     -10.303568      -280.3743
   7   2.0000     -10.300962      -280.3034
   8   2.0000     -10.297596      -280.2118
   9   2.0000     -10.294731      -280.1339
  10   2.0000     -10.291718      -280.0519
  11   2.0000     -10.289216      -279.9838
  12   2.0000     -10.284235      -279.8483
  13   2.0000     -10.283980      -279.8413
  14   2.0000     -10.283375      -279.8248
  15   2.0000     -10.268539      -279.4212
  16   2.0000      -8.081531      -219.9096
  17   2.0000      -8.072534      -219.6648
  18   2.0000      -6.039908      -164.3543
  19   2.0000      -6.035828      -164.2432
  20   2.0000      -6.032509      -164.1529
  21   2.0000      -6.031129      -164.1154
  22   2.0000      -6.027213      -164.0088
  23   2.0000      -6.022927      -163.8922
  24   2.0000      -1.010965       -27.5098
  25   2.0000      -0.990055       -26.9408
  26   2.0000      -0.916871       -24.9493
  27   2.0000      -0.904786       -24.6205
  28   2.0000      -0.869386       -23.6572
  29   2.0000      -0.853500       -23.2249
  30   2.0000      -0.840050       -22.8589
  31   2.0000      -0.817269       -22.2390
  32   2.0000      -0.784812       -21.3558
  33   2.0000      -0.776342       -21.1254
  34   2.0000      -0.715988       -19.4830
  35   2.0000      -0.707790       -19.2600
  36   2.0000      -0.701726       -19.0949
  37   2.0000      -0.660263       -17.9667
  38   2.0000      -0.640900       -17.4398
  39   2.0000      -0.613174       -16.6853
  40   2.0000      -0.599846       -16.3226
  41   2.0000      -0.579419       -15.7668
  42   2.0000      -0.565217       -15.3803
  43   2.0000      -0.564160       -15.3516
  44   2.0000      -0.536344       -14.5947
  45   2.0000      -0.528856       -14.3909
  46   2.0000      -0.518560       -14.1107
  47   2.0000      -0.513161       -13.9638
  48   2.0000      -0.508002       -13.8234
  49   2.0000      -0.499503       -13.5922
  50   2.0000      -0.489390       -13.3170
  51   2.0000      -0.485893       -13.2218
  52   2.0000      -0.476854       -12.9759
  53   2.0000      -0.470512       -12.8033
  54   2.0000      -0.458464       -12.4754
  55   2.0000      -0.450455       -12.2575
  56   2.0000      -0.447526       -12.1778
  57   2.0000      -0.439463       -11.9584
  58   2.0000      -0.428402       -11.6574
  59   2.0000      -0.426511       -11.6059
  60   2.0000      -0.417733       -11.3671
  61   2.0000      -0.415057       -11.2943
  62   2.0000      -0.404588       -11.0094
  63   2.0000      -0.354232        -9.6391
  64   2.0000      -0.335770        -9.1368
  65   2.0000      -0.319535        -8.6950
  66   2.0000      -0.291532        -7.9330
  67   0.0000       0.022064         0.6004
  68   0.0000       0.066662         1.8140
  69   0.0000       0.105865         2.8807
  70   0.0000       0.126396         3.4394
  71   0.0000       0.132181         3.5968

MULLIKEN ATOMIC CHARGES
-----------------------
   0 S :    0.071682
   1 C :   -0.083776
   2 C :   -0.150075
   3 C :    0.046173
   4 C :   -0.156809
   5 H :    0.013425
   6 C :    0.074704
   7 H :    0.007433
   8 H :    0.045243
   9 C :   -0.030035
  10 H :    0.001656
  11 H :    0.039321
  12 C :   -0.091835
  13 H :    0.045572
  14 H :    0.044617
  15 H :    0.040116
  16 S :    0.105734
  17 C :   -0.071572
  18 C :   -0.031622
  19 C :   -0.041237
  20 C :   -0.131096
  21 H :    0.034682
  22 C :    0.066473
  23 H :    0.006238
  24 H :    0.043327
  25 C :   -0.070895
  26 H :    0.019440
  27 H :    0.015533
  28 C :    0.004916
  29 H :    0.028626
  30 H :    0.012776
  31 H :    0.003562
  32 H :    0.049412
  33 H :    0.038290
Sum of atomic charges:   -0.0000000

LOEWDIN ATOMIC CHARGES
----------------------
   0 S :    0.388742
   1 C :   -0.197420
   2 C :   -0.063142
   3 C :   -0.072454
   4 C :   -0.178340
   5 H :    0.028453
   6 C :   -0.029071
   7 H :    0.023662
   8 H :    0.034576
   9 C :   -0.037408
  10 H :    0.008950
  11 H :    0.032873
  12 C :   -0.075030
  13 H :    0.029961
  14 H :    0.030593
  15 H :    0.033085
  16 S :    0.421095
  17 C :   -0.174975
  18 C :   -0.075011
  19 C :   -0.059874
  20 C :   -0.196697
  21 H :    0.040236
  22 C :   -0.028125
  23 H :    0.027434
  24 H :    0.034749
  25 C :   -0.023920
  26 H :    0.015115
  27 H :    0.013894
  28 C :   -0.050272
  29 H :    0.022595
  30 H :    0.025296
  31 H :    0.009064
  32 H :    0.025483
  33 H :    0.015885

  Mayer bond orders larger than 0.100000
B(  0-S ,  1-C ) :   1.1198 B(  0-S ,  4-C ) :   1.1577 B(  1-C ,  2-C ) :   1.6076
B(  1-C ,  4-C ) :   0.1015 B(  1-C , 32-H ) :   0.9731 B(  2-C ,  3-C ) :   1.2399
B(  2-C ,  6-C ) :   1.0015 B(  3-C ,  4-C ) :   1.5624 B(  3-C ,  5-H ) :   0.9895
B(  4-C , 20-C ) :   1.0300 B(  6-C ,  7-H ) :   0.9393 B(  6-C ,  8-H ) :   0.9358
B(  6-C ,  9-C ) :   1.0890 B(  9-C , 10-H ) :   0.9456 B(  9-C , 11-H ) :   0.9562
B(  9-C , 12-C ) :   1.0728 B( 12-C , 13-H ) :   0.9704 B( 12-C , 14-H ) :   0.9744
B( 12-C , 15-H ) :   0.9777 B( 16-S , 17-C ) :   1.1863 B( 16-S , 20-C ) :   1.1492
B( 17-C , 18-C ) :   1.5536 B( 17-C , 20-C ) :   0.1054 B( 17-C , 33-H ) :   0.9812
B( 18-C , 19-C ) :   1.2745 B( 18-C , 21-H ) :   0.9878 B( 19-C , 20-C ) :   1.5791
B( 19-C , 22-C ) :   1.0432 B( 22-C , 23-H ) :   0.9332 B( 22-C , 24-H ) :   0.9383
B( 22-C , 25-C ) :   1.0473 B( 25-C , 26-H ) :   0.9635 B( 25-C , 27-H ) :   0.9623
B( 25-C , 28-C ) :   1.0784 B( 28-C , 29-H ) :   0.9787 B( 28-C , 30-H ) :   0.9728
B( 28-C , 31-H ) :   0.9754

Dispersion correction           -0.013750323
FINAL SINGLE POINT ENERGY     -1339.848469845176

DIPOLE MOMENT
-------------
                                X             Y             Z
Electronic contribution:      0.22100      15.34830     -25.24370
Nuclear contribution   :     -0.55756     -15.72391      25.62932
                        -----------------------------------------
Total Dipole Moment    :     -0.33656      -0.37562       0.38562
                        -----------------------------------------
Magnitude (a.u.)       :      0.63487
Magnitude (Debye)      :      1.61371

Rotational constants in cm-1:     0.017993     0.008623     0.006176
Rotational constants in MHz :   539.402838   258.514134   185.155099

                             ****ORCA TERMINATED NORMALLY****
TOTAL RUN TIME: 0 days 0 hours 0 minutes 21 seconds 447 msec
