                         Program Version 4.2.1 -  RELEASE  -
|  1> ! wB97X-D3 SP def2-SVP
|  2> %pal
|  3> nprocs 24
|  4> end
|  5>
|  6> * xyz 0 1
|  7> S 	 -47.8988 	 11.5005 	 33.5942
|  8> C 	 -46.1662 	 11.5554 	 33.2513
|  9> C 	 -45.8867 	 12.7132 	 32.6359
| 10> C 	 -46.9579 	 13.6334 	 32.6447
| 11> C 	 -48.0527 	 13.2207 	 33.3398
| 12> H 	 -46.9394 	 14.5572 	 32.1115
| 13> C 	 -44.5673 	 13.037 	 31.9557
| 14> H 	 -43.8668 	 12.4507 	 32.4572
| 15> H 	 -44.4291 	 14.0945 	 32.1388
| 16> C 	 -44.6877 	 12.6023 	 30.5245
| 17> H 	 -45.6024 	 12.8601 	 29.9906
| 18> H 	 -43.8738 	 13.0236 	 30.0407
| 19> C 	 -44.7561 	 11.1006 	 30.2802
| 20> H 	 -44.0011 	 10.543 	 30.9003
| 21> H 	 -45.7834 	 10.7346 	 30.4538
| 22> H 	 -44.6026 	 10.9362 	 29.2452
| 23> S 	 -50.6773 	 13.212 	 32.6771
| 24> C 	 -51.6567 	 14.5923 	 33.2588
| 25> C 	 -50.8909 	 15.5628 	 33.857
| 26> C 	 -49.5528 	 15.2037 	 33.914
| 27> C 	 -49.2596 	 13.956 	 33.4196
| 28> H 	 -51.3078 	 16.4155 	 34.4354
| 29> C 	 -48.5625 	 16.1327 	 34.6295
| 30> H 	 -47.6553 	 15.5527 	 34.7579
| 31> H 	 -48.8632 	 16.3338 	 35.6233
| 32> C 	 -48.3456 	 17.5253 	 33.9971
| 33> H 	 -47.9258 	 18.1707 	 34.7432
| 34> H 	 -49.2427 	 17.9578 	 33.6836
| 35> C 	 -47.402 	 17.5519 	 32.8234
| 36> H 	 -46.4097 	 17.1896 	 33.1707
| 37> H 	 -47.4176 	 18.6524 	 32.5336
| 38> H 	 -47.7956 	 16.9585 	 31.9782
| 39> H 	 -45.5298 	 10.6344 	 33.266
| 40> H 	 -52.7508 	 14.5972 	 33.3484
| 41> *
| 42>
| 43>                          ****END OF INPUT****

CARTESIAN COORDINATES (ANGSTROEM)
---------------------------------
  S    -47.898800   11.500500   33.594200
  C    -46.166200   11.555400   33.251300
  C    -45.886700   12.713200   32.635900
  C    -46.957900   13.633400   32.644700
  C    -48.052700   13.220700   33.339800
  H    -46.939400   14.557200   32.111500
  C    -44.567300   13.037000   31.955700
  H    -43.866800   12.450700   32.457200
  H    -44.429100   14.094500   32.138800
  C    -44.687700   12.602300   30.524500
  H    -45.602400   12.860100   29.990600
  H    -43.873800   13.023600   30.040700
  C    -44.756100   11.100600   30.280200
  H    -44.001100   10.543000   30.900300
  H    -45.783400   10.734600   30.453800
  H    -44.602600   10.936200   29.245200
  S    -50.677300   13.212000   32.677100
  C    -51.656700   14.592300   33.258800
  C    -50.890900   15.562800   33.857000
  C    -49.552800   15.203700   33.914000
  C    -49.259600   13.956000   33.419600
  H    -51.307800   16.415500   34.435400
  C    -48.562500   16.132700   34.629500
  H    -47.655300   15.552700   34.757900
  H    -48.863200   16.333800   35.623300
  C    -48.345600   17.525300   33.997100
  H    -47.925800   18.170700   34.743200
  H    -49.242700   17.957800   33.683600
  C    -47.402000   17.551900   32.823400
  H    -46.409700   17.189600   33.170700
  H    -47.417600   18.652400   32.533600
  H    -47.795600   16.958500   31.978200
  H    -45.529800   10.634400   33.266000
  H    -52.750800   14.597200   33.348400

 Total Charge           Charge          ....    0
 Multiplicity           Mult            ....    1
 Number of Electrons    NEL             ....  134
 Basis Dimension        Dim             ....  322

ORBITAL ENERGIES
----------------

  NO   OCC          E(Eh)            E(eV)
   0   2.0000     -88.965138     -2420.8645
   1   2.0000     -88.960107     -2420.7276
   2   2.0000     -10.322020      -280.8764
   3   2.0000     -10.321671      -280.8669
   4   2.0000     -10.319181      -280.7992
   5   2.0000     -10.312475      -280.6167
   6   2.0000     -10.296267      -280.1757
   7   2.0000     -10.291449      -280.0446
   8   2.0000     -10.291127      -280.0358
   9   2.0000     -10.285705      -279.8883
  10   2.0000     -10.285128      -279.8726
  11   2.0000     -10.283232      -279.8210
  12   2.0000     -10.282391      -279.7981
  13   2.0000     -10.278249      -279.6854
  14   2.0000     -10.278134      -279.6823
  15   2.0000     -10.277191      -279.6566
  16   2.0000      -8.079285      -219.8485
  17   2.0000      -8.075110      -219.7349
  18   2.0000      -6.037877      -164.2990
  19   2.0000      -6.034031      -164.1943
  20   2.0000      -6.033719      -164.1858
  21   2.0000      -6.029901      -164.0819
  22   2.0000      -6.029824      -164.0799
  23   2.0000      -6.025407      -163.9597
  24   2.0000      -1.013174       -27.5699
  25   2.0000      -0.987715       -26.8771
  26   2.0000      -0.923693       -25.1350
  27   2.0000      -0.909166       -24.7397
  28   2.0000      -0.875662       -23.8280
  29   2.0000      -0.852466       -23.1968
  30   2.0000      -0.846106       -23.0237
  31   2.0000      -0.814774       -22.1711
  32   2.0000      -0.786174       -21.3929
  33   2.0000      -0.774275       -21.0691
  34   2.0000      -0.710698       -19.3391
  35   2.0000      -0.695524       -18.9262
  36   2.0000      -0.693819       -18.8798
  37   2.0000      -0.660470       -17.9723
  38   2.0000      -0.640543       -17.4301
  39   2.0000      -0.625112       -17.0102
  40   2.0000      -0.598573       -16.2880
  41   2.0000      -0.573892       -15.6164
  42   2.0000      -0.557999       -15.1839
  43   2.0000      -0.551651       -15.0112
  44   2.0000      -0.544184       -14.8080
  45   2.0000      -0.539386       -14.6774
  46   2.0000      -0.526550       -14.3282
  47   2.0000      -0.518976       -14.1221
  48   2.0000      -0.504502       -13.7282
  49   2.0000      -0.499812       -13.6006
  50   2.0000      -0.486770       -13.2457
  51   2.0000      -0.483308       -13.1515
  52   2.0000      -0.468388       -12.7455
  53   2.0000      -0.462624       -12.5886
  54   2.0000      -0.455699       -12.4002
  55   2.0000      -0.450052       -12.2465
  56   2.0000      -0.447063       -12.1652
  57   2.0000      -0.443161       -12.0590
  58   2.0000      -0.431586       -11.7440
  59   2.0000      -0.423831       -11.5330
  60   2.0000      -0.421528       -11.4704
  61   2.0000      -0.415213       -11.2985
  62   2.0000      -0.404669       -11.0116
  63   2.0000      -0.346788        -9.4366
  64   2.0000      -0.333376        -9.0716
  65   2.0000      -0.324798        -8.8382
  66   2.0000      -0.292290        -7.9536
  67   0.0000       0.025192         0.6855
  68   0.0000       0.069183         1.8826
  69   0.0000       0.106167         2.8889
  70   0.0000       0.125469         3.4142
  71   0.0000       0.132706         3.6111

MULLIKEN ATOMIC CHARGES
-----------------------
   0 S :    0.084604
   1 C :   -0.140244
   2 C :   -0.132787
   3 C :    0.037511
   4 C :   -0.137849
   5 H :   -0.005486
   6 C :    0.149282
   7 H :    0.003390
   8 H :    0.026074
   9 C :   -0.044625
  10 H :    0.029529
  11 H :    0.015614
  12 C :   -0.065875
  13 H :    0.029210
  14 H :    0.045386
  15 H :    0.026824
  16 S :    0.097280
  17 C :   -0.095155
  18 C :   -0.043684
  19 C :   -0.036339
  20 C :   -0.156110
  21 H :    0.037633
  22 C :    0.086667
  23 H :    0.015446
  24 H :    0.014550
  25 C :   -0.051518
  26 H :    0.020281
  27 H :    0.010423
  28 C :   -0.077942
  29 H :    0.036743
  30 H :    0.041865
  31 H :    0.051187
  32 H :    0.065527
  33 H :    0.062588
Sum of atomic charges:    0.0000000

LOEWDIN ATOMIC CHARGES
----------------------
   0 S :    0.385757
   1 C :   -0.194121
   2 C :   -0.066952
   3 C :   -0.054758
   4 C :   -0.196452
   5 H :    0.026504
   6 C :   -0.015798
   7 H :    0.022372
   8 H :    0.031472
   9 C :   -0.037093
  10 H :    0.031717
  11 H :    0.013166
  12 C :   -0.060776
  13 H :    0.022084
  14 H :    0.028730
  15 H :    0.023294
  16 S :    0.380021
  17 C :   -0.172715
  18 C :   -0.074574
  19 C :   -0.061610
  20 C :   -0.187478
  21 H :    0.042134
  22 C :   -0.026049
  23 H :    0.027351
  24 H :    0.025608
  25 C :   -0.036585
  26 H :    0.022931
  27 H :    0.014077
  28 C :   -0.067698
  29 H :    0.024833
  30 H :    0.035254
  31 H :    0.024660
  32 H :    0.038544
  33 H :    0.032150

  Mayer bond orders larger than 0.100000
B(  0-S ,  1-C ) :   1.1166 B(  0-S ,  4-C ) :   1.1374 B(  1-C ,  2-C ) :   1.6324
B(  1-C , 32-H ) :   0.9623 B(  2-C ,  3-C ) :   1.2477 B(  2-C ,  6-C ) :   1.0032
B(  3-C ,  4-C ) :   1.5503 B(  3-C ,  5-H ) :   1.0011 B(  4-C , 20-C ) :   1.0700
B(  6-C ,  7-H ) :   0.9341 B(  6-C ,  8-H ) :   0.9396 B(  6-C ,  9-C ) :   1.0713
B(  9-C , 10-H ) :   0.9564 B(  9-C , 11-H ) :   0.9577 B(  9-C , 12-C ) :   1.0741
B( 12-C , 13-H ) :   0.9741 B( 12-C , 14-H ) :   0.9734 B( 12-C , 15-H ) :   0.9703
B( 16-S , 17-C ) :   1.1358 B( 16-S , 20-C ) :   1.1256 B( 17-C , 18-C ) :   1.6283
B( 17-C , 20-C ) :   0.1055 B( 17-C , 33-H ) :   0.9607 B( 18-C , 19-C ) :   1.2445
B( 18-C , 21-H ) :   0.9775 B( 19-C , 20-C ) :   1.6208 B( 19-C , 22-C ) :   1.0430
B( 22-C , 23-H ) :   0.9349 B( 22-C , 24-H ) :   0.9350 B( 22-C , 25-C ) :   1.0636
B( 25-C , 26-H ) :   0.9535 B( 25-C , 27-H ) :   0.9565 B( 25-C , 28-C ) :   1.0854
B( 28-C , 29-H ) :   0.9739 B( 28-C , 30-H ) :   0.9710 B( 28-C , 31-H ) :   0.9711

Dispersion correction           -0.015236119
FINAL SINGLE POINT ENERGY     -1339.859934940674

DIPOLE MOMENT
-------------
                                X             Y             Z
Electronic contribution:    -18.40744     -13.18703       7.22142
Nuclear contribution   :     18.79432      13.66192      -7.34678
                        -----------------------------------------
Total Dipole Moment    :      0.38688       0.47489      -0.12536
                        -----------------------------------------
Magnitude (a.u.)       :      0.62523
Magnitude (Debye)      :      1.58920

Rotational constants in cm-1:     0.020151     0.009238     0.007259
Rotational constants in MHz :   604.121043   276.939478   217.627275

                             ****ORCA TERMINATED NORMALLY****
TOTAL RUN TIME: 0 days 0 hours 0 minutes 22 seconds 692 msec
