                         Program Version 4.2.1 -  RELEASE  -
|  1> ! wB97X-D3 SP def2-SVP
|  2> %pal
|  3> nprocs 24
|  4> end
|  5>
|  6> * xyz 0 1
|  7> S 	 -59.2243 	 9.07058 	 -94.1982
|  8> C 	 -58.8169 	 10.5717 	 -93.4937
|  9> C 	 -59.8836 	 11.4399 	 -93.6986
| 10> C 	 -61.0776 	 10.7729 	 -94.2762
| 11> C 	 -60.8721 	 9.41451 	 -94.436
| 12> H 	 -62.0739 	 11.2569 	 -94.4558
| 13> C 	 -59.8545 	 12.9093 	 -93.3124
| 14> H 	 -60.0874 	 13.5886 	 -94.0611
| 15> H 	 -58.8897 	 13.0861 	 -92.7965
| 16> C 	 -60.9276 	 13.282 	 -92.337
| 17> H 	 -61.8373 	 12.9646 	 -92.6687
| 18> H 	 -60.956 	 12.8366 	 -91.3839
| 19> C 	 -60.9378 	 14.8312 	 -92.0211
| 20> H 	 -60.9503 	 15.3875 	 -92.9545
| 21> H 	 -61.7811 	 15.1432 	 -91.4332
| 22> H 	 -59.9709 	 15.1302 	 -91.5256
| 23> S 	 -61.3749 	 7.18329 	 -96.0172
| 24> C 	 -62.8704 	 6.29983 	 -95.8312
| 25> C 	 -63.6259 	 6.79067 	 -94.7734
| 26> C 	 -63.0578 	 8.05168 	 -94.2606
| 27> C 	 -61.8852 	 8.43383 	 -94.7657
| 28> H 	 -64.6071 	 6.35038 	 -94.6025
| 29> C 	 -63.785 	 8.8462 	 -93.2018
| 30> H 	 -63.0532 	 9.51365 	 -92.7178
| 31> H 	 -64.0636 	 8.17009 	 -92.3691
| 32> C 	 -64.9772 	 9.69421 	 -93.7121
| 33> H 	 -65.7737 	 9.0325 	 -93.9953
| 34> H 	 -64.7807 	 10.1377 	 -94.6857
| 35> C 	 -65.5552 	 10.696 	 -92.6642
| 36> H 	 -65.9172 	 10.1996 	 -91.7714
| 37> H 	 -66.3754 	 11.2232 	 -93.1039
| 38> H 	 -64.9253 	 11.445 	 -92.361
| 39> H 	 -57.8627 	 10.7979 	 -92.974
| 40> H 	 -63.1688 	 5.47039 	 -96.4231
| 41> *
| 42>
| 43>                          ****END OF INPUT****

CARTESIAN COORDINATES (ANGSTROEM)
---------------------------------
  S    -59.224300    9.070580  -94.198200
  C    -58.816900   10.571700  -93.493700
  C    -59.883600   11.439900  -93.698600
  C    -61.077600   10.772900  -94.276200
  C    -60.872100    9.414510  -94.436000
  H    -62.073900   11.256900  -94.455800
  C    -59.854500   12.909300  -93.312400
  H    -60.087400   13.588600  -94.061100
  H    -58.889700   13.086100  -92.796500
  C    -60.927600   13.282000  -92.337000
  H    -61.837300   12.964600  -92.668700
  H    -60.956000   12.836600  -91.383900
  C    -60.937800   14.831200  -92.021100
  H    -60.950300   15.387500  -92.954500
  H    -61.781100   15.143200  -91.433200
  H    -59.970900   15.130200  -91.525600
  S    -61.374900    7.183290  -96.017200
  C    -62.870400    6.299830  -95.831200
  C    -63.625900    6.790670  -94.773400
  C    -63.057800    8.051680  -94.260600
  C    -61.885200    8.433830  -94.765700
  H    -64.607100    6.350380  -94.602500
  C    -63.785000    8.846200  -93.201800
  H    -63.053200    9.513650  -92.717800
  H    -64.063600    8.170090  -92.369100
  C    -64.977200    9.694210  -93.712100
  H    -65.773700    9.032500  -93.995300
  H    -64.780700   10.137700  -94.685700
  C    -65.555200   10.696000  -92.664200
  H    -65.917200   10.199600  -91.771400
  H    -66.375400   11.223200  -93.103900
  H    -64.925300   11.445000  -92.361000
  H    -57.862700   10.797900  -92.974000
  H    -63.168800    5.470390  -96.423100

 Total Charge           Charge          ....    0
 Multiplicity           Mult            ....    1
 Number of Electrons    NEL             ....  134
 Basis Dimension        Dim             ....  322

ORBITAL ENERGIES
----------------

  NO   OCC          E(Eh)            E(eV)
   0   2.0000     -88.964104     -2420.8363
   1   2.0000     -88.959307     -2420.7058
   2   2.0000     -10.330553      -281.1086
   3   2.0000     -10.330205      -281.0992
   4   2.0000     -10.320856      -280.8448
   5   2.0000     -10.317651      -280.7576
   6   2.0000     -10.308496      -280.5084
   7   2.0000     -10.306831      -280.4631
   8   2.0000     -10.303248      -280.3656
   9   2.0000     -10.300061      -280.2789
  10   2.0000     -10.292058      -280.0611
  11   2.0000     -10.288667      -279.9689
  12   2.0000     -10.287878      -279.9474
  13   2.0000     -10.281500      -279.7738
  14   2.0000     -10.272666      -279.5335
  15   2.0000     -10.272142      -279.5192
  16   2.0000      -8.080577      -219.8837
  17   2.0000      -8.073494      -219.6910
  18   2.0000      -6.039082      -164.3318
  19   2.0000      -6.034769      -164.2144
  20   2.0000      -6.032170      -164.1437
  21   2.0000      -6.031271      -164.1192
  22   2.0000      -6.028194      -164.0355
  23   2.0000      -6.023985      -163.9210
  24   2.0000      -1.011999       -27.5379
  25   2.0000      -0.983495       -26.7623
  26   2.0000      -0.918969       -25.0064
  27   2.0000      -0.904399       -24.6100
  28   2.0000      -0.875242       -23.8165
  29   2.0000      -0.849697       -23.1214
  30   2.0000      -0.840232       -22.8639
  31   2.0000      -0.816449       -22.2167
  32   2.0000      -0.782442       -21.2913
  33   2.0000      -0.775255       -21.0958
  34   2.0000      -0.715695       -19.4751
  35   2.0000      -0.707664       -19.2565
  36   2.0000      -0.697806       -18.9883
  37   2.0000      -0.665724       -18.1153
  38   2.0000      -0.645795       -17.5730
  39   2.0000      -0.618277       -16.8242
  40   2.0000      -0.592959       -16.1352
  41   2.0000      -0.581405       -15.8208
  42   2.0000      -0.565461       -15.3870
  43   2.0000      -0.555913       -15.1272
  44   2.0000      -0.529806       -14.4168
  45   2.0000      -0.526035       -14.3141
  46   2.0000      -0.521130       -14.1807
  47   2.0000      -0.515023       -14.0145
  48   2.0000      -0.503474       -13.7002
  49   2.0000      -0.501308       -13.6413
  50   2.0000      -0.497322       -13.5328
  51   2.0000      -0.485263       -13.2047
  52   2.0000      -0.472336       -12.8529
  53   2.0000      -0.465898       -12.6777
  54   2.0000      -0.461923       -12.5696
  55   2.0000      -0.447845       -12.1865
  56   2.0000      -0.446327       -12.1452
  57   2.0000      -0.442849       -12.0505
  58   2.0000      -0.437744       -11.9116
  59   2.0000      -0.419802       -11.4234
  60   2.0000      -0.418402       -11.3853
  61   2.0000      -0.414423       -11.2770
  62   2.0000      -0.407252       -11.0819
  63   2.0000      -0.356103        -9.6901
  64   2.0000      -0.327426        -8.9097
  65   2.0000      -0.324739        -8.8366
  66   2.0000      -0.297149        -8.0858
  67   0.0000       0.033547         0.9129
  68   0.0000       0.062867         1.7107
  69   0.0000       0.110263         3.0004
  70   0.0000       0.118043         3.2121
  71   0.0000       0.125373         3.4116

MULLIKEN ATOMIC CHARGES
-----------------------
   0 S :    0.123589
   1 C :   -0.135182
   2 C :   -0.102872
   3 C :    0.002685
   4 C :   -0.126184
   5 H :    0.040816
   6 C :    0.133049
   7 H :    0.012326
   8 H :    0.019563
   9 C :   -0.060181
  10 H :   -0.010702
  11 H :    0.008098
  12 C :   -0.066027
  13 H :    0.020758
  14 H :    0.037444
  15 H :    0.036180
  16 S :    0.062376
  17 C :   -0.073744
  18 C :   -0.023197
  19 C :   -0.059131
  20 C :   -0.125333
  21 H :    0.029526
  22 C :    0.036984
  23 H :    0.024903
  24 H :    0.030770
  25 C :   -0.060940
  26 H :    0.015533
  27 H :    0.025207
  28 C :   -0.005117
  29 H :    0.029447
  30 H :    0.023209
  31 H :    0.012035
  32 H :    0.070904
  33 H :    0.053208
Sum of atomic charges:   -0.0000000

LOEWDIN ATOMIC CHARGES
----------------------
   0 S :    0.441929
   1 C :   -0.218108
   2 C :   -0.058268
   3 C :   -0.071831
   4 C :   -0.210217
   5 H :    0.039529
   6 C :   -0.024275
   7 H :    0.026213
   8 H :    0.034171
   9 C :   -0.035613
  10 H :    0.005897
  11 H :    0.017953
  12 C :   -0.063949
  13 H :    0.018867
  14 H :    0.023768
  15 H :    0.029707
  16 S :    0.350005
  17 C :   -0.163716
  18 C :   -0.075618
  19 C :   -0.051824
  20 C :   -0.161610
  21 H :    0.034335
  22 C :   -0.036600
  23 H :    0.028786
  24 H :    0.033906
  25 C :   -0.037967
  26 H :    0.021264
  27 H :    0.023731
  28 C :   -0.055404
  29 H :    0.027616
  30 H :    0.027102
  31 H :    0.011559
  32 H :    0.042771
  33 H :    0.025890

  Mayer bond orders larger than 0.100000
B(  0-S ,  1-C ) :   1.1404 B(  0-S ,  4-C ) :   1.1705 B(  1-C ,  2-C ) :   1.6014
B(  1-C , 32-H ) :   0.9685 B(  2-C ,  3-C ) :   1.2172 B(  2-C ,  6-C ) :   1.0445
B(  3-C ,  4-C ) :   1.5482 B(  3-C ,  5-H ) :   0.9901 B(  4-C , 20-C ) :   1.0400
B(  6-C ,  7-H ) :   0.9333 B(  6-C ,  8-H ) :   0.9441 B(  6-C ,  9-C ) :   1.0489
B(  9-C , 10-H ) :   0.9529 B(  9-C , 11-H ) :   0.9488 B(  9-C , 12-C ) :   1.0821
B( 12-C , 13-H ) :   0.9752 B( 12-C , 14-H ) :   0.9755 B( 12-C , 15-H ) :   0.9768
B( 16-S , 17-C ) :   1.1509 B( 16-S , 20-C ) :   1.0718 B( 17-C , 18-C ) :   1.6516
B( 17-C , 33-H ) :   0.9685 B( 18-C , 19-C ) :   1.1700 B( 18-C , 21-H ) :   0.9888
B( 19-C , 20-C ) :   1.6975 B( 19-C , 22-C ) :   1.0542 B( 22-C , 23-H ) :   0.9390
B( 22-C , 24-H ) :   0.9318 B( 22-C , 25-C ) :   1.0477 B( 25-C , 26-H ) :   0.9521
B( 25-C , 27-H ) :   0.9564 B( 25-C , 28-C ) :   1.0813 B( 28-C , 29-H ) :   0.9740
B( 28-C , 30-H ) :   0.9721 B( 28-C , 31-H ) :   0.9774

Dispersion correction           -0.014105264
FINAL SINGLE POINT ENERGY     -1339.859393451118

DIPOLE MOMENT
-------------
                                X             Y             Z
Electronic contribution:     16.39431     -25.05848     -15.54561
Nuclear contribution   :    -16.96286      25.45613      15.92198
                        -----------------------------------------
Total Dipole Moment    :     -0.56855       0.39765       0.37637
                        -----------------------------------------
Magnitude (a.u.)       :      0.78932
Magnitude (Debye)      :      2.00629

Rotational constants in cm-1:     0.017621     0.009386     0.006405
Rotational constants in MHz :   528.257228   281.396850   192.026852

                             ****ORCA TERMINATED NORMALLY****
TOTAL RUN TIME: 0 days 0 hours 0 minutes 20 seconds 297 msec
