                         Program Version 4.2.1 -  RELEASE  -
|  1> ! wB97X-D3 SP def2-SVP
|  2> %pal
|  3> nprocs 24
|  4> end
|  5>
|  6> * xyz 0 1
|  7> S 	 -72.9356 	 -44.3337 	 -93.958
|  8> C 	 -73.0982 	 -42.5665 	 -94.042
|  9> C 	 -72.9508 	 -42.082 	 -95.3276
| 10> C 	 -73.0997 	 -43.0668 	 -96.309
| 11> C 	 -73.2254 	 -44.2935 	 -95.7269
| 12> H 	 -73.2429 	 -42.9829 	 -97.3547
| 13> C 	 -72.8273 	 -40.5894 	 -95.6549
| 14> H 	 -73.365 	 -40.0979 	 -94.8389
| 15> H 	 -73.3225 	 -40.2994 	 -96.5976
| 16> C 	 -71.4114 	 -40.1948 	 -95.5643
| 17> H 	 -71.4044 	 -39.1478 	 -95.7543
| 18> H 	 -71.0238 	 -40.3122 	 -94.5302
| 19> C 	 -70.5229 	 -40.8808 	 -96.6134
| 20> H 	 -69.5485 	 -40.3873 	 -96.6276
| 21> H 	 -70.395 	 -41.96 	 -96.4235
| 22> H 	 -70.8777 	 -40.6264 	 -97.646
| 23> S 	 -71.9135 	 -46.5865 	 -96.6212
| 24> C 	 -72.8099 	 -47.7154 	 -97.5653
| 25> C 	 -74.1088 	 -47.322 	 -97.857
| 26> C 	 -74.3944 	 -46.0761 	 -97.1806
| 27> C 	 -73.3179 	 -45.5091 	 -96.5398
| 28> H 	 -74.7067 	 -47.9799 	 -98.4384
| 29> C 	 -75.7718 	 -45.4241 	 -97.3152
| 30> H 	 -76.2672 	 -45.9295 	 -98.1101
| 31> H 	 -75.5623 	 -44.383 	 -97.6329
| 32> C 	 -76.6561 	 -45.4303 	 -96.0371
| 33> H 	 -77.614 	 -45.0549 	 -96.4411
| 34> H 	 -76.3855 	 -44.8323 	 -95.1315
| 35> C 	 -77.0048 	 -46.8625 	 -95.6408
| 36> H 	 -76.1483 	 -47.4113 	 -95.1877
| 37> H 	 -77.4656 	 -47.3914 	 -96.4549
| 38> H 	 -77.779 	 -46.9467 	 -94.861
| 39> H 	 -73.0643 	 -41.931 	 -93.1856
| 40> H 	 -72.5511 	 -48.7788 	 -97.7808
| 41> *
| 42>
| 43>                          ****END OF INPUT****

CARTESIAN COORDINATES (ANGSTROEM)
---------------------------------
  S    -72.935600  -44.333700  -93.958000
  C    -73.098200  -42.566500  -94.042000
  C    -72.950800  -42.082000  -95.327600
  C    -73.099700  -43.066800  -96.309000
  C    -73.225400  -44.293500  -95.726900
  H    -73.242900  -42.982900  -97.354700
  C    -72.827300  -40.589400  -95.654900
  H    -73.365000  -40.097900  -94.838900
  H    -73.322500  -40.299400  -96.597600
  C    -71.411400  -40.194800  -95.564300
  H    -71.404400  -39.147800  -95.754300
  H    -71.023800  -40.312200  -94.530200
  C    -70.522900  -40.880800  -96.613400
  H    -69.548500  -40.387300  -96.627600
  H    -70.395000  -41.960000  -96.423500
  H    -70.877700  -40.626400  -97.646000
  S    -71.913500  -46.586500  -96.621200
  C    -72.809900  -47.715400  -97.565300
  C    -74.108800  -47.322000  -97.857000
  C    -74.394400  -46.076100  -97.180600
  C    -73.317900  -45.509100  -96.539800
  H    -74.706700  -47.979900  -98.438400
  C    -75.771800  -45.424100  -97.315200
  H    -76.267200  -45.929500  -98.110100
  H    -75.562300  -44.383000  -97.632900
  C    -76.656100  -45.430300  -96.037100
  H    -77.614000  -45.054900  -96.441100
  H    -76.385500  -44.832300  -95.131500
  C    -77.004800  -46.862500  -95.640800
  H    -76.148300  -47.411300  -95.187700
  H    -77.465600  -47.391400  -96.454900
  H    -77.779000  -46.946700  -94.861000
  H    -73.064300  -41.931000  -93.185600
  H    -72.551100  -48.778800  -97.780800

 Total Charge           Charge          ....    0
 Multiplicity           Mult            ....    1
 Number of Electrons    NEL             ....  134
 Basis Dimension        Dim             ....  322

ORBITAL ENERGIES
----------------

  NO   OCC          E(Eh)            E(eV)
   0   2.0000     -88.969925     -2420.9947
   1   2.0000     -88.962373     -2420.7892
   2   2.0000     -10.326989      -281.0116
   3   2.0000     -10.318283      -280.7748
   4   2.0000     -10.314065      -280.6600
   5   2.0000     -10.313058      -280.6326
   6   2.0000     -10.299425      -280.2616
   7   2.0000     -10.298426      -280.2344
   8   2.0000     -10.289773      -279.9990
   9   2.0000     -10.289529      -279.9923
  10   2.0000     -10.289397      -279.9887
  11   2.0000     -10.289008      -279.9782
  12   2.0000     -10.287140      -279.9273
  13   2.0000     -10.281183      -279.7652
  14   2.0000     -10.279412      -279.7170
  15   2.0000     -10.271347      -279.4976
  16   2.0000      -8.083498      -219.9632
  17   2.0000      -8.077286      -219.7941
  18   2.0000      -6.041926      -164.4092
  19   2.0000      -6.038633      -164.3196
  20   2.0000      -6.035795      -164.2423
  21   2.0000      -6.033945      -164.1920
  22   2.0000      -6.031731      -164.1317
  23   2.0000      -6.028094      -164.0328
  24   2.0000      -1.004088       -27.3226
  25   2.0000      -0.982235       -26.7280
  26   2.0000      -0.918706       -24.9993
  27   2.0000      -0.903104       -24.5747
  28   2.0000      -0.865012       -23.5382
  29   2.0000      -0.849797       -23.1241
  30   2.0000      -0.843148       -22.9432
  31   2.0000      -0.812877       -22.1195
  32   2.0000      -0.782308       -21.2877
  33   2.0000      -0.767813       -20.8933
  34   2.0000      -0.704436       -19.1687
  35   2.0000      -0.696756       -18.9597
  36   2.0000      -0.682718       -18.5777
  37   2.0000      -0.656971       -17.8771
  38   2.0000      -0.644751       -17.5446
  39   2.0000      -0.613373       -16.6907
  40   2.0000      -0.585075       -15.9207
  41   2.0000      -0.578974       -15.7547
  42   2.0000      -0.553793       -15.0695
  43   2.0000      -0.551226       -14.9996
  44   2.0000      -0.541638       -14.7387
  45   2.0000      -0.532696       -14.4954
  46   2.0000      -0.514173       -13.9914
  47   2.0000      -0.511596       -13.9212
  48   2.0000      -0.496735       -13.5168
  49   2.0000      -0.490555       -13.3487
  50   2.0000      -0.483136       -13.1468
  51   2.0000      -0.477398       -12.9907
  52   2.0000      -0.468320       -12.7436
  53   2.0000      -0.463981       -12.6256
  54   2.0000      -0.456142       -12.4123
  55   2.0000      -0.452262       -12.3067
  56   2.0000      -0.440694       -11.9919
  57   2.0000      -0.433674       -11.8009
  58   2.0000      -0.430647       -11.7185
  59   2.0000      -0.426913       -11.6169
  60   2.0000      -0.422018       -11.4837
  61   2.0000      -0.413271       -11.2457
  62   2.0000      -0.400913       -10.9094
  63   2.0000      -0.340507        -9.2657
  64   2.0000      -0.328360        -8.9351
  65   2.0000      -0.323836        -8.8120
  66   2.0000      -0.297691        -8.1006
  67   0.0000       0.035464         0.9650
  68   0.0000       0.055498         1.5102
  69   0.0000       0.106849         2.9075
  70   0.0000       0.125035         3.4024
  71   0.0000       0.128395         3.4938

MULLIKEN ATOMIC CHARGES
-----------------------
   0 S :    0.113355
   1 C :   -0.103550
   2 C :   -0.087054
   3 C :    0.045823
   4 C :   -0.151559
   5 H :    0.010859
   6 C :    0.074826
   7 H :    0.019541
   8 H :    0.031219
   9 C :   -0.055232
  10 H :    0.016342
  11 H :    0.031484
  12 C :   -0.069994
  13 H :    0.029289
  14 H :    0.065023
  15 H :    0.026497
  16 S :    0.109552
  17 C :   -0.103510
  18 C :   -0.035038
  19 C :   -0.045869
  20 C :   -0.194577
  21 H :    0.008136
  22 C :    0.095747
  23 H :    0.005776
  24 H :    0.030792
  25 C :   -0.064950
  26 H :    0.024823
  27 H :    0.057685
  28 C :   -0.073093
  29 H :    0.048273
  30 H :    0.017293
  31 H :    0.023668
  32 H :    0.032347
  33 H :    0.066078
Sum of atomic charges:   -0.0000000

LOEWDIN ATOMIC CHARGES
----------------------
   0 S :    0.374753
   1 C :   -0.183253
   2 C :   -0.055934
   3 C :   -0.048184
   4 C :   -0.173618
   5 H :    0.032544
   6 C :   -0.031083
   7 H :    0.032230
   8 H :    0.029912
   9 C :   -0.043807
  10 H :    0.019385
  11 H :    0.027649
  12 C :   -0.070611
  13 H :    0.026887
  14 H :    0.031844
  15 H :    0.028479
  16 S :    0.400882
  17 C :   -0.199317
  18 C :   -0.074558
  19 C :   -0.054151
  20 C :   -0.204098
  21 H :    0.027293
  22 C :   -0.026283
  23 H :    0.024261
  24 H :    0.033542
  25 C :   -0.041288
  26 H :    0.027220
  27 H :    0.033640
  28 C :   -0.074000
  29 H :    0.029225
  30 H :    0.018803
  31 H :    0.024724
  32 H :    0.018528
  33 H :    0.038385

  Mayer bond orders larger than 0.100000
B(  0-S ,  1-C ) :   1.1194 B(  0-S ,  4-C ) :   1.1282 B(  1-C ,  2-C ) :   1.6402
B(  1-C , 32-H ) :   0.9665 B(  2-C ,  3-C ) :   1.2005 B(  2-C ,  6-C ) :   1.0088
B(  3-C ,  4-C ) :   1.6056 B(  3-C ,  5-H ) :   1.0037 B(  4-C , 20-C ) :   1.0367
B(  6-C ,  7-H ) :   0.9338 B(  6-C ,  8-H ) :   0.9493 B(  6-C ,  9-C ) :   1.0850
B(  9-C , 10-H ) :   0.9499 B(  9-C , 11-H ) :   0.9522 B(  9-C , 12-C ) :   1.0798
B( 12-C , 13-H ) :   0.9718 B( 12-C , 14-H ) :   0.9717 B( 12-C , 15-H ) :   0.9717
B( 16-S , 17-C ) :   1.1644 B( 16-S , 20-C ) :   1.1199 B( 17-C , 18-C ) :   1.6319
B( 17-C , 33-H ) :   0.9543 B( 18-C , 19-C ) :   1.2166 B( 18-C , 21-H ) :   0.9956
B( 19-C , 20-C ) :   1.6341 B( 19-C , 22-C ) :   1.0283 B( 22-C , 23-H ) :   0.9341
B( 22-C , 24-H ) :   0.9354 B( 22-C , 25-C ) :   1.0707 B( 25-C , 26-H ) :   0.9537
B( 25-C , 27-H ) :   0.9596 B( 25-C , 28-C ) :   1.0745 B( 28-C , 29-H ) :   0.9735
B( 28-C , 30-H ) :   0.9743 B( 28-C , 31-H ) :   0.9733

Dispersion correction           -0.015472365
FINAL SINGLE POINT ENERGY     -1339.869641270464

DIPOLE MOMENT
-------------
                                X             Y             Z
Electronic contribution:      9.34462     -12.41653       4.52071
Nuclear contribution   :     -9.64427      12.83004      -4.72835
                        -----------------------------------------
Total Dipole Moment    :     -0.29966       0.41351      -0.20764
                        -----------------------------------------
Magnitude (a.u.)       :      0.55127
Magnitude (Debye)      :      1.40122

Rotational constants in cm-1:     0.021426     0.008689     0.007607
Rotational constants in MHz :   642.337889   260.477965   228.065112

                             ****ORCA TERMINATED NORMALLY****
TOTAL RUN TIME: 0 days 0 hours 0 minutes 23 seconds 471 msec
