                         Program Version 4.2.1 -  RELEASE  -
|  1> ! wB97X-D3 SP def2-SVP
|  2> %pal
|  3> nprocs 24
|  4> end
|  5>
|  6> * xyz 0 1
|  7> S 	 -64.6845 	 11.5736 	 -75.4116
|  8> C 	 -64.0954 	 10.4535 	 -74.2737
|  9> C 	 -65.0614 	 9.84038 	 -73.4793
| 10> C 	 -66.3349 	 10.2618 	 -73.9735
| 11> C 	 -66.3088 	 11.1467 	 -75.0053
| 12> H 	 -67.2833 	 9.95702 	 -73.4993
| 13> C 	 -64.7605 	 8.97102 	 -72.3314
| 14> H 	 -65.2069 	 9.40115 	 -71.458
| 15> H 	 -63.7161 	 9.23492 	 -72.1416
| 16> C 	 -65.073 	 7.48629 	 -72.432
| 17> H 	 -64.7084 	 7.02188 	 -71.5418
| 18> H 	 -66.1113 	 7.18851 	 -72.5248
| 19> C 	 -64.339 	 6.79285 	 -73.6138
| 20> H 	 -64.2175 	 7.60878 	 -74.3867
| 21> H 	 -63.3372 	 6.54163 	 -73.2909
| 22> H 	 -64.7536 	 5.88346 	 -73.9922
| 23> S 	 -67.9002 	 13.3379 	 -75.7586
| 24> C 	 -69.0886 	 13.1147 	 -77.0788
| 25> C 	 -68.9863 	 11.8779 	 -77.6521
| 26> C 	 -68.0621 	 11.0669 	 -76.9515
| 27> C 	 -67.4806 	 11.6186 	 -75.8014
| 28> H 	 -69.6585 	 11.6466 	 -78.4722
| 29> C 	 -67.8714 	 9.67773 	 -77.5179
| 30> H 	 -66.9078 	 9.24707 	 -77.2692
| 31> H 	 -67.8055 	 9.69429 	 -78.6607
| 32> C 	 -68.9721 	 8.66654 	 -77.3436
| 33> H 	 -68.6447 	 7.84361 	 -77.9133
| 34> H 	 -69.9857 	 8.90451 	 -77.6854
| 35> C 	 -69.2357 	 8.23391 	 -75.8734
| 36> H 	 -69.7252 	 9.04829 	 -75.3671
| 37> H 	 -68.3934 	 7.752 	 -75.4438
| 38> H 	 -70.0131 	 7.43539 	 -75.7596
| 39> H 	 -62.9973 	 10.2064 	 -74.1759
| 40> H 	 -69.6639 	 13.8909 	 -77.5208
| 41> *
| 42>
| 43>                          ****END OF INPUT****

CARTESIAN COORDINATES (ANGSTROEM)
---------------------------------
  S    -64.684500   11.573600  -75.411600
  C    -64.095400   10.453500  -74.273700
  C    -65.061400    9.840380  -73.479300
  C    -66.334900   10.261800  -73.973500
  C    -66.308800   11.146700  -75.005300
  H    -67.283300    9.957020  -73.499300
  C    -64.760500    8.971020  -72.331400
  H    -65.206900    9.401150  -71.458000
  H    -63.716100    9.234920  -72.141600
  C    -65.073000    7.486290  -72.432000
  H    -64.708400    7.021880  -71.541800
  H    -66.111300    7.188510  -72.524800
  C    -64.339000    6.792850  -73.613800
  H    -64.217500    7.608780  -74.386700
  H    -63.337200    6.541630  -73.290900
  H    -64.753600    5.883460  -73.992200
  S    -67.900200   13.337900  -75.758600
  C    -69.088600   13.114700  -77.078800
  C    -68.986300   11.877900  -77.652100
  C    -68.062100   11.066900  -76.951500
  C    -67.480600   11.618600  -75.801400
  H    -69.658500   11.646600  -78.472200
  C    -67.871400    9.677730  -77.517900
  H    -66.907800    9.247070  -77.269200
  H    -67.805500    9.694290  -78.660700
  C    -68.972100    8.666540  -77.343600
  H    -68.644700    7.843610  -77.913300
  H    -69.985700    8.904510  -77.685400
  C    -69.235700    8.233910  -75.873400
  H    -69.725200    9.048290  -75.367100
  H    -68.393400    7.752000  -75.443800
  H    -70.013100    7.435390  -75.759600
  H    -62.997300   10.206400  -74.175900
  H    -69.663900   13.890900  -77.520800

 Total Charge           Charge          ....    0
 Multiplicity           Mult            ....    1
 Number of Electrons    NEL             ....  134
 Basis Dimension        Dim             ....  322

ORBITAL ENERGIES
----------------

  NO   OCC          E(Eh)            E(eV)
   0   2.0000     -88.967266     -2420.9224
   1   2.0000     -88.963474     -2420.8192
   2   2.0000     -10.330477      -281.1066
   3   2.0000     -10.325269      -280.9648
   4   2.0000     -10.317358      -280.7496
   5   2.0000     -10.314868      -280.6818
   6   2.0000     -10.304522      -280.4003
   7   2.0000     -10.297323      -280.2044
   8   2.0000     -10.291882      -280.0563
   9   2.0000     -10.291803      -280.0542
  10   2.0000     -10.290500      -280.0188
  11   2.0000     -10.289988      -280.0048
  12   2.0000     -10.284985      -279.8687
  13   2.0000     -10.280545      -279.7479
  14   2.0000     -10.273702      -279.5616
  15   2.0000     -10.269804      -279.4556
  16   2.0000      -8.083257      -219.9566
  17   2.0000      -8.077398      -219.7972
  18   2.0000      -6.041585      -164.3999
  19   2.0000      -6.037628      -164.2922
  20   2.0000      -6.035964      -164.2469
  21   2.0000      -6.034091      -164.1960
  22   2.0000      -6.032066      -164.1409
  23   2.0000      -6.028097      -164.0328
  24   2.0000      -1.009281       -27.4639
  25   2.0000      -0.985605       -26.8197
  26   2.0000      -0.917896       -24.9772
  27   2.0000      -0.907226       -24.6869
  28   2.0000      -0.866801       -23.5869
  29   2.0000      -0.850624       -23.1467
  30   2.0000      -0.842572       -22.9276
  31   2.0000      -0.818046       -22.2602
  32   2.0000      -0.784395       -21.3445
  33   2.0000      -0.773235       -21.0408
  34   2.0000      -0.711346       -19.3567
  35   2.0000      -0.695314       -18.9205
  36   2.0000      -0.687319       -18.7029
  37   2.0000      -0.656395       -17.8614
  38   2.0000      -0.640211       -17.4210
  39   2.0000      -0.622378       -16.9358
  40   2.0000      -0.600451       -16.3391
  41   2.0000      -0.574427       -15.6309
  42   2.0000      -0.557931       -15.1821
  43   2.0000      -0.545269       -14.8375
  44   2.0000      -0.544995       -14.8301
  45   2.0000      -0.537206       -14.6181
  46   2.0000      -0.520794       -14.1715
  47   2.0000      -0.516150       -14.0452
  48   2.0000      -0.495103       -13.4724
  49   2.0000      -0.492930       -13.4133
  50   2.0000      -0.484157       -13.1746
  51   2.0000      -0.471437       -12.8284
  52   2.0000      -0.469390       -12.7727
  53   2.0000      -0.466837       -12.7033
  54   2.0000      -0.456796       -12.4301
  55   2.0000      -0.451207       -12.2780
  56   2.0000      -0.445694       -12.1280
  57   2.0000      -0.444052       -12.0833
  58   2.0000      -0.425871       -11.5885
  59   2.0000      -0.419386       -11.4121
  60   2.0000      -0.416131       -11.3235
  61   2.0000      -0.412766       -11.2319
  62   2.0000      -0.404706       -11.0126
  63   2.0000      -0.337507        -9.1840
  64   2.0000      -0.332603        -9.0506
  65   2.0000      -0.325399        -8.8546
  66   2.0000      -0.304539        -8.2869
  67   0.0000       0.042821         1.1652
  68   0.0000       0.054773         1.4904
  69   0.0000       0.109413         2.9773
  70   0.0000       0.121000         3.2926
  71   0.0000       0.133081         3.6213

MULLIKEN ATOMIC CHARGES
-----------------------
   0 S :    0.143547
   1 C :   -0.150716
   2 C :   -0.128843
   3 C :    0.033359
   4 C :   -0.161340
   5 H :    0.017535
   6 C :    0.097618
   7 H :    0.025772
   8 H :    0.008767
   9 C :   -0.033741
  10 H :    0.022335
  11 H :    0.033566
  12 C :   -0.068697
  13 H :    0.043301
  14 H :    0.016908
  15 H :    0.032879
  16 S :    0.081086
  17 C :   -0.079598
  18 C :   -0.029450
  19 C :   -0.010257
  20 C :   -0.149340
  21 H :    0.029820
  22 C :    0.044596
  23 H :    0.023994
  24 H :    0.031938
  25 C :   -0.055099
  26 H :    0.016022
  27 H :    0.024755
  28 C :   -0.058016
  29 H :    0.039363
  30 H :    0.026209
  31 H :    0.019259
  32 H :    0.065835
  33 H :    0.046631
Sum of atomic charges:    0.0000000

LOEWDIN ATOMIC CHARGES
----------------------
   0 S :    0.437382
   1 C :   -0.217198
   2 C :   -0.072710
   3 C :   -0.054901
   4 C :   -0.212788
   5 H :    0.036251
   6 C :   -0.035116
   7 H :    0.035525
   8 H :    0.035948
   9 C :   -0.036478
  10 H :    0.022632
  11 H :    0.025094
  12 C :   -0.069363
  13 H :    0.032230
  14 H :    0.020373
  15 H :    0.020695
  16 S :    0.377196
  17 C :   -0.158888
  18 C :   -0.070429
  19 C :   -0.051051
  20 C :   -0.199932
  21 H :    0.038242
  22 C :   -0.036771
  23 H :    0.028578
  24 H :    0.042145
  25 C :   -0.038095
  26 H :    0.019034
  27 H :    0.023793
  28 C :   -0.070444
  29 H :    0.025318
  30 H :    0.017371
  31 H :    0.027391
  32 H :    0.035618
  33 H :    0.023348

  Mayer bond orders larger than 0.100000
B(  0-S ,  1-C ) :   1.1719 B(  0-S ,  4-C ) :   1.1477 B(  1-C ,  2-C ) :   1.5885
B(  1-C , 32-H ) :   0.9506 B(  2-C ,  3-C ) :   1.2439 B(  2-C ,  6-C ) :   1.0295
B(  3-C ,  4-C ) :   1.6025 B(  3-C ,  5-H ) :   0.9937 B(  4-C , 20-C ) :   1.0037
B(  6-C ,  7-H ) :   0.9259 B(  6-C ,  8-H ) :   0.9343 B(  6-C ,  9-C ) :   1.0641
B(  9-C , 10-H ) :   0.9566 B(  9-C , 11-H ) :   0.9617 B(  9-C , 12-C ) :   1.0618
B( 12-C , 13-H ) :   0.9787 B( 12-C , 14-H ) :   0.9767 B( 12-C , 15-H ) :   0.9777
B( 16-S , 17-C ) :   1.1559 B( 16-S , 20-C ) :   1.1207 B( 17-C , 18-C ) :   1.6223
B( 17-C , 33-H ) :   0.9667 B( 18-C , 19-C ) :   1.2290 B( 18-C , 21-H ) :   0.9933
B( 19-C , 20-C ) :   1.5989 B( 19-C , 22-C ) :   1.0458 B( 22-C , 23-H ) :   0.9346
B( 22-C , 24-H ) :   0.9368 B( 22-C , 25-C ) :   1.0754 B( 25-C , 26-H ) :   0.9519
B( 25-C , 27-H ) :   0.9587 B( 25-C , 28-C ) :   1.0783 B( 28-C , 29-H ) :   0.9748
B( 28-C , 30-H ) :   0.9750 B( 28-C , 31-H ) :   0.9721

Dispersion correction           -0.015213717
FINAL SINGLE POINT ENERGY     -1339.866294195750

DIPOLE MOMENT
-------------
                                X             Y             Z
Electronic contribution:      2.38514      28.23840      -4.34226
Nuclear contribution   :     -2.47262     -28.79454       4.28093
                        -----------------------------------------
Total Dipole Moment    :     -0.08747      -0.55614      -0.06133
                        -----------------------------------------
Magnitude (a.u.)       :      0.56631
Magnitude (Debye)      :      1.43945

Rotational constants in cm-1:     0.020097     0.009270     0.007220
Rotational constants in MHz :   602.494528   277.913857   216.465012

                             ****ORCA TERMINATED NORMALLY****
TOTAL RUN TIME: 0 days 0 hours 0 minutes 22 seconds 421 msec
