                         Program Version 4.2.1 -  RELEASE  -
|  1> ! wB97X-D3 SP def2-SVP
|  2> %pal
|  3> nprocs 24
|  4> end
|  5>
|  6> * xyz 0 1
|  7> S 	 -58.4276 	 9.66677 	 -84.7091
|  8> C 	 -59.643 	 10.1737 	 -85.7967
|  9> C 	 -60.1723 	 11.4001 	 -85.4479
| 10> C 	 -59.6814 	 11.7888 	 -84.174
| 11> C 	 -58.6148 	 11.0053 	 -83.6649
| 12> H 	 -59.8867 	 12.6468 	 -83.6203
| 13> C 	 -61.2446 	 12.1899 	 -86.1512
| 14> H 	 -61.251 	 13.1336 	 -85.6955
| 15> H 	 -62.203 	 11.7898 	 -85.8135
| 16> C 	 -60.9854 	 12.3858 	 -87.6731
| 17> H 	 -61.0787 	 11.3972 	 -88.1386
| 18> H 	 -61.8709 	 12.9444 	 -87.9987
| 19> C 	 -59.7203 	 13.1201 	 -88.1871
| 20> H 	 -59.6774 	 12.9613 	 -89.2934
| 21> H 	 -59.9072 	 14.1587 	 -88.0185
| 22> H 	 -58.72 	 12.8486 	 -87.7612
| 23> S 	 -57.5905 	 12.9708 	 -82.1278
| 24> C 	 -56.7335 	 12.5258 	 -80.6769
| 25> C 	 -56.9124 	 11.1742 	 -80.3825
| 26> C 	 -57.6337 	 10.468 	 -81.4117
| 27> C 	 -57.9182 	 11.3139 	 -82.4277
| 28> H 	 -56.5075 	 10.8148 	 -79.4952
| 29> C 	 -57.9911 	 9.02157 	 -81.2308
| 30> H 	 -57.4893 	 8.66969 	 -80.2871
| 31> H 	 -57.6571 	 8.38519 	 -82.1098
| 32> C 	 -59.5469 	 8.81342 	 -81.1018
| 33> H 	 -59.7683 	 7.73843 	 -80.9696
| 34> H 	 -60.0454 	 9.08479 	 -82.1042
| 35> C 	 -60.2371 	 9.60788 	 -79.9522
| 36> H 	 -61.3345 	 9.43779 	 -79.7884
| 37> H 	 -59.9622 	 10.6033 	 -79.9697
| 38> H 	 -59.7864 	 9.1509 	 -79.0551
| 39> H 	 -60.1005 	 9.5596 	 -86.5826
| 40> H 	 -56.407 	 13.2873 	 -79.9374
| 41> *
| 42>
| 43>                          ****END OF INPUT****

CARTESIAN COORDINATES (ANGSTROEM)
---------------------------------
  S    -58.427600    9.666770  -84.709100
  C    -59.643000   10.173700  -85.796700
  C    -60.172300   11.400100  -85.447900
  C    -59.681400   11.788800  -84.174000
  C    -58.614800   11.005300  -83.664900
  H    -59.886700   12.646800  -83.620300
  C    -61.244600   12.189900  -86.151200
  H    -61.251000   13.133600  -85.695500
  H    -62.203000   11.789800  -85.813500
  C    -60.985400   12.385800  -87.673100
  H    -61.078700   11.397200  -88.138600
  H    -61.870900   12.944400  -87.998700
  C    -59.720300   13.120100  -88.187100
  H    -59.677400   12.961300  -89.293400
  H    -59.907200   14.158700  -88.018500
  H    -58.720000   12.848600  -87.761200
  S    -57.590500   12.970800  -82.127800
  C    -56.733500   12.525800  -80.676900
  C    -56.912400   11.174200  -80.382500
  C    -57.633700   10.468000  -81.411700
  C    -57.918200   11.313900  -82.427700
  H    -56.507500   10.814800  -79.495200
  C    -57.991100    9.021570  -81.230800
  H    -57.489300    8.669690  -80.287100
  H    -57.657100    8.385190  -82.109800
  C    -59.546900    8.813420  -81.101800
  H    -59.768300    7.738430  -80.969600
  H    -60.045400    9.084790  -82.104200
  C    -60.237100    9.607880  -79.952200
  H    -61.334500    9.437790  -79.788400
  H    -59.962200   10.603300  -79.969700
  H    -59.786400    9.150900  -79.055100
  H    -60.100500    9.559600  -86.582600
  H    -56.407000   13.287300  -79.937400

 Total Charge           Charge          ....    0
 Multiplicity           Mult            ....    1
 Number of Electrons    NEL             ....  134
 Basis Dimension        Dim             ....  322

ORBITAL ENERGIES
----------------

  NO   OCC          E(Eh)            E(eV)
   0   2.0000     -88.967722     -2420.9348
   1   2.0000     -88.967318     -2420.9238
   2   2.0000     -10.323178      -280.9080
   3   2.0000     -10.320990      -280.8484
   4   2.0000     -10.318774      -280.7881
   5   2.0000     -10.308063      -280.4967
   6   2.0000     -10.303115      -280.3620
   7   2.0000     -10.299815      -280.2722
   8   2.0000     -10.295648      -280.1588
   9   2.0000     -10.292897      -280.0840
  10   2.0000     -10.292141      -280.0634
  11   2.0000     -10.291686      -280.0510
  12   2.0000     -10.288013      -279.9511
  13   2.0000     -10.284274      -279.8493
  14   2.0000     -10.283226      -279.8208
  15   2.0000     -10.272344      -279.5247
  16   2.0000      -8.082939      -219.9479
  17   2.0000      -8.082854      -219.9456
  18   2.0000      -6.041294      -164.3920
  19   2.0000      -6.041236      -164.3904
  20   2.0000      -6.037409      -164.2863
  21   2.0000      -6.037181      -164.2801
  22   2.0000      -6.034052      -164.1949
  23   2.0000      -6.033547      -164.1811
  24   2.0000      -1.014756       -27.6129
  25   2.0000      -0.991110       -26.9695
  26   2.0000      -0.909574       -24.7508
  27   2.0000      -0.902906       -24.5693
  28   2.0000      -0.869440       -23.6587
  29   2.0000      -0.851062       -23.1586
  30   2.0000      -0.843956       -22.9652
  31   2.0000      -0.808487       -22.0000
  32   2.0000      -0.785924       -21.3861
  33   2.0000      -0.775450       -21.1011
  34   2.0000      -0.706015       -19.2117
  35   2.0000      -0.701935       -19.1006
  36   2.0000      -0.681937       -18.5564
  37   2.0000      -0.671078       -18.2610
  38   2.0000      -0.641835       -17.4652
  39   2.0000      -0.601430       -16.3658
  40   2.0000      -0.588287       -16.0081
  41   2.0000      -0.577000       -15.7010
  42   2.0000      -0.551904       -15.0181
  43   2.0000      -0.548374       -14.9220
  44   2.0000      -0.545755       -14.8507
  45   2.0000      -0.536104       -14.5881
  46   2.0000      -0.514031       -13.9875
  47   2.0000      -0.510401       -13.8887
  48   2.0000      -0.497150       -13.5281
  49   2.0000      -0.493104       -13.4180
  50   2.0000      -0.485245       -13.2042
  51   2.0000      -0.480942       -13.0871
  52   2.0000      -0.474279       -12.9058
  53   2.0000      -0.467911       -12.7325
  54   2.0000      -0.464224       -12.6322
  55   2.0000      -0.450025       -12.2458
  56   2.0000      -0.444679       -12.1003
  57   2.0000      -0.439321       -11.9545
  58   2.0000      -0.429042       -11.6748
  59   2.0000      -0.423742       -11.5306
  60   2.0000      -0.417542       -11.3619
  61   2.0000      -0.412497       -11.2246
  62   2.0000      -0.405527       -11.0349
  63   2.0000      -0.346497        -9.4287
  64   2.0000      -0.332742        -9.0544
  65   2.0000      -0.329018        -8.9530
  66   2.0000      -0.288317        -7.8455
  67   0.0000       0.026939         0.7331
  68   0.0000       0.078119         2.1257
  69   0.0000       0.106790         2.9059
  70   0.0000       0.129233         3.5166
  71   0.0000       0.132702         3.6110

MULLIKEN ATOMIC CHARGES
-----------------------
   0 S :    0.128783
   1 C :   -0.143411
   2 C :   -0.097062
   3 C :    0.010840
   4 C :   -0.160848
   5 H :   -0.016611
   6 C :    0.117627
   7 H :   -0.006618
   8 H :    0.041314
   9 C :   -0.093647
  10 H :    0.026775
  11 H :    0.028635
  12 C :   -0.054352
  13 H :    0.042694
  14 H :    0.030000
  15 H :    0.058821
  16 S :    0.113168
  17 C :   -0.105885
  18 C :   -0.023048
  19 C :   -0.040021
  20 C :   -0.142846
  21 H :   -0.005696
  22 C :    0.051911
  23 H :    0.030969
  24 H :    0.053193
  25 C :   -0.116621
  26 H :    0.033608
  27 H :    0.052276
  28 C :   -0.038827
  29 H :    0.047360
  30 H :    0.035576
  31 H :    0.012995
  32 H :    0.057596
  33 H :    0.071353
Sum of atomic charges:    0.0000000

LOEWDIN ATOMIC CHARGES
----------------------
   0 S :    0.450764
   1 C :   -0.223644
   2 C :   -0.063774
   3 C :   -0.069163
   4 C :   -0.210360
   5 H :    0.008682
   6 C :   -0.030860
   7 H :    0.021571
   8 H :    0.039479
   9 C :   -0.041167
  10 H :    0.019080
  11 H :    0.027454
  12 C :   -0.067073
  13 H :    0.035549
  14 H :    0.021909
  15 H :    0.034401
  16 S :    0.428979
  17 C :   -0.196018
  18 C :   -0.057245
  19 C :   -0.063360
  20 C :   -0.201689
  21 H :    0.019375
  22 C :   -0.036495
  23 H :    0.034341
  24 H :    0.038906
  25 C :   -0.045998
  26 H :    0.023087
  27 H :    0.027716
  28 C :   -0.067154
  29 H :    0.034773
  30 H :    0.013965
  31 H :    0.024368
  32 H :    0.033970
  33 H :    0.035631

  Mayer bond orders larger than 0.100000
B(  0-S ,  1-C ) :   1.1613 B(  0-S ,  4-C ) :   1.1757 B(  1-C ,  2-C ) :   1.5609
B(  1-C , 32-H ) :   0.9660 B(  2-C ,  3-C ) :   1.2875 B(  2-C ,  6-C ) :   1.0161
B(  3-C ,  4-C ) :   1.5210 B(  3-C ,  5-H ) :   0.9923 B(  4-C , 20-C ) :   1.0457
B(  6-C ,  7-H ) :   0.9312 B(  6-C ,  8-H ) :   0.9344 B(  6-C ,  9-C ) :   1.0644
B(  9-C , 10-H ) :   0.9613 B(  9-C , 11-H ) :   0.9568 B(  9-C , 12-C ) :   1.0676
B( 12-C , 13-H ) :   0.9734 B( 12-C , 14-H ) :   0.9767 B( 12-C , 15-H ) :   0.9757
B( 16-S , 17-C ) :   1.1498 B( 16-S , 20-C ) :   1.1542 B( 17-C , 18-C ) :   1.6148
B( 17-C , 33-H ) :   0.9614 B( 18-C , 19-C ) :   1.2236 B( 18-C , 21-H ) :   0.9999
B( 19-C , 20-C ) :   1.5835 B( 19-C , 22-C ) :   1.0428 B( 22-C , 23-H ) :   0.9379
B( 22-C , 24-H ) :   0.9313 B( 22-C , 25-C ) :   1.0583 B( 25-C , 26-H ) :   0.9613
B( 25-C , 27-H ) :   0.9551 B( 25-C , 28-C ) :   1.0578 B( 28-C , 29-H ) :   0.9756
B( 28-C , 30-H ) :   0.9783 B( 28-C , 31-H ) :   0.9741

Dispersion correction           -0.015374025
FINAL SINGLE POINT ENERGY     -1339.874456706970

DIPOLE MOMENT
-------------
                                X             Y             Z
Electronic contribution:     13.21934       1.69310       4.24057
Nuclear contribution   :    -13.63559      -1.65717      -4.10586
                        -----------------------------------------
Total Dipole Moment    :     -0.41626       0.03593       0.13471
                        -----------------------------------------
Magnitude (a.u.)       :      0.43899
Magnitude (Debye)      :      1.11582

Rotational constants in cm-1:     0.023474     0.008319     0.007203
Rotational constants in MHz :   703.724861   249.390432   215.925535

                             ****ORCA TERMINATED NORMALLY****
TOTAL RUN TIME: 0 days 0 hours 0 minutes 24 seconds 286 msec
