                         Program Version 4.2.1 -  RELEASE  -
|  1> ! wB97X-D3 SP def2-SVP
|  2> %pal
|  3> nprocs 24
|  4> end
|  5>
|  6> * xyz 0 1
|  7> S 	 -124.047 	 64.2413 	 -43.5455
|  8> C 	 -122.791 	 63.9066 	 -44.7409
|  9> C 	 -121.807 	 64.8738 	 -44.6739
| 10> C 	 -121.993 	 65.7181 	 -43.5264
| 11> C 	 -123.202 	 65.5669 	 -42.8073
| 12> H 	 -121.249 	 66.46 	 -43.2404
| 13> C 	 -120.583 	 64.9962 	 -45.5147
| 14> H 	 -120.233 	 63.963 	 -45.661
| 15> H 	 -119.831 	 65.4557 	 -44.9049
| 16> C 	 -120.593 	 65.5842 	 -46.9835
| 17> H 	 -119.566 	 65.4797 	 -47.4173
| 18> H 	 -121.197 	 64.93 	 -47.6291
| 19> C 	 -121.003 	 67.03 	 -47.0262
| 20> H 	 -121.316 	 67.297 	 -48.0612
| 21> H 	 -121.99 	 67.1676 	 -46.5882
| 22> H 	 -120.309 	 67.777 	 -46.6464
| 23> S 	 -123.821 	 65.0959 	 -40.2489
| 24> C 	 -124.326 	 66.4152 	 -39.2711
| 25> C 	 -123.914 	 67.5715 	 -39.7723
| 26> C 	 -123.424 	 67.4976 	 -41.1059
| 27> C 	 -123.513 	 66.2218 	 -41.5755
| 28> H 	 -123.971 	 68.4017 	 -39.0642
| 29> C 	 -123.129 	 68.8561 	 -41.7974
| 30> H 	 -122.355 	 68.7868 	 -42.5494
| 31> H 	 -122.826 	 69.5064 	 -40.9666
| 32> C 	 -124.338 	 69.5539 	 -42.5358
| 33> H 	 -125.158 	 69.6845 	 -41.8307
| 34> H 	 -124.761 	 68.982 	 -43.3752
| 35> C 	 -123.943 	 70.9323 	 -43.1149
| 36> H 	 -123.223 	 70.7881 	 -43.9095
| 37> H 	 -123.695 	 71.6294 	 -42.262
| 38> H 	 -124.859 	 71.3085 	 -43.5548
| 39> H 	 -122.792 	 62.9716 	 -45.3299
| 40> H 	 -124.676 	 66.2982 	 -38.2451
| 41> *
| 42>
| 43>                          ****END OF INPUT****

CARTESIAN COORDINATES (ANGSTROEM)
---------------------------------
  S    -124.047000   64.241300  -43.545500
  C    -122.791000   63.906600  -44.740900
  C    -121.807000   64.873800  -44.673900
  C    -121.993000   65.718100  -43.526400
  C    -123.202000   65.566900  -42.807300
  H    -121.249000   66.460000  -43.240400
  C    -120.583000   64.996200  -45.514700
  H    -120.233000   63.963000  -45.661000
  H    -119.831000   65.455700  -44.904900
  C    -120.593000   65.584200  -46.983500
  H    -119.566000   65.479700  -47.417300
  H    -121.197000   64.930000  -47.629100
  C    -121.003000   67.030000  -47.026200
  H    -121.316000   67.297000  -48.061200
  H    -121.990000   67.167600  -46.588200
  H    -120.309000   67.777000  -46.646400
  S    -123.821000   65.095900  -40.248900
  C    -124.326000   66.415200  -39.271100
  C    -123.914000   67.571500  -39.772300
  C    -123.424000   67.497600  -41.105900
  C    -123.513000   66.221800  -41.575500
  H    -123.971000   68.401700  -39.064200
  C    -123.129000   68.856100  -41.797400
  H    -122.355000   68.786800  -42.549400
  H    -122.826000   69.506400  -40.966600
  C    -124.338000   69.553900  -42.535800
  H    -125.158000   69.684500  -41.830700
  H    -124.761000   68.982000  -43.375200
  C    -123.943000   70.932300  -43.114900
  H    -123.223000   70.788100  -43.909500
  H    -123.695000   71.629400  -42.262000
  H    -124.859000   71.308500  -43.554800
  H    -122.792000   62.971600  -45.329900
  H    -124.676000   66.298200  -38.245100

 Total Charge           Charge          ....    0
 Multiplicity           Mult            ....    1
 Number of Electrons    NEL             ....  134
 Basis Dimension        Dim             ....  322

ORBITAL ENERGIES
----------------

  NO   OCC          E(Eh)            E(eV)
   0   2.0000     -88.965697     -2420.8797
   1   2.0000     -88.957739     -2420.6632
   2   2.0000     -10.328061      -281.0408
   3   2.0000     -10.324550      -280.9453
   4   2.0000     -10.318974      -280.7935
   5   2.0000     -10.305930      -280.4386
   6   2.0000     -10.304156      -280.3903
   7   2.0000     -10.301490      -280.3178
   8   2.0000     -10.297671      -280.2139
   9   2.0000     -10.295560      -280.1564
  10   2.0000     -10.293977      -280.1134
  11   2.0000     -10.290440      -280.0171
  12   2.0000     -10.287171      -279.9281
  13   2.0000     -10.284957      -279.8679
  14   2.0000     -10.281013      -279.7606
  15   2.0000     -10.276185      -279.6292
  16   2.0000      -8.080186      -219.8730
  17   2.0000      -8.073656      -219.6954
  18   2.0000      -6.038705      -164.3215
  19   2.0000      -6.034519      -164.2076
  20   2.0000      -6.032149      -164.1431
  21   2.0000      -6.031122      -164.1152
  22   2.0000      -6.028273      -164.0376
  23   2.0000      -6.024052      -163.9228
  24   2.0000      -1.011925       -27.5359
  25   2.0000      -0.986599       -26.8467
  26   2.0000      -0.909703       -24.7543
  27   2.0000      -0.900984       -24.5170
  28   2.0000      -0.874290       -23.7906
  29   2.0000      -0.851779       -23.1781
  30   2.0000      -0.845923       -23.0187
  31   2.0000      -0.811253       -22.0753
  32   2.0000      -0.781930       -21.2774
  33   2.0000      -0.774276       -21.0691
  34   2.0000      -0.707077       -19.2406
  35   2.0000      -0.703838       -19.1524
  36   2.0000      -0.689028       -18.7494
  37   2.0000      -0.659882       -17.9563
  38   2.0000      -0.636023       -17.3071
  39   2.0000      -0.613725       -16.7003
  40   2.0000      -0.595007       -16.1910
  41   2.0000      -0.571579       -15.5535
  42   2.0000      -0.565004       -15.3745
  43   2.0000      -0.547816       -14.9068
  44   2.0000      -0.540435       -14.7060
  45   2.0000      -0.519121       -14.1260
  46   2.0000      -0.516876       -14.0649
  47   2.0000      -0.510571       -13.8933
  48   2.0000      -0.509410       -13.8618
  49   2.0000      -0.501150       -13.6370
  50   2.0000      -0.487132       -13.2555
  51   2.0000      -0.481226       -13.0948
  52   2.0000      -0.475905       -12.9500
  53   2.0000      -0.465750       -12.6737
  54   2.0000      -0.459199       -12.4954
  55   2.0000      -0.442016       -12.0279
  56   2.0000      -0.437569       -11.9069
  57   2.0000      -0.432270       -11.7627
  58   2.0000      -0.428891       -11.6707
  59   2.0000      -0.426536       -11.6066
  60   2.0000      -0.421582       -11.4718
  61   2.0000      -0.416107       -11.3228
  62   2.0000      -0.413813       -11.2604
  63   2.0000      -0.343504        -9.3472
  64   2.0000      -0.331071        -9.0089
  65   2.0000      -0.323031        -8.7901
  66   2.0000      -0.293320        -7.9816
  67   0.0000       0.023343         0.6352
  68   0.0000       0.075679         2.0593
  69   0.0000       0.105912         2.8820
  70   0.0000       0.121532         3.3071
  71   0.0000       0.127591         3.4719

MULLIKEN ATOMIC CHARGES
-----------------------
   0 S :    0.111244
   1 C :   -0.154724
   2 C :   -0.061924
   3 C :    0.008773
   4 C :   -0.147329
   5 H :    0.013489
   6 C :    0.052294
   7 H :    0.024453
   8 H :    0.015767
   9 C :   -0.055824
  10 H :    0.034974
  11 H :    0.027623
  12 C :   -0.052403
  13 H :    0.023625
  14 H :    0.029611
  15 H :    0.042517
  16 S :    0.094710
  17 C :   -0.079722
  18 C :   -0.061536
  19 C :    0.016533
  20 C :   -0.169263
  21 H :    0.019252
  22 C :    0.078514
  23 H :    0.014986
  24 H :    0.024356
  25 C :   -0.094065
  26 H :    0.022123
  27 H :    0.038164
  28 C :   -0.051260
  29 H :    0.040432
  30 H :    0.042735
  31 H :    0.030699
  32 H :    0.068226
  33 H :    0.052952
Sum of atomic charges:   -0.0000000

LOEWDIN ATOMIC CHARGES
----------------------
   0 S :    0.411359
   1 C :   -0.195566
   2 C :   -0.069974
   3 C :   -0.060154
   4 C :   -0.214236
   5 H :    0.027306
   6 C :   -0.037054
   7 H :    0.035369
   8 H :    0.026387
   9 C :   -0.038109
  10 H :    0.030597
  11 H :    0.025581
  12 C :   -0.078336
  13 H :    0.031118
  14 H :    0.027871
  15 H :    0.026524
  16 S :    0.400854
  17 C :   -0.187680
  18 C :   -0.080112
  19 C :   -0.054257
  20 C :   -0.184082
  21 H :    0.035255
  22 C :   -0.024614
  23 H :    0.022740
  24 H :    0.032876
  25 C :   -0.038920
  26 H :    0.019387
  27 H :    0.026900
  28 C :   -0.066529
  29 H :    0.024133
  30 H :    0.031490
  31 H :    0.026812
  32 H :    0.036705
  33 H :    0.030359

  Mayer bond orders larger than 0.100000
B(  0-S ,  1-C ) :   1.1500 B(  0-S ,  4-C ) :   1.1563 B(  1-C ,  2-C ) :   1.5638
B(  1-C , 32-H ) :   0.9688 B(  2-C ,  3-C ) :   1.2744 B(  2-C ,  6-C ) :   1.0248
B(  3-C ,  4-C ) :   1.5299 B(  3-C ,  5-H ) :   0.9882 B(  4-C , 20-C ) :   1.0769
B(  6-C ,  7-H ) :   0.9359 B(  6-C ,  8-H ) :   0.9433 B(  6-C ,  9-C ) :   1.0669
B(  9-C , 10-H ) :   0.9528 B(  9-C , 11-H ) :   0.9550 B(  9-C , 12-C ) :   1.0848
B( 12-C , 13-H ) :   0.9684 B( 12-C , 14-H ) :   0.9709 B( 12-C , 15-H ) :   0.9760
B( 16-S , 17-C ) :   1.1361 B( 16-S , 20-C ) :   1.1412 B( 17-C , 18-C ) :   1.6652
B( 17-C , 33-H ) :   0.9624 B( 18-C , 19-C ) :   1.1900 B( 18-C , 21-H ) :   0.9876
B( 19-C , 20-C ) :   1.6170 B( 19-C , 22-C ) :   1.0439 B( 22-C , 23-H ) :   0.9364
B( 22-C , 24-H ) :   0.9348 B( 22-C , 25-C ) :   1.0641 B( 25-C , 26-H ) :   0.9564
B( 25-C , 27-H ) :   0.9576 B( 25-C , 28-C ) :   1.0836 B( 28-C , 29-H ) :   0.9760
B( 28-C , 30-H ) :   0.9748 B( 28-C , 31-H ) :   0.9728

Dispersion correction           -0.013640962
FINAL SINGLE POINT ENERGY     -1339.868233853628

DIPOLE MOMENT
-------------
                                X             Y             Z
Electronic contribution:     -9.63536     -21.86882      17.66110
Nuclear contribution   :      9.99953      22.30218     -17.84447
                        -----------------------------------------
Total Dipole Moment    :      0.36416       0.43336      -0.18337
                        -----------------------------------------
Magnitude (a.u.)       :      0.59501
Magnitude (Debye)      :      1.51240

Rotational constants in cm-1:     0.016708     0.009317     0.006609
Rotational constants in MHz :   500.899089   279.320451   198.133884

                             ****ORCA TERMINATED NORMALLY****
TOTAL RUN TIME: 0 days 0 hours 0 minutes 21 seconds 417 msec
