                         Program Version 4.2.1 -  RELEASE  -
|  1> ! wB97X-D3 SP def2-SVP
|  2> %pal
|  3> nprocs 24
|  4> end
|  5>
|  6> * xyz 0 1
|  7> S 	 -35.5672 	 14.9469 	 16.1117
|  8> C 	 -33.9537 	 15.2331 	 16.6779
|  9> C 	 -33.0242 	 15.3629 	 15.6641
| 10> C 	 -33.6062 	 15.3853 	 14.3762
| 11> C 	 -34.9682 	 15.0294 	 14.4442
| 12> H 	 -33.0059 	 15.5691 	 13.4663
| 13> C 	 -31.5729 	 15.5586 	 16.0201
| 14> H 	 -31.2857 	 14.7308 	 16.6997
| 15> H 	 -31.3495 	 16.5002 	 16.5292
| 16> C 	 -30.5027 	 15.4074 	 14.9149
| 17> H 	 -30.6084 	 14.4931 	 14.4083
| 18> H 	 -30.4874 	 16.285 	 14.2101
| 19> C 	 -29.1306 	 15.461 	 15.4562
| 20> H 	 -28.8169 	 14.543 	 15.9531
| 21> H 	 -28.3785 	 15.7072 	 14.6453
| 22> H 	 -28.8913 	 16.192 	 16.202
| 23> S 	 -36.8857 	 13.4273 	 13.2577
| 24> C 	 -37.1948 	 13.6107 	 11.5656
| 25> C 	 -36.5682 	 14.7891 	 11.1088
| 26> C 	 -35.9486 	 15.6028 	 12.1499
| 27> C 	 -35.8345 	 14.7892 	 13.2979
| 28> H 	 -36.4966 	 15.0074 	 10.0393
| 29> C 	 -35.1275 	 16.8551 	 11.8055
| 30> H 	 -34.6406 	 17.0578 	 12.7489
| 31> H 	 -35.7581 	 17.7127 	 11.6752
| 32> C 	 -33.9916 	 16.5985 	 10.8044
| 33> H 	 -34.4776 	 16.3612 	 9.77372
| 34> H 	 -33.3354 	 15.8681 	 11.2768
| 35> C 	 -33.0611 	 17.7997 	 10.8485
| 36> H 	 -32.5272 	 17.9229 	 11.7743
| 37> H 	 -33.5492 	 18.7115 	 10.6389
| 38> H 	 -32.4349 	 17.6 	 9.9463
| 39> H 	 -33.7681 	 15.268 	 17.7569
| 40> H 	 -37.7764 	 12.9932 	 10.91
| 41> *
| 42>
| 43>                          ****END OF INPUT****

CARTESIAN COORDINATES (ANGSTROEM)
---------------------------------
  S    -35.567200   14.946900   16.111700
  C    -33.953700   15.233100   16.677900
  C    -33.024200   15.362900   15.664100
  C    -33.606200   15.385300   14.376200
  C    -34.968200   15.029400   14.444200
  H    -33.005900   15.569100   13.466300
  C    -31.572900   15.558600   16.020100
  H    -31.285700   14.730800   16.699700
  H    -31.349500   16.500200   16.529200
  C    -30.502700   15.407400   14.914900
  H    -30.608400   14.493100   14.408300
  H    -30.487400   16.285000   14.210100
  C    -29.130600   15.461000   15.456200
  H    -28.816900   14.543000   15.953100
  H    -28.378500   15.707200   14.645300
  H    -28.891300   16.192000   16.202000
  S    -36.885700   13.427300   13.257700
  C    -37.194800   13.610700   11.565600
  C    -36.568200   14.789100   11.108800
  C    -35.948600   15.602800   12.149900
  C    -35.834500   14.789200   13.297900
  H    -36.496600   15.007400   10.039300
  C    -35.127500   16.855100   11.805500
  H    -34.640600   17.057800   12.748900
  H    -35.758100   17.712700   11.675200
  C    -33.991600   16.598500   10.804400
  H    -34.477600   16.361200    9.773720
  H    -33.335400   15.868100   11.276800
  C    -33.061100   17.799700   10.848500
  H    -32.527200   17.922900   11.774300
  H    -33.549200   18.711500   10.638900
  H    -32.434900   17.600000    9.946300
  H    -33.768100   15.268000   17.756900
  H    -37.776400   12.993200   10.910000

 Total Charge           Charge          ....    0
 Multiplicity           Mult            ....    1
 Number of Electrons    NEL             ....  134
 Basis Dimension        Dim             ....  322

ORBITAL ENERGIES
----------------

  NO   OCC          E(Eh)            E(eV)
   0   2.0000     -88.970124     -2421.0001
   1   2.0000     -88.965299     -2420.8689
   2   2.0000     -10.334007      -281.2026
   3   2.0000     -10.324398      -280.9412
   4   2.0000     -10.313397      -280.6418
   5   2.0000     -10.311759      -280.5972
   6   2.0000     -10.302622      -280.3486
   7   2.0000     -10.302435      -280.3435
   8   2.0000     -10.300464      -280.2899
   9   2.0000     -10.296477      -280.1814
  10   2.0000     -10.294859      -280.1374
  11   2.0000     -10.294782      -280.1352
  12   2.0000     -10.286257      -279.9033
  13   2.0000     -10.284922      -279.8670
  14   2.0000     -10.277196      -279.6567
  15   2.0000     -10.276458      -279.6366
  16   2.0000      -8.084681      -219.9954
  17   2.0000      -8.080603      -219.8844
  18   2.0000      -6.043064      -164.4401
  19   2.0000      -6.039251      -164.3364
  20   2.0000      -6.039096      -164.3322
  21   2.0000      -6.035570      -164.2362
  22   2.0000      -6.034951      -164.2194
  23   2.0000      -6.031438      -164.1238
  24   2.0000      -1.005462       -27.3600
  25   2.0000      -0.982815       -26.7437
  26   2.0000      -0.917647       -24.9705
  27   2.0000      -0.914652       -24.8889
  28   2.0000      -0.869150       -23.6508
  29   2.0000      -0.856801       -23.3147
  30   2.0000      -0.847066       -23.0498
  31   2.0000      -0.812404       -22.1066
  32   2.0000      -0.781249       -21.2589
  33   2.0000      -0.767057       -20.8727
  34   2.0000      -0.709061       -19.2945
  35   2.0000      -0.696973       -18.9656
  36   2.0000      -0.687978       -18.7208
  37   2.0000      -0.655715       -17.8429
  38   2.0000      -0.636649       -17.3241
  39   2.0000      -0.625013       -17.0075
  40   2.0000      -0.591719       -16.1015
  41   2.0000      -0.582519       -15.8511
  42   2.0000      -0.577948       -15.7268
  43   2.0000      -0.561417       -15.2769
  44   2.0000      -0.531385       -14.4597
  45   2.0000      -0.520328       -14.1589
  46   2.0000      -0.512844       -13.9552
  47   2.0000      -0.511847       -13.9281
  48   2.0000      -0.505736       -13.7618
  49   2.0000      -0.497819       -13.5463
  50   2.0000      -0.490698       -13.3526
  51   2.0000      -0.481900       -13.1132
  52   2.0000      -0.480129       -13.0650
  53   2.0000      -0.469622       -12.7791
  54   2.0000      -0.459114       -12.4931
  55   2.0000      -0.455080       -12.3834
  56   2.0000      -0.440115       -11.9761
  57   2.0000      -0.433387       -11.7931
  58   2.0000      -0.431477       -11.7411
  59   2.0000      -0.422781       -11.5044
  60   2.0000      -0.420837       -11.4516
  61   2.0000      -0.414222       -11.2716
  62   2.0000      -0.412130       -11.2146
  63   2.0000      -0.344292        -9.3687
  64   2.0000      -0.333559        -9.0766
  65   2.0000      -0.325175        -8.8485
  66   2.0000      -0.283454        -7.7132
  67   0.0000       0.026462         0.7201
  68   0.0000       0.070032         1.9057
  69   0.0000       0.110312         3.0017
  70   0.0000       0.118239         3.2175
  71   0.0000       0.122820         3.3421

MULLIKEN ATOMIC CHARGES
-----------------------
   0 S :    0.123758
   1 C :   -0.139769
   2 C :   -0.047811
   3 C :    0.011233
   4 C :   -0.139624
   5 H :    0.016432
   6 C :    0.021964
   7 H :    0.035762
   8 H :    0.043071
   9 C :   -0.068429
  10 H :    0.030569
  11 H :    0.033523
  12 C :   -0.063209
  13 H :    0.024655
  14 H :    0.036970
  15 H :    0.016393
  16 S :    0.124803
  17 C :   -0.085252
  18 C :   -0.064306
  19 C :   -0.033656
  20 C :   -0.162760
  21 H :    0.025540
  22 C :    0.069114
  23 H :    0.001120
  24 H :    0.030259
  25 C :   -0.106936
  26 H :    0.057948
  27 H :    0.041333
  28 C :   -0.027323
  29 H :    0.038797
  30 H :    0.014589
  31 H :    0.037676
  32 H :    0.053396
  33 H :    0.050169
Sum of atomic charges:   -0.0000000

LOEWDIN ATOMIC CHARGES
----------------------
   0 S :    0.410172
   1 C :   -0.201186
   2 C :   -0.069047
   3 C :   -0.062347
   4 C :   -0.181870
   5 H :    0.036931
   6 C :   -0.035722
   7 H :    0.038479
   8 H :    0.033710
   9 C :   -0.047142
  10 H :    0.021305
  11 H :    0.027780
  12 C :   -0.070741
  13 H :    0.021882
  14 H :    0.034717
  15 H :    0.019715
  16 S :    0.425527
  17 C :   -0.204093
  18 C :   -0.068871
  19 C :   -0.054410
  20 C :   -0.211932
  21 H :    0.027414
  22 C :   -0.039095
  23 H :    0.026336
  24 H :    0.028746
  25 C :   -0.040613
  26 H :    0.036129
  27 H :    0.028663
  28 C :   -0.061453
  29 H :    0.024139
  30 H :    0.015017
  31 H :    0.035193
  32 H :    0.028486
  33 H :    0.028182

  Mayer bond orders larger than 0.100000
B(  0-S ,  1-C ) :   1.1449 B(  0-S ,  4-C ) :   1.1696 B(  1-C ,  2-C ) :   1.5915
B(  1-C ,  4-C ) :   0.1033 B(  1-C , 32-H ) :   0.9719 B(  2-C ,  3-C ) :   1.2904
B(  2-C ,  6-C ) :   1.0032 B(  3-C ,  4-C ) :   1.5163 B(  3-C ,  5-H ) :   0.9808
B(  4-C , 20-C ) :   1.0582 B(  6-C ,  7-H ) :   0.9470 B(  6-C ,  8-H ) :   0.9403
B(  6-C ,  9-C ) :   1.0840 B(  9-C , 10-H ) :   0.9531 B(  9-C , 11-H ) :   0.9484
B(  9-C , 12-C ) :   1.0910 B( 12-C , 13-H ) :   0.9711 B( 12-C , 14-H ) :   0.9728
B( 12-C , 15-H ) :   0.9704 B( 16-S , 17-C ) :   1.1442 B( 16-S , 20-C ) :   1.1612
B( 17-C , 18-C ) :   1.6110 B( 17-C , 33-H ) :   0.9735 B( 18-C , 19-C ) :   1.2298
B( 18-C , 21-H ) :   0.9823 B( 19-C , 20-C ) :   1.5442 B( 19-C , 22-C ) :   1.0509
B( 22-C , 23-H ) :   0.9302 B( 22-C , 24-H ) :   0.9276 B( 22-C , 25-C ) :   1.0615
B( 25-C , 26-H ) :   0.9510 B( 25-C , 27-H ) :   0.9519 B( 25-C , 28-C ) :   1.0765
B( 28-C , 29-H ) :   0.9746 B( 28-C , 30-H ) :   0.9722 B( 28-C , 31-H ) :   0.9727

Dispersion correction           -0.014290745
FINAL SINGLE POINT ENERGY     -1339.856181963410

DIPOLE MOMENT
-------------
                                X             Y             Z
Electronic contribution:    -29.07330     -13.31539       8.86027
Nuclear contribution   :     29.74929      13.63312      -9.06462
                        -----------------------------------------
Total Dipole Moment    :      0.67598       0.31774      -0.20435
                        -----------------------------------------
Magnitude (a.u.)       :      0.77438
Magnitude (Debye)      :      1.96833

Rotational constants in cm-1:     0.016966     0.009410     0.006788
Rotational constants in MHz :   508.637770   282.112667   203.506174

                             ****ORCA TERMINATED NORMALLY****
TOTAL RUN TIME: 0 days 0 hours 0 minutes 20 seconds 948 msec
