                         Program Version 4.2.1 -  RELEASE  -
|  1> ! wB97X-D3 SP def2-SVP
|  2> %pal
|  3> nprocs 24
|  4> end
|  5>
|  6> * xyz 0 1
|  7> S 	 -45.82 	 18.5141 	 24.6867
|  8> C 	 -46.1789 	 17.4885 	 23.3132
|  9> C 	 -46.8392 	 16.3485 	 23.6614
| 10> C 	 -47.0657 	 16.2802 	 25.1066
| 11> C 	 -46.5356 	 17.3458 	 25.7884
| 12> H 	 -47.6656 	 15.5531 	 25.6133
| 13> C 	 -47.1584 	 15.2472 	 22.6527
| 14> H 	 -47.1112 	 15.6778 	 21.664
| 15> H 	 -48.1461 	 14.8654 	 22.7747
| 16> C 	 -46.1357 	 14.0856 	 22.6993
| 17> H 	 -46.3487 	 13.6628 	 23.6215
| 18> H 	 -46.349 	 13.4689 	 21.7949
| 19> C 	 -44.6162 	 14.3889 	 22.5644
| 20> H 	 -44.3175 	 14.898 	 21.6914
| 21> H 	 -44.373 	 15.0805 	 23.2904
| 22> H 	 -43.9927 	 13.4807 	 22.7244
| 23> S 	 -47.1417 	 19.1078 	 27.8245
| 24> C 	 -47.1751 	 18.5464 	 29.4447
| 25> C 	 -46.7135 	 17.257 	 29.5256
| 26> C 	 -46.3831 	 16.6841 	 28.2396
| 27> C 	 -46.6441 	 17.5498 	 27.2404
| 28> H 	 -46.6488 	 16.7463 	 30.4976
| 29> C 	 -45.762 	 15.2652 	 28.0405
| 30> H 	 -44.6756 	 15.2488 	 27.9783
| 31> H 	 -46.1188 	 14.9191 	 27.0647
| 32> C 	 -46.1132 	 14.1003 	 29.0397
| 33> H 	 -45.7918 	 14.3925 	 30.1093
| 34> H 	 -45.5267 	 13.2493 	 28.7549
| 35> C 	 -47.5658 	 13.712 	 29.0498
| 36> H 	 -47.8157 	 12.8033 	 29.5608
| 37> H 	 -48.0576 	 13.7457 	 28.083
| 38> H 	 -48.1352 	 14.5757 	 29.4261
| 39> H 	 -45.9297 	 17.546 	 22.251
| 40> H 	 -47.4091 	 19.1082 	 30.4142
| 41> *
| 42>
| 43>                          ****END OF INPUT****

CARTESIAN COORDINATES (ANGSTROEM)
---------------------------------
  S    -45.820000   18.514100   24.686700
  C    -46.178900   17.488500   23.313200
  C    -46.839200   16.348500   23.661400
  C    -47.065700   16.280200   25.106600
  C    -46.535600   17.345800   25.788400
  H    -47.665600   15.553100   25.613300
  C    -47.158400   15.247200   22.652700
  H    -47.111200   15.677800   21.664000
  H    -48.146100   14.865400   22.774700
  C    -46.135700   14.085600   22.699300
  H    -46.348700   13.662800   23.621500
  H    -46.349000   13.468900   21.794900
  C    -44.616200   14.388900   22.564400
  H    -44.317500   14.898000   21.691400
  H    -44.373000   15.080500   23.290400
  H    -43.992700   13.480700   22.724400
  S    -47.141700   19.107800   27.824500
  C    -47.175100   18.546400   29.444700
  C    -46.713500   17.257000   29.525600
  C    -46.383100   16.684100   28.239600
  C    -46.644100   17.549800   27.240400
  H    -46.648800   16.746300   30.497600
  C    -45.762000   15.265200   28.040500
  H    -44.675600   15.248800   27.978300
  H    -46.118800   14.919100   27.064700
  C    -46.113200   14.100300   29.039700
  H    -45.791800   14.392500   30.109300
  H    -45.526700   13.249300   28.754900
  C    -47.565800   13.712000   29.049800
  H    -47.815700   12.803300   29.560800
  H    -48.057600   13.745700   28.083000
  H    -48.135200   14.575700   29.426100
  H    -45.929700   17.546000   22.251000
  H    -47.409100   19.108200   30.414200

 Total Charge           Charge          ....    0
 Multiplicity           Mult            ....    1
 Number of Electrons    NEL             ....  134
 Basis Dimension        Dim             ....  322

ORBITAL ENERGIES
----------------

  NO   OCC          E(Eh)            E(eV)
   0   2.0000     -88.970346     -2421.0062
   1   2.0000     -88.967432     -2420.9269
   2   2.0000     -10.331957      -281.1468
   3   2.0000     -10.324611      -280.9470
   4   2.0000     -10.320658      -280.8394
   5   2.0000     -10.312167      -280.6083
   6   2.0000     -10.305692      -280.4321
   7   2.0000     -10.301012      -280.3048
   8   2.0000     -10.297205      -280.2012
   9   2.0000     -10.295771      -280.1622
  10   2.0000     -10.295754      -280.1617
  11   2.0000     -10.293609      -280.1033
  12   2.0000     -10.291408      -280.0435
  13   2.0000     -10.285894      -279.8934
  14   2.0000     -10.272790      -279.5368
  15   2.0000     -10.269081      -279.4359
  16   2.0000      -8.084592      -219.9929
  17   2.0000      -8.083086      -219.9520
  18   2.0000      -6.043366      -164.4483
  19   2.0000      -6.041644      -164.4015
  20   2.0000      -6.039185      -164.3346
  21   2.0000      -6.037483      -164.2883
  22   2.0000      -6.035084      -164.2230
  23   2.0000      -6.033708      -164.1855
  24   2.0000      -1.012989       -27.5648
  25   2.0000      -0.988108       -26.8878
  26   2.0000      -0.912108       -24.8197
  27   2.0000      -0.905412       -24.6375
  28   2.0000      -0.871618       -23.7179
  29   2.0000      -0.851954       -23.1829
  30   2.0000      -0.842098       -22.9146
  31   2.0000      -0.818035       -22.2599
  32   2.0000      -0.789138       -21.4735
  33   2.0000      -0.780567       -21.2403
  34   2.0000      -0.710027       -19.3208
  35   2.0000      -0.696112       -18.9422
  36   2.0000      -0.693024       -18.8581
  37   2.0000      -0.656546       -17.8655
  38   2.0000      -0.637990       -17.3606
  39   2.0000      -0.621867       -16.9219
  40   2.0000      -0.594818       -16.1858
  41   2.0000      -0.571035       -15.5386
  42   2.0000      -0.558514       -15.1979
  43   2.0000      -0.553367       -15.0579
  44   2.0000      -0.543160       -14.7801
  45   2.0000      -0.536810       -14.6073
  46   2.0000      -0.514107       -13.9896
  47   2.0000      -0.510652       -13.8956
  48   2.0000      -0.507070       -13.7981
  49   2.0000      -0.500779       -13.6269
  50   2.0000      -0.492031       -13.3888
  51   2.0000      -0.481903       -13.1133
  52   2.0000      -0.471796       -12.8382
  53   2.0000      -0.466100       -12.6832
  54   2.0000      -0.458043       -12.4640
  55   2.0000      -0.446168       -12.1409
  56   2.0000      -0.445005       -12.1092
  57   2.0000      -0.441677       -12.0186
  58   2.0000      -0.438589       -11.9346
  59   2.0000      -0.428823       -11.6689
  60   2.0000      -0.424519       -11.5517
  61   2.0000      -0.409743       -11.1497
  62   2.0000      -0.406887       -11.0720
  63   2.0000      -0.354845        -9.6558
  64   2.0000      -0.333391        -9.0720
  65   2.0000      -0.330657        -8.9976
  66   2.0000      -0.297394        -8.0925
  67   0.0000       0.033099         0.9007
  68   0.0000       0.075610         2.0575
  69   0.0000       0.111042         3.0216
  70   0.0000       0.122100         3.3225
  71   0.0000       0.129252         3.5171

MULLIKEN ATOMIC CHARGES
-----------------------
   0 S :    0.117809
   1 C :   -0.099929
   2 C :   -0.127304
   3 C :    0.024430
   4 C :   -0.146167
   5 H :    0.011993
   6 C :    0.094244
   7 H :    0.007197
   8 H :    0.026244
   9 C :   -0.071472
  10 H :    0.017983
  11 H :    0.041100
  12 C :   -0.027631
  13 H :    0.013406
  14 H :    0.018504
  15 H :    0.044221
  16 S :    0.121281
  17 C :   -0.107694
  18 C :   -0.057341
  19 C :   -0.038378
  20 C :   -0.153764
  21 H :    0.027215
  22 C :    0.073656
  23 H :    0.046049
  24 H :    0.005355
  25 C :   -0.089246
  26 H :    0.037737
  27 H :    0.027919
  28 C :   -0.034376
  29 H :    0.043315
  30 H :    0.010034
  31 H :    0.020034
  32 H :    0.041240
  33 H :    0.082336
Sum of atomic charges:    0.0000000

LOEWDIN ATOMIC CHARGES
----------------------
   0 S :    0.397855
   1 C :   -0.203475
   2 C :   -0.060934
   3 C :   -0.063156
   4 C :   -0.183397
   5 H :    0.026596
   6 C :   -0.025092
   7 H :    0.024239
   8 H :    0.028615
   9 C :   -0.030492
  10 H :    0.013133
  11 H :    0.030481
  12 C :   -0.062425
  13 H :    0.017979
  14 H :    0.015457
  15 H :    0.035634
  16 S :    0.422635
  17 C :   -0.210413
  18 C :   -0.078771
  19 C :   -0.059670
  20 C :   -0.200800
  21 H :    0.034035
  22 C :   -0.026047
  23 H :    0.036115
  24 H :    0.026622
  25 C :   -0.042918
  26 H :    0.027477
  27 H :    0.022093
  28 C :   -0.076994
  29 H :    0.025110
  30 H :    0.023470
  31 H :    0.030290
  32 H :    0.034798
  33 H :    0.051949

  Mayer bond orders larger than 0.100000
B(  0-S ,  1-C ) :   1.1121 B(  0-S ,  4-C ) :   1.1350 B(  1-C ,  2-C ) :   1.6689
B(  1-C , 32-H ) :   0.9555 B(  2-C ,  3-C ) :   1.2002 B(  2-C ,  6-C ) :   1.0341
B(  3-C ,  4-C ) :   1.6120 B(  3-C ,  5-H ) :   0.9888 B(  4-C , 20-C ) :   1.0238
B(  6-C ,  7-H ) :   0.9361 B(  6-C ,  8-H ) :   0.9411 B(  6-C ,  9-C ) :   1.0609
B(  9-C , 10-H ) :   0.9612 B(  9-C , 11-H ) :   0.9600 B(  9-C , 12-C ) :   1.0769
B( 12-C , 13-H ) :   0.9741 B( 12-C , 14-H ) :   0.9697 B( 12-C , 15-H ) :   0.9737
B( 16-S , 17-C ) :   1.1511 B( 16-S , 20-C ) :   1.1381 B( 17-C , 18-C ) :   1.6348
B( 17-C , 33-H ) :   0.9543 B( 18-C , 19-C ) :   1.2247 B( 18-C , 21-H ) :   0.9844
B( 19-C , 20-C ) :   1.6365 B( 19-C , 22-C ) :   1.0160 B( 22-C , 23-H ) :   0.9372
B( 22-C , 24-H ) :   0.9321 B( 22-C , 25-C ) :   1.0812 B( 25-C , 26-H ) :   0.9507
B( 25-C , 27-H ) :   0.9542 B( 25-C , 28-C ) :   1.0780 B( 28-C , 29-H ) :   0.9754
B( 28-C , 30-H ) :   0.9681 B( 28-C , 31-H ) :   0.9660

Dispersion correction           -0.015000404
FINAL SINGLE POINT ENERGY     -1339.873505167796

DIPOLE MOMENT
-------------
                                X             Y             Z
Electronic contribution:     -2.08519      28.39376       3.65632
Nuclear contribution   :      2.07674     -29.03637      -3.62297
                        -----------------------------------------
Total Dipole Moment    :     -0.00845      -0.64261       0.03334
                        -----------------------------------------
Magnitude (a.u.)       :      0.64353
Magnitude (Debye)      :      1.63572

Rotational constants in cm-1:     0.018469     0.009555     0.006897
Rotational constants in MHz :   553.687962   286.460034   206.755142

                             ****ORCA TERMINATED NORMALLY****
TOTAL RUN TIME: 0 days 0 hours 0 minutes 22 seconds 244 msec
