                         Program Version 4.2.1 -  RELEASE  -
|  1> ! wB97X-D3 SP def2-SVP
|  2> %pal
|  3> nprocs 24
|  4> end
|  5>
|  6> * xyz 0 1
|  7> S 	 -106.56 	 19.2871 	 -107.354
|  8> C 	 -104.928 	 19.0181 	 -106.872
|  9> C 	 -103.998 	 19.3784 	 -107.844
| 10> C 	 -104.645 	 20.0715 	 -108.877
| 11> C 	 -106.037 	 19.9948 	 -108.846
| 12> H 	 -104.285 	 20.6078 	 -109.638
| 13> C 	 -102.538 	 19.3779 	 -107.592
| 14> H 	 -101.975 	 19.2242 	 -108.544
| 15> H 	 -102.293 	 18.4532 	 -107.037
| 16> C 	 -102.06 	 20.5446 	 -106.708
| 17> H 	 -102.537 	 20.6102 	 -105.729
| 18> H 	 -101.104 	 20.189 	 -106.465
| 19> C 	 -101.891 	 21.7881 	 -107.504
| 20> H 	 -101.144 	 21.7067 	 -108.398
| 21> H 	 -102.842 	 22.0816 	 -107.922
| 22> H 	 -101.487 	 22.5636 	 -106.923
| 23> S 	 -108.413 	 21.3776 	 -108.957
| 24> C 	 -109.009 	 21.9962 	 -110.489
| 25> C 	 -108.124 	 21.6626 	 -111.504
| 26> C 	 -107.013 	 20.9392 	 -111.125
| 27> C 	 -107.042 	 20.6644 	 -109.742
| 28> H 	 -108.301 	 21.9591 	 -112.507
| 29> C 	 -106.001 	 20.3229 	 -112.099
| 30> H 	 -106.392 	 19.3715 	 -112.404
| 31> H 	 -105.078 	 20.0093 	 -111.57
| 32> C 	 -105.462 	 21.1767 	 -113.286
| 33> H 	 -106.265 	 21.6357 	 -113.867
| 34> H 	 -104.897 	 20.5835 	 -114.015
| 35> C 	 -104.586 	 22.3326 	 -112.848
| 36> H 	 -105.09 	 23.0326 	 -112.18
| 37> H 	 -104.374 	 22.9009 	 -113.737
| 38> H 	 -103.647 	 22.0386 	 -112.337
| 39> H 	 -104.645 	 18.8244 	 -105.861
| 40> H 	 -109.957 	 22.5331 	 -110.613
| 41> *
| 42>
| 43>                          ****END OF INPUT****

CARTESIAN COORDINATES (ANGSTROEM)
---------------------------------
  S    -106.560000   19.287100  -107.354000
  C    -104.928000   19.018100  -106.872000
  C    -103.998000   19.378400  -107.844000
  C    -104.645000   20.071500  -108.877000
  C    -106.037000   19.994800  -108.846000
  H    -104.285000   20.607800  -109.638000
  C    -102.538000   19.377900  -107.592000
  H    -101.975000   19.224200  -108.544000
  H    -102.293000   18.453200  -107.037000
  C    -102.060000   20.544600  -106.708000
  H    -102.537000   20.610200  -105.729000
  H    -101.104000   20.189000  -106.465000
  C    -101.891000   21.788100  -107.504000
  H    -101.144000   21.706700  -108.398000
  H    -102.842000   22.081600  -107.922000
  H    -101.487000   22.563600  -106.923000
  S    -108.413000   21.377600  -108.957000
  C    -109.009000   21.996200  -110.489000
  C    -108.124000   21.662600  -111.504000
  C    -107.013000   20.939200  -111.125000
  C    -107.042000   20.664400  -109.742000
  H    -108.301000   21.959100  -112.507000
  C    -106.001000   20.322900  -112.099000
  H    -106.392000   19.371500  -112.404000
  H    -105.078000   20.009300  -111.570000
  C    -105.462000   21.176700  -113.286000
  H    -106.265000   21.635700  -113.867000
  H    -104.897000   20.583500  -114.015000
  C    -104.586000   22.332600  -112.848000
  H    -105.090000   23.032600  -112.180000
  H    -104.374000   22.900900  -113.737000
  H    -103.647000   22.038600  -112.337000
  H    -104.645000   18.824400  -105.861000
  H    -109.957000   22.533100  -110.613000

 Total Charge           Charge          ....    0
 Multiplicity           Mult            ....    1
 Number of Electrons    NEL             ....  134
 Basis Dimension        Dim             ....  322

ORBITAL ENERGIES
----------------

  NO   OCC          E(Eh)            E(eV)
   0   2.0000     -88.968355     -2420.9520
   1   2.0000     -88.965439     -2420.8727
   2   2.0000     -10.329656      -281.0842
   3   2.0000     -10.327388      -281.0225
   4   2.0000     -10.318770      -280.7880
   5   2.0000     -10.306654      -280.4583
   6   2.0000     -10.302029      -280.3325
   7   2.0000     -10.295718      -280.1607
   8   2.0000     -10.293958      -280.1128
   9   2.0000     -10.292130      -280.0631
  10   2.0000     -10.290283      -280.0128
  11   2.0000     -10.288617      -279.9675
  12   2.0000     -10.282423      -279.7990
  13   2.0000     -10.281045      -279.7615
  14   2.0000     -10.276126      -279.6276
  15   2.0000     -10.275569      -279.6124
  16   2.0000      -8.083043      -219.9508
  17   2.0000      -8.080834      -219.8907
  18   2.0000      -6.041368      -164.3940
  19   2.0000      -6.039127      -164.3330
  20   2.0000      -6.037494      -164.2886
  21   2.0000      -6.035182      -164.2257
  22   2.0000      -6.034068      -164.1953
  23   2.0000      -6.031880      -164.1358
  24   2.0000      -1.009193       -27.4615
  25   2.0000      -0.988568       -26.9003
  26   2.0000      -0.919425       -25.0188
  27   2.0000      -0.907090       -24.6832
  28   2.0000      -0.866840       -23.5879
  29   2.0000      -0.855529       -23.2801
  30   2.0000      -0.849793       -23.1240
  31   2.0000      -0.816522       -22.2187
  32   2.0000      -0.784526       -21.3480
  33   2.0000      -0.771171       -20.9846
  34   2.0000      -0.707903       -19.2630
  35   2.0000      -0.700411       -19.0591
  36   2.0000      -0.693444       -18.8696
  37   2.0000      -0.661521       -18.0009
  38   2.0000      -0.647063       -17.6075
  39   2.0000      -0.618562       -16.8319
  40   2.0000      -0.599857       -16.3229
  41   2.0000      -0.575851       -15.6697
  42   2.0000      -0.556221       -15.1355
  43   2.0000      -0.554579       -15.0909
  44   2.0000      -0.541376       -14.7316
  45   2.0000      -0.534740       -14.5510
  46   2.0000      -0.516000       -14.0411
  47   2.0000      -0.515492       -14.0272
  48   2.0000      -0.499759       -13.5991
  49   2.0000      -0.495936       -13.4951
  50   2.0000      -0.486693       -13.2436
  51   2.0000      -0.484916       -13.1952
  52   2.0000      -0.474388       -12.9088
  53   2.0000      -0.467370       -12.7178
  54   2.0000      -0.461127       -12.5479
  55   2.0000      -0.449043       -12.2191
  56   2.0000      -0.444155       -12.0861
  57   2.0000      -0.439476       -11.9588
  58   2.0000      -0.435780       -11.8582
  59   2.0000      -0.425592       -11.5809
  60   2.0000      -0.419044       -11.4028
  61   2.0000      -0.417320       -11.3559
  62   2.0000      -0.413491       -11.2517
  63   2.0000      -0.347938        -9.4679
  64   2.0000      -0.337079        -9.1724
  65   2.0000      -0.329536        -8.9671
  66   2.0000      -0.280827        -7.6417
  67   0.0000       0.022477         0.6116
  68   0.0000       0.078127         2.1259
  69   0.0000       0.107203         2.9171
  70   0.0000       0.121620         3.3094
  71   0.0000       0.134201         3.6518

MULLIKEN ATOMIC CHARGES
-----------------------
   0 S :    0.108918
   1 C :   -0.118912
   2 C :   -0.048486
   3 C :    0.063957
   4 C :   -0.153494
   5 H :   -0.049312
   6 C :    0.009810
   7 H :    0.032292
   8 H :    0.023183
   9 C :   -0.010123
  10 H :    0.030905
  11 H :    0.006190
  12 C :   -0.041514
  13 H :    0.032450
  14 H :    0.034898
  15 H :    0.023206
  16 S :    0.109618
  17 C :   -0.105843
  18 C :   -0.023754
  19 C :   -0.025059
  20 C :   -0.146965
  21 H :   -0.000105
  22 C :    0.074543
  23 H :    0.038634
  24 H :    0.009454
  25 C :   -0.073514
  26 H :    0.024106
  27 H :    0.032062
  28 C :   -0.063117
  29 H :    0.036740
  30 H :    0.028800
  31 H :    0.034223
  32 H :    0.040125
  33 H :    0.066083
Sum of atomic charges:   -0.0000000

LOEWDIN ATOMIC CHARGES
----------------------
   0 S :    0.423331
   1 C :   -0.201659
   2 C :   -0.063186
   3 C :   -0.054073
   4 C :   -0.194568
   5 H :    0.005109
   6 C :   -0.036212
   7 H :    0.035966
   8 H :    0.033485
   9 C :   -0.035886
  10 H :    0.029531
  11 H :    0.018846
  12 C :   -0.063565
  13 H :    0.035794
  14 H :    0.022972
  15 H :    0.018311
  16 S :    0.417099
  17 C :   -0.190767
  18 C :   -0.067039
  19 C :   -0.064012
  20 C :   -0.199537
  21 H :    0.025309
  22 C :   -0.030829
  23 H :    0.033238
  24 H :    0.032071
  25 C :   -0.041545
  26 H :    0.020577
  27 H :    0.028461
  28 C :   -0.067805
  29 H :    0.025867
  30 H :    0.025677
  31 H :    0.024172
  32 H :    0.020483
  33 H :    0.034385

  Mayer bond orders larger than 0.100000
B(  0-S ,  1-C ) :   1.1667 B(  0-S ,  4-C ) :   1.1675 B(  1-C ,  2-C ) :   1.5551
B(  1-C ,  4-C ) :   0.1006 B(  1-C , 32-H ) :   0.9710 B(  2-C ,  3-C ) :   1.2623
B(  2-C ,  6-C ) :   1.0520 B(  3-C ,  4-C ) :   1.5479 B(  3-C ,  5-H ) :   1.0029
B(  4-C , 20-C ) :   1.0248 B(  6-C ,  7-H ) :   0.9381 B(  6-C ,  8-H ) :   0.9340
B(  6-C ,  9-C ) :   1.0713 B(  9-C , 10-H ) :   0.9514 B(  9-C , 11-H ) :   0.9459
B(  9-C , 12-C ) :   1.0843 B( 12-C , 13-H ) :   0.9716 B( 12-C , 14-H ) :   0.9739
B( 12-C , 15-H ) :   0.9694 B( 16-S , 17-C ) :   1.1598 B( 16-S , 20-C ) :   1.1757
B( 17-C , 18-C ) :   1.5574 B( 17-C , 20-C ) :   0.1113 B( 17-C , 33-H ) :   0.9695
B( 18-C , 19-C ) :   1.2995 B( 18-C , 21-H ) :   0.9955 B( 19-C , 20-C ) :   1.5400
B( 19-C , 22-C ) :   1.0253 B( 22-C , 23-H ) :   0.9361 B( 22-C , 24-H ) :   0.9351
B( 22-C , 25-C ) :   1.0652 B( 25-C , 26-H ) :   0.9558 B( 25-C , 27-H ) :   0.9550
B( 25-C , 28-C ) :   1.0815 B( 28-C , 29-H ) :   0.9750 B( 28-C , 30-H ) :   0.9724
B( 28-C , 31-H ) :   0.9730

Dispersion correction           -0.014641157
FINAL SINGLE POINT ENERGY     -1339.871065573055

DIPOLE MOMENT
-------------
                                X             Y             Z
Electronic contribution:    -24.93027      -6.80441      11.32455
Nuclear contribution   :     25.46353       7.01822     -11.59960
                        -----------------------------------------
Total Dipole Moment    :      0.53326       0.21380      -0.27504
                        -----------------------------------------
Magnitude (a.u.)       :      0.63697
Magnitude (Debye)      :      1.61905

Rotational constants in cm-1:     0.017873     0.009538     0.007088
Rotational constants in MHz :   535.828952   285.931380   212.498169

                             ****ORCA TERMINATED NORMALLY****
TOTAL RUN TIME: 0 days 0 hours 0 minutes 22 seconds 113 msec
