                         Program Version 4.2.1 -  RELEASE  -
|  1> ! wB97X-D3 SP def2-SVP
|  2> %pal
|  3> nprocs 24
|  4> end
|  5>
|  6> * xyz 0 1
|  7> S 	 -85.1164 	 -38.646 	 -72.5353
|  8> C 	 -85.295 	 -37.6942 	 -74.0844
|  9> C 	 -84.7242 	 -38.3696 	 -75.1176
| 10> C 	 -84.2645 	 -39.6271 	 -74.7124
| 11> C 	 -84.5967 	 -39.9805 	 -73.4278
| 12> H 	 -83.7457 	 -40.3212 	 -75.3728
| 13> C 	 -84.6001 	 -37.9514 	 -76.4671
| 14> H 	 -85.486 	 -37.196 	 -76.6161
| 15> H 	 -84.7414 	 -38.8448 	 -77.1166
| 16> C 	 -83.2146 	 -37.3408 	 -76.889
| 17> H 	 -83.418 	 -36.673 	 -77.723
| 18> H 	 -82.8094 	 -36.6039 	 -76.1482
| 19> C 	 -82.1568 	 -38.4361 	 -76.9682
| 20> H 	 -81.1942 	 -37.9593 	 -77.3718
| 21> H 	 -81.8199 	 -38.9456 	 -76.0745
| 22> H 	 -82.2988 	 -39.1809 	 -77.7586
| 23> S 	 -83.7979 	 -41.2729 	 -71.2469
| 24> C 	 -83.8263 	 -42.9632 	 -71.1225
| 25> C 	 -84.3657 	 -43.5452 	 -72.2547
| 26> C 	 -84.7527 	 -42.6035 	 -73.2741
| 27> C 	 -84.4668 	 -41.3023 	 -72.8519
| 28> H 	 -84.4333 	 -44.6134 	 -72.404
| 29> C 	 -85.5901 	 -43.0035 	 -74.5317
| 30> H 	 -85.9923 	 -42.1339 	 -75.1757
| 31> H 	 -86.5234 	 -43.5896 	 -74.1776
| 32> C 	 -84.8778 	 -44.014 	 -75.4034
| 33> H 	 -85.3355 	 -44.2086 	 -76.3603
| 34> H 	 -84.8324 	 -44.9699 	 -74.9942
| 35> C 	 -83.4831 	 -43.4542 	 -75.9043
| 36> H 	 -83.5303 	 -42.4804 	 -76.2909
| 37> H 	 -83.0539 	 -44.1434 	 -76.5493
| 38> H 	 -82.9399 	 -43.4462 	 -74.985
| 39> H 	 -85.766 	 -36.7316 	 -74.197
| 40> H 	 -83.4636 	 -43.6063 	 -70.3762
| 41> *
| 42>
| 43>                          ****END OF INPUT****

CARTESIAN COORDINATES (ANGSTROEM)
---------------------------------
  S    -85.116400  -38.646000  -72.535300
  C    -85.295000  -37.694200  -74.084400
  C    -84.724200  -38.369600  -75.117600
  C    -84.264500  -39.627100  -74.712400
  C    -84.596700  -39.980500  -73.427800
  H    -83.745700  -40.321200  -75.372800
  C    -84.600100  -37.951400  -76.467100
  H    -85.486000  -37.196000  -76.616100
  H    -84.741400  -38.844800  -77.116600
  C    -83.214600  -37.340800  -76.889000
  H    -83.418000  -36.673000  -77.723000
  H    -82.809400  -36.603900  -76.148200
  C    -82.156800  -38.436100  -76.968200
  H    -81.194200  -37.959300  -77.371800
  H    -81.819900  -38.945600  -76.074500
  H    -82.298800  -39.180900  -77.758600
  S    -83.797900  -41.272900  -71.246900
  C    -83.826300  -42.963200  -71.122500
  C    -84.365700  -43.545200  -72.254700
  C    -84.752700  -42.603500  -73.274100
  C    -84.466800  -41.302300  -72.851900
  H    -84.433300  -44.613400  -72.404000
  C    -85.590100  -43.003500  -74.531700
  H    -85.992300  -42.133900  -75.175700
  H    -86.523400  -43.589600  -74.177600
  C    -84.877800  -44.014000  -75.403400
  H    -85.335500  -44.208600  -76.360300
  H    -84.832400  -44.969900  -74.994200
  C    -83.483100  -43.454200  -75.904300
  H    -83.530300  -42.480400  -76.290900
  H    -83.053900  -44.143400  -76.549300
  H    -82.939900  -43.446200  -74.985000
  H    -85.766000  -36.731600  -74.197000
  H    -83.463600  -43.606300  -70.376200

 Total Charge           Charge          ....    0
 Multiplicity           Mult            ....    1
 Number of Electrons    NEL             ....  134
 Basis Dimension        Dim             ....  322

ORBITAL ENERGIES
----------------

  NO   OCC          E(Eh)            E(eV)
   0   2.0000     -88.966604     -2420.9044
   1   2.0000     -88.964558     -2420.8487
   2   2.0000     -10.326348      -280.9942
   3   2.0000     -10.322327      -280.8848
   4   2.0000     -10.311919      -280.6016
   5   2.0000     -10.311663      -280.5946
   6   2.0000     -10.310453      -280.5617
   7   2.0000     -10.307652      -280.4855
   8   2.0000     -10.296904      -280.1930
   9   2.0000     -10.296877      -280.1923
  10   2.0000     -10.294394      -280.1247
  11   2.0000     -10.288286      -279.9585
  12   2.0000     -10.286044      -279.8975
  13   2.0000     -10.283227      -279.8208
  14   2.0000     -10.278829      -279.7012
  15   2.0000     -10.263594      -279.2866
  16   2.0000      -8.082624      -219.9394
  17   2.0000      -8.079543      -219.8555
  18   2.0000      -6.041073      -164.3860
  19   2.0000      -6.038124      -164.3057
  20   2.0000      -6.036887      -164.2720
  21   2.0000      -6.034263      -164.2007
  22   2.0000      -6.033437      -164.1782
  23   2.0000      -6.029948      -164.0832
  24   2.0000      -1.015454       -27.6319
  25   2.0000      -0.990787       -26.9607
  26   2.0000      -0.920822       -25.0568
  27   2.0000      -0.908487       -24.7212
  28   2.0000      -0.871101       -23.7039
  29   2.0000      -0.849519       -23.1166
  30   2.0000      -0.843557       -22.9544
  31   2.0000      -0.813840       -22.1457
  32   2.0000      -0.784069       -21.3356
  33   2.0000      -0.776112       -21.1191
  34   2.0000      -0.712085       -19.3768
  35   2.0000      -0.710384       -19.3305
  36   2.0000      -0.695646       -18.9295
  37   2.0000      -0.660395       -17.9703
  38   2.0000      -0.635159       -17.2836
  39   2.0000      -0.618754       -16.8372
  40   2.0000      -0.596691       -16.2368
  41   2.0000      -0.573941       -15.6177
  42   2.0000      -0.552205       -15.0263
  43   2.0000      -0.548709       -14.9311
  44   2.0000      -0.543809       -14.7978
  45   2.0000      -0.536353       -14.5949
  46   2.0000      -0.521032       -14.1780
  47   2.0000      -0.510346       -13.8872
  48   2.0000      -0.504890       -13.7388
  49   2.0000      -0.503843       -13.7103
  50   2.0000      -0.491666       -13.3789
  51   2.0000      -0.483533       -13.1576
  52   2.0000      -0.477342       -12.9891
  53   2.0000      -0.468997       -12.7620
  54   2.0000      -0.460318       -12.5259
  55   2.0000      -0.450907       -12.2698
  56   2.0000      -0.445056       -12.1106
  57   2.0000      -0.435707       -11.8562
  58   2.0000      -0.430748       -11.7212
  59   2.0000      -0.425779       -11.5860
  60   2.0000      -0.420834       -11.4515
  61   2.0000      -0.413753       -11.2588
  62   2.0000      -0.398230       -10.8364
  63   2.0000      -0.348196        -9.4749
  64   2.0000      -0.331639        -9.0243
  65   2.0000      -0.327912        -8.9229
  66   2.0000      -0.286690        -7.8012
  67   0.0000       0.028434         0.7737
  68   0.0000       0.073563         2.0018
  69   0.0000       0.097106         2.6424
  70   0.0000       0.117582         3.1996
  71   0.0000       0.125344         3.4108

MULLIKEN ATOMIC CHARGES
-----------------------
   0 S :    0.101406
   1 C :   -0.131801
   2 C :   -0.030391
   3 C :    0.006280
   4 C :   -0.111085
   5 H :   -0.008150
   6 C :   -0.001961
   7 H :    0.036518
   8 H :    0.033189
   9 C :   -0.036065
  10 H :    0.036374
  11 H :    0.032973
  12 C :   -0.088504
  13 H :    0.033016
  14 H :    0.059732
  15 H :    0.027771
  16 S :    0.110672
  17 C :   -0.045625
  18 C :   -0.056588
  19 C :   -0.020356
  20 C :   -0.168199
  21 H :    0.015781
  22 C :    0.019919
  23 H :    0.055449
  24 H :    0.052534
  25 C :   -0.090078
  26 H :    0.020224
  27 H :    0.016094
  28 C :   -0.018180
  29 H :    0.027252
  30 H :    0.018943
  31 H :    0.032198
  32 H :    0.033536
  33 H :    0.037120
Sum of atomic charges:    0.0000000

LOEWDIN ATOMIC CHARGES
----------------------
   0 S :    0.394769
   1 C :   -0.175155
   2 C :   -0.072215
   3 C :   -0.071451
   4 C :   -0.207905
   5 H :    0.026176
   6 C :   -0.041690
   7 H :    0.041476
   8 H :    0.034770
   9 C :   -0.039392
  10 H :    0.028481
  11 H :    0.032499
  12 C :   -0.079291
  13 H :    0.037237
  14 H :    0.030770
  15 H :    0.022476
  16 S :    0.433572
  17 C :   -0.197683
  18 C :   -0.069869
  19 C :   -0.057047
  20 C :   -0.194181
  21 H :    0.028255
  22 C :   -0.036629
  23 H :    0.042348
  24 H :    0.043680
  25 C :   -0.042919
  26 H :    0.022621
  27 H :    0.012189
  28 C :   -0.050336
  29 H :    0.015094
  30 H :    0.015609
  31 H :    0.023677
  32 H :    0.025190
  33 H :    0.024876

  Mayer bond orders larger than 0.100000
B(  0-S ,  1-C ) :   1.0985 B(  0-S ,  4-C ) :   1.1620 B(  1-C ,  2-C ) :   1.6158
B(  1-C , 32-H ) :   0.9708 B(  2-C ,  3-C ) :   1.2330 B(  2-C ,  6-C ) :   1.0407
B(  3-C ,  4-C ) :   1.5542 B(  3-C ,  5-H ) :   0.9966 B(  4-C , 20-C ) :   1.0324
B(  6-C ,  7-H ) :   0.9341 B(  6-C ,  8-H ) :   0.9390 B(  6-C ,  9-C ) :   1.0540
B(  9-C , 10-H ) :   0.9600 B(  9-C , 11-H ) :   0.9542 B(  9-C , 12-C ) :   1.0708
B( 12-C , 13-H ) :   0.9677 B( 12-C , 14-H ) :   0.9689 B( 12-C , 15-H ) :   0.9752
B( 16-S , 17-C ) :   1.1574 B( 16-S , 20-C ) :   1.1543 B( 17-C , 18-C ) :   1.6095
B( 17-C , 33-H ) :   0.9726 B( 18-C , 19-C ) :   1.2400 B( 18-C , 21-H ) :   0.9856
B( 19-C , 20-C ) :   1.5911 B( 19-C , 22-C ) :   1.0171 B( 22-C , 23-H ) :   0.9469
B( 22-C , 24-H ) :   0.9455 B( 22-C , 25-C ) :   1.0684 B( 25-C , 26-H ) :   0.9580
B( 25-C , 27-H ) :   0.9585 B( 25-C , 28-C ) :   1.0645 B( 28-C , 29-H ) :   0.9739
B( 28-C , 30-H ) :   0.9730 B( 28-C , 31-H ) :   0.9748

Dispersion correction           -0.015295249
FINAL SINGLE POINT ENERGY     -1339.847643387850

DIPOLE MOMENT
-------------
                                X             Y             Z
Electronic contribution:     -5.84280       5.22042      27.02401
Nuclear contribution   :      5.93444      -5.49514     -27.65587
                        -----------------------------------------
Total Dipole Moment    :      0.09164      -0.27472      -0.63186
                        -----------------------------------------
Magnitude (a.u.)       :      0.69507
Magnitude (Debye)      :      1.76673

Rotational constants in cm-1:     0.018439     0.010009     0.007513
Rotational constants in MHz :   552.773451   300.066261   225.229763

                             ****ORCA TERMINATED NORMALLY****
TOTAL RUN TIME: 0 days 0 hours 0 minutes 22 seconds 668 msec
