                         Program Version 4.2.1 -  RELEASE  -
|  1> ! wB97X-D3 SP def2-SVP
|  2> %pal
|  3> nprocs 24
|  4> end
|  5>
|  6> * xyz 0 1
|  7> S 	 -6.78958 	 -29.2041 	 -112.401
|  8> C 	 -7.60435 	 -27.9119 	 -111.583
|  9> C 	 -8.78259 	 -28.3616 	 -111.015
| 10> C 	 -8.85458 	 -29.7798 	 -111.078
| 11> C 	 -7.78298 	 -30.4739 	 -111.667
| 12> H 	 -9.55702 	 -30.317 	 -110.641
| 13> C 	 -9.81372 	 -27.512 	 -110.295
| 14> H 	 -10.7403 	 -27.8191 	 -110.714
| 15> H 	 -9.64254 	 -26.5009 	 -110.601
| 16> C 	 -9.88224 	 -27.5937 	 -108.743
| 17> H 	 -10.7572 	 -27.1852 	 -108.338
| 18> H 	 -9.99902 	 -28.6144 	 -108.39
| 19> C 	 -8.64641 	 -27.0833 	 -107.969
| 20> H 	 -8.78486 	 -27.1764 	 -106.925
| 21> H 	 -7.72047 	 -27.6422 	 -108.031
| 22> H 	 -8.46963 	 -25.9957 	 -108.164
| 23> S 	 -6.87991 	 -32.5557 	 -113.211
| 24> C 	 -7.00062 	 -34.182 	 -112.674
| 25> C 	 -7.54308 	 -34.2429 	 -111.417
| 26> C 	 -7.90193 	 -32.9263 	 -110.941
| 27> C 	 -7.49703 	 -31.8846 	 -111.759
| 28> H 	 -7.71054 	 -35.193 	 -110.926
| 29> C 	 -8.64561 	 -32.7865 	 -109.576
| 30> H 	 -8.4046 	 -31.8247 	 -109.228
| 31> H 	 -8.11035 	 -33.4791 	 -108.891
| 32> C 	 -10.1421 	 -32.948 	 -109.588
| 33> H 	 -10.5901 	 -32.3594 	 -110.412
| 34> H 	 -10.5306 	 -32.5965 	 -108.554
| 35> C 	 -10.6029 	 -34.3895 	 -109.77
| 36> H 	 -10.3398 	 -35.1487 	 -108.924
| 37> H 	 -10.2333 	 -34.7112 	 -110.727
| 38> H 	 -11.6827 	 -34.3966 	 -110.005
| 39> H 	 -7.37091 	 -26.8909 	 -111.654
| 40> H 	 -6.94657 	 -35.0947 	 -113.341
| 41> *
| 42>
| 43>                          ****END OF INPUT****

CARTESIAN COORDINATES (ANGSTROEM)
---------------------------------
  S     -6.789580  -29.204100  -112.401000
  C     -7.604350  -27.911900  -111.583000
  C     -8.782590  -28.361600  -111.015000
  C     -8.854580  -29.779800  -111.078000
  C     -7.782980  -30.473900  -111.667000
  H     -9.557020  -30.317000  -110.641000
  C     -9.813720  -27.512000  -110.295000
  H    -10.740300  -27.819100  -110.714000
  H     -9.642540  -26.500900  -110.601000
  C     -9.882240  -27.593700  -108.743000
  H    -10.757200  -27.185200  -108.338000
  H     -9.999020  -28.614400  -108.390000
  C     -8.646410  -27.083300  -107.969000
  H     -8.784860  -27.176400  -106.925000
  H     -7.720470  -27.642200  -108.031000
  H     -8.469630  -25.995700  -108.164000
  S     -6.879910  -32.555700  -113.211000
  C     -7.000620  -34.182000  -112.674000
  C     -7.543080  -34.242900  -111.417000
  C     -7.901930  -32.926300  -110.941000
  C     -7.497030  -31.884600  -111.759000
  H     -7.710540  -35.193000  -110.926000
  C     -8.645610  -32.786500  -109.576000
  H     -8.404600  -31.824700  -109.228000
  H     -8.110350  -33.479100  -108.891000
  C    -10.142100  -32.948000  -109.588000
  H    -10.590100  -32.359400  -110.412000
  H    -10.530600  -32.596500  -108.554000
  C    -10.602900  -34.389500  -109.770000
  H    -10.339800  -35.148700  -108.924000
  H    -10.233300  -34.711200  -110.727000
  H    -11.682700  -34.396600  -110.005000
  H     -7.370910  -26.890900  -111.654000
  H     -6.946570  -35.094700  -113.341000

 Total Charge           Charge          ....    0
 Multiplicity           Mult            ....    1
 Number of Electrons    NEL             ....  134
 Basis Dimension        Dim             ....  322

ORBITAL ENERGIES
----------------

  NO   OCC          E(Eh)            E(eV)
   0   2.0000     -88.965965     -2420.8870
   1   2.0000     -88.963417     -2420.8176
   2   2.0000     -10.334954      -281.2284
   3   2.0000     -10.328392      -281.0498
   4   2.0000     -10.320553      -280.8365
   5   2.0000     -10.310499      -280.5629
   6   2.0000     -10.306609      -280.4571
   7   2.0000     -10.299607      -280.2665
   8   2.0000     -10.296862      -280.1919
   9   2.0000     -10.295715      -280.1606
  10   2.0000     -10.292400      -280.0704
  11   2.0000     -10.288814      -279.9729
  12   2.0000     -10.287046      -279.9248
  13   2.0000     -10.284969      -279.8682
  14   2.0000     -10.283971      -279.8411
  15   2.0000     -10.275289      -279.6048
  16   2.0000      -8.082093      -219.9249
  17   2.0000      -8.078162      -219.8180
  18   2.0000      -6.040626      -164.3738
  19   2.0000      -6.036802      -164.2697
  20   2.0000      -6.036309      -164.2563
  21   2.0000      -6.032824      -164.1615
  22   2.0000      -6.032598      -164.1553
  23   2.0000      -6.028860      -164.0536
  24   2.0000      -1.013361       -27.5750
  25   2.0000      -0.988931       -26.9102
  26   2.0000      -0.911981       -24.8163
  27   2.0000      -0.909301       -24.7433
  28   2.0000      -0.875245       -23.8166
  29   2.0000      -0.850471       -23.1425
  30   2.0000      -0.844220       -22.9724
  31   2.0000      -0.819597       -22.3024
  32   2.0000      -0.788073       -21.4446
  33   2.0000      -0.777640       -21.1606
  34   2.0000      -0.715424       -19.4677
  35   2.0000      -0.703588       -19.1456
  36   2.0000      -0.686751       -18.6874
  37   2.0000      -0.666188       -18.1279
  38   2.0000      -0.645037       -17.5523
  39   2.0000      -0.625376       -17.0173
  40   2.0000      -0.593412       -16.1476
  41   2.0000      -0.569982       -15.5100
  42   2.0000      -0.557979       -15.1834
  43   2.0000      -0.551297       -15.0015
  44   2.0000      -0.545124       -14.8336
  45   2.0000      -0.540262       -14.7013
  46   2.0000      -0.523737       -14.2516
  47   2.0000      -0.513888       -13.9836
  48   2.0000      -0.507185       -13.8012
  49   2.0000      -0.503541       -13.7020
  50   2.0000      -0.491576       -13.3765
  51   2.0000      -0.475839       -12.9482
  52   2.0000      -0.473401       -12.8819
  53   2.0000      -0.469682       -12.7807
  54   2.0000      -0.463141       -12.6027
  55   2.0000      -0.445320       -12.1178
  56   2.0000      -0.443264       -12.0618
  57   2.0000      -0.437156       -11.8956
  58   2.0000      -0.435560       -11.8522
  59   2.0000      -0.425170       -11.5695
  60   2.0000      -0.419195       -11.4069
  61   2.0000      -0.413379       -11.2486
  62   2.0000      -0.406603       -11.0642
  63   2.0000      -0.362354        -9.8602
  64   2.0000      -0.332168        -9.0387
  65   2.0000      -0.327330        -8.9071
  66   2.0000      -0.286924        -7.8076
  67   0.0000       0.022758         0.6193
  68   0.0000       0.075529         2.0552
  69   0.0000       0.110247         3.0000
  70   0.0000       0.124271         3.3816
  71   0.0000       0.132956         3.6179

MULLIKEN ATOMIC CHARGES
-----------------------
   0 S :    0.097869
   1 C :   -0.094223
   2 C :   -0.103578
   3 C :    0.090319
   4 C :   -0.144613
   5 H :   -0.095909
   6 C :    0.126760
   7 H :    0.021943
   8 H :    0.009063
   9 C :   -0.032610
  10 H :    0.014467
  11 H :    0.013086
  12 C :   -0.064274
  13 H :    0.015859
  14 H :    0.038838
  15 H :    0.032908
  16 S :    0.106963
  17 C :   -0.108363
  18 C :   -0.029060
  19 C :   -0.119983
  20 C :   -0.081420
  21 H :    0.025142
  22 C :    0.086262
  23 H :    0.008525
  24 H :    0.030195
  25 C :   -0.091440
  26 H :    0.051208
  27 H :    0.043455
  28 C :   -0.065878
  29 H :    0.054648
  30 H :    0.019436
  31 H :    0.030049
  32 H :    0.029282
  33 H :    0.085072
Sum of atomic charges:   -0.0000000

LOEWDIN ATOMIC CHARGES
----------------------
   0 S :    0.399746
   1 C :   -0.188937
   2 C :   -0.061303
   3 C :   -0.049314
   4 C :   -0.177739
   5 H :   -0.002982
   6 C :   -0.021000
   7 H :    0.031261
   8 H :    0.026039
   9 C :   -0.035701
  10 H :    0.019524
  11 H :    0.024346
  12 C :   -0.071276
  13 H :    0.022366
  14 H :    0.028411
  15 H :    0.026482
  16 S :    0.433928
  17 C :   -0.205480
  18 C :   -0.076179
  19 C :   -0.053594
  20 C :   -0.214720
  21 H :    0.033400
  22 C :   -0.033249
  23 H :    0.020437
  24 H :    0.034835
  25 C :   -0.047261
  26 H :    0.030099
  27 H :    0.033573
  28 C :   -0.079521
  29 H :    0.036552
  30 H :    0.019843
  31 H :    0.029265
  32 H :    0.020125
  33 H :    0.048023

  Mayer bond orders larger than 0.100000
B(  0-S ,  1-C ) :   1.1507 B(  0-S ,  4-C ) :   1.1416 B(  1-C ,  2-C ) :   1.5842
B(  1-C ,  4-C ) :   0.1041 B(  1-C , 32-H ) :   0.9728 B(  2-C ,  3-C ) :   1.2583
B(  2-C ,  6-C ) :   1.0249 B(  3-C ,  4-C ) :   1.5376 B(  3-C ,  5-H ) :   1.0165
B(  4-C , 20-C ) :   1.0693 B(  6-C ,  7-H ) :   0.9316 B(  6-C ,  8-H ) :   0.9404
B(  6-C ,  9-C ) :   1.0687 B(  9-C , 10-H ) :   0.9543 B(  9-C , 11-H ) :   0.9524
B(  9-C , 12-C ) :   1.0775 B( 12-C , 13-H ) :   0.9699 B( 12-C , 14-H ) :   0.9749
B( 12-C , 15-H ) :   0.9771 B( 16-S , 17-C ) :   1.1751 B( 16-S , 20-C ) :   1.1380
B( 17-C , 18-C ) :   1.5892 B( 17-C , 33-H ) :   0.9559 B( 18-C , 19-C ) :   1.2577
B( 18-C , 21-H ) :   0.9917 B( 19-C , 20-C ) :   1.5874 B( 19-C , 22-C ) :   1.0241
B( 22-C , 23-H ) :   0.9300 B( 22-C , 24-H ) :   0.9402 B( 22-C , 25-C ) :   1.0697
B( 25-C , 26-H ) :   0.9446 B( 25-C , 27-H ) :   0.9537 B( 25-C , 28-C ) :   1.0854
B( 28-C , 29-H ) :   0.9728 B( 28-C , 30-H ) :   0.9667 B( 28-C , 31-H ) :   0.9689

Dispersion correction           -0.014845232
FINAL SINGLE POINT ENERGY     -1339.863102316368

DIPOLE MOMENT
-------------
                                X             Y             Z
Electronic contribution:     17.95722      -2.46181     -23.08629
Nuclear contribution   :    -18.60001       2.32190      23.58908
                        -----------------------------------------
Total Dipole Moment    :     -0.64279      -0.13990       0.50279
                        -----------------------------------------
Magnitude (a.u.)       :      0.82798
Magnitude (Debye)      :      2.10455

Rotational constants in cm-1:     0.018878     0.009419     0.006750
Rotational constants in MHz :   565.959225   282.374748   202.354458

                             ****ORCA TERMINATED NORMALLY****
TOTAL RUN TIME: 0 days 0 hours 0 minutes 22 seconds 292 msec
