                         Program Version 4.2.1 -  RELEASE  -
|  1> ! wB97X-D3 SP def2-SVP
|  2> %pal
|  3> nprocs 24
|  4> end
|  5>
|  6> * xyz 0 1
|  7> S 	 -134.629 	 27.1442 	 -20.3675
|  8> C 	 -135.336 	 26.2154 	 -19.1031
|  9> C 	 -134.597 	 25.1121 	 -18.8191
| 10> C 	 -133.569 	 24.8592 	 -19.8079
| 11> C 	 -133.297 	 25.9917 	 -20.5362
| 12> H 	 -132.848 	 24.0067 	 -19.8642
| 13> C 	 -134.935 	 24.011 	 -17.7971
| 14> H 	 -135.344 	 23.207 	 -18.3924
| 15> H 	 -135.741 	 24.4463 	 -17.2032
| 16> C 	 -133.797 	 23.5915 	 -16.97
| 17> H 	 -134.205 	 22.8277 	 -16.2972
| 18> H 	 -132.949 	 23.2506 	 -17.4692
| 19> C 	 -133.298 	 24.6931 	 -15.9956
| 20> H 	 -134.047 	 25.0269 	 -15.282
| 21> H 	 -132.5 	 24.2723 	 -15.4335
| 22> H 	 -132.906 	 25.612 	 -16.4439
| 23> S 	 -132.921 	 26.8085 	 -23.0732
| 24> C 	 -131.534 	 26.1304 	 -23.9242
| 25> C 	 -130.586 	 25.662 	 -23.0351
| 26> C 	 -131.097 	 25.527 	 -21.7224
| 27> C 	 -132.353 	 26.1043 	 -21.5825
| 28> H 	 -129.743 	 25.2331 	 -23.486
| 29> C 	 -130.249 	 24.8654 	 -20.6402
| 30> H 	 -130.733 	 24.8696 	 -19.6621
| 31> H 	 -129.354 	 25.4398 	 -20.6612
| 32> C 	 -129.696 	 23.4503 	 -20.8682
| 33> H 	 -128.985 	 23.2725 	 -20.0887
| 34> H 	 -129.178 	 23.3896 	 -21.8245
| 35> C 	 -130.784 	 22.3592 	 -20.7196
| 36> H 	 -131.249 	 22.2957 	 -19.7063
| 37> H 	 -130.451 	 21.337 	 -21.0204
| 38> H 	 -131.673 	 22.6815 	 -21.2887
| 39> H 	 -136.262 	 26.6028 	 -18.6059
| 40> H 	 -131.187 	 26.2029 	 -24.9771
| 41> *
| 42>
| 43>                          ****END OF INPUT****

CARTESIAN COORDINATES (ANGSTROEM)
---------------------------------
  S    -134.629000   27.144200  -20.367500
  C    -135.336000   26.215400  -19.103100
  C    -134.597000   25.112100  -18.819100
  C    -133.569000   24.859200  -19.807900
  C    -133.297000   25.991700  -20.536200
  H    -132.848000   24.006700  -19.864200
  C    -134.935000   24.011000  -17.797100
  H    -135.344000   23.207000  -18.392400
  H    -135.741000   24.446300  -17.203200
  C    -133.797000   23.591500  -16.970000
  H    -134.205000   22.827700  -16.297200
  H    -132.949000   23.250600  -17.469200
  C    -133.298000   24.693100  -15.995600
  H    -134.047000   25.026900  -15.282000
  H    -132.500000   24.272300  -15.433500
  H    -132.906000   25.612000  -16.443900
  S    -132.921000   26.808500  -23.073200
  C    -131.534000   26.130400  -23.924200
  C    -130.586000   25.662000  -23.035100
  C    -131.097000   25.527000  -21.722400
  C    -132.353000   26.104300  -21.582500
  H    -129.743000   25.233100  -23.486000
  C    -130.249000   24.865400  -20.640200
  H    -130.733000   24.869600  -19.662100
  H    -129.354000   25.439800  -20.661200
  C    -129.696000   23.450300  -20.868200
  H    -128.985000   23.272500  -20.088700
  H    -129.178000   23.389600  -21.824500
  C    -130.784000   22.359200  -20.719600
  H    -131.249000   22.295700  -19.706300
  H    -130.451000   21.337000  -21.020400
  H    -131.673000   22.681500  -21.288700
  H    -136.262000   26.602800  -18.605900
  H    -131.187000   26.202900  -24.977100

 Total Charge           Charge          ....    0
 Multiplicity           Mult            ....    1
 Number of Electrons    NEL             ....  134
 Basis Dimension        Dim             ....  322

ORBITAL ENERGIES
----------------

  NO   OCC          E(Eh)            E(eV)
   0   2.0000     -88.967517     -2420.9292
   1   2.0000     -88.960147     -2420.7287
   2   2.0000     -10.324952      -280.9562
   3   2.0000     -10.322507      -280.8897
   4   2.0000     -10.319967      -280.8206
   5   2.0000     -10.312070      -280.6057
   6   2.0000     -10.305470      -280.4261
   7   2.0000     -10.298232      -280.2291
   8   2.0000     -10.294852      -280.1372
   9   2.0000     -10.291361      -280.0422
  10   2.0000     -10.289936      -280.0034
  11   2.0000     -10.288900      -279.9752
  12   2.0000     -10.286651      -279.9140
  13   2.0000     -10.286491      -279.9096
  14   2.0000     -10.280849      -279.7561
  15   2.0000     -10.271028      -279.4889
  16   2.0000      -8.082135      -219.9261
  17   2.0000      -8.075671      -219.7502
  18   2.0000      -6.040824      -164.3792
  19   2.0000      -6.036701      -164.2670
  20   2.0000      -6.034232      -164.1998
  21   2.0000      -6.032637      -164.1564
  22   2.0000      -6.030200      -164.0901
  23   2.0000      -6.026218      -163.9817
  24   2.0000      -1.012321       -27.5466
  25   2.0000      -0.986116       -26.8336
  26   2.0000      -0.918457       -24.9925
  27   2.0000      -0.912312       -24.8253
  28   2.0000      -0.877518       -23.8785
  29   2.0000      -0.852035       -23.1851
  30   2.0000      -0.841416       -22.8961
  31   2.0000      -0.815813       -22.1994
  32   2.0000      -0.784589       -21.3498
  33   2.0000      -0.775550       -21.1038
  34   2.0000      -0.716313       -19.4919
  35   2.0000      -0.697720       -18.9859
  36   2.0000      -0.693204       -18.8630
  37   2.0000      -0.661516       -18.0008
  38   2.0000      -0.637464       -17.3463
  39   2.0000      -0.623092       -16.9552
  40   2.0000      -0.594692       -16.1824
  41   2.0000      -0.568045       -15.4573
  42   2.0000      -0.558803       -15.2058
  43   2.0000      -0.555946       -15.1281
  44   2.0000      -0.545719       -14.8498
  45   2.0000      -0.536981       -14.6120
  46   2.0000      -0.520401       -14.1608
  47   2.0000      -0.513884       -13.9835
  48   2.0000      -0.504444       -13.7266
  49   2.0000      -0.502998       -13.6873
  50   2.0000      -0.492378       -13.3983
  51   2.0000      -0.479950       -13.0601
  52   2.0000      -0.468941       -12.7605
  53   2.0000      -0.459290       -12.4979
  54   2.0000      -0.454412       -12.3652
  55   2.0000      -0.449794       -12.2395
  56   2.0000      -0.447080       -12.1657
  57   2.0000      -0.441810       -12.0223
  58   2.0000      -0.437530       -11.9058
  59   2.0000      -0.428974       -11.6730
  60   2.0000      -0.426129       -11.5956
  61   2.0000      -0.414806       -11.2874
  62   2.0000      -0.406025       -11.0485
  63   2.0000      -0.359055        -9.7704
  64   2.0000      -0.334422        -9.1001
  65   2.0000      -0.323364        -8.7992
  66   2.0000      -0.283950        -7.7267
  67   0.0000       0.024623         0.6700
  68   0.0000       0.076957         2.0941
  69   0.0000       0.102205         2.7812
  70   0.0000       0.113870         3.0986
  71   0.0000       0.125770         3.4224

MULLIKEN ATOMIC CHARGES
-----------------------
   0 S :    0.082451
   1 C :   -0.148323
   2 C :   -0.096877
   3 C :    0.001262
   4 C :   -0.128344
   5 H :   -0.005130
   6 C :    0.108583
   7 H :    0.039085
   8 H :    0.009736
   9 C :   -0.049718
  10 H :    0.031706
  11 H :    0.020786
  12 C :   -0.068721
  13 H :    0.024922
  14 H :    0.021587
  15 H :    0.041233
  16 S :    0.110025
  17 C :   -0.104748
  18 C :   -0.031388
  19 C :   -0.047391
  20 C :   -0.114094
  21 H :    0.005983
  22 C :    0.062699
  23 H :    0.025844
  24 H :    0.029064
  25 C :   -0.052708
  26 H :    0.028891
  27 H :    0.030853
  28 C :   -0.093211
  29 H :    0.035657
  30 H :    0.048106
  31 H :    0.047040
  32 H :    0.069528
  33 H :    0.065612
Sum of atomic charges:    0.0000000

LOEWDIN ATOMIC CHARGES
----------------------
   0 S :    0.389010
   1 C :   -0.211135
   2 C :   -0.065494
   3 C :   -0.066437
   4 C :   -0.179925
   5 H :    0.033389
   6 C :   -0.028674
   7 H :    0.034394
   8 H :    0.029138
   9 C :   -0.037505
  10 H :    0.032796
  11 H :    0.014526
  12 C :   -0.062852
  13 H :    0.022779
  14 H :    0.020676
  15 H :    0.026244
  16 S :    0.403734
  17 C :   -0.183758
  18 C :   -0.069415
  19 C :   -0.053114
  20 C :   -0.201093
  21 H :    0.023439
  22 C :   -0.028849
  23 H :    0.028732
  24 H :    0.035502
  25 C :   -0.034133
  26 H :    0.023730
  27 H :    0.022789
  28 C :   -0.079495
  29 H :    0.024558
  30 H :    0.031191
  31 H :    0.026539
  32 H :    0.038193
  33 H :    0.040520

  Mayer bond orders larger than 0.100000
B(  0-S ,  1-C ) :   1.1289 B(  0-S ,  4-C ) :   1.1298 B(  1-C ,  2-C ) :   1.6384
B(  1-C , 32-H ) :   0.9606 B(  2-C ,  3-C ) :   1.2006 B(  2-C ,  6-C ) :   1.0143
B(  3-C ,  4-C ) :   1.6015 B(  3-C ,  5-H ) :   0.9658 B(  4-C , 20-C ) :   1.0842
B(  6-C ,  7-H ) :   0.9364 B(  6-C ,  8-H ) :   0.9379 B(  6-C ,  9-C ) :   1.0861
B(  9-C , 10-H ) :   0.9496 B(  9-C , 11-H ) :   0.9567 B(  9-C , 12-C ) :   1.0770
B( 12-C , 13-H ) :   0.9756 B( 12-C , 14-H ) :   0.9751 B( 12-C , 15-H ) :   0.9750
B( 16-S , 17-C ) :   1.1484 B( 16-S , 20-C ) :   1.1202 B( 17-C , 18-C ) :   1.6464
B( 17-C , 33-H ) :   0.9569 B( 18-C , 19-C ) :   1.2227 B( 18-C , 21-H ) :   0.9892
B( 19-C , 20-C ) :   1.5926 B( 19-C , 22-C ) :   1.0427 B( 22-C , 23-H ) :   0.9377
B( 22-C , 24-H ) :   0.9249 B( 22-C , 25-C ) :   1.0837 B( 25-C , 26-H ) :   0.9529
B( 25-C , 27-H ) :   0.9542 B( 25-C , 28-C ) :   1.0733 B( 28-C , 29-H ) :   0.9653
B( 28-C , 30-H ) :   0.9699 B( 28-C , 31-H ) :   0.9684

Dispersion correction           -0.015396018
FINAL SINGLE POINT ENERGY     -1339.868785474975

DIPOLE MOMENT
-------------
                                X             Y             Z
Electronic contribution:    -10.17943      20.80667     -19.19789
Nuclear contribution   :     10.58493     -21.42824      19.44147
                        -----------------------------------------
Total Dipole Moment    :      0.40550      -0.62156       0.24358
                        -----------------------------------------
Magnitude (a.u.)       :      0.78109
Magnitude (Debye)      :      1.98538

Rotational constants in cm-1:     0.018207     0.010698     0.007321
Rotational constants in MHz :   545.845511   320.716596   219.481615

                             ****ORCA TERMINATED NORMALLY****
TOTAL RUN TIME: 0 days 0 hours 0 minutes 21 seconds 910 msec
