                         Program Version 4.2.1 -  RELEASE  -
|  1> ! wB97X-D3 SP def2-SVP
|  2> %pal
|  3> nprocs 24
|  4> end
|  5>
|  6> * xyz 0 1
|  7> S 	 -111.479 	 58.5673 	 -74.2002
|  8> C 	 -110.741 	 59.7451 	 -75.2614
|  9> C 	 -111.319 	 61.044 	 -75.065
| 10> C 	 -112.107 	 61.0586 	 -73.8204
| 11> C 	 -112.284 	 59.7773 	 -73.3111
| 12> H 	 -112.653 	 61.8164 	 -73.2478
| 13> C 	 -111.066 	 62.3102 	 -75.788
| 14> H 	 -110.102 	 62.6212 	 -75.404
| 15> H 	 -111.793 	 63.0213 	 -75.3828
| 16> C 	 -110.88 	 62.3191 	 -77.3529
| 17> H 	 -110.763 	 63.3289 	 -77.7325
| 18> H 	 -109.964 	 61.8189 	 -77.5661
| 19> C 	 -112.031 	 61.6955 	 -78.1269
| 20> H 	 -111.808 	 61.5115 	 -79.1982
| 21> H 	 -112.355 	 60.7159 	 -77.7407
| 22> H 	 -112.917 	 62.3302 	 -78.0877
| 23> S 	 -112.238 	 59.0386 	 -70.6857
| 24> C 	 -113.732 	 58.8269 	 -69.8675
| 25> C 	 -114.821 	 59.1607 	 -70.6099
| 26> C 	 -114.506 	 59.436 	 -71.9618
| 27> C 	 -113.116 	 59.4345 	 -72.1668
| 28> H 	 -115.795 	 59.0984 	 -70.1955
| 29> C 	 -115.566 	 59.5785 	 -73.0897
| 30> H 	 -115.186 	 59.2586 	 -74.0788
| 31> H 	 -115.765 	 60.6338 	 -73.2001
| 32> C 	 -116.939 	 58.7463 	 -72.8442
| 33> H 	 -117.456 	 59.1087 	 -71.9889
| 34> H 	 -116.634 	 57.7456 	 -72.4748
| 35> C 	 -117.852 	 58.5544 	 -74.0464
| 36> H 	 -118.797 	 58.016 	 -73.8292
| 37> H 	 -117.468 	 58.15 	 -74.9101
| 38> H 	 -118.154 	 59.6177 	 -74.2935
| 39> H 	 -110.04 	 59.539 	 -76.0226
| 40> H 	 -113.809 	 58.4964 	 -68.9369
| 41> *
| 42>
| 43>                          ****END OF INPUT****

CARTESIAN COORDINATES (ANGSTROEM)
---------------------------------
  S    -111.479000   58.567300  -74.200200
  C    -110.741000   59.745100  -75.261400
  C    -111.319000   61.044000  -75.065000
  C    -112.107000   61.058600  -73.820400
  C    -112.284000   59.777300  -73.311100
  H    -112.653000   61.816400  -73.247800
  C    -111.066000   62.310200  -75.788000
  H    -110.102000   62.621200  -75.404000
  H    -111.793000   63.021300  -75.382800
  C    -110.880000   62.319100  -77.352900
  H    -110.763000   63.328900  -77.732500
  H    -109.964000   61.818900  -77.566100
  C    -112.031000   61.695500  -78.126900
  H    -111.808000   61.511500  -79.198200
  H    -112.355000   60.715900  -77.740700
  H    -112.917000   62.330200  -78.087700
  S    -112.238000   59.038600  -70.685700
  C    -113.732000   58.826900  -69.867500
  C    -114.821000   59.160700  -70.609900
  C    -114.506000   59.436000  -71.961800
  C    -113.116000   59.434500  -72.166800
  H    -115.795000   59.098400  -70.195500
  C    -115.566000   59.578500  -73.089700
  H    -115.186000   59.258600  -74.078800
  H    -115.765000   60.633800  -73.200100
  C    -116.939000   58.746300  -72.844200
  H    -117.456000   59.108700  -71.988900
  H    -116.634000   57.745600  -72.474800
  C    -117.852000   58.554400  -74.046400
  H    -118.797000   58.016000  -73.829200
  H    -117.468000   58.150000  -74.910100
  H    -118.154000   59.617700  -74.293500
  H    -110.040000   59.539000  -76.022600
  H    -113.809000   58.496400  -68.936900

 Total Charge           Charge          ....    0
 Multiplicity           Mult            ....    1
 Number of Electrons    NEL             ....  134
 Basis Dimension        Dim             ....  322

ORBITAL ENERGIES
----------------

  NO   OCC          E(Eh)            E(eV)
   0   2.0000     -88.965470     -2420.8735
   1   2.0000     -88.963346     -2420.8157
   2   2.0000     -10.322673      -280.8942
   3   2.0000     -10.320139      -280.8253
   4   2.0000     -10.313302      -280.6392
   5   2.0000     -10.311026      -280.5773
   6   2.0000     -10.307662      -280.4858
   7   2.0000     -10.302420      -280.3431
   8   2.0000     -10.300549      -280.2922
   9   2.0000     -10.295670      -280.1594
  10   2.0000     -10.292236      -280.0660
  11   2.0000     -10.291211      -280.0381
  12   2.0000     -10.288933      -279.9761
  13   2.0000     -10.286636      -279.9136
  14   2.0000     -10.279201      -279.7113
  15   2.0000     -10.275568      -279.6124
  16   2.0000      -8.080701      -219.8871
  17   2.0000      -8.078643      -219.8311
  18   2.0000      -6.039044      -164.3307
  19   2.0000      -6.036942      -164.2736
  20   2.0000      -6.035084      -164.2230
  21   2.0000      -6.033119      -164.1695
  22   2.0000      -6.031670      -164.1301
  23   2.0000      -6.029558      -164.0726
  24   2.0000      -1.005642       -27.3649
  25   2.0000      -0.982367       -26.7316
  26   2.0000      -0.910724       -24.7821
  27   2.0000      -0.897256       -24.4156
  28   2.0000      -0.866142       -23.5689
  29   2.0000      -0.852163       -23.1885
  30   2.0000      -0.848826       -23.0977
  31   2.0000      -0.811789       -22.0899
  32   2.0000      -0.782590       -21.2954
  33   2.0000      -0.771318       -20.9886
  34   2.0000      -0.709936       -19.3183
  35   2.0000      -0.707296       -19.2465
  36   2.0000      -0.697875       -18.9902
  37   2.0000      -0.655964       -17.8497
  38   2.0000      -0.643492       -17.5103
  39   2.0000      -0.604681       -16.4542
  40   2.0000      -0.594840       -16.1864
  41   2.0000      -0.571527       -15.5521
  42   2.0000      -0.558564       -15.1993
  43   2.0000      -0.551358       -15.0032
  44   2.0000      -0.542855       -14.7718
  45   2.0000      -0.521921       -14.2022
  46   2.0000      -0.517304       -14.0765
  47   2.0000      -0.512673       -13.9506
  48   2.0000      -0.505015       -13.7422
  49   2.0000      -0.493302       -13.4234
  50   2.0000      -0.487598       -13.2682
  51   2.0000      -0.480186       -13.0665
  52   2.0000      -0.472403       -12.8547
  53   2.0000      -0.466046       -12.6818
  54   2.0000      -0.461859       -12.5678
  55   2.0000      -0.455943       -12.4068
  56   2.0000      -0.438490       -11.9319
  57   2.0000      -0.437930       -11.9167
  58   2.0000      -0.435744       -11.8572
  59   2.0000      -0.426440       -11.6040
  60   2.0000      -0.420026       -11.4295
  61   2.0000      -0.418697       -11.3933
  62   2.0000      -0.409718       -11.1490
  63   2.0000      -0.336612        -9.1597
  64   2.0000      -0.324798        -8.8382
  65   2.0000      -0.316912        -8.6236
  66   2.0000      -0.303328        -8.2540
  67   0.0000       0.040573         1.1040
  68   0.0000       0.062930         1.7124
  69   0.0000       0.115006         3.1295
  70   0.0000       0.125160         3.4058
  71   0.0000       0.127037         3.4569

MULLIKEN ATOMIC CHARGES
-----------------------
   0 S :    0.131851
   1 C :   -0.106533
   2 C :   -0.111587
   3 C :    0.038779
   4 C :   -0.187566
   5 H :    0.021194
   6 C :    0.059468
   7 H :    0.042352
   8 H :    0.027768
   9 C :   -0.035420
  10 H :    0.030021
  11 H :    0.019209
  12 C :   -0.072562
  13 H :    0.035270
  14 H :    0.036339
  15 H :    0.027973
  16 S :    0.119007
  17 C :   -0.021590
  18 C :   -0.034599
  19 C :   -0.008080
  20 C :   -0.210963
  21 H :    0.003798
  22 C :    0.083448
  23 H :    0.036860
  24 H :    0.033231
  25 C :   -0.104111
  26 H :    0.025795
  27 H :    0.029380
  28 C :   -0.028158
  29 H :    0.040545
  30 H :    0.023500
  31 H :    0.025068
  32 H :    0.034999
  33 H :   -0.004682
Sum of atomic charges:   -0.0000000

LOEWDIN ATOMIC CHARGES
----------------------
   0 S :    0.432618
   1 C :   -0.207884
   2 C :   -0.049539
   3 C :   -0.065878
   4 C :   -0.222966
   5 H :    0.037870
   6 C :   -0.038550
   7 H :    0.041732
   8 H :    0.032994
   9 C :   -0.035371
  10 H :    0.028763
  11 H :    0.018810
  12 C :   -0.073583
  13 H :    0.028394
  14 H :    0.025311
  15 H :    0.023856
  16 S :    0.418140
  17 C :   -0.166903
  18 C :   -0.069073
  19 C :   -0.047522
  20 C :   -0.206094
  21 H :    0.026746
  22 C :   -0.024755
  23 H :    0.034561
  24 H :    0.029101
  25 C :   -0.043085
  26 H :    0.016565
  27 H :    0.023671
  28 C :   -0.062893
  29 H :    0.034014
  30 H :    0.012990
  31 H :    0.031433
  32 H :    0.017249
  33 H :   -0.000723

  Mayer bond orders larger than 0.100000
B(  0-S ,  1-C ) :   1.1425 B(  0-S ,  4-C ) :   1.1754 B(  1-C ,  2-C ) :   1.5748
B(  1-C , 32-H ) :   0.9786 B(  2-C ,  3-C ) :   1.2158 B(  2-C ,  6-C ) :   1.0278
B(  3-C ,  4-C ) :   1.5972 B(  3-C ,  5-H ) :   0.9846 B(  4-C , 20-C ) :   1.0053
B(  6-C ,  7-H ) :   0.9306 B(  6-C ,  8-H ) :   0.9429 B(  6-C ,  9-C ) :   1.0678
B(  9-C , 10-H ) :   0.9553 B(  9-C , 11-H ) :   0.9533 B(  9-C , 12-C ) :   1.0821
B( 12-C , 13-H ) :   0.9749 B( 12-C , 14-H ) :   0.9738 B( 12-C , 15-H ) :   0.9763
B( 16-S , 17-C ) :   1.1661 B( 16-S , 20-C ) :   1.1561 B( 17-C , 18-C ) :   1.6064
B( 17-C , 20-C ) :   0.1022 B( 17-C , 33-H ) :   0.9793 B( 18-C , 19-C ) :   1.2478
B( 18-C , 21-H ) :   0.9941 B( 19-C , 20-C ) :   1.6005 B( 19-C , 22-C ) :   1.0259
B( 22-C , 23-H ) :   0.9478 B( 22-C , 24-H ) :   0.9303 B( 22-C , 25-C ) :   1.0443
B( 25-C , 26-H ) :   0.9526 B( 25-C , 27-H ) :   0.9616 B( 25-C , 28-C ) :   1.0869
B( 28-C , 29-H ) :   0.9724 B( 28-C , 30-H ) :   0.9776 B( 28-C , 31-H ) :   0.9734

Dispersion correction           -0.013967526
FINAL SINGLE POINT ENERGY     -1339.863784164315

DIPOLE MOMENT
-------------
                                X             Y             Z
Electronic contribution:     15.80454      -9.47664      19.42877
Nuclear contribution   :    -16.17822       9.80954     -19.66729
                        -----------------------------------------
Total Dipole Moment    :     -0.37369       0.33289      -0.23853
                        -----------------------------------------
Magnitude (a.u.)       :      0.55440
Magnitude (Debye)      :      1.40916

Rotational constants in cm-1:     0.018143     0.008108     0.006328
Rotational constants in MHz :   543.912262   243.069285   189.715936

                             ****ORCA TERMINATED NORMALLY****
TOTAL RUN TIME: 0 days 0 hours 0 minutes 21 seconds 52 msec
