                         Program Version 4.2.1 -  RELEASE  -
|  1> ! wB97X-D3 SP def2-SVP
|  2> %pal
|  3> nprocs 24
|  4> end
|  5>
|  6> * xyz 0 1
|  7> S 	 -65.4609 	 11.1067 	 -72.029
|  8> C 	 -66.0899 	 9.91278 	 -70.8638
|  9> C 	 -66.5501 	 10.6071 	 -69.7369
| 10> C 	 -66.4701 	 12.0356 	 -69.8305
| 11> C 	 -66.0205 	 12.4326 	 -71.0148
| 12> H 	 -66.669 	 12.7796 	 -69.072
| 13> C 	 -67.1708 	 9.97413 	 -68.5458
| 14> H 	 -67.5454 	 8.96082 	 -68.8667
| 15> H 	 -68.1565 	 10.407 	 -68.2958
| 16> C 	 -66.3728 	 9.75421 	 -67.2553
| 17> H 	 -66.9315 	 9.12805 	 -66.5087
| 18> H 	 -65.5029 	 9.09699 	 -67.4396
| 19> C 	 -65.8189 	 11.0848 	 -66.69
| 20> H 	 -65.2723 	 11.7249 	 -67.2523
| 21> H 	 -66.6782 	 11.6333 	 -66.3427
| 22> H 	 -65.2663 	 10.9936 	 -65.8057
| 23> S 	 -64.2342 	 14.459 	 -71.3137
| 24> C 	 -64.7915 	 15.8757 	 -72.2115
| 25> C 	 -66.1143 	 15.8697 	 -72.4437
| 26> C 	 -66.7779 	 14.7215 	 -71.8847
| 27> C 	 -65.8527 	 13.8088 	 -71.3979
| 28> H 	 -66.6184 	 16.6958 	 -72.914
| 29> C 	 -68.2105 	 14.3261 	 -72.0154
| 30> H 	 -68.5526 	 14.246 	 -70.9861
| 31> H 	 -68.1935 	 13.2931 	 -72.4506
| 32> C 	 -69.0908 	 15.1769 	 -72.9209
| 33> H 	 -68.7251 	 14.8713 	 -73.9166
| 34> H 	 -69.0837 	 16.2473 	 -72.6919
| 35> C 	 -70.5128 	 14.5657 	 -72.8722
| 36> H 	 -70.4995 	 13.4928 	 -73.2158
| 37> H 	 -71.1579 	 15.073 	 -73.5751
| 38> H 	 -71.0734 	 14.7851 	 -71.9279
| 39> H 	 -65.9757 	 8.83768 	 -70.9521
| 40> H 	 -64.1787 	 16.5366 	 -72.7436
| 41> *
| 42>
| 43>                          ****END OF INPUT****

CARTESIAN COORDINATES (ANGSTROEM)
---------------------------------
  S    -65.460900   11.106700  -72.029000
  C    -66.089900    9.912780  -70.863800
  C    -66.550100   10.607100  -69.736900
  C    -66.470100   12.035600  -69.830500
  C    -66.020500   12.432600  -71.014800
  H    -66.669000   12.779600  -69.072000
  C    -67.170800    9.974130  -68.545800
  H    -67.545400    8.960820  -68.866700
  H    -68.156500   10.407000  -68.295800
  C    -66.372800    9.754210  -67.255300
  H    -66.931500    9.128050  -66.508700
  H    -65.502900    9.096990  -67.439600
  C    -65.818900   11.084800  -66.690000
  H    -65.272300   11.724900  -67.252300
  H    -66.678200   11.633300  -66.342700
  H    -65.266300   10.993600  -65.805700
  S    -64.234200   14.459000  -71.313700
  C    -64.791500   15.875700  -72.211500
  C    -66.114300   15.869700  -72.443700
  C    -66.777900   14.721500  -71.884700
  C    -65.852700   13.808800  -71.397900
  H    -66.618400   16.695800  -72.914000
  C    -68.210500   14.326100  -72.015400
  H    -68.552600   14.246000  -70.986100
  H    -68.193500   13.293100  -72.450600
  C    -69.090800   15.176900  -72.920900
  H    -68.725100   14.871300  -73.916600
  H    -69.083700   16.247300  -72.691900
  C    -70.512800   14.565700  -72.872200
  H    -70.499500   13.492800  -73.215800
  H    -71.157900   15.073000  -73.575100
  H    -71.073400   14.785100  -71.927900
  H    -65.975700    8.837680  -70.952100
  H    -64.178700   16.536600  -72.743600

 Total Charge           Charge          ....    0
 Multiplicity           Mult            ....    1
 Number of Electrons    NEL             ....  134
 Basis Dimension        Dim             ....  322

ORBITAL ENERGIES
----------------

  NO   OCC          E(Eh)            E(eV)
   0   2.0000     -88.965131     -2420.8643
   1   2.0000     -88.961664     -2420.7699
   2   2.0000     -10.320609      -280.8380
   3   2.0000     -10.319922      -280.8194
   4   2.0000     -10.314907      -280.6829
   5   2.0000     -10.306965      -280.4668
   6   2.0000     -10.303280      -280.3665
   7   2.0000     -10.297904      -280.2202
   8   2.0000     -10.293520      -280.1009
   9   2.0000     -10.291634      -280.0496
  10   2.0000     -10.291074      -280.0344
  11   2.0000     -10.288872      -279.9744
  12   2.0000     -10.287389      -279.9341
  13   2.0000     -10.287277      -279.9310
  14   2.0000     -10.283316      -279.8232
  15   2.0000     -10.262055      -279.2447
  16   2.0000      -8.079235      -219.8471
  17   2.0000      -8.076432      -219.7709
  18   2.0000      -6.037896      -164.2995
  19   2.0000      -6.034939      -164.2190
  20   2.0000      -6.033864      -164.1898
  21   2.0000      -6.031062      -164.1135
  22   2.0000      -6.029825      -164.0799
  23   2.0000      -6.027083      -164.0053
  24   2.0000      -1.008212       -27.4348
  25   2.0000      -0.982591       -26.7376
  26   2.0000      -0.911821       -24.8119
  27   2.0000      -0.909089       -24.7376
  28   2.0000      -0.872601       -23.7447
  29   2.0000      -0.848501       -23.0889
  30   2.0000      -0.845359       -23.0034
  31   2.0000      -0.822016       -22.3682
  32   2.0000      -0.783953       -21.3324
  33   2.0000      -0.766483       -20.8571
  34   2.0000      -0.707132       -19.2420
  35   2.0000      -0.702315       -19.1110
  36   2.0000      -0.700966       -19.0743
  37   2.0000      -0.648887       -17.6571
  38   2.0000      -0.645325       -17.5602
  39   2.0000      -0.615131       -16.7386
  40   2.0000      -0.596583       -16.2338
  41   2.0000      -0.580155       -15.7868
  42   2.0000      -0.568831       -15.4787
  43   2.0000      -0.544558       -14.8182
  44   2.0000      -0.542822       -14.7709
  45   2.0000      -0.522179       -14.2092
  46   2.0000      -0.515522       -14.0281
  47   2.0000      -0.511831       -13.9276
  48   2.0000      -0.505874       -13.7655
  49   2.0000      -0.497224       -13.5302
  50   2.0000      -0.493497       -13.4287
  51   2.0000      -0.474342       -12.9075
  52   2.0000      -0.467573       -12.7233
  53   2.0000      -0.463310       -12.6073
  54   2.0000      -0.459571       -12.5056
  55   2.0000      -0.451885       -12.2964
  56   2.0000      -0.444945       -12.1076
  57   2.0000      -0.436390       -11.8748
  58   2.0000      -0.430578       -11.7166
  59   2.0000      -0.425403       -11.5758
  60   2.0000      -0.418937       -11.3998
  61   2.0000      -0.415339       -11.3019
  62   2.0000      -0.403633       -10.9834
  63   2.0000      -0.339043        -9.2258
  64   2.0000      -0.330372        -8.9899
  65   2.0000      -0.318924        -8.6784
  66   2.0000      -0.304416        -8.2836
  67   0.0000       0.039048         1.0625
  68   0.0000       0.058534         1.5928
  69   0.0000       0.119421         3.2496
  70   0.0000       0.120848         3.2884
  71   0.0000       0.124482         3.3873

MULLIKEN ATOMIC CHARGES
-----------------------
   0 S :    0.108548
   1 C :   -0.119158
   2 C :   -0.060326
   3 C :    0.048837
   4 C :   -0.163544
   5 H :    0.020484
   6 C :    0.023990
   7 H :    0.012761
   8 H :    0.033057
   9 C :   -0.060532
  10 H :    0.037102
  11 H :    0.023843
  12 C :   -0.005940
  13 H :    0.020253
  14 H :    0.008820
  15 H :    0.011455
  16 S :    0.108159
  17 C :   -0.045651
  18 C :   -0.053412
  19 C :   -0.012029
  20 C :   -0.212807
  21 H :    0.015681
  22 C :    0.045527
  23 H :    0.027375
  24 H :    0.046829
  25 C :   -0.077933
  26 H :    0.036084
  27 H :    0.046880
  28 C :   -0.058775
  29 H :    0.046179
  30 H :    0.019488
  31 H :    0.038651
  32 H :    0.055952
  33 H :    0.034155
Sum of atomic charges:    0.0000000

LOEWDIN ATOMIC CHARGES
----------------------
   0 S :    0.385036
   1 C :   -0.183916
   2 C :   -0.059737
   3 C :   -0.057195
   4 C :   -0.192642
   5 H :    0.037665
   6 C :   -0.046614
   7 H :    0.033503
   8 H :    0.032624
   9 C :   -0.038402
  10 H :    0.032195
  11 H :    0.022567
  12 C :   -0.061777
  13 H :    0.012518
  14 H :    0.024362
  15 H :    0.022113
  16 S :    0.393786
  17 C :   -0.171520
  18 C :   -0.070233
  19 C :   -0.052329
  20 C :   -0.206516
  21 H :    0.031279
  22 C :   -0.040547
  23 H :    0.030922
  24 H :    0.042886
  25 C :   -0.042522
  26 H :    0.033590
  27 H :    0.025482
  28 C :   -0.071712
  29 H :    0.034563
  30 H :    0.019916
  31 H :    0.028899
  32 H :    0.032101
  33 H :    0.019653

  Mayer bond orders larger than 0.100000
B(  0-S ,  1-C ) :   1.1193 B(  0-S ,  4-C ) :   1.1280 B(  1-C ,  2-C ) :   1.6285
B(  1-C , 32-H ) :   0.9701 B(  2-C ,  3-C ) :   1.1938 B(  2-C ,  6-C ) :   1.0299
B(  3-C ,  4-C ) :   1.6290 B(  3-C ,  5-H ) :   0.9928 B(  4-C , 20-C ) :   1.0235
B(  6-C ,  7-H ) :   0.9339 B(  6-C ,  8-H ) :   0.9450 B(  6-C ,  9-C ) :   1.0747
B(  9-C , 10-H ) :   0.9547 B(  9-C , 11-H ) :   0.9551 B(  9-C , 12-C ) :   1.0729
B( 12-C , 13-H ) :   0.9744 B( 12-C , 14-H ) :   0.9713 B( 12-C , 15-H ) :   0.9683
B( 16-S , 17-C ) :   1.1322 B( 16-S , 20-C ) :   1.1443 B( 17-C , 18-C ) :   1.6523
B( 17-C , 33-H ) :   0.9613 B( 18-C , 19-C ) :   1.2226 B( 18-C , 21-H ) :   0.9872
B( 19-C , 20-C ) :   1.6159 B( 19-C , 22-C ) :   1.0360 B( 22-C , 23-H ) :   0.9224
B( 22-C , 24-H ) :   0.9305 B( 22-C , 25-C ) :   1.0793 B( 25-C , 26-H ) :   0.9510
B( 25-C , 27-H ) :   0.9519 B( 25-C , 28-C ) :   1.0933 B( 28-C , 29-H ) :   0.9711
B( 28-C , 30-H ) :   0.9723 B( 28-C , 31-H ) :   0.9736

Dispersion correction           -0.014389653
FINAL SINGLE POINT ENERGY     -1339.860651641074

DIPOLE MOMENT
-------------
                                X             Y             Z
Electronic contribution:     19.40284       2.09401     -10.62997
Nuclear contribution   :    -19.91503      -2.07854      10.80038
                        -----------------------------------------
Total Dipole Moment    :     -0.51219       0.01547       0.17041
                        -----------------------------------------
Magnitude (a.u.)       :      0.54002
Magnitude (Debye)      :      1.37262

Rotational constants in cm-1:     0.017911     0.008506     0.007267
Rotational constants in MHz :   536.969077   255.002530   217.861623

                             ****ORCA TERMINATED NORMALLY****
TOTAL RUN TIME: 0 days 0 hours 0 minutes 20 seconds 396 msec
