                         Program Version 4.2.1 -  RELEASE  -
|  1> ! wB97X-D3 SP def2-SVP
|  2> %pal
|  3> nprocs 24
|  4> end
|  5>
|  6> * xyz 0 1
|  7> S 	 -69.374 	 -42.6009 	 -91.9746
|  8> C 	 -68.2691 	 -41.3481 	 -92.2327
|  9> C 	 -68.0378 	 -41.1307 	 -93.5922
| 10> C 	 -68.6665 	 -42.0341 	 -94.4614
| 11> C 	 -69.3986 	 -42.9583 	 -93.7357
| 12> H 	 -68.7577 	 -42.1059 	 -95.5138
| 13> C 	 -67.383 	 -39.8793 	 -94.1742
| 14> H 	 -67.6324 	 -38.9087 	 -93.6525
| 15> H 	 -67.872 	 -39.7851 	 -95.1498
| 16> C 	 -65.8756 	 -39.9934 	 -94.4203
| 17> H 	 -65.636 	 -39.1004 	 -94.9137
| 18> H 	 -65.3546 	 -40.0918 	 -93.3844
| 19> C 	 -65.3453 	 -41.1586 	 -95.3093
| 20> H 	 -65.7604 	 -40.9569 	 -96.3412
| 21> H 	 -64.2495 	 -41.0895 	 -95.3452
| 22> H 	 -65.6928 	 -42.199 	 -95.0261
| 23> S 	 -69.944 	 -45.6732 	 -93.7965
| 24> C 	 -71.2272 	 -46.3259 	 -94.7291
| 25> C 	 -71.7714 	 -45.3585 	 -95.5247
| 26> C 	 -71.0984 	 -44.0716 	 -95.4217
| 27> C 	 -70.1907 	 -44.0448 	 -94.3256
| 28> H 	 -72.5878 	 -45.5311 	 -96.1622
| 29> C 	 -71.6414 	 -42.7912 	 -96.0269
| 30> H 	 -71.4672 	 -41.9943 	 -95.3876
| 31> H 	 -72.6478 	 -42.9425 	 -96.2263
| 32> C 	 -70.9393 	 -42.3845 	 -97.3359
| 33> H 	 -71.2737 	 -43.1604 	 -98.0829
| 34> H 	 -69.8607 	 -42.3722 	 -97.2322
| 35> C 	 -71.4439 	 -40.9904 	 -97.7563
| 36> H 	 -72.4256 	 -40.9836 	 -98.1883
| 37> H 	 -70.7474 	 -40.528 	 -98.4648
| 38> H 	 -71.4183 	 -40.3177 	 -96.8861
| 39> H 	 -67.6753 	 -40.7295 	 -91.5538
| 40> H 	 -71.622 	 -47.3079 	 -94.6883
| 41> *
| 42>
| 43>                          ****END OF INPUT****

CARTESIAN COORDINATES (ANGSTROEM)
---------------------------------
  S    -69.374000  -42.600900  -91.974600
  C    -68.269100  -41.348100  -92.232700
  C    -68.037800  -41.130700  -93.592200
  C    -68.666500  -42.034100  -94.461400
  C    -69.398600  -42.958300  -93.735700
  H    -68.757700  -42.105900  -95.513800
  C    -67.383000  -39.879300  -94.174200
  H    -67.632400  -38.908700  -93.652500
  H    -67.872000  -39.785100  -95.149800
  C    -65.875600  -39.993400  -94.420300
  H    -65.636000  -39.100400  -94.913700
  H    -65.354600  -40.091800  -93.384400
  C    -65.345300  -41.158600  -95.309300
  H    -65.760400  -40.956900  -96.341200
  H    -64.249500  -41.089500  -95.345200
  H    -65.692800  -42.199000  -95.026100
  S    -69.944000  -45.673200  -93.796500
  C    -71.227200  -46.325900  -94.729100
  C    -71.771400  -45.358500  -95.524700
  C    -71.098400  -44.071600  -95.421700
  C    -70.190700  -44.044800  -94.325600
  H    -72.587800  -45.531100  -96.162200
  C    -71.641400  -42.791200  -96.026900
  H    -71.467200  -41.994300  -95.387600
  H    -72.647800  -42.942500  -96.226300
  C    -70.939300  -42.384500  -97.335900
  H    -71.273700  -43.160400  -98.082900
  H    -69.860700  -42.372200  -97.232200
  C    -71.443900  -40.990400  -97.756300
  H    -72.425600  -40.983600  -98.188300
  H    -70.747400  -40.528000  -98.464800
  H    -71.418300  -40.317700  -96.886100
  H    -67.675300  -40.729500  -91.553800
  H    -71.622000  -47.307900  -94.688300

 Total Charge           Charge          ....    0
 Multiplicity           Mult            ....    1
 Number of Electrons    NEL             ....  134
 Basis Dimension        Dim             ....  322

ORBITAL ENERGIES
----------------

  NO   OCC          E(Eh)            E(eV)
   0   2.0000     -88.973870     -2421.1021
   1   2.0000     -88.962186     -2420.7841
   2   2.0000     -10.332551      -281.1630
   3   2.0000     -10.326967      -281.0111
   4   2.0000     -10.313562      -280.6463
   5   2.0000     -10.310566      -280.5648
   6   2.0000     -10.304483      -280.3992
   7   2.0000     -10.298387      -280.2334
   8   2.0000     -10.294791      -280.1355
   9   2.0000     -10.293228      -280.0930
  10   2.0000     -10.290773      -280.0262
  11   2.0000     -10.290058      -280.0067
  12   2.0000     -10.289866      -280.0015
  13   2.0000     -10.287474      -279.9364
  14   2.0000     -10.278534      -279.6931
  15   2.0000     -10.277834      -279.6741
  16   2.0000      -8.088362      -220.0955
  17   2.0000      -8.077869      -219.8100
  18   2.0000      -6.046764      -164.5408
  19   2.0000      -6.042895      -164.4355
  20   2.0000      -6.039240      -164.3361
  21   2.0000      -6.036326      -164.2568
  22   2.0000      -6.032038      -164.1401
  23   2.0000      -6.028831      -164.0528
  24   2.0000      -1.008685       -27.4477
  25   2.0000      -0.988892       -26.9091
  26   2.0000      -0.913724       -24.8637
  27   2.0000      -0.906996       -24.6806
  28   2.0000      -0.872633       -23.7455
  29   2.0000      -0.852198       -23.1895
  30   2.0000      -0.846328       -23.0298
  31   2.0000      -0.815986       -22.2041
  32   2.0000      -0.780575       -21.2405
  33   2.0000      -0.769073       -20.9275
  34   2.0000      -0.705195       -19.1893
  35   2.0000      -0.696265       -18.9463
  36   2.0000      -0.691762       -18.8238
  37   2.0000      -0.665848       -18.1186
  38   2.0000      -0.643527       -17.5113
  39   2.0000      -0.613513       -16.6945
  40   2.0000      -0.596745       -16.2382
  41   2.0000      -0.578301       -15.7364
  42   2.0000      -0.575952       -15.6724
  43   2.0000      -0.546506       -14.8712
  44   2.0000      -0.540205       -14.6997
  45   2.0000      -0.519837       -14.1455
  46   2.0000      -0.514039       -13.9877
  47   2.0000      -0.512323       -13.9410
  48   2.0000      -0.509493       -13.8640
  49   2.0000      -0.504191       -13.7197
  50   2.0000      -0.486920       -13.2498
  51   2.0000      -0.481038       -13.0897
  52   2.0000      -0.477500       -12.9934
  53   2.0000      -0.465933       -12.6787
  54   2.0000      -0.462376       -12.5819
  55   2.0000      -0.447368       -12.1735
  56   2.0000      -0.442253       -12.0343
  57   2.0000      -0.440308       -11.9814
  58   2.0000      -0.436444       -11.8762
  59   2.0000      -0.427200       -11.6247
  60   2.0000      -0.419977       -11.4282
  61   2.0000      -0.411725       -11.2036
  62   2.0000      -0.407923       -11.1002
  63   2.0000      -0.351536        -9.5658
  64   2.0000      -0.330793        -9.0013
  65   2.0000      -0.325498        -8.8573
  66   2.0000      -0.291436        -7.9304
  67   0.0000       0.025905         0.7049
  68   0.0000       0.072526         1.9735
  69   0.0000       0.104234         2.8364
  70   0.0000       0.121129         3.2961
  71   0.0000       0.132687         3.6106

MULLIKEN ATOMIC CHARGES
-----------------------
   0 S :    0.141603
   1 C :   -0.090364
   2 C :   -0.093273
   3 C :    0.060508
   4 C :   -0.158349
   5 H :   -0.025826
   6 C :    0.031544
   7 H :    0.044444
   8 H :    0.013551
   9 C :   -0.068240
  10 H :    0.021577
  11 H :    0.037842
  12 C :   -0.090776
  13 H :    0.028200
  14 H :    0.047849
  15 H :    0.059565
  16 S :    0.113643
  17 C :   -0.068102
  18 C :   -0.019712
  19 C :   -0.026410
  20 C :   -0.178357
  21 H :   -0.000121
  22 C :    0.095265
  23 H :    0.009233
  24 H :    0.006697
  25 C :   -0.118816
  26 H :    0.035724
  27 H :    0.038050
  28 C :   -0.031159
  29 H :    0.035345
  30 H :    0.030983
  31 H :    0.024034
  32 H :    0.048527
  33 H :    0.045319
Sum of atomic charges:   -0.0000000

LOEWDIN ATOMIC CHARGES
----------------------
   0 S :    0.426328
   1 C :   -0.219915
   2 C :   -0.069474
   3 C :   -0.052138
   4 C :   -0.182509
   5 H :    0.027311
   6 C :   -0.038769
   7 H :    0.037416
   8 H :    0.027648
   9 C :   -0.043455
  10 H :    0.016417
  11 H :    0.028836
  12 C :   -0.075279
  13 H :    0.025908
  14 H :    0.029781
  15 H :    0.032620
  16 S :    0.428776
  17 C :   -0.193981
  18 C :   -0.066665
  19 C :   -0.051618
  20 C :   -0.210777
  21 H :    0.021970
  22 C :   -0.020730
  23 H :    0.018440
  24 H :    0.022041
  25 C :   -0.037065
  26 H :    0.029029
  27 H :    0.016474
  28 C :   -0.066203
  29 H :    0.023796
  30 H :    0.026776
  31 H :    0.024932
  32 H :    0.037132
  33 H :    0.026947

  Mayer bond orders larger than 0.100000
B(  0-S ,  1-C ) :   1.1512 B(  0-S ,  4-C ) :   1.1562 B(  1-C ,  2-C ) :   1.6002
B(  1-C , 32-H ) :   0.9590 B(  2-C ,  3-C ) :   1.2479 B(  2-C ,  6-C ) :   1.0033
B(  3-C ,  4-C ) :   1.5523 B(  3-C ,  5-H ) :   1.0020 B(  4-C , 20-C ) :   1.0449
B(  6-C ,  7-H ) :   0.9501 B(  6-C ,  8-H ) :   0.9414 B(  6-C ,  9-C ) :   1.0738
B(  9-C , 10-H ) :   0.9551 B(  9-C , 11-H ) :   0.9564 B(  9-C , 12-C ) :   1.0749
B( 12-C , 13-H ) :   0.9741 B( 12-C , 14-H ) :   0.9743 B( 12-C , 15-H ) :   0.9719
B( 16-S , 17-C ) :   1.1597 B( 16-S , 20-C ) :   1.1629 B( 17-C , 18-C ) :   1.5918
B( 17-C , 33-H ) :   0.9731 B( 18-C , 19-C ) :   1.2566 B( 18-C , 21-H ) :   0.9954
B( 19-C , 20-C ) :   1.5414 B( 19-C , 22-C ) :   1.0531 B( 22-C , 23-H ) :   0.9404
B( 22-C , 24-H ) :   0.9412 B( 22-C , 25-C ) :   1.0504 B( 25-C , 26-H ) :   0.9533
B( 25-C , 27-H ) :   0.9575 B( 25-C , 28-C ) :   1.0805 B( 28-C , 29-H ) :   0.9746
B( 28-C , 30-H ) :   0.9751 B( 28-C , 31-H ) :   0.9723

Dispersion correction           -0.014886797
FINAL SINGLE POINT ENERGY     -1339.868451151261

DIPOLE MOMENT
-------------
                                X             Y             Z
Electronic contribution:     -6.69011     -19.23055      20.17743
Nuclear contribution   :      6.55357      19.68636     -20.62261
                        -----------------------------------------
Total Dipole Moment    :     -0.13654       0.45581      -0.44518
                        -----------------------------------------
Magnitude (a.u.)       :      0.65160
Magnitude (Debye)      :      1.65625

Rotational constants in cm-1:     0.017116     0.009596     0.007381
Rotational constants in MHz :   513.124620   287.689519   221.274916

                             ****ORCA TERMINATED NORMALLY****
TOTAL RUN TIME: 0 days 0 hours 0 minutes 22 seconds 268 msec
