                         Program Version 4.2.1 -  RELEASE  -
|  1> ! wB97X-D3 SP def2-SVP
|  2> %pal
|  3> nprocs 24
|  4> end
|  5>
|  6> * xyz 0 1
|  7> S 	 -121.177 	 22.1181 	 -26.9078
|  8> C 	 -119.895 	 21.5614 	 -27.997
|  9> C 	 -118.785 	 21.148 	 -27.2815
| 10> C 	 -118.931 	 21.4378 	 -25.929
| 11> C 	 -120.143 	 22.0146 	 -25.5543
| 12> H 	 -118.238 	 21.2665 	 -25.1513
| 13> C 	 -117.488 	 20.6091 	 -27.9007
| 14> H 	 -117.772 	 20.4321 	 -28.8525
| 15> H 	 -117.287 	 19.7117 	 -27.3631
| 16> C 	 -116.367 	 21.5708 	 -27.8759
| 17> H 	 -116.56 	 22.4801 	 -28.4784
| 18> H 	 -116.249 	 21.9129 	 -26.8451
| 19> C 	 -115.012 	 21.1027 	 -28.2744
| 20> H 	 -114.956 	 20.7168 	 -29.2958
| 21> H 	 -114.229 	 21.9057 	 -28.1671
| 22> H 	 -114.624 	 20.2554 	 -27.645
| 23> S 	 -120.57 	 21.2183 	 -22.9045
| 24> C 	 -120.962 	 22.3347 	 -21.6417
| 25> C 	 -121.273 	 23.5535 	 -22.1804
| 26> C 	 -120.991 	 23.5894 	 -23.6258
| 27> C 	 -120.546 	 22.3493 	 -24.1518
| 28> H 	 -121.497 	 24.3764 	 -21.5056
| 29> C 	 -121.02 	 24.9513 	 -24.2982
| 30> H 	 -120.093 	 25.1179 	 -24.9295
| 31> H 	 -120.642 	 25.6623 	 -23.5172
| 32> C 	 -122.406 	 25.2606 	 -24.9033
| 33> H 	 -123.101 	 25.2338 	 -24.135
| 34> H 	 -122.793 	 24.5899 	 -25.693
| 35> C 	 -122.409 	 26.6466 	 -25.5381
| 36> H 	 -121.97 	 27.3911 	 -24.8568
| 37> H 	 -123.404 	 26.8651 	 -25.7908
| 38> H 	 -121.775 	 26.726 	 -26.4259
| 39> H 	 -120.019 	 21.5111 	 -29.1287
| 40> H 	 -120.902 	 22.1689 	 -20.5721
| 41> *
| 42>
| 43>                          ****END OF INPUT****

CARTESIAN COORDINATES (ANGSTROEM)
---------------------------------
  S    -121.177000   22.118100  -26.907800
  C    -119.895000   21.561400  -27.997000
  C    -118.785000   21.148000  -27.281500
  C    -118.931000   21.437800  -25.929000
  C    -120.143000   22.014600  -25.554300
  H    -118.238000   21.266500  -25.151300
  C    -117.488000   20.609100  -27.900700
  H    -117.772000   20.432100  -28.852500
  H    -117.287000   19.711700  -27.363100
  C    -116.367000   21.570800  -27.875900
  H    -116.560000   22.480100  -28.478400
  H    -116.249000   21.912900  -26.845100
  C    -115.012000   21.102700  -28.274400
  H    -114.956000   20.716800  -29.295800
  H    -114.229000   21.905700  -28.167100
  H    -114.624000   20.255400  -27.645000
  S    -120.570000   21.218300  -22.904500
  C    -120.962000   22.334700  -21.641700
  C    -121.273000   23.553500  -22.180400
  C    -120.991000   23.589400  -23.625800
  C    -120.546000   22.349300  -24.151800
  H    -121.497000   24.376400  -21.505600
  C    -121.020000   24.951300  -24.298200
  H    -120.093000   25.117900  -24.929500
  H    -120.642000   25.662300  -23.517200
  C    -122.406000   25.260600  -24.903300
  H    -123.101000   25.233800  -24.135000
  H    -122.793000   24.589900  -25.693000
  C    -122.409000   26.646600  -25.538100
  H    -121.970000   27.391100  -24.856800
  H    -123.404000   26.865100  -25.790800
  H    -121.775000   26.726000  -26.425900
  H    -120.019000   21.511100  -29.128700
  H    -120.902000   22.168900  -20.572100

 Total Charge           Charge          ....    0
 Multiplicity           Mult            ....    1
 Number of Electrons    NEL             ....  134
 Basis Dimension        Dim             ....  322

ORBITAL ENERGIES
----------------

  NO   OCC          E(Eh)            E(eV)
   0   2.0000     -88.968748     -2420.9627
   1   2.0000     -88.963015     -2420.8067
   2   2.0000     -10.329774      -281.0874
   3   2.0000     -10.327499      -281.0255
   4   2.0000     -10.321162      -280.8531
   5   2.0000     -10.314135      -280.6619
   6   2.0000     -10.305253      -280.4202
   7   2.0000     -10.299185      -280.2551
   8   2.0000     -10.294428      -280.1256
   9   2.0000     -10.293940      -280.1123
  10   2.0000     -10.286875      -279.9201
  11   2.0000     -10.282138      -279.7912
  12   2.0000     -10.282014      -279.7878
  13   2.0000     -10.281432      -279.7720
  14   2.0000     -10.279587      -279.7218
  15   2.0000     -10.267897      -279.4037
  16   2.0000      -8.083408      -219.9607
  17   2.0000      -8.079094      -219.8433
  18   2.0000      -6.041816      -164.4062
  19   2.0000      -6.037843      -164.2981
  20   2.0000      -6.037625      -164.2921
  21   2.0000      -6.034362      -164.2033
  22   2.0000      -6.033104      -164.1691
  23   2.0000      -6.030052      -164.0861
  24   2.0000      -1.009768       -27.4772
  25   2.0000      -0.990314       -26.9478
  26   2.0000      -0.923557       -25.1313
  27   2.0000      -0.904815       -24.6213
  28   2.0000      -0.869973       -23.6732
  29   2.0000      -0.852991       -23.2111
  30   2.0000      -0.844625       -22.9834
  31   2.0000      -0.817638       -22.2491
  32   2.0000      -0.787571       -21.4309
  33   2.0000      -0.764248       -20.7962
  34   2.0000      -0.704690       -19.1756
  35   2.0000      -0.698053       -18.9950
  36   2.0000      -0.689881       -18.7726
  37   2.0000      -0.660423       -17.9710
  38   2.0000      -0.639096       -17.3907
  39   2.0000      -0.623754       -16.9732
  40   2.0000      -0.591870       -16.1056
  41   2.0000      -0.577773       -15.7220
  42   2.0000      -0.568626       -15.4731
  43   2.0000      -0.552317       -15.0293
  44   2.0000      -0.536460       -14.5978
  45   2.0000      -0.530980       -14.4487
  46   2.0000      -0.519118       -14.1259
  47   2.0000      -0.509666       -13.8687
  48   2.0000      -0.504293       -13.7225
  49   2.0000      -0.500676       -13.6241
  50   2.0000      -0.499356       -13.5882
  51   2.0000      -0.475781       -12.9467
  52   2.0000      -0.472628       -12.8609
  53   2.0000      -0.466628       -12.6976
  54   2.0000      -0.455115       -12.3843
  55   2.0000      -0.449497       -12.2314
  56   2.0000      -0.448106       -12.1936
  57   2.0000      -0.435029       -11.8377
  58   2.0000      -0.429013       -11.6740
  59   2.0000      -0.420582       -11.4446
  60   2.0000      -0.416200       -11.3254
  61   2.0000      -0.413754       -11.2588
  62   2.0000      -0.401467       -10.9245
  63   2.0000      -0.342139        -9.3101
  64   2.0000      -0.335306        -9.1241
  65   2.0000      -0.324465        -8.8291
  66   2.0000      -0.298556        -8.1241
  67   0.0000       0.033895         0.9223
  68   0.0000       0.076820         2.0904
  69   0.0000       0.116351         3.1661
  70   0.0000       0.121865         3.3161
  71   0.0000       0.131645         3.5823

MULLIKEN ATOMIC CHARGES
-----------------------
   0 S :    0.126391
   1 C :   -0.172248
   2 C :   -0.095674
   3 C :    0.017680
   4 C :   -0.143491
   5 H :   -0.007520
   6 C :    0.203358
   7 H :   -0.024244
   8 H :    0.021184
   9 C :   -0.080580
  10 H :    0.030730
  11 H :    0.022012
  12 C :   -0.064454
  13 H :    0.026837
  14 H :    0.042015
  15 H :    0.027087
  16 S :    0.116005
  17 C :   -0.103819
  18 C :   -0.027311
  19 C :   -0.061782
  20 C :   -0.137532
  21 H :    0.027825
  22 C :   -0.002772
  23 H :    0.033940
  24 H :    0.023044
  25 C :   -0.025866
  26 H :    0.008343
  27 H :    0.037044
  28 C :   -0.020705
  29 H :    0.018887
  30 H :    0.022284
  31 H :    0.028847
  32 H :    0.073911
  33 H :    0.060576
Sum of atomic charges:    0.0000000

LOEWDIN ATOMIC CHARGES
----------------------
   0 S :    0.429246
   1 C :   -0.204312
   2 C :   -0.060004
   3 C :   -0.063048
   4 C :   -0.204999
   5 H :    0.022623
   6 C :   -0.011454
   7 H :    0.013827
   8 H :    0.032600
   9 C :   -0.049028
  10 H :    0.031320
  11 H :    0.025838
  12 C :   -0.072510
  13 H :    0.020803
  14 H :    0.033658
  15 H :    0.025640
  16 S :    0.441021
  17 C :   -0.196906
  18 C :   -0.075072
  19 C :   -0.057827
  20 C :   -0.230074
  21 H :    0.033712
  22 C :   -0.049462
  23 H :    0.037009
  24 H :    0.035518
  25 C :   -0.032096
  26 H :    0.015016
  27 H :    0.027713
  28 C :   -0.060159
  29 H :    0.022702
  30 H :    0.017455
  31 H :    0.025319
  32 H :    0.041935
  33 H :    0.033996

  Mayer bond orders larger than 0.100000
B(  0-S ,  1-C ) :   1.1539 B(  0-S ,  4-C ) :   1.1775 B(  1-C ,  2-C ) :   1.5832
B(  1-C ,  4-C ) :   0.1017 B(  1-C , 32-H ) :   0.9573 B(  2-C ,  3-C ) :   1.2613
B(  2-C ,  6-C ) :   1.0164 B(  3-C ,  4-C ) :   1.5513 B(  3-C ,  5-H ) :   1.0057
B(  4-C , 20-C ) :   1.0132 B(  6-C ,  7-H ) :   0.9187 B(  6-C ,  8-H ) :   0.9270
B(  6-C ,  9-C ) :   1.0838 B(  9-C , 10-H ) :   0.9475 B(  9-C , 11-H ) :   0.9510
B(  9-C , 12-C ) :   1.0976 B( 12-C , 13-H ) :   0.9721 B( 12-C , 14-H ) :   0.9720
B( 12-C , 15-H ) :   0.9711 B( 16-S , 17-C ) :   1.1691 B( 16-S , 20-C ) :   1.1575
B( 17-C , 18-C ) :   1.5988 B( 17-C , 33-H ) :   0.9675 B( 18-C , 19-C ) :   1.2584
B( 18-C , 21-H ) :   0.9866 B( 19-C , 20-C ) :   1.5645 B( 19-C , 22-C ) :   1.0397
B( 22-C , 23-H ) :   0.9419 B( 22-C , 24-H ) :   0.9428 B( 22-C , 25-C ) :   1.0444
B( 25-C , 26-H ) :   0.9526 B( 25-C , 27-H ) :   0.9548 B( 25-C , 28-C ) :   1.0912
B( 28-C , 29-H ) :   0.9724 B( 28-C , 30-H ) :   0.9737 B( 28-C , 31-H ) :   0.9748

Dispersion correction           -0.013905062
FINAL SINGLE POINT ENERGY     -1339.867028997569

DIPOLE MOMENT
-------------
                                X             Y             Z
Electronic contribution:    -12.47602     -12.43170      10.57342
Nuclear contribution   :     12.85935      12.70357     -10.61169
                        -----------------------------------------
Total Dipole Moment    :      0.38333       0.27186      -0.03827
                        -----------------------------------------
Magnitude (a.u.)       :      0.47150
Magnitude (Debye)      :      1.19846

Rotational constants in cm-1:     0.018890     0.007777     0.006545
Rotational constants in MHz :   566.317526   233.141638   196.204291

                             ****ORCA TERMINATED NORMALLY****
TOTAL RUN TIME: 0 days 0 hours 0 minutes 21 seconds 47 msec
