                         Program Version 4.2.1 -  RELEASE  -
|  1> ! wB97X-D3 SP def2-SVP
|  2> %pal
|  3> nprocs 24
|  4> end
|  5>
|  6> * xyz 0 1
|  7> S 	 -43.8646 	 -2.82498 	 -22.0417
|  8> C 	 -45.3249 	 -2.70646 	 -23.0201
|  9> C 	 -45.1896 	 -3.42179 	 -24.2386
| 10> C 	 -43.8911 	 -3.89724 	 -24.41
| 11> C 	 -43.1035 	 -3.82162 	 -23.2833
| 12> H 	 -43.4876 	 -4.44492 	 -25.2397
| 13> C 	 -46.2156 	 -3.82704 	 -25.243
| 14> H 	 -46.9898 	 -4.42599 	 -24.6845
| 15> H 	 -45.7558 	 -4.38387 	 -26.0469
| 16> C 	 -46.931 	 -2.74138 	 -26.044
| 17> H 	 -47.4518 	 -3.14148 	 -26.9674
| 18> H 	 -47.728 	 -2.32936 	 -25.4337
| 19> C 	 -46.044 	 -1.48928 	 -26.2926
| 20> H 	 -45.7411 	 -0.958893 	 -25.4405
| 21> H 	 -45.1261 	 -1.93452 	 -26.7986
| 22> H 	 -46.533 	 -0.819356 	 -27.0192
| 23> S 	 -40.5008 	 -3.11024 	 -22.6427
| 24> C 	 -39.348 	 -4.3968 	 -22.4367
| 25> C 	 -39.8478 	 -5.613 	 -22.7957
| 26> C 	 -41.1031 	 -5.54524 	 -23.3438
| 27> C 	 -41.6976 	 -4.2746 	 -23.1912
| 28> H 	 -39.2235 	 -6.46859 	 -22.7626
| 29> C 	 -41.8442 	 -6.74024 	 -23.8768
| 30> H 	 -41.5318 	 -6.86007 	 -24.9346
| 31> H 	 -42.8951 	 -6.44748 	 -23.7316
| 32> C 	 -41.6256 	 -8.14036 	 -23.1902
| 33> H 	 -41.7242 	 -8.03385 	 -22.1273
| 34> H 	 -40.6254 	 -8.51833 	 -23.206
| 35> C 	 -42.5413 	 -9.21126 	 -23.7155
| 36> H 	 -43.6323 	 -9.02443 	 -23.4153
| 37> H 	 -42.3274 	 -10.253 	 -23.3852
| 38> H 	 -42.4562 	 -9.19404 	 -24.7964
| 39> H 	 -46.3409 	 -2.42688 	 -22.5306
| 40> H 	 -38.3639 	 -4.22264 	 -22.1445
| 41> *
| 42>
| 43>                          ****END OF INPUT****

CARTESIAN COORDINATES (ANGSTROEM)
---------------------------------
  S    -43.864600   -2.824980  -22.041700
  C    -45.324900   -2.706460  -23.020100
  C    -45.189600   -3.421790  -24.238600
  C    -43.891100   -3.897240  -24.410000
  C    -43.103500   -3.821620  -23.283300
  H    -43.487600   -4.444920  -25.239700
  C    -46.215600   -3.827040  -25.243000
  H    -46.989800   -4.425990  -24.684500
  H    -45.755800   -4.383870  -26.046900
  C    -46.931000   -2.741380  -26.044000
  H    -47.451800   -3.141480  -26.967400
  H    -47.728000   -2.329360  -25.433700
  C    -46.044000   -1.489280  -26.292600
  H    -45.741100   -0.958893  -25.440500
  H    -45.126100   -1.934520  -26.798600
  H    -46.533000   -0.819356  -27.019200
  S    -40.500800   -3.110240  -22.642700
  C    -39.348000   -4.396800  -22.436700
  C    -39.847800   -5.613000  -22.795700
  C    -41.103100   -5.545240  -23.343800
  C    -41.697600   -4.274600  -23.191200
  H    -39.223500   -6.468590  -22.762600
  C    -41.844200   -6.740240  -23.876800
  H    -41.531800   -6.860070  -24.934600
  H    -42.895100   -6.447480  -23.731600
  C    -41.625600   -8.140360  -23.190200
  H    -41.724200   -8.033850  -22.127300
  H    -40.625400   -8.518330  -23.206000
  C    -42.541300   -9.211260  -23.715500
  H    -43.632300   -9.024430  -23.415300
  H    -42.327400  -10.253000  -23.385200
  H    -42.456200   -9.194040  -24.796400
  H    -46.340900   -2.426880  -22.530600
  H    -38.363900   -4.222640  -22.144500

 Total Charge           Charge          ....    0
 Multiplicity           Mult            ....    1
 Number of Electrons    NEL             ....  134
 Basis Dimension        Dim             ....  322

ORBITAL ENERGIES
----------------

  NO   OCC          E(Eh)            E(eV)
   0   2.0000     -88.971305     -2421.0323
   1   2.0000     -88.965722     -2420.8804
   2   2.0000     -10.330915      -281.1185
   3   2.0000     -10.326959      -281.0108
   4   2.0000     -10.325529      -280.9719
   5   2.0000     -10.309458      -280.5346
   6   2.0000     -10.304397      -280.3969
   7   2.0000     -10.299423      -280.2616
   8   2.0000     -10.295683      -280.1598
   9   2.0000     -10.292975      -280.0861
  10   2.0000     -10.288578      -279.9664
  11   2.0000     -10.287355      -279.9332
  12   2.0000     -10.284158      -279.8462
  13   2.0000     -10.283873      -279.8384
  14   2.0000     -10.283059      -279.8163
  15   2.0000     -10.275218      -279.6029
  16   2.0000      -8.085269      -220.0113
  17   2.0000      -8.080580      -219.8838
  18   2.0000      -6.043746      -164.4587
  19   2.0000      -6.039847      -164.3526
  20   2.0000      -6.038904      -164.3269
  21   2.0000      -6.036140      -164.2517
  22   2.0000      -6.035053      -164.2221
  23   2.0000      -6.031556      -164.1270
  24   2.0000      -1.008176       -27.4339
  25   2.0000      -0.987607       -26.8742
  26   2.0000      -0.913271       -24.8514
  27   2.0000      -0.907985       -24.7075
  28   2.0000      -0.865097       -23.5405
  29   2.0000      -0.857829       -23.3427
  30   2.0000      -0.849406       -23.1135
  31   2.0000      -0.811276       -22.0759
  32   2.0000      -0.781543       -21.2669
  33   2.0000      -0.767898       -20.8956
  34   2.0000      -0.706505       -19.2250
  35   2.0000      -0.699900       -19.0452
  36   2.0000      -0.694851       -18.9079
  37   2.0000      -0.658772       -17.9261
  38   2.0000      -0.637645       -17.3512
  39   2.0000      -0.613060       -16.6822
  40   2.0000      -0.598272       -16.2798
  41   2.0000      -0.576530       -15.6882
  42   2.0000      -0.568533       -15.4706
  43   2.0000      -0.552676       -15.0391
  44   2.0000      -0.544198       -14.8084
  45   2.0000      -0.527200       -14.3458
  46   2.0000      -0.518158       -14.0998
  47   2.0000      -0.508952       -13.8493
  48   2.0000      -0.501230       -13.6392
  49   2.0000      -0.488412       -13.2904
  50   2.0000      -0.486413       -13.2360
  51   2.0000      -0.479876       -13.0581
  52   2.0000      -0.466882       -12.7045
  53   2.0000      -0.465454       -12.6657
  54   2.0000      -0.461629       -12.5616
  55   2.0000      -0.452959       -12.3256
  56   2.0000      -0.447797       -12.1852
  57   2.0000      -0.435283       -11.8446
  58   2.0000      -0.428081       -11.6487
  59   2.0000      -0.424915       -11.5625
  60   2.0000      -0.424716       -11.5571
  61   2.0000      -0.417713       -11.3666
  62   2.0000      -0.399093       -10.8599
  63   2.0000      -0.348309        -9.4780
  64   2.0000      -0.334538        -9.1032
  65   2.0000      -0.331137        -9.0107
  66   2.0000      -0.286732        -7.8024
  67   0.0000       0.024928         0.6783
  68   0.0000       0.060780         1.6539
  69   0.0000       0.108317         2.9474
  70   0.0000       0.124042         3.3754
  71   0.0000       0.136881         3.7247

MULLIKEN ATOMIC CHARGES
-----------------------
   0 S :    0.118248
   1 C :   -0.156063
   2 C :   -0.086098
   3 C :    0.020828
   4 C :   -0.158382
   5 H :    0.014356
   6 C :    0.068695
   7 H :    0.053267
   8 H :    0.024367
   9 C :   -0.110578
  10 H :    0.044650
  11 H :    0.016415
  12 C :   -0.044793
  13 H :    0.039831
  14 H :    0.022601
  15 H :    0.039184
  16 S :    0.110678
  17 C :   -0.064713
  18 C :   -0.022404
  19 C :   -0.018423
  20 C :   -0.183184
  21 H :    0.002584
  22 C :    0.048608
  23 H :    0.047001
  24 H :    0.042374
  25 C :   -0.068117
  26 H :    0.019587
  27 H :    0.017551
  28 C :   -0.063426
  29 H :    0.042178
  30 H :    0.039491
  31 H :    0.025880
  32 H :    0.087704
  33 H :    0.030101
Sum of atomic charges:    0.0000000

LOEWDIN ATOMIC CHARGES
----------------------
   0 S :    0.405468
   1 C :   -0.220887
   2 C :   -0.060115
   3 C :   -0.063115
   4 C :   -0.189126
   5 H :    0.031295
   6 C :   -0.036668
   7 H :    0.045103
   8 H :    0.030732
   9 C :   -0.049528
  10 H :    0.031730
  11 H :    0.015518
  12 C :   -0.064440
  13 H :    0.018925
  14 H :    0.027407
  15 H :    0.027351
  16 S :    0.410613
  17 C :   -0.171368
  18 C :   -0.070134
  19 C :   -0.057627
  20 C :   -0.201683
  21 H :    0.028540
  22 C :   -0.030947
  23 H :    0.037540
  24 H :    0.036890
  25 C :   -0.048694
  26 H :    0.021653
  27 H :    0.018765
  28 C :   -0.069455
  29 H :    0.032393
  30 H :    0.030092
  31 H :    0.022068
  32 H :    0.047137
  33 H :    0.014567

  Mayer bond orders larger than 0.100000
B(  0-S ,  1-C ) :   1.1450 B(  0-S ,  4-C ) :   1.1593 B(  1-C ,  2-C ) :   1.5611
B(  1-C ,  4-C ) :   0.1069 B(  1-C , 32-H ) :   0.9533 B(  2-C ,  3-C ) :   1.2678
B(  2-C ,  6-C ) :   1.0278 B(  3-C ,  4-C ) :   1.5568 B(  3-C ,  5-H ) :   0.9899
B(  4-C , 20-C ) :   1.0346 B(  6-C ,  7-H ) :   0.9368 B(  6-C ,  8-H ) :   0.9436
B(  6-C ,  9-C ) :   1.0600 B(  9-C , 10-H ) :   0.9634 B(  9-C , 11-H ) :   0.9507
B(  9-C , 12-C ) :   1.0865 B( 12-C , 13-H ) :   0.9640 B( 12-C , 14-H ) :   0.9791
B( 12-C , 15-H ) :   0.9743 B( 16-S , 17-C ) :   1.1652 B( 16-S , 20-C ) :   1.1590
B( 17-C , 18-C ) :   1.5726 B( 17-C , 20-C ) :   0.1055 B( 17-C , 33-H ) :   0.9726
B( 18-C , 19-C ) :   1.2916 B( 18-C , 21-H ) :   0.9983 B( 19-C , 20-C ) :   1.5428
B( 19-C , 22-C ) :   1.0377 B( 22-C , 23-H ) :   0.9210 B( 22-C , 24-H ) :   0.9371
B( 22-C , 25-C ) :   1.0692 B( 25-C , 26-H ) :   0.9538 B( 25-C , 27-H ) :   0.9455
B( 25-C , 28-C ) :   1.0902 B( 28-C , 29-H ) :   0.9747 B( 28-C , 30-H ) :   0.9727
B( 28-C , 31-H ) :   0.9728

Dispersion correction           -0.014071878
FINAL SINGLE POINT ENERGY     -1339.863878918069

DIPOLE MOMENT
-------------
                                X             Y             Z
Electronic contribution:     13.37159      15.06727      15.25584
Nuclear contribution   :    -13.51242     -15.62855     -15.52310
                        -----------------------------------------
Total Dipole Moment    :     -0.14084      -0.56129      -0.26725
                        -----------------------------------------
Magnitude (a.u.)       :      0.63742
Magnitude (Debye)      :      1.62019

Rotational constants in cm-1:     0.018250     0.008417     0.006554
Rotational constants in MHz :   547.125382   252.321185   196.479020

                             ****ORCA TERMINATED NORMALLY****
TOTAL RUN TIME: 0 days 0 hours 0 minutes 21 seconds 447 msec
