                         Program Version 4.2.1 -  RELEASE  -
|  1> ! wB97X-D3 SP def2-SVP
|  2> %pal
|  3> nprocs 24
|  4> end
|  5>
|  6> * xyz 0 1
|  7> S 	 -33.6603 	 -6.56056 	 7.87284
|  8> C 	 -32.8982 	 -6.34449 	 9.4484
|  9> C 	 -33.8119 	 -6.36004 	 10.4707
| 10> C 	 -35.1662 	 -6.62693 	 10.0253
| 11> C 	 -35.2534 	 -6.70685 	 8.62979
| 12> H 	 -36.0652 	 -6.72583 	 10.5926
| 13> C 	 -33.5189 	 -6.11637 	 11.9199
| 14> H 	 -34.3933 	 -5.66317 	 12.3593
| 15> H 	 -32.863 	 -5.24206 	 12.0224
| 16> C 	 -33.1188 	 -7.42437 	 12.7896
| 17> H 	 -34.0077 	 -8.19159 	 12.8703
| 18> H 	 -32.3861 	 -8.01495 	 12.2995
| 19> C 	 -32.4704 	 -7.01002 	 14.1398
| 20> H 	 -33.2239 	 -6.44784 	 14.6785
| 21> H 	 -32.1914 	 -7.84614 	 14.734
| 22> H 	 -31.5805 	 -6.36312 	 14.046
| 23> S 	 -36.4288 	 -7.84624 	 6.42064
| 24> C 	 -38.084 	 -7.642 	 6.06807
| 25> C 	 -38.7225 	 -7.08331 	 7.13732
| 26> C 	 -37.8682 	 -6.53167 	 8.10051
| 27> C 	 -36.5178 	 -6.85351 	 7.83433
| 28> H 	 -39.7984 	 -7.05197 	 7.11141
| 29> C 	 -38.3695 	 -5.64354 	 9.23946
| 30> H 	 -37.5917 	 -4.96995 	 9.59514
| 31> H 	 -38.4728 	 -6.20226 	 10.1606
| 32> C 	 -39.6747 	 -4.91846 	 8.98921
| 33> H 	 -40.5275 	 -5.57941 	 9.13047
| 34> H 	 -39.7462 	 -4.56242 	 7.94603
| 35> C 	 -39.7848 	 -3.69055 	 9.89687
| 36> H 	 -39.1961 	 -2.7879 	 9.6018
| 37> H 	 -39.6774 	 -4.01988 	 10.9961
| 38> H 	 -40.8089 	 -3.35222 	 9.83889
| 39> H 	 -31.8409 	 -6.35629 	 9.57624
| 40> H 	 -38.5082 	 -8.19816 	 5.27031
| 41> *
| 42>
| 43>                          ****END OF INPUT****

CARTESIAN COORDINATES (ANGSTROEM)
---------------------------------
  S    -33.660300   -6.560560    7.872840
  C    -32.898200   -6.344490    9.448400
  C    -33.811900   -6.360040   10.470700
  C    -35.166200   -6.626930   10.025300
  C    -35.253400   -6.706850    8.629790
  H    -36.065200   -6.725830   10.592600
  C    -33.518900   -6.116370   11.919900
  H    -34.393300   -5.663170   12.359300
  H    -32.863000   -5.242060   12.022400
  C    -33.118800   -7.424370   12.789600
  H    -34.007700   -8.191590   12.870300
  H    -32.386100   -8.014950   12.299500
  C    -32.470400   -7.010020   14.139800
  H    -33.223900   -6.447840   14.678500
  H    -32.191400   -7.846140   14.734000
  H    -31.580500   -6.363120   14.046000
  S    -36.428800   -7.846240    6.420640
  C    -38.084000   -7.642000    6.068070
  C    -38.722500   -7.083310    7.137320
  C    -37.868200   -6.531670    8.100510
  C    -36.517800   -6.853510    7.834330
  H    -39.798400   -7.051970    7.111410
  C    -38.369500   -5.643540    9.239460
  H    -37.591700   -4.969950    9.595140
  H    -38.472800   -6.202260   10.160600
  C    -39.674700   -4.918460    8.989210
  H    -40.527500   -5.579410    9.130470
  H    -39.746200   -4.562420    7.946030
  C    -39.784800   -3.690550    9.896870
  H    -39.196100   -2.787900    9.601800
  H    -39.677400   -4.019880   10.996100
  H    -40.808900   -3.352220    9.838890
  H    -31.840900   -6.356290    9.576240
  H    -38.508200   -8.198160    5.270310

 Total Charge           Charge          ....    0
 Multiplicity           Mult            ....    1
 Number of Electrons    NEL             ....  134
 Basis Dimension        Dim             ....  322

ORBITAL ENERGIES
----------------

  NO   OCC          E(Eh)            E(eV)
   0   2.0000     -88.965939     -2420.8863
   1   2.0000     -88.961722     -2420.7715
   2   2.0000     -10.335528      -281.2440
   3   2.0000     -10.328806      -281.0611
   4   2.0000     -10.311899      -280.6010
   5   2.0000     -10.308719      -280.5145
   6   2.0000     -10.305081      -280.4155
   7   2.0000     -10.302227      -280.3378
   8   2.0000     -10.300551      -280.2922
   9   2.0000     -10.295418      -280.1526
  10   2.0000     -10.295221      -280.1472
  11   2.0000     -10.289683      -279.9965
  12   2.0000     -10.289619      -279.9948
  13   2.0000     -10.287298      -279.9316
  14   2.0000     -10.286045      -279.8975
  15   2.0000     -10.278854      -279.7018
  16   2.0000      -8.080113      -219.8711
  17   2.0000      -8.077974      -219.8128
  18   2.0000      -6.038774      -164.3234
  19   2.0000      -6.036190      -164.2531
  20   2.0000      -6.034725      -164.2132
  21   2.0000      -6.032190      -164.1442
  22   2.0000      -6.030729      -164.1045
  23   2.0000      -6.029036      -164.0584
  24   2.0000      -1.008416       -27.4404
  25   2.0000      -0.983789       -26.7703
  26   2.0000      -0.913357       -24.8537
  27   2.0000      -0.900424       -24.5018
  28   2.0000      -0.865386       -23.5483
  29   2.0000      -0.853239       -23.2178
  30   2.0000      -0.845239       -23.0001
  31   2.0000      -0.814414       -22.1613
  32   2.0000      -0.781156       -21.2563
  33   2.0000      -0.771112       -20.9830
  34   2.0000      -0.706222       -19.2173
  35   2.0000      -0.703025       -19.1303
  36   2.0000      -0.696680       -18.9576
  37   2.0000      -0.655658       -17.8414
  38   2.0000      -0.640939       -17.4408
  39   2.0000      -0.620331       -16.8801
  40   2.0000      -0.604786       -16.4571
  41   2.0000      -0.568034       -15.4570
  42   2.0000      -0.566832       -15.4243
  43   2.0000      -0.546535       -14.8720
  44   2.0000      -0.527229       -14.3466
  45   2.0000      -0.525317       -14.2946
  46   2.0000      -0.513480       -13.9725
  47   2.0000      -0.510504       -13.8915
  48   2.0000      -0.509378       -13.8609
  49   2.0000      -0.496012       -13.4972
  50   2.0000      -0.487687       -13.2706
  51   2.0000      -0.481329       -13.0976
  52   2.0000      -0.475595       -12.9416
  53   2.0000      -0.464472       -12.6389
  54   2.0000      -0.459514       -12.5040
  55   2.0000      -0.446284       -12.1440
  56   2.0000      -0.442556       -12.0426
  57   2.0000      -0.437817       -11.9136
  58   2.0000      -0.434103       -11.8125
  59   2.0000      -0.426859       -11.6154
  60   2.0000      -0.425510       -11.5787
  61   2.0000      -0.416235       -11.3263
  62   2.0000      -0.411471       -11.1967
  63   2.0000      -0.351494        -9.5646
  64   2.0000      -0.330196        -8.9851
  65   2.0000      -0.328953        -8.9513
  66   2.0000      -0.287145        -7.8136
  67   0.0000       0.024662         0.6711
  68   0.0000       0.082042         2.2325
  69   0.0000       0.107698         2.9306
  70   0.0000       0.117857         3.2071
  71   0.0000       0.139942         3.8080

MULLIKEN ATOMIC CHARGES
-----------------------
   0 S :    0.100770
   1 C :   -0.107861
   2 C :   -0.073938
   3 C :    0.018584
   4 C :   -0.125482
   5 H :    0.001127
   6 C :    0.052384
   7 H :    0.012420
   8 H :    0.028084
   9 C :   -0.082606
  10 H :    0.048693
  11 H :    0.023163
  12 C :   -0.042694
  13 H :    0.025553
  14 H :    0.031530
  15 H :    0.038640
  16 S :    0.098844
  17 C :   -0.075568
  18 C :   -0.049640
  19 C :   -0.032561
  20 C :   -0.141784
  21 H :    0.017100
  22 C :    0.059621
  23 H :    0.024757
  24 H :    0.028326
  25 C :   -0.084230
  26 H :    0.032381
  27 H :    0.037549
  28 C :   -0.068938
  29 H :    0.055415
  30 H :    0.037598
  31 H :    0.021107
  32 H :    0.041799
  33 H :    0.049859
Sum of atomic charges:   -0.0000000

LOEWDIN ATOMIC CHARGES
----------------------
   0 S :    0.387491
   1 C :   -0.186815
   2 C :   -0.062072
   3 C :   -0.062788
   4 C :   -0.181141
   5 H :    0.027581
   6 C :   -0.038027
   7 H :    0.028642
   8 H :    0.034248
   9 C :   -0.038125
  10 H :    0.037956
  11 H :    0.014376
  12 C :   -0.066293
  13 H :    0.022387
  14 H :    0.021977
  15 H :    0.029282
  16 S :    0.434120
  17 C :   -0.193580
  18 C :   -0.072591
  19 C :   -0.056448
  20 C :   -0.203612
  21 H :    0.030919
  22 C :   -0.040401
  23 H :    0.032875
  24 H :    0.030476
  25 C :   -0.044966
  26 H :    0.023675
  27 H :    0.027928
  28 C :   -0.072283
  29 H :    0.033966
  30 H :    0.032114
  31 H :    0.022519
  32 H :    0.024223
  33 H :    0.022385

  Mayer bond orders larger than 0.100000
B(  0-S ,  1-C ) :   1.1210 B(  0-S ,  4-C ) :   1.1511 B(  1-C ,  2-C ) :   1.6283
B(  1-C , 32-H ) :   0.9738 B(  2-C ,  3-C ) :   1.2194 B(  2-C ,  6-C ) :   1.0314
B(  3-C ,  4-C ) :   1.5766 B(  3-C ,  5-H ) :   0.9963 B(  4-C , 20-C ) :   1.0311
B(  6-C ,  7-H ) :   0.9362 B(  6-C ,  8-H ) :   0.9497 B(  6-C ,  9-C ) :   1.0270
B(  9-C , 10-H ) :   0.9571 B(  9-C , 11-H ) :   0.9660 B(  9-C , 12-C ) :   1.0709
B( 12-C , 13-H ) :   0.9776 B( 12-C , 14-H ) :   0.9749 B( 12-C , 15-H ) :   0.9765
B( 16-S , 17-C ) :   1.1816 B( 16-S , 20-C ) :   1.1773 B( 17-C , 18-C ) :   1.5607
B( 17-C , 20-C ) :   0.1039 B( 17-C , 33-H ) :   0.9715 B( 18-C , 19-C ) :   1.2896
B( 18-C , 21-H ) :   0.9914 B( 19-C , 20-C ) :   1.5461 B( 19-C , 22-C ) :   1.0330
B( 22-C , 23-H ) :   0.9403 B( 22-C , 24-H ) :   0.9141 B( 22-C , 25-C ) :   1.0654
B( 25-C , 26-H ) :   0.9457 B( 25-C , 27-H ) :   0.9586 B( 25-C , 28-C ) :   1.0916
B( 28-C , 29-H ) :   0.9735 B( 28-C , 30-H ) :   0.9707 B( 28-C , 31-H ) :   0.9706

Dispersion correction           -0.013289538
FINAL SINGLE POINT ENERGY     -1339.876667140398

DIPOLE MOMENT
-------------
                                X             Y             Z
Electronic contribution:      7.02667      -9.54358     -27.29984
Nuclear contribution   :     -7.40303       9.62245      27.91450
                        -----------------------------------------
Total Dipole Moment    :     -0.37636       0.07886       0.61466
                        -----------------------------------------
Magnitude (a.u.)       :      0.72503
Magnitude (Debye)      :      1.84289

Rotational constants in cm-1:     0.017612     0.007769     0.005912
Rotational constants in MHz :   527.981309   232.909960   177.237285

                             ****ORCA TERMINATED NORMALLY****
TOTAL RUN TIME: 0 days 0 hours 0 minutes 20 seconds 764 msec
