                         Program Version 4.2.1 -  RELEASE  -
|  1> ! wB97X-D3 SP def2-SVP
|  2> %pal
|  3> nprocs 24
|  4> end
|  5>
|  6> * xyz 0 1
|  7> S 	 -100.198 	 0.979953 	 -119.063
|  8> C 	 -100.468 	 2.14136 	 -120.403
|  9> C 	 -100.013 	 3.35463 	 -119.995
| 10> C 	 -99.7073 	 3.42581 	 -118.555
| 11> C 	 -99.7257 	 2.19487 	 -117.909
| 12> H 	 -99.4989 	 4.34976 	 -118.029
| 13> C 	 -100.141 	 4.58384 	 -120.863
| 14> H 	 -99.768 	 4.25809 	 -121.863
| 15> H 	 -99.5079 	 5.36948 	 -120.395
| 16> C 	 -101.56 	 5.24897 	 -120.892
| 17> H 	 -102.272 	 4.81411 	 -121.641
| 18> H 	 -102.111 	 5.28017 	 -119.903
| 19> C 	 -101.385 	 6.65669 	 -121.491
| 20> H 	 -100.537 	 7.21287 	 -121.042
| 21> H 	 -101.13 	 6.54284 	 -122.553
| 22> H 	 -102.346 	 7.1145 	 -121.484
| 23> S 	 -98.1077 	 2.33061 	 -115.69
| 24> C 	 -98.7244 	 1.82513 	 -114.162
| 25> C 	 -100.033 	 1.39769 	 -114.263
| 26> C 	 -100.547 	 1.41483 	 -115.61
| 27> C 	 -99.5532 	 1.87888 	 -116.503
| 28> H 	 -100.529 	 1.18611 	 -113.297
| 29> C 	 -101.937 	 1.00665 	 -115.988
| 30> H 	 -102.357 	 0.478377 	 -115.106
| 31> H 	 -101.713 	 0.108893 	 -116.632
| 32> C 	 -102.848 	 2.20889 	 -116.436
| 33> H 	 -102.406 	 2.84917 	 -117.317
| 34> H 	 -102.98 	 2.95342 	 -115.668
| 35> C 	 -104.305 	 1.83854 	 -116.812
| 36> H 	 -104.326 	 1.26616 	 -117.732
| 37> H 	 -104.858 	 2.81645 	 -116.85
| 38> H 	 -104.754 	 1.35424 	 -115.99
| 39> H 	 -100.818 	 1.8933 	 -121.388
| 40> H 	 -98.4111 	 2.13787 	 -113.203
| 41> *
| 42>
| 43>                          ****END OF INPUT****

CARTESIAN COORDINATES (ANGSTROEM)
---------------------------------
  S    -100.198000    0.979953  -119.063000
  C    -100.468000    2.141360  -120.403000
  C    -100.013000    3.354630  -119.995000
  C    -99.707300    3.425810  -118.555000
  C    -99.725700    2.194870  -117.909000
  H    -99.498900    4.349760  -118.029000
  C    -100.141000    4.583840  -120.863000
  H    -99.768000    4.258090  -121.863000
  H    -99.507900    5.369480  -120.395000
  C    -101.560000    5.248970  -120.892000
  H    -102.272000    4.814110  -121.641000
  H    -102.111000    5.280170  -119.903000
  C    -101.385000    6.656690  -121.491000
  H    -100.537000    7.212870  -121.042000
  H    -101.130000    6.542840  -122.553000
  H    -102.346000    7.114500  -121.484000
  S    -98.107700    2.330610  -115.690000
  C    -98.724400    1.825130  -114.162000
  C    -100.033000    1.397690  -114.263000
  C    -100.547000    1.414830  -115.610000
  C    -99.553200    1.878880  -116.503000
  H    -100.529000    1.186110  -113.297000
  C    -101.937000    1.006650  -115.988000
  H    -102.357000    0.478377  -115.106000
  H    -101.713000    0.108893  -116.632000
  C    -102.848000    2.208890  -116.436000
  H    -102.406000    2.849170  -117.317000
  H    -102.980000    2.953420  -115.668000
  C    -104.305000    1.838540  -116.812000
  H    -104.326000    1.266160  -117.732000
  H    -104.858000    2.816450  -116.850000
  H    -104.754000    1.354240  -115.990000
  H    -100.818000    1.893300  -121.388000
  H    -98.411100    2.137870  -113.203000

 Total Charge           Charge          ....    0
 Multiplicity           Mult            ....    1
 Number of Electrons    NEL             ....  134
 Basis Dimension        Dim             ....  322

ORBITAL ENERGIES
----------------

  NO   OCC          E(Eh)            E(eV)
   0   2.0000     -88.968353     -2420.9520
   1   2.0000     -88.960392     -2420.7353
   2   2.0000     -10.330907      -281.1183
   3   2.0000     -10.324452      -280.9426
   4   2.0000     -10.314546      -280.6731
   5   2.0000     -10.309271      -280.5295
   6   2.0000     -10.306237      -280.4470
   7   2.0000     -10.300674      -280.2956
   8   2.0000     -10.300055      -280.2788
   9   2.0000     -10.298057      -280.2244
  10   2.0000     -10.297778      -280.2168
  11   2.0000     -10.297128      -280.1991
  12   2.0000     -10.295371      -280.1513
  13   2.0000     -10.294169      -280.1186
  14   2.0000     -10.278080      -279.6808
  15   2.0000     -10.274027      -279.5705
  16   2.0000      -8.083612      -219.9663
  17   2.0000      -8.074618      -219.7215
  18   2.0000      -6.042051      -164.4126
  19   2.0000      -6.037887      -164.2993
  20   2.0000      -6.034588      -164.2095
  21   2.0000      -6.033359      -164.1760
  22   2.0000      -6.029046      -164.0587
  23   2.0000      -6.025288      -163.9564
  24   2.0000      -1.006917       -27.3996
  25   2.0000      -0.982275       -26.7291
  26   2.0000      -0.910123       -24.7657
  27   2.0000      -0.900960       -24.5164
  28   2.0000      -0.871834       -23.7238
  29   2.0000      -0.851300       -23.1650
  30   2.0000      -0.840917       -22.8825
  31   2.0000      -0.816092       -22.2070
  32   2.0000      -0.778817       -21.1927
  33   2.0000      -0.765872       -20.8404
  34   2.0000      -0.707028       -19.2392
  35   2.0000      -0.695032       -18.9128
  36   2.0000      -0.689589       -18.7647
  37   2.0000      -0.658676       -17.9235
  38   2.0000      -0.638014       -17.3613
  39   2.0000      -0.614792       -16.7293
  40   2.0000      -0.585321       -15.9274
  41   2.0000      -0.574668       -15.6375
  42   2.0000      -0.561155       -15.2698
  43   2.0000      -0.555000       -15.1023
  44   2.0000      -0.532833       -14.4991
  45   2.0000      -0.526039       -14.3142
  46   2.0000      -0.515635       -14.0311
  47   2.0000      -0.513119       -13.9627
  48   2.0000      -0.504058       -13.7161
  49   2.0000      -0.499813       -13.6006
  50   2.0000      -0.492435       -13.3998
  51   2.0000      -0.473946       -12.8967
  52   2.0000      -0.467084       -12.7100
  53   2.0000      -0.466186       -12.6856
  54   2.0000      -0.455476       -12.3941
  55   2.0000      -0.443704       -12.0738
  56   2.0000      -0.440285       -11.9808
  57   2.0000      -0.439141       -11.9496
  58   2.0000      -0.434388       -11.8203
  59   2.0000      -0.420398       -11.4396
  60   2.0000      -0.419246       -11.4083
  61   2.0000      -0.409039       -11.1305
  62   2.0000      -0.403911       -10.9910
  63   2.0000      -0.338848        -9.2205
  64   2.0000      -0.331310        -9.0154
  65   2.0000      -0.323370        -8.7993
  66   2.0000      -0.299130        -8.1397
  67   0.0000       0.029470         0.8019
  68   0.0000       0.072975         1.9857
  69   0.0000       0.112638         3.0650
  70   0.0000       0.123767         3.3679
  71   0.0000       0.128057         3.4846

MULLIKEN ATOMIC CHARGES
-----------------------
   0 S :    0.089791
   1 C :   -0.127840
   2 C :   -0.070693
   3 C :    0.027070
   4 C :   -0.157977
   5 H :    0.011272
   6 C :    0.034151
   7 H :    0.043694
   8 H :    0.027007
   9 C :   -0.101840
  10 H :    0.033602
  11 H :    0.051135
  12 C :   -0.049491
  13 H :    0.037411
  14 H :    0.024736
  15 H :    0.032727
  16 S :    0.129021
  17 C :   -0.070554
  18 C :   -0.073518
  19 C :   -0.048733
  20 C :   -0.158802
  21 H :    0.031456
  22 C :    0.089335
  23 H :    0.012035
  24 H :    0.049904
  25 C :   -0.113052
  26 H :    0.063034
  27 H :    0.023811
  28 C :   -0.025444
  29 H :    0.047059
  30 H :    0.032604
  31 H :    0.016023
  32 H :    0.046135
  33 H :    0.044930
Sum of atomic charges:    0.0000000

LOEWDIN ATOMIC CHARGES
----------------------
   0 S :    0.390044
   1 C :   -0.179817
   2 C :   -0.068372
   3 C :   -0.066980
   4 C :   -0.192365
   5 H :    0.028431
   6 C :   -0.036178
   7 H :    0.038475
   8 H :    0.032580
   9 C :   -0.046001
  10 H :    0.028418
  11 H :    0.030973
  12 C :   -0.068204
  13 H :    0.023769
  14 H :    0.025713
  15 H :    0.022454
  16 S :    0.441326
  17 C :   -0.202100
  18 C :   -0.074317
  19 C :   -0.050431
  20 C :   -0.222676
  21 H :    0.037402
  22 C :   -0.047853
  23 H :    0.032388
  24 H :    0.041826
  25 C :   -0.044196
  26 H :    0.039279
  27 H :    0.022174
  28 C :   -0.063171
  29 H :    0.025699
  30 H :    0.033249
  31 H :    0.015136
  32 H :    0.028421
  33 H :    0.024906

  Mayer bond orders larger than 0.100000
B(  0-S ,  1-C ) :   1.1190 B(  0-S ,  4-C ) :   1.1483 B(  1-C ,  2-C ) :   1.6206
B(  1-C , 32-H ) :   0.9789 B(  2-C ,  3-C ) :   1.2076 B(  2-C ,  6-C ) :   1.0398
B(  3-C ,  4-C ) :   1.5975 B(  3-C ,  5-H ) :   0.9940 B(  4-C , 20-C ) :   1.0245
B(  6-C ,  7-H ) :   0.9374 B(  6-C ,  8-H ) :   0.9460 B(  6-C ,  9-C ) :   1.0514
B(  9-C , 10-H ) :   0.9547 B(  9-C , 11-H ) :   0.9613 B(  9-C , 12-C ) :   1.0717
B( 12-C , 13-H ) :   0.9765 B( 12-C , 14-H ) :   0.9746 B( 12-C , 15-H ) :   0.9732
B( 16-S , 17-C ) :   1.1657 B( 16-S , 20-C ) :   1.1658 B( 17-C , 18-C ) :   1.6119
B( 17-C , 33-H ) :   0.9617 B( 18-C , 19-C ) :   1.2693 B( 18-C , 21-H ) :   0.9821
B( 19-C , 20-C ) :   1.5382 B( 19-C , 22-C ) :   1.0360 B( 22-C , 23-H ) :   0.9278
B( 22-C , 24-H ) :   0.9318 B( 22-C , 25-C ) :   1.0301 B( 25-C , 26-H ) :   0.9581
B( 25-C , 27-H ) :   0.9573 B( 25-C , 28-C ) :   1.0875 B( 28-C , 29-H ) :   0.9780
B( 28-C , 30-H ) :   0.9749 B( 28-C , 31-H ) :   0.9722

Dispersion correction           -0.014811776
FINAL SINGLE POINT ENERGY     -1339.865872758509

DIPOLE MOMENT
-------------
                                X             Y             Z
Electronic contribution:     20.71008     -14.60274       9.74892
Nuclear contribution   :    -21.25678      15.10249      -9.73606
                        -----------------------------------------
Total Dipole Moment    :     -0.54670       0.49975       0.01286
                        -----------------------------------------
Magnitude (a.u.)       :      0.74081
Magnitude (Debye)      :      1.88299

Rotational constants in cm-1:     0.018971     0.008418     0.007282
Rotational constants in MHz :   568.731117   252.379958   218.307757

                             ****ORCA TERMINATED NORMALLY****
TOTAL RUN TIME: 0 days 0 hours 0 minutes 21 seconds 849 msec
