                         Program Version 4.2.1 -  RELEASE  -
|  1> ! wB97X-D3 SP def2-SVP
|  2> %pal
|  3> nprocs 24
|  4> end
|  5>
|  6> * xyz 0 1
|  7> S 	 -97.2478 	 -2.20858 	 -117.464
|  8> C 	 -96.9943 	 -3.9774 	 -117.658
|  9> C 	 -97.3247 	 -4.3385 	 -118.988
| 10> C 	 -98.0807 	 -3.28553 	 -119.744
| 11> C 	 -97.9725 	 -2.06473 	 -119.086
| 12> H 	 -98.5907 	 -3.44224 	 -120.679
| 13> C 	 -97.1752 	 -5.68825 	 -119.535
| 14> H 	 -96.4 	 -6.28345 	 -119.038
| 15> H 	 -96.8211 	 -5.66443 	 -120.612
| 16> C 	 -98.4969 	 -6.5953 	 -119.461
| 17> H 	 -99.2026 	 -6.26733 	 -120.196
| 18> H 	 -98.2389 	 -7.58657 	 -119.789
| 19> C 	 -99.1195 	 -6.54094 	 -118.028
| 20> H 	 -98.4793 	 -6.66361 	 -117.196
| 21> H 	 -99.527 	 -5.59078 	 -117.809
| 22> H 	 -99.9091 	 -7.31807 	 -117.957
| 23> S 	 -99.9306 	 -0.312124 	 -118.426
| 24> C 	 -100.482 	 1.01708 	 -119.474
| 25> C 	 -99.7197 	 0.866052 	 -120.604
| 26> C 	 -98.678 	 -0.171833 	 -120.645
| 27> C 	 -98.6688 	 -0.883136 	 -119.491
| 28> H 	 -99.9667 	 1.58021 	 -121.412
| 29> C 	 -97.8841 	 -0.392596 	 -121.887
| 30> H 	 -97.2253 	 -1.33209 	 -121.82
| 31> H 	 -97.1434 	 0.392445 	 -121.846
| 32> C 	 -98.5226 	 -0.22321 	 -123.344
| 33> H 	 -99.1595 	 0.685167 	 -123.259
| 34> H 	 -99.2152 	 -0.990075 	 -123.541
| 35> C 	 -97.5285 	 -0.101519 	 -124.526
| 36> H 	 -98.0484 	 -0.0957345 	 -125.467
| 37> H 	 -96.7873 	 -0.847699 	 -124.59
| 38> H 	 -97.0016 	 0.843727 	 -124.546
| 39> H 	 -96.6737 	 -4.68498 	 -116.829
| 40> H 	 -101.201 	 1.74755 	 -119.303
| 41> *
| 42>
| 43>                          ****END OF INPUT****

CARTESIAN COORDINATES (ANGSTROEM)
---------------------------------
  S    -97.247800   -2.208580  -117.464000
  C    -96.994300   -3.977400  -117.658000
  C    -97.324700   -4.338500  -118.988000
  C    -98.080700   -3.285530  -119.744000
  C    -97.972500   -2.064730  -119.086000
  H    -98.590700   -3.442240  -120.679000
  C    -97.175200   -5.688250  -119.535000
  H    -96.400000   -6.283450  -119.038000
  H    -96.821100   -5.664430  -120.612000
  C    -98.496900   -6.595300  -119.461000
  H    -99.202600   -6.267330  -120.196000
  H    -98.238900   -7.586570  -119.789000
  C    -99.119500   -6.540940  -118.028000
  H    -98.479300   -6.663610  -117.196000
  H    -99.527000   -5.590780  -117.809000
  H    -99.909100   -7.318070  -117.957000
  S    -99.930600   -0.312124  -118.426000
  C    -100.482000    1.017080  -119.474000
  C    -99.719700    0.866052  -120.604000
  C    -98.678000   -0.171833  -120.645000
  C    -98.668800   -0.883136  -119.491000
  H    -99.966700    1.580210  -121.412000
  C    -97.884100   -0.392596  -121.887000
  H    -97.225300   -1.332090  -121.820000
  H    -97.143400    0.392445  -121.846000
  C    -98.522600   -0.223210  -123.344000
  H    -99.159500    0.685167  -123.259000
  H    -99.215200   -0.990075  -123.541000
  C    -97.528500   -0.101519  -124.526000
  H    -98.048400   -0.095735  -125.467000
  H    -96.787300   -0.847699  -124.590000
  H    -97.001600    0.843727  -124.546000
  H    -96.673700   -4.684980  -116.829000
  H    -101.201000    1.747550  -119.303000

 Total Charge           Charge          ....    0
 Multiplicity           Mult            ....    1
 Number of Electrons    NEL             ....  134
 Basis Dimension        Dim             ....  322

ORBITAL ENERGIES
----------------

  NO   OCC          E(Eh)            E(eV)
   0   2.0000     -88.967571     -2420.9307
   1   2.0000     -88.956520     -2420.6300
   2   2.0000     -10.333772      -281.1962
   3   2.0000     -10.328784      -281.0605
   4   2.0000     -10.322779      -280.8971
   5   2.0000     -10.316704      -280.7318
   6   2.0000     -10.310859      -280.5727
   7   2.0000     -10.306256      -280.4475
   8   2.0000     -10.305187      -280.4184
   9   2.0000     -10.297810      -280.2177
  10   2.0000     -10.296840      -280.1913
  11   2.0000     -10.295146      -280.1452
  12   2.0000     -10.294630      -280.1311
  13   2.0000     -10.290469      -280.0179
  14   2.0000     -10.277178      -279.6562
  15   2.0000     -10.271892      -279.5124
  16   2.0000      -8.080927      -219.8932
  17   2.0000      -8.071290      -219.6310
  18   2.0000      -6.039713      -164.3490
  19   2.0000      -6.035632      -164.2379
  20   2.0000      -6.031433      -164.1236
  21   2.0000      -6.030089      -164.0871
  22   2.0000      -6.025668      -163.9668
  23   2.0000      -6.021786      -163.8611
  24   2.0000      -1.004342       -27.3295
  25   2.0000      -0.973672       -26.4950
  26   2.0000      -0.906104       -24.6563
  27   2.0000      -0.901000       -24.5175
  28   2.0000      -0.870168       -23.6785
  29   2.0000      -0.848462       -23.0878
  30   2.0000      -0.838936       -22.8286
  31   2.0000      -0.814354       -22.1597
  32   2.0000      -0.778307       -21.1788
  33   2.0000      -0.773700       -21.0534
  34   2.0000      -0.715864       -19.4796
  35   2.0000      -0.708702       -19.2848
  36   2.0000      -0.699176       -19.0255
  37   2.0000      -0.658548       -17.9200
  38   2.0000      -0.637374       -17.3438
  39   2.0000      -0.617601       -16.8058
  40   2.0000      -0.595626       -16.2078
  41   2.0000      -0.562664       -15.3109
  42   2.0000      -0.556719       -15.1491
  43   2.0000      -0.541560       -14.7366
  44   2.0000      -0.539575       -14.6826
  45   2.0000      -0.530155       -14.4262
  46   2.0000      -0.519987       -14.1496
  47   2.0000      -0.511563       -13.9203
  48   2.0000      -0.505812       -13.7639
  49   2.0000      -0.503255       -13.6943
  50   2.0000      -0.491856       -13.3841
  51   2.0000      -0.481146       -13.0926
  52   2.0000      -0.468475       -12.7479
  53   2.0000      -0.466975       -12.7070
  54   2.0000      -0.455387       -12.3917
  55   2.0000      -0.452514       -12.3135
  56   2.0000      -0.449199       -12.2233
  57   2.0000      -0.430935       -11.7263
  58   2.0000      -0.423907       -11.5351
  59   2.0000      -0.421664       -11.4741
  60   2.0000      -0.421303       -11.4642
  61   2.0000      -0.418351       -11.3839
  62   2.0000      -0.405925       -11.0458
  63   2.0000      -0.345876        -9.4118
  64   2.0000      -0.321414        -8.7461
  65   2.0000      -0.319234        -8.6868
  66   2.0000      -0.300650        -8.1811
  67   0.0000       0.027997         0.7618
  68   0.0000       0.070217         1.9107
  69   0.0000       0.103157         2.8071
  70   0.0000       0.115301         3.1375
  71   0.0000       0.124332         3.3833

MULLIKEN ATOMIC CHARGES
-----------------------
   0 S :    0.103662
   1 C :   -0.153021
   2 C :   -0.078404
   3 C :    0.041650
   4 C :   -0.155882
   5 H :    0.030045
   6 C :   -0.000050
   7 H :    0.027290
   8 H :    0.040091
   9 C :   -0.053619
  10 H :    0.025684
  11 H :    0.026070
  12 C :   -0.039590
  13 H :    0.010707
  14 H :    0.037524
  15 H :    0.036888
  16 S :    0.083107
  17 C :   -0.061893
  18 C :   -0.076385
  19 C :    0.011605
  20 C :   -0.146766
  21 H :    0.029608
  22 C :    0.031744
  23 H :    0.036382
  24 H :    0.028102
  25 C :   -0.063350
  26 H :    0.026507
  27 H :    0.025199
  28 C :   -0.025858
  29 H :    0.027256
  30 H :    0.025432
  31 H :    0.025193
  32 H :    0.087869
  33 H :    0.037202
Sum of atomic charges:    0.0000000

LOEWDIN ATOMIC CHARGES
----------------------
   0 S :    0.374948
   1 C :   -0.197359
   2 C :   -0.059144
   3 C :   -0.042243
   4 C :   -0.184567
   5 H :    0.034343
   6 C :   -0.047277
   7 H :    0.029440
   8 H :    0.037226
   9 C :   -0.027625
  10 H :    0.018858
  11 H :    0.020056
  12 C :   -0.064343
  13 H :    0.016335
  14 H :    0.024340
  15 H :    0.030567
  16 S :    0.386196
  17 C :   -0.165767
  18 C :   -0.076033
  19 C :   -0.061143
  20 C :   -0.199698
  21 H :    0.029746
  22 C :   -0.044072
  23 H :    0.036833
  24 H :    0.034685
  25 C :   -0.031884
  26 H :    0.026579
  27 H :    0.015885
  28 C :   -0.060330
  29 H :    0.029082
  30 H :    0.019657
  31 H :    0.026162
  32 H :    0.047129
  33 H :    0.023417

  Mayer bond orders larger than 0.100000
B(  0-S ,  1-C ) :   1.1124 B(  0-S ,  4-C ) :   1.1299 B(  1-C ,  2-C ) :   1.6177
B(  1-C , 32-H ) :   0.9604 B(  2-C ,  3-C ) :   1.1819 B(  2-C ,  6-C ) :   1.0643
B(  3-C ,  4-C ) :   1.6014 B(  3-C ,  5-H ) :   0.9896 B(  4-C , 20-C ) :   1.0403
B(  6-C ,  7-H ) :   0.9459 B(  6-C ,  8-H ) :   0.9403 B(  6-C ,  9-C ) :   1.0552
B(  9-C , 10-H ) :   0.9583 B(  9-C , 11-H ) :   0.9621 B(  9-C , 12-C ) :   1.0655
B( 12-C , 13-H ) :   0.9777 B( 12-C , 14-H ) :   0.9701 B( 12-C , 15-H ) :   0.9746
B( 16-S , 17-C ) :   1.1224 B( 16-S , 20-C ) :   1.1310 B( 17-C , 18-C ) :   1.6469
B( 17-C , 33-H ) :   0.9813 B( 18-C , 19-C ) :   1.1897 B( 18-C , 21-H ) :   0.9782
B( 19-C , 20-C ) :   1.6243 B( 19-C , 22-C ) :   1.0537 B( 22-C , 23-H ) :   0.9349
B( 22-C , 24-H ) :   0.9250 B( 22-C , 25-C ) :   1.0436 B( 25-C , 26-H ) :   0.9510
B( 25-C , 27-H ) :   0.9615 B( 25-C , 28-C ) :   1.0836 B( 28-C , 29-H ) :   0.9726
B( 28-C , 30-H ) :   0.9784 B( 28-C , 31-H ) :   0.9741

Dispersion correction           -0.014203653
FINAL SINGLE POINT ENERGY     -1339.855586624920

DIPOLE MOMENT
-------------
                                X             Y             Z
Electronic contribution:     -1.53366      12.91046      20.10205
Nuclear contribution   :      1.45810     -13.20208     -20.81007
                        -----------------------------------------
Total Dipole Moment    :     -0.07556      -0.29162      -0.70802
                        -----------------------------------------
Magnitude (a.u.)       :      0.76945
Magnitude (Debye)      :      1.95577

Rotational constants in cm-1:     0.017889     0.008346     0.006658
Rotational constants in MHz :   536.302495   250.206552   199.607391

                             ****ORCA TERMINATED NORMALLY****
TOTAL RUN TIME: 0 days 0 hours 0 minutes 20 seconds 133 msec
