                         Program Version 4.2.1 -  RELEASE  -
|  1> ! wB97X-D3 SP def2-SVP
|  2> %pal
|  3> nprocs 24
|  4> end
|  5>
|  6> * xyz 0 1
|  7> S 	 34.6707 	 -6.06708 	 -114.923
|  8> C 	 35.5851 	 -6.19068 	 -116.336
|  9> C 	 36.9594 	 -6.24462 	 -116.128
| 10> C 	 37.2733 	 -5.99488 	 -114.748
| 11> C 	 36.128 	 -5.8998 	 -113.967
| 12> H 	 38.187 	 -5.92521 	 -114.168
| 13> C 	 38.1034 	 -6.4657 	 -117.095
| 14> H 	 39 	 -6.2566 	 -116.504
| 15> H 	 37.9304 	 -5.86213 	 -117.918
| 16> C 	 38.0921 	 -7.93333 	 -117.533
| 17> H 	 38.3324 	 -8.52753 	 -116.648
| 18> H 	 37.0333 	 -8.2089 	 -117.853
| 19> C 	 38.9586 	 -8.25781 	 -118.755
| 20> H 	 38.7749 	 -7.57572 	 -119.527
| 21> H 	 39.959 	 -8.10736 	 -118.482
| 22> H 	 38.92 	 -9.31153 	 -119.088
| 23> S 	 37.1463 	 -4.07825 	 -112.197
| 24> C 	 36.6942 	 -4.11422 	 -110.521
| 25> C 	 35.8779 	 -5.1858 	 -110.267
| 26> C 	 35.5602 	 -5.95983 	 -111.423
| 27> C 	 36.1876 	 -5.4608 	 -112.577
| 28> H 	 35.4715 	 -5.37783 	 -109.304
| 29> C 	 34.5857 	 -7.12376 	 -111.438
| 30> H 	 34.7204 	 -7.73837 	 -110.51
| 31> H 	 34.6993 	 -7.82657 	 -112.255
| 32> C 	 33.1309 	 -6.60209 	 -111.529
| 33> H 	 32.5025 	 -7.33969 	 -112.095
| 34> H 	 33.0157 	 -5.80931 	 -112.227
| 35> C 	 32.4027 	 -6.21119 	 -110.251
| 36> H 	 32.7094 	 -5.25746 	 -109.873
| 37> H 	 32.5076 	 -6.92447 	 -109.439
| 38> H 	 31.2962 	 -6.29641 	 -110.413
| 39> H 	 35.0396 	 -6.36716 	 -117.217
| 40> H 	 37.0641 	 -3.36948 	 -109.815
| 41> *
| 42>
| 43>                          ****END OF INPUT****

CARTESIAN COORDINATES (ANGSTROEM)
---------------------------------
  S     34.670700   -6.067080  -114.923000
  C     35.585100   -6.190680  -116.336000
  C     36.959400   -6.244620  -116.128000
  C     37.273300   -5.994880  -114.748000
  C     36.128000   -5.899800  -113.967000
  H     38.187000   -5.925210  -114.168000
  C     38.103400   -6.465700  -117.095000
  H     39.000000   -6.256600  -116.504000
  H     37.930400   -5.862130  -117.918000
  C     38.092100   -7.933330  -117.533000
  H     38.332400   -8.527530  -116.648000
  H     37.033300   -8.208900  -117.853000
  C     38.958600   -8.257810  -118.755000
  H     38.774900   -7.575720  -119.527000
  H     39.959000   -8.107360  -118.482000
  H     38.920000   -9.311530  -119.088000
  S     37.146300   -4.078250  -112.197000
  C     36.694200   -4.114220  -110.521000
  C     35.877900   -5.185800  -110.267000
  C     35.560200   -5.959830  -111.423000
  C     36.187600   -5.460800  -112.577000
  H     35.471500   -5.377830  -109.304000
  C     34.585700   -7.123760  -111.438000
  H     34.720400   -7.738370  -110.510000
  H     34.699300   -7.826570  -112.255000
  C     33.130900   -6.602090  -111.529000
  H     32.502500   -7.339690  -112.095000
  H     33.015700   -5.809310  -112.227000
  C     32.402700   -6.211190  -110.251000
  H     32.709400   -5.257460  -109.873000
  H     32.507600   -6.924470  -109.439000
  H     31.296200   -6.296410  -110.413000
  H     35.039600   -6.367160  -117.217000
  H     37.064100   -3.369480  -109.815000

 Total Charge           Charge          ....    0
 Multiplicity           Mult            ....    1
 Number of Electrons    NEL             ....  134
 Basis Dimension        Dim             ....  322

ORBITAL ENERGIES
----------------

  NO   OCC          E(Eh)            E(eV)
   0   2.0000     -88.968692     -2420.9612
   1   2.0000     -88.964101     -2420.8363
   2   2.0000     -10.324038      -280.9314
   3   2.0000     -10.321224      -280.8548
   4   2.0000     -10.315268      -280.6927
   5   2.0000     -10.308385      -280.5054
   6   2.0000     -10.303555      -280.3740
   7   2.0000     -10.300646      -280.2948
   8   2.0000     -10.293554      -280.1018
   9   2.0000     -10.292060      -280.0612
  10   2.0000     -10.290990      -280.0321
  11   2.0000     -10.288034      -279.9516
  12   2.0000     -10.286999      -279.9235
  13   2.0000     -10.282110      -279.7904
  14   2.0000     -10.275136      -279.6007
  15   2.0000     -10.269518      -279.4478
  16   2.0000      -8.084189      -219.9820
  17   2.0000      -8.079363      -219.8506
  18   2.0000      -6.042540      -164.4259
  19   2.0000      -6.038572      -164.3179
  20   2.0000      -6.037760      -164.2958
  21   2.0000      -6.035121      -164.2240
  22   2.0000      -6.033685      -164.1849
  23   2.0000      -6.030329      -164.0936
  24   2.0000      -1.010103       -27.4863
  25   2.0000      -0.988632       -26.9020
  26   2.0000      -0.914852       -24.8944
  27   2.0000      -0.905274       -24.6338
  28   2.0000      -0.873170       -23.7602
  29   2.0000      -0.854230       -23.2448
  30   2.0000      -0.845422       -23.0051
  31   2.0000      -0.813612       -22.1395
  32   2.0000      -0.784512       -21.3477
  33   2.0000      -0.771804       -21.0019
  34   2.0000      -0.702306       -19.1107
  35   2.0000      -0.699526       -19.0351
  36   2.0000      -0.689495       -18.7621
  37   2.0000      -0.669804       -18.2263
  38   2.0000      -0.648561       -17.6482
  39   2.0000      -0.613068       -16.6824
  40   2.0000      -0.600201       -16.3323
  41   2.0000      -0.571575       -15.5533
  42   2.0000      -0.561900       -15.2901
  43   2.0000      -0.545417       -14.8415
  44   2.0000      -0.538974       -14.6662
  45   2.0000      -0.522812       -14.2264
  46   2.0000      -0.518201       -14.1010
  47   2.0000      -0.512460       -13.9447
  48   2.0000      -0.508042       -13.8245
  49   2.0000      -0.496485       -13.5100
  50   2.0000      -0.493551       -13.4302
  51   2.0000      -0.484484       -13.1835
  52   2.0000      -0.476708       -12.9719
  53   2.0000      -0.470709       -12.8086
  54   2.0000      -0.465060       -12.6549
  55   2.0000      -0.443610       -12.0712
  56   2.0000      -0.439503       -11.9595
  57   2.0000      -0.436436       -11.8760
  58   2.0000      -0.433713       -11.8019
  59   2.0000      -0.428662       -11.6645
  60   2.0000      -0.419286       -11.4093
  61   2.0000      -0.413076       -11.2404
  62   2.0000      -0.408179       -11.1071
  63   2.0000      -0.347971        -9.4688
  64   2.0000      -0.334612        -9.1053
  65   2.0000      -0.326430        -8.8826
  66   2.0000      -0.288375        -7.8471
  67   0.0000       0.034218         0.9311
  68   0.0000       0.071739         1.9521
  69   0.0000       0.108303         2.9471
  70   0.0000       0.117423         3.1952
  71   0.0000       0.137233         3.7343

MULLIKEN ATOMIC CHARGES
-----------------------
   0 S :    0.120706
   1 C :   -0.121773
   2 C :   -0.083123
   3 C :   -0.020784
   4 C :   -0.140886
   5 H :    0.022448
   6 C :    0.154206
   7 H :    0.027993
   8 H :    0.009347
   9 C :   -0.138559
  10 H :    0.031429
  11 H :    0.033403
  12 C :    0.014341
  13 H :    0.015747
  14 H :    0.006043
  15 H :    0.041587
  16 S :    0.113548
  17 C :   -0.105370
  18 C :   -0.009968
  19 C :   -0.040396
  20 C :   -0.169746
  21 H :    0.004719
  22 C :    0.073319
  23 H :    0.032155
  24 H :    0.026262
  25 C :   -0.080319
  26 H :    0.019560
  27 H :    0.016445
  28 C :   -0.036630
  29 H :    0.036063
  30 H :    0.014503
  31 H :    0.035872
  32 H :    0.033360
  33 H :    0.064499
Sum of atomic charges:   -0.0000000

LOEWDIN ATOMIC CHARGES
----------------------
   0 S :    0.439076
   1 C :   -0.210217
   2 C :   -0.053304
   3 C :   -0.069037
   4 C :   -0.198425
   5 H :    0.032275
   6 C :   -0.019344
   7 H :    0.034514
   8 H :    0.021154
   9 C :   -0.040630
  10 H :    0.024372
  11 H :    0.025928
  12 C :   -0.062145
  13 H :    0.017516
  14 H :    0.016530
  15 H :    0.032949
  16 S :    0.428853
  17 C :   -0.193109
  18 C :   -0.069104
  19 C :   -0.057479
  20 C :   -0.209402
  21 H :    0.025928
  22 C :   -0.033325
  23 H :    0.035637
  24 H :    0.029303
  25 C :   -0.048556
  26 H :    0.027486
  27 H :    0.017306
  28 C :   -0.068568
  29 H :    0.020347
  30 H :    0.019986
  31 H :    0.036200
  32 H :    0.014760
  33 H :    0.032525

  Mayer bond orders larger than 0.100000
B(  0-S ,  1-C ) :   1.1657 B(  0-S ,  4-C ) :   1.1603 B(  1-C ,  2-C ) :   1.5746
B(  1-C , 32-H ) :   0.9769 B(  2-C ,  3-C ) :   1.2381 B(  2-C ,  6-C ) :   1.0192
B(  3-C ,  4-C ) :   1.5623 B(  3-C ,  5-H ) :   0.9950 B(  4-C , 20-C ) :   1.0399
B(  6-C ,  7-H ) :   0.9380 B(  6-C ,  8-H ) :   0.9285 B(  6-C ,  9-C ) :   1.0621
B(  9-C , 10-H ) :   0.9557 B(  9-C , 11-H ) :   0.9650 B(  9-C , 12-C ) :   1.0762
B( 12-C , 13-H ) :   0.9731 B( 12-C , 14-H ) :   0.9688 B( 12-C , 15-H ) :   0.9735
B( 16-S , 17-C ) :   1.1643 B( 16-S , 20-C ) :   1.1600 B( 17-C , 18-C ) :   1.5698
B( 17-C , 33-H ) :   0.9701 B( 18-C , 19-C ) :   1.2677 B( 18-C , 21-H ) :   0.9961
B( 19-C , 20-C ) :   1.5536 B( 19-C , 22-C ) :   1.0598 B( 22-C , 23-H ) :   0.9410
B( 22-C , 24-H ) :   0.9317 B( 22-C , 25-C ) :   1.0552 B( 25-C , 26-H ) :   0.9572
B( 25-C , 27-H ) :   0.9488 B( 25-C , 28-C ) :   1.0844 B( 28-C , 29-H ) :   0.9747
B( 28-C , 30-H ) :   0.9745 B( 28-C , 31-H ) :   0.9710

Dispersion correction           -0.014470744
FINAL SINGLE POINT ENERGY     -1339.883409145768

DIPOLE MOMENT
-------------
                                X             Y             Z
Electronic contribution:      1.60359      13.12421       5.78795
Nuclear contribution   :     -1.57106     -13.36512      -5.85471
                        -----------------------------------------
Total Dipole Moment    :      0.03253      -0.24091      -0.06676
                        -----------------------------------------
Magnitude (a.u.)       :      0.25209
Magnitude (Debye)      :      0.64077

Rotational constants in cm-1:     0.025127     0.007247     0.006164
Rotational constants in MHz :   753.283545   217.257341   184.791604

                             ****ORCA TERMINATED NORMALLY****
TOTAL RUN TIME: 0 days 0 hours 0 minutes 20 seconds 190 msec
