                         Program Version 4.2.1 -  RELEASE  -
|  1> ! wB97X-D3 SP def2-SVP
|  2> %pal
|  3> nprocs 24
|  4> end
|  5>
|  6> * xyz 0 1
|  7> S 	 -114.361 	 30.0408 	 -12.9361
|  8> C 	 -114.17 	 28.6055 	 -13.8397
|  9> C 	 -115.412 	 28.1953 	 -14.2933
| 10> C 	 -116.538 	 28.9724 	 -13.7669
| 11> C 	 -116.062 	 30.1219 	 -13.1162
| 12> H 	 -117.546 	 28.8704 	 -14.0221
| 13> C 	 -115.46 	 26.9072 	 -15.0821
| 14> H 	 -115.181 	 25.9668 	 -14.5664
| 15> H 	 -114.672 	 26.9408 	 -15.8318
| 16> C 	 -116.651 	 26.6344 	 -16.0488
| 17> H 	 -117.577 	 26.6145 	 -15.4999
| 18> H 	 -116.674 	 27.519 	 -16.7162
| 19> C 	 -116.54 	 25.26 	 -16.6887
| 20> H 	 -117.047 	 24.56 	 -15.9775
| 21> H 	 -117.189 	 25.194 	 -17.5372
| 22> H 	 -115.591 	 24.8604 	 -16.9975
| 23> S 	 -117.102 	 31.4931 	 -10.975
| 24> C 	 -118.359 	 32.6131 	 -11.2239
| 25> C 	 -118.587 	 32.7268 	 -12.5777
| 26> C 	 -117.804 	 31.9319 	 -13.4188
| 27> C 	 -116.908 	 31.2163 	 -12.711
| 28> H 	 -119.447 	 33.3669 	 -12.9082
| 29> C 	 -118.18 	 31.9138 	 -14.8586
| 30> H 	 -118.938 	 32.6727 	 -15.0336
| 31> H 	 -118.648 	 30.9972 	 -15.0763
| 32> C 	 -116.983 	 32.1008 	 -15.7637
| 33> H 	 -116.284 	 31.2946 	 -15.7372
| 34> H 	 -116.506 	 32.9952 	 -15.5077
| 35> C 	 -117.51 	 32.3257 	 -17.2049
| 36> H 	 -118.432 	 32.8088 	 -17.3513
| 37> H 	 -117.665 	 31.356 	 -17.7116
| 38> H 	 -116.88 	 32.9627 	 -17.8193
| 39> H 	 -113.246 	 28.123 	 -14.0209
| 40> H 	 -118.91 	 33.1064 	 -10.4639
| 41> *
| 42>
| 43>                          ****END OF INPUT****

CARTESIAN COORDINATES (ANGSTROEM)
---------------------------------
  S    -114.361000   30.040800  -12.936100
  C    -114.170000   28.605500  -13.839700
  C    -115.412000   28.195300  -14.293300
  C    -116.538000   28.972400  -13.766900
  C    -116.062000   30.121900  -13.116200
  H    -117.546000   28.870400  -14.022100
  C    -115.460000   26.907200  -15.082100
  H    -115.181000   25.966800  -14.566400
  H    -114.672000   26.940800  -15.831800
  C    -116.651000   26.634400  -16.048800
  H    -117.577000   26.614500  -15.499900
  H    -116.674000   27.519000  -16.716200
  C    -116.540000   25.260000  -16.688700
  H    -117.047000   24.560000  -15.977500
  H    -117.189000   25.194000  -17.537200
  H    -115.591000   24.860400  -16.997500
  S    -117.102000   31.493100  -10.975000
  C    -118.359000   32.613100  -11.223900
  C    -118.587000   32.726800  -12.577700
  C    -117.804000   31.931900  -13.418800
  C    -116.908000   31.216300  -12.711000
  H    -119.447000   33.366900  -12.908200
  C    -118.180000   31.913800  -14.858600
  H    -118.938000   32.672700  -15.033600
  H    -118.648000   30.997200  -15.076300
  C    -116.983000   32.100800  -15.763700
  H    -116.284000   31.294600  -15.737200
  H    -116.506000   32.995200  -15.507700
  C    -117.510000   32.325700  -17.204900
  H    -118.432000   32.808800  -17.351300
  H    -117.665000   31.356000  -17.711600
  H    -116.880000   32.962700  -17.819300
  H    -113.246000   28.123000  -14.020900
  H    -118.910000   33.106400  -10.463900

 Total Charge           Charge          ....    0
 Multiplicity           Mult            ....    1
 Number of Electrons    NEL             ....  134
 Basis Dimension        Dim             ....  322

ORBITAL ENERGIES
----------------

  NO   OCC          E(Eh)            E(eV)
   0   2.0000     -88.965472     -2420.8736
   1   2.0000     -88.961942     -2420.7775
   2   2.0000     -10.326899      -281.0092
   3   2.0000     -10.320404      -280.8325
   4   2.0000     -10.311169      -280.5812
   5   2.0000     -10.308568      -280.5104
   6   2.0000     -10.304510      -280.4000
   7   2.0000     -10.296230      -280.1747
   8   2.0000     -10.293341      -280.0960
   9   2.0000     -10.288925      -279.9759
  10   2.0000     -10.288380      -279.9611
  11   2.0000     -10.287486      -279.9367
  12   2.0000     -10.284148      -279.8459
  13   2.0000     -10.278631      -279.6958
  14   2.0000     -10.275724      -279.6167
  15   2.0000     -10.270034      -279.4618
  16   2.0000      -8.081447      -219.9073
  17   2.0000      -8.077600      -219.8027
  18   2.0000      -6.039766      -164.3504
  19   2.0000      -6.035946      -164.2464
  20   2.0000      -6.035512      -164.2346
  21   2.0000      -6.032591      -164.1552
  22   2.0000      -6.031933      -164.1373
  23   2.0000      -6.028507      -164.0440
  24   2.0000      -1.015133       -27.6232
  25   2.0000      -0.992617       -27.0105
  26   2.0000      -0.917994       -24.9799
  27   2.0000      -0.910386       -24.7729
  28   2.0000      -0.875223       -23.8160
  29   2.0000      -0.855101       -23.2685
  30   2.0000      -0.847210       -23.0538
  31   2.0000      -0.814544       -22.1649
  32   2.0000      -0.783657       -21.3244
  33   2.0000      -0.773079       -21.0365
  34   2.0000      -0.717346       -19.5200
  35   2.0000      -0.705375       -19.1942
  36   2.0000      -0.689362       -18.7585
  37   2.0000      -0.662442       -18.0260
  38   2.0000      -0.649829       -17.6827
  39   2.0000      -0.618967       -16.8429
  40   2.0000      -0.602839       -16.4041
  41   2.0000      -0.571900       -15.5622
  42   2.0000      -0.569205       -15.4889
  43   2.0000      -0.567777       -15.4500
  44   2.0000      -0.526798       -14.3349
  45   2.0000      -0.525491       -14.2993
  46   2.0000      -0.517912       -14.0931
  47   2.0000      -0.512789       -13.9537
  48   2.0000      -0.509840       -13.8735
  49   2.0000      -0.501069       -13.6348
  50   2.0000      -0.491850       -13.3839
  51   2.0000      -0.487300       -13.2601
  52   2.0000      -0.478035       -13.0080
  53   2.0000      -0.467409       -12.7188
  54   2.0000      -0.460263       -12.5244
  55   2.0000      -0.454455       -12.3664
  56   2.0000      -0.447961       -12.1896
  57   2.0000      -0.432872       -11.7791
  58   2.0000      -0.430699       -11.7199
  59   2.0000      -0.424349       -11.5471
  60   2.0000      -0.416735       -11.3399
  61   2.0000      -0.412405       -11.2221
  62   2.0000      -0.408876       -11.1261
  63   2.0000      -0.339139        -9.2285
  64   2.0000      -0.332488        -9.0474
  65   2.0000      -0.327080        -8.9003
  66   2.0000      -0.299964        -8.1624
  67   0.0000       0.037062         1.0085
  68   0.0000       0.066283         1.8037
  69   0.0000       0.119321         3.2469
  70   0.0000       0.123901         3.3715
  71   0.0000       0.133249         3.6259

MULLIKEN ATOMIC CHARGES
-----------------------
   0 S :    0.132812
   1 C :   -0.102470
   2 C :   -0.068019
   3 C :    0.070101
   4 C :   -0.184140
   5 H :   -0.003805
   6 C :    0.002197
   7 H :    0.040556
   8 H :    0.016602
   9 C :   -0.086011
  10 H :    0.025616
  11 H :    0.033645
  12 C :   -0.039561
  13 H :    0.034404
  14 H :    0.022784
  15 H :    0.031715
  16 S :    0.110887
  17 C :   -0.074281
  18 C :   -0.080949
  19 C :   -0.000999
  20 C :   -0.170665
  21 H :    0.028216
  22 C :    0.114140
  23 H :    0.009445
  24 H :    0.016624
  25 C :   -0.042251
  26 H :    0.045168
  27 H :    0.018152
  28 C :   -0.043557
  29 H :    0.006413
  30 H :    0.026426
  31 H :    0.024948
  32 H :    0.039981
  33 H :    0.045876
Sum of atomic charges:   -0.0000000

LOEWDIN ATOMIC CHARGES
----------------------
   0 S :    0.446825
   1 C :   -0.203826
   2 C :   -0.063494
   3 C :   -0.054507
   4 C :   -0.211616
   5 H :    0.020769
   6 C :   -0.046671
   7 H :    0.031984
   8 H :    0.030184
   9 C :   -0.042217
  10 H :    0.018000
  11 H :    0.023083
  12 C :   -0.066274
  13 H :    0.035530
  14 H :    0.025311
  15 H :    0.020595
  16 S :    0.420767
  17 C :   -0.191484
  18 C :   -0.082743
  19 C :   -0.055251
  20 C :   -0.199737
  21 H :    0.035094
  22 C :   -0.018630
  23 H :    0.030740
  24 H :    0.025557
  25 C :   -0.023532
  26 H :    0.026580
  27 H :    0.019358
  28 C :   -0.068172
  29 H :    0.015416
  30 H :    0.026778
  31 H :    0.024381
  32 H :    0.025278
  33 H :    0.025926

  Mayer bond orders larger than 0.100000
B(  0-S ,  1-C ) :   1.1537 B(  0-S ,  4-C ) :   1.1870 B(  1-C ,  2-C ) :   1.5720
B(  1-C , 32-H ) :   0.9838 B(  2-C ,  3-C ) :   1.2500 B(  2-C ,  6-C ) :   1.0164
B(  3-C ,  4-C ) :   1.5311 B(  3-C ,  5-H ) :   1.0020 B(  4-C , 20-C ) :   1.0185
B(  6-C ,  7-H ) :   0.9494 B(  6-C ,  8-H ) :   0.9448 B(  6-C ,  9-C ) :   1.0546
B(  9-C , 10-H ) :   0.9547 B(  9-C , 11-H ) :   0.9643 B(  9-C , 12-C ) :   1.0777
B( 12-C , 13-H ) :   0.9742 B( 12-C , 14-H ) :   0.9697 B( 12-C , 15-H ) :   0.9788
B( 16-S , 17-C ) :   1.1753 B( 16-S , 20-C ) :   1.1453 B( 17-C , 18-C ) :   1.5886
B( 17-C , 33-H ) :   0.9731 B( 18-C , 19-C ) :   1.2619 B( 18-C , 21-H ) :   0.9818
B( 19-C , 20-C ) :   1.5979 B( 19-C , 22-C ) :   1.0403 B( 22-C , 23-H ) :   0.9314
B( 22-C , 24-H ) :   0.9182 B( 22-C , 25-C ) :   1.0703 B( 25-C , 26-H ) :   0.9549
B( 25-C , 27-H ) :   0.9605 B( 25-C , 28-C ) :   1.0792 B( 28-C , 29-H ) :   0.9729
B( 28-C , 30-H ) :   0.9750 B( 28-C , 31-H ) :   0.9766

Dispersion correction           -0.014436811
FINAL SINGLE POINT ENERGY     -1339.866861649561

DIPOLE MOMENT
-------------
                                X             Y             Z
Electronic contribution:      7.80615      11.29189      27.98043
Nuclear contribution   :     -8.20573     -11.48806     -28.52875
                        -----------------------------------------
Total Dipole Moment    :     -0.39958      -0.19617      -0.54832
                        -----------------------------------------
Magnitude (a.u.)       :      0.70626
Magnitude (Debye)      :      1.79517

Rotational constants in cm-1:     0.018101     0.008769     0.007137
Rotational constants in MHz :   542.644715   262.893451   213.950576

                             ****ORCA TERMINATED NORMALLY****
TOTAL RUN TIME: 0 days 0 hours 0 minutes 20 seconds 915 msec
