                         Program Version 4.2.1 -  RELEASE  -
|  1> ! wB97X-D3 SP def2-SVP
|  2> %pal
|  3> nprocs 24
|  4> end
|  5>
|  6> * xyz 0 1
|  7> S 	 -49.1124 	 15.053 	 24.703
|  8> C 	 -48.4048 	 15.8376 	 23.2858
|  9> C 	 -47.5609 	 16.862 	 23.6505
| 10> C 	 -47.4206 	 17.0252 	 25.0521
| 11> C 	 -48.1039 	 16.0925 	 25.809
| 12> H 	 -46.7803 	 17.7027 	 25.5613
| 13> C 	 -46.9139 	 17.9214 	 22.7781
| 14> H 	 -46.8438 	 17.4842 	 21.786
| 15> H 	 -45.8074 	 17.9375 	 23.102
| 16> C 	 -47.4365 	 19.394 	 22.9017
| 17> H 	 -48.4778 	 19.414 	 22.4537
| 18> H 	 -47.4965 	 19.6999 	 23.9631
| 19> C 	 -46.5313 	 20.3151 	 22.1331
| 20> H 	 -45.6617 	 20.7689 	 22.5685
| 21> H 	 -46.2183 	 19.812 	 21.1613
| 22> H 	 -47.166 	 21.1674 	 21.8369
| 23> S 	 -47.9645 	 13.9968 	 27.5624
| 24> C 	 -47.7015 	 14.2506 	 29.3237
| 25> C 	 -47.4375 	 15.5729 	 29.5882
| 26> C 	 -47.5382 	 16.4499 	 28.4203
| 27> C 	 -47.8691 	 15.7136 	 27.2071
| 28> H 	 -47.3035 	 15.7656 	 30.5348
| 29> C 	 -47.4262 	 17.9826 	 28.6355
| 30> H 	 -46.9284 	 18.4667 	 27.7609
| 31> H 	 -46.9792 	 18.291 	 29.6335
| 32> C 	 -48.8247 	 18.6559 	 28.7845
| 33> H 	 -49.4097 	 18.6017 	 27.8638
| 34> H 	 -48.7853 	 19.73 	 28.9041
| 35> C 	 -49.7289 	 17.9363 	 29.7649
| 36> H 	 -49.7517 	 16.8722 	 29.5359
| 37> H 	 -50.77 	 18.2821 	 29.7736
| 38> H 	 -49.3481 	 18.0834 	 30.7889
| 39> H 	 -48.7637 	 15.9405 	 22.2992
| 40> H 	 -47.6671 	 13.4597 	 30.0918
| 41> *
| 42>
| 43>                          ****END OF INPUT****

CARTESIAN COORDINATES (ANGSTROEM)
---------------------------------
  S    -49.112400   15.053000   24.703000
  C    -48.404800   15.837600   23.285800
  C    -47.560900   16.862000   23.650500
  C    -47.420600   17.025200   25.052100
  C    -48.103900   16.092500   25.809000
  H    -46.780300   17.702700   25.561300
  C    -46.913900   17.921400   22.778100
  H    -46.843800   17.484200   21.786000
  H    -45.807400   17.937500   23.102000
  C    -47.436500   19.394000   22.901700
  H    -48.477800   19.414000   22.453700
  H    -47.496500   19.699900   23.963100
  C    -46.531300   20.315100   22.133100
  H    -45.661700   20.768900   22.568500
  H    -46.218300   19.812000   21.161300
  H    -47.166000   21.167400   21.836900
  S    -47.964500   13.996800   27.562400
  C    -47.701500   14.250600   29.323700
  C    -47.437500   15.572900   29.588200
  C    -47.538200   16.449900   28.420300
  C    -47.869100   15.713600   27.207100
  H    -47.303500   15.765600   30.534800
  C    -47.426200   17.982600   28.635500
  H    -46.928400   18.466700   27.760900
  H    -46.979200   18.291000   29.633500
  C    -48.824700   18.655900   28.784500
  H    -49.409700   18.601700   27.863800
  H    -48.785300   19.730000   28.904100
  C    -49.728900   17.936300   29.764900
  H    -49.751700   16.872200   29.535900
  H    -50.770000   18.282100   29.773600
  H    -49.348100   18.083400   30.788900
  H    -48.763700   15.940500   22.299200
  H    -47.667100   13.459700   30.091800

 Total Charge           Charge          ....    0
 Multiplicity           Mult            ....    1
 Number of Electrons    NEL             ....  134
 Basis Dimension        Dim             ....  322

ORBITAL ENERGIES
----------------

  NO   OCC          E(Eh)            E(eV)
   0   2.0000     -88.970410     -2421.0079
   1   2.0000     -88.968298     -2420.9505
   2   2.0000     -10.342611      -281.4367
   3   2.0000     -10.340411      -281.3769
   4   2.0000     -10.322501      -280.8895
   5   2.0000     -10.320976      -280.8480
   6   2.0000     -10.313398      -280.6418
   7   2.0000     -10.307470      -280.4805
   8   2.0000     -10.300516      -280.2913
   9   2.0000     -10.300299      -280.2854
  10   2.0000     -10.300012      -280.2776
  11   2.0000     -10.292875      -280.0834
  12   2.0000     -10.289828      -280.0005
  13   2.0000     -10.283299      -279.8228
  14   2.0000     -10.280937      -279.7585
  15   2.0000     -10.270922      -279.4860
  16   2.0000      -8.083417      -219.9610
  17   2.0000      -8.081956      -219.9212
  18   2.0000      -6.042306      -164.4195
  19   2.0000      -6.040659      -164.3747
  20   2.0000      -6.038190      -164.3075
  21   2.0000      -6.036510      -164.2618
  22   2.0000      -6.033818      -164.1885
  23   2.0000      -6.032640      -164.1565
  24   2.0000      -0.999199       -27.1896
  25   2.0000      -0.976259       -26.5654
  26   2.0000      -0.910418       -24.7737
  27   2.0000      -0.904501       -24.6127
  28   2.0000      -0.874646       -23.8003
  29   2.0000      -0.851008       -23.1571
  30   2.0000      -0.839929       -22.8556
  31   2.0000      -0.818697       -22.2779
  32   2.0000      -0.778204       -21.1760
  33   2.0000      -0.769002       -20.9256
  34   2.0000      -0.714844       -19.4519
  35   2.0000      -0.699980       -19.0474
  36   2.0000      -0.684934       -18.6380
  37   2.0000      -0.666283       -18.1305
  38   2.0000      -0.638040       -17.3619
  39   2.0000      -0.624372       -16.9900
  40   2.0000      -0.587648       -15.9907
  41   2.0000      -0.572466       -15.5776
  42   2.0000      -0.562341       -15.3021
  43   2.0000      -0.553688       -15.0666
  44   2.0000      -0.545826       -14.8527
  45   2.0000      -0.527113       -14.3435
  46   2.0000      -0.523671       -14.2498
  47   2.0000      -0.504745       -13.7348
  48   2.0000      -0.502759       -13.6808
  49   2.0000      -0.499812       -13.6006
  50   2.0000      -0.486943       -13.2504
  51   2.0000      -0.476760       -12.9733
  52   2.0000      -0.473210       -12.8767
  53   2.0000      -0.459005       -12.4902
  54   2.0000      -0.456435       -12.4202
  55   2.0000      -0.447972       -12.1899
  56   2.0000      -0.436735       -11.8842
  57   2.0000      -0.436606       -11.8806
  58   2.0000      -0.433311       -11.7910
  59   2.0000      -0.426030       -11.5929
  60   2.0000      -0.419858       -11.4249
  61   2.0000      -0.415572       -11.3083
  62   2.0000      -0.404106       -10.9963
  63   2.0000      -0.361496        -9.8368
  64   2.0000      -0.331996        -9.0341
  65   2.0000      -0.328245        -8.9320
  66   2.0000      -0.284291        -7.7359
  67   0.0000       0.014079         0.3831
  68   0.0000       0.072472         1.9721
  69   0.0000       0.099585         2.7098
  70   0.0000       0.111473         3.0333
  71   0.0000       0.128169         3.4877

MULLIKEN ATOMIC CHARGES
-----------------------
   0 S :    0.093128
   1 C :   -0.065832
   2 C :   -0.110145
   3 C :    0.030192
   4 C :   -0.118440
   5 H :   -0.003984
   6 C :    0.005440
   7 H :    0.020229
   8 H :    0.039466
   9 C :   -0.060025
  10 H :    0.045580
  11 H :    0.040970
  12 C :   -0.059268
  13 H :    0.040600
  14 H :    0.036233
  15 H :    0.030943
  16 S :    0.095510
  17 C :   -0.110987
  18 C :    0.035976
  19 C :   -0.047961
  20 C :   -0.134607
  21 H :   -0.045597
  22 C :    0.042038
  23 H :    0.040288
  24 H :    0.044726
  25 C :   -0.074523
  26 H :    0.020839
  27 H :    0.025624
  28 C :   -0.070197
  29 H :    0.057114
  30 H :    0.034959
  31 H :    0.017815
  32 H :    0.035190
  33 H :    0.068704
Sum of atomic charges:    0.0000000

LOEWDIN ATOMIC CHARGES
----------------------
   0 S :    0.368480
   1 C :   -0.194063
   2 C :   -0.064402
   3 C :   -0.054469
   4 C :   -0.164433
   5 H :    0.024247
   6 C :   -0.043411
   7 H :    0.025392
   8 H :    0.040500
   9 C :   -0.041071
  10 H :    0.034164
  11 H :    0.029129
  12 C :   -0.074351
  13 H :    0.023179
  14 H :    0.033162
  15 H :    0.031068
  16 S :    0.390485
  17 C :   -0.174122
  18 C :   -0.048625
  19 C :   -0.054475
  20 C :   -0.192370
  21 H :    0.003950
  22 C :   -0.035362
  23 H :    0.032289
  24 H :    0.040785
  25 C :   -0.049311
  26 H :    0.022553
  27 H :    0.020295
  28 C :   -0.069243
  29 H :    0.030350
  30 H :    0.027745
  31 H :    0.018243
  32 H :    0.026593
  33 H :    0.037098

  Mayer bond orders larger than 0.100000
B(  0-S ,  1-C ) :   1.1096 B(  0-S ,  4-C ) :   1.1227 B(  1-C ,  2-C ) :   1.6485
B(  1-C , 32-H ) :   0.9561 B(  2-C ,  3-C ) :   1.2288 B(  2-C ,  6-C ) :   1.0282
B(  3-C ,  4-C ) :   1.5803 B(  3-C ,  5-H ) :   0.9928 B(  4-C , 20-C ) :   1.0720
B(  6-C ,  7-H ) :   0.9403 B(  6-C ,  8-H ) :   0.9393 B(  6-C ,  9-C ) :   1.0503
B(  9-C , 10-H ) :   0.9564 B(  9-C , 11-H ) :   0.9522 B(  9-C , 12-C ) :   1.0761
B( 12-C , 13-H ) :   0.9763 B( 12-C , 14-H ) :   0.9726 B( 12-C , 15-H ) :   0.9730
B( 16-S , 17-C ) :   1.1292 B( 16-S , 20-C ) :   1.1508 B( 17-C , 18-C ) :   1.6315
B( 17-C , 33-H ) :   0.9629 B( 18-C , 19-C ) :   1.2191 B( 18-C , 21-H ) :   1.0132
B( 19-C , 20-C ) :   1.5438 B( 19-C , 22-C ) :   1.0420 B( 22-C , 23-H ) :   0.9375
B( 22-C , 24-H ) :   0.9464 B( 22-C , 25-C ) :   1.0558 B( 25-C , 26-H ) :   0.9535
B( 25-C , 27-H ) :   0.9604 B( 25-C , 28-C ) :   1.0782 B( 28-C , 29-H ) :   0.9668
B( 28-C , 30-H ) :   0.9726 B( 28-C , 31-H ) :   0.9759

Dispersion correction           -0.014341006
FINAL SINGLE POINT ENERGY     -1339.846973753673

DIPOLE MOMENT
-------------
                                X             Y             Z
Electronic contribution:     -3.00632     -27.13178       1.92097
Nuclear contribution   :      3.19130      27.88327      -1.86161
                        -----------------------------------------
Total Dipole Moment    :      0.18498       0.75149       0.05935
                        -----------------------------------------
Magnitude (a.u.)       :      0.77619
Magnitude (Debye)      :      1.97293

Rotational constants in cm-1:     0.019621     0.008374     0.006578
Rotational constants in MHz :   588.209428   251.035922   197.203299

                             ****ORCA TERMINATED NORMALLY****
TOTAL RUN TIME: 0 days 0 hours 0 minutes 21 seconds 737 msec
