                         Program Version 4.2.1 -  RELEASE  -
|  1> ! wB97X-D3 SP def2-SVP
|  2> %pal
|  3> nprocs 24
|  4> end
|  5>
|  6> * xyz 0 1
|  7> S 	 -87.8224 	 -47.153 	 -82.3004
|  8> C 	 -88.3264 	 -46.4037 	 -80.8168
|  9> C 	 -87.6457 	 -47.0322 	 -79.8005
| 10> C 	 -87.0982 	 -48.2908 	 -80.1741
| 11> C 	 -87.0293 	 -48.4994 	 -81.5273
| 12> H 	 -86.5699 	 -48.988 	 -79.459
| 13> C 	 -87.6806 	 -46.6333 	 -78.3677
| 14> H 	 -87.3934 	 -45.6135 	 -78.2377
| 15> H 	 -86.908 	 -47.2275 	 -77.8077
| 16> C 	 -89.0241 	 -46.8105 	 -77.6589
| 17> H 	 -89.9164 	 -46.3751 	 -78.0807
| 18> H 	 -89.2894 	 -47.8557 	 -77.8081
| 19> C 	 -88.951 	 -46.6246 	 -76.0971
| 20> H 	 -88.1697 	 -47.3475 	 -75.7072
| 21> H 	 -88.7422 	 -45.6049 	 -75.949
| 22> H 	 -89.8577 	 -46.8872 	 -75.5825
| 23> S 	 -85.0183 	 -49.2927 	 -83.2282
| 24> C 	 -84.7234 	 -50.9504 	 -83.5087
| 25> C 	 -85.7399 	 -51.7422 	 -82.9633
| 26> C 	 -86.646 	 -51.0231 	 -82.1679
| 27> C 	 -86.4535 	 -49.6496 	 -82.2217
| 28> H 	 -85.7304 	 -52.8157 	 -83.07
| 29> C 	 -87.5792 	 -51.6362 	 -81.1734
| 30> H 	 -88.3152 	 -50.9014 	 -80.825
| 31> H 	 -87.1552 	 -51.7533 	 -80.202
| 32> C 	 -88.3459 	 -52.9477 	 -81.643
| 33> H 	 -87.6493 	 -53.7612 	 -81.8741
| 34> H 	 -88.906 	 -52.7 	 -82.5401
| 35> C 	 -89.3855 	 -53.3149 	 -80.519
| 36> H 	 -90.2616 	 -53.838 	 -80.8555
| 37> H 	 -89.8781 	 -52.4454 	 -80.1284
| 38> H 	 -88.9307 	 -53.9439 	 -79.7114
| 39> H 	 -88.9142 	 -45.5228 	 -80.7826
| 40> H 	 -83.9716 	 -51.3594 	 -84.2684
| 41> *
| 42>
| 43>                          ****END OF INPUT****

CARTESIAN COORDINATES (ANGSTROEM)
---------------------------------
  S    -87.822400  -47.153000  -82.300400
  C    -88.326400  -46.403700  -80.816800
  C    -87.645700  -47.032200  -79.800500
  C    -87.098200  -48.290800  -80.174100
  C    -87.029300  -48.499400  -81.527300
  H    -86.569900  -48.988000  -79.459000
  C    -87.680600  -46.633300  -78.367700
  H    -87.393400  -45.613500  -78.237700
  H    -86.908000  -47.227500  -77.807700
  C    -89.024100  -46.810500  -77.658900
  H    -89.916400  -46.375100  -78.080700
  H    -89.289400  -47.855700  -77.808100
  C    -88.951000  -46.624600  -76.097100
  H    -88.169700  -47.347500  -75.707200
  H    -88.742200  -45.604900  -75.949000
  H    -89.857700  -46.887200  -75.582500
  S    -85.018300  -49.292700  -83.228200
  C    -84.723400  -50.950400  -83.508700
  C    -85.739900  -51.742200  -82.963300
  C    -86.646000  -51.023100  -82.167900
  C    -86.453500  -49.649600  -82.221700
  H    -85.730400  -52.815700  -83.070000
  C    -87.579200  -51.636200  -81.173400
  H    -88.315200  -50.901400  -80.825000
  H    -87.155200  -51.753300  -80.202000
  C    -88.345900  -52.947700  -81.643000
  H    -87.649300  -53.761200  -81.874100
  H    -88.906000  -52.700000  -82.540100
  C    -89.385500  -53.314900  -80.519000
  H    -90.261600  -53.838000  -80.855500
  H    -89.878100  -52.445400  -80.128400
  H    -88.930700  -53.943900  -79.711400
  H    -88.914200  -45.522800  -80.782600
  H    -83.971600  -51.359400  -84.268400

 Total Charge           Charge          ....    0
 Multiplicity           Mult            ....    1
 Number of Electrons    NEL             ....  134
 Basis Dimension        Dim             ....  322

ORBITAL ENERGIES
----------------

  NO   OCC          E(Eh)            E(eV)
   0   2.0000     -88.964301     -2420.8417
   1   2.0000     -88.963369     -2420.8163
   2   2.0000     -10.329047      -281.0677
   3   2.0000     -10.327455      -281.0243
   4   2.0000     -10.322271      -280.8833
   5   2.0000     -10.313913      -280.6558
   6   2.0000     -10.302644      -280.3492
   7   2.0000     -10.299200      -280.2555
   8   2.0000     -10.296517      -280.1825
   9   2.0000     -10.294301      -280.1222
  10   2.0000     -10.292372      -280.0697
  11   2.0000     -10.290638      -280.0225
  12   2.0000     -10.288775      -279.9718
  13   2.0000     -10.284457      -279.8543
  14   2.0000     -10.280584      -279.7489
  15   2.0000     -10.279562      -279.7211
  16   2.0000      -8.079349      -219.8503
  17   2.0000      -8.078629      -219.8307
  18   2.0000      -6.037691      -164.2939
  19   2.0000      -6.037130      -164.2787
  20   2.0000      -6.033730      -164.1862
  21   2.0000      -6.032907      -164.1637
  22   2.0000      -6.030339      -164.0939
  23   2.0000      -6.029493      -164.0708
  24   2.0000      -1.010292       -27.4914
  25   2.0000      -0.989778       -26.9332
  26   2.0000      -0.911995       -24.8167
  27   2.0000      -0.903127       -24.5753
  28   2.0000      -0.869630       -23.6638
  29   2.0000      -0.850531       -23.1441
  30   2.0000      -0.845836       -23.0164
  31   2.0000      -0.813424       -22.1344
  32   2.0000      -0.781057       -21.2536
  33   2.0000      -0.769894       -20.9499
  34   2.0000      -0.710872       -19.3438
  35   2.0000      -0.705534       -19.1986
  36   2.0000      -0.698562       -19.0088
  37   2.0000      -0.654609       -17.8128
  38   2.0000      -0.646785       -17.5999
  39   2.0000      -0.621606       -16.9147
  40   2.0000      -0.600952       -16.3527
  41   2.0000      -0.571347       -15.5471
  42   2.0000      -0.560121       -15.2417
  43   2.0000      -0.559849       -15.2343
  44   2.0000      -0.527774       -14.3615
  45   2.0000      -0.521404       -14.1881
  46   2.0000      -0.518777       -14.1166
  47   2.0000      -0.512130       -13.9358
  48   2.0000      -0.500730       -13.6256
  49   2.0000      -0.498887       -13.5754
  50   2.0000      -0.488525       -13.2934
  51   2.0000      -0.482234       -13.1223
  52   2.0000      -0.473332       -12.8800
  53   2.0000      -0.466952       -12.7064
  54   2.0000      -0.463193       -12.6041
  55   2.0000      -0.446678       -12.1547
  56   2.0000      -0.444282       -12.0895
  57   2.0000      -0.439126       -11.9492
  58   2.0000      -0.434505       -11.8235
  59   2.0000      -0.425346       -11.5743
  60   2.0000      -0.416519       -11.3341
  61   2.0000      -0.412755       -11.2316
  62   2.0000      -0.411992       -11.2109
  63   2.0000      -0.342473        -9.3192
  64   2.0000      -0.330411        -8.9909
  65   2.0000      -0.327445        -8.9102
  66   2.0000      -0.297353        -8.0914
  67   0.0000       0.034756         0.9458
  68   0.0000       0.058207         1.5839
  69   0.0000       0.117158         3.1880
  70   0.0000       0.124016         3.3747
  71   0.0000       0.131515         3.5787

MULLIKEN ATOMIC CHARGES
-----------------------
   0 S :    0.110165
   1 C :   -0.113667
   2 C :   -0.071708
   3 C :   -0.006734
   4 C :   -0.133999
   5 H :    0.036873
   6 C :    0.076516
   7 H :    0.019418
   8 H :    0.020346
   9 C :   -0.084139
  10 H :    0.022329
  11 H :    0.009167
  12 C :   -0.040561
  13 H :    0.038059
  14 H :    0.029173
  15 H :    0.032884
  16 S :    0.109496
  17 C :   -0.111904
  18 C :   -0.052277
  19 C :    0.030719
  20 C :   -0.181416
  21 H :    0.015910
  22 C :    0.031168
  23 H :    0.017733
  24 H :    0.026687
  25 C :   -0.085300
  26 H :    0.043050
  27 H :    0.039588
  28 C :   -0.050996
  29 H :    0.023452
  30 H :    0.021530
  31 H :    0.045444
  32 H :    0.045960
  33 H :    0.087035
Sum of atomic charges:    0.0000000

LOEWDIN ATOMIC CHARGES
----------------------
   0 S :    0.416920
   1 C :   -0.186878
   2 C :   -0.067588
   3 C :   -0.070436
   4 C :   -0.205351
   5 H :    0.041286
   6 C :   -0.033544
   7 H :    0.024755
   8 H :    0.035206
   9 C :   -0.045148
  10 H :    0.020219
  11 H :    0.020585
  12 C :   -0.059752
  13 H :    0.032828
  14 H :    0.016620
  15 H :    0.024204
  16 S :    0.414254
  17 C :   -0.208054
  18 C :   -0.077944
  19 C :   -0.053645
  20 C :   -0.189388
  21 H :    0.029192
  22 C :   -0.037907
  23 H :    0.033564
  24 H :    0.029276
  25 C :   -0.032619
  26 H :    0.023009
  27 H :    0.026702
  28 C :   -0.070851
  29 H :    0.023230
  30 H :    0.023223
  31 H :    0.031475
  32 H :    0.024999
  33 H :    0.047555

  Mayer bond orders larger than 0.100000
B(  0-S ,  1-C ) :   1.1519 B(  0-S ,  4-C ) :   1.1592 B(  1-C ,  2-C ) :   1.5644
B(  1-C ,  4-C ) :   0.1029 B(  1-C , 32-H ) :   0.9836 B(  2-C ,  3-C ) :   1.2580
B(  2-C ,  6-C ) :   1.0456 B(  3-C ,  4-C ) :   1.5634 B(  3-C ,  5-H ) :   0.9837
B(  4-C , 20-C ) :   1.0202 B(  6-C ,  7-H ) :   0.9316 B(  6-C ,  8-H ) :   0.9395
B(  6-C ,  9-C ) :   1.0557 B(  9-C , 10-H ) :   0.9574 B(  9-C , 11-H ) :   0.9526
B(  9-C , 12-C ) :   1.0760 B( 12-C , 13-H ) :   0.9757 B( 12-C , 14-H ) :   0.9803
B( 12-C , 15-H ) :   0.9754 B( 16-S , 17-C ) :   1.1845 B( 16-S , 20-C ) :   1.1473
B( 17-C , 18-C ) :   1.5781 B( 17-C , 20-C ) :   0.1102 B( 17-C , 33-H ) :   0.9534
B( 18-C , 19-C ) :   1.2589 B( 18-C , 21-H ) :   0.9919 B( 19-C , 20-C ) :   1.5810
B( 19-C , 22-C ) :   1.0504 B( 22-C , 23-H ) :   0.9268 B( 22-C , 24-H ) :   0.9335
B( 22-C , 25-C ) :   1.0456 B( 25-C , 26-H ) :   0.9588 B( 25-C , 27-H ) :   0.9631
B( 25-C , 28-C ) :   1.0767 B( 28-C , 29-H ) :   0.9754 B( 28-C , 30-H ) :   0.9731
B( 28-C , 31-H ) :   0.9772

Dispersion correction           -0.013555499
FINAL SINGLE POINT ENERGY     -1339.869135043198

DIPOLE MOMENT
-------------
                                X             Y             Z
Electronic contribution:     14.83904       9.89285     -24.67248
Nuclear contribution   :    -15.07596     -10.17084      25.23488
                        -----------------------------------------
Total Dipole Moment    :     -0.23693      -0.27798       0.56240
                        -----------------------------------------
Magnitude (a.u.)       :      0.67060
Magnitude (Debye)      :      1.70454

Rotational constants in cm-1:     0.017056     0.008209     0.006254
Rotational constants in MHz :   511.319372   246.096316   187.496647

                             ****ORCA TERMINATED NORMALLY****
TOTAL RUN TIME: 0 days 0 hours 0 minutes 21 seconds 1 msec
