                         Program Version 4.2.1 -  RELEASE  -
|  1> ! wB97X-D3 SP def2-SVP
|  2> %pal
|  3> nprocs 24
|  4> end
|  5>
|  6> * xyz 0 1
|  7> S 	 -132.277 	 5.87626 	 -0.205036
|  8> C 	 -130.671 	 6.57329 	 -0.514524
|  9> C 	 -129.677 	 5.68698 	 -0.0384294
| 10> C 	 -130.248 	 4.53185 	 0.522498
| 11> C 	 -131.637 	 4.54353 	 0.694398
| 12> H 	 -129.642 	 3.69409 	 0.708279
| 13> C 	 -128.188 	 5.73883 	 -0.287556
| 14> H 	 -128.074 	 6.61889 	 -0.933968
| 15> H 	 -127.888 	 4.76898 	 -0.748828
| 16> C 	 -127.333 	 5.89321 	 0.965407
| 17> H 	 -127.773 	 6.67714 	 1.58924
| 18> H 	 -127.255 	 5.02084 	 1.56748
| 19> C 	 -125.873 	 6.4222 	 0.656555
| 20> H 	 -125.278 	 6.67288 	 1.51914
| 21> H 	 -125.46 	 5.55934 	 0.194115
| 22> H 	 -125.809 	 7.39152 	 0.0591909
| 23> S 	 -133.817 	 4.09836 	 2.19411
| 24> C 	 -134.176 	 2.58577 	 2.80479
| 25> C 	 -133.395 	 1.6149 	 2.27002
| 26> C 	 -132.396 	 2.16406 	 1.35864
| 27> C 	 -132.503 	 3.52518 	 1.23891
| 28> H 	 -133.472 	 0.587064 	 2.57135
| 29> C 	 -131.393 	 1.27895 	 0.697924
| 30> H 	 -131.575 	 0.215427 	 0.947816
| 31> H 	 -130.383 	 1.58868 	 1.08667
| 32> C 	 -131.325 	 1.47905 	 -0.800486
| 33> H 	 -130.351 	 1.24628 	 -1.12636
| 34> H 	 -131.413 	 2.59651 	 -0.973191
| 35> C 	 -132.347 	 0.618274 	 -1.53285
| 36> H 	 -133.39 	 0.807139 	 -1.30906
| 37> H 	 -132.134 	 -0.483467 	 -1.33138
| 38> H 	 -132.352 	 0.790916 	 -2.55723
| 39> H 	 -130.419 	 7.52392 	 -1.06415
| 40> H 	 -135.118 	 2.40158 	 3.34384
| 41> *
| 42>
| 43>                          ****END OF INPUT****

CARTESIAN COORDINATES (ANGSTROEM)
---------------------------------
  S    -132.277000    5.876260   -0.205036
  C    -130.671000    6.573290   -0.514524
  C    -129.677000    5.686980   -0.038429
  C    -130.248000    4.531850    0.522498
  C    -131.637000    4.543530    0.694398
  H    -129.642000    3.694090    0.708279
  C    -128.188000    5.738830   -0.287556
  H    -128.074000    6.618890   -0.933968
  H    -127.888000    4.768980   -0.748828
  C    -127.333000    5.893210    0.965407
  H    -127.773000    6.677140    1.589240
  H    -127.255000    5.020840    1.567480
  C    -125.873000    6.422200    0.656555
  H    -125.278000    6.672880    1.519140
  H    -125.460000    5.559340    0.194115
  H    -125.809000    7.391520    0.059191
  S    -133.817000    4.098360    2.194110
  C    -134.176000    2.585770    2.804790
  C    -133.395000    1.614900    2.270020
  C    -132.396000    2.164060    1.358640
  C    -132.503000    3.525180    1.238910
  H    -133.472000    0.587064    2.571350
  C    -131.393000    1.278950    0.697924
  H    -131.575000    0.215427    0.947816
  H    -130.383000    1.588680    1.086670
  C    -131.325000    1.479050   -0.800486
  H    -130.351000    1.246280   -1.126360
  H    -131.413000    2.596510   -0.973191
  C    -132.347000    0.618274   -1.532850
  H    -133.390000    0.807139   -1.309060
  H    -132.134000   -0.483467   -1.331380
  H    -132.352000    0.790916   -2.557230
  H    -130.419000    7.523920   -1.064150
  H    -135.118000    2.401580    3.343840

 Total Charge           Charge          ....    0
 Multiplicity           Mult            ....    1
 Number of Electrons    NEL             ....  134
 Basis Dimension        Dim             ....  322

ORBITAL ENERGIES
----------------

  NO   OCC          E(Eh)            E(eV)
   0   2.0000     -88.970420     -2421.0082
   1   2.0000     -88.960609     -2420.7412
   2   2.0000     -10.331403      -281.1318
   3   2.0000     -10.324024      -280.9310
   4   2.0000     -10.320659      -280.8394
   5   2.0000     -10.310760      -280.5700
   6   2.0000     -10.301967      -280.3308
   7   2.0000     -10.301159      -280.3088
   8   2.0000     -10.298297      -280.2309
   9   2.0000     -10.292430      -280.0713
  10   2.0000     -10.291217      -280.0382
  11   2.0000     -10.288820      -279.9730
  12   2.0000     -10.286536      -279.9109
  13   2.0000     -10.281635      -279.7775
  14   2.0000     -10.280214      -279.7388
  15   2.0000     -10.272589      -279.5313
  16   2.0000      -8.084509      -219.9907
  17   2.0000      -8.077899      -219.8108
  18   2.0000      -6.043077      -164.4405
  19   2.0000      -6.039047      -164.3308
  20   2.0000      -6.036228      -164.2541
  21   2.0000      -6.035297      -164.2288
  22   2.0000      -6.031920      -164.1369
  23   2.0000      -6.028807      -164.0522
  24   2.0000      -1.017354       -27.6836
  25   2.0000      -0.989193       -26.9173
  26   2.0000      -0.916788       -24.9471
  27   2.0000      -0.913857       -24.8673
  28   2.0000      -0.871230       -23.7074
  29   2.0000      -0.851627       -23.1740
  30   2.0000      -0.845184       -22.9986
  31   2.0000      -0.813165       -22.1273
  32   2.0000      -0.784622       -21.3507
  33   2.0000      -0.773987       -21.0612
  34   2.0000      -0.712459       -19.3870
  35   2.0000      -0.699656       -19.0386
  36   2.0000      -0.688312       -18.7299
  37   2.0000      -0.667997       -18.1771
  38   2.0000      -0.634275       -17.2595
  39   2.0000      -0.626429       -17.0460
  40   2.0000      -0.595410       -16.2019
  41   2.0000      -0.578362       -15.7380
  42   2.0000      -0.561365       -15.2755
  43   2.0000      -0.555834       -15.1250
  44   2.0000      -0.547984       -14.9114
  45   2.0000      -0.522413       -14.2156
  46   2.0000      -0.520367       -14.1599
  47   2.0000      -0.511572       -13.9206
  48   2.0000      -0.506864       -13.7925
  49   2.0000      -0.500790       -13.6272
  50   2.0000      -0.487368       -13.2620
  51   2.0000      -0.479286       -13.0420
  52   2.0000      -0.477934       -13.0052
  53   2.0000      -0.469181       -12.7671
  54   2.0000      -0.456596       -12.4246
  55   2.0000      -0.448348       -12.2002
  56   2.0000      -0.439636       -11.9631
  57   2.0000      -0.436174       -11.8689
  58   2.0000      -0.434853       -11.8329
  59   2.0000      -0.428472       -11.6593
  60   2.0000      -0.425698       -11.5838
  61   2.0000      -0.413732       -11.2582
  62   2.0000      -0.408077       -11.1043
  63   2.0000      -0.351266        -9.5584
  64   2.0000      -0.330928        -9.0050
  65   2.0000      -0.327176        -8.9029
  66   2.0000      -0.289663        -7.8821
  67   0.0000       0.024831         0.6757
  68   0.0000       0.077789         2.1167
  69   0.0000       0.100273         2.7286
  70   0.0000       0.123230         3.3533
  71   0.0000       0.135746         3.6938

MULLIKEN ATOMIC CHARGES
-----------------------
   0 S :    0.113236
   1 C :   -0.145094
   2 C :   -0.094278
   3 C :    0.021379
   4 C :   -0.116688
   5 H :   -0.023304
   6 C :    0.075686
   7 H :    0.016799
   8 H :    0.041555
   9 C :   -0.083369
  10 H :    0.030326
  11 H :    0.029633
  12 C :   -0.067824
  13 H :    0.032903
  14 H :    0.027732
  15 H :    0.044032
  16 S :    0.113242
  17 C :   -0.084184
  18 C :   -0.038190
  19 C :   -0.059318
  20 C :   -0.141298
  21 H :    0.012788
  22 C :    0.046956
  23 H :    0.017661
  24 H :    0.039791
  25 C :   -0.061126
  26 H :    0.005249
  27 H :    0.055767
  28 C :   -0.027382
  29 H :    0.028370
  30 H :    0.033407
  31 H :    0.016622
  32 H :    0.068416
  33 H :    0.070504
Sum of atomic charges:   -0.0000000

LOEWDIN ATOMIC CHARGES
----------------------
   0 S :    0.413879
   1 C :   -0.209328
   2 C :   -0.062573
   3 C :   -0.063782
   4 C :   -0.199446
   5 H :    0.016733
   6 C :   -0.029624
   7 H :    0.032266
   8 H :    0.038034
   9 C :   -0.038653
  10 H :    0.024024
  11 H :    0.019117
  12 C :   -0.069061
  13 H :    0.023341
  14 H :    0.019325
  15 H :    0.033014
  16 S :    0.449148
  17 C :   -0.209319
  18 C :   -0.074349
  19 C :   -0.051727
  20 C :   -0.218101
  21 H :    0.029317
  22 C :   -0.034990
  23 H :    0.029689
  24 H :    0.035567
  25 C :   -0.042198
  26 H :    0.014726
  27 H :    0.036473
  28 C :   -0.064377
  29 H :    0.026164
  30 H :    0.031651
  31 H :    0.016982
  32 H :    0.041536
  33 H :    0.036543

  Mayer bond orders larger than 0.100000
B(  0-S ,  1-C ) :   1.1401 B(  0-S ,  4-C ) :   1.1674 B(  1-C ,  2-C ) :   1.5720
B(  1-C ,  4-C ) :   0.1127 B(  1-C , 32-H ) :   0.9592 B(  2-C ,  3-C ) :   1.2909
B(  2-C ,  6-C ) :   1.0359 B(  3-C ,  4-C ) :   1.5204 B(  3-C ,  5-H ) :   1.0015
B(  4-C , 20-C ) :   1.0310 B(  6-C ,  7-H ) :   0.9380 B(  6-C ,  8-H ) :   0.9387
B(  6-C ,  9-C ) :   1.0577 B(  9-C , 10-H ) :   0.9592 B(  9-C , 11-H ) :   0.9582
B(  9-C , 12-C ) :   1.0741 B( 12-C , 13-H ) :   0.9775 B( 12-C , 14-H ) :   0.9787
B( 12-C , 15-H ) :   0.9767 B( 16-S , 17-C ) :   1.1864 B( 16-S , 20-C ) :   1.1472
B( 17-C , 18-C ) :   1.5885 B( 17-C , 33-H ) :   0.9590 B( 18-C , 19-C ) :   1.2467
B( 18-C , 21-H ) :   0.9986 B( 19-C , 20-C ) :   1.5853 B( 19-C , 22-C ) :   1.0570
B( 22-C , 23-H ) :   0.9337 B( 22-C , 24-H ) :   0.9239 B( 22-C , 25-C ) :   1.0736
B( 25-C , 26-H ) :   0.9500 B( 25-C , 27-H ) :   0.9523 B( 25-C , 28-C ) :   1.0756
B( 28-C , 29-H ) :   0.9750 B( 28-C , 30-H ) :   0.9724 B( 28-C , 31-H ) :   0.9709

Dispersion correction           -0.014486371
FINAL SINGLE POINT ENERGY     -1339.870835205806

DIPOLE MOMENT
-------------
                                X             Y             Z
Electronic contribution:    -23.74709       8.46637       7.64122
Nuclear contribution   :     24.24352      -8.85643      -7.74536
                        -----------------------------------------
Total Dipole Moment    :      0.49643      -0.39006      -0.10414
                        -----------------------------------------
Magnitude (a.u.)       :      0.63987
Magnitude (Debye)      :      1.62642

Rotational constants in cm-1:     0.019994     0.008118     0.007141
Rotational constants in MHz :   599.391418   243.379787   214.089247

                             ****ORCA TERMINATED NORMALLY****
TOTAL RUN TIME: 0 days 0 hours 0 minutes 22 seconds 226 msec
