                         Program Version 4.2.1 -  RELEASE  -
|  1> ! wB97X-D3 SP def2-SVP
|  2> %pal
|  3> nprocs 24
|  4> end
|  5>
|  6> * xyz 0 1
|  7> S 	 -122.836 	 25.7624 	 -110.028
|  8> C 	 -121.505 	 26.8189 	 -110.458
|  9> C 	 -121.541 	 27.1735 	 -111.809
| 10> C 	 -122.654 	 26.5754 	 -112.502
| 11> C 	 -123.383 	 25.6938 	 -111.706
| 12> H 	 -122.93 	 26.8245 	 -113.513
| 13> C 	 -120.603 	 28.1993 	 -112.388
| 14> H 	 -120.612 	 28.0657 	 -113.47
| 15> H 	 -119.589 	 27.9196 	 -112.04
| 16> C 	 -120.959 	 29.6232 	 -111.979
| 17> H 	 -121.935 	 29.9431 	 -112.214
| 18> H 	 -120.879 	 29.6452 	 -110.875
| 19> C 	 -119.798 	 30.5363 	 -112.298
| 20> H 	 -119.855 	 31.427 	 -111.623
| 21> H 	 -118.774 	 30.149 	 -112.018
| 22> H 	 -119.703 	 30.9294 	 -113.33
| 23> S 	 -124.72 	 23.6779 	 -113.051
| 24> C 	 -126.509 	 23.7278 	 -113.041
| 25> C 	 -127.001 	 24.7787 	 -112.333
| 26> C 	 -125.948 	 25.561 	 -111.729
| 27> C 	 -124.686 	 25.0875 	 -112.03
| 28> H 	 -128.014 	 25.0268 	 -112.503
| 29> C 	 -126.241 	 26.861 	 -111.133
| 30> H 	 -125.569 	 27.1305 	 -110.381
| 31> H 	 -127.19 	 26.6551 	 -110.586
| 32> C 	 -126.347 	 28.0335 	 -112.066
| 33> H 	 -127.245 	 27.7841 	 -112.712
| 34> H 	 -125.367 	 28.2055 	 -112.558
| 35> C 	 -126.854 	 29.246 	 -111.206
| 36> H 	 -126.067 	 29.4825 	 -110.468
| 37> H 	 -127.808 	 29.1343 	 -110.696
| 38> H 	 -126.937 	 30.1177 	 -111.83
| 39> H 	 -120.856 	 27.3931 	 -109.781
| 40> H 	 -127.109 	 23.0761 	 -113.642
| 41> *
| 42>
| 43>                          ****END OF INPUT****

CARTESIAN COORDINATES (ANGSTROEM)
---------------------------------
  S    -122.836000   25.762400  -110.028000
  C    -121.505000   26.818900  -110.458000
  C    -121.541000   27.173500  -111.809000
  C    -122.654000   26.575400  -112.502000
  C    -123.383000   25.693800  -111.706000
  H    -122.930000   26.824500  -113.513000
  C    -120.603000   28.199300  -112.388000
  H    -120.612000   28.065700  -113.470000
  H    -119.589000   27.919600  -112.040000
  C    -120.959000   29.623200  -111.979000
  H    -121.935000   29.943100  -112.214000
  H    -120.879000   29.645200  -110.875000
  C    -119.798000   30.536300  -112.298000
  H    -119.855000   31.427000  -111.623000
  H    -118.774000   30.149000  -112.018000
  H    -119.703000   30.929400  -113.330000
  S    -124.720000   23.677900  -113.051000
  C    -126.509000   23.727800  -113.041000
  C    -127.001000   24.778700  -112.333000
  C    -125.948000   25.561000  -111.729000
  C    -124.686000   25.087500  -112.030000
  H    -128.014000   25.026800  -112.503000
  C    -126.241000   26.861000  -111.133000
  H    -125.569000   27.130500  -110.381000
  H    -127.190000   26.655100  -110.586000
  C    -126.347000   28.033500  -112.066000
  H    -127.245000   27.784100  -112.712000
  H    -125.367000   28.205500  -112.558000
  C    -126.854000   29.246000  -111.206000
  H    -126.067000   29.482500  -110.468000
  H    -127.808000   29.134300  -110.696000
  H    -126.937000   30.117700  -111.830000
  H    -120.856000   27.393100  -109.781000
  H    -127.109000   23.076100  -113.642000

 Total Charge           Charge          ....    0
 Multiplicity           Mult            ....    1
 Number of Electrons    NEL             ....  134
 Basis Dimension        Dim             ....  322

ORBITAL ENERGIES
----------------

  NO   OCC          E(Eh)            E(eV)
   0   2.0000     -88.969619     -2420.9864
   1   2.0000     -88.962969     -2420.8055
   2   2.0000     -10.331608      -281.1373
   3   2.0000     -10.322687      -280.8946
   4   2.0000     -10.315961      -280.7116
   5   2.0000     -10.315335      -280.6945
   6   2.0000     -10.300333      -280.2863
   7   2.0000     -10.298769      -280.2437
   8   2.0000     -10.297211      -280.2013
   9   2.0000     -10.293441      -280.0988
  10   2.0000     -10.293149      -280.0908
  11   2.0000     -10.289876      -280.0018
  12   2.0000     -10.288986      -279.9775
  13   2.0000     -10.286981      -279.9230
  14   2.0000     -10.278253      -279.6855
  15   2.0000     -10.275909      -279.6217
  16   2.0000      -8.083339      -219.9588
  17   2.0000      -8.077456      -219.7987
  18   2.0000      -6.041832      -164.4066
  19   2.0000      -6.037955      -164.3011
  20   2.0000      -6.035968      -164.2470
  21   2.0000      -6.034196      -164.1988
  22   2.0000      -6.032060      -164.1407
  23   2.0000      -6.028176      -164.0350
  24   2.0000      -1.003082       -27.2952
  25   2.0000      -0.981021       -26.6949
  26   2.0000      -0.918337       -24.9892
  27   2.0000      -0.914254       -24.8781
  28   2.0000      -0.869001       -23.6467
  29   2.0000      -0.850519       -23.1438
  30   2.0000      -0.845553       -23.0087
  31   2.0000      -0.817061       -22.2333
  32   2.0000      -0.779322       -21.2064
  33   2.0000      -0.764754       -20.8100
  34   2.0000      -0.705841       -19.2069
  35   2.0000      -0.704654       -19.1746
  36   2.0000      -0.691056       -18.8046
  37   2.0000      -0.664127       -18.0718
  38   2.0000      -0.638114       -17.3640
  39   2.0000      -0.619415       -16.8551
  40   2.0000      -0.598899       -16.2969
  41   2.0000      -0.574267       -15.6266
  42   2.0000      -0.571392       -15.5484
  43   2.0000      -0.562437       -15.3047
  44   2.0000      -0.525554       -14.3010
  45   2.0000      -0.523773       -14.2526
  46   2.0000      -0.514111       -13.9897
  47   2.0000      -0.511775       -13.9261
  48   2.0000      -0.506723       -13.7886
  49   2.0000      -0.504102       -13.7173
  50   2.0000      -0.488299       -13.2873
  51   2.0000      -0.474528       -12.9126
  52   2.0000      -0.464845       -12.6491
  53   2.0000      -0.463104       -12.6017
  54   2.0000      -0.461038       -12.5455
  55   2.0000      -0.452117       -12.3027
  56   2.0000      -0.446882       -12.1603
  57   2.0000      -0.442292       -12.0354
  58   2.0000      -0.436381       -11.8745
  59   2.0000      -0.421006       -11.4562
  60   2.0000      -0.416812       -11.3420
  61   2.0000      -0.413711       -11.2576
  62   2.0000      -0.413592       -11.2544
  63   2.0000      -0.337295        -9.1783
  64   2.0000      -0.334400        -9.0995
  65   2.0000      -0.320023        -8.7083
  66   2.0000      -0.302991        -8.2448
  67   0.0000       0.036331         0.9886
  68   0.0000       0.061257         1.6669
  69   0.0000       0.110577         3.0090
  70   0.0000       0.116184         3.1615
  71   0.0000       0.127219         3.4618

MULLIKEN ATOMIC CHARGES
-----------------------
   0 S :    0.119778
   1 C :   -0.120673
   2 C :   -0.118256
   3 C :    0.054902
   4 C :   -0.158493
   5 H :    0.013275
   6 C :    0.057239
   7 H :    0.023824
   8 H :    0.031874
   9 C :   -0.026428
  10 H :    0.026558
  11 H :    0.018436
  12 C :   -0.080382
  13 H :    0.030058
  14 H :    0.032348
  15 H :    0.040771
  16 S :    0.102108
  17 C :   -0.092600
  18 C :   -0.017353
  19 C :   -0.005813
  20 C :   -0.185659
  21 H :    0.014000
  22 C :    0.069753
  23 H :   -0.008813
  24 H :    0.020232
  25 C :   -0.068082
  26 H :    0.032767
  27 H :    0.047289
  28 C :   -0.047445
  29 H :    0.029941
  30 H :    0.036408
  31 H :    0.026417
  32 H :    0.054583
  33 H :    0.047438
Sum of atomic charges:    0.0000000

LOEWDIN ATOMIC CHARGES
----------------------
   0 S :    0.412295
   1 C :   -0.206432
   2 C :   -0.065128
   3 C :   -0.056883
   4 C :   -0.192877
   5 H :    0.030201
   6 C :   -0.033234
   7 H :    0.027993
   8 H :    0.036274
   9 C :   -0.036282
  10 H :    0.021647
  11 H :    0.030242
  12 C :   -0.075786
  13 H :    0.027970
  14 H :    0.030963
  15 H :    0.023148
  16 S :    0.390205
  17 C :   -0.160967
  18 C :   -0.066328
  19 C :   -0.054046
  20 C :   -0.209573
  21 H :    0.029578
  22 C :   -0.043526
  23 H :    0.014105
  24 H :    0.035126
  25 C :   -0.032718
  26 H :    0.030221
  27 H :    0.032178
  28 C :   -0.065615
  29 H :    0.025678
  30 H :    0.026184
  31 H :    0.020650
  32 H :    0.031686
  33 H :    0.023052

  Mayer bond orders larger than 0.100000
B(  0-S ,  1-C ) :   1.1436 B(  0-S ,  4-C ) :   1.1587 B(  1-C ,  2-C ) :   1.6050
B(  1-C , 32-H ) :   0.9612 B(  2-C ,  3-C ) :   1.2596 B(  2-C ,  6-C ) :   1.0242
B(  3-C ,  4-C ) :   1.5682 B(  3-C ,  5-H ) :   0.9909 B(  4-C , 20-C ) :   1.0025
B(  6-C ,  7-H ) :   0.9397 B(  6-C ,  8-H ) :   0.9395 B(  6-C ,  9-C ) :   1.0671
B(  9-C , 10-H ) :   0.9586 B(  9-C , 11-H ) :   0.9550 B(  9-C , 12-C ) :   1.0668
B( 12-C , 13-H ) :   0.9767 B( 12-C , 14-H ) :   0.9723 B( 12-C , 15-H ) :   0.9752
B( 16-S , 17-C ) :   1.1424 B( 16-S , 20-C ) :   1.1357 B( 17-C , 18-C ) :   1.6512
B( 17-C , 33-H ) :   0.9666 B( 18-C , 19-C ) :   1.2043 B( 18-C , 21-H ) :   0.9913
B( 19-C , 20-C ) :   1.6204 B( 19-C , 22-C ) :   1.0638 B( 22-C , 23-H ) :   0.9119
B( 22-C , 24-H ) :   0.9285 B( 22-C , 25-C ) :   1.0716 B( 25-C , 26-H ) :   0.9538
B( 25-C , 27-H ) :   0.9488 B( 25-C , 28-C ) :   1.0767 B( 28-C , 29-H ) :   0.9745
B( 28-C , 30-H ) :   0.9760 B( 28-C , 31-H ) :   0.9746

Dispersion correction           -0.014779509
FINAL SINGLE POINT ENERGY     -1339.872847148236

DIPOLE MOMENT
-------------
                                X             Y             Z
Electronic contribution:     -2.43152     -29.15471       1.34990
Nuclear contribution   :      2.28001      29.96509      -1.54618
                        -----------------------------------------
Total Dipole Moment    :     -0.15151       0.81038      -0.19628
                        -----------------------------------------
Magnitude (a.u.)       :      0.84747
Magnitude (Debye)      :      2.15409

Rotational constants in cm-1:     0.019662     0.008375     0.006989
Rotational constants in MHz :   589.464571   251.065611   209.523813

                             ****ORCA TERMINATED NORMALLY****
TOTAL RUN TIME: 0 days 0 hours 0 minutes 21 seconds 986 msec
