                         Program Version 4.2.1 -  RELEASE  -
|  1> ! wB97X-D3 SP def2-SVP
|  2> %pal
|  3> nprocs 24
|  4> end
|  5>
|  6> * xyz 0 1
|  7> S 	 -61.8789 	 -56.2706 	 -79.3237
|  8> C 	 -63.0793 	 -57.4482 	 -79.0515
|  9> C 	 -63.8694 	 -57.6126 	 -80.154
| 10> C 	 -63.4776 	 -56.752 	 -81.2839
| 11> C 	 -62.3336 	 -56.0036 	 -81.01
| 12> H 	 -63.8898 	 -56.6988 	 -82.3151
| 13> C 	 -65.1775 	 -58.3867 	 -80.1819
| 14> H 	 -64.985 	 -59.3835 	 -80.0339
| 15> H 	 -65.5209 	 -58.3829 	 -81.2162
| 16> C 	 -66.3015 	 -57.9573 	 -79.2102
| 17> H 	 -66.5503 	 -56.9197 	 -79.3075
| 18> H 	 -67.2208 	 -58.5684 	 -79.5039
| 19> C 	 -66.0768 	 -58.4567 	 -77.6929
| 20> H 	 -65.1898 	 -58.0551 	 -77.2263
| 21> H 	 -66.8806 	 -58.0999 	 -77.0481
| 22> H 	 -66.0518 	 -59.5648 	 -77.5692
| 23> S 	 -59.9239 	 -55.901 	 -82.2339
| 24> C 	 -59.5906 	 -54.7474 	 -83.4979
| 25> C 	 -60.6674 	 -53.8951 	 -83.669
| 26> C 	 -61.8266 	 -54.2968 	 -82.9465
| 27> C 	 -61.5214 	 -55.2783 	 -82.0033
| 28> H 	 -60.6503 	 -53.0337 	 -84.3243
| 29> C 	 -63.0426 	 -53.4408 	 -82.9242
| 30> H 	 -63.7641 	 -54.0441 	 -82.4365
| 31> H 	 -63.3736 	 -53.0983 	 -83.8876
| 32> C 	 -62.9813 	 -52.2571 	 -81.8866
| 33> H 	 -62.0892 	 -51.659 	 -82.1597
| 34> H 	 -62.7952 	 -52.6486 	 -80.9291
| 35> C 	 -64.2377 	 -51.3171 	 -81.9846
| 36> H 	 -64.3508 	 -50.7642 	 -82.9156
| 37> H 	 -64.2112 	 -50.5278 	 -81.2522
| 38> H 	 -65.0726 	 -51.9971 	 -81.8602
| 39> H 	 -63.3098 	 -57.9281 	 -78.1272
| 40> H 	 -58.6165 	 -54.6169 	 -83.8834
| 41> *
| 42>
| 43>                          ****END OF INPUT****

CARTESIAN COORDINATES (ANGSTROEM)
---------------------------------
  S    -61.878900  -56.270600  -79.323700
  C    -63.079300  -57.448200  -79.051500
  C    -63.869400  -57.612600  -80.154000
  C    -63.477600  -56.752000  -81.283900
  C    -62.333600  -56.003600  -81.010000
  H    -63.889800  -56.698800  -82.315100
  C    -65.177500  -58.386700  -80.181900
  H    -64.985000  -59.383500  -80.033900
  H    -65.520900  -58.382900  -81.216200
  C    -66.301500  -57.957300  -79.210200
  H    -66.550300  -56.919700  -79.307500
  H    -67.220800  -58.568400  -79.503900
  C    -66.076800  -58.456700  -77.692900
  H    -65.189800  -58.055100  -77.226300
  H    -66.880600  -58.099900  -77.048100
  H    -66.051800  -59.564800  -77.569200
  S    -59.923900  -55.901000  -82.233900
  C    -59.590600  -54.747400  -83.497900
  C    -60.667400  -53.895100  -83.669000
  C    -61.826600  -54.296800  -82.946500
  C    -61.521400  -55.278300  -82.003300
  H    -60.650300  -53.033700  -84.324300
  C    -63.042600  -53.440800  -82.924200
  H    -63.764100  -54.044100  -82.436500
  H    -63.373600  -53.098300  -83.887600
  C    -62.981300  -52.257100  -81.886600
  H    -62.089200  -51.659000  -82.159700
  H    -62.795200  -52.648600  -80.929100
  C    -64.237700  -51.317100  -81.984600
  H    -64.350800  -50.764200  -82.915600
  H    -64.211200  -50.527800  -81.252200
  H    -65.072600  -51.997100  -81.860200
  H    -63.309800  -57.928100  -78.127200
  H    -58.616500  -54.616900  -83.883400

 Total Charge           Charge          ....    0
 Multiplicity           Mult            ....    1
 Number of Electrons    NEL             ....  134
 Basis Dimension        Dim             ....  322

ORBITAL ENERGIES
----------------

  NO   OCC          E(Eh)            E(eV)
   0   2.0000     -88.966321     -2420.8967
   1   2.0000     -88.963786     -2420.8277
   2   2.0000     -10.332584      -281.1639
   3   2.0000     -10.327457      -281.0244
   4   2.0000     -10.313423      -280.6425
   5   2.0000     -10.309881      -280.5461
   6   2.0000     -10.302098      -280.3343
   7   2.0000     -10.301184      -280.3095
   8   2.0000     -10.300283      -280.2849
   9   2.0000     -10.299625      -280.2670
  10   2.0000     -10.293134      -280.0904
  11   2.0000     -10.287585      -279.9394
  12   2.0000     -10.285225      -279.8752
  13   2.0000     -10.285125      -279.8725
  14   2.0000     -10.283711      -279.8340
  15   2.0000     -10.277976      -279.6779
  16   2.0000      -8.081498      -219.9087
  17   2.0000      -8.079186      -219.8458
  18   2.0000      -6.040031      -164.3576
  19   2.0000      -6.037598      -164.2914
  20   2.0000      -6.035821      -164.2430
  21   2.0000      -6.033503      -164.1800
  22   2.0000      -6.032317      -164.1477
  23   2.0000      -6.030089      -164.0871
  24   2.0000      -1.008158       -27.4334
  25   2.0000      -0.987103       -26.8604
  26   2.0000      -0.907054       -24.6822
  27   2.0000      -0.905072       -24.6282
  28   2.0000      -0.868876       -23.6433
  29   2.0000      -0.848755       -23.0958
  30   2.0000      -0.840871       -22.8813
  31   2.0000      -0.813086       -22.1252
  32   2.0000      -0.783784       -21.3278
  33   2.0000      -0.773963       -21.0606
  34   2.0000      -0.707062       -19.2401
  35   2.0000      -0.703030       -19.1304
  36   2.0000      -0.695391       -18.9226
  37   2.0000      -0.666856       -18.1461
  38   2.0000      -0.644340       -17.5334
  39   2.0000      -0.612493       -16.6668
  40   2.0000      -0.598247       -16.2791
  41   2.0000      -0.574750       -15.6397
  42   2.0000      -0.565435       -15.3863
  43   2.0000      -0.540770       -14.7151
  44   2.0000      -0.532149       -14.4805
  45   2.0000      -0.525884       -14.3100
  46   2.0000      -0.518791       -14.1170
  47   2.0000      -0.511599       -13.9213
  48   2.0000      -0.506388       -13.7795
  49   2.0000      -0.498607       -13.5678
  50   2.0000      -0.486256       -13.2317
  51   2.0000      -0.481790       -13.1102
  52   2.0000      -0.476314       -12.9612
  53   2.0000      -0.464469       -12.6388
  54   2.0000      -0.461045       -12.5457
  55   2.0000      -0.452607       -12.3161
  56   2.0000      -0.443795       -12.0763
  57   2.0000      -0.436930       -11.8895
  58   2.0000      -0.436306       -11.8725
  59   2.0000      -0.429732       -11.6936
  60   2.0000      -0.425348       -11.5743
  61   2.0000      -0.409525       -11.1437
  62   2.0000      -0.408530       -11.1167
  63   2.0000      -0.348788        -9.4910
  64   2.0000      -0.328681        -8.9439
  65   2.0000      -0.325021        -8.8443
  66   2.0000      -0.296299        -8.0627
  67   0.0000       0.033380         0.9083
  68   0.0000       0.068179         1.8552
  69   0.0000       0.121055         3.2941
  70   0.0000       0.122278         3.3273
  71   0.0000       0.127260         3.4629

MULLIKEN ATOMIC CHARGES
-----------------------
   0 S :    0.115548
   1 C :   -0.101043
   2 C :   -0.110943
   3 C :    0.028082
   4 C :   -0.176483
   5 H :    0.038006
   6 C :    0.117849
   7 H :    0.003117
   8 H :    0.013579
   9 C :   -0.070276
  10 H :    0.038318
  11 H :    0.040255
  12 C :   -0.089570
  13 H :    0.026824
  14 H :    0.036026
  15 H :    0.042470
  16 S :    0.114097
  17 C :   -0.079119
  18 C :   -0.024315
  19 C :   -0.037454
  20 C :   -0.164446
  21 H :    0.019382
  22 C :    0.070906
  23 H :    0.005128
  24 H :    0.022156
  25 C :   -0.069830
  26 H :    0.018704
  27 H :    0.024219
  28 C :   -0.031879
  29 H :    0.029850
  30 H :    0.033066
  31 H :    0.029719
  32 H :    0.040314
  33 H :    0.047742
Sum of atomic charges:    0.0000000

LOEWDIN ATOMIC CHARGES
----------------------
   0 S :    0.416164
   1 C :   -0.204736
   2 C :   -0.064664
   3 C :   -0.064322
   4 C :   -0.202372
   5 H :    0.039787
   6 C :   -0.033026
   7 H :    0.020294
   8 H :    0.031850
   9 C :   -0.030318
  10 H :    0.021859
  11 H :    0.035148
  12 C :   -0.074705
  13 H :    0.015645
  14 H :    0.028482
  15 H :    0.030098
  16 S :    0.425920
  17 C :   -0.183724
  18 C :   -0.063441
  19 C :   -0.060205
  20 C :   -0.203751
  21 H :    0.030979
  22 C :   -0.031213
  23 H :    0.024788
  24 H :    0.026000
  25 C :   -0.024956
  26 H :    0.019035
  27 H :    0.017840
  28 C :   -0.063226
  29 H :    0.025471
  30 H :    0.025192
  31 H :    0.023909
  32 H :    0.025851
  33 H :    0.020350

  Mayer bond orders larger than 0.100000
B(  0-S ,  1-C ) :   1.1393 B(  0-S ,  4-C ) :   1.1510 B(  1-C ,  2-C ) :   1.6192
B(  1-C , 32-H ) :   0.9694 B(  2-C ,  3-C ) :   1.2341 B(  2-C ,  6-C ) :   1.0258
B(  3-C ,  4-C ) :   1.5807 B(  3-C ,  5-H ) :   0.9817 B(  4-C , 20-C ) :   1.0129
B(  6-C ,  7-H ) :   0.9275 B(  6-C ,  8-H ) :   0.9394 B(  6-C ,  9-C ) :   1.0642
B(  9-C , 10-H ) :   0.9639 B(  9-C , 11-H ) :   0.9551 B(  9-C , 12-C ) :   1.0596
B( 12-C , 13-H ) :   0.9757 B( 12-C , 14-H ) :   0.9731 B( 12-C , 15-H ) :   0.9777
B( 16-S , 17-C ) :   1.1616 B( 16-S , 20-C ) :   1.1690 B( 17-C , 18-C ) :   1.5852
B( 17-C , 20-C ) :   0.1038 B( 17-C , 33-H ) :   0.9743 B( 18-C , 19-C ) :   1.2507
B( 18-C , 21-H ) :   0.9891 B( 19-C , 20-C ) :   1.5628 B( 19-C , 22-C ) :   1.0829
B( 22-C , 23-H ) :   0.9235 B( 22-C , 24-H ) :   0.9375 B( 22-C , 25-C ) :   1.0502
B( 25-C , 26-H ) :   0.9595 B( 25-C , 27-H ) :   0.9596 B( 25-C , 28-C ) :   1.0691
B( 28-C , 29-H ) :   0.9766 B( 28-C , 30-H ) :   0.9748 B( 28-C , 31-H ) :   0.9777

Dispersion correction           -0.014165053
FINAL SINGLE POINT ENERGY     -1339.873244502054

DIPOLE MOMENT
-------------
                                X             Y             Z
Electronic contribution:     24.71986      -5.75429      -3.69546
Nuclear contribution   :    -25.26568       5.86333       3.60072
                        -----------------------------------------
Total Dipole Moment    :     -0.54582       0.10903      -0.09475
                        -----------------------------------------
Magnitude (a.u.)       :      0.56461
Magnitude (Debye)      :      1.43514

Rotational constants in cm-1:     0.019933     0.007993     0.006476
Rotational constants in MHz :   597.569059   239.626300   194.157547

                             ****ORCA TERMINATED NORMALLY****
TOTAL RUN TIME: 0 days 0 hours 0 minutes 21 seconds 228 msec
