                         Program Version 4.2.1 -  RELEASE  -
|  1> ! wB97X-D3 SP def2-SVP
|  2> %pal
|  3> nprocs 24
|  4> end
|  5>
|  6> * xyz 0 1
|  7> S 	 -62.3324 	 12.2045 	 -93.7243
|  8> C 	 -63.3798 	 12.7599 	 -95.0254
|  9> C 	 -63.9164 	 13.9844 	 -94.7246
| 10> C 	 -63.393 	 14.4869 	 -93.4771
| 11> C 	 -62.5634 	 13.6288 	 -92.752
| 12> H 	 -63.4751 	 15.4979 	 -93.0403
| 13> C 	 -64.7263 	 14.9687 	 -95.6507
| 14> H 	 -65.1769 	 15.7416 	 -94.9804
| 15> H 	 -65.4584 	 14.3436 	 -96.1229
| 16> C 	 -63.8752 	 15.624 	 -96.7275
| 17> H 	 -63.4967 	 14.812 	 -97.4233
| 18> H 	 -64.432 	 16.2438 	 -97.2988
| 19> C 	 -62.6692 	 16.4389 	 -96.2423
| 20> H 	 -62.4489 	 17.241 	 -96.9486
| 21> H 	 -62.7027 	 16.9021 	 -95.2763
| 22> H 	 -61.791 	 15.7703 	 -96.0592
| 23> S 	 -62.9791 	 13.2796 	 -90.0549
| 24> C 	 -61.5697 	 13.4115 	 -88.959
| 25> C 	 -60.5122 	 14.0391 	 -89.6149
| 26> C 	 -60.7286 	 14.3185 	 -90.9904
| 27> C 	 -61.9479 	 13.8268 	 -91.4441
| 28> H 	 -59.5774 	 14.3263 	 -89.0627
| 29> C 	 -59.586 	 14.8428 	 -91.8435
| 30> H 	 -59.6525 	 14.2077 	 -92.7231
| 31> H 	 -58.7062 	 14.5865 	 -91.2316
| 32> C 	 -59.5071 	 16.2963 	 -92.2763
| 33> H 	 -60.4341 	 16.5611 	 -92.8537
| 34> H 	 -58.5675 	 16.5296 	 -92.8646
| 35> C 	 -59.5361 	 17.2698 	 -91.1049
| 36> H 	 -58.7827 	 16.9924 	 -90.3667
| 37> H 	 -60.5468 	 17.4037 	 -90.766
| 38> H 	 -59.1409 	 18.2 	 -91.4528
| 39> H 	 -63.6884 	 12.2264 	 -95.8558
| 40> H 	 -61.5104 	 13.1652 	 -87.9048
| 41> *
| 42>
| 43>                          ****END OF INPUT****

CARTESIAN COORDINATES (ANGSTROEM)
---------------------------------
  S    -62.332400   12.204500  -93.724300
  C    -63.379800   12.759900  -95.025400
  C    -63.916400   13.984400  -94.724600
  C    -63.393000   14.486900  -93.477100
  C    -62.563400   13.628800  -92.752000
  H    -63.475100   15.497900  -93.040300
  C    -64.726300   14.968700  -95.650700
  H    -65.176900   15.741600  -94.980400
  H    -65.458400   14.343600  -96.122900
  C    -63.875200   15.624000  -96.727500
  H    -63.496700   14.812000  -97.423300
  H    -64.432000   16.243800  -97.298800
  C    -62.669200   16.438900  -96.242300
  H    -62.448900   17.241000  -96.948600
  H    -62.702700   16.902100  -95.276300
  H    -61.791000   15.770300  -96.059200
  S    -62.979100   13.279600  -90.054900
  C    -61.569700   13.411500  -88.959000
  C    -60.512200   14.039100  -89.614900
  C    -60.728600   14.318500  -90.990400
  C    -61.947900   13.826800  -91.444100
  H    -59.577400   14.326300  -89.062700
  C    -59.586000   14.842800  -91.843500
  H    -59.652500   14.207700  -92.723100
  H    -58.706200   14.586500  -91.231600
  C    -59.507100   16.296300  -92.276300
  H    -60.434100   16.561100  -92.853700
  H    -58.567500   16.529600  -92.864600
  C    -59.536100   17.269800  -91.104900
  H    -58.782700   16.992400  -90.366700
  H    -60.546800   17.403700  -90.766000
  H    -59.140900   18.200000  -91.452800
  H    -63.688400   12.226400  -95.855800
  H    -61.510400   13.165200  -87.904800

 Total Charge           Charge          ....    0
 Multiplicity           Mult            ....    1
 Number of Electrons    NEL             ....  134
 Basis Dimension        Dim             ....  322

ORBITAL ENERGIES
----------------

  NO   OCC          E(Eh)            E(eV)
   0   2.0000     -88.966610     -2420.9045
   1   2.0000     -88.966219     -2420.8939
   2   2.0000     -10.332908      -281.1727
   3   2.0000     -10.329743      -281.0866
   4   2.0000     -10.323839      -280.9259
   5   2.0000     -10.312846      -280.6268
   6   2.0000     -10.307664      -280.4858
   7   2.0000     -10.304151      -280.3902
   8   2.0000     -10.298751      -280.2433
   9   2.0000     -10.298360      -280.2326
  10   2.0000     -10.296462      -280.1810
  11   2.0000     -10.291844      -280.0553
  12   2.0000     -10.290945      -280.0308
  13   2.0000     -10.283756      -279.8352
  14   2.0000     -10.275309      -279.6054
  15   2.0000     -10.270511      -279.4748
  16   2.0000      -8.081010      -219.8955
  17   2.0000      -8.079371      -219.8509
  18   2.0000      -6.039554      -164.3446
  19   2.0000      -6.038064      -164.3041
  20   2.0000      -6.035394      -164.2314
  21   2.0000      -6.034170      -164.1981
  22   2.0000      -6.031891      -164.1361
  23   2.0000      -6.029939      -164.0830
  24   2.0000      -1.001491       -27.2519
  25   2.0000      -0.978945       -26.6384
  26   2.0000      -0.910842       -24.7853
  27   2.0000      -0.909006       -24.7353
  28   2.0000      -0.868345       -23.6289
  29   2.0000      -0.850223       -23.1357
  30   2.0000      -0.839952       -22.8562
  31   2.0000      -0.811272       -22.0758
  32   2.0000      -0.785875       -21.3847
  33   2.0000      -0.776677       -21.1345
  34   2.0000      -0.709326       -19.3017
  35   2.0000      -0.703782       -19.1509
  36   2.0000      -0.684932       -18.6380
  37   2.0000      -0.662264       -18.0211
  38   2.0000      -0.643886       -17.5210
  39   2.0000      -0.604771       -16.4566
  40   2.0000      -0.584528       -15.9058
  41   2.0000      -0.572793       -15.5865
  42   2.0000      -0.561901       -15.2901
  43   2.0000      -0.552687       -15.0394
  44   2.0000      -0.549284       -14.9468
  45   2.0000      -0.547536       -14.8992
  46   2.0000      -0.517254       -14.0752
  47   2.0000      -0.511594       -13.9212
  48   2.0000      -0.501700       -13.6520
  49   2.0000      -0.490222       -13.3396
  50   2.0000      -0.487555       -13.2670
  51   2.0000      -0.477341       -12.9891
  52   2.0000      -0.472159       -12.8481
  53   2.0000      -0.466188       -12.6856
  54   2.0000      -0.460083       -12.5195
  55   2.0000      -0.442182       -12.0324
  56   2.0000      -0.441311       -12.0087
  57   2.0000      -0.432288       -11.7632
  58   2.0000      -0.428467       -11.6592
  59   2.0000      -0.426222       -11.5981
  60   2.0000      -0.418279       -11.3819
  61   2.0000      -0.416745       -11.3402
  62   2.0000      -0.408346       -11.1117
  63   2.0000      -0.334382        -9.0990
  64   2.0000      -0.327373        -8.9083
  65   2.0000      -0.321962        -8.7610
  66   2.0000      -0.312732        -8.5099
  67   0.0000       0.037199         1.0122
  68   0.0000       0.045940         1.2501
  69   0.0000       0.106389         2.8950
  70   0.0000       0.116454         3.1689
  71   0.0000       0.125537         3.4160

MULLIKEN ATOMIC CHARGES
-----------------------
   0 S :    0.121158
   1 C :   -0.100670
   2 C :   -0.089667
   3 C :    0.024266
   4 C :   -0.184571
   5 H :    0.020165
   6 C :    0.073351
   7 H :    0.038566
   8 H :    0.024470
   9 C :   -0.027616
  10 H :    0.032570
  11 H :    0.007631
  12 C :   -0.072487
  13 H :    0.036746
  14 H :    0.016679
  15 H :    0.043086
  16 S :    0.104131
  17 C :   -0.086853
  18 C :   -0.069477
  19 C :   -0.003740
  20 C :   -0.203212
  21 H :    0.039532
  22 C :    0.083659
  23 H :    0.033243
  24 H :    0.019699
  25 C :   -0.095183
  26 H :    0.036501
  27 H :    0.045874
  28 C :   -0.031349
  29 H :    0.018489
  30 H :    0.045634
  31 H :    0.015925
  32 H :    0.023316
  33 H :    0.060134
Sum of atomic charges:   -0.0000000

LOEWDIN ATOMIC CHARGES
----------------------
   0 S :    0.413853
   1 C :   -0.183959
   2 C :   -0.064311
   3 C :   -0.067477
   4 C :   -0.215887
   5 H :    0.032440
   6 C :   -0.021054
   7 H :    0.035169
   8 H :    0.027534
   9 C :   -0.035434
  10 H :    0.033097
  11 H :    0.008710
  12 C :   -0.073412
  13 H :    0.028341
  14 H :    0.018563
  15 H :    0.034523
  16 S :    0.372299
  17 C :   -0.171378
  18 C :   -0.080686
  19 C :   -0.050988
  20 C :   -0.184534
  21 H :    0.039086
  22 C :   -0.032933
  23 H :    0.034806
  24 H :    0.031041
  25 C :   -0.045626
  26 H :    0.029592
  27 H :    0.033527
  28 C :   -0.065146
  29 H :    0.021869
  30 H :    0.026277
  31 H :    0.022601
  32 H :    0.016822
  33 H :    0.032674

  Mayer bond orders larger than 0.100000
B(  0-S ,  1-C ) :   1.1482 B(  0-S ,  4-C ) :   1.1453 B(  1-C ,  2-C ) :   1.6115
B(  1-C , 32-H ) :   0.9769 B(  2-C ,  3-C ) :   1.2332 B(  2-C ,  6-C ) :   1.0112
B(  3-C ,  4-C ) :   1.5960 B(  3-C ,  5-H ) :   0.9850 B(  4-C , 20-C ) :   1.0254
B(  6-C ,  7-H ) :   0.9449 B(  6-C ,  8-H ) :   0.9370 B(  6-C ,  9-C ) :   1.0883
B(  9-C , 10-H ) :   0.9523 B(  9-C , 11-H ) :   0.9594 B(  9-C , 12-C ) :   1.0657
B( 12-C , 13-H ) :   0.9763 B( 12-C , 14-H ) :   0.9770 B( 12-C , 15-H ) :   0.9733
B( 16-S , 17-C ) :   1.1412 B( 16-S , 20-C ) :   1.1259 B( 17-C , 18-C ) :   1.6284
B( 17-C , 20-C ) :   0.1084 B( 17-C , 33-H ) :   0.9661 B( 18-C , 19-C ) :   1.2361
B( 18-C , 21-H ) :   0.9725 B( 19-C , 20-C ) :   1.6064 B( 19-C , 22-C ) :   1.0165
B( 22-C , 23-H ) :   0.9291 B( 22-C , 24-H ) :   0.9390 B( 22-C , 25-C ) :   1.0793
B( 25-C , 26-H ) :   0.9535 B( 25-C , 27-H ) :   0.9569 B( 25-C , 28-C ) :   1.0816
B( 28-C , 29-H ) :   0.9737 B( 28-C , 30-H ) :   0.9749 B( 28-C , 31-H ) :   0.9714

Dispersion correction           -0.015347395
FINAL SINGLE POINT ENERGY     -1339.863511558588

DIPOLE MOMENT
-------------
                                X             Y             Z
Electronic contribution:     -8.14793     -21.99017      12.70753
Nuclear contribution   :      8.37248      22.53124     -12.95650
                        -----------------------------------------
Total Dipole Moment    :      0.22455       0.54107      -0.24896
                        -----------------------------------------
Magnitude (a.u.)       :      0.63652
Magnitude (Debye)      :      1.61791

Rotational constants in cm-1:     0.018767     0.009304     0.007239
Rotational constants in MHz :   562.606476   278.920384   217.025246

                             ****ORCA TERMINATED NORMALLY****
TOTAL RUN TIME: 0 days 0 hours 0 minutes 22 seconds 96 msec
