                         Program Version 4.2.1 -  RELEASE  -
|  1> ! wB97X-D3 SP def2-SVP
|  2> %pal
|  3> nprocs 24
|  4> end
|  5>
|  6> * xyz 0 1
|  7> S 	 -132.597 	 30.1917 	 -14.0176
|  8> C 	 -131.491 	 28.9511 	 -14.5225
|  9> C 	 -132.156 	 27.9769 	 -15.3177
| 10> C 	 -133.557 	 28.2086 	 -15.277
| 11> C 	 -133.98 	 29.3147 	 -14.5577
| 12> H 	 -134.35 	 27.669 	 -15.8593
| 13> C 	 -131.418 	 26.9202 	 -16.0717
| 14> H 	 -132.221 	 26.4117 	 -16.625
| 15> H 	 -130.875 	 26.2198 	 -15.4502
| 16> C 	 -130.444 	 27.5366 	 -17.0452
| 17> H 	 -130.801 	 28.3981 	 -17.6211
| 18> H 	 -129.533 	 27.9239 	 -16.5809
| 19> C 	 -129.935 	 26.5593 	 -18.0793
| 20> H 	 -129.27 	 27.0557 	 -18.8031
| 21> H 	 -129.376 	 25.7549 	 -17.6232
| 22> H 	 -130.639 	 26.1649 	 -18.7239
| 23> S 	 -135.65 	 31.3717 	 -14.584
| 24> C 	 -137.347 	 31.0857 	 -14.3218
| 25> C 	 -137.642 	 29.7978 	 -13.8407
| 26> C 	 -136.447 	 28.924 	 -13.9563
| 27> C 	 -135.367 	 29.7258 	 -14.4188
| 28> H 	 -138.646 	 29.5895 	 -13.4854
| 29> C 	 -136.456 	 27.374 	 -13.6468
| 30> H 	 -136.272 	 27.1998 	 -12.6463
| 31> H 	 -135.622 	 26.8922 	 -14.0661
| 32> C 	 -137.638 	 26.7238 	 -14.2341
| 33> H 	 -137.591 	 26.7659 	 -15.2892
| 34> H 	 -138.541 	 27.2734 	 -14.0503
| 35> C 	 -137.632 	 25.3018 	 -13.7159
| 36> H 	 -137.796 	 25.1891 	 -12.6621
| 37> H 	 -136.678 	 24.7633 	 -13.9473
| 38> H 	 -138.471 	 24.762 	 -14.1113
| 39> H 	 -130.443 	 28.974 	 -14.3689
| 40> H 	 -138.084 	 31.8847 	 -14.2527
| 41> *
| 42>
| 43>                          ****END OF INPUT****

CARTESIAN COORDINATES (ANGSTROEM)
---------------------------------
  S    -132.597000   30.191700  -14.017600
  C    -131.491000   28.951100  -14.522500
  C    -132.156000   27.976900  -15.317700
  C    -133.557000   28.208600  -15.277000
  C    -133.980000   29.314700  -14.557700
  H    -134.350000   27.669000  -15.859300
  C    -131.418000   26.920200  -16.071700
  H    -132.221000   26.411700  -16.625000
  H    -130.875000   26.219800  -15.450200
  C    -130.444000   27.536600  -17.045200
  H    -130.801000   28.398100  -17.621100
  H    -129.533000   27.923900  -16.580900
  C    -129.935000   26.559300  -18.079300
  H    -129.270000   27.055700  -18.803100
  H    -129.376000   25.754900  -17.623200
  H    -130.639000   26.164900  -18.723900
  S    -135.650000   31.371700  -14.584000
  C    -137.347000   31.085700  -14.321800
  C    -137.642000   29.797800  -13.840700
  C    -136.447000   28.924000  -13.956300
  C    -135.367000   29.725800  -14.418800
  H    -138.646000   29.589500  -13.485400
  C    -136.456000   27.374000  -13.646800
  H    -136.272000   27.199800  -12.646300
  H    -135.622000   26.892200  -14.066100
  C    -137.638000   26.723800  -14.234100
  H    -137.591000   26.765900  -15.289200
  H    -138.541000   27.273400  -14.050300
  C    -137.632000   25.301800  -13.715900
  H    -137.796000   25.189100  -12.662100
  H    -136.678000   24.763300  -13.947300
  H    -138.471000   24.762000  -14.111300
  H    -130.443000   28.974000  -14.368900
  H    -138.084000   31.884700  -14.252700

 Total Charge           Charge          ....    0
 Multiplicity           Mult            ....    1
 Number of Electrons    NEL             ....  134
 Basis Dimension        Dim             ....  322

ORBITAL ENERGIES
----------------

  NO   OCC          E(Eh)            E(eV)
   0   2.0000     -88.968956     -2420.9684
   1   2.0000     -88.966759     -2420.9086
   2   2.0000     -10.323593      -280.9193
   3   2.0000     -10.322098      -280.8786
   4   2.0000     -10.316385      -280.7231
   5   2.0000     -10.313617      -280.6478
   6   2.0000     -10.309574      -280.5378
   7   2.0000     -10.303878      -280.3828
   8   2.0000     -10.301196      -280.3098
   9   2.0000     -10.291831      -280.0550
  10   2.0000     -10.291784      -280.0537
  11   2.0000     -10.282357      -279.7972
  12   2.0000     -10.280487      -279.7463
  13   2.0000     -10.275593      -279.6131
  14   2.0000     -10.275525      -279.6112
  15   2.0000     -10.267642      -279.3967
  16   2.0000      -8.085201      -220.0095
  17   2.0000      -8.081750      -219.9156
  18   2.0000      -6.043479      -164.4514
  19   2.0000      -6.040170      -164.3614
  20   2.0000      -6.039706      -164.3488
  21   2.0000      -6.036175      -164.2527
  22   2.0000      -6.035907      -164.2454
  23   2.0000      -6.032661      -164.1570
  24   2.0000      -1.010215       -27.4893
  25   2.0000      -0.983701       -26.7679
  26   2.0000      -0.923174       -25.1209
  27   2.0000      -0.918574       -24.9957
  28   2.0000      -0.867707       -23.6115
  29   2.0000      -0.852001       -23.1841
  30   2.0000      -0.846566       -23.0362
  31   2.0000      -0.811581       -22.0842
  32   2.0000      -0.784660       -21.3517
  33   2.0000      -0.769755       -20.9461
  34   2.0000      -0.712925       -19.3997
  35   2.0000      -0.705725       -19.2038
  36   2.0000      -0.691755       -18.8236
  37   2.0000      -0.660464       -17.9722
  38   2.0000      -0.637498       -17.3472
  39   2.0000      -0.617675       -16.8078
  40   2.0000      -0.600573       -16.3424
  41   2.0000      -0.569293       -15.4912
  42   2.0000      -0.566702       -15.4207
  43   2.0000      -0.564901       -15.3717
  44   2.0000      -0.529827       -14.4173
  45   2.0000      -0.524963       -14.2850
  46   2.0000      -0.523533       -14.2461
  47   2.0000      -0.517212       -14.0741
  48   2.0000      -0.501472       -13.6458
  49   2.0000      -0.498659       -13.5692
  50   2.0000      -0.492112       -13.3911
  51   2.0000      -0.478795       -13.0287
  52   2.0000      -0.469416       -12.7734
  53   2.0000      -0.465128       -12.6568
  54   2.0000      -0.460153       -12.5214
  55   2.0000      -0.455589       -12.3972
  56   2.0000      -0.449009       -12.2182
  57   2.0000      -0.441281       -12.0079
  58   2.0000      -0.436066       -11.8660
  59   2.0000      -0.422141       -11.4870
  60   2.0000      -0.421301       -11.4642
  61   2.0000      -0.416941       -11.3456
  62   2.0000      -0.412606       -11.2276
  63   2.0000      -0.348163        -9.4740
  64   2.0000      -0.332636        -9.0515
  65   2.0000      -0.326602        -8.8873
  66   2.0000      -0.281913        -7.6712
  67   0.0000       0.030736         0.8364
  68   0.0000       0.069398         1.8884
  69   0.0000       0.107186         2.9167
  70   0.0000       0.118580         3.2267
  71   0.0000       0.135815         3.6957

MULLIKEN ATOMIC CHARGES
-----------------------
   0 S :    0.119506
   1 C :   -0.117184
   2 C :   -0.094439
   3 C :   -0.012911
   4 C :   -0.146090
   5 H :    0.033068
   6 C :    0.122016
   7 H :    0.018158
   8 H :    0.037676
   9 C :   -0.102318
  10 H :    0.033245
  11 H :    0.024495
  12 C :   -0.025784
  13 H :    0.023008
  14 H :    0.022018
  15 H :    0.010780
  16 S :    0.123392
  17 C :   -0.095482
  18 C :   -0.056483
  19 C :   -0.052760
  20 C :   -0.158970
  21 H :    0.030992
  22 C :    0.151176
  23 H :    0.012511
  24 H :   -0.014779
  25 C :   -0.058800
  26 H :    0.017957
  27 H :    0.017744
  28 C :   -0.031572
  29 H :    0.023944
  30 H :    0.034809
  31 H :    0.020787
  32 H :    0.036394
  33 H :    0.053897
Sum of atomic charges:    0.0000000

LOEWDIN ATOMIC CHARGES
----------------------
   0 S :    0.423629
   1 C :   -0.202156
   2 C :   -0.058349
   3 C :   -0.080342
   4 C :   -0.210052
   5 H :    0.037241
   6 C :   -0.029536
   7 H :    0.033929
   8 H :    0.035245
   9 C :   -0.043659
  10 H :    0.028433
  11 H :    0.023992
  12 C :   -0.062214
  13 H :    0.029527
  14 H :    0.021199
  15 H :    0.011785
  16 S :    0.442425
  17 C :   -0.198349
  18 C :   -0.064743
  19 C :   -0.043711
  20 C :   -0.221762
  21 H :    0.032407
  22 C :   -0.018267
  23 H :    0.023824
  24 H :    0.023757
  25 C :   -0.036873
  26 H :    0.023324
  27 H :    0.019356
  28 C :   -0.061594
  29 H :    0.023298
  30 H :    0.031379
  31 H :    0.022434
  32 H :    0.018820
  33 H :    0.025602

  Mayer bond orders larger than 0.100000
B(  0-S ,  1-C ) :   1.1599 B(  0-S ,  4-C ) :   1.1657 B(  1-C ,  2-C ) :   1.5400
B(  1-C ,  4-C ) :   0.1071 B(  1-C , 32-H ) :   0.9789 B(  2-C ,  3-C ) :   1.2951
B(  2-C ,  6-C ) :   1.0273 B(  3-C ,  4-C ) :   1.5404 B(  3-C ,  5-H ) :   0.9792
B(  4-C , 20-C ) :   1.0491 B(  6-C ,  7-H ) :   0.9426 B(  6-C ,  8-H ) :   0.9291
B(  6-C ,  9-C ) :   1.0627 B(  9-C , 10-H ) :   0.9596 B(  9-C , 11-H ) :   0.9483
B(  9-C , 12-C ) :   1.0986 B( 12-C , 13-H ) :   0.9711 B( 12-C , 14-H ) :   0.9710
B( 12-C , 15-H ) :   0.9739 B( 16-S , 17-C ) :   1.1527 B( 16-S , 20-C ) :   1.1667
B( 17-C , 18-C ) :   1.6247 B( 17-C , 33-H ) :   0.9656 B( 18-C , 19-C ) :   1.2260
B( 18-C , 21-H ) :   0.9851 B( 19-C , 20-C ) :   1.5719 B( 19-C , 22-C ) :   1.0119
B( 22-C , 23-H ) :   0.9331 B( 22-C , 24-H ) :   0.9256 B( 22-C , 25-C ) :   1.0581
B( 25-C , 26-H ) :   0.9499 B( 25-C , 27-H ) :   0.9552 B( 25-C , 28-C ) :   1.0864
B( 28-C , 29-H ) :   0.9740 B( 28-C , 30-H ) :   0.9705 B( 28-C , 31-H ) :   0.9691

Dispersion correction           -0.013466770
FINAL SINGLE POINT ENERGY     -1339.859605524108

DIPOLE MOMENT
-------------
                                X             Y             Z
Electronic contribution:     -2.29412      26.72091       9.10375
Nuclear contribution   :      2.19376     -27.23599      -9.22357
                        -----------------------------------------
Total Dipole Moment    :     -0.10036      -0.51507      -0.11982
                        -----------------------------------------
Magnitude (a.u.)       :      0.53827
Magnitude (Debye)      :      1.36816

Rotational constants in cm-1:     0.018201     0.008084     0.006149
Rotational constants in MHz :   545.647216   242.338618   184.336178

                             ****ORCA TERMINATED NORMALLY****
TOTAL RUN TIME: 0 days 0 hours 0 minutes 21 seconds 98 msec
