                         Program Version 4.2.1 -  RELEASE  -
|  1> ! wB97X-D3 SP def2-SVP
|  2> %pal
|  3> nprocs 24
|  4> end
|  5>
|  6> * xyz 0 1
|  7> S 	 40.4752 	 -26.4946 	 -111.33
|  8> C 	 42.0649 	 -25.9984 	 -110.84
|  9> C 	 42.174 	 -24.5801 	 -110.745
| 10> C 	 41.0114 	 -23.9667 	 -111.355
| 11> C 	 39.9467 	 -24.8494 	 -111.569
| 12> H 	 40.7285 	 -22.9305 	 -111.556
| 13> C 	 43.4958 	 -23.8328 	 -110.587
| 14> H 	 43.3621 	 -22.9913 	 -111.225
| 15> H 	 44.3403 	 -24.4014 	 -111.043
| 16> C 	 43.8409 	 -23.4417 	 -109.197
| 17> H 	 44.732 	 -22.8866 	 -109.181
| 18> H 	 43.0773 	 -22.8255 	 -108.692
| 19> C 	 44.0495 	 -24.7247 	 -108.382
| 20> H 	 43.1868 	 -25.408 	 -108.412
| 21> H 	 44.7422 	 -25.4239 	 -108.756
| 22> H 	 44.2206 	 -24.593 	 -107.24
| 23> S 	 37.9848 	 -25.5298 	 -113.333
| 24> C 	 36.4755 	 -24.6094 	 -113.355
| 25> C 	 36.5534 	 -23.5206 	 -112.463
| 26> C 	 37.7096 	 -23.4967 	 -111.664
| 27> C 	 38.629 	 -24.4566 	 -112.041
| 28> H 	 35.5945 	 -22.9482 	 -112.376
| 29> C 	 37.7198 	 -22.5011 	 -110.406
| 30> H 	 38.6042 	 -22.6492 	 -109.747
| 31> H 	 36.7596 	 -22.7017 	 -109.846
| 32> C 	 37.8779 	 -21.0042 	 -110.894
| 33> H 	 37.2345 	 -20.7601 	 -111.794
| 34> H 	 38.8738 	 -20.7384 	 -111.103
| 35> C 	 37.5275 	 -19.9477 	 -109.896
| 36> H 	 37.6582 	 -18.9328 	 -110.308
| 37> H 	 38.1615 	 -20.049 	 -109.08
| 38> H 	 36.5108 	 -20.0591 	 -109.596
| 39> H 	 42.6952 	 -26.6216 	 -110.279
| 40> H 	 35.6243 	 -24.8883 	 -113.891
| 41> *
| 42>
| 43>                          ****END OF INPUT****

CARTESIAN COORDINATES (ANGSTROEM)
---------------------------------
  S     40.475200  -26.494600  -111.330000
  C     42.064900  -25.998400  -110.840000
  C     42.174000  -24.580100  -110.745000
  C     41.011400  -23.966700  -111.355000
  C     39.946700  -24.849400  -111.569000
  H     40.728500  -22.930500  -111.556000
  C     43.495800  -23.832800  -110.587000
  H     43.362100  -22.991300  -111.225000
  H     44.340300  -24.401400  -111.043000
  C     43.840900  -23.441700  -109.197000
  H     44.732000  -22.886600  -109.181000
  H     43.077300  -22.825500  -108.692000
  C     44.049500  -24.724700  -108.382000
  H     43.186800  -25.408000  -108.412000
  H     44.742200  -25.423900  -108.756000
  H     44.220600  -24.593000  -107.240000
  S     37.984800  -25.529800  -113.333000
  C     36.475500  -24.609400  -113.355000
  C     36.553400  -23.520600  -112.463000
  C     37.709600  -23.496700  -111.664000
  C     38.629000  -24.456600  -112.041000
  H     35.594500  -22.948200  -112.376000
  C     37.719800  -22.501100  -110.406000
  H     38.604200  -22.649200  -109.747000
  H     36.759600  -22.701700  -109.846000
  C     37.877900  -21.004200  -110.894000
  H     37.234500  -20.760100  -111.794000
  H     38.873800  -20.738400  -111.103000
  C     37.527500  -19.947700  -109.896000
  H     37.658200  -18.932800  -110.308000
  H     38.161500  -20.049000  -109.080000
  H     36.510800  -20.059100  -109.596000
  H     42.695200  -26.621600  -110.279000
  H     35.624300  -24.888300  -113.891000

 Total Charge           Charge          ....    0
 Multiplicity           Mult            ....    1
 Number of Electrons    NEL             ....  134
 Basis Dimension        Dim             ....  322

ORBITAL ENERGIES
----------------

  NO   OCC          E(Eh)            E(eV)
   0   2.0000     -88.969455     -2420.9820
   1   2.0000     -88.965206     -2420.8663
   2   2.0000     -10.332542      -281.1628
   3   2.0000     -10.329101      -281.0691
   4   2.0000     -10.319218      -280.8002
   5   2.0000     -10.314216      -280.6641
   6   2.0000     -10.312905      -280.6284
   7   2.0000     -10.312447      -280.6160
   8   2.0000     -10.309702      -280.5413
   9   2.0000     -10.299967      -280.2764
  10   2.0000     -10.297769      -280.2165
  11   2.0000     -10.290831      -280.0277
  12   2.0000     -10.286391      -279.9069
  13   2.0000     -10.283952      -279.8405
  14   2.0000     -10.278298      -279.6867
  15   2.0000     -10.268413      -279.4177
  16   2.0000      -8.084220      -219.9828
  17   2.0000      -8.079191      -219.8460
  18   2.0000      -6.042628      -164.4283
  19   2.0000      -6.038556      -164.3175
  20   2.0000      -6.037692      -164.2940
  21   2.0000      -6.035249      -164.2275
  22   2.0000      -6.033836      -164.1890
  23   2.0000      -6.029963      -164.0836
  24   2.0000      -1.003256       -27.3000
  25   2.0000      -0.979471       -26.6528
  26   2.0000      -0.920068       -25.0363
  27   2.0000      -0.905673       -24.6446
  28   2.0000      -0.867290       -23.6002
  29   2.0000      -0.855658       -23.2836
  30   2.0000      -0.845444       -23.0057
  31   2.0000      -0.807509       -21.9734
  32   2.0000      -0.782392       -21.2900
  33   2.0000      -0.776767       -21.1369
  34   2.0000      -0.709148       -19.2969
  35   2.0000      -0.701313       -19.0837
  36   2.0000      -0.691460       -18.8156
  37   2.0000      -0.662351       -18.0235
  38   2.0000      -0.645594       -17.5675
  39   2.0000      -0.612945       -16.6791
  40   2.0000      -0.595381       -16.2011
  41   2.0000      -0.572546       -15.5798
  42   2.0000      -0.567982       -15.4556
  43   2.0000      -0.550670       -14.9845
  44   2.0000      -0.539013       -14.6673
  45   2.0000      -0.528015       -14.3680
  46   2.0000      -0.523408       -14.2427
  47   2.0000      -0.513972       -13.9859
  48   2.0000      -0.506665       -13.7871
  49   2.0000      -0.499707       -13.5977
  50   2.0000      -0.483025       -13.1438
  51   2.0000      -0.479017       -13.0347
  52   2.0000      -0.471811       -12.8386
  53   2.0000      -0.465150       -12.6574
  54   2.0000      -0.453263       -12.3339
  55   2.0000      -0.445517       -12.1231
  56   2.0000      -0.444827       -12.1043
  57   2.0000      -0.436591       -11.8803
  58   2.0000      -0.431704       -11.7473
  59   2.0000      -0.423659       -11.5283
  60   2.0000      -0.420047       -11.4301
  61   2.0000      -0.417416       -11.3585
  62   2.0000      -0.413946       -11.2641
  63   2.0000      -0.347649        -9.4600
  64   2.0000      -0.335250        -9.1226
  65   2.0000      -0.331933        -9.0324
  66   2.0000      -0.287531        -7.8241
  67   0.0000       0.021152         0.5756
  68   0.0000       0.064922         1.7666
  69   0.0000       0.104285         2.8377
  70   0.0000       0.113230         3.0811
  71   0.0000       0.127757         3.4765

MULLIKEN ATOMIC CHARGES
-----------------------
   0 S :    0.121327
   1 C :   -0.087462
   2 C :   -0.102603
   3 C :    0.016932
   4 C :   -0.151739
   5 H :    0.018222
   6 C :    0.032172
   7 H :    0.016968
   8 H :    0.044127
   9 C :    0.013605
  10 H :    0.020990
  11 H :    0.031325
  12 C :   -0.098235
  13 H :    0.022614
  14 H :    0.010639
  15 H :    0.046338
  16 S :    0.087687
  17 C :   -0.083349
  18 C :   -0.063163
  19 C :   -0.000138
  20 C :   -0.171786
  21 H :    0.041112
  22 C :    0.044190
  23 H :    0.040173
  24 H :    0.055066
  25 C :   -0.102543
  26 H :    0.038127
  27 H :    0.020156
  28 C :   -0.013082
  29 H :    0.035569
  30 H :    0.010422
  31 H :    0.018946
  32 H :    0.045487
  33 H :    0.041906
Sum of atomic charges:   -0.0000000

LOEWDIN ATOMIC CHARGES
----------------------
   0 S :    0.421456
   1 C :   -0.198891
   2 C :   -0.054761
   3 C :   -0.065520
   4 C :   -0.203876
   5 H :    0.033381
   6 C :   -0.030468
   7 H :    0.027582
   8 H :    0.039068
   9 C :   -0.035214
  10 H :    0.019667
  11 H :    0.029612
  12 C :   -0.079056
  13 H :    0.024441
  14 H :    0.014309
  15 H :    0.035301
  16 S :    0.376366
  17 C :   -0.168168
  18 C :   -0.077221
  19 C :   -0.058295
  20 C :   -0.179490
  21 H :    0.040927
  22 C :   -0.021881
  23 H :    0.033865
  24 H :    0.039560
  25 C :   -0.044512
  26 H :    0.027878
  27 H :    0.017087
  28 C :   -0.057269
  29 H :    0.031504
  30 H :    0.012718
  31 H :    0.017444
  32 H :    0.015193
  33 H :    0.017263

  Mayer bond orders larger than 0.100000
B(  0-S ,  1-C ) :   1.1604 B(  0-S ,  4-C ) :   1.1574 B(  1-C ,  2-C ) :   1.5687
B(  1-C ,  4-C ) :   0.1007 B(  1-C , 32-H ) :   0.9642 B(  2-C ,  3-C ) :   1.2470
B(  2-C ,  6-C ) :   1.0119 B(  3-C ,  4-C ) :   1.5684 B(  3-C ,  5-H ) :   0.9851
B(  4-C , 20-C ) :   1.0549 B(  6-C ,  7-H ) :   0.9431 B(  6-C ,  8-H ) :   0.9531
B(  6-C ,  9-C ) :   1.0759 B(  9-C , 10-H ) :   0.9517 B(  9-C , 11-H ) :   0.9526
B(  9-C , 12-C ) :   1.0646 B( 12-C , 13-H ) :   0.9684 B( 12-C , 14-H ) :   0.9738
B( 12-C , 15-H ) :   0.9727 B( 16-S , 17-C ) :   1.1504 B( 16-S , 20-C ) :   1.1266
B( 17-C , 18-C ) :   1.6189 B( 17-C , 20-C ) :   0.1079 B( 17-C , 33-H ) :   0.9761
B( 18-C , 19-C ) :   1.2276 B( 18-C , 21-H ) :   0.9791 B( 19-C , 20-C ) :   1.6201
B( 19-C , 22-C ) :   1.0170 B( 22-C , 23-H ) :   0.9394 B( 22-C , 24-H ) :   0.9514
B( 22-C , 25-C ) :   1.0445 B( 25-C , 26-H ) :   0.9634 B( 25-C , 27-H ) :   0.9582
B( 25-C , 28-C ) :   1.0876 B( 28-C , 29-H ) :   0.9726 B( 28-C , 30-H ) :   0.9715
B( 28-C , 31-H ) :   0.9752

Dispersion correction           -0.013834686
FINAL SINGLE POINT ENERGY     -1339.850906843818

DIPOLE MOMENT
-------------
                                X             Y             Z
Electronic contribution:     -9.44422     -21.70969     -17.06254
Nuclear contribution   :      9.42379      22.27029      17.40286
                        -----------------------------------------
Total Dipole Moment    :     -0.02043       0.56060       0.34032
                        -----------------------------------------
Magnitude (a.u.)       :      0.65613
Magnitude (Debye)      :      1.66774

Rotational constants in cm-1:     0.017404     0.008833     0.006211
Rotational constants in MHz :   521.755930   264.803392   186.199494

                             ****ORCA TERMINATED NORMALLY****
TOTAL RUN TIME: 0 days 0 hours 0 minutes 21 seconds 278 msec
