                         Program Version 4.2.1 -  RELEASE  -
|  1> ! wB97X-D3 SP def2-SVP
|  2> %pal
|  3> nprocs 24
|  4> end
|  5>
|  6> * xyz 0 1
|  7> S 	 -101.583 	 14.6782 	 -121.585
|  8> C 	 -100.35 	 15.2023 	 -120.47
|  9> C 	 -99.3597 	 14.2216 	 -120.44
| 10> C 	 -99.6143 	 13.0911 	 -121.235
| 11> C 	 -100.708 	 13.2392 	 -122.081
| 12> H 	 -99.0598 	 12.1865 	 -121.423
| 13> C 	 -98.1317 	 14.2926 	 -119.64
| 14> H 	 -98.2603 	 15.3118 	 -119.257
| 15> H 	 -97.3056 	 14.134 	 -120.3
| 16> C 	 -97.9756 	 13.4023 	 -118.394
| 17> H 	 -97.7599 	 12.4721 	 -118.672
| 18> H 	 -97.239 	 13.5703 	 -117.686
| 19> C 	 -99.2616 	 13.211 	 -117.653
| 20> H 	 -100.039 	 12.5413 	 -118.163
| 21> H 	 -99.0311 	 12.8468 	 -116.624
| 22> H 	 -99.6453 	 14.2299 	 -117.483
| 23> S 	 -100.648 	 13.0054 	 -124.729
| 24> C 	 -101.509 	 11.7321 	 -125.605
| 25> C 	 -102.208 	 10.9298 	 -124.749
| 26> C 	 -101.914 	 11.243 	 -123.357
| 27> C 	 -101.146 	 12.4231 	 -123.175
| 28> H 	 -102.8 	 10.074 	 -125.125
| 29> C 	 -102.379 	 10.3119 	 -122.265
| 30> H 	 -103.493 	 10.3133 	 -122.127
| 31> H 	 -102.08 	 10.7009 	 -121.287
| 32> C 	 -101.668 	 8.93778 	 -122.207
| 33> H 	 -101.433 	 8.54135 	 -123.16
| 34> H 	 -102.311 	 8.18019 	 -121.676
| 35> C 	 -100.317 	 9.07082 	 -121.506
| 36> H 	 -100.417 	 9.37164 	 -120.427
| 37> H 	 -99.8026 	 9.95357 	 -121.981
| 38> H 	 -99.778 	 8.07287 	 -121.467
| 39> H 	 -100.291 	 16.1655 	 -120.02
| 40> H 	 -101.43 	 11.6739 	 -126.671
| 41> *
| 42>
| 43>                          ****END OF INPUT****

CARTESIAN COORDINATES (ANGSTROEM)
---------------------------------
  S    -101.583000   14.678200  -121.585000
  C    -100.350000   15.202300  -120.470000
  C    -99.359700   14.221600  -120.440000
  C    -99.614300   13.091100  -121.235000
  C    -100.708000   13.239200  -122.081000
  H    -99.059800   12.186500  -121.423000
  C    -98.131700   14.292600  -119.640000
  H    -98.260300   15.311800  -119.257000
  H    -97.305600   14.134000  -120.300000
  C    -97.975600   13.402300  -118.394000
  H    -97.759900   12.472100  -118.672000
  H    -97.239000   13.570300  -117.686000
  C    -99.261600   13.211000  -117.653000
  H    -100.039000   12.541300  -118.163000
  H    -99.031100   12.846800  -116.624000
  H    -99.645300   14.229900  -117.483000
  S    -100.648000   13.005400  -124.729000
  C    -101.509000   11.732100  -125.605000
  C    -102.208000   10.929800  -124.749000
  C    -101.914000   11.243000  -123.357000
  C    -101.146000   12.423100  -123.175000
  H    -102.800000   10.074000  -125.125000
  C    -102.379000   10.311900  -122.265000
  H    -103.493000   10.313300  -122.127000
  H    -102.080000   10.700900  -121.287000
  C    -101.668000    8.937780  -122.207000
  H    -101.433000    8.541350  -123.160000
  H    -102.311000    8.180190  -121.676000
  C    -100.317000    9.070820  -121.506000
  H    -100.417000    9.371640  -120.427000
  H    -99.802600    9.953570  -121.981000
  H    -99.778000    8.072870  -121.467000
  H    -100.291000   16.165500  -120.020000
  H    -101.430000   11.673900  -126.671000

 Total Charge           Charge          ....    0
 Multiplicity           Mult            ....    1
 Number of Electrons    NEL             ....  134
 Basis Dimension        Dim             ....  322

ORBITAL ENERGIES
----------------

  NO   OCC          E(Eh)            E(eV)
   0   2.0000     -88.964274     -2420.8410
   1   2.0000     -88.962902     -2420.8036
   2   2.0000     -10.330082      -281.0958
   3   2.0000     -10.329680      -281.0849
   4   2.0000     -10.320868      -280.8451
   5   2.0000     -10.315863      -280.7089
   6   2.0000     -10.314412      -280.6694
   7   2.0000     -10.301378      -280.3148
   8   2.0000     -10.298619      -280.2397
   9   2.0000     -10.293260      -280.0938
  10   2.0000     -10.292178      -280.0644
  11   2.0000     -10.288086      -279.9531
  12   2.0000     -10.287373      -279.9337
  13   2.0000     -10.284585      -279.8578
  14   2.0000     -10.277062      -279.6531
  15   2.0000     -10.265292      -279.3328
  16   2.0000      -8.079081      -219.8430
  17   2.0000      -8.078081      -219.8158
  18   2.0000      -6.037517      -164.2892
  19   2.0000      -6.036606      -164.2644
  20   2.0000      -6.033424      -164.1778
  21   2.0000      -6.032337      -164.1482
  22   2.0000      -6.030036      -164.0856
  23   2.0000      -6.028956      -164.0562
  24   2.0000      -1.009170       -27.4609
  25   2.0000      -0.986193       -26.8357
  26   2.0000      -0.921043       -25.0629
  27   2.0000      -0.909543       -24.7499
  28   2.0000      -0.877327       -23.8733
  29   2.0000      -0.851572       -23.1724
  30   2.0000      -0.843471       -22.9520
  31   2.0000      -0.820913       -22.3382
  32   2.0000      -0.778002       -21.1705
  33   2.0000      -0.765379       -20.8270
  34   2.0000      -0.713309       -19.4101
  35   2.0000      -0.699823       -19.0432
  36   2.0000      -0.695326       -18.9208
  37   2.0000      -0.657772       -17.8989
  38   2.0000      -0.648208       -17.6386
  39   2.0000      -0.620868       -16.8947
  40   2.0000      -0.603145       -16.4124
  41   2.0000      -0.567358       -15.4386
  42   2.0000      -0.562579       -15.3086
  43   2.0000      -0.558642       -15.2014
  44   2.0000      -0.555544       -15.1171
  45   2.0000      -0.531339       -14.4585
  46   2.0000      -0.523854       -14.2548
  47   2.0000      -0.518123       -14.0989
  48   2.0000      -0.508956       -13.8494
  49   2.0000      -0.496903       -13.5214
  50   2.0000      -0.485116       -13.2007
  51   2.0000      -0.474387       -12.9087
  52   2.0000      -0.468333       -12.7440
  53   2.0000      -0.465199       -12.6587
  54   2.0000      -0.455544       -12.3960
  55   2.0000      -0.446290       -12.1442
  56   2.0000      -0.439570       -11.9613
  57   2.0000      -0.430943       -11.7265
  58   2.0000      -0.429292       -11.6816
  59   2.0000      -0.420807       -11.4507
  60   2.0000      -0.419204       -11.4071
  61   2.0000      -0.410865       -11.1802
  62   2.0000      -0.408222       -11.1083
  63   2.0000      -0.339872        -9.2484
  64   2.0000      -0.328779        -8.9465
  65   2.0000      -0.319709        -8.6997
  66   2.0000      -0.310549        -8.4505
  67   0.0000       0.038318         1.0427
  68   0.0000       0.050253         1.3675
  69   0.0000       0.109331         2.9751
  70   0.0000       0.124729         3.3940
  71   0.0000       0.127694         3.4747

MULLIKEN ATOMIC CHARGES
-----------------------
   0 S :    0.118642
   1 C :   -0.102373
   2 C :   -0.126646
   3 C :    0.063209
   4 C :   -0.179239
   5 H :    0.007174
   6 C :    0.109718
   7 H :    0.007660
   8 H :    0.033053
   9 C :    0.021571
  10 H :   -0.019252
  11 H :    0.009391
  12 C :   -0.093099
  13 H :    0.057234
  14 H :    0.030014
  15 H :    0.014317
  16 S :    0.103932
  17 C :   -0.094209
  18 C :   -0.018196
  19 C :   -0.034833
  20 C :   -0.178330
  21 H :    0.040423
  22 C :    0.033256
  23 H :    0.047766
  24 H :    0.008870
  25 C :   -0.042958
  26 H :    0.022007
  27 H :    0.036830
  28 C :   -0.116818
  29 H :    0.033531
  30 H :    0.048701
  31 H :    0.052961
  32 H :    0.047478
  33 H :    0.058217
Sum of atomic charges:   -0.0000000

LOEWDIN ATOMIC CHARGES
----------------------
   0 S :    0.415157
   1 C :   -0.196124
   2 C :   -0.066987
   3 C :   -0.059133
   4 C :   -0.200874
   5 H :    0.030987
   6 C :   -0.025775
   7 H :    0.030926
   8 H :    0.031526
   9 C :   -0.037200
  10 H :    0.006260
  11 H :    0.021698
  12 C :   -0.067617
  13 H :    0.034809
  14 H :    0.026931
  15 H :    0.019334
  16 S :    0.412121
  17 C :   -0.168843
  18 C :   -0.073091
  19 C :   -0.049605
  20 C :   -0.217346
  21 H :    0.041574
  22 C :   -0.045055
  23 H :    0.039316
  24 H :    0.029908
  25 C :   -0.039818
  26 H :    0.015128
  27 H :    0.030004
  28 C :   -0.078410
  29 H :    0.023713
  30 H :    0.029419
  31 H :    0.034302
  32 H :    0.027399
  33 H :    0.025365

  Mayer bond orders larger than 0.100000
B(  0-S ,  1-C ) :   1.1490 B(  0-S ,  4-C ) :   1.1622 B(  1-C ,  2-C ) :   1.5774
B(  1-C ,  4-C ) :   0.1072 B(  1-C , 32-H ) :   0.9686 B(  2-C ,  3-C ) :   1.2312
B(  2-C ,  6-C ) :   1.0383 B(  3-C ,  4-C ) :   1.5739 B(  3-C ,  5-H ) :   0.9962
B(  4-C , 20-C ) :   1.0253 B(  6-C ,  7-H ) :   0.9330 B(  6-C ,  8-H ) :   0.9371
B(  6-C ,  9-C ) :   1.0647 B(  9-C , 10-H ) :   0.9364 B(  9-C , 11-H ) :   0.9553
B(  9-C , 12-C ) :   1.0935 B( 12-C , 13-H ) :   0.9657 B( 12-C , 14-H ) :   0.9715
B( 12-C , 15-H ) :   0.9776 B( 16-S , 17-C ) :   1.1607 B( 16-S , 20-C ) :   1.1538
B( 17-C , 18-C ) :   1.6032 B( 17-C , 20-C ) :   0.1007 B( 17-C , 33-H ) :   0.9726
B( 18-C , 19-C ) :   1.2279 B( 18-C , 21-H ) :   0.9861 B( 19-C , 20-C ) :   1.5806
B( 19-C , 22-C ) :   1.0655 B( 22-C , 23-H ) :   0.9370 B( 22-C , 24-H ) :   0.9371
B( 22-C , 25-C ) :   1.0401 B( 25-C , 26-H ) :   0.9618 B( 25-C , 27-H ) :   0.9536
B( 25-C , 28-C ) :   1.0758 B( 28-C , 29-H ) :   0.9716 B( 28-C , 30-H ) :   0.9719
B( 28-C , 31-H ) :   0.9706

Dispersion correction           -0.015387975
FINAL SINGLE POINT ENERGY     -1339.849405510310

DIPOLE MOMENT
-------------
                                X             Y             Z
Electronic contribution:     -8.06106      15.16911     -20.22447
Nuclear contribution   :      8.25834     -15.64068      20.37883
                        -----------------------------------------
Total Dipole Moment    :      0.19728      -0.47157       0.15436
                        -----------------------------------------
Magnitude (a.u.)       :      0.53397
Magnitude (Debye)      :      1.35725

Rotational constants in cm-1:     0.020010     0.009248     0.007335
Rotational constants in MHz :   599.869985   277.250589   219.902379

                             ****ORCA TERMINATED NORMALLY****
TOTAL RUN TIME: 0 days 0 hours 0 minutes 22 seconds 522 msec
