                         Program Version 4.2.1 -  RELEASE  -
|  1> ! wB97X-D3 SP def2-SVP
|  2> %pal
|  3> nprocs 24
|  4> end
|  5>
|  6> * xyz 0 1
|  7> S 	 -102.111 	 -4.36535 	 -108.667
|  8> C 	 -103.752 	 -4.80401 	 -108.066
|  9> C 	 -103.728 	 -5.28028 	 -106.797
| 10> C 	 -102.457 	 -5.3172 	 -106.219
| 11> C 	 -101.522 	 -4.6528 	 -107.027
| 12> H 	 -102.138 	 -5.6677 	 -105.248
| 13> C 	 -104.973 	 -5.7069 	 -106.084
| 14> H 	 -105.548 	 -6.19244 	 -106.881
| 15> H 	 -105.633 	 -4.89787 	 -105.851
| 16> C 	 -104.935 	 -6.54882 	 -104.701
| 17> H 	 -104.276 	 -7.4259 	 -104.902
| 18> H 	 -104.578 	 -5.99158 	 -103.866
| 19> C 	 -106.378 	 -6.9619 	 -104.295
| 20> H 	 -107.122 	 -6.2127 	 -104.509
| 21> H 	 -106.681 	 -7.80197 	 -104.875
| 22> H 	 -106.536 	 -7.11248 	 -103.229
| 23> S 	 -98.935 	 -5.26673 	 -107.741
| 24> C 	 -97.6046 	 -4.2954 	 -107.073
| 25> C 	 -97.9614 	 -3.78748 	 -105.844
| 26> C 	 -99.41 	 -3.73367 	 -105.637
| 27> C 	 -100.115 	 -4.43458 	 -106.665
| 28> H 	 -97.1995 	 -3.43856 	 -105.16
| 29> C 	 -99.9915 	 -2.93961 	 -104.495
| 30> H 	 -101.013 	 -3.36128 	 -104.378
| 31> H 	 -99.8994 	 -1.90319 	 -104.732
| 32> C 	 -99.3924 	 -3.20021 	 -103.164
| 33> H 	 -99.8842 	 -2.53809 	 -102.42
| 34> H 	 -98.2319 	 -3.05219 	 -103.12
| 35> C 	 -99.5844 	 -4.61917 	 -102.574
| 36> H 	 -100.638 	 -4.71595 	 -102.269
| 37> H 	 -98.8815 	 -4.72927 	 -101.744
| 38> H 	 -99.2689 	 -5.3837 	 -103.275
| 39> H 	 -104.683 	 -4.75815 	 -108.64
| 40> H 	 -96.565 	 -4.30014 	 -107.473
| 41> *
| 42>
| 43>                          ****END OF INPUT****

CARTESIAN COORDINATES (ANGSTROEM)
---------------------------------
  S    -102.111000   -4.365350  -108.667000
  C    -103.752000   -4.804010  -108.066000
  C    -103.728000   -5.280280  -106.797000
  C    -102.457000   -5.317200  -106.219000
  C    -101.522000   -4.652800  -107.027000
  H    -102.138000   -5.667700  -105.248000
  C    -104.973000   -5.706900  -106.084000
  H    -105.548000   -6.192440  -106.881000
  H    -105.633000   -4.897870  -105.851000
  C    -104.935000   -6.548820  -104.701000
  H    -104.276000   -7.425900  -104.902000
  H    -104.578000   -5.991580  -103.866000
  C    -106.378000   -6.961900  -104.295000
  H    -107.122000   -6.212700  -104.509000
  H    -106.681000   -7.801970  -104.875000
  H    -106.536000   -7.112480  -103.229000
  S    -98.935000   -5.266730  -107.741000
  C    -97.604600   -4.295400  -107.073000
  C    -97.961400   -3.787480  -105.844000
  C    -99.410000   -3.733670  -105.637000
  C    -100.115000   -4.434580  -106.665000
  H    -97.199500   -3.438560  -105.160000
  C    -99.991500   -2.939610  -104.495000
  H    -101.013000   -3.361280  -104.378000
  H    -99.899400   -1.903190  -104.732000
  C    -99.392400   -3.200210  -103.164000
  H    -99.884200   -2.538090  -102.420000
  H    -98.231900   -3.052190  -103.120000
  C    -99.584400   -4.619170  -102.574000
  H    -100.638000   -4.715950  -102.269000
  H    -98.881500   -4.729270  -101.744000
  H    -99.268900   -5.383700  -103.275000
  H    -104.683000   -4.758150  -108.640000
  H    -96.565000   -4.300140  -107.473000

 Total Charge           Charge          ....    0
 Multiplicity           Mult            ....    1
 Number of Electrons    NEL             ....  134
 Basis Dimension        Dim             ....  322

ORBITAL ENERGIES
----------------

  NO   OCC          E(Eh)            E(eV)
   0   2.0000     -88.970068     -2420.9986
   1   2.0000     -88.959679     -2420.7159
   2   2.0000     -10.332484      -281.1612
   3   2.0000     -10.332338      -281.1572
   4   2.0000     -10.321316      -280.8573
   5   2.0000     -10.313155      -280.6352
   6   2.0000     -10.311693      -280.5954
   7   2.0000     -10.298658      -280.2407
   8   2.0000     -10.296932      -280.1938
   9   2.0000     -10.296027      -280.1692
  10   2.0000     -10.294432      -280.1257
  11   2.0000     -10.293722      -280.1064
  12   2.0000     -10.293562      -280.1021
  13   2.0000     -10.289225      -279.9841
  14   2.0000     -10.277942      -279.6770
  15   2.0000     -10.277902      -279.6759
  16   2.0000      -8.083445      -219.9617
  17   2.0000      -8.073590      -219.6936
  18   2.0000      -6.041996      -164.4111
  19   2.0000      -6.038349      -164.3118
  20   2.0000      -6.034019      -164.1940
  21   2.0000      -6.032318      -164.1477
  22   2.0000      -6.028399      -164.0411
  23   2.0000      -6.023984      -163.9210
  24   2.0000      -0.999261       -27.1913
  25   2.0000      -0.975509       -26.5450
  26   2.0000      -0.914893       -24.8955
  27   2.0000      -0.904381       -24.6095
  28   2.0000      -0.867150       -23.5963
  29   2.0000      -0.847951       -23.0739
  30   2.0000      -0.839620       -22.8472
  31   2.0000      -0.814515       -22.1641
  32   2.0000      -0.783052       -21.3079
  33   2.0000      -0.770416       -20.9641
  34   2.0000      -0.715767       -19.4770
  35   2.0000      -0.695547       -18.9268
  36   2.0000      -0.684406       -18.6236
  37   2.0000      -0.649443       -17.6722
  38   2.0000      -0.639126       -17.3915
  39   2.0000      -0.617810       -16.8115
  40   2.0000      -0.593276       -16.1439
  41   2.0000      -0.570129       -15.5140
  42   2.0000      -0.567998       -15.4560
  43   2.0000      -0.560156       -15.2426
  44   2.0000      -0.542144       -14.7525
  45   2.0000      -0.523908       -14.2563
  46   2.0000      -0.517955       -14.0943
  47   2.0000      -0.504619       -13.7314
  48   2.0000      -0.503763       -13.7081
  49   2.0000      -0.491169       -13.3654
  50   2.0000      -0.485871       -13.2212
  51   2.0000      -0.479594       -13.0504
  52   2.0000      -0.471932       -12.8419
  53   2.0000      -0.466361       -12.6903
  54   2.0000      -0.453300       -12.3349
  55   2.0000      -0.452314       -12.3081
  56   2.0000      -0.444443       -12.0939
  57   2.0000      -0.439140       -11.9496
  58   2.0000      -0.435083       -11.8392
  59   2.0000      -0.431250       -11.7349
  60   2.0000      -0.416605       -11.3364
  61   2.0000      -0.411892       -11.2082
  62   2.0000      -0.408091       -11.1047
  63   2.0000      -0.336844        -9.1660
  64   2.0000      -0.328641        -8.9428
  65   2.0000      -0.322534        -8.7766
  66   2.0000      -0.291860        -7.9419
  67   0.0000       0.021919         0.5964
  68   0.0000       0.062011         1.6874
  69   0.0000       0.095756         2.6057
  70   0.0000       0.113973         3.1014
  71   0.0000       0.128698         3.5020

MULLIKEN ATOMIC CHARGES
-----------------------
   0 S :    0.122686
   1 C :   -0.138127
   2 C :   -0.017949
   3 C :    0.028024
   4 C :   -0.160011
   5 H :    0.015682
   6 C :    0.015576
   7 H :    0.023281
   8 H :    0.030669
   9 C :   -0.071865
  10 H :    0.048130
  11 H :    0.034585
  12 C :   -0.037603
  13 H :    0.017394
  14 H :    0.029656
  15 H :    0.034025
  16 S :    0.080174
  17 C :   -0.106207
  18 C :   -0.040974
  19 C :   -0.063408
  20 C :   -0.175822
  21 H :    0.025184
  22 C :    0.153265
  23 H :    0.018888
  24 H :    0.045769
  25 C :   -0.159953
  26 H :    0.039594
  27 H :    0.036629
  28 C :   -0.056928
  29 H :    0.036852
  30 H :    0.034476
  31 H :    0.040441
  32 H :    0.044185
  33 H :    0.073680
Sum of atomic charges:    0.0000000

LOEWDIN ATOMIC CHARGES
----------------------
   0 S :    0.389085
   1 C :   -0.185342
   2 C :   -0.068019
   3 C :   -0.054685
   4 C :   -0.188570
   5 H :    0.032459
   6 C :   -0.037554
   7 H :    0.033920
   8 H :    0.029627
   9 C :   -0.033720
  10 H :    0.029167
  11 H :    0.020260
  12 C :   -0.064150
  13 H :    0.023140
  14 H :    0.023322
  15 H :    0.027985
  16 S :    0.360828
  17 C :   -0.175532
  18 C :   -0.075229
  19 C :   -0.050690
  20 C :   -0.186435
  21 H :    0.030180
  22 C :   -0.034905
  23 H :    0.037898
  24 H :    0.036384
  25 C :   -0.051746
  26 H :    0.029522
  27 H :    0.025695
  28 C :   -0.067918
  29 H :    0.024373
  30 H :    0.028825
  31 H :    0.024003
  32 H :    0.030719
  33 H :    0.037106

  Mayer bond orders larger than 0.100000
B(  0-S ,  1-C ) :   1.1129 B(  0-S ,  4-C ) :   1.1545 B(  1-C ,  2-C ) :   1.6334
B(  1-C ,  4-C ) :   0.1008 B(  1-C , 32-H ) :   0.9681 B(  2-C ,  3-C ) :   1.2350
B(  2-C ,  6-C ) :   0.9986 B(  3-C ,  4-C ) :   1.5571 B(  3-C ,  5-H ) :   0.9934
B(  4-C , 20-C ) :   1.0481 B(  6-C ,  7-H ) :   0.9419 B(  6-C ,  8-H ) :   0.9383
B(  6-C ,  9-C ) :   1.0578 B(  9-C , 10-H ) :   0.9615 B(  9-C , 11-H ) :   0.9567
B(  9-C , 12-C ) :   1.0736 B( 12-C , 13-H ) :   0.9733 B( 12-C , 14-H ) :   0.9781
B( 12-C , 15-H ) :   0.9762 B( 16-S , 17-C ) :   1.1334 B( 16-S , 20-C ) :   1.1286
B( 17-C , 18-C ) :   1.6425 B( 17-C , 33-H ) :   0.9624 B( 18-C , 19-C ) :   1.1941
B( 18-C , 21-H ) :   0.9874 B( 19-C , 20-C ) :   1.6061 B( 19-C , 22-C ) :   1.0386
B( 22-C , 23-H ) :   0.9252 B( 22-C , 24-H ) :   0.9279 B( 22-C , 25-C ) :   1.0776
B( 25-C , 26-H ) :   0.9548 B( 25-C , 27-H ) :   0.9516 B( 25-C , 28-C ) :   1.0750
B( 28-C , 29-H ) :   0.9741 B( 28-C , 30-H ) :   0.9746 B( 28-C , 31-H ) :   0.9741

Dispersion correction           -0.013926366
FINAL SINGLE POINT ENERGY     -1339.849318779497

DIPOLE MOMENT
-------------
                                X             Y             Z
Electronic contribution:     13.57341       3.39859     -26.74059
Nuclear contribution   :    -13.86798      -3.35462      27.43265
                        -----------------------------------------
Total Dipole Moment    :     -0.29456       0.04397       0.69206
                        -----------------------------------------
Magnitude (a.u.)       :      0.75342
Magnitude (Debye)      :      1.91504

Rotational constants in cm-1:     0.017606     0.008669     0.006406
Rotational constants in MHz :   527.823859   259.878166   192.042577

                             ****ORCA TERMINATED NORMALLY****
TOTAL RUN TIME: 0 days 0 hours 0 minutes 21 seconds 315 msec
