                         Program Version 4.2.1 -  RELEASE  -
|  1> ! wB97X-D3 SP def2-SVP
|  2> %pal
|  3> nprocs 24
|  4> end
|  5>
|  6> * xyz 0 1
|  7> S 	 -70.1046 	 16.9451 	 -71.5115
|  8> C 	 -69.5129 	 15.507 	 -70.7957
|  9> C 	 -68.9069 	 15.7182 	 -69.5683
| 10> C 	 -68.8811 	 17.1141 	 -69.218
| 11> C 	 -69.4969 	 17.9498 	 -70.191
| 12> H 	 -68.3999 	 17.6068 	 -68.3958
| 13> C 	 -68.1371 	 14.6788 	 -68.6697
| 14> H 	 -68.6737 	 13.7504 	 -68.6351
| 15> H 	 -68.1603 	 15.008 	 -67.6297
| 16> C 	 -66.6981 	 14.3382 	 -69.0686
| 17> H 	 -66.7103 	 13.9586 	 -70.0921
| 18> H 	 -66.2058 	 15.2749 	 -69.0928
| 19> C 	 -65.9642 	 13.3266 	 -68.1745
| 20> H 	 -66.5745 	 12.4073 	 -68.2539
| 21> H 	 -64.956 	 13.1264 	 -68.4881
| 22> H 	 -65.9685 	 13.5164 	 -67.1002
| 23> S 	 -68.9609 	 20.2194 	 -71.8648
| 24> C 	 -69.3925 	 21.7278 	 -71.2502
| 25> C 	 -70.0262 	 21.6864 	 -70.0411
| 26> C 	 -70.0064 	 20.3805 	 -69.5061
| 27> C 	 -69.4664 	 19.3835 	 -70.3231
| 28> H 	 -70.3599 	 22.6202 	 -69.5934
| 29> C 	 -70.6712 	 20.0323 	 -68.2343
| 30> H 	 -70.412 	 19.0632 	 -67.9157
| 31> H 	 -71.8098 	 20.0416 	 -68.3446
| 32> C 	 -70.3485 	 20.8696 	 -67.0232
| 33> H 	 -71.0329 	 20.6313 	 -66.1877
| 34> H 	 -70.4347 	 21.9262 	 -67.2778
| 35> C 	 -68.9268 	 20.6539 	 -66.4726
| 36> H 	 -68.0626 	 20.7447 	 -67.1269
| 37> H 	 -68.9197 	 19.6059 	 -66.0658
| 38> H 	 -68.7874 	 21.2358 	 -65.6083
| 39> H 	 -69.4772 	 14.598 	 -71.3936
| 40> H 	 -69.3723 	 22.6824 	 -71.8207
| 41> *
| 42>
| 43>                          ****END OF INPUT****

CARTESIAN COORDINATES (ANGSTROEM)
---------------------------------
  S    -70.104600   16.945100  -71.511500
  C    -69.512900   15.507000  -70.795700
  C    -68.906900   15.718200  -69.568300
  C    -68.881100   17.114100  -69.218000
  C    -69.496900   17.949800  -70.191000
  H    -68.399900   17.606800  -68.395800
  C    -68.137100   14.678800  -68.669700
  H    -68.673700   13.750400  -68.635100
  H    -68.160300   15.008000  -67.629700
  C    -66.698100   14.338200  -69.068600
  H    -66.710300   13.958600  -70.092100
  H    -66.205800   15.274900  -69.092800
  C    -65.964200   13.326600  -68.174500
  H    -66.574500   12.407300  -68.253900
  H    -64.956000   13.126400  -68.488100
  H    -65.968500   13.516400  -67.100200
  S    -68.960900   20.219400  -71.864800
  C    -69.392500   21.727800  -71.250200
  C    -70.026200   21.686400  -70.041100
  C    -70.006400   20.380500  -69.506100
  C    -69.466400   19.383500  -70.323100
  H    -70.359900   22.620200  -69.593400
  C    -70.671200   20.032300  -68.234300
  H    -70.412000   19.063200  -67.915700
  H    -71.809800   20.041600  -68.344600
  C    -70.348500   20.869600  -67.023200
  H    -71.032900   20.631300  -66.187700
  H    -70.434700   21.926200  -67.277800
  C    -68.926800   20.653900  -66.472600
  H    -68.062600   20.744700  -67.126900
  H    -68.919700   19.605900  -66.065800
  H    -68.787400   21.235800  -65.608300
  H    -69.477200   14.598000  -71.393600
  H    -69.372300   22.682400  -71.820700

 Total Charge           Charge          ....    0
 Multiplicity           Mult            ....    1
 Number of Electrons    NEL             ....  134
 Basis Dimension        Dim             ....  322

ORBITAL ENERGIES
----------------

  NO   OCC          E(Eh)            E(eV)
   0   2.0000     -88.966792     -2420.9095
   1   2.0000     -88.966077     -2420.8900
   2   2.0000     -10.332743      -281.1682
   3   2.0000     -10.329354      -281.0760
   4   2.0000     -10.317365      -280.7498
   5   2.0000     -10.315174      -280.6901
   6   2.0000     -10.309380      -280.5325
   7   2.0000     -10.302492      -280.3450
   8   2.0000     -10.299644      -280.2675
   9   2.0000     -10.293218      -280.0927
  10   2.0000     -10.290790      -280.0266
  11   2.0000     -10.285022      -279.8697
  12   2.0000     -10.282494      -279.8009
  13   2.0000     -10.282471      -279.8003
  14   2.0000     -10.280276      -279.7405
  15   2.0000     -10.273769      -279.5635
  16   2.0000      -8.081979      -219.9218
  17   2.0000      -8.081010      -219.8955
  18   2.0000      -6.040370      -164.3668
  19   2.0000      -6.039450      -164.3418
  20   2.0000      -6.036308      -164.2563
  21   2.0000      -6.035457      -164.2331
  22   2.0000      -6.032949      -164.1649
  23   2.0000      -6.031846      -164.1349
  24   2.0000      -1.006511       -27.3886
  25   2.0000      -0.986279       -26.8380
  26   2.0000      -0.915496       -24.9119
  27   2.0000      -0.907624       -24.6977
  28   2.0000      -0.872371       -23.7384
  29   2.0000      -0.851717       -23.1764
  30   2.0000      -0.846239       -23.0273
  31   2.0000      -0.812119       -22.0989
  32   2.0000      -0.785698       -21.3799
  33   2.0000      -0.773049       -21.0357
  34   2.0000      -0.705989       -19.2109
  35   2.0000      -0.700490       -19.0613
  36   2.0000      -0.694492       -18.8981
  37   2.0000      -0.654511       -17.8101
  38   2.0000      -0.643527       -17.5113
  39   2.0000      -0.618505       -16.8304
  40   2.0000      -0.602796       -16.4029
  41   2.0000      -0.569624       -15.5003
  42   2.0000      -0.563232       -15.3263
  43   2.0000      -0.553028       -15.0487
  44   2.0000      -0.541646       -14.7389
  45   2.0000      -0.524087       -14.2611
  46   2.0000      -0.514113       -13.9897
  47   2.0000      -0.510743       -13.8980
  48   2.0000      -0.506000       -13.7690
  49   2.0000      -0.501220       -13.6389
  50   2.0000      -0.493256       -13.4222
  51   2.0000      -0.481074       -13.0907
  52   2.0000      -0.468574       -12.7505
  53   2.0000      -0.461771       -12.5654
  54   2.0000      -0.459196       -12.4953
  55   2.0000      -0.452880       -12.3235
  56   2.0000      -0.445622       -12.1260
  57   2.0000      -0.437433       -11.9032
  58   2.0000      -0.434060       -11.8114
  59   2.0000      -0.424162       -11.5420
  60   2.0000      -0.419298       -11.4097
  61   2.0000      -0.415240       -11.2993
  62   2.0000      -0.411868       -11.2075
  63   2.0000      -0.347028        -9.4431
  64   2.0000      -0.334286        -9.0964
  65   2.0000      -0.330210        -8.9855
  66   2.0000      -0.290023        -7.8919
  67   0.0000       0.024413         0.6643
  68   0.0000       0.065225         1.7749
  69   0.0000       0.113237         3.0813
  70   0.0000       0.123465         3.3597
  71   0.0000       0.129426         3.5218

MULLIKEN ATOMIC CHARGES
-----------------------
   0 S :    0.115305
   1 C :   -0.135013
   2 C :   -0.064931
   3 C :    0.047310
   4 C :   -0.196564
   5 H :    0.010002
   6 C :    0.056176
   7 H :    0.012033
   8 H :    0.018733
   9 C :   -0.047499
  10 H :    0.024968
  11 H :    0.017844
  12 C :   -0.041618
  13 H :    0.023278
  14 H :    0.041161
  15 H :    0.029358
  16 S :    0.109673
  17 C :   -0.091721
  18 C :   -0.046046
  19 C :   -0.028933
  20 C :   -0.143818
  21 H :    0.025152
  22 C :    0.098364
  23 H :   -0.012046
  24 H :    0.050737
  25 C :   -0.089797
  26 H :    0.034900
  27 H :    0.022843
  28 C :   -0.056943
  29 H :    0.046514
  30 H :    0.018557
  31 H :    0.022469
  32 H :    0.059508
  33 H :    0.070044
Sum of atomic charges:   -0.0000000

LOEWDIN ATOMIC CHARGES
----------------------
   0 S :    0.421192
   1 C :   -0.208090
   2 C :   -0.061960
   3 C :   -0.055252
   4 C :   -0.191613
   5 H :    0.028541
   6 C :   -0.028446
   7 H :    0.022637
   8 H :    0.028428
   9 C :   -0.038735
  10 H :    0.025347
  11 H :    0.016553
  12 C :   -0.065271
  13 H :    0.027892
  14 H :    0.026964
  15 H :    0.024427
  16 S :    0.403532
  17 C :   -0.196921
  18 C :   -0.083016
  19 C :   -0.047336
  20 C :   -0.192623
  21 H :    0.035319
  22 C :   -0.035772
  23 H :    0.018573
  24 H :    0.045363
  25 C :   -0.040189
  26 H :    0.030901
  27 H :    0.015745
  28 C :   -0.068093
  29 H :    0.025531
  30 H :    0.026077
  31 H :    0.019370
  32 H :    0.030312
  33 H :    0.040615

  Mayer bond orders larger than 0.100000
B(  0-S ,  1-C ) :   1.1624 B(  0-S ,  4-C ) :   1.1567 B(  1-C ,  2-C ) :   1.5867
B(  1-C , 32-H ) :   0.9687 B(  2-C ,  3-C ) :   1.2592 B(  2-C ,  6-C ) :   1.0191
B(  3-C ,  4-C ) :   1.5433 B(  3-C ,  5-H ) :   0.9913 B(  4-C , 20-C ) :   1.0908
B(  6-C ,  7-H ) :   0.9413 B(  6-C ,  8-H ) :   0.9436 B(  6-C ,  9-C ) :   1.0646
B(  9-C , 10-H ) :   0.9544 B(  9-C , 11-H ) :   0.9558 B(  9-C , 12-C ) :   1.0770
B( 12-C , 13-H ) :   0.9736 B( 12-C , 14-H ) :   0.9746 B( 12-C , 15-H ) :   0.9764
B( 16-S , 17-C ) :   1.1884 B( 16-S , 20-C ) :   1.1083 B( 17-C , 18-C ) :   1.6000
B( 17-C , 33-H ) :   0.9534 B( 18-C , 19-C ) :   1.2447 B( 18-C , 21-H ) :   0.9930
B( 19-C , 20-C ) :   1.5633 B( 19-C , 22-C ) :   1.0663 B( 22-C , 23-H ) :   0.9230
B( 22-C , 24-H ) :   0.9242 B( 22-C , 25-C ) :   1.0737 B( 25-C , 26-H ) :   0.9521
B( 25-C , 27-H ) :   0.9558 B( 25-C , 28-C ) :   1.0789 B( 28-C , 29-H ) :   0.9780
B( 28-C , 30-H ) :   0.9695 B( 28-C , 31-H ) :   0.9728

Dispersion correction           -0.013968512
FINAL SINGLE POINT ENERGY     -1339.882687494190

DIPOLE MOMENT
-------------
                                X             Y             Z
Electronic contribution:     -9.27101       9.06564     -24.63963
Nuclear contribution   :      9.36496      -9.04426      25.08302
                        -----------------------------------------
Total Dipole Moment    :      0.09395       0.02138       0.44339
                        -----------------------------------------
Magnitude (a.u.)       :      0.45374
Magnitude (Debye)      :      1.15331

Rotational constants in cm-1:     0.019329     0.007868     0.006393
Rotational constants in MHz :   579.464292   235.865858   191.649185

                             ****ORCA TERMINATED NORMALLY****
TOTAL RUN TIME: 0 days 0 hours 0 minutes 21 seconds 295 msec
