                         Program Version 4.2.1 -  RELEASE  -
|  1> ! wB97X-D3 SP def2-SVP
|  2> %pal
|  3> nprocs 24
|  4> end
|  5>
|  6> * xyz 0 1
|  7> S 	 -51.9666 	 -51.2703 	 -76.2308
|  8> C 	 -50.5462 	 -52.0227 	 -75.6899
|  9> C 	 -50.7235 	 -53.3392 	 -75.4242
| 10> C 	 -52.0869 	 -53.6986 	 -75.5516
| 11> C 	 -52.8304 	 -52.7809 	 -76.2618
| 12> H 	 -52.3956 	 -54.6962 	 -75.2797
| 13> C 	 -49.7091 	 -54.233 	 -74.7968
| 14> H 	 -48.7885 	 -53.9575 	 -75.3013
| 15> H 	 -49.8033 	 -55.2602 	 -75.0029
| 16> C 	 -49.6338 	 -54.1667 	 -73.2533
| 17> H 	 -49.4028 	 -53.0602 	 -73.046
| 18> H 	 -50.5873 	 -54.3924 	 -72.8437
| 19> C 	 -48.7023 	 -55.1129 	 -72.619
| 20> H 	 -49.0369 	 -56.1526 	 -72.7481
| 21> H 	 -47.6492 	 -54.9743 	 -73.0102
| 22> H 	 -48.6255 	 -54.8619 	 -71.5627
| 23> S 	 -55.5413 	 -52.5983 	 -75.9199
| 24> C 	 -56.6265 	 -52.871 	 -77.2773
| 25> C 	 -55.9514 	 -53.4063 	 -78.3659
| 26> C 	 -54.5242 	 -53.3764 	 -78.1096
| 27> C 	 -54.1532 	 -52.859 	 -76.8458
| 28> H 	 -56.405 	 -53.8617 	 -79.2036
| 29> C 	 -53.5303 	 -53.9785 	 -79.0302
| 30> H 	 -54.0753 	 -54.6948 	 -79.6555
| 31> H 	 -52.8778 	 -54.5491 	 -78.3239
| 32> C 	 -52.813 	 -53.058 	 -80.0314
| 33> H 	 -52.1788 	 -53.6351 	 -80.7111
| 34> H 	 -52.1562 	 -52.4517 	 -79.3735
| 35> C 	 -53.6706 	 -52.0849 	 -80.8235
| 36> H 	 -53.0861 	 -51.4568 	 -81.4222
| 37> H 	 -54.2624 	 -51.3388 	 -80.2159
| 38> H 	 -54.3476 	 -52.6637 	 -81.5063
| 39> H 	 -49.5962 	 -51.5948 	 -75.6572
| 40> H 	 -57.682 	 -52.9493 	 -77.1974
| 41> *
| 42>
| 43>                          ****END OF INPUT****

CARTESIAN COORDINATES (ANGSTROEM)
---------------------------------
  S    -51.966600  -51.270300  -76.230800
  C    -50.546200  -52.022700  -75.689900
  C    -50.723500  -53.339200  -75.424200
  C    -52.086900  -53.698600  -75.551600
  C    -52.830400  -52.780900  -76.261800
  H    -52.395600  -54.696200  -75.279700
  C    -49.709100  -54.233000  -74.796800
  H    -48.788500  -53.957500  -75.301300
  H    -49.803300  -55.260200  -75.002900
  C    -49.633800  -54.166700  -73.253300
  H    -49.402800  -53.060200  -73.046000
  H    -50.587300  -54.392400  -72.843700
  C    -48.702300  -55.112900  -72.619000
  H    -49.036900  -56.152600  -72.748100
  H    -47.649200  -54.974300  -73.010200
  H    -48.625500  -54.861900  -71.562700
  S    -55.541300  -52.598300  -75.919900
  C    -56.626500  -52.871000  -77.277300
  C    -55.951400  -53.406300  -78.365900
  C    -54.524200  -53.376400  -78.109600
  C    -54.153200  -52.859000  -76.845800
  H    -56.405000  -53.861700  -79.203600
  C    -53.530300  -53.978500  -79.030200
  H    -54.075300  -54.694800  -79.655500
  H    -52.877800  -54.549100  -78.323900
  C    -52.813000  -53.058000  -80.031400
  H    -52.178800  -53.635100  -80.711100
  H    -52.156200  -52.451700  -79.373500
  C    -53.670600  -52.084900  -80.823500
  H    -53.086100  -51.456800  -81.422200
  H    -54.262400  -51.338800  -80.215900
  H    -54.347600  -52.663700  -81.506300
  H    -49.596200  -51.594800  -75.657200
  H    -57.682000  -52.949300  -77.197400

 Total Charge           Charge          ....    0
 Multiplicity           Mult            ....    1
 Number of Electrons    NEL             ....  134
 Basis Dimension        Dim             ....  322

ORBITAL ENERGIES
----------------

  NO   OCC          E(Eh)            E(eV)
   0   2.0000     -88.965276     -2420.8682
   1   2.0000     -88.964371     -2420.8436
   2   2.0000     -10.327707      -281.0312
   3   2.0000     -10.319426      -280.8059
   4   2.0000     -10.315684      -280.7040
   5   2.0000     -10.303418      -280.3702
   6   2.0000     -10.300339      -280.2865
   7   2.0000     -10.294386      -280.1245
   8   2.0000     -10.292881      -280.0835
   9   2.0000     -10.291513      -280.0463
  10   2.0000     -10.285965      -279.8953
  11   2.0000     -10.284975      -279.8684
  12   2.0000     -10.284461      -279.8544
  13   2.0000     -10.282584      -279.8033
  14   2.0000     -10.281796      -279.7819
  15   2.0000     -10.274498      -279.5833
  16   2.0000      -8.080719      -219.8875
  17   2.0000      -8.080326      -219.8769
  18   2.0000      -6.039166      -164.3341
  19   2.0000      -6.038657      -164.3202
  20   2.0000      -6.035062      -164.2224
  21   2.0000      -6.034684      -164.2121
  22   2.0000      -6.031566      -164.1272
  23   2.0000      -6.031153      -164.1160
  24   2.0000      -1.015469       -27.6323
  25   2.0000      -0.991556       -26.9816
  26   2.0000      -0.919040       -25.0083
  27   2.0000      -0.905733       -24.6462
  28   2.0000      -0.876052       -23.8386
  29   2.0000      -0.855768       -23.2866
  30   2.0000      -0.845315       -23.0022
  31   2.0000      -0.821140       -22.3444
  32   2.0000      -0.784779       -21.3549
  33   2.0000      -0.768086       -20.9007
  34   2.0000      -0.709342       -19.3022
  35   2.0000      -0.694950       -18.9105
  36   2.0000      -0.685921       -18.6648
  37   2.0000      -0.666231       -18.1291
  38   2.0000      -0.647024       -17.6064
  39   2.0000      -0.624879       -17.0038
  40   2.0000      -0.584968       -15.9178
  41   2.0000      -0.580844       -15.8056
  42   2.0000      -0.566929       -15.4269
  43   2.0000      -0.552920       -15.0457
  44   2.0000      -0.544861       -14.8264
  45   2.0000      -0.527638       -14.3578
  46   2.0000      -0.523402       -14.2425
  47   2.0000      -0.510796       -13.8995
  48   2.0000      -0.505365       -13.7517
  49   2.0000      -0.505018       -13.7422
  50   2.0000      -0.484026       -13.1710
  51   2.0000      -0.482222       -13.1219
  52   2.0000      -0.472612       -12.8604
  53   2.0000      -0.467352       -12.7173
  54   2.0000      -0.460846       -12.5403
  55   2.0000      -0.451495       -12.2858
  56   2.0000      -0.441603       -12.0166
  57   2.0000      -0.437266       -11.8986
  58   2.0000      -0.430662       -11.7189
  59   2.0000      -0.427877       -11.6431
  60   2.0000      -0.416022       -11.3205
  61   2.0000      -0.413741       -11.2585
  62   2.0000      -0.399871       -10.8810
  63   2.0000      -0.335692        -9.1346
  64   2.0000      -0.330787        -9.0012
  65   2.0000      -0.317459        -8.6385
  66   2.0000      -0.307002        -8.3539
  67   0.0000       0.046415         1.2630
  68   0.0000       0.049263         1.3405
  69   0.0000       0.107754         2.9321
  70   0.0000       0.121904         3.3172
  71   0.0000       0.131504         3.5784

MULLIKEN ATOMIC CHARGES
-----------------------
   0 S :    0.128863
   1 C :   -0.081881
   2 C :   -0.114405
   3 C :    0.069493
   4 C :   -0.190477
   5 H :    0.005322
   6 C :    0.084900
   7 H :    0.014586
   8 H :   -0.005659
   9 C :   -0.075450
  10 H :    0.030510
  11 H :    0.017329
  12 C :   -0.038171
  13 H :    0.039105
  14 H :    0.031277
  15 H :    0.039003
  16 S :    0.124789
  17 C :   -0.077768
  18 C :   -0.012545
  19 C :   -0.076946
  20 C :   -0.151352
  21 H :    0.010685
  22 C :    0.073037
  23 H :    0.005873
  24 H :    0.040148
  25 C :   -0.053979
  26 H :    0.031525
  27 H :    0.021365
  28 C :   -0.048937
  29 H :    0.019390
  30 H :    0.046943
  31 H :    0.025063
  32 H :    0.019949
  33 H :    0.048417
Sum of atomic charges:   -0.0000000

LOEWDIN ATOMIC CHARGES
----------------------
   0 S :    0.438311
   1 C :   -0.198407
   2 C :   -0.069680
   3 C :   -0.050416
   4 C :   -0.201425
   5 H :    0.028009
   6 C :   -0.032040
   7 H :    0.029838
   8 H :    0.018562
   9 C :   -0.041654
  10 H :    0.029493
  11 H :    0.019834
  12 C :   -0.068952
  13 H :    0.027841
  14 H :    0.029197
  15 H :    0.031089
  16 S :    0.438407
  17 C :   -0.181265
  18 C :   -0.060537
  19 C :   -0.049638
  20 C :   -0.241906
  21 H :    0.027225
  22 C :   -0.041443
  23 H :    0.024750
  24 H :    0.039219
  25 C :   -0.040434
  26 H :    0.024763
  27 H :    0.022356
  28 C :   -0.068136
  29 H :    0.018455
  30 H :    0.034731
  31 H :    0.024345
  32 H :    0.017314
  33 H :    0.022193

  Mayer bond orders larger than 0.100000
B(  0-S ,  1-C ) :   1.1571 B(  0-S ,  4-C ) :   1.1623 B(  1-C ,  2-C ) :   1.6034
B(  1-C , 32-H ) :   0.9710 B(  2-C ,  3-C ) :   1.2590 B(  2-C ,  6-C ) :   1.0446
B(  3-C ,  4-C ) :   1.5676 B(  3-C ,  5-H ) :   0.9943 B(  4-C , 20-C ) :   1.0107
B(  6-C ,  7-H ) :   0.9318 B(  6-C ,  8-H ) :   0.9330 B(  6-C ,  9-C ) :   1.0596
B(  9-C , 10-H ) :   0.9531 B(  9-C , 11-H ) :   0.9516 B(  9-C , 12-C ) :   1.0955
B( 12-C , 13-H ) :   0.9688 B( 12-C , 14-H ) :   0.9716 B( 12-C , 15-H ) :   0.9689
B( 16-S , 17-C ) :   1.1753 B( 16-S , 20-C ) :   1.1671 B( 17-C , 18-C ) :   1.5718
B( 17-C , 33-H ) :   0.9685 B( 18-C , 19-C ) :   1.2773 B( 18-C , 21-H ) :   0.9946
B( 19-C , 20-C ) :   1.5509 B( 19-C , 22-C ) :   1.0438 B( 22-C , 23-H ) :   0.9305
B( 22-C , 24-H ) :   0.9306 B( 22-C , 25-C ) :   1.0653 B( 25-C , 26-H ) :   0.9567
B( 25-C , 27-H ) :   0.9507 B( 25-C , 28-C ) :   1.0884 B( 28-C , 29-H ) :   0.9714
B( 28-C , 30-H ) :   0.9672 B( 28-C , 31-H ) :   0.9743

Dispersion correction           -0.014879922
FINAL SINGLE POINT ENERGY     -1339.870287699201

DIPOLE MOMENT
-------------
                                X             Y             Z
Electronic contribution:    -16.07018      11.00406       3.73660
Nuclear contribution   :     16.36388     -11.55251      -3.77351
                        -----------------------------------------
Total Dipole Moment    :      0.29370      -0.54845      -0.03690
                        -----------------------------------------
Magnitude (a.u.)       :      0.62323
Magnitude (Debye)      :      1.58414

Rotational constants in cm-1:     0.022936     0.007559     0.006738
Rotational constants in MHz :   687.616774   226.620378   202.014452

                             ****ORCA TERMINATED NORMALLY****
TOTAL RUN TIME: 0 days 0 hours 0 minutes 22 seconds 11 msec
