                         Program Version 4.2.1 -  RELEASE  -
|  1> ! wB97X-D3 SP def2-SVP
|  2> %pal
|  3> nprocs 24
|  4> end
|  5>
|  6> * xyz 0 1
|  7> S 	 -41.6613 	 -47.3705 	 -78.13
|  8> C 	 -41.1512 	 -48.511 	 -79.3359
|  9> C 	 -40.2615 	 -48.0139 	 -80.2874
| 10> C 	 -40.1499 	 -46.5837 	 -80.0519
| 11> C 	 -40.9831 	 -46.0979 	 -79.079
| 12> H 	 -39.5897 	 -45.8518 	 -80.5921
| 13> C 	 -39.4389 	 -48.733 	 -81.3831
| 14> H 	 -38.4631 	 -48.1796 	 -81.3162
| 15> H 	 -39.7862 	 -48.4263 	 -82.4188
| 16> C 	 -39.1944 	 -50.2828 	 -81.1954
| 17> H 	 -38.8902 	 -50.422 	 -80.1566
| 18> H 	 -40.1579 	 -50.7321 	 -81.401
| 19> C 	 -38.0146 	 -50.8201 	 -82.0757
| 20> H 	 -37.739 	 -51.7991 	 -81.7147
| 21> H 	 -38.346 	 -50.8911 	 -83.1106
| 22> H 	 -37.1298 	 -50.2758 	 -82.0957
| 23> S 	 -40.7147 	 -44.332 	 -77.0063
| 24> C 	 -41.1311 	 -42.6506 	 -77.3102
| 25> C 	 -41.4689 	 -42.3661 	 -78.6441
| 26> C 	 -41.466 	 -43.6049 	 -79.405
| 27> C 	 -41.1008 	 -44.7141 	 -78.6708
| 28> H 	 -41.676 	 -41.4389 	 -79.0352
| 29> C 	 -41.8082 	 -43.512 	 -80.8593
| 30> H 	 -42.0013 	 -44.5088 	 -81.185
| 31> H 	 -40.807 	 -43.2499 	 -81.2658
| 32> C 	 -42.8604 	 -42.4088 	 -81.2863
| 33> H 	 -42.6777 	 -41.4107 	 -80.8973
| 34> H 	 -43.8289 	 -42.6563 	 -80.9574
| 35> C 	 -42.9191 	 -42.2473 	 -82.8308
| 36> H 	 -43.2083 	 -43.1639 	 -83.3981
| 37> H 	 -41.9693 	 -42.0337 	 -83.204
| 38> H 	 -43.6707 	 -41.4326 	 -83.2053
| 39> H 	 -41.6309 	 -49.4712 	 -79.5702
| 40> H 	 -40.9552 	 -41.9238 	 -76.5449
| 41> *
| 42>
| 43>                          ****END OF INPUT****

CARTESIAN COORDINATES (ANGSTROEM)
---------------------------------
  S    -41.661300  -47.370500  -78.130000
  C    -41.151200  -48.511000  -79.335900
  C    -40.261500  -48.013900  -80.287400
  C    -40.149900  -46.583700  -80.051900
  C    -40.983100  -46.097900  -79.079000
  H    -39.589700  -45.851800  -80.592100
  C    -39.438900  -48.733000  -81.383100
  H    -38.463100  -48.179600  -81.316200
  H    -39.786200  -48.426300  -82.418800
  C    -39.194400  -50.282800  -81.195400
  H    -38.890200  -50.422000  -80.156600
  H    -40.157900  -50.732100  -81.401000
  C    -38.014600  -50.820100  -82.075700
  H    -37.739000  -51.799100  -81.714700
  H    -38.346000  -50.891100  -83.110600
  H    -37.129800  -50.275800  -82.095700
  S    -40.714700  -44.332000  -77.006300
  C    -41.131100  -42.650600  -77.310200
  C    -41.468900  -42.366100  -78.644100
  C    -41.466000  -43.604900  -79.405000
  C    -41.100800  -44.714100  -78.670800
  H    -41.676000  -41.438900  -79.035200
  C    -41.808200  -43.512000  -80.859300
  H    -42.001300  -44.508800  -81.185000
  H    -40.807000  -43.249900  -81.265800
  C    -42.860400  -42.408800  -81.286300
  H    -42.677700  -41.410700  -80.897300
  H    -43.828900  -42.656300  -80.957400
  C    -42.919100  -42.247300  -82.830800
  H    -43.208300  -43.163900  -83.398100
  H    -41.969300  -42.033700  -83.204000
  H    -43.670700  -41.432600  -83.205300
  H    -41.630900  -49.471200  -79.570200
  H    -40.955200  -41.923800  -76.544900

 Total Charge           Charge          ....    0
 Multiplicity           Mult            ....    1
 Number of Electrons    NEL             ....  134
 Basis Dimension        Dim             ....  322

ORBITAL ENERGIES
----------------

  NO   OCC          E(Eh)            E(eV)
   0   2.0000     -88.964728     -2420.8533
   1   2.0000     -88.964085     -2420.8358
   2   2.0000     -10.321246      -280.8554
   3   2.0000     -10.319657      -280.8122
   4   2.0000     -10.318555      -280.7822
   5   2.0000     -10.311097      -280.5792
   6   2.0000     -10.307498      -280.4813
   7   2.0000     -10.307377      -280.4780
   8   2.0000     -10.300759      -280.2979
   9   2.0000     -10.296008      -280.1686
  10   2.0000     -10.294521      -280.1282
  11   2.0000     -10.292392      -280.0702
  12   2.0000     -10.291945      -280.0581
  13   2.0000     -10.290179      -280.0100
  14   2.0000     -10.284473      -279.8547
  15   2.0000     -10.277179      -279.6563
  16   2.0000      -8.080242      -219.8746
  17   2.0000      -8.078896      -219.8379
  18   2.0000      -6.038763      -164.3231
  19   2.0000      -6.037410      -164.2863
  20   2.0000      -6.034865      -164.2170
  21   2.0000      -6.033512      -164.1802
  22   2.0000      -6.030719      -164.1042
  23   2.0000      -6.029552      -164.0724
  24   2.0000      -1.007208       -27.4075
  25   2.0000      -0.980478       -26.6802
  26   2.0000      -0.906228       -24.6597
  27   2.0000      -0.902037       -24.5457
  28   2.0000      -0.866133       -23.5687
  29   2.0000      -0.853310       -23.2198
  30   2.0000      -0.846667       -23.0390
  31   2.0000      -0.810552       -22.0562
  32   2.0000      -0.782124       -21.2827
  33   2.0000      -0.767766       -20.8920
  34   2.0000      -0.714107       -19.4318
  35   2.0000      -0.712275       -19.3820
  36   2.0000      -0.689164       -18.7531
  37   2.0000      -0.666328       -18.1317
  38   2.0000      -0.638419       -17.3723
  39   2.0000      -0.606995       -16.5172
  40   2.0000      -0.593080       -16.1385
  41   2.0000      -0.566666       -15.4198
  42   2.0000      -0.564358       -15.3570
  43   2.0000      -0.562740       -15.3129
  44   2.0000      -0.526667       -14.3314
  45   2.0000      -0.523525       -14.2459
  46   2.0000      -0.517587       -14.0843
  47   2.0000      -0.514828       -14.0092
  48   2.0000      -0.497938       -13.5496
  49   2.0000      -0.492776       -13.4091
  50   2.0000      -0.488777       -13.3003
  51   2.0000      -0.480845       -13.0845
  52   2.0000      -0.466879       -12.7044
  53   2.0000      -0.464782       -12.6474
  54   2.0000      -0.456056       -12.4099
  55   2.0000      -0.454081       -12.3562
  56   2.0000      -0.450285       -12.2529
  57   2.0000      -0.435274       -11.8444
  58   2.0000      -0.433301       -11.7907
  59   2.0000      -0.428406       -11.6575
  60   2.0000      -0.427159       -11.6236
  61   2.0000      -0.423457       -11.5229
  62   2.0000      -0.416860       -11.3433
  63   2.0000      -0.343798        -9.3552
  64   2.0000      -0.328402        -8.9363
  65   2.0000      -0.326398        -8.8817
  66   2.0000      -0.286985        -7.8092
  67   0.0000       0.036669         0.9978
  68   0.0000       0.064348         1.7510
  69   0.0000       0.104708         2.8492
  70   0.0000       0.123738         3.3671
  71   0.0000       0.128623         3.5000

MULLIKEN ATOMIC CHARGES
-----------------------
   0 S :    0.121290
   1 C :   -0.129918
   2 C :   -0.084043
   3 C :    0.030620
   4 C :   -0.175940
   5 H :    0.000119
   6 C :    0.008300
   7 H :    0.034867
   8 H :    0.047878
   9 C :   -0.075642
  10 H :    0.041888
  11 H :    0.042477
  12 C :   -0.021253
  13 H :    0.030848
  14 H :    0.030173
  15 H :    0.020141
  16 S :    0.101287
  17 C :   -0.080689
  18 C :    0.005909
  19 C :   -0.058311
  20 C :   -0.157367
  21 H :   -0.015173
  22 C :    0.072954
  23 H :    0.024885
  24 H :    0.041418
  25 C :   -0.043751
  26 H :    0.033161
  27 H :    0.028782
  28 C :   -0.076654
  29 H :    0.032120
  30 H :    0.013567
  31 H :    0.047688
  32 H :    0.057224
  33 H :    0.051147
Sum of atomic charges:   -0.0000000

LOEWDIN ATOMIC CHARGES
----------------------
   0 S :    0.413049
   1 C :   -0.214878
   2 C :   -0.058635
   3 C :   -0.061437
   4 C :   -0.201550
   5 H :    0.025148
   6 C :   -0.042213
   7 H :    0.037341
   8 H :    0.036619
   9 C :   -0.034400
  10 H :    0.028626
  11 H :    0.024685
  12 C :   -0.057662
  13 H :    0.027416
  14 H :    0.026694
  15 H :    0.017102
  16 S :    0.395068
  17 C :   -0.169433
  18 C :   -0.055557
  19 C :   -0.052154
  20 C :   -0.210539
  21 H :    0.015502
  22 C :   -0.028707
  23 H :    0.027389
  24 H :    0.040560
  25 C :   -0.029964
  26 H :    0.024734
  27 H :    0.020712
  28 C :   -0.070988
  29 H :    0.026962
  30 H :    0.011015
  31 H :    0.037324
  32 H :    0.032310
  33 H :    0.019862

  Mayer bond orders larger than 0.100000
B(  0-S ,  1-C ) :   1.1314 B(  0-S ,  4-C ) :   1.1405 B(  1-C ,  2-C ) :   1.6487
B(  1-C , 32-H ) :   0.9554 B(  2-C ,  3-C ) :   1.2111 B(  2-C ,  6-C ) :   1.0018
B(  3-C ,  4-C ) :   1.6061 B(  3-C ,  5-H ) :   0.9951 B(  4-C , 20-C ) :   1.0308
B(  6-C ,  7-H ) :   0.9461 B(  6-C ,  8-H ) :   0.9380 B(  6-C ,  9-C ) :   1.0568
B(  9-C , 10-H ) :   0.9614 B(  9-C , 11-H ) :   0.9563 B(  9-C , 12-C ) :   1.0788
B( 12-C , 13-H ) :   0.9761 B( 12-C , 14-H ) :   0.9766 B( 12-C , 15-H ) :   0.9776
B( 16-S , 17-C ) :   1.1572 B( 16-S , 20-C ) :   1.1228 B( 17-C , 18-C ) :   1.6037
B( 17-C , 33-H ) :   0.9689 B( 18-C , 19-C ) :   1.2207 B( 18-C , 21-H ) :   1.0032
B( 19-C , 20-C ) :   1.6327 B( 19-C , 22-C ) :   1.0407 B( 22-C , 23-H ) :   0.9315
B( 22-C , 24-H ) :   0.9305 B( 22-C , 25-C ) :   1.0504 B( 25-C , 26-H ) :   0.9529
B( 25-C , 27-H ) :   0.9593 B( 25-C , 28-C ) :   1.0782 B( 28-C , 29-H ) :   0.9753
B( 28-C , 30-H ) :   0.9768 B( 28-C , 31-H ) :   0.9754

Dispersion correction           -0.013313797
FINAL SINGLE POINT ENERGY     -1339.860141536894

DIPOLE MOMENT
-------------
                                X             Y             Z
Electronic contribution:     -3.70751       3.43343      27.13999
Nuclear contribution   :      3.92843      -3.32225     -27.88027
                        -----------------------------------------
Total Dipole Moment    :      0.22092       0.11118      -0.74028
                        -----------------------------------------
Magnitude (a.u.)       :      0.78050
Magnitude (Debye)      :      1.98388

Rotational constants in cm-1:     0.019003     0.007196     0.005736
Rotational constants in MHz :   569.702939   215.722671   171.963824

                             ****ORCA TERMINATED NORMALLY****
TOTAL RUN TIME: 0 days 0 hours 0 minutes 20 seconds 726 msec
