                         Program Version 4.2.1 -  RELEASE  -
|  1> ! wB97X-D3 SP def2-SVP
|  2> %pal
|  3> nprocs 24
|  4> end
|  5>
|  6> * xyz 0 1
|  7> S 	 -61.1869 	 10.33 	 22.6486
|  8> C 	 -59.6434 	 10.799 	 22.0646
|  9> C 	 -58.6773 	 10.2273 	 22.8984
| 10> C 	 -59.1551 	 9.42102 	 23.9881
| 11> C 	 -60.5071 	 9.38983 	 23.9946
| 12> H 	 -58.6323 	 8.95721 	 24.8475
| 13> C 	 -57.2016 	 10.3305 	 22.6967
| 14> H 	 -56.7485 	 9.44945 	 23.1079
| 15> H 	 -56.8556 	 11.066 	 23.3813
| 16> C 	 -56.7632 	 10.6008 	 21.2139
| 17> H 	 -57.3408 	 9.89237 	 20.567
| 18> H 	 -56.9746 	 11.6213 	 21.0304
| 19> C 	 -55.2604 	 10.4014 	 21.0842
| 20> H 	 -54.9183 	 10.4852 	 20.0519
| 21> H 	 -54.8389 	 11.2105 	 21.5745
| 22> H 	 -54.8639 	 9.42987 	 21.4833
| 23> S 	 -62.1806 	 9.60988 	 26.0693
| 24> C 	 -62.7851 	 8.22324 	 26.9191
| 25> C 	 -62.1171 	 7.07974 	 26.5049
| 26> C 	 -61.3131 	 7.29415 	 25.3309
| 27> C 	 -61.3327 	 8.62193 	 24.9263
| 28> H 	 -62.2099 	 6.11469 	 26.9457
| 29> C 	 -60.3 	 6.24655 	 24.9028
| 30> H 	 -59.9686 	 5.75763 	 25.7145
| 31> H 	 -59.5045 	 6.80436 	 24.4404
| 32> C 	 -60.9503 	 5.34977 	 23.9259
| 33> H 	 -61.5483 	 5.97543 	 23.267
| 34> H 	 -61.6132 	 4.67434 	 24.464
| 35> C 	 -60.0241 	 4.49863 	 23.0496
| 36> H 	 -59.2317 	 4.0464 	 23.6654
| 37> H 	 -59.5783 	 4.99779 	 22.1916
| 38> H 	 -60.696 	 3.80537 	 22.5694
| 39> H 	 -59.5239 	 11.2851 	 21.1468
| 40> H 	 -63.435 	 8.34461 	 27.8599
| 41> *
| 42>
| 43>                          ****END OF INPUT****

CARTESIAN COORDINATES (ANGSTROEM)
---------------------------------
  S    -61.186900   10.330000   22.648600
  C    -59.643400   10.799000   22.064600
  C    -58.677300   10.227300   22.898400
  C    -59.155100    9.421020   23.988100
  C    -60.507100    9.389830   23.994600
  H    -58.632300    8.957210   24.847500
  C    -57.201600   10.330500   22.696700
  H    -56.748500    9.449450   23.107900
  H    -56.855600   11.066000   23.381300
  C    -56.763200   10.600800   21.213900
  H    -57.340800    9.892370   20.567000
  H    -56.974600   11.621300   21.030400
  C    -55.260400   10.401400   21.084200
  H    -54.918300   10.485200   20.051900
  H    -54.838900   11.210500   21.574500
  H    -54.863900    9.429870   21.483300
  S    -62.180600    9.609880   26.069300
  C    -62.785100    8.223240   26.919100
  C    -62.117100    7.079740   26.504900
  C    -61.313100    7.294150   25.330900
  C    -61.332700    8.621930   24.926300
  H    -62.209900    6.114690   26.945700
  C    -60.300000    6.246550   24.902800
  H    -59.968600    5.757630   25.714500
  H    -59.504500    6.804360   24.440400
  C    -60.950300    5.349770   23.925900
  H    -61.548300    5.975430   23.267000
  H    -61.613200    4.674340   24.464000
  C    -60.024100    4.498630   23.049600
  H    -59.231700    4.046400   23.665400
  H    -59.578300    4.997790   22.191600
  H    -60.696000    3.805370   22.569400
  H    -59.523900   11.285100   21.146800
  H    -63.435000    8.344610   27.859900

 Total Charge           Charge          ....    0
 Multiplicity           Mult            ....    1
 Number of Electrons    NEL             ....  134
 Basis Dimension        Dim             ....  322

ORBITAL ENERGIES
----------------

  NO   OCC          E(Eh)            E(eV)
   0   2.0000     -88.961965     -2420.7781
   1   2.0000     -88.961222     -2420.7579
   2   2.0000     -10.326309      -280.9931
   3   2.0000     -10.322660      -280.8939
   4   2.0000     -10.321685      -280.8673
   5   2.0000     -10.310155      -280.5536
   6   2.0000     -10.301216      -280.3103
   7   2.0000     -10.300669      -280.2955
   8   2.0000     -10.294406      -280.1250
   9   2.0000     -10.293234      -280.0931
  10   2.0000     -10.288693      -279.9696
  11   2.0000     -10.282107      -279.7904
  12   2.0000     -10.276177      -279.6290
  13   2.0000     -10.275238      -279.6034
  14   2.0000     -10.274517      -279.5838
  15   2.0000     -10.272927      -279.5406
  16   2.0000      -8.077522      -219.8005
  17   2.0000      -8.076362      -219.7690
  18   2.0000      -6.035960      -164.2468
  19   2.0000      -6.034839      -164.2163
  20   2.0000      -6.031909      -164.1366
  21   2.0000      -6.030698      -164.1036
  22   2.0000      -6.028303      -164.0385
  23   2.0000      -6.027246      -164.0097
  24   2.0000      -1.009063       -27.4580
  25   2.0000      -0.986479       -26.8435
  26   2.0000      -0.919281       -25.0149
  27   2.0000      -0.911352       -24.7992
  28   2.0000      -0.871523       -23.7153
  29   2.0000      -0.854313       -23.2470
  30   2.0000      -0.848025       -23.0759
  31   2.0000      -0.815248       -22.1840
  32   2.0000      -0.783649       -21.3242
  33   2.0000      -0.765938       -20.8422
  34   2.0000      -0.713039       -19.4028
  35   2.0000      -0.696725       -18.9589
  36   2.0000      -0.685305       -18.6481
  37   2.0000      -0.666584       -18.1387
  38   2.0000      -0.650753       -17.7079
  39   2.0000      -0.608550       -16.5595
  40   2.0000      -0.595452       -16.2031
  41   2.0000      -0.576523       -15.6880
  42   2.0000      -0.574630       -15.6365
  43   2.0000      -0.561572       -15.2811
  44   2.0000      -0.534555       -14.5460
  45   2.0000      -0.528163       -14.3720
  46   2.0000      -0.519237       -14.1292
  47   2.0000      -0.518638       -14.1129
  48   2.0000      -0.500885       -13.6298
  49   2.0000      -0.495283       -13.4773
  50   2.0000      -0.492620       -13.4049
  51   2.0000      -0.488358       -13.2889
  52   2.0000      -0.477765       -13.0007
  53   2.0000      -0.464378       -12.6364
  54   2.0000      -0.458937       -12.4883
  55   2.0000      -0.447514       -12.1775
  56   2.0000      -0.439109       -11.9488
  57   2.0000      -0.437901       -11.9159
  58   2.0000      -0.433949       -11.8083
  59   2.0000      -0.423450       -11.5227
  60   2.0000      -0.421520       -11.4701
  61   2.0000      -0.415061       -11.2944
  62   2.0000      -0.409898       -11.1539
  63   2.0000      -0.345354        -9.3976
  64   2.0000      -0.325863        -8.8672
  65   2.0000      -0.321651        -8.7526
  66   2.0000      -0.299182        -8.1412
  67   0.0000       0.038765         1.0548
  68   0.0000       0.064618         1.7583
  69   0.0000       0.106381         2.8948
  70   0.0000       0.126250         3.4354
  71   0.0000       0.134083         3.6486

MULLIKEN ATOMIC CHARGES
-----------------------
   0 S :    0.108048
   1 C :   -0.107009
   2 C :   -0.103262
   3 C :    0.024252
   4 C :   -0.157509
   5 H :    0.043370
   6 C :    0.078385
   7 H :    0.004732
   8 H :    0.024417
   9 C :   -0.089055
  10 H :    0.044469
  11 H :    0.029981
  12 C :   -0.018838
  13 H :    0.028835
  14 H :    0.013012
  15 H :    0.038347
  16 S :    0.109286
  17 C :   -0.112124
  18 C :   -0.026291
  19 C :   -0.081332
  20 C :   -0.176104
  21 H :    0.010048
  22 C :    0.185862
  23 H :   -0.010042
  24 H :   -0.000788
  25 C :   -0.108475
  26 H :    0.031344
  27 H :    0.019921
  28 C :   -0.020419
  29 H :    0.031499
  30 H :    0.031208
  31 H :    0.025946
  32 H :    0.039472
  33 H :    0.088813
Sum of atomic charges:    0.0000000

LOEWDIN ATOMIC CHARGES
----------------------
   0 S :    0.405738
   1 C :   -0.206300
   2 C :   -0.058076
   3 C :   -0.068727
   4 C :   -0.190818
   5 H :    0.045078
   6 C :   -0.033911
   7 H :    0.023885
   8 H :    0.030071
   9 C :   -0.034116
  10 H :    0.028287
  11 H :    0.020542
  12 C :   -0.061411
  13 H :    0.025838
  14 H :    0.016486
  15 H :    0.029513
  16 S :    0.424931
  17 C :   -0.202327
  18 C :   -0.070722
  19 C :   -0.046535
  20 C :   -0.211839
  21 H :    0.025529
  22 C :   -0.017263
  23 H :    0.012598
  24 H :    0.027151
  25 C :   -0.038843
  26 H :    0.027254
  27 H :    0.021435
  28 C :   -0.065862
  29 H :    0.024760
  30 H :    0.024823
  31 H :    0.026970
  32 H :    0.019841
  33 H :    0.046023

  Mayer bond orders larger than 0.100000
B(  0-S ,  1-C ) :   1.1300 B(  0-S ,  4-C ) :   1.1578 B(  1-C ,  2-C ) :   1.5959
B(  1-C , 32-H ) :   0.9807 B(  2-C ,  3-C ) :   1.2253 B(  2-C ,  6-C ) :   1.0252
B(  3-C ,  4-C ) :   1.6061 B(  3-C ,  5-H ) :   0.9824 B(  4-C , 20-C ) :   0.9892
B(  6-C ,  7-H ) :   0.9429 B(  6-C ,  8-H ) :   0.9197 B(  6-C ,  9-C ) :   1.0650
B(  9-C , 10-H ) :   0.9641 B(  9-C , 11-H ) :   0.9462 B(  9-C , 12-C ) :   1.0898
B( 12-C , 13-H ) :   0.9725 B( 12-C , 14-H ) :   0.9721 B( 12-C , 15-H ) :   0.9768
B( 16-S , 17-C ) :   1.1681 B( 16-S , 20-C ) :   1.1718 B( 17-C , 18-C ) :   1.5750
B( 17-C , 33-H ) :   0.9591 B( 18-C , 19-C ) :   1.2581 B( 18-C , 21-H ) :   0.9922
B( 19-C , 20-C ) :   1.5913 B( 19-C , 22-C ) :   1.0414 B( 22-C , 23-H ) :   0.9226
B( 22-C , 24-H ) :   0.9270 B( 22-C , 25-C ) :   1.0646 B( 25-C , 26-H ) :   0.9571
B( 25-C , 27-H ) :   0.9572 B( 25-C , 28-C ) :   1.0889 B( 28-C , 29-H ) :   0.9721
B( 28-C , 30-H ) :   0.9747 B( 28-C , 31-H ) :   0.9730

Dispersion correction           -0.013821074
FINAL SINGLE POINT ENERGY     -1339.863595178805

DIPOLE MOMENT
-------------
                                X             Y             Z
Electronic contribution:    -22.21976      13.59251      11.56428
Nuclear contribution   :     22.87862     -13.90831     -11.46712
                        -----------------------------------------
Total Dipole Moment    :      0.65886      -0.31580       0.09716
                        -----------------------------------------
Magnitude (a.u.)       :      0.73707
Magnitude (Debye)      :      1.87347

Rotational constants in cm-1:     0.019068     0.008133     0.006503
Rotational constants in MHz :   571.657561   243.818879   194.957640

                             ****ORCA TERMINATED NORMALLY****
TOTAL RUN TIME: 0 days 0 hours 0 minutes 21 seconds 438 msec
