                         Program Version 4.2.1 -  RELEASE  -
|  1> ! wB97X-D3 SP def2-SVP
|  2> %pal
|  3> nprocs 24
|  4> end
|  5>
|  6> * xyz 0 1
|  7> S 	 -86.5293 	 -46.1379 	 -81.9088
|  8> C 	 -88.0519 	 -45.5943 	 -82.4056
|  9> C 	 -89.01 	 -46.0316 	 -81.5136
| 10> C 	 -88.5797 	 -47.0198 	 -80.5623
| 11> C 	 -87.1858 	 -47.2364 	 -80.7114
| 12> H 	 -89.1758 	 -47.6488 	 -79.875
| 13> C 	 -90.5135 	 -45.6717 	 -81.5195
| 14> H 	 -90.5111 	 -44.7412 	 -82.0841
| 15> H 	 -90.7934 	 -45.6627 	 -80.4987
| 16> C 	 -91.279 	 -46.6209 	 -82.4817
| 17> H 	 -90.7841 	 -46.7327 	 -83.4015
| 18> H 	 -91.2007 	 -47.5632 	 -82.0321
| 19> C 	 -92.6922 	 -46.1596 	 -82.667
| 20> H 	 -92.8087 	 -45.1093 	 -82.9129
| 21> H 	 -93.3092 	 -46.7007 	 -83.3497
| 22> H 	 -93.2073 	 -46.3415 	 -81.7305
| 23> S 	 -84.9455 	 -48.8013 	 -80.9221
| 24> C 	 -84.4923 	 -49.9248 	 -79.7251
| 25> C 	 -85.2161 	 -49.6805 	 -78.6001
| 26> C 	 -86.3077 	 -48.7337 	 -78.7123
| 27> C 	 -86.2769 	 -48.1658 	 -79.9689
| 28> H 	 -84.9615 	 -50.2687 	 -77.7302
| 29> C 	 -87.2602 	 -48.4857 	 -77.515
| 30> H 	 -87.8297 	 -49.4165 	 -77.3046
| 31> H 	 -87.9742 	 -47.7466 	 -77.7345
| 32> C 	 -86.6274 	 -48.1363 	 -76.2129
| 33> H 	 -85.7495 	 -48.7542 	 -75.9588
| 34> H 	 -87.3798 	 -48.3655 	 -75.4257
| 35> C 	 -86.3844 	 -46.6481 	 -75.9393
| 36> H 	 -85.7615 	 -46.3309 	 -76.7794
| 37> H 	 -85.7912 	 -46.5022 	 -74.9888
| 38> H 	 -87.3247 	 -46.0764 	 -75.9165
| 39> H 	 -88.1933 	 -44.975 	 -83.2598
| 40> H 	 -83.7081 	 -50.6663 	 -79.8188
| 41> *
| 42>
| 43>                          ****END OF INPUT****

CARTESIAN COORDINATES (ANGSTROEM)
---------------------------------
  S    -86.529300  -46.137900  -81.908800
  C    -88.051900  -45.594300  -82.405600
  C    -89.010000  -46.031600  -81.513600
  C    -88.579700  -47.019800  -80.562300
  C    -87.185800  -47.236400  -80.711400
  H    -89.175800  -47.648800  -79.875000
  C    -90.513500  -45.671700  -81.519500
  H    -90.511100  -44.741200  -82.084100
  H    -90.793400  -45.662700  -80.498700
  C    -91.279000  -46.620900  -82.481700
  H    -90.784100  -46.732700  -83.401500
  H    -91.200700  -47.563200  -82.032100
  C    -92.692200  -46.159600  -82.667000
  H    -92.808700  -45.109300  -82.912900
  H    -93.309200  -46.700700  -83.349700
  H    -93.207300  -46.341500  -81.730500
  S    -84.945500  -48.801300  -80.922100
  C    -84.492300  -49.924800  -79.725100
  C    -85.216100  -49.680500  -78.600100
  C    -86.307700  -48.733700  -78.712300
  C    -86.276900  -48.165800  -79.968900
  H    -84.961500  -50.268700  -77.730200
  C    -87.260200  -48.485700  -77.515000
  H    -87.829700  -49.416500  -77.304600
  H    -87.974200  -47.746600  -77.734500
  C    -86.627400  -48.136300  -76.212900
  H    -85.749500  -48.754200  -75.958800
  H    -87.379800  -48.365500  -75.425700
  C    -86.384400  -46.648100  -75.939300
  H    -85.761500  -46.330900  -76.779400
  H    -85.791200  -46.502200  -74.988800
  H    -87.324700  -46.076400  -75.916500
  H    -88.193300  -44.975000  -83.259800
  H    -83.708100  -50.666300  -79.818800

 Total Charge           Charge          ....    0
 Multiplicity           Mult            ....    1
 Number of Electrons    NEL             ....  134
 Basis Dimension        Dim             ....  322

ORBITAL ENERGIES
----------------

  NO   OCC          E(Eh)            E(eV)
   0   2.0000     -88.964244     -2420.8402
   1   2.0000     -88.961172     -2420.7566
   2   2.0000     -10.335685      -281.2483
   3   2.0000     -10.331705      -281.1400
   4   2.0000     -10.313443      -280.6430
   5   2.0000     -10.309840      -280.5450
   6   2.0000     -10.307689      -280.4865
   7   2.0000     -10.300410      -280.2884
   8   2.0000     -10.299981      -280.2767
   9   2.0000     -10.294379      -280.1243
  10   2.0000     -10.291622      -280.0493
  11   2.0000     -10.287565      -279.9389
  12   2.0000     -10.285632      -279.8863
  13   2.0000     -10.279171      -279.7105
  14   2.0000     -10.274939      -279.5953
  15   2.0000     -10.270037      -279.4619
  16   2.0000      -8.080004      -219.8681
  17   2.0000      -8.077100      -219.7891
  18   2.0000      -6.038422      -164.3138
  19   2.0000      -6.035621      -164.2376
  20   2.0000      -6.034276      -164.2010
  21   2.0000      -6.031391      -164.1225
  22   2.0000      -6.030904      -164.1092
  23   2.0000      -6.027794      -164.0246
  24   2.0000      -1.009554       -27.4714
  25   2.0000      -0.990165       -26.9438
  26   2.0000      -0.915686       -24.9171
  27   2.0000      -0.913471       -24.8568
  28   2.0000      -0.868911       -23.6443
  29   2.0000      -0.853097       -23.2140
  30   2.0000      -0.844464       -22.9790
  31   2.0000      -0.814412       -22.1613
  32   2.0000      -0.785230       -21.3672
  33   2.0000      -0.772026       -21.0079
  34   2.0000      -0.707574       -19.2541
  35   2.0000      -0.699418       -19.0321
  36   2.0000      -0.691947       -18.8288
  37   2.0000      -0.657761       -17.8986
  38   2.0000      -0.641307       -17.4509
  39   2.0000      -0.620878       -16.8949
  40   2.0000      -0.604422       -16.4472
  41   2.0000      -0.574360       -15.6291
  42   2.0000      -0.560596       -15.2546
  43   2.0000      -0.554844       -15.0981
  44   2.0000      -0.538535       -14.6543
  45   2.0000      -0.525332       -14.2950
  46   2.0000      -0.522266       -14.2116
  47   2.0000      -0.511765       -13.9258
  48   2.0000      -0.508918       -13.8484
  49   2.0000      -0.503497       -13.7008
  50   2.0000      -0.494924       -13.4676
  51   2.0000      -0.483495       -13.1566
  52   2.0000      -0.478634       -13.0243
  53   2.0000      -0.468390       -12.7455
  54   2.0000      -0.464153       -12.6302
  55   2.0000      -0.446000       -12.1363
  56   2.0000      -0.444464       -12.0945
  57   2.0000      -0.433168       -11.7871
  58   2.0000      -0.432124       -11.7587
  59   2.0000      -0.423944       -11.5361
  60   2.0000      -0.420940       -11.4544
  61   2.0000      -0.412875       -11.2349
  62   2.0000      -0.400154       -10.8887
  63   2.0000      -0.357186        -9.7195
  64   2.0000      -0.329327        -8.9614
  65   2.0000      -0.326711        -8.8903
  66   2.0000      -0.287583        -7.8255
  67   0.0000       0.027120         0.7380
  68   0.0000       0.082533         2.2458
  69   0.0000       0.108431         2.9505
  70   0.0000       0.123854         3.3702
  71   0.0000       0.137732         3.7479

MULLIKEN ATOMIC CHARGES
-----------------------
   0 S :    0.110272
   1 C :   -0.109470
   2 C :   -0.120798
   3 C :    0.000878
   4 C :   -0.133106
   5 H :    0.034916
   6 C :    0.076348
   7 H :    0.015096
   8 H :    0.028774
   9 C :   -0.024057
  10 H :    0.013676
  11 H :    0.004278
  12 C :   -0.009842
  13 H :    0.026717
  14 H :    0.021591
  15 H :    0.014301
  16 S :    0.096300
  17 C :   -0.079191
  18 C :   -0.054924
  19 C :   -0.037645
  20 C :   -0.147536
  21 H :    0.014699
  22 C :    0.118050
  23 H :    0.040148
  24 H :   -0.004744
  25 C :   -0.114318
  26 H :    0.034964
  27 H :    0.023387
  28 C :   -0.061999
  29 H :    0.037115
  30 H :    0.045488
  31 H :    0.039335
  32 H :    0.041873
  33 H :    0.059427
Sum of atomic charges:    0.0000000

LOEWDIN ATOMIC CHARGES
----------------------
   0 S :    0.427901
   1 C :   -0.220358
   2 C :   -0.058532
   3 C :   -0.078418
   4 C :   -0.185010
   5 H :    0.037246
   6 C :   -0.018296
   7 H :    0.029121
   8 H :    0.025775
   9 C :   -0.030717
  10 H :    0.018547
  11 H :    0.016363
  12 C :   -0.065475
  13 H :    0.024018
  14 H :    0.021757
  15 H :    0.026052
  16 S :    0.413814
  17 C :   -0.195334
  18 C :   -0.075739
  19 C :   -0.056711
  20 C :   -0.194553
  21 H :    0.026739
  22 C :   -0.027708
  23 H :    0.042516
  24 H :    0.021087
  25 C :   -0.050466
  26 H :    0.024490
  27 H :    0.026995
  28 C :   -0.069388
  29 H :    0.025512
  30 H :    0.033660
  31 H :    0.025701
  32 H :    0.025344
  33 H :    0.034068

  Mayer bond orders larger than 0.100000
B(  0-S ,  1-C ) :   1.1412 B(  0-S ,  4-C ) :   1.1856 B(  1-C ,  2-C ) :   1.5887
B(  1-C , 32-H ) :   0.9774 B(  2-C ,  3-C ) :   1.2493 B(  2-C ,  6-C ) :   1.0228
B(  3-C ,  4-C ) :   1.5516 B(  3-C ,  5-H ) :   0.9847 B(  4-C , 20-C ) :   1.0216
B(  6-C ,  7-H ) :   0.9389 B(  6-C ,  8-H ) :   0.9448 B(  6-C ,  9-C ) :   1.0644
B(  9-C , 10-H ) :   0.9554 B(  9-C , 11-H ) :   0.9527 B(  9-C , 12-C ) :   1.0864
B( 12-C , 13-H ) :   0.9748 B( 12-C , 14-H ) :   0.9721 B( 12-C , 15-H ) :   0.9692
B( 16-S , 17-C ) :   1.1525 B( 16-S , 20-C ) :   1.1461 B( 17-C , 18-C ) :   1.6274
B( 17-C , 33-H ) :   0.9694 B( 18-C , 19-C ) :   1.2141 B( 18-C , 21-H ) :   0.9881
B( 19-C , 20-C ) :   1.6123 B( 19-C , 22-C ) :   1.0361 B( 22-C , 23-H ) :   0.9310
B( 22-C , 24-H ) :   0.9309 B( 22-C , 25-C ) :   1.0763 B( 25-C , 26-H ) :   0.9556
B( 25-C , 27-H ) :   0.9519 B( 25-C , 28-C ) :   1.0796 B( 28-C , 29-H ) :   0.9791
B( 28-C , 30-H ) :   0.9728 B( 28-C , 31-H ) :   0.9723

Dispersion correction           -0.013455828
FINAL SINGLE POINT ENERGY     -1339.870303468895

DIPOLE MOMENT
-------------
                                X             Y             Z
Electronic contribution:     21.99237      -4.05286     -12.62817
Nuclear contribution   :    -22.44344       3.84645      13.00518
                        -----------------------------------------
Total Dipole Moment    :     -0.45106      -0.20642       0.37701
                        -----------------------------------------
Magnitude (a.u.)       :      0.62306
Magnitude (Debye)      :      1.58369

Rotational constants in cm-1:     0.019486     0.007673     0.006388
Rotational constants in MHz :   584.183303   230.018447   191.496207

                             ****ORCA TERMINATED NORMALLY****
TOTAL RUN TIME: 0 days 0 hours 0 minutes 21 seconds 89 msec
