                         Program Version 4.2.1 -  RELEASE  -
|  1> ! wB97X-D3 SP def2-SVP
|  2> %pal
|  3> nprocs 24
|  4> end
|  5>
|  6> * xyz 0 1
|  7> S 	 -122.575 	 66.0509 	 -62.2753
|  8> C 	 -124.216 	 65.6573 	 -62.8121
|  9> C 	 -124.996 	 64.9361 	 -61.8322
| 10> C 	 -124.202 	 64.707 	 -60.6896
| 11> C 	 -122.879 	 64.9929 	 -60.8791
| 12> H 	 -124.575 	 64.2076 	 -59.8299
| 13> C 	 -126.436 	 64.5472 	 -61.9477
| 14> H 	 -126.82 	 65.0905 	 -62.8056
| 15> H 	 -126.893 	 64.8908 	 -60.9854
| 16> C 	 -126.744 	 63.0719 	 -62.0984
| 17> H 	 -127.739 	 62.8969 	 -62.5059
| 18> H 	 -125.959 	 62.8145 	 -62.8366
| 19> C 	 -126.502 	 62.1252 	 -60.898
| 20> H 	 -127.034 	 62.6186 	 -60.1013
| 21> H 	 -126.864 	 61.0688 	 -61.1068
| 22> H 	 -125.454 	 62.0434 	 -60.6922
| 23> S 	 -120.607 	 65.6834 	 -59.4252
| 24> C 	 -119.836 	 64.5062 	 -58.3597
| 25> C 	 -120.511 	 63.2886 	 -58.4814
| 26> C 	 -121.626 	 63.3139 	 -59.3785
| 27> C 	 -121.82 	 64.5498 	 -59.9787
| 28> H 	 -120.156 	 62.4444 	 -57.9565
| 29> C 	 -122.389 	 62.0613 	 -59.6842
| 30> H 	 -123.458 	 62.2127 	 -59.7308
| 31> H 	 -122.228 	 61.5002 	 -58.7468
| 32> C 	 -121.915 	 61.2073 	 -60.8821
| 33> H 	 -122.129 	 61.7149 	 -61.8639
| 34> H 	 -122.498 	 60.3202 	 -60.852
| 35> C 	 -120.53 	 60.6402 	 -60.7741
| 36> H 	 -120.503 	 59.6641 	 -60.9623
| 37> H 	 -120.039 	 60.8182 	 -59.7668
| 38> H 	 -119.96 	 61.2701 	 -61.4423
| 39> H 	 -124.436 	 65.9238 	 -63.857
| 40> H 	 -119.024 	 64.8053 	 -57.6491
| 41> *
| 42>
| 43>                          ****END OF INPUT****

CARTESIAN COORDINATES (ANGSTROEM)
---------------------------------
  S    -122.575000   66.050900  -62.275300
  C    -124.216000   65.657300  -62.812100
  C    -124.996000   64.936100  -61.832200
  C    -124.202000   64.707000  -60.689600
  C    -122.879000   64.992900  -60.879100
  H    -124.575000   64.207600  -59.829900
  C    -126.436000   64.547200  -61.947700
  H    -126.820000   65.090500  -62.805600
  H    -126.893000   64.890800  -60.985400
  C    -126.744000   63.071900  -62.098400
  H    -127.739000   62.896900  -62.505900
  H    -125.959000   62.814500  -62.836600
  C    -126.502000   62.125200  -60.898000
  H    -127.034000   62.618600  -60.101300
  H    -126.864000   61.068800  -61.106800
  H    -125.454000   62.043400  -60.692200
  S    -120.607000   65.683400  -59.425200
  C    -119.836000   64.506200  -58.359700
  C    -120.511000   63.288600  -58.481400
  C    -121.626000   63.313900  -59.378500
  C    -121.820000   64.549800  -59.978700
  H    -120.156000   62.444400  -57.956500
  C    -122.389000   62.061300  -59.684200
  H    -123.458000   62.212700  -59.730800
  H    -122.228000   61.500200  -58.746800
  C    -121.915000   61.207300  -60.882100
  H    -122.129000   61.714900  -61.863900
  H    -122.498000   60.320200  -60.852000
  C    -120.530000   60.640200  -60.774100
  H    -120.503000   59.664100  -60.962300
  H    -120.039000   60.818200  -59.766800
  H    -119.960000   61.270100  -61.442300
  H    -124.436000   65.923800  -63.857000
  H    -119.024000   64.805300  -57.649100

 Total Charge           Charge          ....    0
 Multiplicity           Mult            ....    1
 Number of Electrons    NEL             ....  134
 Basis Dimension        Dim             ....  322

ORBITAL ENERGIES
----------------

  NO   OCC          E(Eh)            E(eV)
   0   2.0000     -88.970088     -2420.9992
   1   2.0000     -88.962479     -2420.7921
   2   2.0000     -10.330466      -281.1063
   3   2.0000     -10.324763      -280.9511
   4   2.0000     -10.324722      -280.9500
   5   2.0000     -10.323398      -280.9139
   6   2.0000     -10.307992      -280.4947
   7   2.0000     -10.300342      -280.2865
   8   2.0000     -10.296037      -280.1694
   9   2.0000     -10.294834      -280.1367
  10   2.0000     -10.290510      -280.0190
  11   2.0000     -10.289290      -279.9858
  12   2.0000     -10.287652      -279.9413
  13   2.0000     -10.284264      -279.8490
  14   2.0000     -10.281435      -279.7721
  15   2.0000     -10.264639      -279.3150
  16   2.0000      -8.084192      -219.9821
  17   2.0000      -8.077251      -219.7932
  18   2.0000      -6.042558      -164.4264
  19   2.0000      -6.039051      -164.3309
  20   2.0000      -6.035720      -164.2403
  21   2.0000      -6.034890      -164.2177
  22   2.0000      -6.031625      -164.1289
  23   2.0000      -6.028190      -164.0354
  24   2.0000      -1.003998       -27.3202
  25   2.0000      -0.980425       -26.6787
  26   2.0000      -0.917088       -24.9552
  27   2.0000      -0.910561       -24.7776
  28   2.0000      -0.865423       -23.5494
  29   2.0000      -0.855846       -23.2888
  30   2.0000      -0.848619       -23.0921
  31   2.0000      -0.815377       -22.1875
  32   2.0000      -0.786916       -21.4131
  33   2.0000      -0.769642       -20.9430
  34   2.0000      -0.704040       -19.1579
  35   2.0000      -0.699146       -19.0247
  36   2.0000      -0.686217       -18.6729
  37   2.0000      -0.665731       -18.1155
  38   2.0000      -0.641826       -17.4650
  39   2.0000      -0.621160       -16.9026
  40   2.0000      -0.590731       -16.0746
  41   2.0000      -0.577925       -15.7261
  42   2.0000      -0.563010       -15.3203
  43   2.0000      -0.553437       -15.0598
  44   2.0000      -0.551426       -15.0051
  45   2.0000      -0.537847       -14.6356
  46   2.0000      -0.518630       -14.1126
  47   2.0000      -0.513882       -13.9834
  48   2.0000      -0.503537       -13.7019
  49   2.0000      -0.493245       -13.4219
  50   2.0000      -0.491552       -13.3758
  51   2.0000      -0.485476       -13.2105
  52   2.0000      -0.473365       -12.8809
  53   2.0000      -0.465214       -12.6591
  54   2.0000      -0.456908       -12.4331
  55   2.0000      -0.449574       -12.2335
  56   2.0000      -0.444589       -12.0979
  57   2.0000      -0.437935       -11.9168
  58   2.0000      -0.430172       -11.7056
  59   2.0000      -0.426029       -11.5928
  60   2.0000      -0.419757       -11.4222
  61   2.0000      -0.409582       -11.1453
  62   2.0000      -0.404160       -10.9978
  63   2.0000      -0.348266        -9.4768
  64   2.0000      -0.334845        -9.1116
  65   2.0000      -0.328359        -8.9351
  66   2.0000      -0.281958        -7.6725
  67   0.0000       0.021332         0.5805
  68   0.0000       0.064068         1.7434
  69   0.0000       0.098203         2.6722
  70   0.0000       0.120033         3.2663
  71   0.0000       0.127423         3.4673

MULLIKEN ATOMIC CHARGES
-----------------------
   0 S :    0.110368
   1 C :   -0.147194
   2 C :   -0.100540
   3 C :    0.024655
   4 C :   -0.133797
   5 H :    0.010031
   6 C :    0.079704
   7 H :    0.027193
   8 H :    0.033703
   9 C :   -0.088138
  10 H :    0.040416
  11 H :    0.025065
  12 C :   -0.050185
  13 H :    0.028485
  14 H :    0.050992
  15 H :    0.028618
  16 S :    0.087653
  17 C :   -0.118481
  18 C :   -0.029844
  19 C :   -0.048845
  20 C :   -0.137041
  21 H :    0.010985
  22 C :    0.076047
  23 H :   -0.000240
  24 H :    0.013845
  25 C :   -0.055363
  26 H :    0.047028
  27 H :    0.014142
  28 C :   -0.012849
  29 H :    0.009703
  30 H :    0.022283
  31 H :    0.036144
  32 H :    0.062178
  33 H :    0.083281
Sum of atomic charges:   -0.0000000

LOEWDIN ATOMIC CHARGES
----------------------
   0 S :    0.385127
   1 C :   -0.197519
   2 C :   -0.055594
   3 C :   -0.056233
   4 C :   -0.176264
   5 H :    0.027764
   6 C :   -0.034021
   7 H :    0.036195
   8 H :    0.034086
   9 C :   -0.046479
  10 H :    0.025419
  11 H :    0.027545
  12 C :   -0.065659
  13 H :    0.020595
  14 H :    0.039023
  15 H :    0.018293
  16 S :    0.393973
  17 C :   -0.187788
  18 C :   -0.069642
  19 C :   -0.064290
  20 C :   -0.196519
  21 H :    0.023220
  22 C :   -0.032756
  23 H :    0.022006
  24 H :    0.032797
  25 C :   -0.037250
  26 H :    0.032109
  27 H :    0.020207
  28 C :   -0.056441
  29 H :    0.005847
  30 H :    0.031537
  31 H :    0.032803
  32 H :    0.025699
  33 H :    0.042211

  Mayer bond orders larger than 0.100000
B(  0-S ,  1-C ) :   1.1400 B(  0-S ,  4-C ) :   1.1447 B(  1-C ,  2-C ) :   1.5771
B(  1-C ,  4-C ) :   0.1083 B(  1-C , 32-H ) :   0.9671 B(  2-C ,  3-C ) :   1.2423
B(  2-C ,  6-C ) :   1.0303 B(  3-C ,  4-C ) :   1.5650 B(  3-C ,  5-H ) :   0.9955
B(  4-C , 20-C ) :   1.0532 B(  6-C ,  7-H ) :   0.9328 B(  6-C ,  8-H ) :   0.9390
B(  6-C ,  9-C ) :   1.0620 B(  9-C , 10-H ) :   0.9591 B(  9-C , 11-H ) :   0.9519
B(  9-C , 12-C ) :   1.0764 B( 12-C , 13-H ) :   0.9746 B( 12-C , 14-H ) :   0.9675
B( 12-C , 15-H ) :   0.9761 B( 16-S , 17-C ) :   1.1588 B( 16-S , 20-C ) :   1.1422
B( 17-C , 18-C ) :   1.5766 B( 17-C , 20-C ) :   0.1017 B( 17-C , 33-H ) :   0.9647
B( 18-C , 19-C ) :   1.2582 B( 18-C , 21-H ) :   0.9934 B( 19-C , 20-C ) :   1.5756
B( 19-C , 22-C ) :   1.0439 B( 22-C , 23-H ) :   0.9294 B( 22-C , 24-H ) :   0.9233
B( 22-C , 25-C ) :   1.0851 B( 25-C , 26-H ) :   0.9602 B( 25-C , 27-H ) :   0.9570
B( 25-C , 28-C ) :   1.0611 B( 28-C , 29-H ) :   0.9780 B( 28-C , 30-H ) :   0.9750
B( 28-C , 31-H ) :   0.9738

Dispersion correction           -0.015810473
FINAL SINGLE POINT ENERGY     -1339.856580445326

DIPOLE MOMENT
-------------
                                X             Y             Z
Electronic contribution:     13.92114      24.72789       1.23368
Nuclear contribution   :    -14.29701     -25.35767      -1.18497
                        -----------------------------------------
Total Dipole Moment    :     -0.37587      -0.62978       0.04871
                        -----------------------------------------
Magnitude (a.u.)       :      0.73503
Magnitude (Debye)      :      1.86831

Rotational constants in cm-1:     0.018001     0.010309     0.007676
Rotational constants in MHz :   539.661983   309.062035   230.106536

                             ****ORCA TERMINATED NORMALLY****
TOTAL RUN TIME: 0 days 0 hours 0 minutes 23 seconds 128 msec
