                         Program Version 4.2.1 -  RELEASE  -
|  1> ! wB97X-D3 SP def2-SVP
|  2> %pal
|  3> nprocs 24
|  4> end
|  5>
|  6> * xyz 0 1
|  7> S 	 -99.6858 	 17.7662 	 -123.756
|  8> C 	 -98.827 	 18.3661 	 -122.361
|  9> C 	 -99.3073 	 17.7815 	 -121.206
| 10> C 	 -100.406 	 16.935 	 -121.394
| 11> C 	 -100.81 	 16.9439 	 -122.749
| 12> H 	 -101.067 	 16.4734 	 -120.627
| 13> C 	 -98.6618 	 17.9936 	 -119.86
| 14> H 	 -97.9029 	 18.8048 	 -119.894
| 15> H 	 -98.0173 	 17.1595 	 -119.636
| 16> C 	 -99.5553 	 18.4003 	 -118.755
| 17> H 	 -100.248 	 19.1624 	 -119.119
| 18> H 	 -100.209 	 17.5412 	 -118.488
| 19> C 	 -98.9202 	 18.9969 	 -117.449
| 20> H 	 -98.7024 	 20.0575 	 -117.713
| 21> H 	 -99.4948 	 19.0974 	 -116.549
| 22> H 	 -97.9925 	 18.5264 	 -117.13
| 23> S 	 -103.264 	 17.2833 	 -124.077
| 24> C 	 -104.369 	 15.9074 	 -124.24
| 25> C 	 -103.619 	 14.7931 	 -123.962
| 26> C 	 -102.343 	 14.9611 	 -123.389
| 27> C 	 -101.958 	 16.3047 	 -123.364
| 28> H 	 -103.989 	 13.7993 	 -124.229
| 29> C 	 -101.433 	 13.8112 	 -123.059
| 30> H 	 -100.672 	 14.1965 	 -122.362
| 31> H 	 -100.907 	 13.6492 	 -124.005
| 32> C 	 -102.001 	 12.4706 	 -122.533
| 33> H 	 -102.889 	 12.147 	 -123.044
| 34> H 	 -102.33 	 12.5837 	 -121.46
| 35> C 	 -100.963 	 11.3249 	 -122.763
| 36> H 	 -100.039 	 11.569 	 -122.291
| 37> H 	 -100.915 	 10.8786 	 -123.824
| 38> H 	 -101.198 	 10.456 	 -122.243
| 39> H 	 -97.983 	 19.0658 	 -122.203
| 40> H 	 -105.416 	 15.9531 	 -124.579
| 41> *
| 42>
| 43>                          ****END OF INPUT****

CARTESIAN COORDINATES (ANGSTROEM)
---------------------------------
  S    -99.685800   17.766200  -123.756000
  C    -98.827000   18.366100  -122.361000
  C    -99.307300   17.781500  -121.206000
  C    -100.406000   16.935000  -121.394000
  C    -100.810000   16.943900  -122.749000
  H    -101.067000   16.473400  -120.627000
  C    -98.661800   17.993600  -119.860000
  H    -97.902900   18.804800  -119.894000
  H    -98.017300   17.159500  -119.636000
  C    -99.555300   18.400300  -118.755000
  H    -100.248000   19.162400  -119.119000
  H    -100.209000   17.541200  -118.488000
  C    -98.920200   18.996900  -117.449000
  H    -98.702400   20.057500  -117.713000
  H    -99.494800   19.097400  -116.549000
  H    -97.992500   18.526400  -117.130000
  S    -103.264000   17.283300  -124.077000
  C    -104.369000   15.907400  -124.240000
  C    -103.619000   14.793100  -123.962000
  C    -102.343000   14.961100  -123.389000
  C    -101.958000   16.304700  -123.364000
  H    -103.989000   13.799300  -124.229000
  C    -101.433000   13.811200  -123.059000
  H    -100.672000   14.196500  -122.362000
  H    -100.907000   13.649200  -124.005000
  C    -102.001000   12.470600  -122.533000
  H    -102.889000   12.147000  -123.044000
  H    -102.330000   12.583700  -121.460000
  C    -100.963000   11.324900  -122.763000
  H    -100.039000   11.569000  -122.291000
  H    -100.915000   10.878600  -123.824000
  H    -101.198000   10.456000  -122.243000
  H    -97.983000   19.065800  -122.203000
  H    -105.416000   15.953100  -124.579000

 Total Charge           Charge          ....    0
 Multiplicity           Mult            ....    1
 Number of Electrons    NEL             ....  134
 Basis Dimension        Dim             ....  322

ORBITAL ENERGIES
----------------

  NO   OCC          E(Eh)            E(eV)
   0   2.0000     -88.970924     -2421.0219
   1   2.0000     -88.961945     -2420.7776
   2   2.0000     -10.329893      -281.0907
   3   2.0000     -10.326007      -280.9849
   4   2.0000     -10.322994      -280.9030
   5   2.0000     -10.311817      -280.5988
   6   2.0000     -10.301662      -280.3225
   7   2.0000     -10.297668      -280.2138
   8   2.0000     -10.296737      -280.1885
   9   2.0000     -10.294850      -280.1371
  10   2.0000     -10.291450      -280.0446
  11   2.0000     -10.290986      -280.0320
  12   2.0000     -10.288490      -279.9641
  13   2.0000     -10.287464      -279.9361
  14   2.0000     -10.281507      -279.7740
  15   2.0000     -10.279177      -279.7106
  16   2.0000      -8.085793      -220.0256
  17   2.0000      -8.075983      -219.7587
  18   2.0000      -6.044189      -164.4707
  19   2.0000      -6.040190      -164.3619
  20   2.0000      -6.036750      -164.2683
  21   2.0000      -6.034614      -164.2102
  22   2.0000      -6.030496      -164.0981
  23   2.0000      -6.026721      -163.9954
  24   2.0000      -1.008176       -27.4339
  25   2.0000      -0.985086       -26.8055
  26   2.0000      -0.916433       -24.9374
  27   2.0000      -0.904634       -24.6163
  28   2.0000      -0.868722       -23.6391
  29   2.0000      -0.850513       -23.1436
  30   2.0000      -0.844605       -22.9829
  31   2.0000      -0.812897       -22.1201
  32   2.0000      -0.784699       -21.3528
  33   2.0000      -0.772771       -21.0282
  34   2.0000      -0.713260       -19.4088
  35   2.0000      -0.705848       -19.2071
  36   2.0000      -0.691689       -18.8218
  37   2.0000      -0.651610       -17.7312
  38   2.0000      -0.638501       -17.3745
  39   2.0000      -0.617522       -16.8036
  40   2.0000      -0.598947       -16.2982
  41   2.0000      -0.571141       -15.5415
  42   2.0000      -0.561727       -15.2854
  43   2.0000      -0.559633       -15.2284
  44   2.0000      -0.533109       -14.5066
  45   2.0000      -0.522738       -14.2244
  46   2.0000      -0.518171       -14.1001
  47   2.0000      -0.508351       -13.8329
  48   2.0000      -0.502482       -13.6732
  49   2.0000      -0.498511       -13.5652
  50   2.0000      -0.493769       -13.4361
  51   2.0000      -0.471573       -12.8322
  52   2.0000      -0.469374       -12.7723
  53   2.0000      -0.467445       -12.7198
  54   2.0000      -0.460326       -12.5261
  55   2.0000      -0.452963       -12.3257
  56   2.0000      -0.444084       -12.0841
  57   2.0000      -0.438448       -11.9308
  58   2.0000      -0.430003       -11.7010
  59   2.0000      -0.425565       -11.5802
  60   2.0000      -0.423964       -11.5366
  61   2.0000      -0.413003       -11.2384
  62   2.0000      -0.403822       -10.9886
  63   2.0000      -0.339169        -9.2293
  64   2.0000      -0.334571        -9.1042
  65   2.0000      -0.324180        -8.8214
  66   2.0000      -0.295035        -8.0283
  67   0.0000       0.031144         0.8475
  68   0.0000       0.059106         1.6083
  69   0.0000       0.117116         3.1869
  70   0.0000       0.122509         3.3336
  71   0.0000       0.138587         3.7711

MULLIKEN ATOMIC CHARGES
-----------------------
   0 S :    0.135780
   1 C :   -0.105812
   2 C :   -0.111234
   3 C :    0.041401
   4 C :   -0.202630
   5 H :    0.036892
   6 C :    0.092090
   7 H :   -0.000965
   8 H :    0.034903
   9 C :   -0.102681
  10 H :    0.036145
  11 H :    0.029851
  12 C :   -0.053979
  13 H :    0.030162
  14 H :    0.033222
  15 H :    0.029595
  16 S :    0.097737
  17 C :   -0.110502
  18 C :   -0.035294
  19 C :   -0.012843
  20 C :   -0.164687
  21 H :    0.018525
  22 C :    0.055670
  23 H :    0.031729
  24 H :    0.046442
  25 C :   -0.077020
  26 H :    0.022343
  27 H :    0.042641
  28 C :   -0.043641
  29 H :    0.026078
  30 H :    0.051181
  31 H :    0.004596
  32 H :    0.047775
  33 H :    0.076529
Sum of atomic charges:    0.0000000

LOEWDIN ATOMIC CHARGES
----------------------
   0 S :    0.436797
   1 C :   -0.215475
   2 C :   -0.065200
   3 C :   -0.066273
   4 C :   -0.200851
   5 H :    0.041866
   6 C :   -0.036560
   7 H :    0.028165
   8 H :    0.032109
   9 C :   -0.047172
  10 H :    0.028963
  11 H :    0.020481
  12 C :   -0.070112
  13 H :    0.029829
  14 H :    0.025845
  15 H :    0.022809
  16 S :    0.385897
  17 C :   -0.179368
  18 C :   -0.078998
  19 C :   -0.056077
  20 C :   -0.206016
  21 H :    0.028976
  22 C :   -0.037162
  23 H :    0.035149
  24 H :    0.041642
  25 C :   -0.039461
  26 H :    0.017553
  27 H :    0.032586
  28 C :   -0.070462
  29 H :    0.022554
  30 H :    0.041042
  31 H :    0.016637
  32 H :    0.038801
  33 H :    0.041487

  Mayer bond orders larger than 0.100000
B(  0-S ,  1-C ) :   1.1315 B(  0-S ,  4-C ) :   1.1906 B(  1-C ,  2-C ) :   1.6126
B(  1-C ,  4-C ) :   0.1038 B(  1-C , 32-H ) :   0.9592 B(  2-C ,  3-C ) :   1.2621
B(  2-C ,  6-C ) :   1.0276 B(  3-C ,  4-C ) :   1.5395 B(  3-C ,  5-H ) :   0.9873
B(  4-C , 20-C ) :   1.0249 B(  6-C ,  7-H ) :   0.9368 B(  6-C ,  8-H ) :   0.9268
B(  6-C ,  9-C ) :   1.0598 B(  9-C , 10-H ) :   0.9627 B(  9-C , 11-H ) :   0.9516
B(  9-C , 12-C ) :   1.0724 B( 12-C , 13-H ) :   0.9755 B( 12-C , 14-H ) :   0.9776
B( 12-C , 15-H ) :   0.9780 B( 16-S , 17-C ) :   1.1556 B( 16-S , 20-C ) :   1.1360
B( 17-C , 18-C ) :   1.5804 B( 17-C , 20-C ) :   0.1104 B( 17-C , 33-H ) :   0.9683
B( 18-C , 19-C ) :   1.2656 B( 18-C , 21-H ) :   0.9818 B( 19-C , 20-C ) :   1.5661
B( 19-C , 22-C ) :   1.0389 B( 22-C , 23-H ) :   0.9250 B( 22-C , 24-H ) :   0.9370
B( 22-C , 25-C ) :   1.0536 B( 25-C , 26-H ) :   0.9574 B( 25-C , 27-H ) :   0.9558
B( 25-C , 28-C ) :   1.0816 B( 28-C , 29-H ) :   0.9747 B( 28-C , 30-H ) :   0.9730
B( 28-C , 31-H ) :   0.9686

Dispersion correction           -0.013472258
FINAL SINGLE POINT ENERGY     -1339.864580873967

DIPOLE MOMENT
-------------
                                X             Y             Z
Electronic contribution:     -8.34168      12.93319     -21.64956
Nuclear contribution   :      8.39478     -13.44594      22.08278
                        -----------------------------------------
Total Dipole Moment    :      0.05310      -0.51275       0.43322
                        -----------------------------------------
Magnitude (a.u.)       :      0.67336
Magnitude (Debye)      :      1.71155

Rotational constants in cm-1:     0.017062     0.007666     0.006438
Rotational constants in MHz :   511.503922   229.820010   192.992892

                             ****ORCA TERMINATED NORMALLY****
TOTAL RUN TIME: 0 days 0 hours 0 minutes 20 seconds 773 msec
