                         Program Version 4.2.1 -  RELEASE  -
|  1> ! wB97X-D3 SP def2-SVP
|  2> %pal
|  3> nprocs 24
|  4> end
|  5>
|  6> * xyz 0 1
|  7> S 	 -41.3024 	 -48.8785 	 -81.18
|  8> C 	 -42.5346 	 -49.9356 	 -80.6216
|  9> C 	 -43.8036 	 -49.4373 	 -80.9941
| 10> C 	 -43.6459 	 -48.0925 	 -81.4948
| 11> C 	 -42.3751 	 -47.607 	 -81.664
| 12> H 	 -44.5094 	 -47.5109 	 -81.8827
| 13> C 	 -45.0649 	 -50.2344 	 -81.0366
| 14> H 	 -45.8193 	 -49.553 	 -80.813
| 15> H 	 -45.1813 	 -50.9717 	 -80.2618
| 16> C 	 -45.149 	 -50.9775 	 -82.4375
| 17> H 	 -44.9771 	 -50.2988 	 -83.2365
| 18> H 	 -44.3461 	 -51.658 	 -82.5188
| 19> C 	 -46.4988 	 -51.6891 	 -82.8875
| 20> H 	 -46.5097 	 -52.0129 	 -83.9885
| 21> H 	 -46.5955 	 -52.5641 	 -82.2114
| 22> H 	 -47.3771 	 -51.0412 	 -82.6907
| 23> S 	 -41.2502 	 -45.9454 	 -83.5567
| 24> C 	 -40.8429 	 -44.2611 	 -83.2164
| 25> C 	 -41.3432 	 -43.9494 	 -81.9864
| 26> C 	 -41.9926 	 -45.0073 	 -81.2756
| 27> C 	 -41.9144 	 -46.219 	 -81.9435
| 28> H 	 -41.1404 	 -43.0165 	 -81.496
| 29> C 	 -42.3258 	 -44.8758 	 -79.8011
| 30> H 	 -41.5437 	 -44.3572 	 -79.3071
| 31> H 	 -42.1346 	 -45.7948 	 -79.2953
| 32> C 	 -43.7326 	 -44.3238 	 -79.4307
| 33> H 	 -43.6692 	 -44.013 	 -78.3529
| 34> H 	 -44.256 	 -45.2085 	 -79.5334
| 35> C 	 -44.1455 	 -43.0891 	 -80.3587
| 36> H 	 -44.0951 	 -43.3298 	 -81.4193
| 37> H 	 -43.5909 	 -42.1585 	 -80.0766
| 38> H 	 -45.1664 	 -42.8174 	 -80.2827
| 39> H 	 -42.5016 	 -50.9215 	 -80.1689
| 40> H 	 -40.1118 	 -43.6306 	 -83.6864
| 41> *
| 42>
| 43>                          ****END OF INPUT****

CARTESIAN COORDINATES (ANGSTROEM)
---------------------------------
  S    -41.302400  -48.878500  -81.180000
  C    -42.534600  -49.935600  -80.621600
  C    -43.803600  -49.437300  -80.994100
  C    -43.645900  -48.092500  -81.494800
  C    -42.375100  -47.607000  -81.664000
  H    -44.509400  -47.510900  -81.882700
  C    -45.064900  -50.234400  -81.036600
  H    -45.819300  -49.553000  -80.813000
  H    -45.181300  -50.971700  -80.261800
  C    -45.149000  -50.977500  -82.437500
  H    -44.977100  -50.298800  -83.236500
  H    -44.346100  -51.658000  -82.518800
  C    -46.498800  -51.689100  -82.887500
  H    -46.509700  -52.012900  -83.988500
  H    -46.595500  -52.564100  -82.211400
  H    -47.377100  -51.041200  -82.690700
  S    -41.250200  -45.945400  -83.556700
  C    -40.842900  -44.261100  -83.216400
  C    -41.343200  -43.949400  -81.986400
  C    -41.992600  -45.007300  -81.275600
  C    -41.914400  -46.219000  -81.943500
  H    -41.140400  -43.016500  -81.496000
  C    -42.325800  -44.875800  -79.801100
  H    -41.543700  -44.357200  -79.307100
  H    -42.134600  -45.794800  -79.295300
  C    -43.732600  -44.323800  -79.430700
  H    -43.669200  -44.013000  -78.352900
  H    -44.256000  -45.208500  -79.533400
  C    -44.145500  -43.089100  -80.358700
  H    -44.095100  -43.329800  -81.419300
  H    -43.590900  -42.158500  -80.076600
  H    -45.166400  -42.817400  -80.282700
  H    -42.501600  -50.921500  -80.168900
  H    -40.111800  -43.630600  -83.686400

 Total Charge           Charge          ....    0
 Multiplicity           Mult            ....    1
 Number of Electrons    NEL             ....  134
 Basis Dimension        Dim             ....  322

ORBITAL ENERGIES
----------------

  NO   OCC          E(Eh)            E(eV)
   0   2.0000     -88.968192     -2420.9476
   1   2.0000     -88.960781     -2420.7459
   2   2.0000     -10.332793      -281.1696
   3   2.0000     -10.331038      -281.1218
   4   2.0000     -10.317519      -280.7540
   5   2.0000     -10.315855      -280.7087
   6   2.0000     -10.304395      -280.3968
   7   2.0000     -10.303227      -280.3651
   8   2.0000     -10.298447      -280.2350
   9   2.0000     -10.293919      -280.1118
  10   2.0000     -10.291774      -280.0534
  11   2.0000     -10.290198      -280.0105
  12   2.0000     -10.288423      -279.9622
  13   2.0000     -10.287411      -279.9347
  14   2.0000     -10.280357      -279.7427
  15   2.0000     -10.279479      -279.7188
  16   2.0000      -8.083388      -219.9602
  17   2.0000      -8.075284      -219.7396
  18   2.0000      -6.041919      -164.4090
  19   2.0000      -6.037590      -164.2912
  20   2.0000      -6.034290      -164.2014
  21   2.0000      -6.033941      -164.1919
  22   2.0000      -6.029704      -164.0766
  23   2.0000      -6.026000      -163.9758
  24   2.0000      -1.007868       -27.4255
  25   2.0000      -0.986754       -26.8509
  26   2.0000      -0.908801       -24.7297
  27   2.0000      -0.901893       -24.5417
  28   2.0000      -0.866599       -23.5814
  29   2.0000      -0.843759       -22.9599
  30   2.0000      -0.837303       -22.7842
  31   2.0000      -0.817899       -22.2562
  32   2.0000      -0.784277       -21.3413
  33   2.0000      -0.775611       -21.1054
  34   2.0000      -0.709234       -19.2992
  35   2.0000      -0.706443       -19.2233
  36   2.0000      -0.693261       -18.8646
  37   2.0000      -0.661561       -18.0020
  38   2.0000      -0.643834       -17.5196
  39   2.0000      -0.619744       -16.8641
  40   2.0000      -0.594153       -16.1677
  41   2.0000      -0.571004       -15.5378
  42   2.0000      -0.557990       -15.1837
  43   2.0000      -0.554948       -15.1009
  44   2.0000      -0.534336       -14.5400
  45   2.0000      -0.524685       -14.2774
  46   2.0000      -0.518742       -14.1157
  47   2.0000      -0.513286       -13.9672
  48   2.0000      -0.503093       -13.6898
  49   2.0000      -0.497290       -13.5320
  50   2.0000      -0.486244       -13.2314
  51   2.0000      -0.479244       -13.0409
  52   2.0000      -0.470729       -12.8092
  53   2.0000      -0.462573       -12.5873
  54   2.0000      -0.462334       -12.5807
  55   2.0000      -0.442393       -12.0381
  56   2.0000      -0.440088       -11.9754
  57   2.0000      -0.437428       -11.9030
  58   2.0000      -0.432433       -11.7671
  59   2.0000      -0.419612       -11.4182
  60   2.0000      -0.417716       -11.3666
  61   2.0000      -0.416079       -11.3221
  62   2.0000      -0.411596       -11.2001
  63   2.0000      -0.336721        -9.1626
  64   2.0000      -0.329153        -8.9567
  65   2.0000      -0.326116        -8.8741
  66   2.0000      -0.308259        -8.3882
  67   0.0000       0.036634         0.9969
  68   0.0000       0.056410         1.5350
  69   0.0000       0.112796         3.0693
  70   0.0000       0.124470         3.3870
  71   0.0000       0.129043         3.5114

MULLIKEN ATOMIC CHARGES
-----------------------
   0 S :    0.129479
   1 C :   -0.099004
   2 C :   -0.158099
   3 C :    0.033937
   4 C :   -0.149888
   5 H :    0.023807
   6 C :    0.121671
   7 H :    0.007475
   8 H :    0.016297
   9 C :   -0.061008
  10 H :    0.022445
  11 H :    0.017225
  12 C :   -0.087254
  13 H :    0.059290
  14 H :    0.034497
  15 H :    0.039467
  16 S :    0.086873
  17 C :   -0.070313
  18 C :   -0.036602
  19 C :   -0.015214
  20 C :   -0.176768
  21 H :    0.014539
  22 C :    0.049520
  23 H :    0.006874
  24 H :    0.013052
  25 C :   -0.040036
  26 H :    0.039887
  27 H :    0.022192
  28 C :   -0.063748
  29 H :    0.048828
  30 H :    0.041013
  31 H :    0.020869
  32 H :    0.049759
  33 H :    0.058937
Sum of atomic charges:   -0.0000000

LOEWDIN ATOMIC CHARGES
----------------------
   0 S :    0.437947
   1 C :   -0.206963
   2 C :   -0.065983
   3 C :   -0.063708
   4 C :   -0.219973
   5 H :    0.035266
   6 C :   -0.024621
   7 H :    0.022795
   8 H :    0.028659
   9 C :   -0.032591
  10 H :    0.020159
  11 H :    0.018271
  12 C :   -0.076657
  13 H :    0.039053
  14 H :    0.023513
  15 H :    0.025863
  16 S :    0.387631
  17 C :   -0.182171
  18 C :   -0.064552
  19 C :   -0.056387
  20 C :   -0.187929
  21 H :    0.027898
  22 C :   -0.035307
  23 H :    0.023343
  24 H :    0.029456
  25 C :   -0.027420
  26 H :    0.032172
  27 H :    0.014410
  28 C :   -0.071466
  29 H :    0.029839
  30 H :    0.032062
  31 H :    0.019642
  32 H :    0.034032
  33 H :    0.033716

  Mayer bond orders larger than 0.100000
B(  0-S ,  1-C ) :   1.1760 B(  0-S ,  4-C ) :   1.1520 B(  1-C ,  2-C ) :   1.5617
B(  1-C ,  4-C ) :   0.1015 B(  1-C , 32-H ) :   0.9656 B(  2-C ,  3-C ) :   1.2732
B(  2-C ,  6-C ) :   1.0486 B(  3-C ,  4-C ) :   1.5736 B(  3-C ,  5-H ) :   0.9891
B(  4-C , 20-C ) :   0.9785 B(  6-C ,  7-H ) :   0.9335 B(  6-C ,  8-H ) :   0.9384
B(  6-C ,  9-C ) :   1.0365 B(  9-C , 10-H ) :   0.9632 B(  9-C , 11-H ) :   0.9588
B(  9-C , 12-C ) :   1.0670 B( 12-C , 13-H ) :   0.9751 B( 12-C , 14-H ) :   0.9784
B( 12-C , 15-H ) :   0.9776 B( 16-S , 17-C ) :   1.1360 B( 16-S , 20-C ) :   1.1471
B( 17-C , 18-C ) :   1.6261 B( 17-C , 33-H ) :   0.9677 B( 18-C , 19-C ) :   1.2305
B( 18-C , 21-H ) :   0.9835 B( 19-C , 20-C ) :   1.6172 B( 19-C , 22-C ) :   1.0281
B( 22-C , 23-H ) :   0.9403 B( 22-C , 24-H ) :   0.9437 B( 22-C , 25-C ) :   1.0430
B( 25-C , 26-H ) :   0.9581 B( 25-C , 27-H ) :   0.9637 B( 25-C , 28-C ) :   1.0751
B( 28-C , 29-H ) :   0.9685 B( 28-C , 30-H ) :   0.9761 B( 28-C , 31-H ) :   0.9759

Dispersion correction           -0.014545100
FINAL SINGLE POINT ENERGY     -1339.850072994325

DIPOLE MOMENT
-------------
                                X             Y             Z
Electronic contribution:     21.43160       1.06665      -6.96559
Nuclear contribution   :    -21.80355      -1.05856       7.32699
                        -----------------------------------------
Total Dipole Moment    :     -0.37195       0.00810       0.36139
                        -----------------------------------------
Magnitude (a.u.)       :      0.51866
Magnitude (Debye)      :      1.31834

Rotational constants in cm-1:     0.020423     0.007464     0.006692
Rotational constants in MHz :   612.260587   223.778140   200.630208

                             ****ORCA TERMINATED NORMALLY****
TOTAL RUN TIME: 0 days 0 hours 0 minutes 21 seconds 279 msec
