                         Program Version 4.2.1 -  RELEASE  -
|  1> ! wB97X-D3 SP def2-SVP
|  2> %pal
|  3> nprocs 24
|  4> end
|  5>
|  6> * xyz 0 1
|  7> S 	 -57.4744 	 -55.9061 	 -86.845
|  8> C 	 -58.9835 	 -54.9583 	 -86.8664
|  9> C 	 -60.1568 	 -55.7451 	 -86.7839
| 10> C 	 -59.7864 	 -57.121 	 -86.7108
| 11> C 	 -58.4352 	 -57.3517 	 -86.586
| 12> H 	 -60.4879 	 -57.9469 	 -86.5251
| 13> C 	 -61.6074 	 -55.1578 	 -87.032
| 14> H 	 -61.4276 	 -54.6715 	 -87.9512
| 15> H 	 -61.8551 	 -54.3798 	 -86.2227
| 16> C 	 -62.676 	 -56.2578 	 -87.1727
| 17> H 	 -62.5649 	 -56.9485 	 -88.0366
| 18> H 	 -62.8055 	 -56.8979 	 -86.2349
| 19> C 	 -64.101 	 -55.838 	 -87.3693
| 20> H 	 -64.161 	 -55.2968 	 -88.2715
| 21> H 	 -64.9508 	 -56.5697 	 -87.4108
| 22> H 	 -64.2674 	 -55.2252 	 -86.4821
| 23> S 	 -56.5996 	 -58.7091 	 -84.9019
| 24> C 	 -56.8041 	 -60.453 	 -84.7373
| 25> C 	 -57.6624 	 -60.9581 	 -85.6882
| 26> C 	 -58.2881 	 -59.9218 	 -86.4837
| 27> C 	 -57.878 	 -58.6718 	 -86.1441
| 28> H 	 -57.8409 	 -62.0544 	 -85.8341
| 29> C 	 -59.4261 	 -60.3193 	 -87.4505
| 30> H 	 -58.8614 	 -61.055 	 -88.1344
| 31> H 	 -59.6305 	 -59.475 	 -88.0548
| 32> C 	 -60.6342 	 -61.0095 	 -86.7272
| 33> H 	 -60.8816 	 -60.1664 	 -86.1036
| 34> H 	 -60.3103 	 -61.9024 	 -86.197
| 35> C 	 -61.8081 	 -61.2124 	 -87.658
| 36> H 	 -62.6704 	 -61.7461 	 -87.1384
| 37> H 	 -61.5465 	 -61.8327 	 -88.5745
| 38> H 	 -62.2006 	 -60.2502 	 -88.0222
| 39> H 	 -58.9937 	 -53.835 	 -86.8277
| 40> H 	 -56.3636 	 -60.9552 	 -83.9003
| 41> *
| 42>
| 43>                          ****END OF INPUT****

CARTESIAN COORDINATES (ANGSTROEM)
---------------------------------
  S    -57.474400  -55.906100  -86.845000
  C    -58.983500  -54.958300  -86.866400
  C    -60.156800  -55.745100  -86.783900
  C    -59.786400  -57.121000  -86.710800
  C    -58.435200  -57.351700  -86.586000
  H    -60.487900  -57.946900  -86.525100
  C    -61.607400  -55.157800  -87.032000
  H    -61.427600  -54.671500  -87.951200
  H    -61.855100  -54.379800  -86.222700
  C    -62.676000  -56.257800  -87.172700
  H    -62.564900  -56.948500  -88.036600
  H    -62.805500  -56.897900  -86.234900
  C    -64.101000  -55.838000  -87.369300
  H    -64.161000  -55.296800  -88.271500
  H    -64.950800  -56.569700  -87.410800
  H    -64.267400  -55.225200  -86.482100
  S    -56.599600  -58.709100  -84.901900
  C    -56.804100  -60.453000  -84.737300
  C    -57.662400  -60.958100  -85.688200
  C    -58.288100  -59.921800  -86.483700
  C    -57.878000  -58.671800  -86.144100
  H    -57.840900  -62.054400  -85.834100
  C    -59.426100  -60.319300  -87.450500
  H    -58.861400  -61.055000  -88.134400
  H    -59.630500  -59.475000  -88.054800
  C    -60.634200  -61.009500  -86.727200
  H    -60.881600  -60.166400  -86.103600
  H    -60.310300  -61.902400  -86.197000
  C    -61.808100  -61.212400  -87.658000
  H    -62.670400  -61.746100  -87.138400
  H    -61.546500  -61.832700  -88.574500
  H    -62.200600  -60.250200  -88.022200
  H    -58.993700  -53.835000  -86.827700
  H    -56.363600  -60.955200  -83.900300

 Total Charge           Charge          ....    0
 Multiplicity           Mult            ....    1
 Number of Electrons    NEL             ....  134
 Basis Dimension        Dim             ....  322

ORBITAL ENERGIES
----------------

  NO   OCC          E(Eh)            E(eV)
   0   2.0000     -88.971780     -2421.0452
   1   2.0000     -88.962172     -2420.7838
   2   2.0000     -10.331655      -281.1386
   3   2.0000     -10.327996      -281.0391
   4   2.0000     -10.320785      -280.8428
   5   2.0000     -10.318448      -280.7793
   6   2.0000     -10.311286      -280.5844
   7   2.0000     -10.311007      -280.5768
   8   2.0000     -10.300711      -280.2966
   9   2.0000     -10.299412      -280.2613
  10   2.0000     -10.296867      -280.1920
  11   2.0000     -10.296706      -280.1876
  12   2.0000     -10.294420      -280.1254
  13   2.0000     -10.291970      -280.0588
  14   2.0000     -10.290304      -280.0134
  15   2.0000     -10.277092      -279.6539
  16   2.0000      -8.085553      -220.0191
  17   2.0000      -8.076602      -219.7755
  18   2.0000      -6.044103      -164.4684
  19   2.0000      -6.040332      -164.3658
  20   2.0000      -6.036209      -164.2536
  21   2.0000      -6.035217      -164.2266
  22   2.0000      -6.031289      -164.1197
  23   2.0000      -6.027143      -164.0069
  24   2.0000      -1.000502       -27.2250
  25   2.0000      -0.978457       -26.6252
  26   2.0000      -0.912822       -24.8391
  27   2.0000      -0.908153       -24.7121
  28   2.0000      -0.865634       -23.5551
  29   2.0000      -0.853888       -23.2355
  30   2.0000      -0.843855       -22.9625
  31   2.0000      -0.812727       -22.1154
  32   2.0000      -0.781152       -21.2562
  33   2.0000      -0.769599       -20.9418
  34   2.0000      -0.702762       -19.1231
  35   2.0000      -0.698095       -18.9961
  36   2.0000      -0.683484       -18.5986
  37   2.0000      -0.657245       -17.8846
  38   2.0000      -0.634737       -17.2721
  39   2.0000      -0.616300       -16.7704
  40   2.0000      -0.593929       -16.1616
  41   2.0000      -0.581759       -15.8305
  42   2.0000      -0.570049       -15.5118
  43   2.0000      -0.557307       -15.1651
  44   2.0000      -0.530308       -14.4304
  45   2.0000      -0.522510       -14.2182
  46   2.0000      -0.513313       -13.9680
  47   2.0000      -0.509687       -13.8693
  48   2.0000      -0.503657       -13.7052
  49   2.0000      -0.500840       -13.6285
  50   2.0000      -0.484380       -13.1807
  51   2.0000      -0.481654       -13.1065
  52   2.0000      -0.467439       -12.7197
  53   2.0000      -0.466790       -12.7020
  54   2.0000      -0.458657       -12.4807
  55   2.0000      -0.453930       -12.3521
  56   2.0000      -0.445611       -12.1257
  57   2.0000      -0.437870       -11.9150
  58   2.0000      -0.433538       -11.7972
  59   2.0000      -0.423879       -11.5343
  60   2.0000      -0.418691       -11.3932
  61   2.0000      -0.412321       -11.2198
  62   2.0000      -0.407136       -11.0787
  63   2.0000      -0.349276        -9.5043
  64   2.0000      -0.334938        -9.1141
  65   2.0000      -0.327785        -8.9195
  66   2.0000      -0.286019        -7.7830
  67   0.0000       0.028576         0.7776
  68   0.0000       0.069210         1.8833
  69   0.0000       0.102646         2.7931
  70   0.0000       0.116964         3.1827
  71   0.0000       0.123929         3.3723

MULLIKEN ATOMIC CHARGES
-----------------------
   0 S :    0.118320
   1 C :   -0.155040
   2 C :   -0.093865
   3 C :   -0.008016
   4 C :   -0.129573
   5 H :    0.014542
   6 C :    0.087519
   7 H :    0.039270
   8 H :    0.058066
   9 C :   -0.144448
  10 H :    0.040782
  11 H :    0.045702
  12 C :   -0.042048
  13 H :    0.019363
  14 H :    0.045127
  15 H :    0.022308
  16 S :    0.087595
  17 C :   -0.098931
  18 C :   -0.034254
  19 C :   -0.070197
  20 C :   -0.132557
  21 H :    0.040889
  22 C :    0.024146
  23 H :    0.036772
  24 H :    0.021958
  25 C :   -0.038168
  26 H :    0.030728
  27 H :    0.041147
  28 C :   -0.071700
  29 H :    0.047813
  30 H :    0.040172
  31 H :    0.031148
  32 H :    0.065427
  33 H :    0.060003
Sum of atomic charges:   -0.0000000

LOEWDIN ATOMIC CHARGES
----------------------
   0 S :    0.393566
   1 C :   -0.203855
   2 C :   -0.056315
   3 C :   -0.073698
   4 C :   -0.185923
   5 H :    0.032541
   6 C :   -0.023744
   7 H :    0.032462
   8 H :    0.045733
   9 C :   -0.059317
  10 H :    0.028139
  11 H :    0.032752
  12 C :   -0.068174
  13 H :    0.014204
  14 H :    0.034098
  15 H :    0.022688
  16 S :    0.373154
  17 C :   -0.171076
  18 C :   -0.073529
  19 C :   -0.062112
  20 C :   -0.186034
  21 H :    0.039658
  22 C :   -0.031290
  23 H :    0.036541
  24 H :    0.020909
  25 C :   -0.038284
  26 H :    0.025548
  27 H :    0.026966
  28 C :   -0.074581
  29 H :    0.033590
  30 H :    0.029807
  31 H :    0.025241
  32 H :    0.034432
  33 H :    0.025903

  Mayer bond orders larger than 0.100000
B(  0-S ,  1-C ) :   1.1335 B(  0-S ,  4-C ) :   1.1474 B(  1-C ,  2-C ) :   1.6209
B(  1-C , 32-H ) :   0.9618 B(  2-C ,  3-C ) :   1.2695 B(  2-C ,  6-C ) :   0.9780
B(  3-C ,  4-C ) :   1.5686 B(  3-C ,  5-H ) :   0.9758 B(  4-C , 20-C ) :   1.0250
B(  6-C ,  7-H ) :   0.9425 B(  6-C ,  8-H ) :   0.9400 B(  6-C ,  9-C ) :   1.0798
B(  9-C , 10-H ) :   0.9519 B(  9-C , 11-H ) :   0.9569 B(  9-C , 12-C ) :   1.0713
B( 12-C , 13-H ) :   0.9747 B( 12-C , 14-H ) :   0.9751 B( 12-C , 15-H ) :   0.9766
B( 16-S , 17-C ) :   1.1455 B( 16-S , 20-C ) :   1.1090 B( 17-C , 18-C ) :   1.6258
B( 17-C , 33-H ) :   0.9724 B( 18-C , 19-C ) :   1.2049 B( 18-C , 21-H ) :   0.9822
B( 19-C , 20-C ) :   1.6542 B( 19-C , 22-C ) :   1.0387 B( 22-C , 23-H ) :   0.9277
B( 22-C , 24-H ) :   0.9377 B( 22-C , 25-C ) :   1.0452 B( 25-C , 26-H ) :   0.9545
B( 25-C , 27-H ) :   0.9506 B( 25-C , 28-C ) :   1.0910 B( 28-C , 29-H ) :   0.9727
B( 28-C , 30-H ) :   0.9729 B( 28-C , 31-H ) :   0.9724

Dispersion correction           -0.014362371
FINAL SINGLE POINT ENERGY     -1339.856340762512

DIPOLE MOMENT
-------------
                                X             Y             Z
Electronic contribution:     32.56804       6.69035       8.48083
Nuclear contribution   :    -33.34700      -6.89656      -8.55669
                        -----------------------------------------
Total Dipole Moment    :     -0.77896      -0.20621      -0.07586
                        -----------------------------------------
Magnitude (a.u.)       :      0.80936
Magnitude (Debye)      :      2.05723

Rotational constants in cm-1:     0.015985     0.009969     0.006568
Rotational constants in MHz :   479.220099   298.876721   196.917894

                             ****ORCA TERMINATED NORMALLY****
TOTAL RUN TIME: 0 days 0 hours 0 minutes 20 seconds 856 msec
