                         Program Version 4.2.1 -  RELEASE  -
|  1> ! wB97X-D3 SP def2-SVP
|  2> %pal
|  3> nprocs 24
|  4> end
|  5>
|  6> * xyz 0 1
|  7> S 	 -104.749 	 9.16745 	 -123.042
|  8> C 	 -106.353 	 8.68378 	 -122.828
|  9> C 	 -106.596 	 8.37665 	 -121.509
| 10> C 	 -105.459 	 8.50132 	 -120.674
| 11> C 	 -104.325 	 8.83142 	 -121.347
| 12> H 	 -105.55 	 8.47844 	 -119.623
| 13> C 	 -107.958 	 7.91887 	 -120.968
| 14> H 	 -108.679 	 8.03506 	 -121.831
| 15> H 	 -108.287 	 8.54611 	 -120.165
| 16> C 	 -108.065 	 6.4726 	 -120.574
| 17> H 	 -107.665 	 5.72593 	 -121.276
| 18> H 	 -107.417 	 6.2974 	 -119.717
| 19> C 	 -109.467 	 6.15964 	 -120.214
| 20> H 	 -109.504 	 5.12763 	 -119.823
| 21> H 	 -109.816 	 6.66078 	 -119.341
| 22> H 	 -110.133 	 6.17079 	 -121.03
| 23> S 	 -102.274 	 10.5742 	 -121.565
| 24> C 	 -100.99 	 10.5273 	 -120.437
| 25> C 	 -101.177 	 9.55245 	 -119.508
| 26> C 	 -102.255 	 8.74732 	 -119.747
| 27> C 	 -103.036 	 9.25399 	 -120.781
| 28> H 	 -100.405 	 9.36654 	 -118.774
| 29> C 	 -102.545 	 7.5427 	 -118.845
| 30> H 	 -101.592 	 7.01593 	 -118.632
| 31> H 	 -103.152 	 6.81437 	 -119.476
| 32> C 	 -103.397 	 7.85711 	 -117.585
| 33> H 	 -104.332 	 8.33436 	 -117.868
| 34> H 	 -102.944 	 8.45361 	 -116.805
| 35> C 	 -103.656 	 6.65957 	 -116.81
| 36> H 	 -102.784 	 6.17181 	 -116.383
| 37> H 	 -104.214 	 5.95296 	 -117.386
| 38> H 	 -104.281 	 7.04752 	 -116.033
| 39> H 	 -107.13 	 8.64463 	 -123.55
| 40> H 	 -100.253 	 11.2945 	 -120.379
| 41> *
| 42>
| 43>                          ****END OF INPUT****

CARTESIAN COORDINATES (ANGSTROEM)
---------------------------------
  S    -104.749000    9.167450  -123.042000
  C    -106.353000    8.683780  -122.828000
  C    -106.596000    8.376650  -121.509000
  C    -105.459000    8.501320  -120.674000
  C    -104.325000    8.831420  -121.347000
  H    -105.550000    8.478440  -119.623000
  C    -107.958000    7.918870  -120.968000
  H    -108.679000    8.035060  -121.831000
  H    -108.287000    8.546110  -120.165000
  C    -108.065000    6.472600  -120.574000
  H    -107.665000    5.725930  -121.276000
  H    -107.417000    6.297400  -119.717000
  C    -109.467000    6.159640  -120.214000
  H    -109.504000    5.127630  -119.823000
  H    -109.816000    6.660780  -119.341000
  H    -110.133000    6.170790  -121.030000
  S    -102.274000   10.574200  -121.565000
  C    -100.990000   10.527300  -120.437000
  C    -101.177000    9.552450  -119.508000
  C    -102.255000    8.747320  -119.747000
  C    -103.036000    9.253990  -120.781000
  H    -100.405000    9.366540  -118.774000
  C    -102.545000    7.542700  -118.845000
  H    -101.592000    7.015930  -118.632000
  H    -103.152000    6.814370  -119.476000
  C    -103.397000    7.857110  -117.585000
  H    -104.332000    8.334360  -117.868000
  H    -102.944000    8.453610  -116.805000
  C    -103.656000    6.659570  -116.810000
  H    -102.784000    6.171810  -116.383000
  H    -104.214000    5.952960  -117.386000
  H    -104.281000    7.047520  -116.033000
  H    -107.130000    8.644630  -123.550000
  H    -100.253000   11.294500  -120.379000

 Total Charge           Charge          ....    0
 Multiplicity           Mult            ....    1
 Number of Electrons    NEL             ....  134
 Basis Dimension        Dim             ....  322

ORBITAL ENERGIES
----------------

  NO   OCC          E(Eh)            E(eV)
   0   2.0000     -88.964454     -2420.8459
   1   2.0000     -88.964350     -2420.8430
   2   2.0000     -10.329110      -281.0694
   3   2.0000     -10.322989      -280.9028
   4   2.0000     -10.306647      -280.4581
   5   2.0000     -10.306135      -280.4442
   6   2.0000     -10.299646      -280.2676
   7   2.0000     -10.294954      -280.1399
   8   2.0000     -10.293894      -280.1111
   9   2.0000     -10.291003      -280.0324
  10   2.0000     -10.286842      -279.9192
  11   2.0000     -10.282155      -279.7917
  12   2.0000     -10.282062      -279.7891
  13   2.0000     -10.280237      -279.7395
  14   2.0000     -10.269468      -279.4464
  15   2.0000     -10.267323      -279.3881
  16   2.0000      -8.080632      -219.8852
  17   2.0000      -8.079874      -219.8645
  18   2.0000      -6.038851      -164.3255
  19   2.0000      -6.038447      -164.3145
  20   2.0000      -6.034868      -164.2171
  21   2.0000      -6.034259      -164.2005
  22   2.0000      -6.031669      -164.1301
  23   2.0000      -6.030550      -164.0996
  24   2.0000      -1.017203       -27.6795
  25   2.0000      -0.995079       -27.0775
  26   2.0000      -0.919816       -25.0295
  27   2.0000      -0.918341       -24.9893
  28   2.0000      -0.874810       -23.8048
  29   2.0000      -0.866377       -23.5753
  30   2.0000      -0.852578       -23.1998
  31   2.0000      -0.818739       -22.2790
  32   2.0000      -0.781653       -21.2698
  33   2.0000      -0.770320       -20.9615
  34   2.0000      -0.706231       -19.2175
  35   2.0000      -0.697497       -18.9798
  36   2.0000      -0.693259       -18.8645
  37   2.0000      -0.666704       -18.1419
  38   2.0000      -0.642224       -17.4758
  39   2.0000      -0.628347       -17.0982
  40   2.0000      -0.601985       -16.3808
  41   2.0000      -0.577876       -15.7248
  42   2.0000      -0.574391       -15.6300
  43   2.0000      -0.564115       -15.3503
  44   2.0000      -0.539790       -14.6884
  45   2.0000      -0.522868       -14.2280
  46   2.0000      -0.521711       -14.1965
  47   2.0000      -0.511916       -13.9299
  48   2.0000      -0.506249       -13.7757
  49   2.0000      -0.505299       -13.7499
  50   2.0000      -0.502121       -13.6634
  51   2.0000      -0.481775       -13.1098
  52   2.0000      -0.473847       -12.8940
  53   2.0000      -0.467777       -12.7289
  54   2.0000      -0.460307       -12.5256
  55   2.0000      -0.451252       -12.2792
  56   2.0000      -0.445657       -12.1269
  57   2.0000      -0.437088       -11.8938
  58   2.0000      -0.433565       -11.7979
  59   2.0000      -0.425203       -11.5703
  60   2.0000      -0.416518       -11.3340
  61   2.0000      -0.414126       -11.2689
  62   2.0000      -0.412375       -11.2213
  63   2.0000      -0.360198        -9.8015
  64   2.0000      -0.337087        -9.1726
  65   2.0000      -0.327681        -8.9167
  66   2.0000      -0.284135        -7.7317
  67   0.0000       0.029309         0.7975
  68   0.0000       0.082530         2.2458
  69   0.0000       0.110632         3.0104
  70   0.0000       0.126735         3.4486
  71   0.0000       0.134432         3.6581

MULLIKEN ATOMIC CHARGES
-----------------------
   0 S :    0.098948
   1 C :   -0.087215
   2 C :   -0.099378
   3 C :    0.028278
   4 C :   -0.090099
   5 H :   -0.018182
   6 C :    0.055452
   7 H :    0.013252
   8 H :    0.027016
   9 C :   -0.069646
  10 H :    0.030475
  11 H :    0.011785
  12 C :   -0.008255
  13 H :    0.017497
  14 H :    0.018223
  15 H :    0.026877
  16 S :    0.113306
  17 C :   -0.078816
  18 C :   -0.033400
  19 C :   -0.017813
  20 C :   -0.163199
  21 H :    0.011449
  22 C :    0.030461
  23 H :    0.030658
  24 H :    0.033537
  25 C :   -0.058578
  26 H :    0.021763
  27 H :    0.020695
  28 C :   -0.004765
  29 H :    0.031931
  30 H :    0.012604
  31 H :    0.021794
  32 H :    0.029966
  33 H :    0.043377
Sum of atomic charges:    0.0000000

LOEWDIN ATOMIC CHARGES
----------------------
   0 S :    0.411286
   1 C :   -0.208516
   2 C :   -0.065875
   3 C :   -0.062751
   4 C :   -0.177782
   5 H :    0.022174
   6 C :   -0.030274
   7 H :    0.030977
   8 H :    0.027870
   9 C :   -0.047726
  10 H :    0.028812
  11 H :    0.020107
  12 C :   -0.060421
  13 H :    0.031274
  14 H :    0.022635
  15 H :    0.018959
  16 S :    0.439773
  17 C :   -0.193595
  18 C :   -0.071581
  19 C :   -0.065409
  20 C :   -0.204701
  21 H :    0.032056
  22 C :   -0.031956
  23 H :    0.033219
  24 H :    0.036866
  25 C :   -0.040642
  26 H :    0.021913
  27 H :    0.025923
  28 C :   -0.057033
  29 H :    0.025088
  30 H :    0.015533
  31 H :    0.027063
  32 H :    0.024749
  33 H :    0.021986

  Mayer bond orders larger than 0.100000
B(  0-S ,  1-C ) :   1.1427 B(  0-S ,  4-C ) :   1.1435 B(  1-C ,  2-C ) :   1.6128
B(  1-C , 32-H ) :   0.9672 B(  2-C ,  3-C ) :   1.2668 B(  2-C ,  6-C ) :   1.0228
B(  3-C ,  4-C ) :   1.5525 B(  3-C ,  5-H ) :   1.0000 B(  4-C , 20-C ) :   1.0463
B(  6-C ,  7-H ) :   0.9455 B(  6-C ,  8-H ) :   0.9370 B(  6-C ,  9-C ) :   1.0678
B(  9-C , 10-H ) :   0.9522 B(  9-C , 11-H ) :   0.9452 B(  9-C , 12-C ) :   1.1050
B( 12-C , 13-H ) :   0.9644 B( 12-C , 14-H ) :   0.9680 B( 12-C , 15-H ) :   0.9745
B( 16-S , 17-C ) :   1.1716 B( 16-S , 20-C ) :   1.1718 B( 17-C , 18-C ) :   1.5764
B( 17-C , 20-C ) :   0.1021 B( 17-C , 33-H ) :   0.9703 B( 18-C , 19-C ) :   1.2923
B( 18-C , 21-H ) :   0.9909 B( 19-C , 20-C ) :   1.5499 B( 19-C , 22-C ) :   1.0455
B( 22-C , 23-H ) :   0.9369 B( 22-C , 24-H ) :   0.9310 B( 22-C , 25-C ) :   1.0663
B( 25-C , 26-H ) :   0.9510 B( 25-C , 27-H ) :   0.9524 B( 25-C , 28-C ) :   1.0923
B( 28-C , 29-H ) :   0.9713 B( 28-C , 30-H ) :   0.9692 B( 28-C , 31-H ) :   0.9714

Dispersion correction           -0.013859491
FINAL SINGLE POINT ENERGY     -1339.875986052946

DIPOLE MOMENT
-------------
                                X             Y             Z
Electronic contribution:     17.13565      18.99659     -21.25854
Nuclear contribution   :    -17.39474     -19.24389      21.89941
                        -----------------------------------------
Total Dipole Moment    :     -0.25910      -0.24730       0.64087
                        -----------------------------------------
Magnitude (a.u.)       :      0.73417
Magnitude (Debye)      :      1.86611

Rotational constants in cm-1:     0.017814     0.009426     0.006390
Rotational constants in MHz :   534.042607   282.593604   191.553589

                             ****ORCA TERMINATED NORMALLY****
TOTAL RUN TIME: 0 days 0 hours 0 minutes 21 seconds 923 msec
