                         Program Version 4.2.1 -  RELEASE  -
|  1> ! wB97X-D3 SP def2-SVP
|  2> %pal
|  3> nprocs 24
|  4> end
|  5>
|  6> * xyz 0 1
|  7> S 	 20.4809 	 -24.5337 	 -118.908
|  8> C 	 22.1987 	 -24.8037 	 -119.295
|  9> C 	 22.9821 	 -24.07 	 -118.447
| 10> C 	 22.2429 	 -23.3214 	 -117.534
| 11> C 	 20.857 	 -23.3456 	 -117.665
| 12> H 	 22.7901 	 -22.7969 	 -116.794
| 13> C 	 24.4454 	 -23.9032 	 -118.476
| 14> H 	 24.6437 	 -22.8174 	 -118.249
| 15> H 	 24.6934 	 -24.1725 	 -119.429
| 16> C 	 25.1299 	 -24.6256 	 -117.285
| 17> H 	 24.9678 	 -24.2628 	 -116.266
| 18> H 	 24.585 	 -25.6139 	 -117.255
| 19> C 	 26.5937 	 -24.9881 	 -117.459
| 20> H 	 26.7552 	 -25.688 	 -116.629
| 21> H 	 26.7773 	 -25.3828 	 -118.399
| 22> H 	 27.2153 	 -24.0668 	 -117.221
| 23> S 	 19.0442 	 -23.8947 	 -115.745
| 24> C 	 18.144 	 -22.587 	 -115.034
| 25> C 	 18.3858 	 -21.3343 	 -115.587
| 26> C 	 19.3617 	 -21.4454 	 -116.63
| 27> C 	 19.7739 	 -22.7666 	 -116.854
| 28> H 	 17.8843 	 -20.5085 	 -115.177
| 29> C 	 19.9871 	 -20.2623 	 -117.383
| 30> H 	 19.2425 	 -19.8155 	 -118.084
| 31> H 	 20.7977 	 -20.5904 	 -118.023
| 32> C 	 20.3544 	 -19.1732 	 -116.433
| 33> H 	 20.9798 	 -19.5937 	 -115.646
| 34> H 	 19.5075 	 -18.7165 	 -115.913
| 35> C 	 21.0806 	 -18.0733 	 -117.086
| 36> H 	 21.5193 	 -17.4441 	 -116.282
| 37> H 	 20.4579 	 -17.4619 	 -117.659
| 38> H 	 21.8661 	 -18.4992 	 -117.749
| 39> H 	 22.6223 	 -25.526 	 -119.943
| 40> H 	 17.4259 	 -22.7421 	 -114.252
| 41> *
| 42>
| 43>                          ****END OF INPUT****

CARTESIAN COORDINATES (ANGSTROEM)
---------------------------------
  S     20.480900  -24.533700  -118.908000
  C     22.198700  -24.803700  -119.295000
  C     22.982100  -24.070000  -118.447000
  C     22.242900  -23.321400  -117.534000
  C     20.857000  -23.345600  -117.665000
  H     22.790100  -22.796900  -116.794000
  C     24.445400  -23.903200  -118.476000
  H     24.643700  -22.817400  -118.249000
  H     24.693400  -24.172500  -119.429000
  C     25.129900  -24.625600  -117.285000
  H     24.967800  -24.262800  -116.266000
  H     24.585000  -25.613900  -117.255000
  C     26.593700  -24.988100  -117.459000
  H     26.755200  -25.688000  -116.629000
  H     26.777300  -25.382800  -118.399000
  H     27.215300  -24.066800  -117.221000
  S     19.044200  -23.894700  -115.745000
  C     18.144000  -22.587000  -115.034000
  C     18.385800  -21.334300  -115.587000
  C     19.361700  -21.445400  -116.630000
  C     19.773900  -22.766600  -116.854000
  H     17.884300  -20.508500  -115.177000
  C     19.987100  -20.262300  -117.383000
  H     19.242500  -19.815500  -118.084000
  H     20.797700  -20.590400  -118.023000
  C     20.354400  -19.173200  -116.433000
  H     20.979800  -19.593700  -115.646000
  H     19.507500  -18.716500  -115.913000
  C     21.080600  -18.073300  -117.086000
  H     21.519300  -17.444100  -116.282000
  H     20.457900  -17.461900  -117.659000
  H     21.866100  -18.499200  -117.749000
  H     22.622300  -25.526000  -119.943000
  H     17.425900  -22.742100  -114.252000

 Total Charge           Charge          ....    0
 Multiplicity           Mult            ....    1
 Number of Electrons    NEL             ....  134
 Basis Dimension        Dim             ....  322

ORBITAL ENERGIES
----------------

  NO   OCC          E(Eh)            E(eV)
   0   2.0000     -88.966440     -2420.8999
   1   2.0000     -88.962463     -2420.7917
   2   2.0000     -10.331473      -281.1337
   3   2.0000     -10.324867      -280.9539
   4   2.0000     -10.316543      -280.7274
   5   2.0000     -10.310244      -280.5560
   6   2.0000     -10.308317      -280.5036
   7   2.0000     -10.294547      -280.1289
   8   2.0000     -10.289409      -279.9890
   9   2.0000     -10.288898      -279.9752
  10   2.0000     -10.287831      -279.9461
  11   2.0000     -10.287597      -279.9397
  12   2.0000     -10.285514      -279.8831
  13   2.0000     -10.278419      -279.6900
  14   2.0000     -10.276397      -279.6350
  15   2.0000     -10.271251      -279.4949
  16   2.0000      -8.081525      -219.9095
  17   2.0000      -8.076580      -219.7749
  18   2.0000      -6.039828      -164.3521
  19   2.0000      -6.036014      -164.2483
  20   2.0000      -6.035138      -164.2245
  21   2.0000      -6.032443      -164.1511
  22   2.0000      -6.031123      -164.1152
  23   2.0000      -6.027350      -164.0125
  24   2.0000      -1.005175       -27.3522
  25   2.0000      -0.984968       -26.8023
  26   2.0000      -0.920792       -25.0560
  27   2.0000      -0.916180       -24.9305
  28   2.0000      -0.870309       -23.6823
  29   2.0000      -0.854082       -23.2407
  30   2.0000      -0.848188       -23.0804
  31   2.0000      -0.815962       -22.2035
  32   2.0000      -0.784587       -21.3497
  33   2.0000      -0.771050       -20.9813
  34   2.0000      -0.706807       -19.2332
  35   2.0000      -0.696733       -18.9591
  36   2.0000      -0.694403       -18.8957
  37   2.0000      -0.658083       -17.9074
  38   2.0000      -0.637472       -17.3465
  39   2.0000      -0.629065       -17.1177
  40   2.0000      -0.599693       -16.3185
  41   2.0000      -0.575448       -15.6587
  42   2.0000      -0.570826       -15.5330
  43   2.0000      -0.563793       -15.3416
  44   2.0000      -0.542451       -14.7608
  45   2.0000      -0.530492       -14.4354
  46   2.0000      -0.515997       -14.0410
  47   2.0000      -0.510871       -13.9015
  48   2.0000      -0.505013       -13.7421
  49   2.0000      -0.502374       -13.6703
  50   2.0000      -0.493146       -13.4192
  51   2.0000      -0.473247       -12.8777
  52   2.0000      -0.471021       -12.8171
  53   2.0000      -0.468861       -12.7584
  54   2.0000      -0.460568       -12.5327
  55   2.0000      -0.453819       -12.3490
  56   2.0000      -0.449684       -12.2365
  57   2.0000      -0.439222       -11.9518
  58   2.0000      -0.437969       -11.9177
  59   2.0000      -0.422222       -11.4892
  60   2.0000      -0.416072       -11.3219
  61   2.0000      -0.414081       -11.2677
  62   2.0000      -0.400375       -10.8948
  63   2.0000      -0.338814        -9.2196
  64   2.0000      -0.325786        -8.8651
  65   2.0000      -0.323938        -8.8148
  66   2.0000      -0.301780        -8.2119
  67   0.0000       0.040039         1.0895
  68   0.0000       0.058870         1.6019
  69   0.0000       0.117218         3.1897
  70   0.0000       0.122113         3.3229
  71   0.0000       0.125736         3.4215

MULLIKEN ATOMIC CHARGES
-----------------------
   0 S :    0.096861
   1 C :   -0.107480
   2 C :   -0.122211
   3 C :    0.067640
   4 C :   -0.163221
   5 H :   -0.014262
   6 C :    0.138488
   7 H :    0.036741
   8 H :   -0.007133
   9 C :   -0.148771
  10 H :    0.035962
  11 H :    0.028289
  12 C :   -0.009480
  13 H :    0.036903
  14 H :    0.023581
  15 H :    0.036405
  16 S :    0.125731
  17 C :   -0.090788
  18 C :   -0.022588
  19 C :   -0.006250
  20 C :   -0.169184
  21 H :    0.005283
  22 C :    0.089143
  23 H :    0.031198
  24 H :    0.026083
  25 C :   -0.118028
  26 H :    0.027252
  27 H :    0.027168
  28 C :   -0.005970
  29 H :    0.034125
  30 H :    0.014285
  31 H :    0.026744
  32 H :    0.028929
  33 H :    0.048556
Sum of atomic charges:    0.0000000

LOEWDIN ATOMIC CHARGES
----------------------
   0 S :    0.391226
   1 C :   -0.188267
   2 C :   -0.069526
   3 C :   -0.057979
   4 C :   -0.194160
   5 H :    0.021996
   6 C :   -0.023042
   7 H :    0.040294
   8 H :    0.017420
   9 C :   -0.049067
  10 H :    0.025766
  11 H :    0.025705
  12 C :   -0.058100
  13 H :    0.032334
  14 H :    0.013183
  15 H :    0.030320
  16 S :    0.422614
  17 C :   -0.176852
  18 C :   -0.066319
  19 C :   -0.040822
  20 C :   -0.216318
  21 H :    0.026677
  22 C :   -0.029954
  23 H :    0.036235
  24 H :    0.029264
  25 C :   -0.050935
  26 H :    0.023252
  27 H :    0.024526
  28 C :   -0.058259
  29 H :    0.032166
  30 H :    0.014027
  31 H :    0.027662
  32 H :    0.022490
  33 H :    0.022445

  Mayer bond orders larger than 0.100000
B(  0-S ,  1-C ) :   1.1298 B(  0-S ,  4-C ) :   1.1567 B(  1-C ,  2-C ) :   1.6023
B(  1-C ,  4-C ) :   0.1039 B(  1-C , 32-H ) :   0.9692 B(  2-C ,  3-C ) :   1.2697
B(  2-C ,  6-C ) :   1.0275 B(  3-C ,  4-C ) :   1.5496 B(  3-C ,  5-H ) :   1.0032
B(  4-C , 20-C ) :   0.9990 B(  6-C ,  7-H ) :   0.9389 B(  6-C ,  8-H ) :   0.9360
B(  6-C ,  9-C ) :   1.0342 B(  9-C , 10-H ) :   0.9553 B(  9-C , 11-H ) :   0.9610
B(  9-C , 12-C ) :   1.0910 B( 12-C , 13-H ) :   0.9743 B( 12-C , 14-H ) :   0.9768
B( 12-C , 15-H ) :   0.9728 B( 16-S , 17-C ) :   1.1727 B( 16-S , 20-C ) :   1.1532
B( 17-C , 18-C ) :   1.6099 B( 17-C , 33-H ) :   0.9665 B( 18-C , 19-C ) :   1.2193
B( 18-C , 21-H ) :   1.0032 B( 19-C , 20-C ) :   1.6054 B( 19-C , 22-C ) :   1.0429
B( 22-C , 23-H ) :   0.9259 B( 22-C , 24-H ) :   0.9359 B( 22-C , 25-C ) :   1.0709
B( 25-C , 26-H ) :   0.9572 B( 25-C , 27-H ) :   0.9411 B( 25-C , 28-C ) :   1.1050
B( 28-C , 29-H ) :   0.9703 B( 28-C , 30-H ) :   0.9702 B( 28-C , 31-H ) :   0.9702

Dispersion correction           -0.013516199
FINAL SINGLE POINT ENERGY     -1339.862974545386

DIPOLE MOMENT
-------------
                                X             Y             Z
Electronic contribution:    -22.16737     -14.93898      -1.11507
Nuclear contribution   :     22.58769      15.33953       1.39786
                        -----------------------------------------
Total Dipole Moment    :      0.42031       0.40055       0.28278
                        -----------------------------------------
Magnitude (a.u.)       :      0.64581
Magnitude (Debye)      :      1.64152

Rotational constants in cm-1:     0.017513     0.008057     0.006619
Rotational constants in MHz :   525.031877   241.541415   198.420701

                             ****ORCA TERMINATED NORMALLY****
TOTAL RUN TIME: 0 days 0 hours 0 minutes 21 seconds 169 msec
