                         Program Version 4.2.1 -  RELEASE  -
|  1> ! wB97X-D3 SP def2-SVP
|  2> %pal
|  3> nprocs 24
|  4> end
|  5>
|  6> * xyz 0 1
|  7> S 	 -91.6575 	 13.3749 	 -116.63
|  8> C 	 -89.928 	 13.6516 	 -116.516
|  9> C 	 -89.3341 	 13.9531 	 -117.778
| 10> C 	 -90.3087 	 13.9587 	 -118.77
| 11> C 	 -91.6308 	 13.7099 	 -118.292
| 12> H 	 -90.2089 	 14.3171 	 -119.721
| 13> C 	 -87.8146 	 14.2646 	 -118.053
| 14> H 	 -87.3969 	 15.1284 	 -117.514
| 15> H 	 -87.6035 	 14.4979 	 -119.109
| 16> C 	 -86.8251 	 13.071 	 -117.807
| 17> H 	 -85.862 	 13.388 	 -118.177
| 18> H 	 -86.5458 	 12.9877 	 -116.754
| 19> C 	 -87.218 	 11.7055 	 -118.302
| 20> H 	 -86.5123 	 10.9266 	 -118.031
| 21> H 	 -88.2204 	 11.3819 	 -117.889
| 22> H 	 -87.2478 	 11.8059 	 -119.403
| 23> S 	 -93.4842 	 12.6366 	 -120.119
| 24> C 	 -94.9229 	 13.5188 	 -120.364
| 25> C 	 -94.8616 	 14.8331 	 -119.78
| 26> C 	 -93.5444 	 15.0793 	 -119.267
| 27> C 	 -92.8791 	 13.8988 	 -119.013
| 28> H 	 -95.6004 	 15.5541 	 -119.856
| 29> C 	 -93.3641 	 16.4002 	 -118.601
| 30> H 	 -93.3352 	 17.1445 	 -119.398
| 31> H 	 -92.3933 	 16.4464 	 -118.086
| 32> C 	 -94.4937 	 16.8341 	 -117.673
| 33> H 	 -94.4533 	 16.2177 	 -116.834
| 34> H 	 -95.4723 	 16.7411 	 -118.152
| 35> C 	 -94.3111 	 18.3622 	 -117.268
| 36> H 	 -93.263 	 18.549 	 -116.948
| 37> H 	 -95.1001 	 18.6609 	 -116.583
| 38> H 	 -94.5137 	 18.9278 	 -118.207
| 39> H 	 -89.3805 	 13.3508 	 -115.689
| 40> H 	 -95.7048 	 13.2591 	 -121.065
| 41> *
| 42>
| 43>                          ****END OF INPUT****

CARTESIAN COORDINATES (ANGSTROEM)
---------------------------------
  S    -91.657500   13.374900  -116.630000
  C    -89.928000   13.651600  -116.516000
  C    -89.334100   13.953100  -117.778000
  C    -90.308700   13.958700  -118.770000
  C    -91.630800   13.709900  -118.292000
  H    -90.208900   14.317100  -119.721000
  C    -87.814600   14.264600  -118.053000
  H    -87.396900   15.128400  -117.514000
  H    -87.603500   14.497900  -119.109000
  C    -86.825100   13.071000  -117.807000
  H    -85.862000   13.388000  -118.177000
  H    -86.545800   12.987700  -116.754000
  C    -87.218000   11.705500  -118.302000
  H    -86.512300   10.926600  -118.031000
  H    -88.220400   11.381900  -117.889000
  H    -87.247800   11.805900  -119.403000
  S    -93.484200   12.636600  -120.119000
  C    -94.922900   13.518800  -120.364000
  C    -94.861600   14.833100  -119.780000
  C    -93.544400   15.079300  -119.267000
  C    -92.879100   13.898800  -119.013000
  H    -95.600400   15.554100  -119.856000
  C    -93.364100   16.400200  -118.601000
  H    -93.335200   17.144500  -119.398000
  H    -92.393300   16.446400  -118.086000
  C    -94.493700   16.834100  -117.673000
  H    -94.453300   16.217700  -116.834000
  H    -95.472300   16.741100  -118.152000
  C    -94.311100   18.362200  -117.268000
  H    -93.263000   18.549000  -116.948000
  H    -95.100100   18.660900  -116.583000
  H    -94.513700   18.927800  -118.207000
  H    -89.380500   13.350800  -115.689000
  H    -95.704800   13.259100  -121.065000

 Total Charge           Charge          ....    0
 Multiplicity           Mult            ....    1
 Number of Electrons    NEL             ....  134
 Basis Dimension        Dim             ....  322

ORBITAL ENERGIES
----------------

  NO   OCC          E(Eh)            E(eV)
   0   2.0000     -88.973525     -2421.0927
   1   2.0000     -88.964954     -2420.8595
   2   2.0000     -10.324936      -280.9558
   3   2.0000     -10.322593      -280.8920
   4   2.0000     -10.318063      -280.7688
   5   2.0000     -10.312750      -280.6242
   6   2.0000     -10.309739      -280.5423
   7   2.0000     -10.303339      -280.3681
   8   2.0000     -10.299052      -280.2515
   9   2.0000     -10.290288      -280.0130
  10   2.0000     -10.288331      -279.9597
  11   2.0000     -10.286184      -279.9013
  12   2.0000     -10.284960      -279.8680
  13   2.0000     -10.283431      -279.8264
  14   2.0000     -10.282612      -279.8041
  15   2.0000     -10.278110      -279.6816
  16   2.0000      -8.088458      -220.0981
  17   2.0000      -8.079894      -219.8651
  18   2.0000      -6.046557      -164.5352
  19   2.0000      -6.042741      -164.4313
  20   2.0000      -6.039847      -164.3526
  21   2.0000      -6.038268      -164.3096
  22   2.0000      -6.034450      -164.2057
  23   2.0000      -6.030713      -164.1041
  24   2.0000      -1.006899       -27.3991
  25   2.0000      -0.983835       -26.7715
  26   2.0000      -0.911451       -24.8018
  27   2.0000      -0.905937       -24.6518
  28   2.0000      -0.863579       -23.4992
  29   2.0000      -0.852231       -23.1904
  30   2.0000      -0.846495       -23.0343
  31   2.0000      -0.802597       -21.8398
  32   2.0000      -0.784223       -21.3398
  33   2.0000      -0.770445       -20.9649
  34   2.0000      -0.704849       -19.1799
  35   2.0000      -0.696466       -18.9518
  36   2.0000      -0.692529       -18.8447
  37   2.0000      -0.662159       -18.0183
  38   2.0000      -0.649693       -17.6790
  39   2.0000      -0.611280       -16.6338
  40   2.0000      -0.598086       -16.2747
  41   2.0000      -0.571596       -15.5539
  42   2.0000      -0.565939       -15.4000
  43   2.0000      -0.554061       -15.0768
  44   2.0000      -0.541210       -14.7271
  45   2.0000      -0.523140       -14.2354
  46   2.0000      -0.518548       -14.1104
  47   2.0000      -0.510419       -13.8892
  48   2.0000      -0.499160       -13.5828
  49   2.0000      -0.493925       -13.4404
  50   2.0000      -0.482443       -13.1279
  51   2.0000      -0.472270       -12.8511
  52   2.0000      -0.469653       -12.7799
  53   2.0000      -0.465288       -12.6611
  54   2.0000      -0.458131       -12.4664
  55   2.0000      -0.447557       -12.1786
  56   2.0000      -0.444351       -12.0914
  57   2.0000      -0.440472       -11.9859
  58   2.0000      -0.435529       -11.8513
  59   2.0000      -0.427699       -11.6383
  60   2.0000      -0.424575       -11.5533
  61   2.0000      -0.415961       -11.3189
  62   2.0000      -0.404937       -11.0189
  63   2.0000      -0.341594        -9.2953
  64   2.0000      -0.326759        -8.8916
  65   2.0000      -0.310635        -8.4528
  66   2.0000      -0.306441        -8.3387
  67   0.0000       0.038801         1.0558
  68   0.0000       0.045849         1.2476
  69   0.0000       0.101611         2.7650
  70   0.0000       0.119936         3.2636
  71   0.0000       0.129364         3.5202

MULLIKEN ATOMIC CHARGES
-----------------------
   0 S :    0.143588
   1 C :   -0.103476
   2 C :   -0.077382
   3 C :    0.092302
   4 C :   -0.216971
   5 H :   -0.025057
   6 C :    0.064604
   7 H :    0.043625
   8 H :    0.024889
   9 C :   -0.098071
  10 H :    0.014197
  11 H :    0.013969
  12 C :   -0.051598
  13 H :    0.036733
  14 H :    0.052828
  15 H :    0.030898
  16 S :    0.121381
  17 C :   -0.079813
  18 C :   -0.039879
  19 C :    0.024545
  20 C :   -0.181634
  21 H :   -0.004641
  22 C :    0.037425
  23 H :    0.018095
  24 H :    0.033643
  25 C :   -0.068771
  26 H :    0.023440
  27 H :    0.029680
  28 C :   -0.066411
  29 H :    0.046913
  30 H :    0.042327
  31 H :    0.029915
  32 H :    0.029093
  33 H :    0.059612
Sum of atomic charges:   -0.0000000

LOEWDIN ATOMIC CHARGES
----------------------
   0 S :    0.456761
   1 C :   -0.195804
   2 C :   -0.054570
   3 C :   -0.050154
   4 C :   -0.221386
   5 H :    0.015742
   6 C :   -0.027687
   7 H :    0.037169
   8 H :    0.031299
   9 C :   -0.051553
  10 H :    0.020776
  11 H :    0.016388
  12 C :   -0.069963
  13 H :    0.026814
  14 H :    0.034567
  15 H :    0.026576
  16 S :    0.414015
  17 C :   -0.196075
  18 C :   -0.061797
  19 C :   -0.046525
  20 C :   -0.207211
  21 H :    0.013651
  22 C :   -0.035663
  23 H :    0.030765
  24 H :    0.031431
  25 C :   -0.028649
  26 H :    0.014595
  27 H :    0.022593
  28 C :   -0.065558
  29 H :    0.029295
  30 H :    0.025960
  31 H :    0.026584
  32 H :    0.009641
  33 H :    0.027973

  Mayer bond orders larger than 0.100000
B(  0-S ,  1-C ) :   1.1795 B(  0-S ,  4-C ) :   1.2062 B(  1-C ,  2-C ) :   1.5300
B(  1-C ,  4-C ) :   0.1226 B(  1-C , 32-H ) :   0.9768 B(  2-C ,  3-C ) :   1.3138
B(  2-C ,  6-C ) :   1.0030 B(  3-C ,  4-C ) :   1.5098 B(  3-C ,  5-H ) :   1.0077
B(  4-C , 20-C ) :   1.0159 B(  6-C ,  7-H ) :   0.9468 B(  6-C ,  8-H ) :   0.9518
B(  6-C ,  9-C ) :   1.0648 B(  9-C , 10-H ) :   0.9546 B(  9-C , 11-H ) :   0.9537
B(  9-C , 12-C ) :   1.0833 B( 12-C , 13-H ) :   0.9718 B( 12-C , 14-H ) :   0.9671
B( 12-C , 15-H ) :   0.9774 B( 16-S , 17-C ) :   1.1816 B( 16-S , 20-C ) :   1.1297
B( 17-C , 18-C ) :   1.5699 B( 17-C , 20-C ) :   0.1053 B( 17-C , 33-H ) :   0.9679
B( 18-C , 19-C ) :   1.2349 B( 18-C , 21-H ) :   0.9981 B( 19-C , 20-C ) :   1.5769
B( 19-C , 22-C ) :   1.0704 B( 22-C , 23-H ) :   0.9190 B( 22-C , 24-H ) :   0.9393
B( 22-C , 25-C ) :   1.0694 B( 25-C , 26-H ) :   0.9572 B( 25-C , 27-H ) :   0.9500
B( 25-C , 28-C ) :   1.0721 B( 28-C , 29-H ) :   0.9767 B( 28-C , 30-H ) :   0.9751
B( 28-C , 31-H ) :   0.9768

Dispersion correction           -0.014509560
FINAL SINGLE POINT ENERGY     -1339.851190364871

DIPOLE MOMENT
-------------
                                X             Y             Z
Electronic contribution:    -11.90931     -13.07845      -3.15135
Nuclear contribution   :     12.15377      13.54249       3.08873
                        -----------------------------------------
Total Dipole Moment    :      0.24446       0.46405      -0.06263
                        -----------------------------------------
Magnitude (a.u.)       :      0.52822
Magnitude (Debye)      :      1.34264

Rotational constants in cm-1:     0.020735     0.007907     0.006524
Rotational constants in MHz :   621.632772   237.031214   195.588018

                             ****ORCA TERMINATED NORMALLY****
TOTAL RUN TIME: 0 days 0 hours 0 minutes 22 seconds 412 msec
