                         Program Version 4.2.1 -  RELEASE  -
|  1> ! wB97X-D3 SP def2-SVP
|  2> %pal
|  3> nprocs 24
|  4> end
|  5>
|  6> * xyz 0 1
|  7> S 	 -97.2935 	 8.5225 	 -8.41942
|  8> C 	 -96.6802 	 9.83386 	 -9.30709
|  9> C 	 -95.4457 	 10.2244 	 -8.76246
| 10> C 	 -95.0405 	 9.34429 	 -7.72706
| 11> C 	 -95.8951 	 8.37423 	 -7.40371
| 12> H 	 -94.0667 	 9.39669 	 -7.20057
| 13> C 	 -94.4987 	 11.33 	 -9.30502
| 14> H 	 -95.1733 	 12.0582 	 -9.79454
| 15> H 	 -93.9133 	 10.8994 	 -10.1307
| 16> C 	 -93.4411 	 11.9663 	 -8.391
| 17> H 	 -93.8845 	 12.3845 	 -7.50391
| 18> H 	 -92.705 	 11.2733 	 -8.10924
| 19> C 	 -92.7952 	 13.1572 	 -9.10173
| 20> H 	 -92.599 	 12.9364 	 -10.1623
| 21> H 	 -93.5343 	 13.9577 	 -9.10861
| 22> H 	 -91.8242 	 13.4342 	 -8.69508
| 23> S 	 -95.9709 	 5.70126 	 -7.45997
| 24> C 	 -95.6597 	 4.77476 	 -6.04349
| 25> C 	 -95.0424 	 5.51679 	 -5.04242
| 26> C 	 -94.9818 	 6.91985 	 -5.36363
| 27> C 	 -95.6983 	 7.17837 	 -6.56802
| 28> H 	 -94.664 	 4.93682 	 -4.24724
| 29> C 	 -94.2501 	 7.92439 	 -4.4372
| 30> H 	 -93.4471 	 8.50128 	 -4.92457
| 31> H 	 -93.6514 	 7.32053 	 -3.6937
| 32> C 	 -95.1883 	 8.82711 	 -3.71162
| 33> H 	 -95.7643 	 8.1324 	 -3.05318
| 34> H 	 -95.8865 	 9.35434 	 -4.3569
| 35> C 	 -94.6543 	 9.91708 	 -2.69734
| 36> H 	 -93.8708 	 10.4977 	 -3.18222
| 37> H 	 -94.244 	 9.49245 	 -1.75425
| 38> H 	 -95.361 	 10.576 	 -2.29158
| 39> H 	 -97.2653 	 10.2793 	 -10.1143
| 40> H 	 -95.8664 	 3.73421 	 -6.09864
| 41> *
| 42>
| 43>                          ****END OF INPUT****

CARTESIAN COORDINATES (ANGSTROEM)
---------------------------------
  S    -97.293500    8.522500   -8.419420
  C    -96.680200    9.833860   -9.307090
  C    -95.445700   10.224400   -8.762460
  C    -95.040500    9.344290   -7.727060
  C    -95.895100    8.374230   -7.403710
  H    -94.066700    9.396690   -7.200570
  C    -94.498700   11.330000   -9.305020
  H    -95.173300   12.058200   -9.794540
  H    -93.913300   10.899400  -10.130700
  C    -93.441100   11.966300   -8.391000
  H    -93.884500   12.384500   -7.503910
  H    -92.705000   11.273300   -8.109240
  C    -92.795200   13.157200   -9.101730
  H    -92.599000   12.936400  -10.162300
  H    -93.534300   13.957700   -9.108610
  H    -91.824200   13.434200   -8.695080
  S    -95.970900    5.701260   -7.459970
  C    -95.659700    4.774760   -6.043490
  C    -95.042400    5.516790   -5.042420
  C    -94.981800    6.919850   -5.363630
  C    -95.698300    7.178370   -6.568020
  H    -94.664000    4.936820   -4.247240
  C    -94.250100    7.924390   -4.437200
  H    -93.447100    8.501280   -4.924570
  H    -93.651400    7.320530   -3.693700
  C    -95.188300    8.827110   -3.711620
  H    -95.764300    8.132400   -3.053180
  H    -95.886500    9.354340   -4.356900
  C    -94.654300    9.917080   -2.697340
  H    -93.870800   10.497700   -3.182220
  H    -94.244000    9.492450   -1.754250
  H    -95.361000   10.576000   -2.291580
  H    -97.265300   10.279300  -10.114300
  H    -95.866400    3.734210   -6.098640

 Total Charge           Charge          ....    0
 Multiplicity           Mult            ....    1
 Number of Electrons    NEL             ....  134
 Basis Dimension        Dim             ....  322

ORBITAL ENERGIES
----------------

  NO   OCC          E(Eh)            E(eV)
   0   2.0000     -88.964400     -2420.8444
   1   2.0000     -88.961664     -2420.7700
   2   2.0000     -10.330825      -281.1160
   3   2.0000     -10.321433      -280.8605
   4   2.0000     -10.315414      -280.6967
   5   2.0000     -10.314442      -280.6702
   6   2.0000     -10.311184      -280.5816
   7   2.0000     -10.303738      -280.3790
   8   2.0000     -10.301056      -280.3060
   9   2.0000     -10.296811      -280.1905
  10   2.0000     -10.295180      -280.1461
  11   2.0000     -10.287306      -279.9318
  12   2.0000     -10.286036      -279.8973
  13   2.0000     -10.283169      -279.8192
  14   2.0000     -10.279320      -279.7145
  15   2.0000     -10.276352      -279.6337
  16   2.0000      -8.079882      -219.8648
  17   2.0000      -8.077774      -219.8074
  18   2.0000      -6.038186      -164.3074
  19   2.0000      -6.036160      -164.2523
  20   2.0000      -6.034399      -164.2043
  21   2.0000      -6.031858      -164.1352
  22   2.0000      -6.030688      -164.1034
  23   2.0000      -6.028793      -164.0518
  24   2.0000      -1.013427       -27.5768
  25   2.0000      -0.987746       -26.8779
  26   2.0000      -0.911244       -24.7962
  27   2.0000      -0.906482       -24.6666
  28   2.0000      -0.871448       -23.7133
  29   2.0000      -0.851256       -23.1639
  30   2.0000      -0.844118       -22.9696
  31   2.0000      -0.814903       -22.1746
  32   2.0000      -0.784454       -21.3461
  33   2.0000      -0.769390       -20.9362
  34   2.0000      -0.710113       -19.3232
  35   2.0000      -0.697356       -18.9760
  36   2.0000      -0.684607       -18.6291
  37   2.0000      -0.664799       -18.0901
  38   2.0000      -0.643990       -17.5239
  39   2.0000      -0.622347       -16.9349
  40   2.0000      -0.598783       -16.2937
  41   2.0000      -0.576694       -15.6926
  42   2.0000      -0.567143       -15.4328
  43   2.0000      -0.558717       -15.2035
  44   2.0000      -0.527819       -14.3627
  45   2.0000      -0.520152       -14.1541
  46   2.0000      -0.517297       -14.0764
  47   2.0000      -0.507185       -13.8012
  48   2.0000      -0.504745       -13.7348
  49   2.0000      -0.495838       -13.4924
  50   2.0000      -0.491560       -13.3760
  51   2.0000      -0.484641       -13.1878
  52   2.0000      -0.471959       -12.8427
  53   2.0000      -0.465366       -12.6633
  54   2.0000      -0.458063       -12.4645
  55   2.0000      -0.449331       -12.2269
  56   2.0000      -0.445792       -12.1306
  57   2.0000      -0.440290       -11.9809
  58   2.0000      -0.435084       -11.8392
  59   2.0000      -0.426971       -11.6185
  60   2.0000      -0.417241       -11.3537
  61   2.0000      -0.413841       -11.2612
  62   2.0000      -0.407579       -11.0908
  63   2.0000      -0.351518        -9.5653
  64   2.0000      -0.330554        -8.9948
  65   2.0000      -0.324865        -8.8400
  66   2.0000      -0.290264        -7.8985
  67   0.0000       0.027063         0.7364
  68   0.0000       0.073965         2.0127
  69   0.0000       0.102427         2.7872
  70   0.0000       0.128297         3.4911
  71   0.0000       0.132971         3.6183

MULLIKEN ATOMIC CHARGES
-----------------------
   0 S :    0.107245
   1 C :   -0.140267
   2 C :   -0.066239
   3 C :    0.004496
   4 C :   -0.139757
   5 H :    0.014822
   6 C :    0.018689
   7 H :    0.024195
   8 H :    0.043339
   9 C :   -0.050889
  10 H :    0.030122
  11 H :    0.027205
  12 C :   -0.046076
  13 H :    0.020283
  14 H :    0.032673
  15 H :    0.035340
  16 S :    0.108631
  17 C :   -0.095048
  18 C :   -0.023293
  19 C :   -0.018833
  20 C :   -0.143107
  21 H :    0.008936
  22 C :    0.071677
  23 H :    0.029355
  24 H :    0.021618
  25 C :   -0.094971
  26 H :    0.029300
  27 H :    0.045986
  28 C :   -0.039988
  29 H :    0.025881
  30 H :    0.024061
  31 H :    0.025783
  32 H :    0.059720
  33 H :    0.049108
Sum of atomic charges:    0.0000000

LOEWDIN ATOMIC CHARGES
----------------------
   0 S :    0.432085
   1 C :   -0.214507
   2 C :   -0.066649
   3 C :   -0.072624
   4 C :   -0.211147
   5 H :    0.035783
   6 C :   -0.034452
   7 H :    0.030520
   8 H :    0.036199
   9 C :   -0.038086
  10 H :    0.023840
  11 H :    0.016594
  12 C :   -0.060013
  13 H :    0.022924
  14 H :    0.026240
  15 H :    0.026114
  16 S :    0.428236
  17 C :   -0.188108
  18 C :   -0.067336
  19 C :   -0.047461
  20 C :   -0.194272
  21 H :    0.028142
  22 C :   -0.035496
  23 H :    0.025365
  24 H :    0.036171
  25 C :   -0.045695
  26 H :    0.029860
  27 H :    0.026640
  28 C :   -0.068047
  29 H :    0.021107
  30 H :    0.026040
  31 H :    0.021038
  32 H :    0.032272
  33 H :    0.018725

  Mayer bond orders larger than 0.100000
B(  0-S ,  1-C ) :   1.1689 B(  0-S ,  4-C ) :   1.1604 B(  1-C ,  2-C ) :   1.5588
B(  1-C , 32-H ) :   0.9755 B(  2-C ,  3-C ) :   1.2731 B(  2-C ,  6-C ) :   1.0065
B(  3-C ,  4-C ) :   1.5787 B(  3-C ,  5-H ) :   0.9865 B(  4-C , 20-C ) :   1.0159
B(  6-C ,  7-H ) :   0.9492 B(  6-C ,  8-H ) :   0.9363 B(  6-C ,  9-C ) :   1.0717
B(  9-C , 10-H ) :   0.9611 B(  9-C , 11-H ) :   0.9457 B(  9-C , 12-C ) :   1.0846
B( 12-C , 13-H ) :   0.9733 B( 12-C , 14-H ) :   0.9779 B( 12-C , 15-H ) :   0.9734
B( 16-S , 17-C ) :   1.1734 B( 16-S , 20-C ) :   1.1798 B( 17-C , 18-C ) :   1.5803
B( 17-C , 20-C ) :   0.1066 B( 17-C , 33-H ) :   0.9746 B( 18-C , 19-C ) :   1.2430
B( 18-C , 21-H ) :   1.0037 B( 19-C , 20-C ) :   1.5561 B( 19-C , 22-C ) :   1.0328
B( 22-C , 23-H ) :   0.9350 B( 22-C , 24-H ) :   0.9352 B( 22-C , 25-C ) :   1.0638
B( 25-C , 26-H ) :   0.9542 B( 25-C , 27-H ) :   0.9621 B( 25-C , 28-C ) :   1.0740
B( 28-C , 29-H ) :   0.9761 B( 28-C , 30-H ) :   0.9764 B( 28-C , 31-H ) :   0.9758

Dispersion correction           -0.013593589
FINAL SINGLE POINT ENERGY     -1339.869109077592

DIPOLE MOMENT
-------------
                                X             Y             Z
Electronic contribution:    -16.69803     -23.50099     -10.73125
Nuclear contribution   :     17.22778      23.76113      10.84166
                        -----------------------------------------
Total Dipole Moment    :      0.52974       0.26014       0.11041
                        -----------------------------------------
Magnitude (a.u.)       :      0.60041
Magnitude (Debye)      :      1.52612

Rotational constants in cm-1:     0.016382     0.009061     0.006674
Rotational constants in MHz :   491.113327   271.644188   200.078029

                             ****ORCA TERMINATED NORMALLY****
TOTAL RUN TIME: 0 days 0 hours 0 minutes 20 seconds 264 msec
