                         Program Version 4.2.1 -  RELEASE  -
|  1> ! wB97X-D3 SP def2-SVP
|  2> %pal
|  3> nprocs 24
|  4> end
|  5>
|  6> * xyz 0 1
|  7> S 	 -90.5252 	 -37.0933 	 -64.1809
|  8> C 	 -91.5952 	 -37.9469 	 -65.3706
|  9> C 	 -92.706 	 -38.4732 	 -64.7212
| 10> C 	 -92.5209 	 -38.3628 	 -63.2998
| 11> C 	 -91.3797 	 -37.7719 	 -62.7848
| 12> H 	 -93.2941 	 -38.8057 	 -62.6479
| 13> C 	 -94.0097 	 -38.999 	 -65.3731
| 14> H 	 -94.542 	 -38.183 	 -65.8994
| 15> H 	 -94.6341 	 -39.2594 	 -64.5341
| 16> C 	 -93.7931 	 -40.1605 	 -66.3239
| 17> H 	 -92.8038 	 -40.0356 	 -66.8562
| 18> H 	 -93.8422 	 -41.1177 	 -65.8597
| 19> C 	 -94.9237 	 -40.1285 	 -67.316
| 20> H 	 -95.7981 	 -40.0872 	 -66.7244
| 21> H 	 -94.8932 	 -39.2609 	 -68.0161
| 22> H 	 -94.9193 	 -40.9733 	 -67.901
| 23> S 	 -91.2299 	 -39.0409 	 -60.3873
| 24> C 	 -90.4006 	 -38.2735 	 -59.057
| 25> C 	 -90.1015 	 -36.9707 	 -59.3894
| 26> C 	 -90.5359 	 -36.5615 	 -60.6852
| 27> C 	 -91.0836 	 -37.6332 	 -61.4068
| 28> H 	 -89.6483 	 -36.3555 	 -58.6724
| 29> C 	 -90.2031 	 -35.1413 	 -61.2127
| 30> H 	 -90.5084 	 -35.0548 	 -62.2741
| 31> H 	 -89.0714 	 -35.1261 	 -61.2571
| 32> C 	 -90.6952 	 -33.9928 	 -60.4416
| 33> H 	 -90.3051 	 -33.0599 	 -60.8862
| 34> H 	 -90.3437 	 -34.0797 	 -59.4237
| 35> C 	 -92.2662 	 -33.8521 	 -60.4199
| 36> H 	 -92.4954 	 -32.876 	 -59.9447
| 37> H 	 -92.6825 	 -34.691 	 -59.8605
| 38> H 	 -92.5744 	 -33.8599 	 -61.4469
| 39> H 	 -91.442 	 -37.9068 	 -66.3889
| 40> H 	 -90.2288 	 -38.737 	 -58.08
| 41> *
| 42>
| 43>                          ****END OF INPUT****

CARTESIAN COORDINATES (ANGSTROEM)
---------------------------------
  S    -90.525200  -37.093300  -64.180900
  C    -91.595200  -37.946900  -65.370600
  C    -92.706000  -38.473200  -64.721200
  C    -92.520900  -38.362800  -63.299800
  C    -91.379700  -37.771900  -62.784800
  H    -93.294100  -38.805700  -62.647900
  C    -94.009700  -38.999000  -65.373100
  H    -94.542000  -38.183000  -65.899400
  H    -94.634100  -39.259400  -64.534100
  C    -93.793100  -40.160500  -66.323900
  H    -92.803800  -40.035600  -66.856200
  H    -93.842200  -41.117700  -65.859700
  C    -94.923700  -40.128500  -67.316000
  H    -95.798100  -40.087200  -66.724400
  H    -94.893200  -39.260900  -68.016100
  H    -94.919300  -40.973300  -67.901000
  S    -91.229900  -39.040900  -60.387300
  C    -90.400600  -38.273500  -59.057000
  C    -90.101500  -36.970700  -59.389400
  C    -90.535900  -36.561500  -60.685200
  C    -91.083600  -37.633200  -61.406800
  H    -89.648300  -36.355500  -58.672400
  C    -90.203100  -35.141300  -61.212700
  H    -90.508400  -35.054800  -62.274100
  H    -89.071400  -35.126100  -61.257100
  C    -90.695200  -33.992800  -60.441600
  H    -90.305100  -33.059900  -60.886200
  H    -90.343700  -34.079700  -59.423700
  C    -92.266200  -33.852100  -60.419900
  H    -92.495400  -32.876000  -59.944700
  H    -92.682500  -34.691000  -59.860500
  H    -92.574400  -33.859900  -61.446900
  H    -91.442000  -37.906800  -66.388900
  H    -90.228800  -38.737000  -58.080000

 Total Charge           Charge          ....    0
 Multiplicity           Mult            ....    1
 Number of Electrons    NEL             ....  134
 Basis Dimension        Dim             ....  322

ORBITAL ENERGIES
----------------

  NO   OCC          E(Eh)            E(eV)
   0   2.0000     -88.966607     -2420.9044
   1   2.0000     -88.965990     -2420.8877
   2   2.0000     -10.330212      -281.0993
   3   2.0000     -10.326899      -281.0092
   4   2.0000     -10.318828      -280.7896
   5   2.0000     -10.315674      -280.7037
   6   2.0000     -10.305884      -280.4373
   7   2.0000     -10.304468      -280.3988
   8   2.0000     -10.296088      -280.1708
   9   2.0000     -10.293968      -280.1131
  10   2.0000     -10.293442      -280.0988
  11   2.0000     -10.290332      -280.0142
  12   2.0000     -10.285145      -279.8730
  13   2.0000     -10.282654      -279.8052
  14   2.0000     -10.274813      -279.5919
  15   2.0000     -10.268724      -279.4262
  16   2.0000      -8.080846      -219.8910
  17   2.0000      -8.079559      -219.8560
  18   2.0000      -6.039368      -164.3396
  19   2.0000      -6.038399      -164.3132
  20   2.0000      -6.035284      -164.2284
  21   2.0000      -6.034324      -164.2023
  22   2.0000      -6.031621      -164.1287
  23   2.0000      -6.030055      -164.0861
  24   2.0000      -1.005575       -27.3631
  25   2.0000      -0.978893       -26.6370
  26   2.0000      -0.919527       -25.0216
  27   2.0000      -0.910690       -24.7811
  28   2.0000      -0.876257       -23.8442
  29   2.0000      -0.848509       -23.0891
  30   2.0000      -0.840082       -22.8598
  31   2.0000      -0.810335       -22.0503
  32   2.0000      -0.782458       -21.2918
  33   2.0000      -0.774391       -21.0722
  34   2.0000      -0.712930       -19.3998
  35   2.0000      -0.700350       -19.0575
  36   2.0000      -0.690453       -18.7882
  37   2.0000      -0.662647       -18.0315
  38   2.0000      -0.634396       -17.2628
  39   2.0000      -0.618465       -16.8293
  40   2.0000      -0.600235       -16.3332
  41   2.0000      -0.578307       -15.7365
  42   2.0000      -0.566620       -15.4185
  43   2.0000      -0.549402       -14.9500
  44   2.0000      -0.545224       -14.8363
  45   2.0000      -0.532055       -14.4780
  46   2.0000      -0.521490       -14.1905
  47   2.0000      -0.512448       -13.9444
  48   2.0000      -0.509653       -13.8684
  49   2.0000      -0.498930       -13.5766
  50   2.0000      -0.488955       -13.3051
  51   2.0000      -0.474764       -12.9190
  52   2.0000      -0.470454       -12.8017
  53   2.0000      -0.465095       -12.6559
  54   2.0000      -0.458863       -12.4863
  55   2.0000      -0.446091       -12.1387
  56   2.0000      -0.443892       -12.0789
  57   2.0000      -0.438884       -11.9427
  58   2.0000      -0.429334       -11.6828
  59   2.0000      -0.428051       -11.6478
  60   2.0000      -0.419241       -11.4081
  61   2.0000      -0.414498       -11.2791
  62   2.0000      -0.407472       -11.0879
  63   2.0000      -0.353243        -9.6122
  64   2.0000      -0.330459        -8.9923
  65   2.0000      -0.327576        -8.9138
  66   2.0000      -0.285445        -7.7674
  67   0.0000       0.021807         0.5934
  68   0.0000       0.069365         1.8875
  69   0.0000       0.100569         2.7366
  70   0.0000       0.121729         3.3124
  71   0.0000       0.124988         3.4011

MULLIKEN ATOMIC CHARGES
-----------------------
   0 S :    0.093087
   1 C :   -0.117586
   2 C :   -0.071221
   3 C :   -0.025674
   4 C :   -0.102251
   5 H :    0.015652
   6 C :    0.074682
   7 H :    0.046699
   8 H :    0.016409
   9 C :   -0.075825
  10 H :    0.038986
  11 H :    0.031217
  12 C :   -0.020956
  13 H :    0.020750
  14 H :    0.034626
  15 H :    0.010277
  16 S :    0.112449
  17 C :   -0.098380
  18 C :   -0.025375
  19 C :   -0.045055
  20 C :   -0.159518
  21 H :    0.001549
  22 C :    0.045221
  23 H :    0.018319
  24 H :    0.049393
  25 C :   -0.077618
  26 H :    0.033065
  27 H :    0.021245
  28 C :   -0.052788
  29 H :    0.040702
  30 H :    0.048601
  31 H :    0.029140
  32 H :    0.022883
  33 H :    0.067294
Sum of atomic charges:   -0.0000000

LOEWDIN ATOMIC CHARGES
----------------------
   0 S :    0.377860
   1 C :   -0.162830
   2 C :   -0.058324
   3 C :   -0.072821
   4 C :   -0.189885
   5 H :    0.026998
   6 C :   -0.027083
   7 H :    0.038032
   8 H :    0.028439
   9 C :   -0.036877
  10 H :    0.028234
  11 H :    0.024538
  12 C :   -0.054794
  13 H :    0.020424
  14 H :    0.028055
  15 H :    0.012387
  16 S :    0.418412
  17 C :   -0.187830
  18 C :   -0.066941
  19 C :   -0.056249
  20 C :   -0.199270
  21 H :    0.021521
  22 C :   -0.041573
  23 H :    0.020629
  24 H :    0.042100
  25 C :   -0.044347
  26 H :    0.029024
  27 H :    0.017576
  28 C :   -0.058983
  29 H :    0.029282
  30 H :    0.027421
  31 H :    0.021550
  32 H :    0.009556
  33 H :    0.035767

  Mayer bond orders larger than 0.100000
B(  0-S ,  1-C ) :   1.1320 B(  0-S ,  4-C ) :   1.1128 B(  1-C ,  2-C ) :   1.5908
B(  1-C , 32-H ) :   0.9818 B(  2-C ,  3-C ) :   1.2704 B(  2-C ,  6-C ) :   1.0041
B(  3-C ,  4-C ) :   1.5461 B(  3-C ,  5-H ) :   0.9811 B(  4-C , 20-C ) :   1.1023
B(  6-C ,  7-H ) :   0.9507 B(  6-C ,  8-H ) :   0.9303 B(  6-C ,  9-C ) :   1.0531
B(  9-C , 10-H ) :   0.9654 B(  9-C , 11-H ) :   0.9529 B(  9-C , 12-C ) :   1.0834
B( 12-C , 13-H ) :   0.9715 B( 12-C , 14-H ) :   0.9763 B( 12-C , 15-H ) :   0.9705
B( 16-S , 17-C ) :   1.1518 B( 16-S , 20-C ) :   1.1484 B( 17-C , 18-C ) :   1.5974
B( 17-C , 33-H ) :   0.9675 B( 18-C , 19-C ) :   1.2459 B( 18-C , 21-H ) :   0.9978
B( 19-C , 20-C ) :   1.5453 B( 19-C , 22-C ) :   1.0259 B( 22-C , 23-H ) :   0.9296
B( 22-C , 24-H ) :   0.9365 B( 22-C , 25-C ) :   1.0905 B( 25-C , 26-H ) :   0.9509
B( 25-C , 27-H ) :   0.9547 B( 25-C , 28-C ) :   1.0677 B( 28-C , 29-H ) :   0.9763
B( 28-C , 30-H ) :   0.9769 B( 28-C , 31-H ) :   0.9774

Dispersion correction           -0.013683050
FINAL SINGLE POINT ENERGY     -1339.873271806887

DIPOLE MOMENT
-------------
                                X             Y             Z
Electronic contribution:     13.02293      -6.60284       8.80085
Nuclear contribution   :    -13.32994       6.69955      -8.84192
                        -----------------------------------------
Total Dipole Moment    :     -0.30702       0.09671      -0.04108
                        -----------------------------------------
Magnitude (a.u.)       :      0.32450
Magnitude (Debye)      :      0.82481

Rotational constants in cm-1:     0.023638     0.006976     0.006172
Rotational constants in MHz :   708.662179   209.120507   185.019952

                             ****ORCA TERMINATED NORMALLY****
TOTAL RUN TIME: 0 days 0 hours 0 minutes 19 seconds 817 msec
