                         Program Version 4.2.1 -  RELEASE  -
|  1> ! wB97X-D3 SP def2-SVP
|  2> %pal
|  3> nprocs 24
|  4> end
|  5>
|  6> * xyz 0 1
|  7> S 	 -105.852 	 43.2573 	 -95.5956
|  8> C 	 -106.032 	 42.0411 	 -94.366
|  9> C 	 -105.27 	 42.3521 	 -93.1889
| 10> C 	 -104.64 	 43.6402 	 -93.3169
| 11> C 	 -104.799 	 44.2296 	 -94.5612
| 12> H 	 -104.1 	 44.1848 	 -92.6041
| 13> C 	 -105.101 	 41.4299 	 -92.0205
| 14> H 	 -105.441 	 40.4184 	 -92.2561
| 15> H 	 -105.751 	 41.8297 	 -91.2375
| 16> C 	 -103.672 	 41.1938 	 -91.5933
| 17> H 	 -102.983 	 40.9504 	 -92.4388
| 18> H 	 -103.351 	 42.1494 	 -91.2133
| 19> C 	 -103.512 	 40.1627 	 -90.5092
| 20> H 	 -104.055 	 40.4832 	 -89.6336
| 21> H 	 -103.894 	 39.1488 	 -90.8271
| 22> H 	 -102.432 	 40.0936 	 -90.2335
| 23> S 	 -105.985 	 46.6249 	 -95.1615
| 24> C 	 -104.931 	 48.0273 	 -95.269
| 25> C 	 -103.62 	 47.7651 	 -95.0039
| 26> C 	 -103.37 	 46.3205 	 -94.8561
| 27> C 	 -104.532 	 45.6191 	 -94.8373
| 28> H 	 -102.843 	 48.5312 	 -94.9687
| 29> C 	 -101.935 	 45.823 	 -94.6343
| 30> H 	 -101.822 	 44.7402 	 -94.4174
| 31> H 	 -101.497 	 46.3523 	 -93.8371
| 32> C 	 -101.125 	 45.9173 	 -95.9446
| 33> H 	 -100.859 	 46.9239 	 -96.2449
| 34> H 	 -101.6 	 45.4222 	 -96.7729
| 35> C 	 -99.7158 	 45.1618 	 -95.7609
| 36> H 	 -99.0686 	 45.3495 	 -96.6181
| 37> H 	 -99.9162 	 44.0744 	 -95.6861
| 38> H 	 -99.2367 	 45.4998 	 -94.8303
| 39> H 	 -106.698 	 41.1843 	 -94.3157
| 40> H 	 -105.183 	 49.0714 	 -95.3232
| 41> *
| 42>
| 43>                          ****END OF INPUT****

CARTESIAN COORDINATES (ANGSTROEM)
---------------------------------
  S    -105.852000   43.257300  -95.595600
  C    -106.032000   42.041100  -94.366000
  C    -105.270000   42.352100  -93.188900
  C    -104.640000   43.640200  -93.316900
  C    -104.799000   44.229600  -94.561200
  H    -104.100000   44.184800  -92.604100
  C    -105.101000   41.429900  -92.020500
  H    -105.441000   40.418400  -92.256100
  H    -105.751000   41.829700  -91.237500
  C    -103.672000   41.193800  -91.593300
  H    -102.983000   40.950400  -92.438800
  H    -103.351000   42.149400  -91.213300
  C    -103.512000   40.162700  -90.509200
  H    -104.055000   40.483200  -89.633600
  H    -103.894000   39.148800  -90.827100
  H    -102.432000   40.093600  -90.233500
  S    -105.985000   46.624900  -95.161500
  C    -104.931000   48.027300  -95.269000
  C    -103.620000   47.765100  -95.003900
  C    -103.370000   46.320500  -94.856100
  C    -104.532000   45.619100  -94.837300
  H    -102.843000   48.531200  -94.968700
  C    -101.935000   45.823000  -94.634300
  H    -101.822000   44.740200  -94.417400
  H    -101.497000   46.352300  -93.837100
  C    -101.125000   45.917300  -95.944600
  H    -100.859000   46.923900  -96.244900
  H    -101.600000   45.422200  -96.772900
  C    -99.715800   45.161800  -95.760900
  H    -99.068600   45.349500  -96.618100
  H    -99.916200   44.074400  -95.686100
  H    -99.236700   45.499800  -94.830300
  H    -106.698000   41.184300  -94.315700
  H    -105.183000   49.071400  -95.323200

 Total Charge           Charge          ....    0
 Multiplicity           Mult            ....    1
 Number of Electrons    NEL             ....  134
 Basis Dimension        Dim             ....  322

ORBITAL ENERGIES
----------------

  NO   OCC          E(Eh)            E(eV)
   0   2.0000     -88.968890     -2420.9666
   1   2.0000     -88.964769     -2420.8544
   2   2.0000     -10.325591      -280.9736
   3   2.0000     -10.324577      -280.9460
   4   2.0000     -10.317119      -280.7431
   5   2.0000     -10.313960      -280.6571
   6   2.0000     -10.304987      -280.4129
   7   2.0000     -10.304824      -280.4085
   8   2.0000     -10.294700      -280.1330
   9   2.0000     -10.294086      -280.1163
  10   2.0000     -10.292333      -280.0686
  11   2.0000     -10.290158      -280.0094
  12   2.0000     -10.286791      -279.9178
  13   2.0000     -10.284350      -279.8514
  14   2.0000     -10.283268      -279.8219
  15   2.0000     -10.282486      -279.8007
  16   2.0000      -8.083039      -219.9507
  17   2.0000      -8.078787      -219.8350
  18   2.0000      -6.041512      -164.3979
  19   2.0000      -6.037555      -164.2902
  20   2.0000      -6.037525      -164.2894
  21   2.0000      -6.033979      -164.1929
  22   2.0000      -6.033623      -164.1832
  23   2.0000      -6.029070      -164.0593
  24   2.0000      -1.002150       -27.2699
  25   2.0000      -0.976896       -26.5827
  26   2.0000      -0.918330       -24.9890
  27   2.0000      -0.903675       -24.5902
  28   2.0000      -0.869804       -23.6686
  29   2.0000      -0.851070       -23.1588
  30   2.0000      -0.841034       -22.8857
  31   2.0000      -0.814205       -22.1556
  32   2.0000      -0.779595       -21.2139
  33   2.0000      -0.767990       -20.8981
  34   2.0000      -0.707036       -19.2394
  35   2.0000      -0.696075       -18.9412
  36   2.0000      -0.688645       -18.7390
  37   2.0000      -0.658819       -17.9274
  38   2.0000      -0.644002       -17.5242
  39   2.0000      -0.618439       -16.8286
  40   2.0000      -0.595583       -16.2066
  41   2.0000      -0.573644       -15.6096
  42   2.0000      -0.567716       -15.4483
  43   2.0000      -0.561727       -15.2854
  44   2.0000      -0.527420       -14.3518
  45   2.0000      -0.521743       -14.1973
  46   2.0000      -0.517610       -14.0849
  47   2.0000      -0.504474       -13.7274
  48   2.0000      -0.501285       -13.6407
  49   2.0000      -0.499895       -13.6028
  50   2.0000      -0.491289       -13.3687
  51   2.0000      -0.479501       -13.0479
  52   2.0000      -0.468058       -12.7365
  53   2.0000      -0.459663       -12.5081
  54   2.0000      -0.455684       -12.3998
  55   2.0000      -0.450379       -12.2554
  56   2.0000      -0.447066       -12.1653
  57   2.0000      -0.440750       -11.9934
  58   2.0000      -0.434591       -11.8258
  59   2.0000      -0.428408       -11.6576
  60   2.0000      -0.422786       -11.5046
  61   2.0000      -0.413701       -11.2574
  62   2.0000      -0.408715       -11.1217
  63   2.0000      -0.345771        -9.4089
  64   2.0000      -0.330097        -8.9824
  65   2.0000      -0.323652        -8.8070
  66   2.0000      -0.294303        -8.0084
  67   0.0000       0.033181         0.9029
  68   0.0000       0.066947         1.8217
  69   0.0000       0.109190         2.9712
  70   0.0000       0.122099         3.3225
  71   0.0000       0.129658         3.5282

MULLIKEN ATOMIC CHARGES
-----------------------
   0 S :    0.117015
   1 C :   -0.106510
   2 C :   -0.109775
   3 C :    0.059796
   4 C :   -0.172045
   5 H :   -0.002502
   6 C :    0.075895
   7 H :    0.007653
   8 H :    0.042502
   9 C :   -0.095822
  10 H :    0.042139
  11 H :    0.016830
  12 C :   -0.046912
  13 H :    0.025637
  14 H :    0.038305
  15 H :    0.042791
  16 S :    0.107174
  17 C :   -0.062776
  18 C :   -0.045002
  19 C :   -0.034028
  20 C :   -0.163104
  21 H :    0.023556
  22 C :    0.086190
  23 H :    0.025439
  24 H :    0.023074
  25 C :   -0.091624
  26 H :    0.027519
  27 H :    0.039438
  28 C :   -0.085350
  29 H :    0.042058
  30 H :    0.041783
  31 H :    0.032748
  32 H :    0.049830
  33 H :    0.048080
Sum of atomic charges:   -0.0000000

LOEWDIN ATOMIC CHARGES
----------------------
   0 S :    0.407641
   1 C :   -0.208819
   2 C :   -0.057583
   3 C :   -0.047514
   4 C :   -0.196915
   5 H :    0.023138
   6 C :   -0.037374
   7 H :    0.026738
   8 H :    0.036351
   9 C :   -0.046688
  10 H :    0.031700
  11 H :    0.017709
  12 C :   -0.065658
  13 H :    0.022225
  14 H :    0.028190
  15 H :    0.033357
  16 S :    0.375950
  17 C :   -0.180429
  18 C :   -0.067707
  19 C :   -0.050056
  20 C :   -0.184493
  21 H :    0.031679
  22 C :   -0.027197
  23 H :    0.035077
  24 H :    0.024586
  25 C :   -0.030847
  26 H :    0.016674
  27 H :    0.025447
  28 C :   -0.069768
  29 H :    0.025358
  30 H :    0.025718
  31 H :    0.022588
  32 H :    0.030839
  33 H :    0.030084

  Mayer bond orders larger than 0.100000
B(  0-S ,  1-C ) :   1.1468 B(  0-S ,  4-C ) :   1.1417 B(  1-C ,  2-C ) :   1.5950
B(  1-C , 32-H ) :   0.9637 B(  2-C ,  3-C ) :   1.2377 B(  2-C ,  6-C ) :   1.0320
B(  3-C ,  4-C ) :   1.5749 B(  3-C ,  5-H ) :   0.9962 B(  4-C , 20-C ) :   1.0392
B(  6-C ,  7-H ) :   0.9441 B(  6-C ,  8-H ) :   0.9277 B(  6-C ,  9-C ) :   1.0635
B(  9-C , 10-H ) :   0.9568 B(  9-C , 11-H ) :   0.9458 B(  9-C , 12-C ) :   1.0988
B( 12-C , 13-H ) :   0.9713 B( 12-C , 14-H ) :   0.9728 B( 12-C , 15-H ) :   0.9721
B( 16-S , 17-C ) :   1.1206 B( 16-S , 20-C ) :   1.0994 B( 17-C , 18-C ) :   1.6894
B( 17-C , 33-H ) :   0.9606 B( 18-C , 19-C ) :   1.1718 B( 18-C , 21-H ) :   0.9823
B( 19-C , 20-C ) :   1.6879 B( 19-C , 22-C ) :   1.0436 B( 22-C , 23-H ) :   0.9409
B( 22-C , 24-H ) :   0.9350 B( 22-C , 25-C ) :   1.0549 B( 25-C , 26-H ) :   0.9598
B( 25-C , 27-H ) :   0.9601 B( 25-C , 28-C ) :   1.0768 B( 28-C , 29-H ) :   0.9772
B( 28-C , 30-H ) :   0.9776 B( 28-C , 31-H ) :   0.9762

Dispersion correction           -0.013508792
FINAL SINGLE POINT ENERGY     -1339.878787832138

DIPOLE MOMENT
-------------
                                X             Y             Z
Electronic contribution:    -23.36845      11.92658     -12.82604
Nuclear contribution   :     23.86880     -11.95106      13.34381
                        -----------------------------------------
Total Dipole Moment    :      0.50035      -0.02448       0.51777
                        -----------------------------------------
Magnitude (a.u.)       :      0.72044
Magnitude (Debye)      :      1.83121

Rotational constants in cm-1:     0.016622     0.008480     0.006554
Rotational constants in MHz :   498.308942   254.225519   196.476039

                             ****ORCA TERMINATED NORMALLY****
TOTAL RUN TIME: 0 days 0 hours 0 minutes 19 seconds 956 msec
