                         Program Version 4.2.1 -  RELEASE  -
|  1> ! wB97X-D3 SP def2-SVP
|  2> %pal
|  3> nprocs 24
|  4> end
|  5>
|  6> * xyz 0 1
|  7> S 	 -138.24 	 10.4186 	 3.54041
|  8> C 	 -138.961 	 9.34035 	 2.31345
|  9> C 	 -140.357 	 9.22661 	 2.46383
| 10> C 	 -140.722 	 9.73794 	 3.74753
| 11> C 	 -139.662 	 10.2905 	 4.49541
| 12> H 	 -141.718 	 9.78771 	 4.1676
| 13> C 	 -141.292 	 8.73578 	 1.308
| 14> H 	 -140.672 	 8.00154 	 0.760349
| 15> H 	 -141.478 	 9.55448 	 0.549737
| 16> C 	 -142.649 	 8.09086 	 1.66721
| 17> H 	 -142.41 	 7.20679 	 2.29335
| 18> H 	 -143.307 	 8.76939 	 2.21924
| 19> C 	 -143.376 	 7.67432 	 0.449694
| 20> H 	 -143.829 	 8.45949 	 -0.187965
| 21> H 	 -142.718 	 7.31078 	 -0.317345
| 22> H 	 -144.144 	 6.87804 	 0.6866
| 23> S 	 -141.008 	 12.168 	 6.00316
| 24> C 	 -140.493 	 12.5357 	 7.64275
| 25> C 	 -139.534 	 11.6542 	 8.10203
| 26> C 	 -139.085 	 10.7557 	 7.06364
| 27> C 	 -139.816 	 10.8204 	 5.85
| 28> H 	 -139.009 	 11.8555 	 9.05733
| 29> C 	 -137.903 	 9.81306 	 7.37888
| 30> H 	 -137.337 	 10.3448 	 8.05099
| 31> H 	 -137.397 	 9.54852 	 6.47863
| 32> C 	 -138.22 	 8.51472 	 8.20597
| 33> H 	 -138.658 	 7.84986 	 7.47087
| 34> H 	 -139.007 	 8.68128 	 8.95814
| 35> C 	 -136.983 	 7.81678 	 8.90888
| 36> H 	 -136.659 	 8.23807 	 9.85089
| 37> H 	 -136.14 	 7.71846 	 8.27474
| 38> H 	 -137.347 	 6.8106 	 9.18287
| 39> H 	 -138.429 	 9.01184 	 1.43477
| 40> H 	 -140.813 	 13.4477 	 8.18624
| 41> *
| 42>
| 43>                          ****END OF INPUT****

CARTESIAN COORDINATES (ANGSTROEM)
---------------------------------
  S    -138.240000   10.418600    3.540410
  C    -138.961000    9.340350    2.313450
  C    -140.357000    9.226610    2.463830
  C    -140.722000    9.737940    3.747530
  C    -139.662000   10.290500    4.495410
  H    -141.718000    9.787710    4.167600
  C    -141.292000    8.735780    1.308000
  H    -140.672000    8.001540    0.760349
  H    -141.478000    9.554480    0.549737
  C    -142.649000    8.090860    1.667210
  H    -142.410000    7.206790    2.293350
  H    -143.307000    8.769390    2.219240
  C    -143.376000    7.674320    0.449694
  H    -143.829000    8.459490   -0.187965
  H    -142.718000    7.310780   -0.317345
  H    -144.144000    6.878040    0.686600
  S    -141.008000   12.168000    6.003160
  C    -140.493000   12.535700    7.642750
  C    -139.534000   11.654200    8.102030
  C    -139.085000   10.755700    7.063640
  C    -139.816000   10.820400    5.850000
  H    -139.009000   11.855500    9.057330
  C    -137.903000    9.813060    7.378880
  H    -137.337000   10.344800    8.050990
  H    -137.397000    9.548520    6.478630
  C    -138.220000    8.514720    8.205970
  H    -138.658000    7.849860    7.470870
  H    -139.007000    8.681280    8.958140
  C    -136.983000    7.816780    8.908880
  H    -136.659000    8.238070    9.850890
  H    -136.140000    7.718460    8.274740
  H    -137.347000    6.810600    9.182870
  H    -138.429000    9.011840    1.434770
  H    -140.813000   13.447700    8.186240

 Total Charge           Charge          ....    0
 Multiplicity           Mult            ....    1
 Number of Electrons    NEL             ....  134
 Basis Dimension        Dim             ....  322

ORBITAL ENERGIES
----------------

  NO   OCC          E(Eh)            E(eV)
   0   2.0000     -88.971630     -2421.0411
   1   2.0000     -88.963582     -2420.8222
   2   2.0000     -10.333308      -281.1836
   3   2.0000     -10.330712      -281.1130
   4   2.0000     -10.323920      -280.9281
   5   2.0000     -10.316931      -280.7380
   6   2.0000     -10.312924      -280.6289
   7   2.0000     -10.310228      -280.5556
   8   2.0000     -10.305791      -280.4348
   9   2.0000     -10.299109      -280.2530
  10   2.0000     -10.294839      -280.1368
  11   2.0000     -10.289441      -279.9899
  12   2.0000     -10.288156      -279.9550
  13   2.0000     -10.282908      -279.8122
  14   2.0000     -10.279500      -279.7194
  15   2.0000     -10.278279      -279.6862
  16   2.0000      -8.085748      -220.0244
  17   2.0000      -8.077470      -219.7991
  18   2.0000      -6.044157      -164.4699
  19   2.0000      -6.040502      -164.3704
  20   2.0000      -6.036489      -164.2612
  21   2.0000      -6.036012      -164.2482
  22   2.0000      -6.032039      -164.1401
  23   2.0000      -6.028289      -164.0381
  24   2.0000      -0.999542       -27.1989
  25   2.0000      -0.976245       -26.5650
  26   2.0000      -0.912630       -24.8339
  27   2.0000      -0.897871       -24.4323
  28   2.0000      -0.869014       -23.6471
  29   2.0000      -0.848639       -23.0926
  30   2.0000      -0.840518       -22.8716
  31   2.0000      -0.808361       -21.9966
  32   2.0000      -0.782570       -21.2948
  33   2.0000      -0.769232       -20.9319
  34   2.0000      -0.708808       -19.2876
  35   2.0000      -0.697594       -18.9825
  36   2.0000      -0.686318       -18.6757
  37   2.0000      -0.662814       -18.0361
  38   2.0000      -0.634684       -17.2706
  39   2.0000      -0.613437       -16.6925
  40   2.0000      -0.590584       -16.0706
  41   2.0000      -0.570147       -15.5145
  42   2.0000      -0.564454       -15.3596
  43   2.0000      -0.558790       -15.2055
  44   2.0000      -0.528501       -14.3813
  45   2.0000      -0.520380       -14.1602
  46   2.0000      -0.511618       -13.9218
  47   2.0000      -0.506320       -13.7777
  48   2.0000      -0.503145       -13.6913
  49   2.0000      -0.495781       -13.4909
  50   2.0000      -0.493736       -13.4352
  51   2.0000      -0.474666       -12.9163
  52   2.0000      -0.471190       -12.8217
  53   2.0000      -0.467098       -12.7104
  54   2.0000      -0.455709       -12.4005
  55   2.0000      -0.449218       -12.2239
  56   2.0000      -0.445922       -12.1341
  57   2.0000      -0.436672       -11.8825
  58   2.0000      -0.431875       -11.7519
  59   2.0000      -0.425462       -11.5774
  60   2.0000      -0.418649       -11.3920
  61   2.0000      -0.417174       -11.3519
  62   2.0000      -0.411409       -11.1950
  63   2.0000      -0.339046        -9.2259
  64   2.0000      -0.332217        -9.0401
  65   2.0000      -0.325787        -8.8651
  66   2.0000      -0.290409        -7.9024
  67   0.0000       0.025934         0.7057
  68   0.0000       0.058864         1.6018
  69   0.0000       0.097629         2.6566
  70   0.0000       0.119584         3.2540
  71   0.0000       0.120537         3.2800

MULLIKEN ATOMIC CHARGES
-----------------------
   0 S :    0.132804
   1 C :   -0.141205
   2 C :   -0.043356
   3 C :   -0.004329
   4 C :   -0.133218
   5 H :    0.012911
   6 C :    0.008942
   7 H :    0.027501
   8 H :    0.053627
   9 C :   -0.061943
  10 H :    0.041597
  11 H :    0.041728
  12 C :   -0.056071
  13 H :    0.028511
  14 H :    0.008737
  15 H :    0.048916
  16 S :    0.085752
  17 C :   -0.108826
  18 C :   -0.036415
  19 C :   -0.078837
  20 C :   -0.151509
  21 H :    0.040797
  22 C :    0.131907
  23 H :   -0.007752
  24 H :    0.019996
  25 C :   -0.093492
  26 H :    0.031760
  27 H :    0.031275
  28 C :   -0.045344
  29 H :    0.031271
  30 H :    0.030279
  31 H :    0.033264
  32 H :    0.044784
  33 H :    0.075940
Sum of atomic charges:    0.0000000

LOEWDIN ATOMIC CHARGES
----------------------
   0 S :    0.417990
   1 C :   -0.191601
   2 C :   -0.056318
   3 C :   -0.068685
   4 C :   -0.212592
   5 H :    0.027378
   6 C :   -0.034373
   7 H :    0.032564
   8 H :    0.039098
   9 C :   -0.048992
  10 H :    0.032591
  11 H :    0.027095
  12 C :   -0.076347
  13 H :    0.029074
  14 H :    0.019862
  15 H :    0.036747
  16 S :    0.381613
  17 C :   -0.179256
  18 C :   -0.083243
  19 C :   -0.043038
  20 C :   -0.190636
  21 H :    0.040523
  22 C :   -0.022368
  23 H :    0.016318
  24 H :    0.022453
  25 C :   -0.034695
  26 H :    0.023290
  27 H :    0.024880
  28 C :   -0.064257
  29 H :    0.022657
  30 H :    0.019268
  31 H :    0.032920
  32 H :    0.021891
  33 H :    0.038189

  Mayer bond orders larger than 0.100000
B(  0-S ,  1-C ) :   1.1450 B(  0-S ,  4-C ) :   1.1587 B(  1-C ,  2-C ) :   1.5817
B(  1-C ,  4-C ) :   0.1015 B(  1-C , 32-H ) :   0.9711 B(  2-C ,  3-C ) :   1.2631
B(  2-C ,  6-C ) :   1.0043 B(  3-C ,  4-C ) :   1.5257 B(  3-C ,  5-H ) :   0.9986
B(  4-C , 20-C ) :   1.0614 B(  6-C ,  7-H ) :   0.9394 B(  6-C ,  8-H ) :   0.9441
B(  6-C ,  9-C ) :   1.0714 B(  9-C , 10-H ) :   0.9551 B(  9-C , 11-H ) :   0.9486
B(  9-C , 12-C ) :   1.0909 B( 12-C , 13-H ) :   0.9684 B( 12-C , 14-H ) :   0.9682
B( 12-C , 15-H ) :   0.9713 B( 16-S , 17-C ) :   1.1670 B( 16-S , 20-C ) :   1.1110
B( 17-C , 18-C ) :   1.6149 B( 17-C , 33-H ) :   0.9599 B( 18-C , 19-C ) :   1.2357
B( 18-C , 21-H ) :   0.9786 B( 19-C , 20-C ) :   1.5887 B( 19-C , 22-C ) :   1.0507
B( 22-C , 23-H ) :   0.9268 B( 22-C , 24-H ) :   0.9363 B( 22-C , 25-C ) :   1.0575
B( 25-C , 26-H ) :   0.9609 B( 25-C , 27-H ) :   0.9591 B( 25-C , 28-C ) :   1.0718
B( 28-C , 29-H ) :   0.9768 B( 28-C , 30-H ) :   0.9790 B( 28-C , 31-H ) :   0.9741

Dispersion correction           -0.013148376
FINAL SINGLE POINT ENERGY     -1339.862764320901

DIPOLE MOMENT
-------------
                                X             Y             Z
Electronic contribution:      3.34385      19.32277       1.16826
Nuclear contribution   :     -3.33954     -19.48332      -1.18772
                        -----------------------------------------
Total Dipole Moment    :      0.00431      -0.16055      -0.01946
                        -----------------------------------------
Magnitude (a.u.)       :      0.16178
Magnitude (Debye)      :      0.41122

Rotational constants in cm-1:     0.018889     0.006971     0.006159
Rotational constants in MHz :   566.292649   208.974018   184.655065

                             ****ORCA TERMINATED NORMALLY****
TOTAL RUN TIME: 0 days 0 hours 0 minutes 20 seconds 181 msec
