                         Program Version 4.2.1 -  RELEASE  -
|  1> ! wB97X-D3 SP def2-SVP
|  2> %pal
|  3> nprocs 24
|  4> end
|  5>
|  6> * xyz 0 1
|  7> S 	 -133.488 	 5.62488 	 -13.3619
|  8> C 	 -133.293 	 6.84744 	 -14.4826
|  9> C 	 -133.018 	 8.02562 	 -13.8614
| 10> C 	 -133.043 	 7.97114 	 -12.4627
| 11> C 	 -133.233 	 6.65487 	 -12.0197
| 12> H 	 -132.894 	 8.77754 	 -11.7121
| 13> C 	 -132.841 	 9.39934 	 -14.5258
| 14> H 	 -132.38 	 9.17238 	 -15.5223
| 15> H 	 -131.953 	 9.91972 	 -14.0592
| 16> C 	 -134.097 	 10.2675 	 -14.7446
| 17> H 	 -133.883 	 11.1049 	 -15.4373
| 18> H 	 -135.047 	 9.79745 	 -15.1758
| 19> C 	 -134.683 	 10.91 	 -13.4261
| 20> H 	 -135.588 	 11.6694 	 -13.5879
| 21> H 	 -135.217 	 10.1278 	 -12.8877
| 22> H 	 -134.038 	 11.4348 	 -12.66
| 23> S 	 -134.904 	 5.20146 	 -10.3875
| 24> C 	 -134.692 	 5.26858 	 -8.64391
| 25> C 	 -133.687 	 6.16431 	 -8.30995
| 26> C 	 -133.054 	 6.77706 	 -9.41768
| 27> C 	 -133.576 	 6.33579 	 -10.6232
| 28> H 	 -133.506 	 6.35725 	 -7.32165
| 29> C 	 -131.911 	 7.72863 	 -9.13166
| 30> H 	 -131.657 	 8.27592 	 -10.0056
| 31> H 	 -131.145 	 7.07171 	 -8.99259
| 32> C 	 -131.963 	 8.65767 	 -7.95033
| 33> H 	 -132.271 	 8.08829 	 -7.06865
| 34> H 	 -132.741 	 9.42735 	 -8.14919
| 35> C 	 -130.629 	 9.42765 	 -7.79356
| 36> H 	 -130.504 	 10.1467 	 -8.59705
| 37> H 	 -129.877 	 8.61198 	 -7.86694
| 38> H 	 -130.461 	 10.0293 	 -6.87151
| 39> H 	 -133.381 	 6.74278 	 -15.5685
| 40> H 	 -135.154 	 4.62626 	 -7.96729
| 41> *
| 42>
| 43>                          ****END OF INPUT****

CARTESIAN COORDINATES (ANGSTROEM)
---------------------------------
  S    -133.488000    5.624880  -13.361900
  C    -133.293000    6.847440  -14.482600
  C    -133.018000    8.025620  -13.861400
  C    -133.043000    7.971140  -12.462700
  C    -133.233000    6.654870  -12.019700
  H    -132.894000    8.777540  -11.712100
  C    -132.841000    9.399340  -14.525800
  H    -132.380000    9.172380  -15.522300
  H    -131.953000    9.919720  -14.059200
  C    -134.097000   10.267500  -14.744600
  H    -133.883000   11.104900  -15.437300
  H    -135.047000    9.797450  -15.175800
  C    -134.683000   10.910000  -13.426100
  H    -135.588000   11.669400  -13.587900
  H    -135.217000   10.127800  -12.887700
  H    -134.038000   11.434800  -12.660000
  S    -134.904000    5.201460  -10.387500
  C    -134.692000    5.268580   -8.643910
  C    -133.687000    6.164310   -8.309950
  C    -133.054000    6.777060   -9.417680
  C    -133.576000    6.335790  -10.623200
  H    -133.506000    6.357250   -7.321650
  C    -131.911000    7.728630   -9.131660
  H    -131.657000    8.275920  -10.005600
  H    -131.145000    7.071710   -8.992590
  C    -131.963000    8.657670   -7.950330
  H    -132.271000    8.088290   -7.068650
  H    -132.741000    9.427350   -8.149190
  C    -130.629000    9.427650   -7.793560
  H    -130.504000   10.146700   -8.597050
  H    -129.877000    8.611980   -7.866940
  H    -130.461000   10.029300   -6.871510
  H    -133.381000    6.742780  -15.568500
  H    -135.154000    4.626260   -7.967290

 Total Charge           Charge          ....    0
 Multiplicity           Mult            ....    1
 Number of Electrons    NEL             ....  134
 Basis Dimension        Dim             ....  322

ORBITAL ENERGIES
----------------

  NO   OCC          E(Eh)            E(eV)
   0   2.0000     -88.969404     -2420.9806
   1   2.0000     -88.963950     -2420.8322
   2   2.0000     -10.328233      -281.0455
   3   2.0000     -10.325677      -280.9760
   4   2.0000     -10.312045      -280.6050
   5   2.0000     -10.309377      -280.5324
   6   2.0000     -10.302770      -280.3526
   7   2.0000     -10.302280      -280.3393
   8   2.0000     -10.300971      -280.3037
   9   2.0000     -10.295903      -280.1658
  10   2.0000     -10.292549      -280.0745
  11   2.0000     -10.291373      -280.0425
  12   2.0000     -10.289590      -279.9940
  13   2.0000     -10.287020      -279.9241
  14   2.0000     -10.285056      -279.8706
  15   2.0000     -10.280323      -279.7418
  16   2.0000      -8.086002      -220.0313
  17   2.0000      -8.078431      -219.8253
  18   2.0000      -6.044307      -164.4739
  19   2.0000      -6.040039      -164.3578
  20   2.0000      -6.037074      -164.2771
  21   2.0000      -6.036945      -164.2736
  22   2.0000      -6.032986      -164.1659
  23   2.0000      -6.029200      -164.0629
  24   2.0000      -1.017902       -27.6985
  25   2.0000      -0.989472       -26.9249
  26   2.0000      -0.918487       -24.9933
  27   2.0000      -0.902515       -24.5587
  28   2.0000      -0.870074       -23.6759
  29   2.0000      -0.853527       -23.2256
  30   2.0000      -0.845233       -23.0000
  31   2.0000      -0.813401       -22.1338
  32   2.0000      -0.782083       -21.2816
  33   2.0000      -0.772315       -21.0158
  34   2.0000      -0.708354       -19.2753
  35   2.0000      -0.700831       -19.0706
  36   2.0000      -0.695492       -18.9253
  37   2.0000      -0.665812       -18.1177
  38   2.0000      -0.642968       -17.4961
  39   2.0000      -0.616376       -16.7724
  40   2.0000      -0.600995       -16.3539
  41   2.0000      -0.577955       -15.7269
  42   2.0000      -0.571479       -15.5507
  43   2.0000      -0.539099       -14.6696
  44   2.0000      -0.534947       -14.5566
  45   2.0000      -0.524845       -14.2818
  46   2.0000      -0.515520       -14.0280
  47   2.0000      -0.513995       -13.9865
  48   2.0000      -0.508009       -13.8236
  49   2.0000      -0.501611       -13.6495
  50   2.0000      -0.489708       -13.3256
  51   2.0000      -0.482295       -13.1239
  52   2.0000      -0.474475       -12.9111
  53   2.0000      -0.463880       -12.6228
  54   2.0000      -0.456701       -12.4275
  55   2.0000      -0.455777       -12.4023
  56   2.0000      -0.441917       -12.0252
  57   2.0000      -0.434040       -11.8108
  58   2.0000      -0.429223       -11.6797
  59   2.0000      -0.427600       -11.6356
  60   2.0000      -0.418502       -11.3880
  61   2.0000      -0.412631       -11.2283
  62   2.0000      -0.409005       -11.1296
  63   2.0000      -0.354632        -9.6500
  64   2.0000      -0.334727        -9.1084
  65   2.0000      -0.330944        -9.0054
  66   2.0000      -0.285704        -7.7744
  67   0.0000       0.027338         0.7439
  68   0.0000       0.081583         2.2200
  69   0.0000       0.111819         3.0427
  70   0.0000       0.123233         3.3533
  71   0.0000       0.131255         3.5716

MULLIKEN ATOMIC CHARGES
-----------------------
   0 S :    0.130052
   1 C :   -0.122634
   2 C :   -0.078474
   3 C :   -0.003632
   4 C :   -0.143820
   5 H :    0.035266
   6 C :    0.042281
   7 H :    0.020251
   8 H :    0.043882
   9 C :   -0.051074
  10 H :    0.041098
  11 H :    0.048744
  12 C :   -0.139277
  13 H :    0.040627
  14 H :    0.040808
  15 H :    0.041970
  16 S :    0.097283
  17 C :   -0.069809
  18 C :   -0.021045
  19 C :   -0.026208
  20 C :   -0.156581
  21 H :   -0.017042
  22 C :    0.123884
  23 H :   -0.007673
  24 H :    0.009017
  25 C :   -0.087128
  26 H :    0.035404
  27 H :    0.033686
  28 C :   -0.058713
  29 H :    0.033252
  30 H :    0.030934
  31 H :    0.046560
  32 H :    0.053226
  33 H :    0.034887
Sum of atomic charges:   -0.0000000

LOEWDIN ATOMIC CHARGES
----------------------
   0 S :    0.462524
   1 C :   -0.224701
   2 C :   -0.075740
   3 C :   -0.062781
   4 C :   -0.214152
   5 H :    0.038214
   6 C :   -0.041463
   7 H :    0.032490
   8 H :    0.040345
   9 C :   -0.045949
  10 H :    0.027228
  11 H :    0.040695
  12 C :   -0.095685
  13 H :    0.036515
  14 H :    0.022394
  15 H :    0.024127
  16 S :    0.393716
  17 C :   -0.171280
  18 C :   -0.058954
  19 C :   -0.053755
  20 C :   -0.189074
  21 H :    0.014300
  22 C :   -0.026506
  23 H :    0.022222
  24 H :    0.024832
  25 C :   -0.039097
  26 H :    0.021660
  27 H :    0.026939
  28 C :   -0.066457
  29 H :    0.024747
  30 H :    0.027470
  31 H :    0.031955
  32 H :    0.036829
  33 H :    0.016392

  Mayer bond orders larger than 0.100000
B(  0-S ,  1-C ) :   1.1650 B(  0-S ,  4-C ) :   1.1875 B(  1-C ,  2-C ) :   1.5705
B(  1-C , 32-H ) :   0.9682 B(  2-C ,  3-C ) :   1.3024 B(  2-C ,  6-C ) :   1.0136
B(  3-C ,  4-C ) :   1.5070 B(  3-C ,  5-H ) :   0.9845 B(  4-C , 20-C ) :   1.0477
B(  6-C ,  7-H ) :   0.9378 B(  6-C ,  8-H ) :   0.9474 B(  6-C ,  9-C ) :   1.0572
B(  9-C , 10-H ) :   0.9602 B(  9-C , 11-H ) :   0.9576 B(  9-C , 12-C ) :   1.0545
B( 12-C , 13-H ) :   0.9743 B( 12-C , 14-H ) :   0.9758 B( 12-C , 15-H ) :   0.9774
B( 16-S , 17-C ) :   1.1496 B( 16-S , 20-C ) :   1.1383 B( 17-C , 18-C ) :   1.6070
B( 17-C , 33-H ) :   0.9739 B( 18-C , 19-C ) :   1.2449 B( 18-C , 21-H ) :   1.0022
B( 19-C , 20-C ) :   1.6015 B( 19-C , 22-C ) :   1.0217 B( 22-C , 23-H ) :   0.9296
B( 22-C , 24-H ) :   0.9137 B( 22-C , 25-C ) :   1.0677 B( 25-C , 26-H ) :   0.9500
B( 25-C , 27-H ) :   0.9572 B( 25-C , 28-C ) :   1.0718 B( 28-C , 29-H ) :   0.9754
B( 28-C , 30-H ) :   0.9767 B( 28-C , 31-H ) :   0.9750

Dispersion correction           -0.013885665
FINAL SINGLE POINT ENERGY     -1339.862301963469

DIPOLE MOMENT
-------------
                                X             Y             Z
Electronic contribution:     -8.38272     -27.19113      -5.16896
Nuclear contribution   :      8.61600      27.68911       5.29561
                        -----------------------------------------
Total Dipole Moment    :      0.23328       0.49799       0.12665
                        -----------------------------------------
Magnitude (a.u.)       :      0.56431
Magnitude (Debye)      :      1.43437

Rotational constants in cm-1:     0.015941     0.009460     0.006932
Rotational constants in MHz :   477.909841   283.594775   207.806077

                             ****ORCA TERMINATED NORMALLY****
TOTAL RUN TIME: 0 days 0 hours 0 minutes 21 seconds 506 msec
