                         Program Version 4.2.1 -  RELEASE  -
|  1> ! wB97X-D3 SP def2-SVP
|  2> %pal
|  3> nprocs 24
|  4> end
|  5>
|  6> * xyz 0 1
|  7> S 	 -123.365 	 61.3753 	 -52.5472
|  8> C 	 -123 	 62.8517 	 -51.6422
|  9> C 	 -124.159 	 63.5994 	 -51.322
| 10> C 	 -125.279 	 63.1494 	 -52.0736
| 11> C 	 -125.09 	 61.9414 	 -52.7089
| 12> H 	 -126.258 	 63.6664 	 -52.1356
| 13> C 	 -124.126 	 64.8671 	 -50.5387
| 14> H 	 -123.163 	 65.149 	 -50.2613
| 15> H 	 -124.662 	 64.7075 	 -49.5781
| 16> C 	 -124.826 	 66.0255 	 -51.3401
| 17> H 	 -125.837 	 65.7705 	 -51.5133
| 18> H 	 -124.942 	 66.927 	 -50.8329
| 19> C 	 -124.198 	 66.3586 	 -52.7271
| 20> H 	 -124.726 	 67.0987 	 -53.3029
| 21> H 	 -123.191 	 66.6874 	 -52.4768
| 22> H 	 -124.02 	 65.4966 	 -53.3116
| 23> S 	 -125.463 	 61.2243 	 -55.2338
| 24> C 	 -127.032 	 60.7051 	 -55.7588
| 25> C 	 -127.928 	 60.6474 	 -54.7324
| 26> C 	 -127.385 	 61.0503 	 -53.4668
| 27> C 	 -126.062 	 61.4399 	 -53.6065
| 28> H 	 -128.848 	 60.1411 	 -54.9184
| 29> C 	 -128.078 	 60.7499 	 -52.1705
| 30> H 	 -127.845 	 61.6963 	 -51.5802
| 31> H 	 -127.545 	 59.8704 	 -51.7388
| 32> C 	 -129.574 	 60.4092 	 -52.2205
| 33> H 	 -129.721 	 59.5659 	 -52.8699
| 34> H 	 -130.163 	 61.2836 	 -52.6383
| 35> C 	 -130.151 	 60.2244 	 -50.8059
| 36> H 	 -129.614 	 59.467 	 -50.3258
| 37> H 	 -131.141 	 59.8324 	 -50.9747
| 38> H 	 -130.153 	 61.2121 	 -50.2597
| 39> H 	 -122.043 	 63.089 	 -51.2385
| 40> H 	 -127.294 	 60.5832 	 -56.7791
| 41> *
| 42>
| 43>                          ****END OF INPUT****

CARTESIAN COORDINATES (ANGSTROEM)
---------------------------------
  S    -123.365000   61.375300  -52.547200
  C    -123.000000   62.851700  -51.642200
  C    -124.159000   63.599400  -51.322000
  C    -125.279000   63.149400  -52.073600
  C    -125.090000   61.941400  -52.708900
  H    -126.258000   63.666400  -52.135600
  C    -124.126000   64.867100  -50.538700
  H    -123.163000   65.149000  -50.261300
  H    -124.662000   64.707500  -49.578100
  C    -124.826000   66.025500  -51.340100
  H    -125.837000   65.770500  -51.513300
  H    -124.942000   66.927000  -50.832900
  C    -124.198000   66.358600  -52.727100
  H    -124.726000   67.098700  -53.302900
  H    -123.191000   66.687400  -52.476800
  H    -124.020000   65.496600  -53.311600
  S    -125.463000   61.224300  -55.233800
  C    -127.032000   60.705100  -55.758800
  C    -127.928000   60.647400  -54.732400
  C    -127.385000   61.050300  -53.466800
  C    -126.062000   61.439900  -53.606500
  H    -128.848000   60.141100  -54.918400
  C    -128.078000   60.749900  -52.170500
  H    -127.845000   61.696300  -51.580200
  H    -127.545000   59.870400  -51.738800
  C    -129.574000   60.409200  -52.220500
  H    -129.721000   59.565900  -52.869900
  H    -130.163000   61.283600  -52.638300
  C    -130.151000   60.224400  -50.805900
  H    -129.614000   59.467000  -50.325800
  H    -131.141000   59.832400  -50.974700
  H    -130.153000   61.212100  -50.259700
  H    -122.043000   63.089000  -51.238500
  H    -127.294000   60.583200  -56.779100

 Total Charge           Charge          ....    0
 Multiplicity           Mult            ....    1
 Number of Electrons    NEL             ....  134
 Basis Dimension        Dim             ....  322

ORBITAL ENERGIES
----------------

  NO   OCC          E(Eh)            E(eV)
   0   2.0000     -88.969762     -2420.9903
   1   2.0000     -88.961024     -2420.7525
   2   2.0000     -10.328217      -281.0451
   3   2.0000     -10.318974      -280.7936
   4   2.0000     -10.315992      -280.7124
   5   2.0000     -10.308662      -280.5130
   6   2.0000     -10.302393      -280.3424
   7   2.0000     -10.300997      -280.3044
   8   2.0000     -10.296176      -280.1732
   9   2.0000     -10.294888      -280.1381
  10   2.0000     -10.292603      -280.0760
  11   2.0000     -10.290513      -280.0191
  12   2.0000     -10.286686      -279.9150
  13   2.0000     -10.279774      -279.7269
  14   2.0000     -10.277840      -279.6742
  15   2.0000     -10.268105      -279.4093
  16   2.0000      -8.082765      -219.9432
  17   2.0000      -8.076437      -219.7710
  18   2.0000      -6.041403      -164.3949
  19   2.0000      -6.037682      -164.2937
  20   2.0000      -6.034833      -164.2162
  21   2.0000      -6.033328      -164.1752
  22   2.0000      -6.030860      -164.1081
  23   2.0000      -6.027264      -164.0102
  24   2.0000      -1.006303       -27.3829
  25   2.0000      -0.978107       -26.6157
  26   2.0000      -0.911181       -24.7945
  27   2.0000      -0.908696       -24.7269
  28   2.0000      -0.872340       -23.7376
  29   2.0000      -0.853700       -23.2303
  30   2.0000      -0.842265       -22.9192
  31   2.0000      -0.815471       -22.1901
  32   2.0000      -0.781418       -21.2635
  33   2.0000      -0.768486       -20.9116
  34   2.0000      -0.714476       -19.4419
  35   2.0000      -0.700856       -19.0712
  36   2.0000      -0.697970       -18.9927
  37   2.0000      -0.652468       -17.7546
  38   2.0000      -0.638054       -17.3623
  39   2.0000      -0.622298       -16.9336
  40   2.0000      -0.595156       -16.1950
  41   2.0000      -0.575682       -15.6651
  42   2.0000      -0.559431       -15.2229
  43   2.0000      -0.552553       -15.0357
  44   2.0000      -0.535227       -14.5643
  45   2.0000      -0.530421       -14.4335
  46   2.0000      -0.518111       -14.0985
  47   2.0000      -0.512740       -13.9524
  48   2.0000      -0.506753       -13.7894
  49   2.0000      -0.496644       -13.5144
  50   2.0000      -0.487601       -13.2683
  51   2.0000      -0.478025       -13.0077
  52   2.0000      -0.470032       -12.7902
  53   2.0000      -0.462909       -12.5964
  54   2.0000      -0.456592       -12.4245
  55   2.0000      -0.450098       -12.2478
  56   2.0000      -0.446700       -12.1553
  57   2.0000      -0.438338       -11.9278
  58   2.0000      -0.428018       -11.6469
  59   2.0000      -0.426247       -11.5988
  60   2.0000      -0.421978       -11.4826
  61   2.0000      -0.417997       -11.3743
  62   2.0000      -0.416055       -11.3214
  63   2.0000      -0.347859        -9.4657
  64   2.0000      -0.328574        -8.9410
  65   2.0000      -0.326232        -8.8772
  66   2.0000      -0.285078        -7.7574
  67   0.0000       0.027057         0.7363
  68   0.0000       0.066549         1.8109
  69   0.0000       0.108764         2.9596
  70   0.0000       0.122853         3.3430
  71   0.0000       0.126142         3.4325

MULLIKEN ATOMIC CHARGES
-----------------------
   0 S :    0.108004
   1 C :   -0.118683
   2 C :   -0.094143
   3 C :   -0.004619
   4 C :   -0.142634
   5 H :    0.041603
   6 C :    0.121349
   7 H :   -0.001962
   8 H :    0.042855
   9 C :   -0.072724
  10 H :    0.008134
  11 H :    0.010367
  12 C :   -0.034239
  13 H :    0.038652
  14 H :    0.015949
  15 H :    0.033972
  16 S :    0.106168
  17 C :   -0.071880
  18 C :   -0.047413
  19 C :   -0.027196
  20 C :   -0.174247
  21 H :    0.012899
  22 C :    0.041182
  23 H :    0.032976
  24 H :    0.053513
  25 C :   -0.130334
  26 H :    0.032682
  27 H :    0.037067
  28 C :    0.002213
  29 H :    0.017549
  30 H :    0.028308
  31 H :    0.050062
  32 H :    0.040782
  33 H :    0.043791
Sum of atomic charges:   -0.0000000

LOEWDIN ATOMIC CHARGES
----------------------
   0 S :    0.365794
   1 C :   -0.187973
   2 C :   -0.059507
   3 C :   -0.056913
   4 C :   -0.179825
   5 H :    0.039628
   6 C :   -0.021100
   7 H :    0.017970
   8 H :    0.041383
   9 C :   -0.033586
  10 H :    0.012943
  11 H :    0.015532
  12 C :   -0.058335
  13 H :    0.025810
  14 H :    0.023632
  15 H :    0.020984
  16 S :    0.413396
  17 C :   -0.181902
  18 C :   -0.075515
  19 C :   -0.059471
  20 C :   -0.198759
  21 H :    0.027800
  22 C :   -0.040245
  23 H :    0.039293
  24 H :    0.042272
  25 C :   -0.046306
  26 H :    0.018736
  27 H :    0.030345
  28 C :   -0.055702
  29 H :    0.014777
  30 H :    0.026508
  31 H :    0.036255
  32 H :    0.020146
  33 H :    0.021935

  Mayer bond orders larger than 0.100000
B(  0-S ,  1-C ) :   1.1275 B(  0-S ,  4-C ) :   1.1136 B(  1-C ,  2-C ) :   1.6040
B(  1-C , 32-H ) :   0.9671 B(  2-C ,  3-C ) :   1.2270 B(  2-C ,  6-C ) :   1.0404
B(  3-C ,  4-C ) :   1.5982 B(  3-C ,  5-H ) :   0.9757 B(  4-C , 20-C ) :   1.0781
B(  6-C ,  7-H ) :   0.9429 B(  6-C ,  8-H ) :   0.9275 B(  6-C ,  9-C ) :   1.0646
B(  9-C , 10-H ) :   0.9531 B(  9-C , 11-H ) :   0.9557 B(  9-C , 12-C ) :   1.0678
B( 12-C , 13-H ) :   0.9760 B( 12-C , 14-H ) :   0.9755 B( 12-C , 15-H ) :   0.9752
B( 16-S , 17-C ) :   1.1565 B( 16-S , 20-C ) :   1.1421 B( 17-C , 18-C ) :   1.6186
B( 17-C , 33-H ) :   0.9661 B( 18-C , 19-C ) :   1.2352 B( 18-C , 21-H ) :   0.9899
B( 19-C , 20-C ) :   1.5919 B( 19-C , 22-C ) :   1.0313 B( 22-C , 23-H ) :   0.9265
B( 22-C , 24-H ) :   0.9310 B( 22-C , 25-C ) :   1.0863 B( 25-C , 26-H ) :   0.9439
B( 25-C , 27-H ) :   0.9570 B( 25-C , 28-C ) :   1.0851 B( 28-C , 29-H ) :   0.9729
B( 28-C , 30-H ) :   0.9708 B( 28-C , 31-H ) :   0.9750

Dispersion correction           -0.014197679
FINAL SINGLE POINT ENERGY     -1339.866349711090

DIPOLE MOMENT
-------------
                                X             Y             Z
Electronic contribution:     15.57006     -12.11583     -13.05790
Nuclear contribution   :    -16.05512      12.33848      13.35778
                        -----------------------------------------
Total Dipole Moment    :     -0.48506       0.22265       0.29988
                        -----------------------------------------
Magnitude (a.u.)       :      0.61220
Magnitude (Debye)      :      1.55608

Rotational constants in cm-1:     0.017272     0.008650     0.007236
Rotational constants in MHz :   517.790710   259.309044   216.936486

                             ****ORCA TERMINATED NORMALLY****
TOTAL RUN TIME: 0 days 0 hours 0 minutes 20 seconds 620 msec
