                         Program Version 4.2.1 -  RELEASE  -
|  1> ! wB97X-D3 SP def2-SVP
|  2> %pal
|  3> nprocs 24
|  4> end
|  5>
|  6> * xyz 0 1
|  7> S 	 -82.214 	 -13.54 	 -59.2177
|  8> C 	 -81.4261 	 -12.1511 	 -59.9154
|  9> C 	 -81.2682 	 -11.1949 	 -58.9016
| 10> C 	 -81.7818 	 -11.5349 	 -57.6099
| 11> C 	 -82.3131 	 -12.8116 	 -57.5788
| 12> H 	 -81.6602 	 -10.9708 	 -56.7014
| 13> C 	 -80.5271 	 -9.87079 	 -59.0823
| 14> H 	 -79.5682 	 -10.0593 	 -59.6417
| 15> H 	 -80.2268 	 -9.51318 	 -58.0584
| 16> C 	 -81.3309 	 -8.85245 	 -59.9488
| 17> H 	 -81.453 	 -9.30295 	 -60.884
| 18> H 	 -82.3601 	 -8.73972 	 -59.5632
| 19> C 	 -80.6476 	 -7.44755 	 -60.191
| 20> H 	 -81.4461 	 -6.89079 	 -60.6707
| 21> H 	 -80.3249 	 -6.82585 	 -59.3401
| 22> H 	 -79.8489 	 -7.54308 	 -60.9301
| 23> S 	 -82.2069 	 -14.9151 	 -55.9752
| 24> C 	 -83.4672 	 -15.3217 	 -54.8018
| 25> C 	 -84.2211 	 -14.1687 	 -54.6872
| 26> C 	 -83.8771 	 -13.0716 	 -55.5379
| 27> C 	 -82.9022 	 -13.4406 	 -56.4418
| 28> H 	 -84.9836 	 -14.2081 	 -53.9543
| 29> C 	 -84.7234 	 -11.7891 	 -55.5766
| 30> H 	 -84.6101 	 -11.2544 	 -56.5236
| 31> H 	 -84.383 	 -11.082 	 -54.7634
| 32> C 	 -86.2518 	 -11.8559 	 -55.4921
| 33> H 	 -86.6128 	 -10.7767 	 -55.3791
| 34> H 	 -86.4559 	 -12.2207 	 -54.4963
| 35> C 	 -86.922 	 -12.7057 	 -56.5545
| 36> H 	 -86.5691 	 -13.7742 	 -56.7096
| 37> H 	 -86.7709 	 -12.1576 	 -57.5267
| 38> H 	 -88.0264 	 -12.6627 	 -56.4597
| 39> H 	 -81.1112 	 -12.0099 	 -60.959
| 40> H 	 -83.4908 	 -16.1274 	 -54.112
| 41> *
| 42>
| 43>                          ****END OF INPUT****

CARTESIAN COORDINATES (ANGSTROEM)
---------------------------------
  S    -82.214000  -13.540000  -59.217700
  C    -81.426100  -12.151100  -59.915400
  C    -81.268200  -11.194900  -58.901600
  C    -81.781800  -11.534900  -57.609900
  C    -82.313100  -12.811600  -57.578800
  H    -81.660200  -10.970800  -56.701400
  C    -80.527100   -9.870790  -59.082300
  H    -79.568200  -10.059300  -59.641700
  H    -80.226800   -9.513180  -58.058400
  C    -81.330900   -8.852450  -59.948800
  H    -81.453000   -9.302950  -60.884000
  H    -82.360100   -8.739720  -59.563200
  C    -80.647600   -7.447550  -60.191000
  H    -81.446100   -6.890790  -60.670700
  H    -80.324900   -6.825850  -59.340100
  H    -79.848900   -7.543080  -60.930100
  S    -82.206900  -14.915100  -55.975200
  C    -83.467200  -15.321700  -54.801800
  C    -84.221100  -14.168700  -54.687200
  C    -83.877100  -13.071600  -55.537900
  C    -82.902200  -13.440600  -56.441800
  H    -84.983600  -14.208100  -53.954300
  C    -84.723400  -11.789100  -55.576600
  H    -84.610100  -11.254400  -56.523600
  H    -84.383000  -11.082000  -54.763400
  C    -86.251800  -11.855900  -55.492100
  H    -86.612800  -10.776700  -55.379100
  H    -86.455900  -12.220700  -54.496300
  C    -86.922000  -12.705700  -56.554500
  H    -86.569100  -13.774200  -56.709600
  H    -86.770900  -12.157600  -57.526700
  H    -88.026400  -12.662700  -56.459700
  H    -81.111200  -12.009900  -60.959000
  H    -83.490800  -16.127400  -54.112000

 Total Charge           Charge          ....    0
 Multiplicity           Mult            ....    1
 Number of Electrons    NEL             ....  134
 Basis Dimension        Dim             ....  322

ORBITAL ENERGIES
----------------

  NO   OCC          E(Eh)            E(eV)
   0   2.0000     -88.968735     -2420.9624
   1   2.0000     -88.960095     -2420.7272
   2   2.0000     -10.331598      -281.1371
   3   2.0000     -10.323717      -280.9226
   4   2.0000     -10.320497      -280.8350
   5   2.0000     -10.315952      -280.7113
   6   2.0000     -10.305825      -280.4357
   7   2.0000     -10.302964      -280.3579
   8   2.0000     -10.297165      -280.2001
   9   2.0000     -10.295733      -280.1611
  10   2.0000     -10.293873      -280.1105
  11   2.0000     -10.292225      -280.0657
  12   2.0000     -10.289278      -279.9855
  13   2.0000     -10.289067      -279.9797
  14   2.0000     -10.284552      -279.8569
  15   2.0000     -10.282663      -279.8055
  16   2.0000      -8.082538      -219.9370
  17   2.0000      -8.075866      -219.7555
  18   2.0000      -6.041224      -164.3901
  19   2.0000      -6.036994      -164.2750
  20   2.0000      -6.034314      -164.2020
  21   2.0000      -6.033308      -164.1747
  22   2.0000      -6.030090      -164.0871
  23   2.0000      -6.026709      -163.9951
  24   2.0000      -1.011850       -27.5338
  25   2.0000      -0.983670       -26.7670
  26   2.0000      -0.906460       -24.6660
  27   2.0000      -0.902176       -24.5495
  28   2.0000      -0.874845       -23.8057
  29   2.0000      -0.847981       -23.0747
  30   2.0000      -0.840655       -22.8754
  31   2.0000      -0.817386       -22.2422
  32   2.0000      -0.778320       -21.1792
  33   2.0000      -0.769190       -20.9307
  34   2.0000      -0.709718       -19.3124
  35   2.0000      -0.701690       -19.0939
  36   2.0000      -0.691960       -18.8292
  37   2.0000      -0.658811       -17.9271
  38   2.0000      -0.642256       -17.4767
  39   2.0000      -0.617337       -16.7986
  40   2.0000      -0.596529       -16.2324
  41   2.0000      -0.566709       -15.4209
  42   2.0000      -0.556890       -15.1537
  43   2.0000      -0.551042       -14.9946
  44   2.0000      -0.534128       -14.5344
  45   2.0000      -0.524436       -14.2706
  46   2.0000      -0.516332       -14.0501
  47   2.0000      -0.514793       -14.0082
  48   2.0000      -0.510205       -13.8834
  49   2.0000      -0.497934       -13.5495
  50   2.0000      -0.493826       -13.4377
  51   2.0000      -0.474697       -12.9172
  52   2.0000      -0.471998       -12.8437
  53   2.0000      -0.466220       -12.6865
  54   2.0000      -0.458929       -12.4881
  55   2.0000      -0.447912       -12.1883
  56   2.0000      -0.441969       -12.0266
  57   2.0000      -0.433955       -11.8085
  58   2.0000      -0.430169       -11.7055
  59   2.0000      -0.421939       -11.4816
  60   2.0000      -0.414041       -11.2666
  61   2.0000      -0.411516       -11.1979
  62   2.0000      -0.400885       -10.9086
  63   2.0000      -0.349705        -9.5160
  64   2.0000      -0.329444        -8.9646
  65   2.0000      -0.327187        -8.9032
  66   2.0000      -0.294975        -8.0267
  67   0.0000       0.025496         0.6938
  68   0.0000       0.067722         1.8428
  69   0.0000       0.115822         3.1517
  70   0.0000       0.123973         3.3735
  71   0.0000       0.128505         3.4968

MULLIKEN ATOMIC CHARGES
-----------------------
   0 S :    0.121516
   1 C :   -0.124700
   2 C :   -0.097282
   3 C :    0.043830
   4 C :   -0.142489
   5 H :    0.019301
   6 C :    0.035958
   7 H :    0.033396
   8 H :    0.028557
   9 C :   -0.073206
  10 H :    0.010848
  11 H :    0.033338
  12 C :   -0.048734
  13 H :    0.029391
  14 H :    0.044683
  15 H :    0.033209
  16 S :    0.099012
  17 C :   -0.076616
  18 C :   -0.051476
  19 C :    0.021262
  20 C :   -0.186675
  21 H :    0.005105
  22 C :    0.021707
  23 H :    0.027603
  24 H :    0.042602
  25 C :   -0.078134
  26 H :    0.036298
  27 H :    0.010956
  28 C :   -0.070469
  29 H :    0.067467
  30 H :    0.029364
  31 H :    0.038708
  32 H :    0.065378
  33 H :    0.050295
Sum of atomic charges:   -0.0000000

LOEWDIN ATOMIC CHARGES
----------------------
   0 S :    0.401910
   1 C :   -0.207660
   2 C :   -0.065832
   3 C :   -0.055617
   4 C :   -0.186008
   5 H :    0.034759
   6 C :   -0.039036
   7 H :    0.033486
   8 H :    0.029720
   9 C :   -0.035920
  10 H :    0.015873
  11 H :    0.025377
  12 C :   -0.069800
  13 H :    0.028412
  14 H :    0.027778
  15 H :    0.024813
  16 S :    0.423184
  17 C :   -0.181170
  18 C :   -0.064040
  19 C :   -0.063405
  20 C :   -0.209843
  21 H :    0.022567
  22 C :   -0.040019
  23 H :    0.028639
  24 H :    0.038569
  25 C :   -0.052462
  26 H :    0.036835
  27 H :    0.011587
  28 C :   -0.079397
  29 H :    0.040255
  30 H :    0.030321
  31 H :    0.029997
  32 H :    0.038807
  33 H :    0.027318

  Mayer bond orders larger than 0.100000
B(  0-S ,  1-C ) :   1.1384 B(  0-S ,  4-C ) :   1.1459 B(  1-C ,  2-C ) :   1.5845
B(  1-C ,  4-C ) :   0.1024 B(  1-C , 32-H ) :   0.9687 B(  2-C ,  3-C ) :   1.2548
B(  2-C ,  6-C ) :   1.0215 B(  3-C ,  4-C ) :   1.5521 B(  3-C ,  5-H ) :   0.9985
B(  4-C , 20-C ) :   1.0499 B(  6-C ,  7-H ) :   0.9439 B(  6-C ,  8-H ) :   0.9500
B(  6-C ,  9-C ) :   1.0515 B(  9-C , 10-H ) :   0.9542 B(  9-C , 11-H ) :   0.9623
B(  9-C , 12-C ) :   1.0726 B( 12-C , 13-H ) :   0.9745 B( 12-C , 14-H ) :   0.9792
B( 12-C , 15-H ) :   0.9760 B( 16-S , 17-C ) :   1.1370 B( 16-S , 20-C ) :   1.1826
B( 17-C , 18-C ) :   1.6015 B( 17-C , 20-C ) :   0.1046 B( 17-C , 33-H ) :   0.9755
B( 18-C , 19-C ) :   1.2389 B( 18-C , 21-H ) :   0.9935 B( 19-C , 20-C ) :   1.5516
B( 19-C , 22-C ) :   1.0359 B( 22-C , 23-H ) :   0.9452 B( 22-C , 24-H ) :   0.9294
B( 22-C , 25-C ) :   1.0831 B( 25-C , 26-H ) :   0.9498 B( 25-C , 27-H ) :   0.9468
B( 25-C , 28-C ) :   1.0699 B( 28-C , 29-H ) :   0.9708 B( 28-C , 30-H ) :   0.9720
B( 28-C , 31-H ) :   0.9721

Dispersion correction           -0.014013719
FINAL SINGLE POINT ENERGY     -1339.871548064779

DIPOLE MOMENT
-------------
                                X             Y             Z
Electronic contribution:      8.68952     -24.97957       3.32660
Nuclear contribution   :     -8.86009      25.59307      -3.19882
                        -----------------------------------------
Total Dipole Moment    :     -0.17057       0.61350       0.12778
                        -----------------------------------------
Magnitude (a.u.)       :      0.64946
Magnitude (Debye)      :      1.65080

Rotational constants in cm-1:     0.020418     0.007677     0.006433
Rotational constants in MHz :   612.118080   230.146963   192.849319

                             ****ORCA TERMINATED NORMALLY****
TOTAL RUN TIME: 0 days 0 hours 0 minutes 21 seconds 72 msec
