                         Program Version 4.2.1 -  RELEASE  -
|  1> ! wB97X-D3 SP def2-SVP
|  2> %pal
|  3> nprocs 24
|  4> end
|  5>
|  6> * xyz 0 1
|  7> S 	 -50.1282 	 25.6197 	 28.819
|  8> C 	 -51.6504 	 26.3207 	 29.4197
|  9> C 	 -51.5746 	 27.7216 	 29.5438
| 10> C 	 -50.2315 	 28.1812 	 29.1859
| 11> C 	 -49.4133 	 27.1444 	 28.6651
| 12> H 	 -49.8533 	 29.2282 	 29.3637
| 13> C 	 -52.7038 	 28.6594 	 30.0146
| 14> H 	 -52.5695 	 29.7199 	 29.6501
| 15> H 	 -52.6403 	 28.6811 	 31.1078
| 16> C 	 -54.2236 	 28.2922 	 29.7183
| 17> H 	 -54.2605 	 27.9445 	 28.6728
| 18> H 	 -54.7082 	 27.6023 	 30.4144
| 19> C 	 -55.0547 	 29.5815 	 29.6926
| 20> H 	 -56.0956 	 29.403 	 29.4187
| 21> H 	 -55.0254 	 30.1199 	 30.6671
| 22> H 	 -54.672 	 30.221 	 28.9298
| 23> S 	 -47.5895 	 28.7022 	 27.4058
| 24> C 	 -46.1244 	 28.0336 	 26.8202
| 25> C 	 -46.0515 	 26.7064 	 27.0503
| 26> C 	 -47.1052 	 26.2572 	 27.8397
| 27> C 	 -48.062 	 27.2388 	 28.1789
| 28> H 	 -45.3024 	 26.1086 	 26.616
| 29> C 	 -47.1541 	 24.7271 	 28.2507
| 30> H 	 -47.9675 	 24.3434 	 27.5984
| 31> H 	 -47.5482 	 24.6086 	 29.2581
| 32> C 	 -45.8885 	 23.8536 	 28.1159
| 33> H 	 -45.2326 	 24.1529 	 28.9207
| 34> H 	 -45.4119 	 24.0842 	 27.2032
| 35> C 	 -46.1834 	 22.3195 	 28.2949
| 36> H 	 -46.4861 	 22.1005 	 29.346
| 37> H 	 -45.4377 	 21.678 	 27.9683
| 38> H 	 -47.0137 	 22.1386 	 27.6628
| 39> H 	 -52.5038 	 25.7136 	 29.6745
| 40> H 	 -45.3825 	 28.5614 	 26.3053
| 41> *
| 42>
| 43>                          ****END OF INPUT****

CARTESIAN COORDINATES (ANGSTROEM)
---------------------------------
  S    -50.128200   25.619700   28.819000
  C    -51.650400   26.320700   29.419700
  C    -51.574600   27.721600   29.543800
  C    -50.231500   28.181200   29.185900
  C    -49.413300   27.144400   28.665100
  H    -49.853300   29.228200   29.363700
  C    -52.703800   28.659400   30.014600
  H    -52.569500   29.719900   29.650100
  H    -52.640300   28.681100   31.107800
  C    -54.223600   28.292200   29.718300
  H    -54.260500   27.944500   28.672800
  H    -54.708200   27.602300   30.414400
  C    -55.054700   29.581500   29.692600
  H    -56.095600   29.403000   29.418700
  H    -55.025400   30.119900   30.667100
  H    -54.672000   30.221000   28.929800
  S    -47.589500   28.702200   27.405800
  C    -46.124400   28.033600   26.820200
  C    -46.051500   26.706400   27.050300
  C    -47.105200   26.257200   27.839700
  C    -48.062000   27.238800   28.178900
  H    -45.302400   26.108600   26.616000
  C    -47.154100   24.727100   28.250700
  H    -47.967500   24.343400   27.598400
  H    -47.548200   24.608600   29.258100
  C    -45.888500   23.853600   28.115900
  H    -45.232600   24.152900   28.920700
  H    -45.411900   24.084200   27.203200
  C    -46.183400   22.319500   28.294900
  H    -46.486100   22.100500   29.346000
  H    -45.437700   21.678000   27.968300
  H    -47.013700   22.138600   27.662800
  H    -52.503800   25.713600   29.674500
  H    -45.382500   28.561400   26.305300

 Total Charge           Charge          ....    0
 Multiplicity           Mult            ....    1
 Number of Electrons    NEL             ....  134
 Basis Dimension        Dim             ....  322

ORBITAL ENERGIES
----------------

  NO   OCC          E(Eh)            E(eV)
   0   2.0000     -88.967746     -2420.9355
   1   2.0000     -88.964011     -2420.8338
   2   2.0000     -10.330374      -281.1038
   3   2.0000     -10.324109      -280.9333
   4   2.0000     -10.314596      -280.6744
   5   2.0000     -10.312136      -280.6075
   6   2.0000     -10.307855      -280.4910
   7   2.0000     -10.305049      -280.4146
   8   2.0000     -10.303708      -280.3781
   9   2.0000     -10.301571      -280.3200
  10   2.0000     -10.294388      -280.1246
  11   2.0000     -10.292967      -280.0859
  12   2.0000     -10.285996      -279.8962
  13   2.0000     -10.283257      -279.8217
  14   2.0000     -10.278339      -279.6878
  15   2.0000     -10.275768      -279.6179
  16   2.0000      -8.082384      -219.9329
  17   2.0000      -8.079912      -219.8656
  18   2.0000      -6.040870      -164.3804
  19   2.0000      -6.038241      -164.3089
  20   2.0000      -6.036854      -164.2711
  21   2.0000      -6.034193      -164.1987
  22   2.0000      -6.033222      -164.1723
  23   2.0000      -6.030859      -164.1080
  24   2.0000      -1.013999       -27.5923
  25   2.0000      -0.984577       -26.7917
  26   2.0000      -0.906500       -24.6671
  27   2.0000      -0.903417       -24.5832
  28   2.0000      -0.873370       -23.7656
  29   2.0000      -0.854667       -23.2567
  30   2.0000      -0.840951       -22.8834
  31   2.0000      -0.809288       -22.0218
  32   2.0000      -0.781345       -21.2615
  33   2.0000      -0.771014       -20.9803
  34   2.0000      -0.712240       -19.3810
  35   2.0000      -0.699316       -19.0294
  36   2.0000      -0.697699       -18.9854
  37   2.0000      -0.660665       -17.9776
  38   2.0000      -0.631651       -17.1881
  39   2.0000      -0.610256       -16.6059
  40   2.0000      -0.601828       -16.3766
  41   2.0000      -0.572072       -15.5669
  42   2.0000      -0.570916       -15.5354
  43   2.0000      -0.565737       -15.3945
  44   2.0000      -0.527748       -14.3607
  45   2.0000      -0.524295       -14.2668
  46   2.0000      -0.515483       -14.0270
  47   2.0000      -0.511649       -13.9227
  48   2.0000      -0.506750       -13.7894
  49   2.0000      -0.498454       -13.5636
  50   2.0000      -0.478115       -13.0102
  51   2.0000      -0.476557       -12.9678
  52   2.0000      -0.473122       -12.8743
  53   2.0000      -0.469329       -12.7711
  54   2.0000      -0.459477       -12.5030
  55   2.0000      -0.454965       -12.3802
  56   2.0000      -0.449605       -12.2344
  57   2.0000      -0.438140       -11.9224
  58   2.0000      -0.432647       -11.7729
  59   2.0000      -0.429832       -11.6963
  60   2.0000      -0.422664       -11.5013
  61   2.0000      -0.414622       -11.2824
  62   2.0000      -0.410677       -11.1751
  63   2.0000      -0.359455        -9.7813
  64   2.0000      -0.331635        -9.0242
  65   2.0000      -0.327409        -8.9093
  66   2.0000      -0.278024        -7.5654
  67   0.0000       0.021451         0.5837
  68   0.0000       0.084862         2.3092
  69   0.0000       0.112933         3.0731
  70   0.0000       0.130183         3.5425
  71   0.0000       0.132055         3.5934

MULLIKEN ATOMIC CHARGES
-----------------------
   0 S :    0.085620
   1 C :   -0.121714
   2 C :   -0.063942
   3 C :   -0.031314
   4 C :   -0.120213
   5 H :    0.040101
   6 C :    0.020819
   7 H :    0.039469
   8 H :    0.048375
   9 C :   -0.083359
  10 H :    0.039406
  11 H :    0.043043
  12 C :   -0.072892
  13 H :    0.034991
  14 H :    0.037154
  15 H :    0.027778
  16 S :    0.103080
  17 C :   -0.049483
  18 C :   -0.032112
  19 C :   -0.075921
  20 C :   -0.093880
  21 H :   -0.000182
  22 C :   -0.008723
  23 H :    0.043898
  24 H :    0.036992
  25 C :   -0.048667
  26 H :    0.033964
  27 H :    0.023072
  28 C :   -0.015100
  29 H :    0.040947
  30 H :    0.024932
  31 H :    0.015528
  32 H :    0.047738
  33 H :    0.030595
Sum of atomic charges:   -0.0000000

LOEWDIN ATOMIC CHARGES
----------------------
   0 S :    0.441873
   1 C :   -0.202001
   2 C :   -0.053040
   3 C :   -0.087330
   4 C :   -0.205230
   5 H :    0.037574
   6 C :   -0.037620
   7 H :    0.037526
   8 H :    0.038037
   9 C :   -0.041814
  10 H :    0.028286
  11 H :    0.024037
  12 C :   -0.066946
  13 H :    0.026459
  14 H :    0.026332
  15 H :    0.019615
  16 S :    0.442683
  17 C :   -0.179932
  18 C :   -0.073669
  19 C :   -0.055836
  20 C :   -0.215506
  21 H :    0.026568
  22 C :   -0.045478
  23 H :    0.025869
  24 H :    0.022828
  25 C :   -0.034343
  26 H :    0.025519
  27 H :    0.013240
  28 C :   -0.052675
  29 H :    0.033095
  30 H :    0.017966
  31 H :    0.020445
  32 H :    0.024058
  33 H :    0.019412

  Mayer bond orders larger than 0.100000
B(  0-S ,  1-C ) :   1.1270 B(  0-S ,  4-C ) :   1.1722 B(  1-C ,  2-C ) :   1.5981
B(  1-C , 32-H ) :   0.9722 B(  2-C ,  3-C ) :   1.2651 B(  2-C ,  6-C ) :   1.0148
B(  3-C ,  4-C ) :   1.5128 B(  3-C ,  5-H ) :   0.9807 B(  4-C , 20-C ) :   1.0927
B(  6-C ,  7-H ) :   0.9548 B(  6-C ,  8-H ) :   0.9304 B(  6-C ,  9-C ) :   1.0518
B(  9-C , 10-H ) :   0.9618 B(  9-C , 11-H ) :   0.9561 B(  9-C , 12-C ) :   1.0882
B( 12-C , 13-H ) :   0.9729 B( 12-C , 14-H ) :   0.9755 B( 12-C , 15-H ) :   0.9755
B( 16-S , 17-C ) :   1.1825 B( 16-S , 20-C ) :   1.1537 B( 17-C , 18-C ) :   1.5620
B( 17-C , 33-H ) :   0.9690 B( 18-C , 19-C ) :   1.3104 B( 18-C , 21-H ) :   1.0000
B( 19-C , 20-C ) :   1.5286 B( 19-C , 22-C ) :   0.9984 B( 22-C , 23-H ) :   0.9282
B( 22-C , 24-H ) :   0.9474 B( 22-C , 25-C ) :   1.0680 B( 25-C , 26-H ) :   0.9576
B( 25-C , 27-H ) :   0.9484 B( 25-C , 28-C ) :   1.0777 B( 28-C , 29-H ) :   0.9769
B( 28-C , 30-H ) :   0.9751 B( 28-C , 31-H ) :   0.9769

Dispersion correction           -0.012932300
FINAL SINGLE POINT ENERGY     -1339.871126601333

DIPOLE MOMENT
-------------
                                X             Y             Z
Electronic contribution:     10.20637       6.53190      -5.26854
Nuclear contribution   :    -10.26434      -6.65904       5.27642
                        -----------------------------------------
Total Dipole Moment    :     -0.05797      -0.12714       0.00788
                        -----------------------------------------
Magnitude (a.u.)       :      0.13996
Magnitude (Debye)      :      0.35574

Rotational constants in cm-1:     0.024826     0.006671     0.005357
Rotational constants in MHz :   744.262558   199.991637   160.598730

                             ****ORCA TERMINATED NORMALLY****
TOTAL RUN TIME: 0 days 0 hours 0 minutes 20 seconds 372 msec
