                         Program Version 4.2.1 -  RELEASE  -
|  1> ! wB97X-D3 SP def2-SVP
|  2> %pal
|  3> nprocs 24
|  4> end
|  5>
|  6> * xyz 0 1
|  7> S 	 -130.357 	 63.3783 	 -55.5181
|  8> C 	 -131.23 	 64.8845 	 -55.6346
|  9> C 	 -131.382 	 65.3648 	 -56.9538
| 10> C 	 -130.828 	 64.411 	 -57.828
| 11> C 	 -130.298 	 63.2909 	 -57.2326
| 12> H 	 -130.671 	 64.4839 	 -58.9089
| 13> C 	 -132.025 	 66.7066 	 -57.3442
| 14> H 	 -132.785 	 66.9176 	 -56.6087
| 15> H 	 -132.481 	 66.5663 	 -58.3433
| 16> C 	 -131.022 	 67.8474 	 -57.393
| 17> H 	 -130.217 	 67.672 	 -58.1495
| 18> H 	 -131.638 	 68.7013 	 -57.65
| 19> C 	 -130.298 	 68.0615 	 -56.0868
| 20> H 	 -129.743 	 68.9981 	 -56.1908
| 21> H 	 -131.032 	 68.0563 	 -55.3227
| 22> H 	 -129.61 	 67.2253 	 -55.9156
| 23> S 	 -130.817 	 60.9193 	 -58.6699
| 24> C 	 -129.49 	 59.9551 	 -59.2358
| 25> C 	 -128.311 	 60.6427 	 -59.0336
| 26> C 	 -128.418 	 61.937 	 -58.3864
| 27> C 	 -129.707 	 62.145 	 -57.9502
| 28> H 	 -127.4 	 60.0561 	 -59.2196
| 29> C 	 -127.21 	 62.8324 	 -58.3024
| 30> H 	 -126.562 	 62.4846 	 -59.1306
| 31> H 	 -126.697 	 62.5946 	 -57.3519
| 32> C 	 -127.57 	 64.3163 	 -58.3458
| 33> H 	 -128.124 	 64.5215 	 -57.44
| 34> H 	 -128.394 	 64.5314 	 -59.0042
| 35> C 	 -126.465 	 65.3168 	 -58.3852
| 36> H 	 -125.729 	 65.0676 	 -57.6155
| 37> H 	 -126.952 	 66.2332 	 -58.1398
| 38> H 	 -125.975 	 65.4094 	 -59.3376
| 39> H 	 -131.349 	 65.4305 	 -54.7167
| 40> H 	 -129.451 	 58.9218 	 -59.5702
| 41> *
| 42>
| 43>                          ****END OF INPUT****

CARTESIAN COORDINATES (ANGSTROEM)
---------------------------------
  S    -130.357000   63.378300  -55.518100
  C    -131.230000   64.884500  -55.634600
  C    -131.382000   65.364800  -56.953800
  C    -130.828000   64.411000  -57.828000
  C    -130.298000   63.290900  -57.232600
  H    -130.671000   64.483900  -58.908900
  C    -132.025000   66.706600  -57.344200
  H    -132.785000   66.917600  -56.608700
  H    -132.481000   66.566300  -58.343300
  C    -131.022000   67.847400  -57.393000
  H    -130.217000   67.672000  -58.149500
  H    -131.638000   68.701300  -57.650000
  C    -130.298000   68.061500  -56.086800
  H    -129.743000   68.998100  -56.190800
  H    -131.032000   68.056300  -55.322700
  H    -129.610000   67.225300  -55.915600
  S    -130.817000   60.919300  -58.669900
  C    -129.490000   59.955100  -59.235800
  C    -128.311000   60.642700  -59.033600
  C    -128.418000   61.937000  -58.386400
  C    -129.707000   62.145000  -57.950200
  H    -127.400000   60.056100  -59.219600
  C    -127.210000   62.832400  -58.302400
  H    -126.562000   62.484600  -59.130600
  H    -126.697000   62.594600  -57.351900
  C    -127.570000   64.316300  -58.345800
  H    -128.124000   64.521500  -57.440000
  H    -128.394000   64.531400  -59.004200
  C    -126.465000   65.316800  -58.385200
  H    -125.729000   65.067600  -57.615500
  H    -126.952000   66.233200  -58.139800
  H    -125.975000   65.409400  -59.337600
  H    -131.349000   65.430500  -54.716700
  H    -129.451000   58.921800  -59.570200

 Total Charge           Charge          ....    0
 Multiplicity           Mult            ....    1
 Number of Electrons    NEL             ....  134
 Basis Dimension        Dim             ....  322

ORBITAL ENERGIES
----------------

  NO   OCC          E(Eh)            E(eV)
   0   2.0000     -88.969392     -2420.9802
   1   2.0000     -88.960434     -2420.7365
   2   2.0000     -10.326120      -280.9880
   3   2.0000     -10.323018      -280.9036
   4   2.0000     -10.315550      -280.7004
   5   2.0000     -10.314165      -280.6627
   6   2.0000     -10.306337      -280.4497
   7   2.0000     -10.304387      -280.3966
   8   2.0000     -10.296536      -280.1830
   9   2.0000     -10.294181      -280.1189
  10   2.0000     -10.291998      -280.0595
  11   2.0000     -10.290869      -280.0288
  12   2.0000     -10.286825      -279.9187
  13   2.0000     -10.274169      -279.5744
  14   2.0000     -10.273718      -279.5621
  15   2.0000     -10.270656      -279.4788
  16   2.0000      -8.084515      -219.9908
  17   2.0000      -8.074656      -219.7226
  18   2.0000      -6.042679      -164.4297
  19   2.0000      -6.038969      -164.3287
  20   2.0000      -6.035625      -164.2377
  21   2.0000      -6.033341      -164.1755
  22   2.0000      -6.029268      -164.0647
  23   2.0000      -6.025211      -163.9543
  24   2.0000      -1.006620       -27.3915
  25   2.0000      -0.982386       -26.7321
  26   2.0000      -0.919694       -25.0262
  27   2.0000      -0.911989       -24.8165
  28   2.0000      -0.864409       -23.5218
  29   2.0000      -0.853416       -23.2226
  30   2.0000      -0.852573       -23.1997
  31   2.0000      -0.809674       -22.0323
  32   2.0000      -0.788054       -21.4440
  33   2.0000      -0.774987       -21.0885
  34   2.0000      -0.710752       -19.3405
  35   2.0000      -0.696352       -18.9487
  36   2.0000      -0.684499       -18.6262
  37   2.0000      -0.653109       -17.7720
  38   2.0000      -0.645025       -17.5520
  39   2.0000      -0.618259       -16.8237
  40   2.0000      -0.591720       -16.1015
  41   2.0000      -0.571562       -15.5530
  42   2.0000      -0.563802       -15.3418
  43   2.0000      -0.556282       -15.1372
  44   2.0000      -0.545044       -14.8314
  45   2.0000      -0.527071       -14.3423
  46   2.0000      -0.524221       -14.2648
  47   2.0000      -0.518046       -14.0967
  48   2.0000      -0.507233       -13.8025
  49   2.0000      -0.492823       -13.4104
  50   2.0000      -0.485908       -13.2222
  51   2.0000      -0.480177       -13.0663
  52   2.0000      -0.475170       -12.9300
  53   2.0000      -0.470006       -12.7895
  54   2.0000      -0.460290       -12.5251
  55   2.0000      -0.447604       -12.1799
  56   2.0000      -0.447401       -12.1744
  57   2.0000      -0.437931       -11.9167
  58   2.0000      -0.431678       -11.7465
  59   2.0000      -0.424101       -11.5404
  60   2.0000      -0.421059       -11.4576
  61   2.0000      -0.416561       -11.3352
  62   2.0000      -0.404589       -11.0094
  63   2.0000      -0.338465        -9.2101
  64   2.0000      -0.322855        -8.7853
  65   2.0000      -0.320023        -8.7083
  66   2.0000      -0.309749        -8.4287
  67   0.0000       0.043981         1.1968
  68   0.0000       0.052332         1.4240
  69   0.0000       0.105863         2.8807
  70   0.0000       0.118765         3.2317
  71   0.0000       0.125274         3.4089

MULLIKEN ATOMIC CHARGES
-----------------------
   0 S :    0.131092
   1 C :   -0.140732
   2 C :   -0.087221
   3 C :    0.017778
   4 C :   -0.213229
   5 H :    0.024078
   6 C :    0.084233
   7 H :    0.028875
   8 H :    0.035467
   9 C :   -0.084228
  10 H :    0.032344
  11 H :    0.033067
  12 C :   -0.037104
  13 H :    0.041570
  14 H :    0.012899
  15 H :    0.047322
  16 S :    0.103819
  17 C :   -0.090164
  18 C :   -0.064734
  19 C :   -0.022764
  20 C :   -0.193055
  21 H :    0.026163
  22 C :    0.113589
  23 H :    0.029453
  24 H :    0.040905
  25 C :   -0.127967
  26 H :    0.037911
  27 H :    0.008485
  28 C :    0.032368
  29 H :    0.023694
  30 H :    0.018915
  31 H :    0.028627
  32 H :    0.048622
  33 H :    0.059921
Sum of atomic charges:   -0.0000000

LOEWDIN ATOMIC CHARGES
----------------------
   0 S :    0.432977
   1 C :   -0.197813
   2 C :   -0.060082
   3 C :   -0.064424
   4 C :   -0.216888
   5 H :    0.033344
   6 C :   -0.026700
   7 H :    0.030114
   8 H :    0.036669
   9 C :   -0.041722
  10 H :    0.026716
  11 H :    0.023591
  12 C :   -0.060336
  13 H :    0.030644
  14 H :    0.014108
  15 H :    0.027616
  16 S :    0.384065
  17 C :   -0.193847
  18 C :   -0.081963
  19 C :   -0.049873
  20 C :   -0.191938
  21 H :    0.032402
  22 C :   -0.029308
  23 H :    0.033528
  24 H :    0.039688
  25 C :   -0.052855
  26 H :    0.027702
  27 H :    0.019227
  28 C :   -0.053514
  29 H :    0.027220
  30 H :    0.026256
  31 H :    0.020439
  32 H :    0.018049
  33 H :    0.036911

  Mayer bond orders larger than 0.100000
B(  0-S ,  1-C ) :   1.1716 B(  0-S ,  4-C ) :   1.1703 B(  1-C ,  2-C ) :   1.5573
B(  1-C ,  4-C ) :   0.1048 B(  1-C , 32-H ) :   0.9703 B(  2-C ,  3-C ) :   1.2707
B(  2-C ,  6-C ) :   1.0102 B(  3-C ,  4-C ) :   1.5756 B(  3-C ,  5-H ) :   0.9889
B(  4-C , 20-C ) :   1.0048 B(  6-C ,  7-H ) :   0.9395 B(  6-C ,  8-H ) :   0.9392
B(  6-C ,  9-C ) :   1.0804 B(  9-C , 10-H ) :   0.9550 B(  9-C , 11-H ) :   0.9550
B(  9-C , 12-C ) :   1.0823 B( 12-C , 13-H ) :   0.9702 B( 12-C , 14-H ) :   0.9750
B( 12-C , 15-H ) :   0.9683 B( 16-S , 17-C ) :   1.1411 B( 16-S , 20-C ) :   1.1169
B( 17-C , 18-C ) :   1.6633 B( 17-C , 33-H ) :   0.9608 B( 18-C , 19-C ) :   1.2033
B( 18-C , 21-H ) :   0.9785 B( 19-C , 20-C ) :   1.6380 B( 19-C , 22-C ) :   1.0248
B( 22-C , 23-H ) :   0.9398 B( 22-C , 24-H ) :   0.9167 B( 22-C , 25-C ) :   1.0671
B( 25-C , 26-H ) :   0.9350 B( 25-C , 27-H ) :   0.9564 B( 25-C , 28-C ) :   1.0926
B( 28-C , 29-H ) :   0.9675 B( 28-C , 30-H ) :   0.9696 B( 28-C , 31-H ) :   0.9729

Dispersion correction           -0.016147138
FINAL SINGLE POINT ENERGY     -1339.878672262654

DIPOLE MOMENT
-------------
                                X             Y             Z
Electronic contribution:    -10.78695     -25.22617       2.33900
Nuclear contribution   :     11.14721      25.74009      -2.40785
                        -----------------------------------------
Total Dipole Moment    :      0.36027       0.51392      -0.06885
                        -----------------------------------------
Magnitude (a.u.)       :      0.63138
Magnitude (Debye)      :      1.60485

Rotational constants in cm-1:     0.021125     0.009268     0.007624
Rotational constants in MHz :   633.321147   277.861808   228.576193

                             ****ORCA TERMINATED NORMALLY****
TOTAL RUN TIME: 0 days 0 hours 0 minutes 23 seconds 334 msec
