                         Program Version 4.2.1 -  RELEASE  -
|  1> ! wB97X-D3 SP def2-SVP
|  2> %pal
|  3> nprocs 24
|  4> end
|  5>
|  6> * xyz 0 1
|  7> S 	 -121.673 	 63.4504 	 -34.1953
|  8> C 	 -121.616 	 61.7461 	 -33.8217
|  9> C 	 -120.296 	 61.2458 	 -33.8394
| 10> C 	 -119.34 	 62.3078 	 -34.0018
| 11> C 	 -119.888 	 63.5127 	 -34.3235
| 12> H 	 -118.291 	 62.1162 	 -34.072
| 13> C 	 -119.888 	 59.7352 	 -33.8197
| 14> H 	 -118.913 	 59.7808 	 -33.3364
| 15> H 	 -119.769 	 59.4278 	 -34.8686
| 16> C 	 -120.672 	 58.7348 	 -32.998
| 17> H 	 -119.942 	 57.9269 	 -32.9266
| 18> H 	 -120.97 	 59.1466 	 -32.0058
| 19> C 	 -121.979 	 58.2026 	 -33.6396
| 20> H 	 -121.789 	 57.5944 	 -34.5958
| 21> H 	 -122.517 	 57.5613 	 -32.9136
| 22> H 	 -122.712 	 58.9883 	 -33.9119
| 23> S 	 -119.951 	 65.8081 	 -35.8225
| 24> C 	 -118.607 	 66.8695 	 -35.9822
| 25> C 	 -117.602 	 66.3902 	 -35.2025
| 26> C 	 -117.802 	 65.1749 	 -34.4961
| 27> C 	 -119.125 	 64.7295 	 -34.734
| 28> H 	 -116.687 	 66.9315 	 -35.1551
| 29> C 	 -116.719 	 64.5016 	 -33.6126
| 30> H 	 -117.219 	 64.072 	 -32.7625
| 31> H 	 -116.063 	 65.3064 	 -33.2701
| 32> C 	 -115.776 	 63.515 	 -34.3323
| 33> H 	 -115.345 	 64.0015 	 -35.1599
| 34> H 	 -116.357 	 62.6598 	 -34.6735
| 35> C 	 -114.679 	 62.9287 	 -33.5036
| 36> H 	 -114.106 	 62.2017 	 -34.1071
| 37> H 	 -115.076 	 62.406 	 -32.5801
| 38> H 	 -114.034 	 63.6861 	 -33.1732
| 39> H 	 -122.443 	 61.0387 	 -33.7297
| 40> H 	 -118.502 	 67.6547 	 -36.7
| 41> *
| 42>
| 43>                          ****END OF INPUT****

CARTESIAN COORDINATES (ANGSTROEM)
---------------------------------
  S    -121.673000   63.450400  -34.195300
  C    -121.616000   61.746100  -33.821700
  C    -120.296000   61.245800  -33.839400
  C    -119.340000   62.307800  -34.001800
  C    -119.888000   63.512700  -34.323500
  H    -118.291000   62.116200  -34.072000
  C    -119.888000   59.735200  -33.819700
  H    -118.913000   59.780800  -33.336400
  H    -119.769000   59.427800  -34.868600
  C    -120.672000   58.734800  -32.998000
  H    -119.942000   57.926900  -32.926600
  H    -120.970000   59.146600  -32.005800
  C    -121.979000   58.202600  -33.639600
  H    -121.789000   57.594400  -34.595800
  H    -122.517000   57.561300  -32.913600
  H    -122.712000   58.988300  -33.911900
  S    -119.951000   65.808100  -35.822500
  C    -118.607000   66.869500  -35.982200
  C    -117.602000   66.390200  -35.202500
  C    -117.802000   65.174900  -34.496100
  C    -119.125000   64.729500  -34.734000
  H    -116.687000   66.931500  -35.155100
  C    -116.719000   64.501600  -33.612600
  H    -117.219000   64.072000  -32.762500
  H    -116.063000   65.306400  -33.270100
  C    -115.776000   63.515000  -34.332300
  H    -115.345000   64.001500  -35.159900
  H    -116.357000   62.659800  -34.673500
  C    -114.679000   62.928700  -33.503600
  H    -114.106000   62.201700  -34.107100
  H    -115.076000   62.406000  -32.580100
  H    -114.034000   63.686100  -33.173200
  H    -122.443000   61.038700  -33.729700
  H    -118.502000   67.654700  -36.700000

 Total Charge           Charge          ....    0
 Multiplicity           Mult            ....    1
 Number of Electrons    NEL             ....  134
 Basis Dimension        Dim             ....  322

ORBITAL ENERGIES
----------------

  NO   OCC          E(Eh)            E(eV)
   0   2.0000     -88.969552     -2420.9846
   1   2.0000     -88.963967     -2420.8326
   2   2.0000     -10.335296      -281.2377
   3   2.0000     -10.333745      -281.1955
   4   2.0000     -10.314765      -280.6790
   5   2.0000     -10.311404      -280.5876
   6   2.0000     -10.307581      -280.4835
   7   2.0000     -10.304313      -280.3946
   8   2.0000     -10.297606      -280.2121
   9   2.0000     -10.296658      -280.1863
  10   2.0000     -10.294512      -280.1279
  11   2.0000     -10.291249      -280.0391
  12   2.0000     -10.291233      -280.0387
  13   2.0000     -10.288037      -279.9517
  14   2.0000     -10.282562      -279.8027
  15   2.0000     -10.279743      -279.7260
  16   2.0000      -8.083241      -219.9562
  17   2.0000      -8.079465      -219.8534
  18   2.0000      -6.041992      -164.4110
  19   2.0000      -6.037963      -164.3013
  20   2.0000      -6.037934      -164.3005
  21   2.0000      -6.033748      -164.1866
  22   2.0000      -6.033665      -164.1844
  23   2.0000      -6.030432      -164.0964
  24   2.0000      -1.005985       -27.3742
  25   2.0000      -0.982616       -26.7383
  26   2.0000      -0.914050       -24.8726
  27   2.0000      -0.909496       -24.7487
  28   2.0000      -0.865567       -23.5533
  29   2.0000      -0.856571       -23.3085
  30   2.0000      -0.846253       -23.0277
  31   2.0000      -0.812823       -22.1180
  32   2.0000      -0.784786       -21.3551
  33   2.0000      -0.776361       -21.1259
  34   2.0000      -0.702825       -19.1249
  35   2.0000      -0.698359       -19.0033
  36   2.0000      -0.693641       -18.8749
  37   2.0000      -0.663602       -18.0575
  38   2.0000      -0.633302       -17.2330
  39   2.0000      -0.618747       -16.8370
  40   2.0000      -0.597947       -16.2710
  41   2.0000      -0.576362       -15.6836
  42   2.0000      -0.575139       -15.6503
  43   2.0000      -0.547361       -14.8944
  44   2.0000      -0.533906       -14.5283
  45   2.0000      -0.528996       -14.3947
  46   2.0000      -0.519517       -14.1368
  47   2.0000      -0.514689       -14.0054
  48   2.0000      -0.511536       -13.9196
  49   2.0000      -0.499444       -13.5906
  50   2.0000      -0.488016       -13.2796
  51   2.0000      -0.479881       -13.0582
  52   2.0000      -0.477321       -12.9886
  53   2.0000      -0.466914       -12.7054
  54   2.0000      -0.461849       -12.5676
  55   2.0000      -0.448095       -12.1933
  56   2.0000      -0.441885       -12.0243
  57   2.0000      -0.435240       -11.8435
  58   2.0000      -0.433742       -11.8027
  59   2.0000      -0.428480       -11.6595
  60   2.0000      -0.425507       -11.5786
  61   2.0000      -0.416481       -11.3330
  62   2.0000      -0.411844       -11.2069
  63   2.0000      -0.359586        -9.7848
  64   2.0000      -0.333695        -9.0803
  65   2.0000      -0.327878        -8.9220
  66   2.0000      -0.283862        -7.7243
  67   0.0000       0.024589         0.6691
  68   0.0000       0.078928         2.1477
  69   0.0000       0.111798         3.0422
  70   0.0000       0.123174         3.3517
  71   0.0000       0.128888         3.5072

MULLIKEN ATOMIC CHARGES
-----------------------
   0 S :    0.114515
   1 C :   -0.116014
   2 C :   -0.115827
   3 C :    0.009157
   4 C :   -0.084605
   5 H :   -0.023793
   6 C :    0.054516
   7 H :    0.027512
   8 H :    0.052729
   9 C :   -0.064086
  10 H :    0.035510
  11 H :    0.043237
  12 C :   -0.097816
  13 H :    0.044243
  14 H :    0.042430
  15 H :    0.032062
  16 S :    0.095828
  17 C :   -0.069007
  18 C :   -0.038520
  19 C :   -0.043953
  20 C :   -0.157254
  21 H :    0.000041
  22 C :    0.072951
  23 H :    0.030602
  24 H :    0.015000
  25 C :   -0.049653
  26 H :    0.015646
  27 H :    0.024858
  28 C :   -0.037856
  29 H :    0.041574
  30 H :    0.033657
  31 H :    0.018124
  32 H :    0.041437
  33 H :    0.052755
Sum of atomic charges:    0.0000000

LOEWDIN ATOMIC CHARGES
----------------------
   0 S :    0.390181
   1 C :   -0.210781
   2 C :   -0.058899
   3 C :   -0.068832
   4 C :   -0.174256
   5 H :    0.024511
   6 C :   -0.033098
   7 H :    0.032180
   8 H :    0.038206
   9 C :   -0.045291
  10 H :    0.031081
  11 H :    0.033037
  12 C :   -0.078327
  13 H :    0.032527
  14 H :    0.029002
  15 H :    0.021959
  16 S :    0.421939
  17 C :   -0.197193
  18 C :   -0.071554
  19 C :   -0.059583
  20 C :   -0.189874
  21 H :    0.023667
  22 C :   -0.025256
  23 H :    0.028739
  24 H :    0.031265
  25 C :   -0.038557
  26 H :    0.020212
  27 H :    0.019637
  28 C :   -0.061513
  29 H :    0.032130
  30 H :    0.030412
  31 H :    0.014504
  32 H :    0.026955
  33 H :    0.030870

  Mayer bond orders larger than 0.100000
B(  0-S ,  1-C ) :   1.1267 B(  0-S ,  4-C ) :   1.1304 B(  1-C ,  2-C ) :   1.6258
B(  1-C , 32-H ) :   0.9618 B(  2-C ,  3-C ) :   1.2521 B(  2-C ,  6-C ) :   1.0003
B(  3-C ,  4-C ) :   1.5888 B(  3-C ,  5-H ) :   0.9913 B(  4-C , 20-C ) :   1.0445
B(  6-C ,  7-H ) :   0.9431 B(  6-C ,  8-H ) :   0.9368 B(  6-C ,  9-C ) :   1.0748
B(  9-C , 10-H ) :   0.9546 B(  9-C , 11-H ) :   0.9571 B(  9-C , 12-C ) :   1.0715
B( 12-C , 13-H ) :   0.9719 B( 12-C , 14-H ) :   0.9737 B( 12-C , 15-H ) :   0.9759
B( 16-S , 17-C ) :   1.1506 B( 16-S , 20-C ) :   1.1713 B( 17-C , 18-C ) :   1.5870
B( 17-C , 20-C ) :   0.1002 B( 17-C , 33-H ) :   0.9726 B( 18-C , 19-C ) :   1.2814
B( 18-C , 21-H ) :   0.9895 B( 19-C , 20-C ) :   1.5465 B( 19-C , 22-C ) :   1.0368
B( 22-C , 23-H ) :   0.9338 B( 22-C , 24-H ) :   0.9299 B( 22-C , 25-C ) :   1.0719
B( 25-C , 26-H ) :   0.9460 B( 25-C , 27-H ) :   0.9504 B( 25-C , 28-C ) :   1.0957
B( 28-C , 29-H ) :   0.9721 B( 28-C , 30-H ) :   0.9716 B( 28-C , 31-H ) :   0.9726

Dispersion correction           -0.013862591
FINAL SINGLE POINT ENERGY     -1339.884180369601

DIPOLE MOMENT
-------------
                                X             Y             Z
Electronic contribution:    -15.42398      23.40292      -8.06287
Nuclear contribution   :     16.09529     -23.88697       8.05958
                        -----------------------------------------
Total Dipole Moment    :      0.67132      -0.48405      -0.00330
                        -----------------------------------------
Magnitude (a.u.)       :      0.82764
Magnitude (Debye)      :      2.10368

Rotational constants in cm-1:     0.018755     0.008346     0.005993
Rotational constants in MHz :   562.268501   250.202360   179.676070

                             ****ORCA TERMINATED NORMALLY****
TOTAL RUN TIME: 0 days 0 hours 0 minutes 21 seconds 212 msec
