                         Program Version 4.2.1 -  RELEASE  -
|  1> ! wB97X-D3 SP def2-SVP
|  2> %pal
|  3> nprocs 24
|  4> end
|  5>
|  6> * xyz 0 1
|  7> S 	 -3.89705 	 -22.8074 	 -118.101
|  8> C 	 -2.62571 	 -22.432 	 -119.307
|  9> C 	 -1.38438 	 -22.8279 	 -118.848
| 10> C 	 -1.35742 	 -23.404 	 -117.475
| 11> C 	 -2.64804 	 -23.319 	 -116.883
| 12> H 	 -0.494755 	 -23.8755 	 -116.978
| 13> C 	 -0.115416 	 -22.9683 	 -119.648
| 14> H 	 -0.445223 	 -23.198 	 -120.656
| 15> H 	 0.461829 	 -23.8208 	 -119.368
| 16> C 	 0.844435 	 -21.7052 	 -119.546
| 17> H 	 1.07704 	 -21.4954 	 -118.523
| 18> H 	 1.73557 	 -21.9912 	 -120.146
| 19> C 	 0.338708 	 -20.4306 	 -120.225
| 20> H 	 0.807597 	 -19.5598 	 -119.863
| 21> H 	 0.431142 	 -20.4387 	 -121.275
| 22> H 	 -0.706534 	 -20.3329 	 -119.898
| 23> S 	 -4.39318 	 -24.6704 	 -115.199
| 24> C 	 -3.89238 	 -25.064 	 -113.607
| 25> C 	 -2.71981 	 -24.4449 	 -113.299
| 26> C 	 -2.14086 	 -23.6311 	 -114.345
| 27> C 	 -2.92514 	 -23.7337 	 -115.494
| 28> H 	 -2.35431 	 -24.5233 	 -112.296
| 29> C 	 -0.813061 	 -22.9721 	 -114.109
| 30> H 	 -0.918235 	 -22.2183 	 -113.347
| 31> H 	 -0.615106 	 -22.4628 	 -115.086
| 32> C 	 0.285714 	 -23.9476 	 -113.81
| 33> H 	 0.424261 	 -24.5049 	 -114.71
| 34> H 	 -0.0276768 	 -24.6243 	 -112.954
| 35> C 	 1.63915 	 -23.189 	 -113.416
| 36> H 	 1.70685 	 -22.5941 	 -112.53
| 37> H 	 1.9412 	 -22.4969 	 -114.203
| 38> H 	 2.45617 	 -23.9247 	 -113.429
| 39> H 	 -2.78225 	 -22.1855 	 -120.306
| 40> H 	 -4.45145 	 -25.5427 	 -112.853
| 41> *
| 42>
| 43>                          ****END OF INPUT****

CARTESIAN COORDINATES (ANGSTROEM)
---------------------------------
  S     -3.897050  -22.807400  -118.101000
  C     -2.625710  -22.432000  -119.307000
  C     -1.384380  -22.827900  -118.848000
  C     -1.357420  -23.404000  -117.475000
  C     -2.648040  -23.319000  -116.883000
  H     -0.494755  -23.875500  -116.978000
  C     -0.115416  -22.968300  -119.648000
  H     -0.445223  -23.198000  -120.656000
  H      0.461829  -23.820800  -119.368000
  C      0.844435  -21.705200  -119.546000
  H      1.077040  -21.495400  -118.523000
  H      1.735570  -21.991200  -120.146000
  C      0.338708  -20.430600  -120.225000
  H      0.807597  -19.559800  -119.863000
  H      0.431142  -20.438700  -121.275000
  H     -0.706534  -20.332900  -119.898000
  S     -4.393180  -24.670400  -115.199000
  C     -3.892380  -25.064000  -113.607000
  C     -2.719810  -24.444900  -113.299000
  C     -2.140860  -23.631100  -114.345000
  C     -2.925140  -23.733700  -115.494000
  H     -2.354310  -24.523300  -112.296000
  C     -0.813061  -22.972100  -114.109000
  H     -0.918235  -22.218300  -113.347000
  H     -0.615106  -22.462800  -115.086000
  C      0.285714  -23.947600  -113.810000
  H      0.424261  -24.504900  -114.710000
  H     -0.027677  -24.624300  -112.954000
  C      1.639150  -23.189000  -113.416000
  H      1.706850  -22.594100  -112.530000
  H      1.941200  -22.496900  -114.203000
  H      2.456170  -23.924700  -113.429000
  H     -2.782250  -22.185500  -120.306000
  H     -4.451450  -25.542700  -112.853000

 Total Charge           Charge          ....    0
 Multiplicity           Mult            ....    1
 Number of Electrons    NEL             ....  134
 Basis Dimension        Dim             ....  322

ORBITAL ENERGIES
----------------

  NO   OCC          E(Eh)            E(eV)
   0   2.0000     -88.970156     -2421.0010
   1   2.0000     -88.964938     -2420.8590
   2   2.0000     -10.343774      -281.4684
   3   2.0000     -10.332350      -281.1575
   4   2.0000     -10.316602      -280.7290
   5   2.0000     -10.311339      -280.5858
   6   2.0000     -10.307212      -280.4735
   7   2.0000     -10.306638      -280.4579
   8   2.0000     -10.305778      -280.4345
   9   2.0000     -10.297132      -280.1992
  10   2.0000     -10.291289      -280.0402
  11   2.0000     -10.290676      -280.0235
  12   2.0000     -10.289317      -279.9865
  13   2.0000     -10.289179      -279.9828
  14   2.0000     -10.283241      -279.8212
  15   2.0000     -10.266852      -279.3752
  16   2.0000      -8.082953      -219.9483
  17   2.0000      -8.080258      -219.8750
  18   2.0000      -6.041887      -164.4081
  19   2.0000      -6.038783      -164.3237
  20   2.0000      -6.037880      -164.2991
  21   2.0000      -6.034703      -164.2126
  22   2.0000      -6.033211      -164.1720
  23   2.0000      -6.030951      -164.1105
  24   2.0000      -1.002927       -27.2910
  25   2.0000      -0.974171       -26.5085
  26   2.0000      -0.915462       -24.9110
  27   2.0000      -0.905446       -24.6385
  28   2.0000      -0.868375       -23.6297
  29   2.0000      -0.848608       -23.0918
  30   2.0000      -0.841929       -22.9101
  31   2.0000      -0.813457       -22.1353
  32   2.0000      -0.783614       -21.3232
  33   2.0000      -0.776728       -21.1358
  34   2.0000      -0.711318       -19.3560
  35   2.0000      -0.700556       -19.0631
  36   2.0000      -0.697609       -18.9829
  37   2.0000      -0.661652       -18.0045
  38   2.0000      -0.638586       -17.3768
  39   2.0000      -0.616281       -16.7698
  40   2.0000      -0.596921       -16.2430
  41   2.0000      -0.571819       -15.5600
  42   2.0000      -0.570202       -15.5160
  43   2.0000      -0.547506       -14.8984
  44   2.0000      -0.538410       -14.6509
  45   2.0000      -0.525687       -14.3047
  46   2.0000      -0.518575       -14.1112
  47   2.0000      -0.516445       -14.0532
  48   2.0000      -0.507061       -13.7978
  49   2.0000      -0.502768       -13.6810
  50   2.0000      -0.494429       -13.4541
  51   2.0000      -0.479111       -13.0373
  52   2.0000      -0.467701       -12.7268
  53   2.0000      -0.461729       -12.5643
  54   2.0000      -0.457397       -12.4464
  55   2.0000      -0.449540       -12.2326
  56   2.0000      -0.446826       -12.1588
  57   2.0000      -0.441558       -12.0154
  58   2.0000      -0.434739       -11.8299
  59   2.0000      -0.428246       -11.6532
  60   2.0000      -0.423156       -11.5147
  61   2.0000      -0.415377       -11.3030
  62   2.0000      -0.407508       -11.0889
  63   2.0000      -0.354025        -9.6335
  64   2.0000      -0.331190        -9.0121
  65   2.0000      -0.325892        -8.8680
  66   2.0000      -0.290535        -7.9059
  67   0.0000       0.020221         0.5502
  68   0.0000       0.074475         2.0266
  69   0.0000       0.099209         2.6996
  70   0.0000       0.117939         3.2093
  71   0.0000       0.126693         3.4475

MULLIKEN ATOMIC CHARGES
-----------------------
   0 S :    0.094386
   1 C :   -0.078948
   2 C :   -0.100604
   3 C :   -0.004807
   4 C :   -0.120846
   5 H :    0.033405
   6 C :    0.058689
   7 H :    0.017800
   8 H :    0.021956
   9 C :   -0.075018
  10 H :    0.027954
  11 H :    0.033675
  12 C :   -0.020979
  13 H :    0.020341
  14 H :    0.024404
  15 H :    0.023351
  16 S :    0.103129
  17 C :   -0.055938
  18 C :   -0.055797
  19 C :   -0.043447
  20 C :   -0.150680
  21 H :    0.011904
  22 C :    0.075106
  23 H :    0.030217
  24 H :    0.027255
  25 C :   -0.087158
  26 H :    0.026843
  27 H :    0.048525
  28 C :   -0.044254
  29 H :    0.036551
  30 H :    0.019909
  31 H :    0.032281
  32 H :    0.029258
  33 H :    0.041538
Sum of atomic charges:    0.0000000

LOEWDIN ATOMIC CHARGES
----------------------
   0 S :    0.358887
   1 C :   -0.181698
   2 C :   -0.055237
   3 C :   -0.064042
   4 C :   -0.165285
   5 H :    0.035806
   6 C :   -0.031250
   7 H :    0.027917
   8 H :    0.028309
   9 C :   -0.031508
  10 H :    0.020348
  11 H :    0.026733
  12 C :   -0.062868
  13 H :    0.021279
  14 H :    0.018010
  15 H :    0.026694
  16 S :    0.407860
  17 C :   -0.186601
  18 C :   -0.071068
  19 C :   -0.051209
  20 C :   -0.193683
  21 H :    0.025764
  22 C :   -0.037701
  23 H :    0.030197
  24 H :    0.033982
  25 C :   -0.031886
  26 H :    0.021426
  27 H :    0.031308
  28 C :   -0.069374
  29 H :    0.022728
  30 H :    0.024665
  31 H :    0.027852
  32 H :    0.018341
  33 H :    0.025305

  Mayer bond orders larger than 0.100000
B(  0-S ,  1-C ) :   1.0970 B(  0-S ,  4-C ) :   1.1286 B(  1-C ,  2-C ) :   1.6539
B(  1-C , 32-H ) :   0.9703 B(  2-C ,  3-C ) :   1.1978 B(  2-C ,  6-C ) :   1.0234
B(  3-C ,  4-C ) :   1.5787 B(  3-C ,  5-H ) :   0.9813 B(  4-C , 20-C ) :   1.0590
B(  6-C ,  7-H ) :   0.9451 B(  6-C ,  8-H ) :   0.9476 B(  6-C ,  9-C ) :   1.0557
B(  9-C , 10-H ) :   0.9597 B(  9-C , 11-H ) :   0.9594 B(  9-C , 12-C ) :   1.0826
B( 12-C , 13-H ) :   0.9724 B( 12-C , 14-H ) :   0.9780 B( 12-C , 15-H ) :   0.9712
B( 16-S , 17-C ) :   1.1495 B( 16-S , 20-C ) :   1.1323 B( 17-C , 18-C ) :   1.6365
B( 17-C , 33-H ) :   0.9687 B( 18-C , 19-C ) :   1.2200 B( 18-C , 21-H ) :   0.9872
B( 19-C , 20-C ) :   1.5939 B( 19-C , 22-C ) :   1.0438 B( 22-C , 23-H ) :   0.9288
B( 22-C , 24-H ) :   0.9272 B( 22-C , 25-C ) :   1.0681 B( 25-C , 26-H ) :   0.9512
B( 25-C , 27-H ) :   0.9550 B( 25-C , 28-C ) :   1.0714 B( 28-C , 29-H ) :   0.9795
B( 28-C , 30-H ) :   0.9729 B( 28-C , 31-H ) :   0.9768

Dispersion correction           -0.014133662
FINAL SINGLE POINT ENERGY     -1339.868327343111

DIPOLE MOMENT
-------------
                                X             Y             Z
Electronic contribution:    -29.96269      -8.61993       1.54163
Nuclear contribution   :     30.71276       8.56194      -1.37934
                        -----------------------------------------
Total Dipole Moment    :      0.75007      -0.05799       0.16230
                        -----------------------------------------
Magnitude (a.u.)       :      0.76962
Magnitude (Debye)      :      1.95621

Rotational constants in cm-1:     0.017133     0.009286     0.006348
Rotational constants in MHz :   513.648887   278.395820   190.320129

                             ****ORCA TERMINATED NORMALLY****
TOTAL RUN TIME: 0 days 0 hours 0 minutes 21 seconds 561 msec
