                         Program Version 4.2.1 -  RELEASE  -
|  1> ! wB97X-D3 SP def2-SVP
|  2> %pal
|  3> nprocs 24
|  4> end
|  5>
|  6> * xyz 0 1
|  7> S 	 -130.404 	 66.3423 	 -58.7728
|  8> C 	 -131.631 	 67.4357 	 -58.2658
|  9> C 	 -132.926 	 67.0098 	 -58.4824
| 10> C 	 -132.932 	 65.5903 	 -58.6573
| 11> C 	 -131.677 	 65.1009 	 -58.5883
| 12> H 	 -133.777 	 64.9087 	 -58.654
| 13> C 	 -134.176 	 67.9082 	 -58.3278
| 14> H 	 -134.034 	 68.4545 	 -57.4377
| 15> H 	 -134.977 	 67.1718 	 -58.1358
| 16> C 	 -134.615 	 68.887 	 -59.4897
| 17> H 	 -135.021 	 68.2008 	 -60.3214
| 18> H 	 -135.388 	 69.5264 	 -59.0937
| 19> C 	 -133.514 	 69.7643 	 -60.1087
| 20> H 	 -133.851 	 70.0989 	 -61.0715
| 21> H 	 -133.175 	 70.6429 	 -59.5452
| 22> H 	 -132.687 	 69.1632 	 -60.2761
| 23> S 	 -131.089 	 63.1556 	 -60.4277
| 24> C 	 -130.711 	 61.4564 	 -59.897
| 25> C 	 -130.855 	 61.3347 	 -58.5502
| 26> C 	 -131.245 	 62.5665 	 -57.9558
| 27> C 	 -131.286 	 63.6934 	 -58.794
| 28> H 	 -130.687 	 60.3467 	 -58.0186
| 29> C 	 -131.39 	 62.8868 	 -56.4559
| 30> H 	 -132.348 	 63.1114 	 -56.1883
| 31> H 	 -130.862 	 63.8329 	 -56.346
| 32> C 	 -130.78 	 61.8031 	 -55.5492
| 33> H 	 -129.788 	 61.8362 	 -55.9072
| 34> H 	 -131.385 	 60.8464 	 -55.6884
| 35> C 	 -130.79 	 62.2486 	 -54.0447
| 36> H 	 -130.232 	 61.4687 	 -53.5039
| 37> H 	 -131.787 	 62.1352 	 -53.5637
| 38> H 	 -130.299 	 63.1795 	 -53.8286
| 39> H 	 -131.321 	 68.3979 	 -57.8928
| 40> H 	 -130.633 	 60.5751 	 -60.6018
| 41> *
| 42>
| 43>                          ****END OF INPUT****

CARTESIAN COORDINATES (ANGSTROEM)
---------------------------------
  S    -130.404000   66.342300  -58.772800
  C    -131.631000   67.435700  -58.265800
  C    -132.926000   67.009800  -58.482400
  C    -132.932000   65.590300  -58.657300
  C    -131.677000   65.100900  -58.588300
  H    -133.777000   64.908700  -58.654000
  C    -134.176000   67.908200  -58.327800
  H    -134.034000   68.454500  -57.437700
  H    -134.977000   67.171800  -58.135800
  C    -134.615000   68.887000  -59.489700
  H    -135.021000   68.200800  -60.321400
  H    -135.388000   69.526400  -59.093700
  C    -133.514000   69.764300  -60.108700
  H    -133.851000   70.098900  -61.071500
  H    -133.175000   70.642900  -59.545200
  H    -132.687000   69.163200  -60.276100
  S    -131.089000   63.155600  -60.427700
  C    -130.711000   61.456400  -59.897000
  C    -130.855000   61.334700  -58.550200
  C    -131.245000   62.566500  -57.955800
  C    -131.286000   63.693400  -58.794000
  H    -130.687000   60.346700  -58.018600
  C    -131.390000   62.886800  -56.455900
  H    -132.348000   63.111400  -56.188300
  H    -130.862000   63.832900  -56.346000
  C    -130.780000   61.803100  -55.549200
  H    -129.788000   61.836200  -55.907200
  H    -131.385000   60.846400  -55.688400
  C    -130.790000   62.248600  -54.044700
  H    -130.232000   61.468700  -53.503900
  H    -131.787000   62.135200  -53.563700
  H    -130.299000   63.179500  -53.828600
  H    -131.321000   68.397900  -57.892800
  H    -130.633000   60.575100  -60.601800

 Total Charge           Charge          ....    0
 Multiplicity           Mult            ....    1
 Number of Electrons    NEL             ....  134
 Basis Dimension        Dim             ....  322

ORBITAL ENERGIES
----------------

  NO   OCC          E(Eh)            E(eV)
   0   2.0000     -88.965922     -2420.8858
   1   2.0000     -88.959048     -2420.6988
   2   2.0000     -10.327698      -281.0309
   3   2.0000     -10.321502      -280.8624
   4   2.0000     -10.319429      -280.8059
   5   2.0000     -10.312659      -280.6217
   6   2.0000     -10.304979      -280.4127
   7   2.0000     -10.299551      -280.2650
   8   2.0000     -10.298174      -280.2276
   9   2.0000     -10.298145      -280.2268
  10   2.0000     -10.296722      -280.1881
  11   2.0000     -10.295219      -280.1471
  12   2.0000     -10.287625      -279.9405
  13   2.0000     -10.279219      -279.7118
  14   2.0000     -10.274158      -279.5740
  15   2.0000     -10.269004      -279.4338
  16   2.0000      -8.081344      -219.9045
  17   2.0000      -8.073201      -219.6830
  18   2.0000      -6.039557      -164.3447
  19   2.0000      -6.036398      -164.2587
  20   2.0000      -6.031756      -164.1324
  21   2.0000      -6.031700      -164.1309
  22   2.0000      -6.027743      -164.0232
  23   2.0000      -6.023987      -163.9210
  24   2.0000      -1.008611       -27.4457
  25   2.0000      -0.982105       -26.7244
  26   2.0000      -0.902844       -24.5676
  27   2.0000      -0.901136       -24.5211
  28   2.0000      -0.869264       -23.6539
  29   2.0000      -0.855157       -23.2700
  30   2.0000      -0.836504       -22.7624
  31   2.0000      -0.817918       -22.2567
  32   2.0000      -0.783541       -21.3212
  33   2.0000      -0.763542       -20.7770
  34   2.0000      -0.701201       -19.0807
  35   2.0000      -0.698812       -19.0156
  36   2.0000      -0.691836       -18.8258
  37   2.0000      -0.649762       -17.6809
  38   2.0000      -0.641458       -17.4550
  39   2.0000      -0.614556       -16.7229
  40   2.0000      -0.588124       -16.0037
  41   2.0000      -0.574625       -15.6363
  42   2.0000      -0.563467       -15.3327
  43   2.0000      -0.551482       -15.0066
  44   2.0000      -0.542394       -14.7593
  45   2.0000      -0.518932       -14.1209
  46   2.0000      -0.516031       -14.0419
  47   2.0000      -0.500733       -13.6256
  48   2.0000      -0.498879       -13.5752
  49   2.0000      -0.492967       -13.4143
  50   2.0000      -0.484596       -13.1865
  51   2.0000      -0.480272       -13.0689
  52   2.0000      -0.473459       -12.8835
  53   2.0000      -0.463654       -12.6167
  54   2.0000      -0.460936       -12.5427
  55   2.0000      -0.449780       -12.2391
  56   2.0000      -0.443135       -12.0583
  57   2.0000      -0.437835       -11.9141
  58   2.0000      -0.433495       -11.7960
  59   2.0000      -0.424410       -11.5488
  60   2.0000      -0.420132       -11.4324
  61   2.0000      -0.416211       -11.3257
  62   2.0000      -0.400286       -10.8923
  63   2.0000      -0.344703        -9.3798
  64   2.0000      -0.332032        -9.0351
  65   2.0000      -0.313737        -8.5372
  66   2.0000      -0.298816        -8.1312
  67   0.0000       0.037229         1.0131
  68   0.0000       0.047581         1.2947
  69   0.0000       0.099987         2.7208
  70   0.0000       0.123121         3.3503
  71   0.0000       0.126697         3.4476

MULLIKEN ATOMIC CHARGES
-----------------------
   0 S :    0.111458
   1 C :   -0.111444
   2 C :   -0.086429
   3 C :    0.049370
   4 C :   -0.183697
   5 H :    0.024957
   6 C :    0.074597
   7 H :    0.023377
   8 H :    0.022819
   9 C :   -0.085353
  10 H :    0.042746
  11 H :    0.036965
  12 C :   -0.021820
  13 H :    0.025784
  14 H :    0.030918
  15 H :    0.019266
  16 S :    0.091226
  17 C :   -0.114383
  18 C :   -0.056399
  19 C :   -0.051490
  20 C :   -0.167552
  21 H :    0.050127
  22 C :    0.097557
  23 H :   -0.004702
  24 H :    0.027905
  25 C :   -0.103639
  26 H :    0.030953
  27 H :    0.050846
  28 C :   -0.042407
  29 H :    0.024852
  30 H :    0.035518
  31 H :    0.038395
  32 H :    0.042034
  33 H :    0.077643
Sum of atomic charges:   -0.0000000

LOEWDIN ATOMIC CHARGES
----------------------
   0 S :    0.394360
   1 C :   -0.183943
   2 C :   -0.064533
   3 C :   -0.045826
   4 C :   -0.182910
   5 H :    0.039390
   6 C :   -0.031194
   7 H :    0.025026
   8 H :    0.032086
   9 C :   -0.036182
  10 H :    0.034673
  11 H :    0.023668
  12 C :   -0.064130
  13 H :    0.026599
  14 H :    0.025691
  15 H :    0.014898
  16 S :    0.382574
  17 C :   -0.177983
  18 C :   -0.086643
  19 C :   -0.060281
  20 C :   -0.215266
  21 H :    0.048453
  22 C :   -0.028417
  23 H :    0.010735
  24 H :    0.032592
  25 C :   -0.040443
  26 H :    0.022188
  27 H :    0.033515
  28 C :   -0.069654
  29 H :    0.027059
  30 H :    0.029108
  31 H :    0.023620
  32 H :    0.018613
  33 H :    0.042560

  Mayer bond orders larger than 0.100000
B(  0-S ,  1-C ) :   1.1455 B(  0-S ,  4-C ) :   1.1237 B(  1-C ,  2-C ) :   1.6186
B(  1-C , 32-H ) :   0.9745 B(  2-C ,  3-C ) :   1.1959 B(  2-C ,  6-C ) :   1.0057
B(  3-C ,  4-C ) :   1.6425 B(  3-C ,  5-H ) :   0.9974 B(  4-C , 20-C ) :   0.9928
B(  6-C ,  7-H ) :   0.9436 B(  6-C ,  8-H ) :   0.9458 B(  6-C ,  9-C ) :   1.0619
B(  9-C , 10-H ) :   0.9578 B(  9-C , 11-H ) :   0.9574 B(  9-C , 12-C ) :   1.0826
B( 12-C , 13-H ) :   0.9721 B( 12-C , 14-H ) :   0.9755 B( 12-C , 15-H ) :   0.9695
B( 16-S , 17-C ) :   1.1461 B( 16-S , 20-C ) :   1.1506 B( 17-C , 18-C ) :   1.6091
B( 17-C , 20-C ) :   0.1078 B( 17-C , 33-H ) :   0.9547 B( 18-C , 19-C ) :   1.2554
B( 18-C , 21-H ) :   0.9771 B( 19-C , 20-C ) :   1.6052 B( 19-C , 22-C ) :   1.0184
B( 22-C , 23-H ) :   0.9235 B( 22-C , 24-H ) :   0.9394 B( 22-C , 25-C ) :   1.0752
B( 25-C , 26-H ) :   0.9574 B( 25-C , 27-H ) :   0.9477 B( 25-C , 28-C ) :   1.0904
B( 28-C , 29-H ) :   0.9731 B( 28-C , 30-H ) :   0.9736 B( 28-C , 31-H ) :   0.9751

Dispersion correction           -0.013990752
FINAL SINGLE POINT ENERGY     -1339.841088236560

DIPOLE MOMENT
-------------
                                X             Y             Z
Electronic contribution:     10.06297      -6.26126     -14.43678
Nuclear contribution   :    -10.48987       6.35670      14.82869
                        -----------------------------------------
Total Dipole Moment    :     -0.42690       0.09544       0.39190
                        -----------------------------------------
Magnitude (a.u.)       :      0.58732
Magnitude (Debye)      :      1.49284

Rotational constants in cm-1:     0.021486     0.007386     0.006277
Rotational constants in MHz :   644.132734   221.420237   188.194695

                             ****ORCA TERMINATED NORMALLY****
TOTAL RUN TIME: 0 days 0 hours 0 minutes 21 seconds 208 msec
