                         Program Version 4.2.1 -  RELEASE  -
|  1> ! wB97X-D3 SP def2-SVP
|  2> %pal
|  3> nprocs 24
|  4> end
|  5>
|  6> * xyz 0 1
|  7> S 	 -67.067 	 16.2394 	 -75.841
|  8> C 	 -65.4896 	 16.5344 	 -76.3052
|  9> C 	 -64.5609 	 16.3046 	 -75.3217
| 10> C 	 -65.1316 	 16.0822 	 -74.1064
| 11> C 	 -66.5591 	 16.0711 	 -74.1901
| 12> H 	 -64.6262 	 15.8574 	 -73.2076
| 13> C 	 -63.0667 	 16.3264 	 -75.562
| 14> H 	 -62.663 	 15.557 	 -76.1682
| 15> H 	 -62.656 	 15.9634 	 -74.6849
| 16> C 	 -62.5202 	 17.6739 	 -76.0407
| 17> H 	 -61.4408 	 17.4526 	 -76.1289
| 18> H 	 -62.8419 	 17.9241 	 -77.0693
| 19> C 	 -62.7469 	 18.8607 	 -75.1178
| 20> H 	 -63.7907 	 19.1069 	 -74.9623
| 21> H 	 -62.2714 	 18.8158 	 -74.1433
| 22> H 	 -62.372 	 19.8158 	 -75.5744
| 23> S 	 -68.8431 	 14.8235 	 -73.3751
| 24> C 	 -69.4739 	 14.8861 	 -71.7209
| 25> C 	 -68.6673 	 15.7254 	 -71.0205
| 26> C 	 -67.4821 	 16.2527 	 -71.7136
| 27> C 	 -67.4625 	 15.8248 	 -73.0653
| 28> H 	 -68.9466 	 15.9729 	 -70.0322
| 29> C 	 -66.3648 	 17.1118 	 -71.0901
| 30> H 	 -66.8338 	 17.8806 	 -70.3982
| 31> H 	 -65.9403 	 17.6584 	 -71.9383
| 32> C 	 -65.2854 	 16.2879 	 -70.3778
| 33> H 	 -65.1388 	 15.3391 	 -70.9152
| 34> H 	 -65.5538 	 16.0818 	 -69.3379
| 35> C 	 -63.8537 	 17.0582 	 -70.2522
| 36> H 	 -64.0214 	 18.0735 	 -69.9356
| 37> H 	 -63.3304 	 17.0346 	 -71.2046
| 38> H 	 -63.2553 	 16.5735 	 -69.4009
| 39> H 	 -65.2163 	 16.7538 	 -77.3787
| 40> H 	 -70.397 	 14.5919 	 -71.3595
| 41> *
| 42>
| 43>                          ****END OF INPUT****

CARTESIAN COORDINATES (ANGSTROEM)
---------------------------------
  S    -67.067000   16.239400  -75.841000
  C    -65.489600   16.534400  -76.305200
  C    -64.560900   16.304600  -75.321700
  C    -65.131600   16.082200  -74.106400
  C    -66.559100   16.071100  -74.190100
  H    -64.626200   15.857400  -73.207600
  C    -63.066700   16.326400  -75.562000
  H    -62.663000   15.557000  -76.168200
  H    -62.656000   15.963400  -74.684900
  C    -62.520200   17.673900  -76.040700
  H    -61.440800   17.452600  -76.128900
  H    -62.841900   17.924100  -77.069300
  C    -62.746900   18.860700  -75.117800
  H    -63.790700   19.106900  -74.962300
  H    -62.271400   18.815800  -74.143300
  H    -62.372000   19.815800  -75.574400
  S    -68.843100   14.823500  -73.375100
  C    -69.473900   14.886100  -71.720900
  C    -68.667300   15.725400  -71.020500
  C    -67.482100   16.252700  -71.713600
  C    -67.462500   15.824800  -73.065300
  H    -68.946600   15.972900  -70.032200
  C    -66.364800   17.111800  -71.090100
  H    -66.833800   17.880600  -70.398200
  H    -65.940300   17.658400  -71.938300
  C    -65.285400   16.287900  -70.377800
  H    -65.138800   15.339100  -70.915200
  H    -65.553800   16.081800  -69.337900
  C    -63.853700   17.058200  -70.252200
  H    -64.021400   18.073500  -69.935600
  H    -63.330400   17.034600  -71.204600
  H    -63.255300   16.573500  -69.400900
  H    -65.216300   16.753800  -77.378700
  H    -70.397000   14.591900  -71.359500

 Total Charge           Charge          ....    0
 Multiplicity           Mult            ....    1
 Number of Electrons    NEL             ....  134
 Basis Dimension        Dim             ....  322

ORBITAL ENERGIES
----------------

  NO   OCC          E(Eh)            E(eV)
   0   2.0000     -88.975110     -2421.1358
   1   2.0000     -88.959495     -2420.7109
   2   2.0000     -10.332161      -281.1524
   3   2.0000     -10.329936      -281.0918
   4   2.0000     -10.310668      -280.5675
   5   2.0000     -10.310075      -280.5514
   6   2.0000     -10.307719      -280.4873
   7   2.0000     -10.297478      -280.2086
   8   2.0000     -10.293398      -280.0976
   9   2.0000     -10.292320      -280.0683
  10   2.0000     -10.292302      -280.0678
  11   2.0000     -10.291702      -280.0514
  12   2.0000     -10.291600      -280.0487
  13   2.0000     -10.288352      -279.9603
  14   2.0000     -10.282669      -279.8057
  15   2.0000     -10.277037      -279.6524
  16   2.0000      -8.091054      -220.1688
  17   2.0000      -8.074396      -219.7155
  18   2.0000      -6.049187      -164.6068
  19   2.0000      -6.045325      -164.5016
  20   2.0000      -6.042212      -164.4170
  21   2.0000      -6.033064      -164.1680
  22   2.0000      -6.028795      -164.0518
  23   2.0000      -6.025056      -163.9501
  24   2.0000      -1.016224       -27.6528
  25   2.0000      -0.985825       -26.8257
  26   2.0000      -0.916496       -24.9391
  27   2.0000      -0.898314       -24.4444
  28   2.0000      -0.870354       -23.6835
  29   2.0000      -0.860434       -23.4136
  30   2.0000      -0.834911       -22.7191
  31   2.0000      -0.815640       -22.1947
  32   2.0000      -0.788304       -21.4508
  33   2.0000      -0.767738       -20.8912
  34   2.0000      -0.708549       -19.2806
  35   2.0000      -0.703269       -19.1369
  36   2.0000      -0.694246       -18.8914
  37   2.0000      -0.665112       -18.0986
  38   2.0000      -0.641141       -17.4463
  39   2.0000      -0.620903       -16.8956
  40   2.0000      -0.588698       -16.0193
  41   2.0000      -0.579647       -15.7730
  42   2.0000      -0.563914       -15.3449
  43   2.0000      -0.548609       -14.9284
  44   2.0000      -0.537434       -14.6243
  45   2.0000      -0.519601       -14.1391
  46   2.0000      -0.518026       -14.0962
  47   2.0000      -0.510834       -13.9005
  48   2.0000      -0.507542       -13.8109
  49   2.0000      -0.497308       -13.5324
  50   2.0000      -0.492715       -13.4075
  51   2.0000      -0.483862       -13.1666
  52   2.0000      -0.473996       -12.8981
  53   2.0000      -0.465367       -12.6633
  54   2.0000      -0.460272       -12.5246
  55   2.0000      -0.450499       -12.2587
  56   2.0000      -0.442746       -12.0477
  57   2.0000      -0.440400       -11.9839
  58   2.0000      -0.435233       -11.8433
  59   2.0000      -0.428345       -11.6559
  60   2.0000      -0.417240       -11.3537
  61   2.0000      -0.414024       -11.2662
  62   2.0000      -0.407226       -11.0812
  63   2.0000      -0.355894        -9.6844
  64   2.0000      -0.342201        -9.3118
  65   2.0000      -0.322854        -8.7853
  66   2.0000      -0.283538        -7.7155
  67   0.0000       0.022556         0.6138
  68   0.0000       0.077629         2.1124
  69   0.0000       0.113064         3.0766
  70   0.0000       0.122850         3.3429
  71   0.0000       0.130648         3.5551

MULLIKEN ATOMIC CHARGES
-----------------------
   0 S :    0.158655
   1 C :   -0.150551
   2 C :   -0.074158
   3 C :    0.025558
   4 C :   -0.149745
   5 H :   -0.020697
   6 C :    0.149562
   7 H :    0.016847
   8 H :   -0.025725
   9 C :   -0.079981
  10 H :    0.030038
  11 H :    0.033565
  12 C :   -0.053405
  13 H :    0.037958
  14 H :    0.030204
  15 H :    0.029267
  16 S :    0.074358
  17 C :   -0.049403
  18 C :   -0.022505
  19 C :   -0.068662
  20 C :   -0.144678
  21 H :    0.000218
  22 C :    0.051428
  23 H :    0.038805
  24 H :    0.033399
  25 C :   -0.086810
  26 H :    0.047253
  27 H :    0.033157
  28 C :   -0.084466
  29 H :    0.033295
  30 H :    0.042045
  31 H :    0.048366
  32 H :    0.065268
  33 H :    0.031541
Sum of atomic charges:    0.0000000

LOEWDIN ATOMIC CHARGES
----------------------
   0 S :    0.468925
   1 C :   -0.227100
   2 C :   -0.071567
   3 C :   -0.051920
   4 C :   -0.205596
   5 H :    0.024803
   6 C :   -0.028228
   7 H :    0.031526
   8 H :    0.019719
   9 C :   -0.039525
  10 H :    0.028711
  11 H :    0.026233
  12 C :   -0.072843
  13 H :    0.025752
  14 H :    0.023683
  15 H :    0.032185
  16 S :    0.390894
  17 C :   -0.175761
  18 C :   -0.062147
  19 C :   -0.063485
  20 C :   -0.196509
  21 H :    0.022374
  22 C :   -0.040680
  23 H :    0.037162
  24 H :    0.030914
  25 C :   -0.040887
  26 H :    0.023900
  27 H :    0.024952
  28 C :   -0.069576
  29 H :    0.020754
  30 H :    0.020065
  31 H :    0.035695
  32 H :    0.037806
  33 H :    0.019774

  Mayer bond orders larger than 0.100000
B(  0-S ,  1-C ) :   1.1884 B(  0-S ,  4-C ) :   1.1963 B(  1-C ,  2-C ) :   1.5289
B(  1-C ,  4-C ) :   0.1077 B(  1-C , 32-H ) :   0.9608 B(  2-C ,  3-C ) :   1.3388
B(  2-C ,  6-C ) :   1.0117 B(  3-C ,  4-C ) :   1.4546 B(  3-C ,  5-H ) :   1.0048
B(  4-C , 20-C ) :   1.0670 B(  6-C ,  7-H ) :   0.9276 B(  6-C ,  8-H ) :   0.9233
B(  6-C ,  9-C ) :   1.0772 B(  9-C , 10-H ) :   0.9533 B(  9-C , 11-H ) :   0.9554
B(  9-C , 12-C ) :   1.0798 B( 12-C , 13-H ) :   0.9724 B( 12-C , 14-H ) :   0.9755
B( 12-C , 15-H ) :   0.9712 B( 16-S , 17-C ) :   1.1219 B( 16-S , 20-C ) :   1.1490
B( 17-C , 18-C ) :   1.6361 B( 17-C , 33-H ) :   0.9753 B( 18-C , 19-C ) :   1.2267
B( 18-C , 21-H ) :   0.9931 B( 19-C , 20-C ) :   1.5671 B( 19-C , 22-C ) :   1.0516
B( 22-C , 23-H ) :   0.9321 B( 22-C , 24-H ) :   0.9377 B( 22-C , 25-C ) :   1.0490
B( 25-C , 26-H ) :   0.9597 B( 25-C , 27-H ) :   0.9562 B( 25-C , 28-C ) :   1.0660
B( 28-C , 29-H ) :   0.9760 B( 28-C , 30-H ) :   0.9789 B( 28-C , 31-H ) :   0.9783

Dispersion correction           -0.015025895
FINAL SINGLE POINT ENERGY     -1339.872179836414

DIPOLE MOMENT
-------------
                                X             Y             Z
Electronic contribution:    -26.93536     -12.23231     -10.09485
Nuclear contribution   :     27.47553      12.45786      10.29712
                        -----------------------------------------
Total Dipole Moment    :      0.54017       0.22555       0.20227
                        -----------------------------------------
Magnitude (a.u.)       :      0.61933
Magnitude (Debye)      :      1.57422

Rotational constants in cm-1:     0.018677     0.009827     0.006869
Rotational constants in MHz :   559.918123   294.620838   205.941905

                             ****ORCA TERMINATED NORMALLY****
TOTAL RUN TIME: 0 days 0 hours 0 minutes 22 seconds 288 msec
