                         Program Version 4.2.1 -  RELEASE  -
|  1> ! wB97X-D3 SP def2-SVP
|  2> %pal
|  3> nprocs 24
|  4> end
|  5>
|  6> * xyz 0 1
|  7> S 	 -33.2941 	 -34.7337 	 -96.496
|  8> C 	 -33.8516 	 -34.3262 	 -98.0581
|  9> C 	 -33.5313 	 -33.0111 	 -98.3846
| 10> C 	 -32.9142 	 -32.351 	 -97.2986
| 11> C 	 -32.6276 	 -33.2116 	 -96.2897
| 12> H 	 -32.7018 	 -31.2556 	 -97.3043
| 13> C 	 -33.8075 	 -32.261 	 -99.6445
| 14> H 	 -33.9747 	 -31.227 	 -99.4169
| 15> H 	 -34.689 	 -32.5436 	 -100.246
| 16> C 	 -32.6557 	 -32.2673 	 -100.718
| 17> H 	 -32.5343 	 -33.2751 	 -101.289
| 18> H 	 -32.8868 	 -31.5688 	 -101.531
| 19> C 	 -31.3073 	 -31.9384 	 -100.185
| 20> H 	 -30.899 	 -32.756 	 -99.64
| 21> H 	 -30.5959 	 -31.7704 	 -100.982
| 22> H 	 -31.3586 	 -31.062 	 -99.625
| 23> S 	 -31.9915 	 -34.0645 	 -93.7772
| 24> C 	 -30.5148 	 -33.5158 	 -93.086
| 25> C 	 -29.9978 	 -32.4082 	 -93.6858
| 26> C 	 -30.6573 	 -32.178 	 -94.9624
| 27> C 	 -31.7164 	 -33.0118 	 -95.186
| 28> H 	 -29.1393 	 -31.9608 	 -93.281
| 29> C 	 -30.1496 	 -30.994 	 -95.8436
| 30> H 	 -30.5166 	 -31.1108 	 -96.8784
| 31> H 	 -29.1281 	 -30.975 	 -95.9677
| 32> C 	 -30.6773 	 -29.5455 	 -95.5745
| 33> H 	 -30.6248 	 -29.4425 	 -94.432
| 34> H 	 -31.6546 	 -29.4175 	 -95.9271
| 35> C 	 -29.8083 	 -28.4317 	 -96.2875
| 36> H 	 -30.0917 	 -27.468 	 -95.8513
| 37> H 	 -29.9037 	 -28.4499 	 -97.4275
| 38> H 	 -28.7097 	 -28.5517 	 -95.9761
| 39> H 	 -34.2523 	 -34.9719 	 -98.815
| 40> H 	 -30.1554 	 -33.9613 	 -92.1263
| 41> *
| 42>
| 43>                          ****END OF INPUT****

CARTESIAN COORDINATES (ANGSTROEM)
---------------------------------
  S    -33.294100  -34.733700  -96.496000
  C    -33.851600  -34.326200  -98.058100
  C    -33.531300  -33.011100  -98.384600
  C    -32.914200  -32.351000  -97.298600
  C    -32.627600  -33.211600  -96.289700
  H    -32.701800  -31.255600  -97.304300
  C    -33.807500  -32.261000  -99.644500
  H    -33.974700  -31.227000  -99.416900
  H    -34.689000  -32.543600  -100.246000
  C    -32.655700  -32.267300  -100.718000
  H    -32.534300  -33.275100  -101.289000
  H    -32.886800  -31.568800  -101.531000
  C    -31.307300  -31.938400  -100.185000
  H    -30.899000  -32.756000  -99.640000
  H    -30.595900  -31.770400  -100.982000
  H    -31.358600  -31.062000  -99.625000
  S    -31.991500  -34.064500  -93.777200
  C    -30.514800  -33.515800  -93.086000
  C    -29.997800  -32.408200  -93.685800
  C    -30.657300  -32.178000  -94.962400
  C    -31.716400  -33.011800  -95.186000
  H    -29.139300  -31.960800  -93.281000
  C    -30.149600  -30.994000  -95.843600
  H    -30.516600  -31.110800  -96.878400
  H    -29.128100  -30.975000  -95.967700
  C    -30.677300  -29.545500  -95.574500
  H    -30.624800  -29.442500  -94.432000
  H    -31.654600  -29.417500  -95.927100
  C    -29.808300  -28.431700  -96.287500
  H    -30.091700  -27.468000  -95.851300
  H    -29.903700  -28.449900  -97.427500
  H    -28.709700  -28.551700  -95.976100
  H    -34.252300  -34.971900  -98.815000
  H    -30.155400  -33.961300  -92.126300

 Total Charge           Charge          ....    0
 Multiplicity           Mult            ....    1
 Number of Electrons    NEL             ....  134
 Basis Dimension        Dim             ....  322

ORBITAL ENERGIES
----------------

  NO   OCC          E(Eh)            E(eV)
   0   2.0000     -88.968544     -2420.9572
   1   2.0000     -88.961455     -2420.7643
   2   2.0000     -10.326633      -281.0020
   3   2.0000     -10.320099      -280.8242
   4   2.0000     -10.316491      -280.7260
   5   2.0000     -10.308430      -280.5066
   6   2.0000     -10.308269      -280.5023
   7   2.0000     -10.297850      -280.2188
   8   2.0000     -10.296315      -280.1770
   9   2.0000     -10.294506      -280.1278
  10   2.0000     -10.292827      -280.0821
  11   2.0000     -10.291045      -280.0336
  12   2.0000     -10.290677      -280.0236
  13   2.0000     -10.290640      -280.0226
  14   2.0000     -10.288778      -279.9719
  15   2.0000     -10.262610      -279.2598
  16   2.0000      -8.085344      -220.0134
  17   2.0000      -8.077057      -219.7879
  18   2.0000      -6.043638      -164.4557
  19   2.0000      -6.039532      -164.3440
  20   2.0000      -6.036209      -164.2536
  21   2.0000      -6.035597      -164.2369
  22   2.0000      -6.031649      -164.1295
  23   2.0000      -6.027544      -164.0178
  24   2.0000      -1.022101       -27.8128
  25   2.0000      -0.990635       -26.9565
  26   2.0000      -0.915660       -24.9164
  27   2.0000      -0.900763       -24.5110
  28   2.0000      -0.873327       -23.7644
  29   2.0000      -0.857349       -23.3297
  30   2.0000      -0.844389       -22.9770
  31   2.0000      -0.816113       -22.2076
  32   2.0000      -0.787020       -21.4159
  33   2.0000      -0.774396       -21.0724
  34   2.0000      -0.702889       -19.1266
  35   2.0000      -0.699514       -19.0347
  36   2.0000      -0.690434       -18.7877
  37   2.0000      -0.666281       -18.1304
  38   2.0000      -0.636881       -17.3304
  39   2.0000      -0.621801       -16.9201
  40   2.0000      -0.597881       -16.2692
  41   2.0000      -0.573411       -15.6033
  42   2.0000      -0.564235       -15.3536
  43   2.0000      -0.552309       -15.0291
  44   2.0000      -0.547881       -14.9086
  45   2.0000      -0.519906       -14.1474
  46   2.0000      -0.515109       -14.0168
  47   2.0000      -0.511763       -13.9258
  48   2.0000      -0.506212       -13.7747
  49   2.0000      -0.502128       -13.6636
  50   2.0000      -0.499980       -13.6052
  51   2.0000      -0.481286       -13.0965
  52   2.0000      -0.468167       -12.7395
  53   2.0000      -0.461143       -12.5483
  54   2.0000      -0.459468       -12.5028
  55   2.0000      -0.458936       -12.4883
  56   2.0000      -0.442477       -12.0404
  57   2.0000      -0.437354       -11.9010
  58   2.0000      -0.435204       -11.8425
  59   2.0000      -0.427686       -11.6379
  60   2.0000      -0.418964       -11.4006
  61   2.0000      -0.410631       -11.1738
  62   2.0000      -0.407740       -11.0952
  63   2.0000      -0.358207        -9.7473
  64   2.0000      -0.335918        -9.1408
  65   2.0000      -0.329646        -8.9701
  66   2.0000      -0.284671        -7.7463
  67   0.0000       0.025489         0.6936
  68   0.0000       0.084044         2.2869
  69   0.0000       0.094581         2.5737
  70   0.0000       0.118936         3.2364
  71   0.0000       0.124146         3.3782

MULLIKEN ATOMIC CHARGES
-----------------------
   0 S :    0.131188
   1 C :   -0.092893
   2 C :   -0.088149
   3 C :   -0.034300
   4 C :   -0.087483
   5 H :    0.024595
   6 C :    0.065090
   7 H :    0.019054
   8 H :    0.030149
   9 C :   -0.125126
  10 H :    0.032768
  11 H :    0.027933
  12 C :   -0.007209
  13 H :    0.040250
  14 H :    0.022275
  15 H :    0.006884
  16 S :    0.078745
  17 C :   -0.099963
  18 C :   -0.001768
  19 C :   -0.058295
  20 C :   -0.103935
  21 H :    0.004431
  22 C :    0.074524
  23 H :    0.007145
  24 H :    0.001665
  25 C :   -0.082350
  26 H :    0.039579
  27 H :    0.028378
  28 C :   -0.101005
  29 H :    0.043848
  30 H :    0.055307
  31 H :    0.041677
  32 H :    0.036853
  33 H :    0.070139
Sum of atomic charges:   -0.0000000

LOEWDIN ATOMIC CHARGES
----------------------
   0 S :    0.461571
   1 C :   -0.212743
   2 C :   -0.061379
   3 C :   -0.069284
   4 C :   -0.214349
   5 H :    0.037471
   6 C :   -0.034656
   7 H :    0.028430
   8 H :    0.035211
   9 C :   -0.044627
  10 H :    0.028296
  11 H :    0.021627
  12 C :   -0.063413
  13 H :    0.026123
  14 H :    0.027683
  15 H :    0.010707
  16 S :    0.382193
  17 C :   -0.185484
  18 C :   -0.066626
  19 C :   -0.051569
  20 C :   -0.177286
  21 H :    0.025905
  22 C :   -0.032724
  23 H :    0.029700
  24 H :    0.015329
  25 C :   -0.035042
  26 H :    0.029485
  27 H :    0.011400
  28 C :   -0.076665
  29 H :    0.028202
  30 H :    0.033201
  31 H :    0.031141
  32 H :    0.027316
  33 H :    0.034853

  Mayer bond orders larger than 0.100000
B(  0-S ,  1-C ) :   1.1473 B(  0-S ,  4-C ) :   1.1819 B(  1-C ,  2-C ) :   1.5960
B(  1-C , 32-H ) :   0.9683 B(  2-C ,  3-C ) :   1.2607 B(  2-C ,  6-C ) :   1.0326
B(  3-C ,  4-C ) :   1.5428 B(  3-C ,  5-H ) :   0.9876 B(  4-C , 20-C ) :   1.0464
B(  6-C ,  7-H ) :   0.9387 B(  6-C ,  8-H ) :   0.9433 B(  6-C ,  9-C ) :   1.0642
B(  9-C , 10-H ) :   0.9560 B(  9-C , 11-H ) :   0.9576 B(  9-C , 12-C ) :   1.0977
B( 12-C , 13-H ) :   0.9675 B( 12-C , 14-H ) :   0.9652 B( 12-C , 15-H ) :   0.9709
B( 16-S , 17-C ) :   1.1487 B( 16-S , 20-C ) :   1.1107 B( 17-C , 18-C ) :   1.6421
B( 17-C , 33-H ) :   0.9601 B( 18-C , 19-C ) :   1.1844 B( 18-C , 21-H ) :   1.0015
B( 19-C , 20-C ) :   1.6619 B( 19-C , 22-C ) :   1.0431 B( 22-C , 23-H ) :   0.9323
B( 22-C , 24-H ) :   0.9389 B( 22-C , 25-C ) :   1.0492 B( 25-C , 26-H ) :   0.9580
B( 25-C , 27-H ) :   0.9595 B( 25-C , 28-C ) :   1.0679 B( 28-C , 29-H ) :   0.9744
B( 28-C , 30-H ) :   0.9750 B( 28-C , 31-H ) :   0.9754

Dispersion correction           -0.015020395
FINAL SINGLE POINT ENERGY     -1339.863758320196

DIPOLE MOMENT
-------------
                                X             Y             Z
Electronic contribution:    -10.04713     -23.53830      19.36391
Nuclear contribution   :     10.35839      24.03686     -19.72236
                        -----------------------------------------
Total Dipole Moment    :      0.31126       0.49856      -0.35845
                        -----------------------------------------
Magnitude (a.u.)       :      0.68843
Magnitude (Debye)      :      1.74985

Rotational constants in cm-1:     0.016047     0.011203     0.007076
Rotational constants in MHz :   481.072190   335.853873   212.138226

                             ****ORCA TERMINATED NORMALLY****
TOTAL RUN TIME: 0 days 0 hours 0 minutes 21 seconds 457 msec
