                         Program Version 4.2.1 -  RELEASE  -
|  1> ! wB97X-D3 SP def2-SVP
|  2> %pal
|  3> nprocs 24
|  4> end
|  5>
|  6> * xyz 0 1
|  7> S 	 -111.659 	 61.2165 	 -69.6175
|  8> C 	 -111.566 	 59.5987 	 -69.1028
|  9> C 	 -112.386 	 59.2657 	 -67.998
| 10> C 	 -113.208 	 60.4212 	 -67.6957
| 11> C 	 -113.052 	 61.5191 	 -68.558
| 12> H 	 -113.82 	 60.3752 	 -66.8194
| 13> C 	 -112.431 	 57.9622 	 -67.2293
| 14> H 	 -113.465 	 57.5707 	 -67.407
| 15> H 	 -112.436 	 58.1461 	 -66.1637
| 16> C 	 -111.3 	 56.9481 	 -67.4399
| 17> H 	 -111.628 	 55.9743 	 -67.1237
| 18> H 	 -110.901 	 56.8005 	 -68.4263
| 19> C 	 -110.128 	 57.3331 	 -66.5761
| 20> H 	 -109.613 	 58.1836 	 -67.0383
| 21> H 	 -110.556 	 57.4364 	 -65.5782
| 22> H 	 -109.384 	 56.6271 	 -66.5139
| 23> S 	 -112.821 	 64.2687 	 -68.7263
| 24> C 	 -114.232 	 65.2225 	 -68.7545
| 25> C 	 -115.36 	 64.5157 	 -68.5591
| 26> C 	 -115.103 	 63.1384 	 -68.3058
| 27> C 	 -113.76 	 62.8397 	 -68.4827
| 28> H 	 -116.285 	 65.0793 	 -68.5413
| 29> C 	 -116.257 	 62.1884 	 -68.023
| 30> H 	 -116.934 	 62.6443 	 -67.3292
| 31> H 	 -115.866 	 61.3293 	 -67.534
| 32> C 	 -117.013 	 61.737 	 -69.3083
| 33> H 	 -117.043 	 62.5817 	 -70.0105
| 34> H 	 -118.037 	 61.5074 	 -69.1152
| 35> C 	 -116.36 	 60.4964 	 -69.9339
| 36> H 	 -116.585 	 59.5872 	 -69.3661
| 37> H 	 -115.319 	 60.4194 	 -70.0842
| 38> H 	 -116.866 	 60.3789 	 -70.9175
| 39> H 	 -110.836 	 58.9004 	 -69.4829
| 40> H 	 -114.281 	 66.1704 	 -69.153
| 41> *
| 42>
| 43>                          ****END OF INPUT****

CARTESIAN COORDINATES (ANGSTROEM)
---------------------------------
  S    -111.659000   61.216500  -69.617500
  C    -111.566000   59.598700  -69.102800
  C    -112.386000   59.265700  -67.998000
  C    -113.208000   60.421200  -67.695700
  C    -113.052000   61.519100  -68.558000
  H    -113.820000   60.375200  -66.819400
  C    -112.431000   57.962200  -67.229300
  H    -113.465000   57.570700  -67.407000
  H    -112.436000   58.146100  -66.163700
  C    -111.300000   56.948100  -67.439900
  H    -111.628000   55.974300  -67.123700
  H    -110.901000   56.800500  -68.426300
  C    -110.128000   57.333100  -66.576100
  H    -109.613000   58.183600  -67.038300
  H    -110.556000   57.436400  -65.578200
  H    -109.384000   56.627100  -66.513900
  S    -112.821000   64.268700  -68.726300
  C    -114.232000   65.222500  -68.754500
  C    -115.360000   64.515700  -68.559100
  C    -115.103000   63.138400  -68.305800
  C    -113.760000   62.839700  -68.482700
  H    -116.285000   65.079300  -68.541300
  C    -116.257000   62.188400  -68.023000
  H    -116.934000   62.644300  -67.329200
  H    -115.866000   61.329300  -67.534000
  C    -117.013000   61.737000  -69.308300
  H    -117.043000   62.581700  -70.010500
  H    -118.037000   61.507400  -69.115200
  C    -116.360000   60.496400  -69.933900
  H    -116.585000   59.587200  -69.366100
  H    -115.319000   60.419400  -70.084200
  H    -116.866000   60.378900  -70.917500
  H    -110.836000   58.900400  -69.482900
  H    -114.281000   66.170400  -69.153000

 Total Charge           Charge          ....    0
 Multiplicity           Mult            ....    1
 Number of Electrons    NEL             ....  134
 Basis Dimension        Dim             ....  322

ORBITAL ENERGIES
----------------

  NO   OCC          E(Eh)            E(eV)
   0   2.0000     -88.970642     -2421.0143
   1   2.0000     -88.962615     -2420.7958
   2   2.0000     -10.336762      -281.2776
   3   2.0000     -10.326986      -281.0116
   4   2.0000     -10.312436      -280.6157
   5   2.0000     -10.305959      -280.4394
   6   2.0000     -10.300592      -280.2934
   7   2.0000     -10.299967      -280.2763
   8   2.0000     -10.299673      -280.2683
   9   2.0000     -10.296507      -280.1822
  10   2.0000     -10.286069      -279.8982
  11   2.0000     -10.284727      -279.8616
  12   2.0000     -10.284000      -279.8419
  13   2.0000     -10.283363      -279.8245
  14   2.0000     -10.269314      -279.4422
  15   2.0000     -10.267915      -279.4042
  16   2.0000      -8.085327      -220.0129
  17   2.0000      -8.078884      -219.8376
  18   2.0000      -6.043816      -164.4606
  19   2.0000      -6.039914      -164.3544
  20   2.0000      -6.037288      -164.2829
  21   2.0000      -6.036055      -164.2494
  22   2.0000      -6.033239      -164.1728
  23   2.0000      -6.029622      -164.0743
  24   2.0000      -1.009507       -27.4701
  25   2.0000      -0.986850       -26.8535
  26   2.0000      -0.919375       -25.0175
  27   2.0000      -0.905630       -24.6434
  28   2.0000      -0.867125       -23.5957
  29   2.0000      -0.855024       -23.2664
  30   2.0000      -0.846812       -23.0429
  31   2.0000      -0.813644       -22.1404
  32   2.0000      -0.783018       -21.3070
  33   2.0000      -0.772843       -21.0301
  34   2.0000      -0.709517       -19.3069
  35   2.0000      -0.703435       -19.1414
  36   2.0000      -0.693406       -18.8685
  37   2.0000      -0.660614       -17.9762
  38   2.0000      -0.636200       -17.3119
  39   2.0000      -0.620580       -16.8868
  40   2.0000      -0.599964       -16.3258
  41   2.0000      -0.584838       -15.9143
  42   2.0000      -0.562712       -15.3122
  43   2.0000      -0.549349       -14.9485
  44   2.0000      -0.545200       -14.8357
  45   2.0000      -0.529407       -14.4059
  46   2.0000      -0.516755       -14.0616
  47   2.0000      -0.505558       -13.7569
  48   2.0000      -0.500031       -13.6065
  49   2.0000      -0.495142       -13.4735
  50   2.0000      -0.491462       -13.3734
  51   2.0000      -0.476461       -12.9652
  52   2.0000      -0.474129       -12.9017
  53   2.0000      -0.464958       -12.6521
  54   2.0000      -0.457040       -12.4367
  55   2.0000      -0.448076       -12.1928
  56   2.0000      -0.445532       -12.1236
  57   2.0000      -0.440791       -11.9945
  58   2.0000      -0.433787       -11.8039
  59   2.0000      -0.427569       -11.6347
  60   2.0000      -0.422873       -11.5070
  61   2.0000      -0.418928       -11.3996
  62   2.0000      -0.414456       -11.2779
  63   2.0000      -0.352172        -9.5831
  64   2.0000      -0.331896        -9.0314
  65   2.0000      -0.325431        -8.8554
  66   2.0000      -0.285782        -7.7765
  67   0.0000       0.028648         0.7795
  68   0.0000       0.076758         2.0887
  69   0.0000       0.109450         2.9783
  70   0.0000       0.124376         3.3844
  71   0.0000       0.132960         3.6180

MULLIKEN ATOMIC CHARGES
-----------------------
   0 S :    0.125788
   1 C :   -0.123358
   2 C :   -0.103911
   3 C :    0.017298
   4 C :   -0.133253
   5 H :    0.010852
   6 C :    0.054922
   7 H :    0.045529
   8 H :    0.021833
   9 C :   -0.049747
  10 H :    0.017506
  11 H :    0.021101
  12 C :   -0.024109
  13 H :    0.036311
  14 H :    0.025683
  15 H :    0.009557
  16 S :    0.105102
  17 C :   -0.053721
  18 C :   -0.050505
  19 C :   -0.057772
  20 C :   -0.150050
  21 H :    0.019543
  22 C :    0.118259
  23 H :    0.017167
  24 H :   -0.007104
  25 C :   -0.049124
  26 H :    0.028387
  27 H :    0.020482
  28 C :   -0.054102
  29 H :    0.021585
  30 H :    0.041177
  31 H :    0.028482
  32 H :    0.041538
  33 H :    0.028651
Sum of atomic charges:    0.0000000

LOEWDIN ATOMIC CHARGES
----------------------
   0 S :    0.420966
   1 C :   -0.218743
   2 C :   -0.059426
   3 C :   -0.059122
   4 C :   -0.189532
   5 H :    0.024856
   6 C :   -0.033911
   7 H :    0.040071
   8 H :    0.031739
   9 C :   -0.038030
  10 H :    0.024171
  11 H :    0.019351
  12 C :   -0.055221
  13 H :    0.029682
  14 H :    0.025760
  15 H :    0.012078
  16 S :    0.424257
  17 C :   -0.190493
  18 C :   -0.068435
  19 C :   -0.054710
  20 C :   -0.202266
  21 H :    0.034790
  22 C :   -0.025140
  23 H :    0.027777
  24 H :    0.020660
  25 C :   -0.031484
  26 H :    0.023868
  27 H :    0.020632
  28 C :   -0.065575
  29 H :    0.023974
  30 H :    0.020751
  31 H :    0.029718
  32 H :    0.022011
  33 H :    0.014974

  Mayer bond orders larger than 0.100000
B(  0-S ,  1-C ) :   1.1583 B(  0-S ,  4-C ) :   1.1473 B(  1-C ,  2-C ) :   1.5913
B(  1-C , 32-H ) :   0.9591 B(  2-C ,  3-C ) :   1.2773 B(  2-C ,  6-C ) :   1.0108
B(  3-C ,  4-C ) :   1.5441 B(  3-C ,  5-H ) :   0.9910 B(  4-C , 20-C ) :   1.0384
B(  6-C ,  7-H ) :   0.9331 B(  6-C ,  8-H ) :   0.9423 B(  6-C ,  9-C ) :   1.0712
B(  9-C , 10-H ) :   0.9495 B(  9-C , 11-H ) :   0.9565 B(  9-C , 12-C ) :   1.0850
B( 12-C , 13-H ) :   0.9762 B( 12-C , 14-H ) :   0.9741 B( 12-C , 15-H ) :   0.9718
B( 16-S , 17-C ) :   1.1512 B( 16-S , 20-C ) :   1.1526 B( 17-C , 18-C ) :   1.6444
B( 17-C , 33-H ) :   0.9657 B( 18-C , 19-C ) :   1.2298 B( 18-C , 21-H ) :   0.9905
B( 19-C , 20-C ) :   1.5966 B( 19-C , 22-C ) :   1.0510 B( 22-C , 23-H ) :   0.9301
B( 22-C , 24-H ) :   0.9324 B( 22-C , 25-C ) :   1.0625 B( 25-C , 26-H ) :   0.9628
B( 25-C , 27-H ) :   0.9537 B( 25-C , 28-C ) :   1.0757 B( 28-C , 29-H ) :   0.9735
B( 28-C , 30-H ) :   0.9810 B( 28-C , 31-H ) :   0.9719

Dispersion correction           -0.014914120
FINAL SINGLE POINT ENERGY     -1339.871570557044

DIPOLE MOMENT
-------------
                                X             Y             Z
Electronic contribution:      8.58468      22.39543      -5.80675
Nuclear contribution   :     -8.92182     -22.87148       6.05303
                        -----------------------------------------
Total Dipole Moment    :     -0.33714      -0.47604       0.24628
                        -----------------------------------------
Magnitude (a.u.)       :      0.63319
Magnitude (Debye)      :      1.60945

Rotational constants in cm-1:     0.022867     0.008097     0.006735
Rotational constants in MHz :   685.549052   242.732861   201.900903

                             ****ORCA TERMINATED NORMALLY****
TOTAL RUN TIME: 0 days 0 hours 0 minutes 21 seconds 987 msec
