                         Program Version 4.2.1 -  RELEASE  -
|  1> ! wB97X-D3 SP def2-SVP
|  2> %pal
|  3> nprocs 24
|  4> end
|  5>
|  6> * xyz 0 1
|  7> S 	 -105.929 	 -2.00733 	 -107.786
|  8> C 	 -106.215 	 -1.39038 	 -106.187
|  9> C 	 -105.246 	 -0.481482 	 -105.858
| 10> C 	 -104.251 	 -0.279299 	 -106.886
| 11> C 	 -104.475 	 -1.07619 	 -107.986
| 12> H 	 -103.431 	 0.386381 	 -106.886
| 13> C 	 -105.23 	 0.177904 	 -104.501
| 14> H 	 -104.667 	 -0.433752 	 -103.849
| 15> H 	 -106.253 	 0.360463 	 -104.098
| 16> C 	 -104.39 	 1.4637 	 -104.415
| 17> H 	 -103.402 	 1.09848 	 -104.46
| 18> H 	 -104.538 	 2.09914 	 -105.305
| 19> C 	 -104.547 	 2.31524 	 -103.111
| 20> H 	 -105.567 	 2.47884 	 -102.929
| 21> H 	 -104.146 	 1.71751 	 -102.216
| 22> H 	 -104.034 	 3.26309 	 -103.156
| 23> S 	 -103.756 	 -2.54272 	 -110.194
| 24> C 	 -102.812 	 -1.87748 	 -111.487
| 25> C 	 -102.454 	 -0.564364 	 -111.233
| 26> C 	 -102.938 	 -0.176847 	 -109.906
| 27> C 	 -103.659 	 -1.15647 	 -109.209
| 28> H 	 -101.966 	 0.126927 	 -111.971
| 29> C 	 -102.748 	 1.27055 	 -109.417
| 30> H 	 -103.472 	 1.50368 	 -108.663
| 31> H 	 -103.037 	 1.95227 	 -110.247
| 32> C 	 -101.279 	 1.62175 	 -108.904
| 33> H 	 -100.6 	 1.30646 	 -109.638
| 34> H 	 -101.031 	 1.03652 	 -108.046
| 35> C 	 -101.239 	 3.15548 	 -108.705
| 36> H 	 -100.236 	 3.53011 	 -108.347
| 37> H 	 -102.001 	 3.52766 	 -108.022
| 38> H 	 -101.296 	 3.64952 	 -109.722
| 39> H 	 -107.094 	 -1.55562 	 -105.606
| 40> H 	 -102.618 	 -2.4409 	 -112.392
| 41> *
| 42>
| 43>                          ****END OF INPUT****

CARTESIAN COORDINATES (ANGSTROEM)
---------------------------------
  S    -105.929000   -2.007330  -107.786000
  C    -106.215000   -1.390380  -106.187000
  C    -105.246000   -0.481482  -105.858000
  C    -104.251000   -0.279299  -106.886000
  C    -104.475000   -1.076190  -107.986000
  H    -103.431000    0.386381  -106.886000
  C    -105.230000    0.177904  -104.501000
  H    -104.667000   -0.433752  -103.849000
  H    -106.253000    0.360463  -104.098000
  C    -104.390000    1.463700  -104.415000
  H    -103.402000    1.098480  -104.460000
  H    -104.538000    2.099140  -105.305000
  C    -104.547000    2.315240  -103.111000
  H    -105.567000    2.478840  -102.929000
  H    -104.146000    1.717510  -102.216000
  H    -104.034000    3.263090  -103.156000
  S    -103.756000   -2.542720  -110.194000
  C    -102.812000   -1.877480  -111.487000
  C    -102.454000   -0.564364  -111.233000
  C    -102.938000   -0.176847  -109.906000
  C    -103.659000   -1.156470  -109.209000
  H    -101.966000    0.126927  -111.971000
  C    -102.748000    1.270550  -109.417000
  H    -103.472000    1.503680  -108.663000
  H    -103.037000    1.952270  -110.247000
  C    -101.279000    1.621750  -108.904000
  H    -100.600000    1.306460  -109.638000
  H    -101.031000    1.036520  -108.046000
  C    -101.239000    3.155480  -108.705000
  H    -100.236000    3.530110  -108.347000
  H    -102.001000    3.527660  -108.022000
  H    -101.296000    3.649520  -109.722000
  H    -107.094000   -1.555620  -105.606000
  H    -102.618000   -2.440900  -112.392000

 Total Charge           Charge          ....    0
 Multiplicity           Mult            ....    1
 Number of Electrons    NEL             ....  134
 Basis Dimension        Dim             ....  322

ORBITAL ENERGIES
----------------

  NO   OCC          E(Eh)            E(eV)
   0   2.0000     -88.965750     -2420.8811
   1   2.0000     -88.964999     -2420.8607
   2   2.0000     -10.332849      -281.1711
   3   2.0000     -10.327993      -281.0390
   4   2.0000     -10.320389      -280.8321
   5   2.0000     -10.308869      -280.5186
   6   2.0000     -10.308067      -280.4968
   7   2.0000     -10.304875      -280.4099
   8   2.0000     -10.301871      -280.3282
   9   2.0000     -10.292852      -280.0828
  10   2.0000     -10.292743      -280.0798
  11   2.0000     -10.289733      -279.9979
  12   2.0000     -10.288840      -279.9736
  13   2.0000     -10.286845      -279.9193
  14   2.0000     -10.284888      -279.8660
  15   2.0000     -10.283082      -279.8169
  16   2.0000      -8.080946      -219.8937
  17   2.0000      -8.080891      -219.8922
  18   2.0000      -6.039454      -164.3419
  19   2.0000      -6.039389      -164.3401
  20   2.0000      -6.035292      -164.2287
  21   2.0000      -6.035140      -164.2245
  22   2.0000      -6.031822      -164.1342
  23   2.0000      -6.031633      -164.1291
  24   2.0000      -1.011810       -27.5328
  25   2.0000      -0.988812       -26.9070
  26   2.0000      -0.912961       -24.8429
  27   2.0000      -0.901993       -24.5445
  28   2.0000      -0.872679       -23.7468
  29   2.0000      -0.850035       -23.1306
  30   2.0000      -0.841858       -22.9081
  31   2.0000      -0.820441       -22.3253
  32   2.0000      -0.780655       -21.2427
  33   2.0000      -0.767055       -20.8726
  34   2.0000      -0.712580       -19.3903
  35   2.0000      -0.704758       -19.1774
  36   2.0000      -0.689873       -18.7724
  37   2.0000      -0.662470       -18.0267
  38   2.0000      -0.642443       -17.4818
  39   2.0000      -0.623313       -16.9612
  40   2.0000      -0.596021       -16.2186
  41   2.0000      -0.578368       -15.7382
  42   2.0000      -0.565847       -15.3975
  43   2.0000      -0.560324       -15.2472
  44   2.0000      -0.524088       -14.2611
  45   2.0000      -0.522432       -14.2161
  46   2.0000      -0.516543       -14.0559
  47   2.0000      -0.511426       -13.9166
  48   2.0000      -0.507468       -13.8089
  49   2.0000      -0.500018       -13.6062
  50   2.0000      -0.493827       -13.4377
  51   2.0000      -0.482303       -13.1241
  52   2.0000      -0.472530       -12.8582
  53   2.0000      -0.468957       -12.7610
  54   2.0000      -0.460039       -12.5183
  55   2.0000      -0.455219       -12.3871
  56   2.0000      -0.447774       -12.1846
  57   2.0000      -0.436788       -11.8856
  58   2.0000      -0.431493       -11.7415
  59   2.0000      -0.425958       -11.5909
  60   2.0000      -0.424232       -11.5440
  61   2.0000      -0.419120       -11.4048
  62   2.0000      -0.408602       -11.1186
  63   2.0000      -0.361670        -9.8416
  64   2.0000      -0.332581        -9.0500
  65   2.0000      -0.326625        -8.8879
  66   2.0000      -0.287986        -7.8365
  67   0.0000       0.026980         0.7342
  68   0.0000       0.082069         2.2332
  69   0.0000       0.113390         3.0855
  70   0.0000       0.119663         3.2562
  71   0.0000       0.128618         3.4999

MULLIKEN ATOMIC CHARGES
-----------------------
   0 S :    0.108507
   1 C :   -0.114094
   2 C :   -0.073889
   3 C :    0.005416
   4 C :   -0.105967
   5 H :   -0.005048
   6 C :    0.082843
   7 H :    0.029347
   8 H :    0.030580
   9 C :   -0.132060
  10 H :    0.025077
  11 H :    0.032934
  12 C :   -0.022752
  13 H :    0.021081
  14 H :    0.035100
  15 H :    0.039881
  16 S :    0.097009
  17 C :   -0.097150
  18 C :   -0.023097
  19 C :   -0.077969
  20 C :   -0.110473
  21 H :    0.046923
  22 C :   -0.005504
  23 H :    0.014684
  24 H :    0.028549
  25 C :   -0.014970
  26 H :    0.013306
  27 H :    0.026274
  28 C :   -0.076152
  29 H :    0.036574
  30 H :    0.041383
  31 H :    0.039335
  32 H :    0.039936
  33 H :    0.064387
Sum of atomic charges:    0.0000000

LOEWDIN ATOMIC CHARGES
----------------------
   0 S :    0.411905
   1 C :   -0.199056
   2 C :   -0.057208
   3 C :   -0.068158
   4 C :   -0.182736
   5 H :    0.023370
   6 C :   -0.029963
   7 H :    0.031070
   8 H :    0.030640
   9 C :   -0.043612
  10 H :    0.016422
  11 H :    0.020364
  12 C :   -0.059877
  13 H :    0.015428
  14 H :    0.033582
  15 H :    0.027357
  16 S :    0.429720
  17 C :   -0.188531
  18 C :   -0.076204
  19 C :   -0.057505
  20 C :   -0.217419
  21 H :    0.044274
  22 C :   -0.034720
  23 H :    0.020249
  24 H :    0.033013
  25 C :   -0.029702
  26 H :    0.017086
  27 H :    0.019638
  28 C :   -0.072305
  29 H :    0.028212
  30 H :    0.024361
  31 H :    0.032731
  32 H :    0.027291
  33 H :    0.030284

  Mayer bond orders larger than 0.100000
B(  0-S ,  1-C ) :   1.1225 B(  0-S ,  4-C ) :   1.1618 B(  1-C ,  2-C ) :   1.6225
B(  1-C , 32-H ) :   0.9762 B(  2-C ,  3-C ) :   1.2243 B(  2-C ,  6-C ) :   1.0260
B(  3-C ,  4-C ) :   1.5547 B(  3-C ,  5-H ) :   1.0033 B(  4-C , 20-C ) :   1.0571
B(  6-C ,  7-H ) :   0.9322 B(  6-C ,  8-H ) :   0.9480 B(  6-C ,  9-C ) :   1.0638
B(  9-C , 10-H ) :   0.9489 B(  9-C , 11-H ) :   0.9627 B(  9-C , 12-C ) :   1.0824
B( 12-C , 13-H ) :   0.9772 B( 12-C , 14-H ) :   0.9733 B( 12-C , 15-H ) :   0.9742
B( 16-S , 17-C ) :   1.1776 B( 16-S , 20-C ) :   1.1389 B( 17-C , 18-C ) :   1.5725
B( 17-C , 33-H ) :   0.9699 B( 18-C , 19-C ) :   1.2653 B( 18-C , 21-H ) :   0.9842
B( 19-C , 20-C ) :   1.5648 B( 19-C , 22-C ) :   1.0415 B( 22-C , 23-H ) :   0.9399
B( 22-C , 24-H ) :   0.9423 B( 22-C , 25-C ) :   1.0452 B( 25-C , 26-H ) :   0.9562
B( 25-C , 27-H ) :   0.9564 B( 25-C , 28-C ) :   1.0737 B( 28-C , 29-H ) :   0.9739
B( 28-C , 30-H ) :   0.9767 B( 28-C , 31-H ) :   0.9748

Dispersion correction           -0.013831625
FINAL SINGLE POINT ENERGY     -1339.886115049379

DIPOLE MOMENT
-------------
                                X             Y             Z
Electronic contribution:    -10.77921     -27.44586     -16.84930
Nuclear contribution   :     11.01019      28.06004      16.99410
                        -----------------------------------------
Total Dipole Moment    :      0.23098       0.61418       0.14481
                        -----------------------------------------
Magnitude (a.u.)       :      0.67196
Magnitude (Debye)      :      1.70799

Rotational constants in cm-1:     0.016682     0.009612     0.006269
Rotational constants in MHz :   500.125284   288.152886   187.936555

                             ****ORCA TERMINATED NORMALLY****
TOTAL RUN TIME: 0 days 0 hours 0 minutes 21 seconds 467 msec
