                         Program Version 4.2.1 -  RELEASE  -
|  1> ! wB97X-D3 SP def2-SVP
|  2> %pal
|  3> nprocs 24
|  4> end
|  5>
|  6> * xyz 0 1
|  7> S 	 -106.832 	 17.3036 	 -119.369
|  8> C 	 -105.293 	 16.3084 	 -119.34
|  9> C 	 -104.869 	 15.9717 	 -120.609
| 10> C 	 -105.733 	 16.4747 	 -121.655
| 11> C 	 -106.705 	 17.3577 	 -121.145
| 12> H 	 -105.604 	 16.3228 	 -122.703
| 13> C 	 -103.624 	 15.0758 	 -120.927
| 14> H 	 -103.668 	 14.8882 	 -122.003
| 15> H 	 -103.675 	 14.0952 	 -120.4
| 16> C 	 -102.25 	 15.6663 	 -120.517
| 17> H 	 -102.237 	 15.6852 	 -119.416
| 18> H 	 -101.418 	 15.0469 	 -120.773
| 19> C 	 -101.978 	 17.0152 	 -121.163
| 20> H 	 -100.906 	 17.2327 	 -121.018
| 21> H 	 -102.02 	 16.9434 	 -122.221
| 22> H 	 -102.602 	 17.808 	 -120.81
| 23> S 	 -107.363 	 19.8416 	 -121.676
| 24> C 	 -107.899 	 20.2753 	 -123.255
| 25> C 	 -108.353 	 19.1106 	 -123.889
| 26> C 	 -108.053 	 17.8819 	 -123.231
| 27> C 	 -107.571 	 18.1454 	 -121.964
| 28> H 	 -108.942 	 19.1893 	 -124.806
| 29> C 	 -108.342 	 16.5175 	 -123.915
| 30> H 	 -107.417 	 15.9938 	 -123.761
| 31> H 	 -108.237 	 16.7004 	 -124.998
| 32> C 	 -109.527 	 15.6741 	 -123.606
| 33> H 	 -110.338 	 16.3616 	 -123.589
| 34> H 	 -109.548 	 15.2493 	 -122.63
| 35> C 	 -109.747 	 14.4948 	 -124.611
| 36> H 	 -108.878 	 14.3513 	 -125.257
| 37> H 	 -110.552 	 14.5986 	 -125.283
| 38> H 	 -110.064 	 13.5772 	 -124.152
| 39> H 	 -104.803 	 15.9157 	 -118.435
| 40> H 	 -108.173 	 21.2286 	 -123.7
| 41> *
| 42>
| 43>                          ****END OF INPUT****

CARTESIAN COORDINATES (ANGSTROEM)
---------------------------------
  S    -106.832000   17.303600  -119.369000
  C    -105.293000   16.308400  -119.340000
  C    -104.869000   15.971700  -120.609000
  C    -105.733000   16.474700  -121.655000
  C    -106.705000   17.357700  -121.145000
  H    -105.604000   16.322800  -122.703000
  C    -103.624000   15.075800  -120.927000
  H    -103.668000   14.888200  -122.003000
  H    -103.675000   14.095200  -120.400000
  C    -102.250000   15.666300  -120.517000
  H    -102.237000   15.685200  -119.416000
  H    -101.418000   15.046900  -120.773000
  C    -101.978000   17.015200  -121.163000
  H    -100.906000   17.232700  -121.018000
  H    -102.020000   16.943400  -122.221000
  H    -102.602000   17.808000  -120.810000
  S    -107.363000   19.841600  -121.676000
  C    -107.899000   20.275300  -123.255000
  C    -108.353000   19.110600  -123.889000
  C    -108.053000   17.881900  -123.231000
  C    -107.571000   18.145400  -121.964000
  H    -108.942000   19.189300  -124.806000
  C    -108.342000   16.517500  -123.915000
  H    -107.417000   15.993800  -123.761000
  H    -108.237000   16.700400  -124.998000
  C    -109.527000   15.674100  -123.606000
  H    -110.338000   16.361600  -123.589000
  H    -109.548000   15.249300  -122.630000
  C    -109.747000   14.494800  -124.611000
  H    -108.878000   14.351300  -125.257000
  H    -110.552000   14.598600  -125.283000
  H    -110.064000   13.577200  -124.152000
  H    -104.803000   15.915700  -118.435000
  H    -108.173000   21.228600  -123.700000

 Total Charge           Charge          ....    0
 Multiplicity           Mult            ....    1
 Number of Electrons    NEL             ....  134
 Basis Dimension        Dim             ....  322

ORBITAL ENERGIES
----------------

  NO   OCC          E(Eh)            E(eV)
   0   2.0000     -88.969015     -2420.9700
   1   2.0000     -88.967206     -2420.9208
   2   2.0000     -10.332840      -281.1709
   3   2.0000     -10.321725      -280.8684
   4   2.0000     -10.318470      -280.7799
   5   2.0000     -10.318435      -280.7789
   6   2.0000     -10.306228      -280.4467
   7   2.0000     -10.306150      -280.4446
   8   2.0000     -10.297720      -280.2152
   9   2.0000     -10.296164      -280.1729
  10   2.0000     -10.294634      -280.1312
  11   2.0000     -10.293132      -280.0904
  12   2.0000     -10.284590      -279.8579
  13   2.0000     -10.281672      -279.7785
  14   2.0000     -10.274918      -279.5947
  15   2.0000     -10.267294      -279.3873
  16   2.0000      -8.082620      -219.9393
  17   2.0000      -8.081833      -219.9179
  18   2.0000      -6.041162      -164.3884
  19   2.0000      -6.040507      -164.3706
  20   2.0000      -6.036840      -164.2708
  21   2.0000      -6.036819      -164.2702
  22   2.0000      -6.033464      -164.1789
  23   2.0000      -6.032306      -164.1474
  24   2.0000      -1.009966       -27.4826
  25   2.0000      -0.973296       -26.4847
  26   2.0000      -0.911737       -24.8096
  27   2.0000      -0.905932       -24.6517
  28   2.0000      -0.868748       -23.6398
  29   2.0000      -0.854054       -23.2400
  30   2.0000      -0.840290       -22.8655
  31   2.0000      -0.806885       -21.9564
  32   2.0000      -0.786878       -21.4120
  33   2.0000      -0.774675       -21.0800
  34   2.0000      -0.716300       -19.4915
  35   2.0000      -0.702594       -19.1186
  36   2.0000      -0.696028       -18.9399
  37   2.0000      -0.664227       -18.0745
  38   2.0000      -0.631251       -17.1772
  39   2.0000      -0.611451       -16.6384
  40   2.0000      -0.593542       -16.1511
  41   2.0000      -0.569674       -15.5016
  42   2.0000      -0.561191       -15.2708
  43   2.0000      -0.544995       -14.8301
  44   2.0000      -0.542198       -14.7539
  45   2.0000      -0.528582       -14.3835
  46   2.0000      -0.519696       -14.1416
  47   2.0000      -0.510303       -13.8860
  48   2.0000      -0.505890       -13.7660
  49   2.0000      -0.494952       -13.4683
  50   2.0000      -0.486766       -13.2456
  51   2.0000      -0.477705       -12.9990
  52   2.0000      -0.473408       -12.8821
  53   2.0000      -0.459904       -12.5146
  54   2.0000      -0.453947       -12.3525
  55   2.0000      -0.451454       -12.2847
  56   2.0000      -0.443791       -12.0762
  57   2.0000      -0.442685       -12.0461
  58   2.0000      -0.432161       -11.7597
  59   2.0000      -0.424477       -11.5506
  60   2.0000      -0.420983       -11.4555
  61   2.0000      -0.412862       -11.2345
  62   2.0000      -0.407460       -11.0876
  63   2.0000      -0.346448        -9.4273
  64   2.0000      -0.332837        -9.0570
  65   2.0000      -0.331744        -9.0272
  66   2.0000      -0.287316        -7.8183
  67   0.0000       0.024598         0.6694
  68   0.0000       0.063608         1.7309
  69   0.0000       0.098321         2.6755
  70   0.0000       0.122753         3.3403
  71   0.0000       0.125377         3.4117

MULLIKEN ATOMIC CHARGES
-----------------------
   0 S :    0.099720
   1 C :   -0.134705
   2 C :   -0.084011
   3 C :    0.024319
   4 C :   -0.142294
   5 H :    0.017549
   6 C :    0.052468
   7 H :    0.018332
   8 H :    0.043787
   9 C :   -0.073570
  10 H :    0.025287
  11 H :    0.023220
  12 C :   -0.031418
  13 H :    0.023754
  14 H :    0.014206
  15 H :    0.050575
  16 S :    0.117305
  17 C :   -0.080475
  18 C :   -0.071669
  19 C :   -0.086460
  20 C :   -0.124340
  21 H :    0.023302
  22 C :    0.081600
  23 H :   -0.005654
  24 H :    0.016235
  25 C :    0.013135
  26 H :    0.014850
  27 H :    0.028215
  28 C :   -0.039461
  29 H :    0.031007
  30 H :    0.014725
  31 H :    0.024972
  32 H :    0.054830
  33 H :    0.060668
Sum of atomic charges:    0.0000000

LOEWDIN ATOMIC CHARGES
----------------------
   0 S :    0.357521
   1 C :   -0.183533
   2 C :   -0.057416
   3 C :   -0.060775
   4 C :   -0.178887
   5 H :    0.025340
   6 C :   -0.029847
   7 H :    0.024762
   8 H :    0.036058
   9 C :   -0.041031
  10 H :    0.022491
  11 H :    0.021992
  12 C :   -0.062051
  13 H :    0.029068
  14 H :    0.019716
  15 H :    0.025940
  16 S :    0.441256
  17 C :   -0.203199
  18 C :   -0.072231
  19 C :   -0.054492
  20 C :   -0.211166
  21 H :    0.029550
  22 C :   -0.033205
  23 H :    0.024347
  24 H :    0.033906
  25 C :   -0.033593
  26 H :    0.022105
  27 H :    0.026609
  28 C :   -0.062825
  29 H :    0.027012
  30 H :    0.021609
  31 H :    0.027338
  32 H :    0.032103
  33 H :    0.035528

  Mayer bond orders larger than 0.100000
B(  0-S ,  1-C ) :   1.0989 B(  0-S ,  4-C ) :   1.1314 B(  1-C ,  2-C ) :   1.6537
B(  1-C , 32-H ) :   0.9646 B(  2-C ,  3-C ) :   1.2236 B(  2-C ,  6-C ) :   1.0037
B(  3-C ,  4-C ) :   1.5957 B(  3-C ,  5-H ) :   0.9802 B(  4-C , 20-C ) :   1.0231
B(  6-C ,  7-H ) :   0.9467 B(  6-C ,  8-H ) :   0.9444 B(  6-C ,  9-C ) :   1.0750
B(  9-C , 10-H ) :   0.9550 B(  9-C , 11-H ) :   0.9564 B(  9-C , 12-C ) :   1.0801
B( 12-C , 13-H ) :   0.9728 B( 12-C , 14-H ) :   0.9735 B( 12-C , 15-H ) :   0.9750
B( 16-S , 17-C ) :   1.1714 B( 16-S , 20-C ) :   1.1552 B( 17-C , 18-C ) :   1.5784
B( 17-C , 33-H ) :   0.9644 B( 18-C , 19-C ) :   1.2772 B( 18-C , 21-H ) :   0.9839
B( 19-C , 20-C ) :   1.5701 B( 19-C , 22-C ) :   1.0251 B( 22-C , 23-H ) :   0.9156
B( 22-C , 24-H ) :   0.9321 B( 22-C , 25-C ) :   1.0715 B( 25-C , 26-H ) :   0.9562
B( 25-C , 27-H ) :   0.9563 B( 25-C , 28-C ) :   1.0567 B( 28-C , 29-H ) :   0.9814
B( 28-C , 30-H ) :   0.9732 B( 28-C , 31-H ) :   0.9763

Dispersion correction           -0.014049249
FINAL SINGLE POINT ENERGY     -1339.856256551902

DIPOLE MOMENT
-------------
                                X             Y             Z
Electronic contribution:     -8.52718      17.71550      13.05537
Nuclear contribution   :      8.64902     -18.12125     -13.64276
                        -----------------------------------------
Total Dipole Moment    :      0.12184      -0.40575      -0.58739
                        -----------------------------------------
Magnitude (a.u.)       :      0.72423
Magnitude (Debye)      :      1.84084

Rotational constants in cm-1:     0.016894     0.008631     0.007230
Rotational constants in MHz :   506.460986   258.752104   216.742291

                             ****ORCA TERMINATED NORMALLY****
TOTAL RUN TIME: 0 days 0 hours 0 minutes 21 seconds 379 msec
