                         Program Version 4.2.1 -  RELEASE  -
|  1> ! wB97X-D3 SP def2-SVP
|  2> %pal
|  3> nprocs 24
|  4> end
|  5>
|  6> * xyz 0 1
|  7> S 	 -122.235 	 30.8273 	 -113.936
|  8> C 	 -120.664 	 30.2563 	 -114.543
|  9> C 	 -119.623 	 31.0924 	 -114.148
| 10> C 	 -120.117 	 32.2061 	 -113.315
| 11> C 	 -121.529 	 32.1703 	 -113.125
| 12> H 	 -119.442 	 32.9825 	 -112.942
| 13> C 	 -118.177 	 31.0214 	 -114.633
| 14> H 	 -117.536 	 31.8317 	 -114.205
| 15> H 	 -118.215 	 31.2054 	 -115.741
| 16> C 	 -117.389 	 29.7094 	 -114.282
| 17> H 	 -117.859 	 28.8902 	 -114.719
| 18> H 	 -116.391 	 29.889 	 -114.722
| 19> C 	 -117.256 	 29.5465 	 -112.785
| 20> H 	 -116.634 	 28.7565 	 -112.349
| 21> H 	 -116.803 	 30.4447 	 -112.424
| 22> H 	 -118.259 	 29.4825 	 -112.309
| 23> S 	 -123.802 	 32.31 	 -111.543
| 24> C 	 -124.275 	 33.7796 	 -110.736
| 25> C 	 -123.4 	 34.8034 	 -111.019
| 26> C 	 -122.314 	 34.3853 	 -111.868
| 27> C 	 -122.329 	 33.0351 	 -112.208
| 28> H 	 -123.486 	 35.7523 	 -110.572
| 29> C 	 -121.301 	 35.4182 	 -112.37
| 30> H 	 -121.763 	 36.3817 	 -112.449
| 31> H 	 -121.05 	 35.1427 	 -113.391
| 32> C 	 -120.005 	 35.4702 	 -111.469
| 33> H 	 -119.269 	 36.2209 	 -111.798
| 34> H 	 -119.464 	 34.5108 	 -111.497
| 35> C 	 -120.419 	 35.7591 	 -110.002
| 36> H 	 -120.7 	 36.7697 	 -109.863
| 37> H 	 -119.633 	 35.6971 	 -109.208
| 38> H 	 -121.18 	 35.1239 	 -109.613
| 39> H 	 -120.543 	 29.5107 	 -115.278
| 40> H 	 -125.063 	 33.7648 	 -109.987
| 41> *
| 42>
| 43>                          ****END OF INPUT****

CARTESIAN COORDINATES (ANGSTROEM)
---------------------------------
  S    -122.235000   30.827300  -113.936000
  C    -120.664000   30.256300  -114.543000
  C    -119.623000   31.092400  -114.148000
  C    -120.117000   32.206100  -113.315000
  C    -121.529000   32.170300  -113.125000
  H    -119.442000   32.982500  -112.942000
  C    -118.177000   31.021400  -114.633000
  H    -117.536000   31.831700  -114.205000
  H    -118.215000   31.205400  -115.741000
  C    -117.389000   29.709400  -114.282000
  H    -117.859000   28.890200  -114.719000
  H    -116.391000   29.889000  -114.722000
  C    -117.256000   29.546500  -112.785000
  H    -116.634000   28.756500  -112.349000
  H    -116.803000   30.444700  -112.424000
  H    -118.259000   29.482500  -112.309000
  S    -123.802000   32.310000  -111.543000
  C    -124.275000   33.779600  -110.736000
  C    -123.400000   34.803400  -111.019000
  C    -122.314000   34.385300  -111.868000
  C    -122.329000   33.035100  -112.208000
  H    -123.486000   35.752300  -110.572000
  C    -121.301000   35.418200  -112.370000
  H    -121.763000   36.381700  -112.449000
  H    -121.050000   35.142700  -113.391000
  C    -120.005000   35.470200  -111.469000
  H    -119.269000   36.220900  -111.798000
  H    -119.464000   34.510800  -111.497000
  C    -120.419000   35.759100  -110.002000
  H    -120.700000   36.769700  -109.863000
  H    -119.633000   35.697100  -109.208000
  H    -121.180000   35.123900  -109.613000
  H    -120.543000   29.510700  -115.278000
  H    -125.063000   33.764800  -109.987000

 Total Charge           Charge          ....    0
 Multiplicity           Mult            ....    1
 Number of Electrons    NEL             ....  134
 Basis Dimension        Dim             ....  322

ORBITAL ENERGIES
----------------

  NO   OCC          E(Eh)            E(eV)
   0   2.0000     -88.971656     -2421.0418
   1   2.0000     -88.963430     -2420.8180
   2   2.0000     -10.340290      -281.3736
   3   2.0000     -10.334663      -281.2205
   4   2.0000     -10.319771      -280.8153
   5   2.0000     -10.315576      -280.7011
   6   2.0000     -10.309606      -280.5386
   7   2.0000     -10.306869      -280.4642
   8   2.0000     -10.303444      -280.3710
   9   2.0000     -10.303429      -280.3706
  10   2.0000     -10.295797      -280.1629
  11   2.0000     -10.293968      -280.1131
  12   2.0000     -10.293781      -280.1080
  13   2.0000     -10.286430      -279.9080
  14   2.0000     -10.273367      -279.5525
  15   2.0000     -10.271506      -279.5019
  16   2.0000      -8.086057      -220.0328
  17   2.0000      -8.078317      -219.8222
  18   2.0000      -6.044687      -164.4843
  19   2.0000      -6.040523      -164.3710
  20   2.0000      -6.036863      -164.2714
  21   2.0000      -6.036791      -164.2694
  22   2.0000      -6.032741      -164.1592
  23   2.0000      -6.029092      -164.0599
  24   2.0000      -1.003275       -27.3005
  25   2.0000      -0.980426       -26.6788
  26   2.0000      -0.911785       -24.8109
  27   2.0000      -0.903691       -24.5907
  28   2.0000      -0.867148       -23.5963
  29   2.0000      -0.845699       -23.0126
  30   2.0000      -0.839865       -22.8539
  31   2.0000      -0.811854       -22.0917
  32   2.0000      -0.781990       -21.2790
  33   2.0000      -0.774246       -21.0683
  34   2.0000      -0.709483       -19.3060
  35   2.0000      -0.704075       -19.1588
  36   2.0000      -0.691868       -18.8267
  37   2.0000      -0.667601       -18.1664
  38   2.0000      -0.636933       -17.3318
  39   2.0000      -0.611198       -16.6316
  40   2.0000      -0.595062       -16.1925
  41   2.0000      -0.579870       -15.7791
  42   2.0000      -0.554420       -15.0865
  43   2.0000      -0.550583       -14.9821
  44   2.0000      -0.544434       -14.8148
  45   2.0000      -0.542448       -14.7608
  46   2.0000      -0.509301       -13.8588
  47   2.0000      -0.506115       -13.7721
  48   2.0000      -0.501845       -13.6559
  49   2.0000      -0.493020       -13.4158
  50   2.0000      -0.489609       -13.3229
  51   2.0000      -0.480220       -13.0674
  52   2.0000      -0.468727       -12.7547
  53   2.0000      -0.464109       -12.6291
  54   2.0000      -0.457238       -12.4421
  55   2.0000      -0.449535       -12.2325
  56   2.0000      -0.443546       -12.0695
  57   2.0000      -0.437120       -11.8946
  58   2.0000      -0.434174       -11.8145
  59   2.0000      -0.426807       -11.6140
  60   2.0000      -0.423740       -11.5305
  61   2.0000      -0.416620       -11.3368
  62   2.0000      -0.411755       -11.2044
  63   2.0000      -0.357183        -9.7194
  64   2.0000      -0.331632        -9.0242
  65   2.0000      -0.329417        -8.9639
  66   2.0000      -0.287622        -7.8266
  67   0.0000       0.021914         0.5963
  68   0.0000       0.074272         2.0210
  69   0.0000       0.098174         2.6714
  70   0.0000       0.118212         3.2167
  71   0.0000       0.134566         3.6617

MULLIKEN ATOMIC CHARGES
-----------------------
   0 S :    0.111143
   1 C :   -0.106358
   2 C :   -0.088383
   3 C :    0.009642
   4 C :   -0.111858
   5 H :    0.008162
   6 C :   -0.009229
   7 H :    0.028427
   8 H :    0.057585
   9 C :   -0.033636
  10 H :    0.020190
  11 H :    0.034449
  12 C :   -0.057432
  13 H :    0.039949
  14 H :    0.006755
  15 H :    0.048032
  16 S :    0.077180
  17 C :   -0.089573
  18 C :   -0.000950
  19 C :   -0.098047
  20 C :   -0.115840
  21 H :    0.006787
  22 C :    0.081184
  23 H :    0.021470
  24 H :    0.030151
  25 C :   -0.063898
  26 H :    0.037616
  27 H :    0.041106
  28 C :   -0.067032
  29 H :    0.013305
  30 H :    0.024561
  31 H :    0.043475
  32 H :    0.035387
  33 H :    0.065678
Sum of atomic charges:   -0.0000000

LOEWDIN ATOMIC CHARGES
----------------------
   0 S :    0.413783
   1 C :   -0.191159
   2 C :   -0.057357
   3 C :   -0.070558
   4 C :   -0.197158
   5 H :    0.028172
   6 C :   -0.036297
   7 H :    0.031315
   8 H :    0.041008
   9 C :   -0.032031
  10 H :    0.010920
  11 H :    0.028932
  12 C :   -0.070729
  13 H :    0.027928
  14 H :    0.018524
  15 H :    0.033097
  16 S :    0.392001
  17 C :   -0.180293
  18 C :   -0.066436
  19 C :   -0.057049
  20 C :   -0.185711
  21 H :    0.025221
  22 C :   -0.025234
  23 H :    0.027364
  24 H :    0.029963
  25 C :   -0.034833
  26 H :    0.026477
  27 H :    0.022551
  28 C :   -0.072739
  29 H :    0.017090
  30 H :    0.029894
  31 H :    0.023309
  32 H :    0.019048
  33 H :    0.030987

  Mayer bond orders larger than 0.100000
B(  0-S ,  1-C ) :   1.1243 B(  0-S ,  4-C ) :   1.1696 B(  1-C ,  2-C ) :   1.6068
B(  1-C , 32-H ) :   0.9738 B(  2-C ,  3-C ) :   1.2552 B(  2-C ,  6-C ) :   1.0116
B(  3-C ,  4-C ) :   1.5323 B(  3-C ,  5-H ) :   0.9853 B(  4-C , 20-C ) :   1.0474
B(  6-C ,  7-H ) :   0.9491 B(  6-C ,  8-H ) :   0.9429 B(  6-C ,  9-C ) :   1.0666
B(  9-C , 10-H ) :   0.9600 B(  9-C , 11-H ) :   0.9572 B(  9-C , 12-C ) :   1.0694
B( 12-C , 13-H ) :   0.9759 B( 12-C , 14-H ) :   0.9725 B( 12-C , 15-H ) :   0.9724
B( 16-S , 17-C ) :   1.1629 B( 16-S , 20-C ) :   1.1303 B( 17-C , 18-C ) :   1.5872
B( 17-C , 33-H ) :   0.9676 B( 18-C , 19-C ) :   1.2457 B( 18-C , 21-H ) :   0.9992
B( 19-C , 20-C ) :   1.5963 B( 19-C , 22-C ) :   1.0355 B( 22-C , 23-H ) :   0.9444
B( 22-C , 24-H ) :   0.9357 B( 22-C , 25-C ) :   1.0572 B( 25-C , 26-H ) :   0.9597
B( 25-C , 27-H ) :   0.9547 B( 25-C , 28-C ) :   1.0685 B( 28-C , 29-H ) :   0.9752
B( 28-C , 30-H ) :   0.9713 B( 28-C , 31-H ) :   0.9732

Dispersion correction           -0.014767549
FINAL SINGLE POINT ENERGY     -1339.885530511931

DIPOLE MOMENT
-------------
                                X             Y             Z
Electronic contribution:    -25.59494      -7.12383      -3.93533
Nuclear contribution   :     26.12431       7.52221       3.94168
                        -----------------------------------------
Total Dipole Moment    :      0.52938       0.39838       0.00635
                        -----------------------------------------
Magnitude (a.u.)       :      0.66256
Magnitude (Debye)      :      1.68409

Rotational constants in cm-1:     0.020360     0.008548     0.006689
Rotational constants in MHz :   610.368646   256.267230   200.542320

                             ****ORCA TERMINATED NORMALLY****
TOTAL RUN TIME: 0 days 0 hours 0 minutes 21 seconds 687 msec
