                         Program Version 4.2.1 -  RELEASE  -
|  1> ! wB97X-D3 SP def2-SVP
|  2> %pal
|  3> nprocs 24
|  4> end
|  5>
|  6> * xyz 0 1
|  7> S 	 -34.3003 	 9.54597 	 -0.775556
|  8> C 	 -35.1404 	 8.14485 	 -1.45883
|  9> C 	 -34.8286 	 7.04605 	 -0.742047
| 10> C 	 -33.7815 	 7.26997 	 0.245398
| 11> C 	 -33.2934 	 8.51651 	 0.272423
| 12> H 	 -33.2948 	 6.50742 	 0.929698
| 13> C 	 -35.3276 	 5.68535 	 -0.95704
| 14> H 	 -34.6789 	 5.07146 	 -0.330646
| 15> H 	 -35.1625 	 5.39834 	 -2.0165
| 16> C 	 -36.8287 	 5.41722 	 -0.552455
| 17> H 	 -37.491 	 5.88212 	 -1.32545
| 18> H 	 -36.9076 	 4.30161 	 -0.684461
| 19> C 	 -37.2005 	 5.88791 	 0.850423
| 20> H 	 -36.3816 	 5.8013 	 1.57461
| 21> H 	 -37.5948 	 6.88797 	 0.809753
| 22> H 	 -38.0561 	 5.35705 	 1.23639
| 23> S 	 -30.7517 	 9.6815 	 0.62317
| 24> C 	 -30.1752 	 9.88359 	 2.25493
| 25> C 	 -31.1124 	 9.53059 	 3.18165
| 26> C 	 -32.3741 	 9.06888 	 2.62052
| 27> C 	 -32.2961 	 9.00888 	 1.1942
| 28> H 	 -30.8352 	 9.59904 	 4.2497
| 29> C 	 -33.5233 	 8.75317 	 3.48688
| 30> H 	 -33.7503 	 7.69767 	 3.57835
| 31> H 	 -34.4263 	 9.09846 	 3.09988
| 32> C 	 -33.5331 	 9.50501 	 4.81361
| 33> H 	 -34.577 	 9.62456 	 5.03919
| 34> H 	 -33.3205 	 10.5948 	 4.81448
| 35> C 	 -32.7629 	 8.93225 	 6.05626
| 36> H 	 -31.716 	 8.76796 	 5.84277
| 37> H 	 -33.2076 	 7.97326 	 6.32389
| 38> H 	 -32.7554 	 9.67667 	 6.79722
| 39> H 	 -35.8737 	 8.21899 	 -2.26115
| 40> H 	 -29.2473 	 10.1406 	 2.58095
| 41> *
| 42>
| 43>                          ****END OF INPUT****

CARTESIAN COORDINATES (ANGSTROEM)
---------------------------------
  S    -34.300300    9.545970   -0.775556
  C    -35.140400    8.144850   -1.458830
  C    -34.828600    7.046050   -0.742047
  C    -33.781500    7.269970    0.245398
  C    -33.293400    8.516510    0.272423
  H    -33.294800    6.507420    0.929698
  C    -35.327600    5.685350   -0.957040
  H    -34.678900    5.071460   -0.330646
  H    -35.162500    5.398340   -2.016500
  C    -36.828700    5.417220   -0.552455
  H    -37.491000    5.882120   -1.325450
  H    -36.907600    4.301610   -0.684461
  C    -37.200500    5.887910    0.850423
  H    -36.381600    5.801300    1.574610
  H    -37.594800    6.887970    0.809753
  H    -38.056100    5.357050    1.236390
  S    -30.751700    9.681500    0.623170
  C    -30.175200    9.883590    2.254930
  C    -31.112400    9.530590    3.181650
  C    -32.374100    9.068880    2.620520
  C    -32.296100    9.008880    1.194200
  H    -30.835200    9.599040    4.249700
  C    -33.523300    8.753170    3.486880
  H    -33.750300    7.697670    3.578350
  H    -34.426300    9.098460    3.099880
  C    -33.533100    9.505010    4.813610
  H    -34.577000    9.624560    5.039190
  H    -33.320500   10.594800    4.814480
  C    -32.762900    8.932250    6.056260
  H    -31.716000    8.767960    5.842770
  H    -33.207600    7.973260    6.323890
  H    -32.755400    9.676670    6.797220
  H    -35.873700    8.218990   -2.261150
  H    -29.247300   10.140600    2.580950

 Total Charge           Charge          ....    0
 Multiplicity           Mult            ....    1
 Number of Electrons    NEL             ....  134
 Basis Dimension        Dim             ....  322

ORBITAL ENERGIES
----------------

  NO   OCC          E(Eh)            E(eV)
   0   2.0000     -88.965936     -2420.8862
   1   2.0000     -88.957937     -2420.6685
   2   2.0000     -10.328854      -281.0624
   3   2.0000     -10.324032      -280.9312
   4   2.0000     -10.312985      -280.6306
   5   2.0000     -10.309019      -280.5227
   6   2.0000     -10.308221      -280.5010
   7   2.0000     -10.296011      -280.1687
   8   2.0000     -10.294703      -280.1331
   9   2.0000     -10.294432      -280.1257
  10   2.0000     -10.292717      -280.0791
  11   2.0000     -10.289387      -279.9885
  12   2.0000     -10.287081      -279.9257
  13   2.0000     -10.285345      -279.8785
  14   2.0000     -10.276249      -279.6309
  15   2.0000     -10.276182      -279.6291
  16   2.0000      -8.080117      -219.8712
  17   2.0000      -8.072410      -219.6614
  18   2.0000      -6.038694      -164.3212
  19   2.0000      -6.034658      -164.2114
  20   2.0000      -6.031135      -164.1155
  21   2.0000      -6.030881      -164.1086
  22   2.0000      -6.027030      -164.0038
  23   2.0000      -6.022855      -163.8902
  24   2.0000      -1.002487       -27.2790
  25   2.0000      -0.981098       -26.6970
  26   2.0000      -0.913630       -24.8611
  27   2.0000      -0.909725       -24.7549
  28   2.0000      -0.871561       -23.7164
  29   2.0000      -0.845442       -23.0057
  30   2.0000      -0.841558       -22.9000
  31   2.0000      -0.820098       -22.3160
  32   2.0000      -0.789722       -21.4894
  33   2.0000      -0.774618       -21.0784
  34   2.0000      -0.710963       -19.3463
  35   2.0000      -0.703737       -19.1497
  36   2.0000      -0.698390       -19.0041
  37   2.0000      -0.650597       -17.7037
  38   2.0000      -0.639006       -17.3882
  39   2.0000      -0.615076       -16.7371
  40   2.0000      -0.600934       -16.3523
  41   2.0000      -0.570628       -15.5276
  42   2.0000      -0.553603       -15.0643
  43   2.0000      -0.552795       -15.0423
  44   2.0000      -0.537560       -14.6278
  45   2.0000      -0.526568       -14.3287
  46   2.0000      -0.519548       -14.1376
  47   2.0000      -0.516184       -14.0461
  48   2.0000      -0.507622       -13.8131
  49   2.0000      -0.503132       -13.6909
  50   2.0000      -0.493923       -13.4403
  51   2.0000      -0.483335       -13.1522
  52   2.0000      -0.472188       -12.8489
  53   2.0000      -0.471010       -12.8168
  54   2.0000      -0.461613       -12.5611
  55   2.0000      -0.443111       -12.0577
  56   2.0000      -0.440352       -11.9826
  57   2.0000      -0.433825       -11.8050
  58   2.0000      -0.430825       -11.7233
  59   2.0000      -0.426186       -11.5971
  60   2.0000      -0.422777       -11.5043
  61   2.0000      -0.407395       -11.0858
  62   2.0000      -0.406650       -11.0655
  63   2.0000      -0.339461        -9.2372
  64   2.0000      -0.326873        -8.8947
  65   2.0000      -0.323271        -8.7967
  66   2.0000      -0.301923        -8.2158
  67   0.0000       0.034625         0.9422
  68   0.0000       0.063625         1.7313
  69   0.0000       0.116676         3.1749
  70   0.0000       0.125700         3.4205
  71   0.0000       0.127946         3.4816

MULLIKEN ATOMIC CHARGES
-----------------------
   0 S :    0.083380
   1 C :   -0.125443
   2 C :   -0.071968
   3 C :   -0.000911
   4 C :   -0.132875
   5 H :    0.038755
   6 C :    0.046336
   7 H :    0.013844
   8 H :    0.043929
   9 C :   -0.102165
  10 H :    0.034971
  11 H :    0.039571
  12 C :   -0.020675
  13 H :    0.032031
  14 H :    0.032143
  15 H :    0.026700
  16 S :    0.117841
  17 C :   -0.029114
  18 C :   -0.060013
  19 C :   -0.020140
  20 C :   -0.192710
  21 H :    0.026724
  22 C :    0.152246
  23 H :    0.030017
  24 H :    0.009022
  25 C :   -0.142208
  26 H :    0.014223
  27 H :    0.029315
  28 C :   -0.007835
  29 H :    0.019055
  30 H :    0.033111
  31 H :    0.023817
  32 H :    0.050798
  33 H :    0.008229
Sum of atomic charges:    0.0000000

LOEWDIN ATOMIC CHARGES
----------------------
   0 S :    0.367810
   1 C :   -0.180410
   2 C :   -0.073578
   3 C :   -0.067317
   4 C :   -0.187574
   5 H :    0.043730
   6 C :   -0.038098
   7 H :    0.026612
   8 H :    0.038505
   9 C :   -0.041958
  10 H :    0.025164
  11 H :    0.027784
  12 C :   -0.068779
  13 H :    0.026354
  14 H :    0.029161
  15 H :    0.027170
  16 S :    0.402089
  17 C :   -0.172782
  18 C :   -0.073203
  19 C :   -0.039001
  20 C :   -0.201876
  21 H :    0.035989
  22 C :   -0.034739
  23 H :    0.037273
  24 H :    0.033464
  25 C :   -0.046137
  26 H :    0.023552
  27 H :    0.031326
  28 C :   -0.058398
  29 H :    0.018044
  30 H :    0.025441
  31 H :    0.021054
  32 H :    0.031740
  33 H :    0.011591

  Mayer bond orders larger than 0.100000
B(  0-S ,  1-C ) :   1.1121 B(  0-S ,  4-C ) :   1.1186 B(  1-C ,  2-C ) :   1.6414
B(  1-C , 32-H ) :   0.9753 B(  2-C ,  3-C ) :   1.1896 B(  2-C ,  6-C ) :   1.0256
B(  3-C ,  4-C ) :   1.6464 B(  3-C ,  5-H ) :   0.9805 B(  4-C , 20-C ) :   1.0529
B(  6-C ,  7-H ) :   0.9398 B(  6-C ,  8-H ) :   0.9417 B(  6-C ,  9-C ) :   1.0685
B(  9-C , 10-H ) :   0.9584 B(  9-C , 11-H ) :   0.9617 B(  9-C , 12-C ) :   1.0705
B( 12-C , 13-H ) :   0.9785 B( 12-C , 14-H ) :   0.9688 B( 12-C , 15-H ) :   0.9716
B( 16-S , 17-C ) :   1.1479 B( 16-S , 20-C ) :   1.1318 B( 17-C , 18-C ) :   1.6441
B( 17-C , 33-H ) :   0.9682 B( 18-C , 19-C ) :   1.2302 B( 18-C , 21-H ) :   0.9747
B( 19-C , 20-C ) :   1.5738 B( 19-C , 22-C ) :   1.0577 B( 22-C , 23-H ) :   0.9160
B( 22-C , 24-H ) :   0.9164 B( 22-C , 25-C ) :   1.0653 B( 25-C , 26-H ) :   0.9576
B( 25-C , 27-H ) :   0.9567 B( 25-C , 28-C ) :   1.0697 B( 28-C , 29-H ) :   0.9760
B( 28-C , 30-H ) :   0.9727 B( 28-C , 31-H ) :   0.9733

Dispersion correction           -0.014704578
FINAL SINGLE POINT ENERGY     -1339.863314574247

DIPOLE MOMENT
-------------
                                X             Y             Z
Electronic contribution:     15.47711      13.58005     -17.68198
Nuclear contribution   :    -15.85612     -14.01399      18.20949
                        -----------------------------------------
Total Dipole Moment    :     -0.37901      -0.43394       0.52751
                        -----------------------------------------
Magnitude (a.u.)       :      0.78116
Magnitude (Debye)      :      1.98556

Rotational constants in cm-1:     0.019147     0.008566     0.006616
Rotational constants in MHz :   574.003769   256.814563   198.347533

                             ****ORCA TERMINATED NORMALLY****
TOTAL RUN TIME: 0 days 0 hours 0 minutes 21 seconds 752 msec
