                         Program Version 4.2.1 -  RELEASE  -
|  1> ! wB97X-D3 SP def2-SVP
|  2> %pal
|  3> nprocs 24
|  4> end
|  5>
|  6> * xyz 0 1
|  7> S 	 -89.581 	 -48.2825 	 -73.3348
|  8> C 	 -87.9654 	 -48.7036 	 -72.7789
|  9> C 	 -87.2974 	 -49.5028 	 -73.7184
| 10> C 	 -88.0603 	 -49.6035 	 -74.9204
| 11> C 	 -89.3378 	 -49.102 	 -74.8799
| 12> H 	 -87.6809 	 -50.227 	 -75.7593
| 13> C 	 -85.9055 	 -50.0426 	 -73.5824
| 14> H 	 -85.7972 	 -50.9474 	 -74.1705
| 15> H 	 -85.5812 	 -50.2309 	 -72.557
| 16> C 	 -84.6889 	 -49.2187 	 -74.2059
| 17> H 	 -83.8028 	 -49.7519 	 -73.9207
| 18> H 	 -84.7568 	 -49.2421 	 -75.3199
| 19> C 	 -84.4788 	 -47.7863 	 -73.697
| 20> H 	 -83.7016 	 -47.3409 	 -74.3576
| 21> H 	 -85.4093 	 -47.1993 	 -73.6432
| 22> H 	 -84.2453 	 -47.6804 	 -72.6167
| 23> S 	 -91.723 	 -50.2469 	 -75.2763
| 24> C 	 -92.4444 	 -50.3343 	 -76.8954
| 25> C 	 -91.5341 	 -49.7202 	 -77.8054
| 26> C 	 -90.3641 	 -49.1596 	 -77.2264
| 27> C 	 -90.4001 	 -49.2685 	 -75.8533
| 28> H 	 -91.8276 	 -49.8766 	 -78.8881
| 29> C 	 -89.181 	 -48.7929 	 -78.0887
| 30> H 	 -89.4385 	 -49.0341 	 -79.1256
| 31> H 	 -88.4225 	 -49.5541 	 -77.9588
| 32> C 	 -88.6153 	 -47.3583 	 -77.9958
| 33> H 	 -88.2547 	 -47.0796 	 -76.9928
| 34> H 	 -89.3721 	 -46.7095 	 -78.4639
| 35> C 	 -87.3473 	 -47.2191 	 -78.8284
| 36> H 	 -86.5687 	 -47.9593 	 -78.5279
| 37> H 	 -86.9373 	 -46.1899 	 -78.8093
| 38> H 	 -87.5477 	 -47.442 	 -79.8807
| 39> H 	 -87.4994 	 -48.2504 	 -71.9502
| 40> H 	 -93.2941 	 -50.896 	 -77.2041
| 41> *
| 42>
| 43>                          ****END OF INPUT****

CARTESIAN COORDINATES (ANGSTROEM)
---------------------------------
  S    -89.581000  -48.282500  -73.334800
  C    -87.965400  -48.703600  -72.778900
  C    -87.297400  -49.502800  -73.718400
  C    -88.060300  -49.603500  -74.920400
  C    -89.337800  -49.102000  -74.879900
  H    -87.680900  -50.227000  -75.759300
  C    -85.905500  -50.042600  -73.582400
  H    -85.797200  -50.947400  -74.170500
  H    -85.581200  -50.230900  -72.557000
  C    -84.688900  -49.218700  -74.205900
  H    -83.802800  -49.751900  -73.920700
  H    -84.756800  -49.242100  -75.319900
  C    -84.478800  -47.786300  -73.697000
  H    -83.701600  -47.340900  -74.357600
  H    -85.409300  -47.199300  -73.643200
  H    -84.245300  -47.680400  -72.616700
  S    -91.723000  -50.246900  -75.276300
  C    -92.444400  -50.334300  -76.895400
  C    -91.534100  -49.720200  -77.805400
  C    -90.364100  -49.159600  -77.226400
  C    -90.400100  -49.268500  -75.853300
  H    -91.827600  -49.876600  -78.888100
  C    -89.181000  -48.792900  -78.088700
  H    -89.438500  -49.034100  -79.125600
  H    -88.422500  -49.554100  -77.958800
  C    -88.615300  -47.358300  -77.995800
  H    -88.254700  -47.079600  -76.992800
  H    -89.372100  -46.709500  -78.463900
  C    -87.347300  -47.219100  -78.828400
  H    -86.568700  -47.959300  -78.527900
  H    -86.937300  -46.189900  -78.809300
  H    -87.547700  -47.442000  -79.880700
  H    -87.499400  -48.250400  -71.950200
  H    -93.294100  -50.896000  -77.204100

 Total Charge           Charge          ....    0
 Multiplicity           Mult            ....    1
 Number of Electrons    NEL             ....  134
 Basis Dimension        Dim             ....  322

ORBITAL ENERGIES
----------------

  NO   OCC          E(Eh)            E(eV)
   0   2.0000     -88.968370     -2420.9524
   1   2.0000     -88.967111     -2420.9182
   2   2.0000     -10.330933      -281.1190
   3   2.0000     -10.325657      -280.9754
   4   2.0000     -10.320584      -280.8374
   5   2.0000     -10.315099      -280.6881
   6   2.0000     -10.304758      -280.4067
   7   2.0000     -10.304567      -280.4015
   8   2.0000     -10.302320      -280.3404
   9   2.0000     -10.296727      -280.1882
  10   2.0000     -10.295639      -280.1586
  11   2.0000     -10.293693      -280.1056
  12   2.0000     -10.292943      -280.0852
  13   2.0000     -10.287897      -279.9479
  14   2.0000     -10.281553      -279.7753
  15   2.0000     -10.279185      -279.7109
  16   2.0000      -8.082521      -219.9366
  17   2.0000      -8.081349      -219.9047
  18   2.0000      -6.041032      -164.3848
  19   2.0000      -6.039885      -164.3536
  20   2.0000      -6.037047      -164.2764
  21   2.0000      -6.035811      -164.2428
  22   2.0000      -6.033345      -164.1757
  23   2.0000      -6.032227      -164.1452
  24   2.0000      -1.006966       -27.4009
  25   2.0000      -0.981297       -26.7024
  26   2.0000      -0.909227       -24.7413
  27   2.0000      -0.905857       -24.6496
  28   2.0000      -0.866860       -23.5885
  29   2.0000      -0.854137       -23.2422
  30   2.0000      -0.845803       -23.0155
  31   2.0000      -0.810757       -22.0618
  32   2.0000      -0.782456       -21.2917
  33   2.0000      -0.773784       -21.0557
  34   2.0000      -0.707835       -19.2612
  35   2.0000      -0.697119       -18.9696
  36   2.0000      -0.691442       -18.8151
  37   2.0000      -0.661906       -18.0114
  38   2.0000      -0.639891       -17.4123
  39   2.0000      -0.622635       -16.9427
  40   2.0000      -0.592588       -16.1252
  41   2.0000      -0.569851       -15.5064
  42   2.0000      -0.564883       -15.3713
  43   2.0000      -0.546617       -14.8742
  44   2.0000      -0.538046       -14.6410
  45   2.0000      -0.526811       -14.3352
  46   2.0000      -0.524999       -14.2859
  47   2.0000      -0.516471       -14.0539
  48   2.0000      -0.500775       -13.6268
  49   2.0000      -0.497780       -13.5453
  50   2.0000      -0.489605       -13.3228
  51   2.0000      -0.483743       -13.1633
  52   2.0000      -0.470262       -12.7965
  53   2.0000      -0.463403       -12.6098
  54   2.0000      -0.456210       -12.4141
  55   2.0000      -0.441664       -12.0183
  56   2.0000      -0.434635       -11.8270
  57   2.0000      -0.432094       -11.7579
  58   2.0000      -0.427605       -11.6357
  59   2.0000      -0.426571       -11.6076
  60   2.0000      -0.424432       -11.5494
  61   2.0000      -0.419046       -11.4028
  62   2.0000      -0.414178       -11.2704
  63   2.0000      -0.345990        -9.4149
  64   2.0000      -0.330417        -8.9911
  65   2.0000      -0.328079        -8.9275
  66   2.0000      -0.292561        -7.9610
  67   0.0000       0.029103         0.7919
  68   0.0000       0.058403         1.5892
  69   0.0000       0.105606         2.8737
  70   0.0000       0.116383         3.1669
  71   0.0000       0.123696         3.3659

MULLIKEN ATOMIC CHARGES
-----------------------
   0 S :    0.109135
   1 C :   -0.107849
   2 C :   -0.074070
   3 C :    0.019857
   4 C :   -0.159513
   5 H :    0.020326
   6 C :    0.054482
   7 H :    0.025865
   8 H :    0.029883
   9 C :   -0.088388
  10 H :    0.030413
  11 H :    0.033957
  12 C :   -0.074853
  13 H :    0.051073
  14 H :    0.032582
  15 H :    0.024073
  16 S :    0.113391
  17 C :   -0.099401
  18 C :   -0.085209
  19 C :    0.008424
  20 C :   -0.130112
  21 H :    0.043634
  22 C :    0.046733
  23 H :    0.005521
  24 H :    0.017416
  25 C :   -0.049041
  26 H :    0.053084
  27 H :    0.041394
  28 C :   -0.075783
  29 H :    0.030480
  30 H :    0.044418
  31 H :    0.018154
  32 H :    0.037658
  33 H :    0.052266
Sum of atomic charges:   -0.0000000

LOEWDIN ATOMIC CHARGES
----------------------
   0 S :    0.399718
   1 C :   -0.187187
   2 C :   -0.063228
   3 C :   -0.065349
   4 C :   -0.194607
   5 H :    0.034360
   6 C :   -0.034247
   7 H :    0.033895
   8 H :    0.031698
   9 C :   -0.038288
  10 H :    0.022698
  11 H :    0.024105
  12 C :   -0.082081
  13 H :    0.034753
  14 H :    0.025312
  15 H :    0.025937
  16 S :    0.415326
  17 C :   -0.186791
  18 C :   -0.074710
  19 C :   -0.059509
  20 C :   -0.199896
  21 H :    0.041021
  22 C :   -0.033378
  23 H :    0.031495
  24 H :    0.027496
  25 C :   -0.037644
  26 H :    0.032050
  27 H :    0.031685
  28 C :   -0.072314
  29 H :    0.025041
  30 H :    0.029552
  31 H :    0.018657
  32 H :    0.018716
  33 H :    0.025715

  Mayer bond orders larger than 0.100000
B(  0-S ,  1-C ) :   1.1457 B(  0-S ,  4-C ) :   1.1448 B(  1-C ,  2-C ) :   1.5767
B(  1-C ,  4-C ) :   0.1023 B(  1-C , 32-H ) :   0.9754 B(  2-C ,  3-C ) :   1.2621
B(  2-C ,  6-C ) :   1.0483 B(  3-C ,  4-C ) :   1.5693 B(  3-C ,  5-H ) :   0.9815
B(  4-C , 20-C ) :   1.0208 B(  6-C ,  7-H ) :   0.9339 B(  6-C ,  8-H ) :   0.9460
B(  6-C ,  9-C ) :   1.0659 B(  9-C , 10-H ) :   0.9561 B(  9-C , 11-H ) :   0.9590
B(  9-C , 12-C ) :   1.0733 B( 12-C , 13-H ) :   0.9737 B( 12-C , 14-H ) :   0.9735
B( 12-C , 15-H ) :   0.9723 B( 16-S , 17-C ) :   1.1555 B( 16-S , 20-C ) :   1.1664
B( 17-C , 18-C ) :   1.5957 B( 17-C , 20-C ) :   0.1086 B( 17-C , 33-H ) :   0.9732
B( 18-C , 19-C ) :   1.2517 B( 18-C , 21-H ) :   0.9779 B( 19-C , 20-C ) :   1.5741
B( 19-C , 22-C ) :   1.0398 B( 22-C , 23-H ) :   0.9291 B( 22-C , 24-H ) :   0.9307
B( 22-C , 25-C ) :   1.0610 B( 25-C , 26-H ) :   0.9567 B( 25-C , 27-H ) :   0.9528
B( 25-C , 28-C ) :   1.0853 B( 28-C , 29-H ) :   0.9738 B( 28-C , 30-H ) :   0.9740
B( 28-C , 31-H ) :   0.9724

Dispersion correction           -0.014683663
FINAL SINGLE POINT ENERGY     -1339.872951803274

DIPOLE MOMENT
-------------
                                X             Y             Z
Electronic contribution:    -27.56238      -6.80578      11.64584
Nuclear contribution   :     28.18444       6.56539     -12.11231
                        -----------------------------------------
Total Dipole Moment    :      0.62207      -0.24040      -0.46647
                        -----------------------------------------
Magnitude (a.u.)       :      0.81385
Magnitude (Debye)      :      2.06864

Rotational constants in cm-1:     0.018360     0.009470     0.007093
Rotational constants in MHz :   550.411153   283.897787   212.652297

                             ****ORCA TERMINATED NORMALLY****
TOTAL RUN TIME: 0 days 0 hours 0 minutes 20 seconds 902 msec
