                         Program Version 4.2.1 -  RELEASE  -
|  1> ! wB97X-D3 SP def2-SVP
|  2> %pal
|  3> nprocs 24
|  4> end
|  5>
|  6> * xyz 0 1
|  7> S 	 -102.836 	 12.6049 	 -6.81684
|  8> C 	 -102.402 	 12.888 	 -5.16145
|  9> C 	 -103.563 	 12.7081 	 -4.37657
| 10> C 	 -104.709 	 12.3271 	 -5.11697
| 11> C 	 -104.457 	 12.0232 	 -6.44732
| 12> H 	 -105.701 	 12.1703 	 -4.70079
| 13> C 	 -103.582 	 12.803 	 -2.93685
| 14> H 	 -103.676 	 13.7629 	 -2.60953
| 15> H 	 -102.613 	 12.4397 	 -2.51952
| 16> C 	 -104.683 	 11.8565 	 -2.28955
| 17> H 	 -105.003 	 10.9954 	 -2.93544
| 18> H 	 -104.183 	 11.396 	 -1.42887
| 19> C 	 -105.917 	 12.629 	 -1.83253
| 20> H 	 -106.574 	 11.9271 	 -1.22462
| 21> H 	 -105.705 	 13.4632 	 -1.10304
| 22> H 	 -106.533 	 12.9464 	 -2.69581
| 23> S 	 -104.116 	 10.1875 	 -8.43613
| 24> C 	 -105.424 	 9.76217 	 -9.47607
| 25> C 	 -106.58 	 10.4285 	 -9.06623
| 26> C 	 -106.463 	 11.3177 	 -7.95424
| 27> C 	 -105.167 	 11.2634 	 -7.41868
| 28> H 	 -107.444 	 10.306 	 -9.70205
| 29> C 	 -107.629 	 12.264 	 -7.66366
| 30> H 	 -107.495 	 12.8234 	 -6.69358
| 31> H 	 -108.544 	 11.74 	 -7.5622
| 32> C 	 -107.937 	 13.4525 	 -8.63223
| 33> H 	 -108.23 	 13.0917 	 -9.67151
| 34> H 	 -107.064 	 14.092 	 -8.77393
| 35> C 	 -108.968 	 14.4647 	 -8.02572
| 36> H 	 -108.664 	 14.9408 	 -7.13469
| 37> H 	 -109.911 	 14.0565 	 -7.91848
| 38> H 	 -109.123 	 15.2593 	 -8.7434
| 39> H 	 -101.482 	 13.2149 	 -4.74998
| 40> H 	 -105.36 	 9.10735 	 -10.35
| 41> *
| 42>
| 43>                          ****END OF INPUT****

CARTESIAN COORDINATES (ANGSTROEM)
---------------------------------
  S    -102.836000   12.604900   -6.816840
  C    -102.402000   12.888000   -5.161450
  C    -103.563000   12.708100   -4.376570
  C    -104.709000   12.327100   -5.116970
  C    -104.457000   12.023200   -6.447320
  H    -105.701000   12.170300   -4.700790
  C    -103.582000   12.803000   -2.936850
  H    -103.676000   13.762900   -2.609530
  H    -102.613000   12.439700   -2.519520
  C    -104.683000   11.856500   -2.289550
  H    -105.003000   10.995400   -2.935440
  H    -104.183000   11.396000   -1.428870
  C    -105.917000   12.629000   -1.832530
  H    -106.574000   11.927100   -1.224620
  H    -105.705000   13.463200   -1.103040
  H    -106.533000   12.946400   -2.695810
  S    -104.116000   10.187500   -8.436130
  C    -105.424000    9.762170   -9.476070
  C    -106.580000   10.428500   -9.066230
  C    -106.463000   11.317700   -7.954240
  C    -105.167000   11.263400   -7.418680
  H    -107.444000   10.306000   -9.702050
  C    -107.629000   12.264000   -7.663660
  H    -107.495000   12.823400   -6.693580
  H    -108.544000   11.740000   -7.562200
  C    -107.937000   13.452500   -8.632230
  H    -108.230000   13.091700   -9.671510
  H    -107.064000   14.092000   -8.773930
  C    -108.968000   14.464700   -8.025720
  H    -108.664000   14.940800   -7.134690
  H    -109.911000   14.056500   -7.918480
  H    -109.123000   15.259300   -8.743400
  H    -101.482000   13.214900   -4.749980
  H    -105.360000    9.107350  -10.350000

 Total Charge           Charge          ....    0
 Multiplicity           Mult            ....    1
 Number of Electrons    NEL             ....  134
 Basis Dimension        Dim             ....  322

ORBITAL ENERGIES
----------------

  NO   OCC          E(Eh)            E(eV)
   0   2.0000     -88.966544     -2420.9028
   1   2.0000     -88.961990     -2420.7788
   2   2.0000     -10.334520      -281.2166
   3   2.0000     -10.328046      -281.0404
   4   2.0000     -10.319164      -280.7987
   5   2.0000     -10.312030      -280.6046
   6   2.0000     -10.308667      -280.5131
   7   2.0000     -10.298134      -280.2265
   8   2.0000     -10.295556      -280.1563
   9   2.0000     -10.294912      -280.1388
  10   2.0000     -10.293325      -280.0956
  11   2.0000     -10.291292      -280.0403
  12   2.0000     -10.290504      -280.0188
  13   2.0000     -10.288696      -279.9696
  14   2.0000     -10.281942      -279.7859
  15   2.0000     -10.271606      -279.5046
  16   2.0000      -8.080619      -219.8848
  17   2.0000      -8.076601      -219.7755
  18   2.0000      -6.039155      -164.3338
  19   2.0000      -6.035141      -164.2245
  20   2.0000      -6.035107      -164.2236
  21   2.0000      -6.031435      -164.1237
  22   2.0000      -6.030970      -164.1110
  23   2.0000      -6.027460      -164.0155
  24   2.0000      -1.005315       -27.3560
  25   2.0000      -0.980989       -26.6941
  26   2.0000      -0.913326       -24.8529
  27   2.0000      -0.903309       -24.5803
  28   2.0000      -0.869781       -23.6679
  29   2.0000      -0.852636       -23.2014
  30   2.0000      -0.840561       -22.8728
  31   2.0000      -0.815651       -22.1950
  32   2.0000      -0.785877       -21.3848
  33   2.0000      -0.768070       -20.9002
  34   2.0000      -0.712610       -19.3911
  35   2.0000      -0.697391       -18.9770
  36   2.0000      -0.692264       -18.8375
  37   2.0000      -0.658746       -17.9254
  38   2.0000      -0.641572       -17.4580
  39   2.0000      -0.626083       -17.0366
  40   2.0000      -0.599778       -16.3208
  41   2.0000      -0.567600       -15.4452
  42   2.0000      -0.564629       -15.3643
  43   2.0000      -0.545136       -14.8339
  44   2.0000      -0.530825       -14.4445
  45   2.0000      -0.523439       -14.2435
  46   2.0000      -0.518117       -14.0987
  47   2.0000      -0.513661       -13.9774
  48   2.0000      -0.509302       -13.8588
  49   2.0000      -0.504407       -13.7256
  50   2.0000      -0.492233       -13.3944
  51   2.0000      -0.485526       -13.2118
  52   2.0000      -0.477053       -12.9813
  53   2.0000      -0.464638       -12.6434
  54   2.0000      -0.455680       -12.3997
  55   2.0000      -0.445344       -12.1184
  56   2.0000      -0.442717       -12.0469
  57   2.0000      -0.435101       -11.8397
  58   2.0000      -0.428142       -11.6503
  59   2.0000      -0.425785       -11.5862
  60   2.0000      -0.421526       -11.4703
  61   2.0000      -0.417017       -11.3476
  62   2.0000      -0.401754       -10.9323
  63   2.0000      -0.351193        -9.5564
  64   2.0000      -0.332144        -9.0381
  65   2.0000      -0.320828        -8.7302
  66   2.0000      -0.281634        -7.6636
  67   0.0000       0.018454         0.5021
  68   0.0000       0.069835         1.9003
  69   0.0000       0.111795         3.0421
  70   0.0000       0.121903         3.3171
  71   0.0000       0.133490         3.6324

MULLIKEN ATOMIC CHARGES
-----------------------
   0 S :    0.107749
   1 C :   -0.095593
   2 C :   -0.116824
   3 C :    0.047944
   4 C :   -0.158604
   5 H :    0.007815
   6 C :    0.111328
   7 H :    0.015672
   8 H :    0.027877
   9 C :   -0.124972
  10 H :    0.054494
  11 H :    0.028357
  12 C :   -0.088110
  13 H :    0.037133
  14 H :    0.045899
  15 H :    0.040278
  16 S :    0.104526
  17 C :   -0.099285
  18 C :   -0.047657
  19 C :    0.020634
  20 C :   -0.156169
  21 H :    0.015422
  22 C :    0.059938
  23 H :    0.020879
  24 H :    0.022762
  25 C :   -0.102256
  26 H :    0.037123
  27 H :    0.037096
  28 C :   -0.022313
  29 H :    0.029438
  30 H :    0.013424
  31 H :    0.026222
  32 H :    0.030939
  33 H :    0.068836
Sum of atomic charges:   -0.0000000

LOEWDIN ATOMIC CHARGES
----------------------
   0 S :    0.409859
   1 C :   -0.205863
   2 C :   -0.063641
   3 C :   -0.066199
   4 C :   -0.191170
   5 H :    0.029227
   6 C :   -0.027465
   7 H :    0.019802
   8 H :    0.038854
   9 C :   -0.044928
  10 H :    0.033401
  11 H :    0.024204
  12 C :   -0.078869
  13 H :    0.031277
  14 H :    0.030161
  15 H :    0.023136
  16 S :    0.400537
  17 C :   -0.195962
  18 C :   -0.073930
  19 C :   -0.051138
  20 C :   -0.178371
  21 H :    0.027356
  22 C :   -0.034502
  23 H :    0.034864
  24 H :    0.026271
  25 C :   -0.037085
  26 H :    0.025876
  27 H :    0.026130
  28 C :   -0.056298
  29 H :    0.021432
  30 H :    0.012832
  31 H :    0.030504
  32 H :    0.023341
  33 H :    0.036357

  Mayer bond orders larger than 0.100000
B(  0-S ,  1-C ) :   1.1324 B(  0-S ,  4-C ) :   1.1611 B(  1-C ,  2-C ) :   1.5633
B(  1-C ,  4-C ) :   0.1053 B(  1-C , 32-H ) :   0.9802 B(  2-C ,  3-C ) :   1.2804
B(  2-C ,  6-C ) :   1.0382 B(  3-C ,  4-C ) :   1.5238 B(  3-C ,  5-H ) :   0.9852
B(  4-C , 20-C ) :   1.0962 B(  6-C ,  7-H ) :   0.9257 B(  6-C ,  8-H ) :   0.9448
B(  6-C ,  9-C ) :   1.0458 B(  9-C , 10-H ) :   0.9609 B(  9-C , 11-H ) :   0.9608
B(  9-C , 12-C ) :   1.0771 B( 12-C , 13-H ) :   0.9707 B( 12-C , 14-H ) :   0.9732
B( 12-C , 15-H ) :   0.9742 B( 16-S , 17-C ) :   1.1575 B( 16-S , 20-C ) :   1.1312
B( 17-C , 18-C ) :   1.5961 B( 17-C , 33-H ) :   0.9663 B( 18-C , 19-C ) :   1.2443
B( 18-C , 21-H ) :   0.9907 B( 19-C , 20-C ) :   1.5547 B( 19-C , 22-C ) :   1.0500
B( 22-C , 23-H ) :   0.9381 B( 22-C , 24-H ) :   0.9350 B( 22-C , 25-C ) :   1.0573
B( 25-C , 26-H ) :   0.9551 B( 25-C , 27-H ) :   0.9585 B( 25-C , 28-C ) :   1.0803
B( 28-C , 29-H ) :   0.9744 B( 28-C , 30-H ) :   0.9767 B( 28-C , 31-H ) :   0.9718

Dispersion correction           -0.013592220
FINAL SINGLE POINT ENERGY     -1339.858847099152

DIPOLE MOMENT
-------------
                                X             Y             Z
Electronic contribution:     20.41317     -10.88913     -15.28725
Nuclear contribution   :    -20.90224      11.08355      15.55176
                        -----------------------------------------
Total Dipole Moment    :     -0.48907       0.19442       0.26450
                        -----------------------------------------
Magnitude (a.u.)       :      0.58903
Magnitude (Debye)      :      1.49718

Rotational constants in cm-1:     0.016059     0.009189     0.007034
Rotational constants in MHz :   481.445907   275.491924   210.876261

                             ****ORCA TERMINATED NORMALLY****
TOTAL RUN TIME: 0 days 0 hours 0 minutes 20 seconds 88 msec
