                         Program Version 4.2.1 -  RELEASE  -
|  1> ! wB97X-D3 SP def2-SVP
|  2> %pal
|  3> nprocs 24
|  4> end
|  5>
|  6> * xyz 0 1
|  7> S 	 -0.0703105 	 -25.8299 	 -105.855
|  8> C 	 0.703292 	 -25.6629 	 -107.349
|  9> C 	 -0.0345973 	 -24.851 	 -108.202
| 10> C 	 -1.26171 	 -24.385 	 -107.604
| 11> C 	 -1.53118 	 -24.8443 	 -106.278
| 12> H 	 -1.97662 	 -23.7206 	 -108.125
| 13> C 	 0.51444 	 -24.4468 	 -109.552
| 14> H 	 1.59271 	 -24.1088 	 -109.546
| 15> H 	 0.0268102 	 -23.5574 	 -109.933
| 16> C 	 0.436837 	 -25.5935 	 -110.584
| 17> H 	 1.19594 	 -26.3832 	 -110.412
| 18> H 	 -0.448709 	 -26.1971 	 -110.424
| 19> C 	 0.475182 	 -25.1834 	 -112.045
| 20> H 	 0.576094 	 -26.0623 	 -112.768
| 21> H 	 -0.496497 	 -24.687 	 -112.367
| 22> H 	 1.18159 	 -24.455 	 -112.349
| 23> S 	 -3.41643 	 -23.0873 	 -105.521
| 24> C 	 -4.74016 	 -23.59 	 -104.461
| 25> C 	 -4.63914 	 -24.9321 	 -104.243
| 26> C 	 -3.45061 	 -25.5933 	 -104.716
| 27> C 	 -2.72664 	 -24.7207 	 -105.495
| 28> H 	 -5.4313 	 -25.3126 	 -103.566
| 29> C 	 -3.1115 	 -27.0267 	 -104.358
| 30> H 	 -2.50088 	 -27.5001 	 -105.157
| 31> H 	 -4.03805 	 -27.6194 	 -104.433
| 32> C 	 -2.43314 	 -27.3414 	 -103.076
| 33> H 	 -1.50964 	 -26.6662 	 -103.008
| 34> H 	 -2.0567 	 -28.3571 	 -103.148
| 35> C 	 -3.2745 	 -27.1721 	 -101.777
| 36> H 	 -3.68272 	 -28.1417 	 -101.489
| 37> H 	 -4.09238 	 -26.375 	 -101.741
| 38> H 	 -2.57974 	 -26.9449 	 -100.982
| 39> H 	 1.71035 	 -26.0382 	 -107.598
| 40> H 	 -5.65966 	 -23.0409 	 -104.156
| 41> *
| 42>
| 43>                          ****END OF INPUT****

CARTESIAN COORDINATES (ANGSTROEM)
---------------------------------
  S     -0.070310  -25.829900  -105.855000
  C      0.703292  -25.662900  -107.349000
  C     -0.034597  -24.851000  -108.202000
  C     -1.261710  -24.385000  -107.604000
  C     -1.531180  -24.844300  -106.278000
  H     -1.976620  -23.720600  -108.125000
  C      0.514440  -24.446800  -109.552000
  H      1.592710  -24.108800  -109.546000
  H      0.026810  -23.557400  -109.933000
  C      0.436837  -25.593500  -110.584000
  H      1.195940  -26.383200  -110.412000
  H     -0.448709  -26.197100  -110.424000
  C      0.475182  -25.183400  -112.045000
  H      0.576094  -26.062300  -112.768000
  H     -0.496497  -24.687000  -112.367000
  H      1.181590  -24.455000  -112.349000
  S     -3.416430  -23.087300  -105.521000
  C     -4.740160  -23.590000  -104.461000
  C     -4.639140  -24.932100  -104.243000
  C     -3.450610  -25.593300  -104.716000
  C     -2.726640  -24.720700  -105.495000
  H     -5.431300  -25.312600  -103.566000
  C     -3.111500  -27.026700  -104.358000
  H     -2.500880  -27.500100  -105.157000
  H     -4.038050  -27.619400  -104.433000
  C     -2.433140  -27.341400  -103.076000
  H     -1.509640  -26.666200  -103.008000
  H     -2.056700  -28.357100  -103.148000
  C     -3.274500  -27.172100  -101.777000
  H     -3.682720  -28.141700  -101.489000
  H     -4.092380  -26.375000  -101.741000
  H     -2.579740  -26.944900  -100.982000
  H      1.710350  -26.038200  -107.598000
  H     -5.659660  -23.040900  -104.156000

 Total Charge           Charge          ....    0
 Multiplicity           Mult            ....    1
 Number of Electrons    NEL             ....  134
 Basis Dimension        Dim             ....  322

ORBITAL ENERGIES
----------------

  NO   OCC          E(Eh)            E(eV)
   0   2.0000     -88.969096     -2420.9722
   1   2.0000     -88.966039     -2420.8890
   2   2.0000     -10.339571      -281.3540
   3   2.0000     -10.332394      -281.1587
   4   2.0000     -10.319394      -280.8050
   5   2.0000     -10.316014      -280.7130
   6   2.0000     -10.308049      -280.4963
   7   2.0000     -10.305810      -280.4353
   8   2.0000     -10.303967      -280.3852
   9   2.0000     -10.296753      -280.1889
  10   2.0000     -10.295486      -280.1544
  11   2.0000     -10.290668      -280.0233
  12   2.0000     -10.289146      -279.9819
  13   2.0000     -10.286646      -279.9139
  14   2.0000     -10.283130      -279.8182
  15   2.0000     -10.280146      -279.7370
  16   2.0000      -8.083186      -219.9547
  17   2.0000      -8.080117      -219.8712
  18   2.0000      -6.041684      -164.4026
  19   2.0000      -6.038817      -164.3246
  20   2.0000      -6.037512      -164.2890
  21   2.0000      -6.034785      -164.2149
  22   2.0000      -6.034258      -164.2005
  23   2.0000      -6.030619      -164.1015
  24   2.0000      -1.005113       -27.3505
  25   2.0000      -0.984105       -26.7789
  26   2.0000      -0.909773       -24.7562
  27   2.0000      -0.907977       -24.7073
  28   2.0000      -0.875022       -23.8106
  29   2.0000      -0.848120       -23.0785
  30   2.0000      -0.842528       -22.9263
  31   2.0000      -0.813685       -22.1415
  32   2.0000      -0.785316       -21.3695
  33   2.0000      -0.770024       -20.9534
  34   2.0000      -0.710842       -19.3430
  35   2.0000      -0.702015       -19.1028
  36   2.0000      -0.687135       -18.6979
  37   2.0000      -0.662914       -18.0388
  38   2.0000      -0.635833       -17.3019
  39   2.0000      -0.613717       -16.7001
  40   2.0000      -0.593427       -16.1480
  41   2.0000      -0.570759       -15.5311
  42   2.0000      -0.550466       -14.9789
  43   2.0000      -0.546900       -14.8819
  44   2.0000      -0.542984       -14.7754
  45   2.0000      -0.522950       -14.2302
  46   2.0000      -0.518840       -14.1183
  47   2.0000      -0.515085       -14.0162
  48   2.0000      -0.501668       -13.6511
  49   2.0000      -0.496562       -13.5122
  50   2.0000      -0.490297       -13.3417
  51   2.0000      -0.486659       -13.2427
  52   2.0000      -0.471649       -12.8342
  53   2.0000      -0.464625       -12.6431
  54   2.0000      -0.459236       -12.4964
  55   2.0000      -0.449634       -12.2352
  56   2.0000      -0.439151       -11.9499
  57   2.0000      -0.436779       -11.8854
  58   2.0000      -0.430852       -11.7241
  59   2.0000      -0.419009       -11.4018
  60   2.0000      -0.414381       -11.2759
  61   2.0000      -0.407896       -11.0994
  62   2.0000      -0.404586       -11.0093
  63   2.0000      -0.358244        -9.7483
  64   2.0000      -0.332920        -9.0592
  65   2.0000      -0.327433        -8.9099
  66   2.0000      -0.288445        -7.8490
  67   0.0000       0.021343         0.5808
  68   0.0000       0.073758         2.0071
  69   0.0000       0.108165         2.9433
  70   0.0000       0.110582         3.0091
  71   0.0000       0.128410         3.4942

MULLIKEN ATOMIC CHARGES
-----------------------
   0 S :    0.112508
   1 C :   -0.115864
   2 C :   -0.099456
   3 C :    0.022330
   4 C :   -0.150361
   5 H :    0.028147
   6 C :    0.057845
   7 H :    0.041133
   8 H :    0.015816
   9 C :   -0.065055
  10 H :    0.024768
  11 H :    0.028795
  12 C :   -0.080300
  13 H :    0.043308
  14 H :    0.031305
  15 H :    0.023842
  16 S :    0.095460
  17 C :   -0.101525
  18 C :   -0.065733
  19 C :   -0.013696
  20 C :   -0.147764
  21 H :    0.032598
  22 C :    0.048447
  23 H :    0.026753
  24 H :    0.021708
  25 C :   -0.064055
  26 H :    0.033590
  27 H :    0.034013
  28 C :   -0.063236
  29 H :    0.029123
  30 H :    0.047801
  31 H :    0.028411
  32 H :    0.066850
  33 H :    0.072494
Sum of atomic charges:   -0.0000000

LOEWDIN ATOMIC CHARGES
----------------------
   0 S :    0.420338
   1 C :   -0.213407
   2 C :   -0.072837
   3 C :   -0.063085
   4 C :   -0.187939
   5 H :    0.032744
   6 C :   -0.034655
   7 H :    0.038852
   8 H :    0.027139
   9 C :   -0.049425
  10 H :    0.024437
  11 H :    0.025823
  12 C :   -0.077440
  13 H :    0.035596
  14 H :    0.029761
  15 H :    0.015893
  16 S :    0.390829
  17 C :   -0.192510
  18 C :   -0.075825
  19 C :   -0.055281
  20 C :   -0.179955
  21 H :    0.035584
  22 C :   -0.044751
  23 H :    0.032247
  24 H :    0.033084
  25 C :   -0.043480
  26 H :    0.027782
  27 H :    0.029203
  28 C :   -0.076373
  29 H :    0.024462
  30 H :    0.032939
  31 H :    0.026606
  32 H :    0.039564
  33 H :    0.044081

  Mayer bond orders larger than 0.100000
B(  0-S ,  1-C ) :   1.1742 B(  0-S ,  4-C ) :   1.1409 B(  1-C ,  2-C ) :   1.5558
B(  1-C ,  4-C ) :   0.1025 B(  1-C , 32-H ) :   0.9644 B(  2-C ,  3-C ) :   1.3022
B(  2-C ,  6-C ) :   1.0312 B(  3-C ,  4-C ) :   1.5122 B(  3-C ,  5-H ) :   0.9809
B(  4-C , 20-C ) :   1.0775 B(  6-C ,  7-H ) :   0.9421 B(  6-C ,  8-H ) :   0.9499
B(  6-C ,  9-C ) :   1.0403 B(  9-C , 10-H ) :   0.9544 B(  9-C , 11-H ) :   0.9581
B(  9-C , 12-C ) :   1.0819 B( 12-C , 13-H ) :   0.9735 B( 12-C , 14-H ) :   0.9741
B( 12-C , 15-H ) :   0.9762 B( 16-S , 17-C ) :   1.1204 B( 16-S , 20-C ) :   1.1329
B( 17-C , 18-C ) :   1.6720 B( 17-C , 33-H ) :   0.9576 B( 18-C , 19-C ) :   1.2007
B( 18-C , 21-H ) :   0.9744 B( 19-C , 20-C ) :   1.6024 B( 19-C , 22-C ) :   1.0506
B( 22-C , 23-H ) :   0.9249 B( 22-C , 24-H ) :   0.9275 B( 22-C , 25-C ) :   1.0863
B( 25-C , 26-H ) :   0.9545 B( 25-C , 27-H ) :   0.9521 B( 25-C , 28-C ) :   1.0634
B( 28-C , 29-H ) :   0.9754 B( 28-C , 30-H ) :   0.9762 B( 28-C , 31-H ) :   0.9749

Dispersion correction           -0.014072216
FINAL SINGLE POINT ENERGY     -1339.877923326623

DIPOLE MOMENT
-------------
                                X             Y             Z
Electronic contribution:     -3.36650      10.98274       8.05985
Nuclear contribution   :      3.31557     -11.25363      -8.22069
                        -----------------------------------------
Total Dipole Moment    :     -0.05093      -0.27089      -0.16083
                        -----------------------------------------
Magnitude (a.u.)       :      0.31913
Magnitude (Debye)      :      0.81116

Rotational constants in cm-1:     0.024297     0.007026     0.005937
Rotational constants in MHz :   728.402645   210.623652   177.982760

                             ****ORCA TERMINATED NORMALLY****
TOTAL RUN TIME: 0 days 0 hours 0 minutes 19 seconds 726 msec
