                         Program Version 4.2.1 -  RELEASE  -
|  1> ! wB97X-D3 SP def2-SVP
|  2> %pal
|  3> nprocs 24
|  4> end
|  5>
|  6> * xyz 0 1
|  7> S 	 -44.1208 	 8.91033 	 29.3943
|  8> C 	 -43.8045 	 10.404 	 28.5832
|  9> C 	 -44.5758 	 10.5463 	 27.4785
| 10> C 	 -45.3122 	 9.37403 	 27.196
| 11> C 	 -45.2771 	 8.41429 	 28.1746
| 12> H 	 -45.9662 	 9.26693 	 26.2654
| 13> C 	 -44.7134 	 11.7716 	 26.5729
| 14> H 	 -44.1024 	 12.5311 	 27.1467
| 15> H 	 -45.8133 	 12.0425 	 26.498
| 16> C 	 -44.1795 	 11.5344 	 25.1302
| 17> H 	 -44.7024 	 10.6326 	 24.7558
| 18> H 	 -44.3083 	 12.2903 	 24.3372
| 19> C 	 -42.6388 	 11.1861 	 25.1849
| 20> H 	 -42.2918 	 11.0802 	 26.1792
| 21> H 	 -42.3447 	 10.3252 	 24.5535
| 22> H 	 -42.0787 	 12.0351 	 24.6844
| 23> S 	 -45.0258 	 5.71026 	 28.745
| 24> C 	 -46.4683 	 4.74461 	 28.7116
| 25> C 	 -47.5781 	 5.3562 	 28.1198
| 26> C 	 -47.2921 	 6.73434 	 27.8247
| 27> C 	 -45.9727 	 7.08301 	 28.1509
| 28> H 	 -48.5627 	 4.81358 	 28.2095
| 29> C 	 -48.2602 	 7.70643 	 27.2252
| 30> H 	 -48.9916 	 7.22001 	 26.5702
| 31> H 	 -47.7156 	 8.28827 	 26.5347
| 32> C 	 -49.0912 	 8.61945 	 28.2466
| 33> H 	 -49.3857 	 9.50932 	 27.6992
| 34> H 	 -48.4255 	 8.87874 	 29.0848
| 35> C 	 -50.2867 	 7.85367 	 28.925
| 36> H 	 -50.9392 	 8.51798 	 29.4261
| 37> H 	 -49.9643 	 6.9702 	 29.5339
| 38> H 	 -51.0121 	 7.43239 	 28.2601
| 39> H 	 -43.2874 	 11.2444 	 29.0279
| 40> H 	 -46.4692 	 3.71617 	 29.1054
| 41> *
| 42>
| 43>                          ****END OF INPUT****

CARTESIAN COORDINATES (ANGSTROEM)
---------------------------------
  S    -44.120800    8.910330   29.394300
  C    -43.804500   10.404000   28.583200
  C    -44.575800   10.546300   27.478500
  C    -45.312200    9.374030   27.196000
  C    -45.277100    8.414290   28.174600
  H    -45.966200    9.266930   26.265400
  C    -44.713400   11.771600   26.572900
  H    -44.102400   12.531100   27.146700
  H    -45.813300   12.042500   26.498000
  C    -44.179500   11.534400   25.130200
  H    -44.702400   10.632600   24.755800
  H    -44.308300   12.290300   24.337200
  C    -42.638800   11.186100   25.184900
  H    -42.291800   11.080200   26.179200
  H    -42.344700   10.325200   24.553500
  H    -42.078700   12.035100   24.684400
  S    -45.025800    5.710260   28.745000
  C    -46.468300    4.744610   28.711600
  C    -47.578100    5.356200   28.119800
  C    -47.292100    6.734340   27.824700
  C    -45.972700    7.083010   28.150900
  H    -48.562700    4.813580   28.209500
  C    -48.260200    7.706430   27.225200
  H    -48.991600    7.220010   26.570200
  H    -47.715600    8.288270   26.534700
  C    -49.091200    8.619450   28.246600
  H    -49.385700    9.509320   27.699200
  H    -48.425500    8.878740   29.084800
  C    -50.286700    7.853670   28.925000
  H    -50.939200    8.517980   29.426100
  H    -49.964300    6.970200   29.533900
  H    -51.012100    7.432390   28.260100
  H    -43.287400   11.244400   29.027900
  H    -46.469200    3.716170   29.105400

 Total Charge           Charge          ....    0
 Multiplicity           Mult            ....    1
 Number of Electrons    NEL             ....  134
 Basis Dimension        Dim             ....  322

ORBITAL ENERGIES
----------------

  NO   OCC          E(Eh)            E(eV)
   0   2.0000     -88.968993     -2420.9694
   1   2.0000     -88.967996     -2420.9423
   2   2.0000     -10.333277      -281.1828
   3   2.0000     -10.332244      -281.1546
   4   2.0000     -10.320146      -280.8255
   5   2.0000     -10.311671      -280.5948
   6   2.0000     -10.309130      -280.5257
   7   2.0000     -10.306589      -280.4565
   8   2.0000     -10.302657      -280.3496
   9   2.0000     -10.297455      -280.2080
  10   2.0000     -10.294845      -280.1370
  11   2.0000     -10.294483      -280.1271
  12   2.0000     -10.294207      -280.1196
  13   2.0000     -10.289898      -280.0023
  14   2.0000     -10.276764      -279.6450
  15   2.0000     -10.276585      -279.6401
  16   2.0000      -8.083662      -219.9676
  17   2.0000      -8.083000      -219.9496
  18   2.0000      -6.042006      -164.4113
  19   2.0000      -6.041593      -164.4001
  20   2.0000      -6.038281      -164.3100
  21   2.0000      -6.037457      -164.2876
  22   2.0000      -6.034504      -164.2072
  23   2.0000      -6.033653      -164.1841
  24   2.0000      -1.009069       -27.4582
  25   2.0000      -0.986660       -26.8484
  26   2.0000      -0.906376       -24.6637
  27   2.0000      -0.901155       -24.5217
  28   2.0000      -0.863603       -23.4998
  29   2.0000      -0.848793       -23.0968
  30   2.0000      -0.840956       -22.8836
  31   2.0000      -0.812838       -22.1185
  32   2.0000      -0.782263       -21.2865
  33   2.0000      -0.770966       -20.9790
  34   2.0000      -0.710865       -19.3436
  35   2.0000      -0.698031       -18.9944
  36   2.0000      -0.689913       -18.7735
  37   2.0000      -0.658093       -17.9076
  38   2.0000      -0.634070       -17.2539
  39   2.0000      -0.622665       -16.9436
  40   2.0000      -0.594867       -16.1872
  41   2.0000      -0.562110       -15.2958
  42   2.0000      -0.552829       -15.0432
  43   2.0000      -0.545717       -14.8497
  44   2.0000      -0.539641       -14.6844
  45   2.0000      -0.533169       -14.5083
  46   2.0000      -0.513279       -13.9670
  47   2.0000      -0.508616       -13.8402
  48   2.0000      -0.495566       -13.4850
  49   2.0000      -0.489252       -13.3132
  50   2.0000      -0.483672       -13.1614
  51   2.0000      -0.481854       -13.1119
  52   2.0000      -0.474427       -12.9098
  53   2.0000      -0.466606       -12.6970
  54   2.0000      -0.452490       -12.3129
  55   2.0000      -0.449020       -12.2184
  56   2.0000      -0.445264       -12.1163
  57   2.0000      -0.436198       -11.8695
  58   2.0000      -0.429833       -11.6963
  59   2.0000      -0.425831       -11.5875
  60   2.0000      -0.423702       -11.5295
  61   2.0000      -0.418953       -11.4003
  62   2.0000      -0.407492       -11.0884
  63   2.0000      -0.352366        -9.5884
  64   2.0000      -0.334395        -9.0994
  65   2.0000      -0.332160        -9.0385
  66   2.0000      -0.289757        -7.8847
  67   0.0000       0.025902         0.7048
  68   0.0000       0.075599         2.0571
  69   0.0000       0.103426         2.8144
  70   0.0000       0.111765         3.0413
  71   0.0000       0.138792         3.7767

MULLIKEN ATOMIC CHARGES
-----------------------
   0 S :    0.110014
   1 C :   -0.117116
   2 C :   -0.101753
   3 C :   -0.027695
   4 C :   -0.114668
   5 H :    0.049717
   6 C :    0.043416
   7 H :    0.030465
   8 H :    0.054462
   9 C :   -0.082556
  10 H :    0.030986
  11 H :    0.043310
  12 C :   -0.076215
  13 H :    0.032915
  14 H :    0.039508
  15 H :    0.032649
  16 S :    0.112258
  17 C :   -0.123028
  18 C :   -0.040432
  19 C :   -0.044438
  20 C :   -0.160056
  21 H :    0.050565
  22 C :    0.080379
  23 H :    0.019432
  24 H :   -0.009826
  25 C :   -0.059280
  26 H :    0.034344
  27 H :    0.048143
  28 C :   -0.051425
  29 H :    0.025292
  30 H :    0.046558
  31 H :    0.007855
  32 H :    0.049653
  33 H :    0.066570
Sum of atomic charges:   -0.0000000

LOEWDIN ATOMIC CHARGES
----------------------
   0 S :    0.410971
   1 C :   -0.205431
   2 C :   -0.072129
   3 C :   -0.075361
   4 C :   -0.191744
   5 H :    0.039442
   6 C :   -0.032109
   7 H :    0.031770
   8 H :    0.040166
   9 C :   -0.047338
  10 H :    0.023489
  11 H :    0.027427
  12 C :   -0.071286
  13 H :    0.016382
  14 H :    0.030067
  15 H :    0.030151
  16 S :    0.403768
  17 C :   -0.190185
  18 C :   -0.081640
  19 C :   -0.052668
  20 C :   -0.189243
  21 H :    0.046751
  22 C :   -0.032642
  23 H :    0.031928
  24 H :    0.019033
  25 C :   -0.026763
  26 H :    0.024244
  27 H :    0.031385
  28 C :   -0.073670
  29 H :    0.022690
  30 H :    0.033752
  31 H :    0.017995
  32 H :    0.030181
  33 H :    0.030618

  Mayer bond orders larger than 0.100000
B(  0-S ,  1-C ) :   1.1350 B(  0-S ,  4-C ) :   1.1498 B(  1-C ,  2-C ) :   1.6310
B(  1-C , 32-H ) :   0.9546 B(  2-C ,  3-C ) :   1.2483 B(  2-C ,  6-C ) :   1.0110
B(  3-C ,  4-C ) :   1.5865 B(  3-C ,  5-H ) :   0.9682 B(  4-C , 20-C ) :   1.0313
B(  6-C ,  7-H ) :   0.9459 B(  6-C ,  8-H ) :   0.9440 B(  6-C ,  9-C ) :   1.0547
B(  9-C , 10-H ) :   0.9624 B(  9-C , 11-H ) :   0.9673 B(  9-C , 12-C ) :   1.0467
B( 12-C , 13-H ) :   0.9833 B( 12-C , 14-H ) :   0.9780 B( 12-C , 15-H ) :   0.9799
B( 16-S , 17-C ) :   1.1668 B( 16-S , 20-C ) :   1.1390 B( 17-C , 18-C ) :   1.6127
B( 17-C , 33-H ) :   0.9617 B( 18-C , 19-C ) :   1.2353 B( 18-C , 21-H ) :   0.9792
B( 19-C , 20-C ) :   1.6039 B( 19-C , 22-C ) :   1.0431 B( 22-C , 23-H ) :   0.9343
B( 22-C , 24-H ) :   0.9361 B( 22-C , 25-C ) :   1.0509 B( 25-C , 26-H ) :   0.9591
B( 25-C , 27-H ) :   0.9619 B( 25-C , 28-C ) :   1.0685 B( 28-C , 29-H ) :   0.9738
B( 28-C , 30-H ) :   0.9761 B( 28-C , 31-H ) :   0.9734

Dispersion correction           -0.014741812
FINAL SINGLE POINT ENERGY     -1339.871681759495

DIPOLE MOMENT
-------------
                                X             Y             Z
Electronic contribution:     11.82373     -15.06036      13.19001
Nuclear contribution   :    -12.33736      15.32365     -13.48227
                        -----------------------------------------
Total Dipole Moment    :     -0.51363       0.26329      -0.29226
                        -----------------------------------------
Magnitude (a.u.)       :      0.64696
Magnitude (Debye)      :      1.64444

Rotational constants in cm-1:     0.019570     0.008593     0.007121
Rotational constants in MHz :   586.695430   257.598447   213.490746

                             ****ORCA TERMINATED NORMALLY****
TOTAL RUN TIME: 0 days 0 hours 0 minutes 22 seconds 18 msec
