                         Program Version 4.2.1 -  RELEASE  -
|  1> ! wB97X-D3 SP def2-SVP
|  2> %pal
|  3> nprocs 24
|  4> end
|  5>
|  6> * xyz 0 1
|  7> S 	 37.4948 	 -23.1752 	 -114.106
|  8> C 	 38.2733 	 -24.0125 	 -115.469
|  9> C 	 39.4927 	 -24.6206 	 -115.038
| 10> C 	 39.6786 	 -24.4555 	 -113.602
| 11> C 	 38.6056 	 -23.8496 	 -112.964
| 12> H 	 40.4629 	 -25.0017 	 -113.035
| 13> C 	 40.4085 	 -25.37 	 -115.884
| 14> H 	 41.4929 	 -25.096 	 -115.627
| 15> H 	 40.2464 	 -24.8902 	 -116.791
| 16> C 	 40.2497 	 -26.8769 	 -116.076
| 17> H 	 39.3244 	 -27.07 	 -116.459
| 18> H 	 40.9214 	 -27.2082 	 -116.857
| 19> C 	 40.3934 	 -27.7108 	 -114.768
| 20> H 	 39.5081 	 -27.599 	 -114.194
| 21> H 	 40.425 	 -28.7235 	 -115.082
| 22> H 	 41.28 	 -27.4358 	 -114.106
| 23> S 	 36.9529 	 -24.0425 	 -110.791
| 24> C 	 37.4699 	 -23.4761 	 -109.223
| 25> C 	 38.8043 	 -23.1139 	 -109.248
| 26> C 	 39.3672 	 -23.1148 	 -110.563
| 27> C 	 38.4737 	 -23.6232 	 -111.528
| 28> H 	 39.3736 	 -22.8946 	 -108.382
| 29> C 	 40.7274 	 -22.5284 	 -110.805
| 30> H 	 40.779 	 -21.4808 	 -110.637
| 31> H 	 40.8823 	 -22.6415 	 -111.867
| 32> C 	 41.9161 	 -23.1314 	 -109.981
| 33> H 	 41.8477 	 -22.8143 	 -108.952
| 34> H 	 42.7745 	 -22.7686 	 -110.442
| 35> C 	 42.0056 	 -24.6775 	 -110.236
| 36> H 	 41.981 	 -24.9549 	 -111.283
| 37> H 	 41.4158 	 -25.2612 	 -109.605
| 38> H 	 42.9527 	 -24.9202 	 -109.731
| 39> H 	 38.053 	 -23.8621 	 -116.488
| 40> H 	 36.8261 	 -23.5007 	 -108.345
| 41> *
| 42>
| 43>                          ****END OF INPUT****

CARTESIAN COORDINATES (ANGSTROEM)
---------------------------------
  S     37.494800  -23.175200  -114.106000
  C     38.273300  -24.012500  -115.469000
  C     39.492700  -24.620600  -115.038000
  C     39.678600  -24.455500  -113.602000
  C     38.605600  -23.849600  -112.964000
  H     40.462900  -25.001700  -113.035000
  C     40.408500  -25.370000  -115.884000
  H     41.492900  -25.096000  -115.627000
  H     40.246400  -24.890200  -116.791000
  C     40.249700  -26.876900  -116.076000
  H     39.324400  -27.070000  -116.459000
  H     40.921400  -27.208200  -116.857000
  C     40.393400  -27.710800  -114.768000
  H     39.508100  -27.599000  -114.194000
  H     40.425000  -28.723500  -115.082000
  H     41.280000  -27.435800  -114.106000
  S     36.952900  -24.042500  -110.791000
  C     37.469900  -23.476100  -109.223000
  C     38.804300  -23.113900  -109.248000
  C     39.367200  -23.114800  -110.563000
  C     38.473700  -23.623200  -111.528000
  H     39.373600  -22.894600  -108.382000
  C     40.727400  -22.528400  -110.805000
  H     40.779000  -21.480800  -110.637000
  H     40.882300  -22.641500  -111.867000
  C     41.916100  -23.131400  -109.981000
  H     41.847700  -22.814300  -108.952000
  H     42.774500  -22.768600  -110.442000
  C     42.005600  -24.677500  -110.236000
  H     41.981000  -24.954900  -111.283000
  H     41.415800  -25.261200  -109.605000
  H     42.952700  -24.920200  -109.731000
  H     38.053000  -23.862100  -116.488000
  H     36.826100  -23.500700  -108.345000

 Total Charge           Charge          ....    0
 Multiplicity           Mult            ....    1
 Number of Electrons    NEL             ....  134
 Basis Dimension        Dim             ....  322

ORBITAL ENERGIES
----------------

  NO   OCC          E(Eh)            E(eV)
   0   2.0000     -88.968334     -2420.9515
   1   2.0000     -88.964103     -2420.8363
   2   2.0000     -10.330135      -281.0973
   3   2.0000     -10.326603      -281.0011
   4   2.0000     -10.318406      -280.7781
   5   2.0000     -10.316474      -280.7255
   6   2.0000     -10.305134      -280.4170
   7   2.0000     -10.301927      -280.3297
   8   2.0000     -10.296567      -280.1838
   9   2.0000     -10.290469      -280.0179
  10   2.0000     -10.286110      -279.8993
  11   2.0000     -10.285795      -279.8907
  12   2.0000     -10.281727      -279.7800
  13   2.0000     -10.280704      -279.7522
  14   2.0000     -10.276055      -279.6257
  15   2.0000     -10.273990      -279.5695
  16   2.0000      -8.082640      -219.9398
  17   2.0000      -8.079138      -219.8445
  18   2.0000      -6.041218      -164.3899
  19   2.0000      -6.037645      -164.2927
  20   2.0000      -6.037138      -164.2789
  21   2.0000      -6.033464      -164.1789
  22   2.0000      -6.033421      -164.1777
  23   2.0000      -6.030035      -164.0856
  24   2.0000      -1.003977       -27.3196
  25   2.0000      -0.980127       -26.6706
  26   2.0000      -0.917000       -24.9528
  27   2.0000      -0.906977       -24.6801
  28   2.0000      -0.866373       -23.5752
  29   2.0000      -0.848061       -23.0769
  30   2.0000      -0.844099       -22.9691
  31   2.0000      -0.814890       -22.1743
  32   2.0000      -0.785175       -21.3657
  33   2.0000      -0.773103       -21.0372
  34   2.0000      -0.712382       -19.3849
  35   2.0000      -0.707767       -19.2593
  36   2.0000      -0.695378       -18.9222
  37   2.0000      -0.659148       -17.9363
  38   2.0000      -0.636547       -17.3213
  39   2.0000      -0.615200       -16.7404
  40   2.0000      -0.595951       -16.2166
  41   2.0000      -0.572465       -15.5776
  42   2.0000      -0.562999       -15.3200
  43   2.0000      -0.550390       -14.9769
  44   2.0000      -0.544928       -14.8282
  45   2.0000      -0.535485       -14.5713
  46   2.0000      -0.522007       -14.2045
  47   2.0000      -0.509626       -13.8676
  48   2.0000      -0.502584       -13.6760
  49   2.0000      -0.498790       -13.5728
  50   2.0000      -0.493882       -13.4392
  51   2.0000      -0.476719       -12.9722
  52   2.0000      -0.466338       -12.6897
  53   2.0000      -0.466332       -12.6895
  54   2.0000      -0.462655       -12.5895
  55   2.0000      -0.445792       -12.1306
  56   2.0000      -0.444074       -12.0839
  57   2.0000      -0.441529       -12.0146
  58   2.0000      -0.430670       -11.7191
  59   2.0000      -0.424864       -11.5611
  60   2.0000      -0.420427       -11.4404
  61   2.0000      -0.416655       -11.3378
  62   2.0000      -0.411288       -11.1917
  63   2.0000      -0.344311        -9.3692
  64   2.0000      -0.328608        -8.9419
  65   2.0000      -0.326281        -8.8786
  66   2.0000      -0.290279        -7.8989
  67   0.0000       0.028222         0.7680
  68   0.0000       0.069944         1.9033
  69   0.0000       0.103966         2.8291
  70   0.0000       0.118027         3.2117
  71   0.0000       0.128660         3.5010

MULLIKEN ATOMIC CHARGES
-----------------------
   0 S :    0.118045
   1 C :   -0.099426
   2 C :   -0.130146
   3 C :    0.029226
   4 C :   -0.145985
   5 H :    0.017515
   6 C :    0.055297
   7 H :    0.036431
   8 H :   -0.002849
   9 C :   -0.000647
  10 H :   -0.003086
  11 H :    0.025461
  12 C :   -0.057527
  13 H :    0.038168
  14 H :    0.027914
  15 H :    0.040431
  16 S :    0.108552
  17 C :   -0.093903
  18 C :   -0.016588
  19 C :   -0.024885
  20 C :   -0.174286
  21 H :    0.004574
  22 C :    0.065644
  23 H :    0.029490
  24 H :    0.010525
  25 C :   -0.058609
  26 H :    0.033822
  27 H :    0.019625
  28 C :   -0.034715
  29 H :    0.044882
  30 H :    0.020389
  31 H :    0.017556
  32 H :    0.036169
  33 H :    0.062937
Sum of atomic charges:    0.0000000

LOEWDIN ATOMIC CHARGES
----------------------
   0 S :    0.411051
   1 C :   -0.194149
   2 C :   -0.053478
   3 C :   -0.071023
   4 C :   -0.200601
   5 H :    0.033200
   6 C :   -0.043487
   7 H :    0.040288
   8 H :    0.024086
   9 C :   -0.024263
  10 H :    0.012967
  11 H :    0.025156
  12 C :   -0.062599
  13 H :    0.023712
  14 H :    0.023128
  15 H :    0.029988
  16 S :    0.413923
  17 C :   -0.184006
  18 C :   -0.065648
  19 C :   -0.051411
  20 C :   -0.208145
  21 H :    0.024734
  22 C :   -0.033941
  23 H :    0.027895
  24 H :    0.026791
  25 C :   -0.023835
  26 H :    0.021417
  27 H :    0.018862
  28 C :   -0.063378
  29 H :    0.024979
  30 H :    0.017991
  31 H :    0.030797
  32 H :    0.018209
  33 H :    0.030786

  Mayer bond orders larger than 0.100000
B(  0-S ,  1-C ) :   1.1284 B(  0-S ,  4-C ) :   1.1701 B(  1-C ,  2-C ) :   1.5903
B(  1-C , 32-H ) :   0.9716 B(  2-C ,  3-C ) :   1.2451 B(  2-C ,  6-C ) :   1.0356
B(  3-C ,  4-C ) :   1.5601 B(  3-C ,  5-H ) :   0.9834 B(  4-C , 20-C ) :   1.0285
B(  6-C ,  7-H ) :   0.9391 B(  6-C ,  8-H ) :   0.9207 B(  6-C ,  9-C ) :   1.0828
B(  9-C , 10-H ) :   0.9453 B(  9-C , 11-H ) :   0.9544 B(  9-C , 12-C ) :   1.0764
B( 12-C , 13-H ) :   0.9736 B( 12-C , 14-H ) :   0.9728 B( 12-C , 15-H ) :   0.9771
B( 16-S , 17-C ) :   1.1607 B( 16-S , 20-C ) :   1.1533 B( 17-C , 18-C ) :   1.5849
B( 17-C , 33-H ) :   0.9693 B( 18-C , 19-C ) :   1.2516 B( 18-C , 21-H ) :   0.9962
B( 19-C , 20-C ) :   1.5676 B( 19-C , 22-C ) :   1.0464 B( 22-C , 23-H ) :   0.9356
B( 22-C , 24-H ) :   0.9303 B( 22-C , 25-C ) :   1.0767 B( 25-C , 26-H ) :   0.9559
B( 25-C , 27-H ) :   0.9569 B( 25-C , 28-C ) :   1.0739 B( 28-C , 29-H ) :   0.9743
B( 28-C , 30-H ) :   0.9719 B( 28-C , 31-H ) :   0.9684

Dispersion correction           -0.015161981
FINAL SINGLE POINT ENERGY     -1339.863560795026

DIPOLE MOMENT
-------------
                                X             Y             Z
Electronic contribution:    -24.01393      11.92341       2.44827
Nuclear contribution   :     24.64087     -12.06066      -2.42359
                        -----------------------------------------
Total Dipole Moment    :      0.62694      -0.13725       0.02468
                        -----------------------------------------
Magnitude (a.u.)       :      0.64227
Magnitude (Debye)      :      1.63251

Rotational constants in cm-1:     0.018305     0.009370     0.007457
Rotational constants in MHz :   548.761580   280.905353   223.546842

                             ****ORCA TERMINATED NORMALLY****
TOTAL RUN TIME: 0 days 0 hours 0 minutes 22 seconds 226 msec
