                         Program Version 4.2.1 -  RELEASE  -
|  1> ! wB97X-D3 SP def2-SVP
|  2> %pal
|  3> nprocs 24
|  4> end
|  5>
|  6> * xyz 0 1
|  7> S 	 -133.851 	 68.5478 	 -55.9752
|  8> C 	 -134.382 	 66.9744 	 -56.6383
|  9> C 	 -135.771 	 66.8429 	 -56.566
| 10> C 	 -136.336 	 67.9466 	 -55.8572
| 11> C 	 -135.488 	 68.9795 	 -55.5087
| 12> H 	 -137.314 	 67.9502 	 -55.5512
| 13> C 	 -136.571 	 65.8116 	 -57.3548
| 14> H 	 -135.947 	 64.9475 	 -57.5071
| 15> H 	 -136.925 	 66.2031 	 -58.3351
| 16> C 	 -137.891 	 65.3747 	 -56.679
| 17> H 	 -138.325 	 66.3061 	 -56.2787
| 18> H 	 -138.649 	 65.0334 	 -57.4017
| 19> C 	 -137.683 	 64.5065 	 -55.4973
| 20> H 	 -137.224 	 63.6064 	 -55.9077
| 21> H 	 -136.975 	 64.9293 	 -54.7166
| 22> H 	 -138.622 	 64.2528 	 -54.9962
| 23> S 	 -134.429 	 71.2732 	 -54.4788
| 24> C 	 -135.352 	 72.2571 	 -53.4203
| 25> C 	 -136.472 	 71.6634 	 -52.9416
| 26> C 	 -136.72 	 70.429 	 -53.6357
| 27> C 	 -135.779 	 70.1275 	 -54.6222
| 28> H 	 -137.077 	 72.0741 	 -52.1585
| 29> C 	 -137.901 	 69.4777 	 -53.3076
| 30> H 	 -138.289 	 69.6801 	 -52.2652
| 31> H 	 -137.452 	 68.4634 	 -53.2591
| 32> C 	 -139.08 	 69.4499 	 -54.2714
| 33> H 	 -138.698 	 69.5409 	 -55.2677
| 34> H 	 -139.615 	 70.36 	 -54.2271
| 35> C 	 -139.926 	 68.173 	 -54.1805
| 36> H 	 -140.401 	 68.0114 	 -53.1837
| 37> H 	 -139.168 	 67.3805 	 -54.2906
| 38> H 	 -140.644 	 67.9771 	 -55.0203
| 39> H 	 -133.825 	 66.4207 	 -57.344
| 40> H 	 -134.901 	 73.1601 	 -52.9263
| 41> *
| 42>
| 43>                          ****END OF INPUT****

CARTESIAN COORDINATES (ANGSTROEM)
---------------------------------
  S    -133.851000   68.547800  -55.975200
  C    -134.382000   66.974400  -56.638300
  C    -135.771000   66.842900  -56.566000
  C    -136.336000   67.946600  -55.857200
  C    -135.488000   68.979500  -55.508700
  H    -137.314000   67.950200  -55.551200
  C    -136.571000   65.811600  -57.354800
  H    -135.947000   64.947500  -57.507100
  H    -136.925000   66.203100  -58.335100
  C    -137.891000   65.374700  -56.679000
  H    -138.325000   66.306100  -56.278700
  H    -138.649000   65.033400  -57.401700
  C    -137.683000   64.506500  -55.497300
  H    -137.224000   63.606400  -55.907700
  H    -136.975000   64.929300  -54.716600
  H    -138.622000   64.252800  -54.996200
  S    -134.429000   71.273200  -54.478800
  C    -135.352000   72.257100  -53.420300
  C    -136.472000   71.663400  -52.941600
  C    -136.720000   70.429000  -53.635700
  C    -135.779000   70.127500  -54.622200
  H    -137.077000   72.074100  -52.158500
  C    -137.901000   69.477700  -53.307600
  H    -138.289000   69.680100  -52.265200
  H    -137.452000   68.463400  -53.259100
  C    -139.080000   69.449900  -54.271400
  H    -138.698000   69.540900  -55.267700
  H    -139.615000   70.360000  -54.227100
  C    -139.926000   68.173000  -54.180500
  H    -140.401000   68.011400  -53.183700
  H    -139.168000   67.380500  -54.290600
  H    -140.644000   67.977100  -55.020300
  H    -133.825000   66.420700  -57.344000
  H    -134.901000   73.160100  -52.926300

 Total Charge           Charge          ....    0
 Multiplicity           Mult            ....    1
 Number of Electrons    NEL             ....  134
 Basis Dimension        Dim             ....  322

ORBITAL ENERGIES
----------------

  NO   OCC          E(Eh)            E(eV)
   0   2.0000     -88.968197     -2420.9477
   1   2.0000     -88.965140     -2420.8645
   2   2.0000     -10.337261      -281.2912
   3   2.0000     -10.334133      -281.2061
   4   2.0000     -10.319713      -280.8137
   5   2.0000     -10.315646      -280.7030
   6   2.0000     -10.312700      -280.6228
   7   2.0000     -10.306158      -280.4448
   8   2.0000     -10.301085      -280.3068
   9   2.0000     -10.297874      -280.2194
  10   2.0000     -10.295945      -280.1669
  11   2.0000     -10.290483      -280.0183
  12   2.0000     -10.287946      -279.9493
  13   2.0000     -10.286509      -279.9101
  14   2.0000     -10.283070      -279.8165
  15   2.0000     -10.278708      -279.6979
  16   2.0000      -8.082143      -219.9263
  17   2.0000      -8.080651      -219.8857
  18   2.0000      -6.040923      -164.3819
  19   2.0000      -6.039119      -164.3328
  20   2.0000      -6.036766      -164.2688
  21   2.0000      -6.035209      -164.2264
  22   2.0000      -6.032651      -164.1568
  23   2.0000      -6.031265      -164.1191
  24   2.0000      -1.008736       -27.4491
  25   2.0000      -0.985088       -26.8056
  26   2.0000      -0.917636       -24.9701
  27   2.0000      -0.912043       -24.8179
  28   2.0000      -0.872381       -23.7387
  29   2.0000      -0.853555       -23.2264
  30   2.0000      -0.843460       -22.9517
  31   2.0000      -0.819915       -22.3110
  32   2.0000      -0.783105       -21.3094
  33   2.0000      -0.772724       -21.0269
  34   2.0000      -0.713423       -19.4132
  35   2.0000      -0.700503       -19.0617
  36   2.0000      -0.690267       -18.7831
  37   2.0000      -0.664475       -18.0813
  38   2.0000      -0.640176       -17.4201
  39   2.0000      -0.632746       -17.2179
  40   2.0000      -0.598128       -16.2759
  41   2.0000      -0.570681       -15.5290
  42   2.0000      -0.563060       -15.3216
  43   2.0000      -0.557966       -15.1830
  44   2.0000      -0.539558       -14.6821
  45   2.0000      -0.525041       -14.2871
  46   2.0000      -0.519420       -14.1342
  47   2.0000      -0.513456       -13.9718
  48   2.0000      -0.508694       -13.8423
  49   2.0000      -0.498984       -13.5780
  50   2.0000      -0.495943       -13.4953
  51   2.0000      -0.477936       -13.0053
  52   2.0000      -0.472093       -12.8463
  53   2.0000      -0.468705       -12.7541
  54   2.0000      -0.459782       -12.5113
  55   2.0000      -0.452562       -12.3148
  56   2.0000      -0.446187       -12.1414
  57   2.0000      -0.440637       -11.9903
  58   2.0000      -0.434134       -11.8134
  59   2.0000      -0.427202       -11.6247
  60   2.0000      -0.422508       -11.4970
  61   2.0000      -0.412565       -11.2265
  62   2.0000      -0.408131       -11.1058
  63   2.0000      -0.361619        -9.8401
  64   2.0000      -0.337206        -9.1759
  65   2.0000      -0.328074        -8.9273
  66   2.0000      -0.287688        -7.8284
  67   0.0000       0.015701         0.4272
  68   0.0000       0.073572         2.0020
  69   0.0000       0.094513         2.5718
  70   0.0000       0.114486         3.1153
  71   0.0000       0.124011         3.3745

MULLIKEN ATOMIC CHARGES
-----------------------
   0 S :    0.084402
   1 C :   -0.089447
   2 C :   -0.099845
   3 C :    0.039018
   4 C :   -0.056479
   5 H :   -0.091910
   6 C :    0.080395
   7 H :    0.016734
   8 H :    0.053735
   9 C :   -0.095112
  10 H :    0.009020
  11 H :    0.032611
  12 C :   -0.052546
  13 H :    0.023289
  14 H :    0.050388
  15 H :    0.038433
  16 S :    0.081498
  17 C :   -0.081538
  18 C :   -0.014333
  19 C :   -0.069827
  20 C :   -0.125367
  21 H :    0.014245
  22 C :    0.010789
  23 H :    0.028896
  24 H :    0.038302
  25 C :   -0.024916
  26 H :    0.018981
  27 H :    0.010176
  28 C :   -0.058314
  29 H :    0.043251
  30 H :    0.018972
  31 H :    0.052540
  32 H :    0.039622
  33 H :    0.074339
Sum of atomic charges:   -0.0000000

LOEWDIN ATOMIC CHARGES
----------------------
   0 S :    0.383487
   1 C :   -0.180340
   2 C :   -0.055716
   3 C :   -0.066665
   4 C :   -0.178311
   5 H :    0.007020
   6 C :   -0.025399
   7 H :    0.024792
   8 H :    0.042143
   9 C :   -0.051647
  10 H :    0.018900
  11 H :    0.028002
  12 C :   -0.070606
  13 H :    0.022878
  14 H :    0.035647
  15 H :    0.026545
  16 S :    0.401565
  17 C :   -0.191029
  18 C :   -0.072718
  19 C :   -0.049839
  20 C :   -0.182711
  21 H :    0.033156
  22 C :   -0.034857
  23 H :    0.033187
  24 H :    0.032305
  25 C :   -0.046965
  26 H :    0.021573
  27 H :    0.019341
  28 C :   -0.069568
  29 H :    0.030428
  30 H :    0.021158
  31 H :    0.034631
  32 H :    0.019839
  33 H :    0.039773

  Mayer bond orders larger than 0.100000
B(  0-S ,  1-C ) :   1.1272 B(  0-S ,  4-C ) :   1.1347 B(  1-C ,  2-C ) :   1.6222
B(  1-C , 32-H ) :   0.9622 B(  2-C ,  3-C ) :   1.2408 B(  2-C ,  6-C ) :   1.0221
B(  3-C ,  4-C ) :   1.5797 B(  3-C ,  5-H ) :   1.0027 B(  4-C , 20-C ) :   1.0694
B(  6-C ,  7-H ) :   0.9426 B(  6-C ,  8-H ) :   0.9376 B(  6-C ,  9-C ) :   1.0687
B(  9-C , 10-H ) :   0.9483 B(  9-C , 11-H ) :   0.9516 B(  9-C , 12-C ) :   1.0822
B( 12-C , 13-H ) :   0.9728 B( 12-C , 14-H ) :   0.9706 B( 12-C , 15-H ) :   0.9708
B( 16-S , 17-C ) :   1.1722 B( 16-S , 20-C ) :   1.1254 B( 17-C , 18-C ) :   1.6055
B( 17-C , 33-H ) :   0.9557 B( 18-C , 19-C ) :   1.2502 B( 18-C , 21-H ) :   0.9992
B( 19-C , 20-C ) :   1.5797 B( 19-C , 22-C ) :   1.0312 B( 22-C , 23-H ) :   0.9375
B( 22-C , 24-H ) :   0.9387 B( 22-C , 25-C ) :   1.0559 B( 25-C , 26-H ) :   0.9513
B( 25-C , 27-H ) :   0.9432 B( 25-C , 28-C ) :   1.0696 B( 28-C , 29-H ) :   0.9721
B( 28-C , 30-H ) :   0.9663 B( 28-C , 31-H ) :   0.9732

Dispersion correction           -0.015624557
FINAL SINGLE POINT ENERGY     -1339.874705691152

DIPOLE MOMENT
-------------
                                X             Y             Z
Electronic contribution:     26.21683      19.67363      -0.70268
Nuclear contribution   :    -26.85773     -19.90246       0.82497
                        -----------------------------------------
Total Dipole Moment    :     -0.64090      -0.22883       0.12229
                        -----------------------------------------
Magnitude (a.u.)       :      0.69143
Magnitude (Debye)      :      1.75747

Rotational constants in cm-1:     0.018735     0.010487     0.007032
Rotational constants in MHz :   561.667198   314.389898   210.827702

                             ****ORCA TERMINATED NORMALLY****
TOTAL RUN TIME: 0 days 0 hours 0 minutes 23 seconds 97 msec
