                         Program Version 4.2.1 -  RELEASE  -
|  1> ! wB97X-D3 SP def2-SVP
|  2> %pal
|  3> nprocs 24
|  4> end
|  5>
|  6> * xyz 0 1
|  7> S 	 -49.9101 	 24.1938 	 28.2477
|  8> C 	 -49.0322 	 25.4966 	 27.459
|  9> C 	 -47.6479 	 25.2298 	 27.5392
| 10> C 	 -47.4291 	 24.0593 	 28.246
| 11> C 	 -48.5211 	 23.32 	 28.6673
| 12> H 	 -46.4242 	 23.6006 	 28.3892
| 13> C 	 -46.5104 	 26.0886 	 26.9202
| 14> H 	 -45.7388 	 26.2026 	 27.6399
| 15> H 	 -46.8717 	 27.0898 	 26.7419
| 16> C 	 -45.8003 	 25.6199 	 25.6554
| 17> H 	 -45.5209 	 24.5342 	 25.8271
| 18> H 	 -46.554 	 25.6583 	 24.8342
| 19> C 	 -44.5748 	 26.4771 	 25.279
| 20> H 	 -43.8854 	 26.5036 	 26.1063
| 21> H 	 -43.9545 	 25.9522 	 24.593
| 22> H 	 -44.8917 	 27.4588 	 24.9763
| 23> S 	 -48.989 	 20.5823 	 28.277
| 24> C 	 -48.3925 	 19.4307 	 29.3304
| 25> C 	 -47.6411 	 19.9848 	 30.3404
| 26> C 	 -47.6444 	 21.3994 	 30.2992
| 27> C 	 -48.3949 	 21.9292 	 29.1539
| 28> H 	 -47.1673 	 19.4529 	 31.127
| 29> C 	 -46.8749 	 22.2882 	 31.2373
| 30> H 	 -47.1049 	 23.3308 	 31.0564
| 31> H 	 -45.7719 	 22.189 	 31.1225
| 32> C 	 -47.1558 	 21.9571 	 32.746
| 33> H 	 -46.5525 	 22.5394 	 33.4578
| 34> H 	 -46.8958 	 20.8891 	 32.9234
| 35> C 	 -48.5875 	 22.1732 	 33.1758
| 36> H 	 -49.3529 	 21.4595 	 32.8714
| 37> H 	 -48.965 	 23.1358 	 32.9277
| 38> H 	 -48.4309 	 22.234 	 34.2575
| 39> H 	 -49.4396 	 26.3951 	 26.9326
| 40> H 	 -48.6077 	 18.3922 	 29.2216
| 41> *
| 42>
| 43>                          ****END OF INPUT****

CARTESIAN COORDINATES (ANGSTROEM)
---------------------------------
  S    -49.910100   24.193800   28.247700
  C    -49.032200   25.496600   27.459000
  C    -47.647900   25.229800   27.539200
  C    -47.429100   24.059300   28.246000
  C    -48.521100   23.320000   28.667300
  H    -46.424200   23.600600   28.389200
  C    -46.510400   26.088600   26.920200
  H    -45.738800   26.202600   27.639900
  H    -46.871700   27.089800   26.741900
  C    -45.800300   25.619900   25.655400
  H    -45.520900   24.534200   25.827100
  H    -46.554000   25.658300   24.834200
  C    -44.574800   26.477100   25.279000
  H    -43.885400   26.503600   26.106300
  H    -43.954500   25.952200   24.593000
  H    -44.891700   27.458800   24.976300
  S    -48.989000   20.582300   28.277000
  C    -48.392500   19.430700   29.330400
  C    -47.641100   19.984800   30.340400
  C    -47.644400   21.399400   30.299200
  C    -48.394900   21.929200   29.153900
  H    -47.167300   19.452900   31.127000
  C    -46.874900   22.288200   31.237300
  H    -47.104900   23.330800   31.056400
  H    -45.771900   22.189000   31.122500
  C    -47.155800   21.957100   32.746000
  H    -46.552500   22.539400   33.457800
  H    -46.895800   20.889100   32.923400
  C    -48.587500   22.173200   33.175800
  H    -49.352900   21.459500   32.871400
  H    -48.965000   23.135800   32.927700
  H    -48.430900   22.234000   34.257500
  H    -49.439600   26.395100   26.932600
  H    -48.607700   18.392200   29.221600

 Total Charge           Charge          ....    0
 Multiplicity           Mult            ....    1
 Number of Electrons    NEL             ....  134
 Basis Dimension        Dim             ....  322

ORBITAL ENERGIES
----------------

  NO   OCC          E(Eh)            E(eV)
   0   2.0000     -88.971483     -2421.0371
   1   2.0000     -88.967646     -2420.9327
   2   2.0000     -10.330614      -281.1103
   3   2.0000     -10.327044      -281.0131
   4   2.0000     -10.322771      -280.8969
   5   2.0000     -10.310782      -280.5706
   6   2.0000     -10.306245      -280.4472
   7   2.0000     -10.303336      -280.3680
   8   2.0000     -10.292380      -280.0699
   9   2.0000     -10.289813      -280.0000
  10   2.0000     -10.289778      -279.9991
  11   2.0000     -10.289561      -279.9932
  12   2.0000     -10.288920      -279.9758
  13   2.0000     -10.287094      -279.9261
  14   2.0000     -10.277196      -279.6567
  15   2.0000     -10.266110      -279.3551
  16   2.0000      -8.086367      -220.0412
  17   2.0000      -8.084114      -219.9799
  18   2.0000      -6.044749      -164.4860
  19   2.0000      -6.042322      -164.4199
  20   2.0000      -6.040579      -164.3725
  21   2.0000      -6.038060      -164.3040
  22   2.0000      -6.037502      -164.2888
  23   2.0000      -6.035413      -164.2319
  24   2.0000      -1.012959       -27.5640
  25   2.0000      -0.994172       -27.0528
  26   2.0000      -0.911334       -24.7987
  27   2.0000      -0.907279       -24.6883
  28   2.0000      -0.869407       -23.6578
  29   2.0000      -0.851454       -23.1692
  30   2.0000      -0.849024       -23.1031
  31   2.0000      -0.812226       -22.1018
  32   2.0000      -0.787543       -21.4301
  33   2.0000      -0.772545       -21.0220
  34   2.0000      -0.701309       -19.0836
  35   2.0000      -0.695148       -18.9159
  36   2.0000      -0.694358       -18.8944
  37   2.0000      -0.650309       -17.6958
  38   2.0000      -0.638649       -17.3785
  39   2.0000      -0.621886       -16.9224
  40   2.0000      -0.603379       -16.4188
  41   2.0000      -0.573653       -15.6099
  42   2.0000      -0.568551       -15.4710
  43   2.0000      -0.548373       -14.9220
  44   2.0000      -0.540535       -14.7087
  45   2.0000      -0.526441       -14.3252
  46   2.0000      -0.517263       -14.0755
  47   2.0000      -0.510711       -13.8972
  48   2.0000      -0.506148       -13.7730
  49   2.0000      -0.496341       -13.5061
  50   2.0000      -0.493703       -13.4343
  51   2.0000      -0.481758       -13.1093
  52   2.0000      -0.473018       -12.8715
  53   2.0000      -0.469935       -12.7876
  54   2.0000      -0.462260       -12.5787
  55   2.0000      -0.449594       -12.2341
  56   2.0000      -0.445603       -12.1255
  57   2.0000      -0.428697       -11.6654
  58   2.0000      -0.424368       -11.5476
  59   2.0000      -0.423269       -11.5177
  60   2.0000      -0.419754       -11.4221
  61   2.0000      -0.417804       -11.3690
  62   2.0000      -0.411790       -11.2054
  63   2.0000      -0.343458        -9.3460
  64   2.0000      -0.334824        -9.1110
  65   2.0000      -0.327191        -8.9033
  66   2.0000      -0.294091        -8.0026
  67   0.0000       0.032243         0.8774
  68   0.0000       0.070195         1.9101
  69   0.0000       0.119967         3.2645
  70   0.0000       0.125425         3.4130
  71   0.0000       0.135168         3.6781

MULLIKEN ATOMIC CHARGES
-----------------------
   0 S :    0.129375
   1 C :   -0.147590
   2 C :   -0.068903
   3 C :    0.008242
   4 C :   -0.163058
   5 H :    0.023228
   6 C :    0.088461
   7 H :    0.009309
   8 H :    0.005935
   9 C :   -0.109661
  10 H :    0.035393
  11 H :    0.032479
  12 C :   -0.003283
  13 H :    0.014574
  14 H :    0.026475
  15 H :    0.038985
  16 S :    0.140182
  17 C :   -0.087047
  18 C :   -0.017553
  19 C :   -0.050949
  20 C :   -0.167847
  21 H :    0.007230
  22 C :    0.069141
  23 H :    0.026896
  24 H :    0.041332
  25 C :   -0.110393
  26 H :    0.028187
  27 H :    0.026217
  28 C :   -0.033409
  29 H :    0.048251
  30 H :    0.015771
  31 H :    0.024516
  32 H :    0.066840
  33 H :    0.052675
Sum of atomic charges:    0.0000000

LOEWDIN ATOMIC CHARGES
----------------------
   0 S :    0.442965
   1 C :   -0.207154
   2 C :   -0.065913
   3 C :   -0.068289
   4 C :   -0.230312
   5 H :    0.034738
   6 C :   -0.029807
   7 H :    0.023603
   8 H :    0.024387
   9 C :   -0.042894
  10 H :    0.027899
  11 H :    0.024368
  12 C :   -0.058570
  13 H :    0.023560
  14 H :    0.027302
  15 H :    0.025679
  16 S :    0.471794
  17 C :   -0.208174
  18 C :   -0.073089
  19 C :   -0.049645
  20 C :   -0.223800
  21 H :    0.026800
  22 C :   -0.039132
  23 H :    0.027297
  24 H :    0.035077
  25 C :   -0.042447
  26 H :    0.024778
  27 H :    0.022061
  28 C :   -0.068458
  29 H :    0.027459
  30 H :    0.019201
  31 H :    0.030709
  32 H :    0.041455
  33 H :    0.026555

  Mayer bond orders larger than 0.100000
B(  0-S ,  1-C ) :   1.1701 B(  0-S ,  4-C ) :   1.1750 B(  1-C ,  2-C ) :   1.5409
B(  1-C ,  4-C ) :   0.1072 B(  1-C , 32-H ) :   0.9641 B(  2-C ,  3-C ) :   1.3216
B(  2-C ,  6-C ) :   1.0181 B(  3-C ,  4-C ) :   1.5134 B(  3-C ,  5-H ) :   0.9863
B(  4-C , 20-C ) :   1.0329 B(  6-C ,  7-H ) :   0.9396 B(  6-C ,  8-H ) :   0.9384
B(  6-C ,  9-C ) :   1.0650 B(  9-C , 10-H ) :   0.9558 B(  9-C , 11-H ) :   0.9557
B(  9-C , 12-C ) :   1.0800 B( 12-C , 13-H ) :   0.9703 B( 12-C , 14-H ) :   0.9708
B( 12-C , 15-H ) :   0.9763 B( 16-S , 17-C ) :   1.2136 B( 16-S , 20-C ) :   1.1890
B( 17-C , 18-C ) :   1.5130 B( 17-C , 20-C ) :   0.1062 B( 17-C , 33-H ) :   0.9721
B( 18-C , 19-C ) :   1.3249 B( 18-C , 21-H ) :   0.9980 B( 19-C , 20-C ) :   1.4904
B( 19-C , 22-C ) :   1.0497 B( 22-C , 23-H ) :   0.9351 B( 22-C , 24-H ) :   0.9372
B( 22-C , 25-C ) :   1.0667 B( 25-C , 26-H ) :   0.9623 B( 25-C , 27-H ) :   0.9544
B( 25-C , 28-C ) :   1.0705 B( 28-C , 29-H ) :   0.9741 B( 28-C , 30-H ) :   0.9735
B( 28-C , 31-H ) :   0.9762

Dispersion correction           -0.013957682
FINAL SINGLE POINT ENERGY     -1339.878205786948

DIPOLE MOMENT
-------------
                                X             Y             Z
Electronic contribution:    -18.48942     -11.06972      -5.76263
Nuclear contribution   :     19.07637      11.21567       5.79808
                        -----------------------------------------
Total Dipole Moment    :      0.58696       0.14595       0.03546
                        -----------------------------------------
Magnitude (a.u.)       :      0.60587
Magnitude (Debye)      :      1.54000

Rotational constants in cm-1:     0.019600     0.007260     0.006920
Rotational constants in MHz :   587.581016   217.651690   207.453278

                             ****ORCA TERMINATED NORMALLY****
TOTAL RUN TIME: 0 days 0 hours 0 minutes 21 seconds 236 msec
