                         Program Version 4.2.1 -  RELEASE  -
|  1> ! wB97X-D3 SP def2-SVP
|  2> %pal
|  3> nprocs 24
|  4> end
|  5>
|  6> * xyz 0 1
|  7> S 	 -132.366 	 21.1426 	 -17.9651
|  8> C 	 -131.276 	 19.9054 	 -17.4629
|  9> C 	 -131.195 	 18.8653 	 -18.3738
| 10> C 	 -131.92 	 19.1456 	 -19.5284
| 11> C 	 -132.732 	 20.2738 	 -19.4545
| 12> H 	 -132 	 18.4416 	 -20.3082
| 13> C 	 -130.146 	 17.7541 	 -18.4285
| 14> H 	 -129.419 	 17.8535 	 -17.6662
| 15> H 	 -129.65 	 17.9381 	 -19.3464
| 16> C 	 -130.628 	 16.3607 	 -18.6093
| 17> H 	 -131.426 	 16.3528 	 -19.4172
| 18> H 	 -129.785 	 15.6767 	 -18.9494
| 19> C 	 -131.058 	 15.8977 	 -17.1749
| 20> H 	 -130.185 	 15.7884 	 -16.5309
| 21> H 	 -131.75 	 16.5667 	 -16.6726
| 22> H 	 -131.549 	 14.9103 	 -17.2345
| 23> S 	 -134.051 	 22.4755 	 -20.3488
| 24> C 	 -135.363 	 22.2007 	 -21.5511
| 25> C 	 -135.41 	 20.9127 	 -22.141
| 26> C 	 -134.475 	 20.0255 	 -21.4597
| 27> C 	 -133.73 	 20.714 	 -20.4653
| 28> H 	 -136.104 	 20.7181 	 -22.956
| 29> C 	 -134.495 	 18.5792 	 -21.728
| 30> H 	 -135.554 	 18.4256 	 -21.8035
| 31> H 	 -134.33 	 18.0699 	 -20.7617
| 32> C 	 -133.77 	 17.9162 	 -22.906
| 33> H 	 -132.631 	 18.008 	 -22.873
| 34> H 	 -133.954 	 18.5232 	 -23.7599
| 35> C 	 -134.195 	 16.4984 	 -23.2357
| 36> H 	 -133.98 	 15.7835 	 -22.3784
| 37> H 	 -133.641 	 16.1445 	 -24.0857
| 38> H 	 -135.255 	 16.389 	 -23.4486
| 39> H 	 -130.535 	 19.8944 	 -16.6124
| 40> H 	 -136.025 	 23.0139 	 -21.8315
| 41> *
| 42>
| 43>                          ****END OF INPUT****

CARTESIAN COORDINATES (ANGSTROEM)
---------------------------------
  S    -132.366000   21.142600  -17.965100
  C    -131.276000   19.905400  -17.462900
  C    -131.195000   18.865300  -18.373800
  C    -131.920000   19.145600  -19.528400
  C    -132.732000   20.273800  -19.454500
  H    -132.000000   18.441600  -20.308200
  C    -130.146000   17.754100  -18.428500
  H    -129.419000   17.853500  -17.666200
  H    -129.650000   17.938100  -19.346400
  C    -130.628000   16.360700  -18.609300
  H    -131.426000   16.352800  -19.417200
  H    -129.785000   15.676700  -18.949400
  C    -131.058000   15.897700  -17.174900
  H    -130.185000   15.788400  -16.530900
  H    -131.750000   16.566700  -16.672600
  H    -131.549000   14.910300  -17.234500
  S    -134.051000   22.475500  -20.348800
  C    -135.363000   22.200700  -21.551100
  C    -135.410000   20.912700  -22.141000
  C    -134.475000   20.025500  -21.459700
  C    -133.730000   20.714000  -20.465300
  H    -136.104000   20.718100  -22.956000
  C    -134.495000   18.579200  -21.728000
  H    -135.554000   18.425600  -21.803500
  H    -134.330000   18.069900  -20.761700
  C    -133.770000   17.916200  -22.906000
  H    -132.631000   18.008000  -22.873000
  H    -133.954000   18.523200  -23.759900
  C    -134.195000   16.498400  -23.235700
  H    -133.980000   15.783500  -22.378400
  H    -133.641000   16.144500  -24.085700
  H    -135.255000   16.389000  -23.448600
  H    -130.535000   19.894400  -16.612400
  H    -136.025000   23.013900  -21.831500

 Total Charge           Charge          ....    0
 Multiplicity           Mult            ....    1
 Number of Electrons    NEL             ....  134
 Basis Dimension        Dim             ....  322

ORBITAL ENERGIES
----------------

  NO   OCC          E(Eh)            E(eV)
   0   2.0000     -88.970929     -2421.0221
   1   2.0000     -88.969589     -2420.9856
   2   2.0000     -10.337030      -281.2849
   3   2.0000     -10.332205      -281.1536
   4   2.0000     -10.326233      -280.9911
   5   2.0000     -10.315044      -280.6866
   6   2.0000     -10.313149      -280.6350
   7   2.0000     -10.305688      -280.4320
   8   2.0000     -10.296508      -280.1822
   9   2.0000     -10.294567      -280.1294
  10   2.0000     -10.294331      -280.1230
  11   2.0000     -10.290855      -280.0284
  12   2.0000     -10.285038      -279.8701
  13   2.0000     -10.284324      -279.8507
  14   2.0000     -10.281785      -279.7816
  15   2.0000     -10.276969      -279.6506
  16   2.0000      -8.085353      -220.0137
  17   2.0000      -8.083024      -219.9503
  18   2.0000      -6.043960      -164.4645
  19   2.0000      -6.041483      -164.3971
  20   2.0000      -6.039887      -164.3537
  21   2.0000      -6.038058      -164.3039
  22   2.0000      -6.036047      -164.2492
  23   2.0000      -6.033568      -164.1817
  24   2.0000      -1.003993       -27.3200
  25   2.0000      -0.976661       -26.5763
  26   2.0000      -0.918842       -25.0030
  27   2.0000      -0.912140       -24.8206
  28   2.0000      -0.862776       -23.4773
  29   2.0000      -0.857468       -23.3329
  30   2.0000      -0.847104       -23.0509
  31   2.0000      -0.809511       -22.0279
  32   2.0000      -0.782739       -21.2994
  33   2.0000      -0.771930       -21.0053
  34   2.0000      -0.712214       -19.3803
  35   2.0000      -0.698235       -19.0000
  36   2.0000      -0.689204       -18.7542
  37   2.0000      -0.665065       -18.0973
  38   2.0000      -0.631914       -17.1952
  39   2.0000      -0.628908       -17.1135
  40   2.0000      -0.595439       -16.2027
  41   2.0000      -0.566482       -15.4148
  42   2.0000      -0.559502       -15.2248
  43   2.0000      -0.550099       -14.9690
  44   2.0000      -0.540985       -14.7209
  45   2.0000      -0.532577       -14.4921
  46   2.0000      -0.515491       -14.0272
  47   2.0000      -0.513087       -13.9618
  48   2.0000      -0.499636       -13.5958
  49   2.0000      -0.496326       -13.5057
  50   2.0000      -0.486698       -13.2437
  51   2.0000      -0.478894       -13.0314
  52   2.0000      -0.467598       -12.7240
  53   2.0000      -0.461259       -12.5515
  54   2.0000      -0.457103       -12.4384
  55   2.0000      -0.455189       -12.3863
  56   2.0000      -0.446183       -12.1413
  57   2.0000      -0.442915       -12.0523
  58   2.0000      -0.441970       -12.0266
  59   2.0000      -0.429119       -11.6769
  60   2.0000      -0.422250       -11.4900
  61   2.0000      -0.410988       -11.1836
  62   2.0000      -0.409502       -11.1431
  63   2.0000      -0.352392        -9.5891
  64   2.0000      -0.335946        -9.1416
  65   2.0000      -0.329510        -8.9664
  66   2.0000      -0.279394        -7.6027
  67   0.0000       0.017015         0.4630
  68   0.0000       0.077181         2.1002
  69   0.0000       0.085759         2.3336
  70   0.0000       0.114749         3.1225
  71   0.0000       0.125309         3.4098

MULLIKEN ATOMIC CHARGES
-----------------------
   0 S :    0.120388
   1 C :   -0.127856
   2 C :   -0.081503
   3 C :    0.014304
   4 C :   -0.115053
   5 H :   -0.018540
   6 C :    0.092031
   7 H :    0.000416
   8 H :    0.019590
   9 C :   -0.102931
  10 H :    0.039008
  11 H :    0.043709
  12 C :   -0.060312
  13 H :    0.028707
  14 H :    0.038348
  15 H :    0.032761
  16 S :    0.083838
  17 C :   -0.099035
  18 C :   -0.029081
  19 C :   -0.048696
  20 C :   -0.120382
  21 H :    0.032740
  22 C :    0.035740
  23 H :    0.011569
  24 H :    0.025696
  25 C :   -0.036745
  26 H :    0.037303
  27 H :    0.009503
  28 C :   -0.051061
  29 H :    0.037024
  30 H :    0.035111
  31 H :    0.033060
  32 H :    0.061629
  33 H :    0.058720
Sum of atomic charges:   -0.0000000

LOEWDIN ATOMIC CHARGES
----------------------
   0 S :    0.412727
   1 C :   -0.219036
   2 C :   -0.066199
   3 C :   -0.062141
   4 C :   -0.190245
   5 H :    0.018732
   6 C :   -0.029238
   7 H :    0.020308
   8 H :    0.030936
   9 C :   -0.043467
  10 H :    0.027387
  11 H :    0.032791
  12 C :   -0.068522
  13 H :    0.025014
  14 H :    0.024639
  15 H :    0.024088
  16 S :    0.362145
  17 C :   -0.163465
  18 C :   -0.064481
  19 C :   -0.052539
  20 C :   -0.170785
  21 H :    0.037747
  22 C :   -0.047099
  23 H :    0.034299
  24 H :    0.034937
  25 C :   -0.044942
  26 H :    0.031768
  27 H :    0.020545
  28 C :   -0.064717
  29 H :    0.031005
  30 H :    0.027153
  31 H :    0.024814
  32 H :    0.042439
  33 H :    0.023405

  Mayer bond orders larger than 0.100000
B(  0-S ,  1-C ) :   1.1423 B(  0-S ,  4-C ) :   1.1454 B(  1-C ,  2-C ) :   1.5944
B(  1-C , 32-H ) :   0.9526 B(  2-C ,  3-C ) :   1.2784 B(  2-C ,  6-C ) :   1.0210
B(  3-C ,  4-C ) :   1.5443 B(  3-C ,  5-H ) :   0.9934 B(  4-C , 20-C ) :   1.0724
B(  6-C ,  7-H ) :   0.9429 B(  6-C ,  8-H ) :   0.9354 B(  6-C ,  9-C ) :   1.0702
B(  9-C , 10-H ) :   0.9540 B(  9-C , 11-H ) :   0.9532 B(  9-C , 12-C ) :   1.0623
B( 12-C , 13-H ) :   0.9747 B( 12-C , 14-H ) :   0.9802 B( 12-C , 15-H ) :   0.9754
B( 16-S , 17-C ) :   1.1369 B( 16-S , 20-C ) :   1.1194 B( 17-C , 18-C ) :   1.6385
B( 17-C , 33-H ) :   0.9669 B( 18-C , 19-C ) :   1.2014 B( 18-C , 21-H ) :   0.9869
B( 19-C , 20-C ) :   1.6020 B( 19-C , 22-C ) :   1.0452 B( 22-C , 23-H ) :   0.9263
B( 22-C , 24-H ) :   0.9270 B( 22-C , 25-C ) :   1.0517 B( 25-C , 26-H ) :   0.9497
B( 25-C , 27-H ) :   0.9452 B( 25-C , 28-C ) :   1.0881 B( 28-C , 29-H ) :   0.9750
B( 28-C , 30-H ) :   0.9721 B( 28-C , 31-H ) :   0.9737

Dispersion correction           -0.014031530
FINAL SINGLE POINT ENERGY     -1339.860391798448

DIPOLE MOMENT
-------------
                                X             Y             Z
Electronic contribution:     -4.99992      31.35695       6.98556
Nuclear contribution   :      5.03356     -31.95667      -7.42453
                        -----------------------------------------
Total Dipole Moment    :      0.03364      -0.59973      -0.43898
                        -----------------------------------------
Magnitude (a.u.)       :      0.74398
Magnitude (Debye)      :      1.89105

Rotational constants in cm-1:     0.016168     0.010037     0.006469
Rotational constants in MHz :   484.710247   300.908933   193.938634

                             ****ORCA TERMINATED NORMALLY****
TOTAL RUN TIME: 0 days 0 hours 0 minutes 21 seconds 799 msec
