                         Program Version 4.2.1 -  RELEASE  -
|  1> ! wB97X-D3 SP def2-SVP
|  2> %pal
|  3> nprocs 24
|  4> end
|  5>
|  6> * xyz 0 1
|  7> S 	 -35.3953 	 3.49055 	 16.7704
|  8> C 	 -34.5367 	 4.99583 	 17.2034
|  9> C 	 -35.4036 	 6.05931 	 17.123
| 10> C 	 -36.7588 	 5.66848 	 16.7461
| 11> C 	 -36.8954 	 4.31029 	 16.5165
| 12> H 	 -37.6037 	 6.29634 	 16.6965
| 13> C 	 -34.9991 	 7.49264 	 17.1438
| 14> H 	 -34.0998 	 7.582 	 17.8961
| 15> H 	 -35.7749 	 8.10113 	 17.5801
| 16> C 	 -34.4674 	 8.12414 	 15.8067
| 17> H 	 -34.0276 	 9.10783 	 15.9529
| 18> H 	 -33.6657 	 7.54621 	 15.3734
| 19> C 	 -35.5093 	 8.41273 	 14.6826
| 20> H 	 -36.3399 	 9.13025 	 14.8954
| 21> H 	 -34.9572 	 8.78723 	 13.8601
| 22> H 	 -35.9311 	 7.48796 	 14.3335
| 23> S 	 -39.5561 	 3.75205 	 16.9092
| 24> C 	 -40.4038 	 2.64716 	 15.8977
| 25> C 	 -39.5846 	 2.17182 	 14.9109
| 26> C 	 -38.2382 	 2.70434 	 14.9311
| 27> C 	 -38.0958 	 3.59149 	 15.9866
| 28> H 	 -39.9936 	 1.40555 	 14.2493
| 29> C 	 -37.0738 	 2.28272 	 13.9759
| 30> H 	 -36.5602 	 1.51238 	 14.5494
| 31> H 	 -36.3851 	 3.11573 	 13.9612
| 32> C 	 -37.4014 	 1.91383 	 12.5488
| 33> H 	 -37.6507 	 2.88604 	 12.1369
| 34> H 	 -38.2821 	 1.24232 	 12.4479
| 35> C 	 -36.1839 	 1.32334 	 11.7817
| 36> H 	 -35.3993 	 2.03373 	 11.7785
| 37> H 	 -36.3168 	 1.04995 	 10.6636
| 38> H 	 -35.8301 	 0.36799 	 12.2205
| 39> H 	 -33.4542 	 5.15065 	 17.1779
| 40> H 	 -41.4369 	 2.4251 	 16.0948
| 41> *
| 42>
| 43>                          ****END OF INPUT****

CARTESIAN COORDINATES (ANGSTROEM)
---------------------------------
  S    -35.395300    3.490550   16.770400
  C    -34.536700    4.995830   17.203400
  C    -35.403600    6.059310   17.123000
  C    -36.758800    5.668480   16.746100
  C    -36.895400    4.310290   16.516500
  H    -37.603700    6.296340   16.696500
  C    -34.999100    7.492640   17.143800
  H    -34.099800    7.582000   17.896100
  H    -35.774900    8.101130   17.580100
  C    -34.467400    8.124140   15.806700
  H    -34.027600    9.107830   15.952900
  H    -33.665700    7.546210   15.373400
  C    -35.509300    8.412730   14.682600
  H    -36.339900    9.130250   14.895400
  H    -34.957200    8.787230   13.860100
  H    -35.931100    7.487960   14.333500
  S    -39.556100    3.752050   16.909200
  C    -40.403800    2.647160   15.897700
  C    -39.584600    2.171820   14.910900
  C    -38.238200    2.704340   14.931100
  C    -38.095800    3.591490   15.986600
  H    -39.993600    1.405550   14.249300
  C    -37.073800    2.282720   13.975900
  H    -36.560200    1.512380   14.549400
  H    -36.385100    3.115730   13.961200
  C    -37.401400    1.913830   12.548800
  H    -37.650700    2.886040   12.136900
  H    -38.282100    1.242320   12.447900
  C    -36.183900    1.323340   11.781700
  H    -35.399300    2.033730   11.778500
  H    -36.316800    1.049950   10.663600
  H    -35.830100    0.367990   12.220500
  H    -33.454200    5.150650   17.177900
  H    -41.436900    2.425100   16.094800

 Total Charge           Charge          ....    0
 Multiplicity           Mult            ....    1
 Number of Electrons    NEL             ....  134
 Basis Dimension        Dim             ....  322

ORBITAL ENERGIES
----------------

  NO   OCC          E(Eh)            E(eV)
   0   2.0000     -88.966932     -2420.9133
   1   2.0000     -88.963253     -2420.8132
   2   2.0000     -10.332818      -281.1703
   3   2.0000     -10.327724      -281.0316
   4   2.0000     -10.315989      -280.7123
   5   2.0000     -10.314982      -280.6849
   6   2.0000     -10.310438      -280.5613
   7   2.0000     -10.303233      -280.3652
   8   2.0000     -10.300526      -280.2916
   9   2.0000     -10.296738      -280.1885
  10   2.0000     -10.293347      -280.0962
  11   2.0000     -10.293317      -280.0954
  12   2.0000     -10.291263      -280.0395
  13   2.0000     -10.290852      -280.0283
  14   2.0000     -10.285969      -279.8954
  15   2.0000     -10.274056      -279.5713
  16   2.0000      -8.081049      -219.8965
  17   2.0000      -8.079035      -219.8417
  18   2.0000      -6.039725      -164.3493
  19   2.0000      -6.037394      -164.2858
  20   2.0000      -6.035531      -164.2351
  21   2.0000      -6.033331      -164.1753
  22   2.0000      -6.031781      -164.1331
  23   2.0000      -6.029959      -164.0835
  24   2.0000      -1.007343       -27.4112
  25   2.0000      -0.985032       -26.8041
  26   2.0000      -0.909367       -24.7451
  27   2.0000      -0.905393       -24.6370
  28   2.0000      -0.866635       -23.5823
  29   2.0000      -0.848893       -23.0995
  30   2.0000      -0.843186       -22.9443
  31   2.0000      -0.816079       -22.2066
  32   2.0000      -0.782612       -21.2959
  33   2.0000      -0.774013       -21.0620
  34   2.0000      -0.706304       -19.2195
  35   2.0000      -0.701993       -19.1022
  36   2.0000      -0.695684       -18.9305
  37   2.0000      -0.655895       -17.8478
  38   2.0000      -0.637479       -17.3467
  39   2.0000      -0.612794       -16.6750
  40   2.0000      -0.598018       -16.2729
  41   2.0000      -0.573420       -15.6036
  42   2.0000      -0.569415       -15.4946
  43   2.0000      -0.545062       -14.8319
  44   2.0000      -0.536084       -14.5876
  45   2.0000      -0.523495       -14.2450
  46   2.0000      -0.513938       -13.9850
  47   2.0000      -0.512787       -13.9537
  48   2.0000      -0.508538       -13.8380
  49   2.0000      -0.493486       -13.4284
  50   2.0000      -0.488709       -13.2985
  51   2.0000      -0.481529       -13.1031
  52   2.0000      -0.469347       -12.7716
  53   2.0000      -0.466030       -12.6813
  54   2.0000      -0.462722       -12.5913
  55   2.0000      -0.450098       -12.2478
  56   2.0000      -0.442334       -12.0365
  57   2.0000      -0.437422       -11.9029
  58   2.0000      -0.429768       -11.6946
  59   2.0000      -0.426166       -11.5966
  60   2.0000      -0.419341       -11.4109
  61   2.0000      -0.419064       -11.4033
  62   2.0000      -0.411493       -11.1973
  63   2.0000      -0.344874        -9.3845
  64   2.0000      -0.331391        -9.0176
  65   2.0000      -0.327295        -8.9061
  66   2.0000      -0.300639        -8.1808
  67   0.0000       0.031706         0.8628
  68   0.0000       0.074586         2.0296
  69   0.0000       0.112571         3.0632
  70   0.0000       0.119859         3.2615
  71   0.0000       0.129608         3.5268

MULLIKEN ATOMIC CHARGES
-----------------------
   0 S :    0.099538
   1 C :   -0.117890
   2 C :   -0.078919
   3 C :    0.048100
   4 C :   -0.147916
   5 H :   -0.004056
   6 C :    0.022414
   7 H :    0.039882
   8 H :    0.027557
   9 C :   -0.054668
  10 H :    0.027674
  11 H :    0.020516
  12 C :   -0.055822
  13 H :    0.039821
  14 H :    0.020468
  15 H :    0.029779
  16 S :    0.108749
  17 C :   -0.095245
  18 C :   -0.046978
  19 C :   -0.038373
  20 C :   -0.164141
  21 H :    0.025208
  22 C :    0.070068
  23 H :    0.038027
  24 H :    0.027873
  25 C :   -0.069547
  26 H :    0.033606
  27 H :    0.040842
  28 C :   -0.067840
  29 H :    0.023752
  30 H :    0.044799
  31 H :    0.036132
  32 H :    0.058816
  33 H :    0.057778
Sum of atomic charges:   -0.0000000

LOEWDIN ATOMIC CHARGES
----------------------
   0 S :    0.405895
   1 C :   -0.195537
   2 C :   -0.063404
   3 C :   -0.061747
   4 C :   -0.194502
   5 H :    0.022452
   6 C :   -0.039823
   7 H :    0.043074
   8 H :    0.028219
   9 C :   -0.035709
  10 H :    0.025112
  11 H :    0.022474
  12 C :   -0.068246
  13 H :    0.028677
  14 H :    0.021911
  15 H :    0.020364
  16 S :    0.423885
  17 C :   -0.189130
  18 C :   -0.076761
  19 C :   -0.051963
  20 C :   -0.207765
  21 H :    0.033294
  22 C :   -0.033082
  23 H :    0.029616
  24 H :    0.027716
  25 C :   -0.042682
  26 H :    0.028886
  27 H :    0.025005
  28 C :   -0.070092
  29 H :    0.017582
  30 H :    0.036757
  31 H :    0.027086
  32 H :    0.034612
  33 H :    0.027827

  Mayer bond orders larger than 0.100000
B(  0-S ,  1-C ) :   1.1178 B(  0-S ,  4-C ) :   1.1585 B(  1-C ,  2-C ) :   1.6347
B(  1-C , 32-H ) :   0.9624 B(  2-C ,  3-C ) :   1.2161 B(  2-C ,  6-C ) :   1.0432
B(  3-C ,  4-C ) :   1.5872 B(  3-C ,  5-H ) :   1.0009 B(  4-C , 20-C ) :   0.9859
B(  6-C ,  7-H ) :   0.9408 B(  6-C ,  8-H ) :   0.9411 B(  6-C ,  9-C ) :   1.0598
B(  9-C , 10-H ) :   0.9580 B(  9-C , 11-H ) :   0.9558 B(  9-C , 12-C ) :   1.0802
B( 12-C , 13-H ) :   0.9771 B( 12-C , 14-H ) :   0.9713 B( 12-C , 15-H ) :   0.9752
B( 16-S , 17-C ) :   1.1642 B( 16-S , 20-C ) :   1.1632 B( 17-C , 18-C ) :   1.6010
B( 17-C , 33-H ) :   0.9718 B( 18-C , 19-C ) :   1.2313 B( 18-C , 21-H ) :   0.9916
B( 19-C , 20-C ) :   1.6028 B( 19-C , 22-C ) :   1.0170 B( 22-C , 23-H ) :   0.9355
B( 22-C , 24-H ) :   0.9341 B( 22-C , 25-C ) :   1.0536 B( 25-C , 26-H ) :   0.9579
B( 25-C , 27-H ) :   0.9587 B( 25-C , 28-C ) :   1.0762 B( 28-C , 29-H ) :   0.9751
B( 28-C , 30-H ) :   0.9758 B( 28-C , 31-H ) :   0.9766

Dispersion correction           -0.014130566
FINAL SINGLE POINT ENERGY     -1339.885570739327

DIPOLE MOMENT
-------------
                                X             Y             Z
Electronic contribution:    -10.68567      -8.37766      18.86317
Nuclear contribution   :     10.79983       8.56875     -19.35455
                        -----------------------------------------
Total Dipole Moment    :      0.11416       0.19109      -0.49138
                        -----------------------------------------
Magnitude (a.u.)       :      0.53945
Magnitude (Debye)      :      1.37117

Rotational constants in cm-1:     0.017029     0.008513     0.007107
Rotational constants in MHz :   510.518633   255.214609   213.069708

                             ****ORCA TERMINATED NORMALLY****
TOTAL RUN TIME: 0 days 0 hours 0 minutes 21 seconds 181 msec
