                         Program Version 4.2.1 -  RELEASE  -
|  1> ! wB97X-D3 SP def2-SVP
|  2> %pal
|  3> nprocs 24
|  4> end
|  5>
|  6> * xyz 0 1
|  7> S 	 -55.3851 	 12.9875 	 25.6403
|  8> C 	 -54.2206 	 11.7873 	 25.2282
|  9> C 	 -53.5476 	 12.1572 	 24.0577
| 10> C 	 -53.9534 	 13.4309 	 23.5948
| 11> C 	 -54.9376 	 14.0312 	 24.3103
| 12> H 	 -53.5375 	 13.9488 	 22.6782
| 13> C 	 -52.3225 	 11.4791 	 23.5189
| 14> H 	 -51.7369 	 11.0418 	 24.3472
| 15> H 	 -51.5998 	 12.2548 	 23.3713
| 16> C 	 -52.4425 	 10.4644 	 22.335
| 17> H 	 -51.3947 	 10.0977 	 22.0947
| 18> H 	 -52.8922 	 9.52242 	 22.529
| 19> C 	 -53.0978 	 10.9639 	 21.0486
| 20> H 	 -53.2007 	 10.0992 	 20.3401
| 21> H 	 -54.1298 	 11.3115 	 21.213
| 22> H 	 -52.4253 	 11.7239 	 20.6219
| 23> S 	 -57.2204 	 15.6036 	 24.0057
| 24> C 	 -56.9816 	 17.2162 	 23.4865
| 25> C 	 -55.6447 	 17.6416 	 23.4224
| 26> C 	 -54.7908 	 16.5654 	 23.7332
| 27> C 	 -55.4647 	 15.4074 	 24.0923
| 28> H 	 -55.5084 	 18.6657 	 23.1031
| 29> C 	 -53.3053 	 16.7832 	 23.6821
| 30> H 	 -52.6888 	 16.0249 	 24.2004
| 31> H 	 -53.0572 	 17.6976 	 24.2726
| 32> C 	 -52.5944 	 16.9179 	 22.3308
| 33> H 	 -53.015 	 17.6877 	 21.6333
| 34> H 	 -52.706 	 15.9481 	 21.7399
| 35> C 	 -51.1584 	 17.2083 	 22.6175
| 36> H 	 -50.7599 	 16.3955 	 23.1079
| 37> H 	 -51.1411 	 18.1638 	 23.1585
| 38> H 	 -50.6569 	 17.4513 	 21.6561
| 39> H 	 -54.0759 	 10.8213 	 25.7333
| 40> H 	 -57.7857 	 17.9519 	 23.3617
| 41> *
| 42>
| 43>                          ****END OF INPUT****

CARTESIAN COORDINATES (ANGSTROEM)
---------------------------------
  S    -55.385100   12.987500   25.640300
  C    -54.220600   11.787300   25.228200
  C    -53.547600   12.157200   24.057700
  C    -53.953400   13.430900   23.594800
  C    -54.937600   14.031200   24.310300
  H    -53.537500   13.948800   22.678200
  C    -52.322500   11.479100   23.518900
  H    -51.736900   11.041800   24.347200
  H    -51.599800   12.254800   23.371300
  C    -52.442500   10.464400   22.335000
  H    -51.394700   10.097700   22.094700
  H    -52.892200    9.522420   22.529000
  C    -53.097800   10.963900   21.048600
  H    -53.200700   10.099200   20.340100
  H    -54.129800   11.311500   21.213000
  H    -52.425300   11.723900   20.621900
  S    -57.220400   15.603600   24.005700
  C    -56.981600   17.216200   23.486500
  C    -55.644700   17.641600   23.422400
  C    -54.790800   16.565400   23.733200
  C    -55.464700   15.407400   24.092300
  H    -55.508400   18.665700   23.103100
  C    -53.305300   16.783200   23.682100
  H    -52.688800   16.024900   24.200400
  H    -53.057200   17.697600   24.272600
  C    -52.594400   16.917900   22.330800
  H    -53.015000   17.687700   21.633300
  H    -52.706000   15.948100   21.739900
  C    -51.158400   17.208300   22.617500
  H    -50.759900   16.395500   23.107900
  H    -51.141100   18.163800   23.158500
  H    -50.656900   17.451300   21.656100
  H    -54.075900   10.821300   25.733300
  H    -57.785700   17.951900   23.361700

 Total Charge           Charge          ....    0
 Multiplicity           Mult            ....    1
 Number of Electrons    NEL             ....  134
 Basis Dimension        Dim             ....  322

ORBITAL ENERGIES
----------------

  NO   OCC          E(Eh)            E(eV)
   0   2.0000     -88.969590     -2420.9856
   1   2.0000     -88.965508     -2420.8745
   2   2.0000     -10.329432      -281.0781
   3   2.0000     -10.326391      -280.9954
   4   2.0000     -10.316942      -280.7383
   5   2.0000     -10.316040      -280.7137
   6   2.0000     -10.305548      -280.4282
   7   2.0000     -10.298260      -280.2299
   8   2.0000     -10.294158      -280.1183
   9   2.0000     -10.292966      -280.0858
  10   2.0000     -10.292092      -280.0621
  11   2.0000     -10.291528      -280.0467
  12   2.0000     -10.291080      -280.0345
  13   2.0000     -10.289113      -279.9810
  14   2.0000     -10.280432      -279.7448
  15   2.0000     -10.274355      -279.5794
  16   2.0000      -8.084674      -219.9952
  17   2.0000      -8.080686      -219.8866
  18   2.0000      -6.042984      -164.4380
  19   2.0000      -6.039201      -164.3350
  20   2.0000      -6.039127      -164.3330
  21   2.0000      -6.035570      -164.2362
  22   2.0000      -6.035058      -164.2223
  23   2.0000      -6.031562      -164.1271
  24   2.0000      -1.008564       -27.4444
  25   2.0000      -0.988977       -26.9114
  26   2.0000      -0.917949       -24.9787
  27   2.0000      -0.905473       -24.6392
  28   2.0000      -0.865717       -23.5573
  29   2.0000      -0.861649       -23.4467
  30   2.0000      -0.848112       -23.0783
  31   2.0000      -0.813992       -22.1498
  32   2.0000      -0.782539       -21.2940
  33   2.0000      -0.769627       -20.9426
  34   2.0000      -0.699374       -19.0309
  35   2.0000      -0.698689       -19.0123
  36   2.0000      -0.689319       -18.7573
  37   2.0000      -0.661019       -17.9873
  38   2.0000      -0.638132       -17.3644
  39   2.0000      -0.619760       -16.8645
  40   2.0000      -0.601765       -16.3749
  41   2.0000      -0.573758       -15.6128
  42   2.0000      -0.571379       -15.5480
  43   2.0000      -0.547099       -14.8873
  44   2.0000      -0.540575       -14.7098
  45   2.0000      -0.522390       -14.2150
  46   2.0000      -0.513777       -13.9806
  47   2.0000      -0.512902       -13.9568
  48   2.0000      -0.503477       -13.7003
  49   2.0000      -0.498409       -13.5624
  50   2.0000      -0.485685       -13.2162
  51   2.0000      -0.474304       -12.9065
  52   2.0000      -0.472779       -12.8650
  53   2.0000      -0.463534       -12.6134
  54   2.0000      -0.461963       -12.5706
  55   2.0000      -0.450827       -12.2676
  56   2.0000      -0.440353       -11.9826
  57   2.0000      -0.436858       -11.8875
  58   2.0000      -0.432900       -11.7798
  59   2.0000      -0.425015       -11.5652
  60   2.0000      -0.423321       -11.5192
  61   2.0000      -0.415173       -11.2974
  62   2.0000      -0.403178       -10.9710
  63   2.0000      -0.347397        -9.4531
  64   2.0000      -0.335988        -9.1427
  65   2.0000      -0.330589        -8.9958
  66   2.0000      -0.291686        -7.9372
  67   0.0000       0.033446         0.9101
  68   0.0000       0.069612         1.8943
  69   0.0000       0.112530         3.0621
  70   0.0000       0.118037         3.2119
  71   0.0000       0.122499         3.3334

MULLIKEN ATOMIC CHARGES
-----------------------
   0 S :    0.111681
   1 C :   -0.123247
   2 C :   -0.081338
   3 C :   -0.006750
   4 C :   -0.130182
   5 H :    0.024526
   6 C :    0.057812
   7 H :    0.016034
   8 H :    0.013222
   9 C :   -0.054627
  10 H :    0.022979
  11 H :    0.016492
  12 C :   -0.076891
  13 H :    0.037503
  14 H :    0.051264
  15 H :    0.036056
  16 S :    0.122771
  17 C :   -0.103854
  18 C :   -0.048005
  19 C :    0.037402
  20 C :   -0.147937
  21 H :    0.022003
  22 C :   -0.005328
  23 H :    0.022385
  24 H :    0.029060
  25 C :   -0.109841
  26 H :    0.029957
  27 H :    0.032582
  28 C :   -0.004364
  29 H :    0.024299
  30 H :    0.028772
  31 H :    0.034527
  32 H :    0.062399
  33 H :    0.058637
Sum of atomic charges:    0.0000000

LOEWDIN ATOMIC CHARGES
----------------------
   0 S :    0.416383
   1 C :   -0.204430
   2 C :   -0.074007
   3 C :   -0.072308
   4 C :   -0.200607
   5 H :    0.039931
   6 C :   -0.042037
   7 H :    0.037220
   8 H :    0.030914
   9 C :   -0.044408
  10 H :    0.029366
  11 H :    0.017336
  12 C :   -0.071411
  13 H :    0.031992
  14 H :    0.028726
  15 H :    0.024463
  16 S :    0.420394
  17 C :   -0.194711
  18 C :   -0.070717
  19 C :   -0.053270
  20 C :   -0.193941
  21 H :    0.036109
  22 C :   -0.042408
  23 H :    0.031319
  24 H :    0.035344
  25 C :   -0.046602
  26 H :    0.022692
  27 H :    0.023322
  28 C :   -0.056057
  29 H :    0.014552
  30 H :    0.028924
  31 H :    0.031763
  32 H :    0.036897
  33 H :    0.029268

  Mayer bond orders larger than 0.100000
B(  0-S ,  1-C ) :   1.1574 B(  0-S ,  4-C ) :   1.1547 B(  1-C ,  2-C ) :   1.5859
B(  1-C , 32-H ) :   0.9654 B(  2-C ,  3-C ) :   1.2607 B(  2-C ,  6-C ) :   1.0112
B(  3-C ,  4-C ) :   1.5758 B(  3-C ,  5-H ) :   0.9862 B(  4-C , 20-C ) :   1.0065
B(  6-C ,  7-H ) :   0.9400 B(  6-C ,  8-H ) :   0.9448 B(  6-C ,  9-C ) :   1.0547
B(  9-C , 10-H ) :   0.9518 B(  9-C , 11-H ) :   0.9608 B(  9-C , 12-C ) :   1.0843
B( 12-C , 13-H ) :   0.9731 B( 12-C , 14-H ) :   0.9720 B( 12-C , 15-H ) :   0.9774
B( 16-S , 17-C ) :   1.1808 B( 16-S , 20-C ) :   1.1377 B( 17-C , 18-C ) :   1.6059
B( 17-C , 33-H ) :   0.9595 B( 18-C , 19-C ) :   1.2248 B( 18-C , 21-H ) :   0.9979
B( 19-C , 20-C ) :   1.6049 B( 19-C , 22-C ) :   1.0330 B( 22-C , 23-H ) :   0.9375
B( 22-C , 24-H ) :   0.9378 B( 22-C , 25-C ) :   1.0590 B( 25-C , 26-H ) :   0.9521
B( 25-C , 27-H ) :   0.9464 B( 25-C , 28-C ) :   1.0841 B( 28-C , 29-H ) :   0.9741
B( 28-C , 30-H ) :   0.9709 B( 28-C , 31-H ) :   0.9699

Dispersion correction           -0.014341672
FINAL SINGLE POINT ENERGY     -1339.877159910787

DIPOLE MOMENT
-------------
                                X             Y             Z
Electronic contribution:    -25.38121       2.15496      16.26678
Nuclear contribution   :     25.95199      -1.99247     -16.57807
                        -----------------------------------------
Total Dipole Moment    :      0.57079       0.16248      -0.31129
                        -----------------------------------------
Magnitude (a.u.)       :      0.67015
Magnitude (Debye)      :      1.70339

Rotational constants in cm-1:     0.016263     0.009589     0.007126
Rotational constants in MHz :   487.547939   287.468501   213.621134

                             ****ORCA TERMINATED NORMALLY****
TOTAL RUN TIME: 0 days 0 hours 0 minutes 21 seconds 817 msec
