                         Program Version 4.2.1 -  RELEASE  -
|  1> ! wB97X-D3 SP def2-SVP
|  2> %pal
|  3> nprocs 24
|  4> end
|  5>
|  6> * xyz 0 1
|  7> S 	 -128.864 	 71.8203 	 -41.2514
|  8> C 	 -129.842 	 73.1457 	 -40.8495
|  9> C 	 -129.681 	 74.2235 	 -41.7567
| 10> C 	 -128.73 	 73.93 	 -42.7491
| 11> C 	 -128.145 	 72.6739 	 -42.6281
| 12> H 	 -128.386 	 74.5457 	 -43.547
| 13> C 	 -130.454 	 75.5318 	 -41.7988
| 14> H 	 -129.684 	 76.2863 	 -42.0615
| 15> H 	 -130.57 	 75.8903 	 -40.7848
| 16> C 	 -131.735 	 75.5963 	 -42.7048
| 17> H 	 -132.506 	 74.9371 	 -42.2172
| 18> H 	 -132.139 	 76.6401 	 -42.5978
| 19> C 	 -131.413 	 75.3158 	 -44.1821
| 20> H 	 -130.713 	 75.9853 	 -44.6909
| 21> H 	 -131.048 	 74.3055 	 -44.288
| 22> H 	 -132.297 	 75.2589 	 -44.6801
| 23> S 	 -126.548 	 70.4846 	 -42.9235
| 24> C 	 -125.009 	 70.6115 	 -43.7262
| 25> C 	 -124.926 	 71.812 	 -44.5092
| 26> C 	 -126.171 	 72.5943 	 -44.4051
| 27> C 	 -127.028 	 72.1226 	 -43.4268
| 28> H 	 -124.062 	 71.9257 	 -45.1658
| 29> C 	 -126.387 	 73.8258 	 -45.2908
| 30> H 	 -127.491 	 74.0536 	 -45.3624
| 31> H 	 -126.177 	 73.4166 	 -46.3126
| 32> C 	 -125.413 	 74.9991 	 -44.9067
| 33> H 	 -124.378 	 74.7852 	 -45.1778
| 34> H 	 -125.607 	 75.023 	 -43.8598
| 35> C 	 -125.937 	 76.3361 	 -45.5632
| 36> H 	 -126.911 	 76.6943 	 -45.2317
| 37> H 	 -125.989 	 76.1883 	 -46.6467
| 38> H 	 -125.265 	 77.1229 	 -45.2808
| 39> H 	 -130.681 	 73.1775 	 -40.1525
| 40> H 	 -124.293 	 69.8401 	 -43.6256
| 41> *
| 42>
| 43>                          ****END OF INPUT****

CARTESIAN COORDINATES (ANGSTROEM)
---------------------------------
  S    -128.864000   71.820300  -41.251400
  C    -129.842000   73.145700  -40.849500
  C    -129.681000   74.223500  -41.756700
  C    -128.730000   73.930000  -42.749100
  C    -128.145000   72.673900  -42.628100
  H    -128.386000   74.545700  -43.547000
  C    -130.454000   75.531800  -41.798800
  H    -129.684000   76.286300  -42.061500
  H    -130.570000   75.890300  -40.784800
  C    -131.735000   75.596300  -42.704800
  H    -132.506000   74.937100  -42.217200
  H    -132.139000   76.640100  -42.597800
  C    -131.413000   75.315800  -44.182100
  H    -130.713000   75.985300  -44.690900
  H    -131.048000   74.305500  -44.288000
  H    -132.297000   75.258900  -44.680100
  S    -126.548000   70.484600  -42.923500
  C    -125.009000   70.611500  -43.726200
  C    -124.926000   71.812000  -44.509200
  C    -126.171000   72.594300  -44.405100
  C    -127.028000   72.122600  -43.426800
  H    -124.062000   71.925700  -45.165800
  C    -126.387000   73.825800  -45.290800
  H    -127.491000   74.053600  -45.362400
  H    -126.177000   73.416600  -46.312600
  C    -125.413000   74.999100  -44.906700
  H    -124.378000   74.785200  -45.177800
  H    -125.607000   75.023000  -43.859800
  C    -125.937000   76.336100  -45.563200
  H    -126.911000   76.694300  -45.231700
  H    -125.989000   76.188300  -46.646700
  H    -125.265000   77.122900  -45.280800
  H    -130.681000   73.177500  -40.152500
  H    -124.293000   69.840100  -43.625600

 Total Charge           Charge          ....    0
 Multiplicity           Mult            ....    1
 Number of Electrons    NEL             ....  134
 Basis Dimension        Dim             ....  322

ORBITAL ENERGIES
----------------

  NO   OCC          E(Eh)            E(eV)
   0   2.0000     -88.970775     -2421.0179
   1   2.0000     -88.961748     -2420.7722
   2   2.0000     -10.333019      -281.1757
   3   2.0000     -10.332039      -281.1491
   4   2.0000     -10.321676      -280.8671
   5   2.0000     -10.312397      -280.6146
   6   2.0000     -10.311218      -280.5825
   7   2.0000     -10.306161      -280.4449
   8   2.0000     -10.303057      -280.3604
   9   2.0000     -10.300063      -280.2789
  10   2.0000     -10.299326      -280.2589
  11   2.0000     -10.294348      -280.1235
  12   2.0000     -10.291359      -280.0421
  13   2.0000     -10.287847      -279.9465
  14   2.0000     -10.282332      -279.7965
  15   2.0000     -10.270797      -279.4826
  16   2.0000      -8.085383      -220.0145
  17   2.0000      -8.076700      -219.7782
  18   2.0000      -6.043897      -164.4628
  19   2.0000      -6.039808      -164.3515
  20   2.0000      -6.036246      -164.2546
  21   2.0000      -6.035223      -164.2268
  22   2.0000      -6.031265      -164.1191
  23   2.0000      -6.027369      -164.0130
  24   2.0000      -1.003919       -27.3180
  25   2.0000      -0.979195       -26.6453
  26   2.0000      -0.905983       -24.6531
  27   2.0000      -0.903124       -24.5752
  28   2.0000      -0.864085       -23.5129
  29   2.0000      -0.853056       -23.2128
  30   2.0000      -0.843464       -22.9518
  31   2.0000      -0.812167       -22.1002
  32   2.0000      -0.780854       -21.2481
  33   2.0000      -0.771525       -20.9943
  34   2.0000      -0.708223       -19.2717
  35   2.0000      -0.704382       -19.1672
  36   2.0000      -0.692421       -18.8417
  37   2.0000      -0.666759       -18.1434
  38   2.0000      -0.638547       -17.3757
  39   2.0000      -0.615726       -16.7548
  40   2.0000      -0.588673       -16.0186
  41   2.0000      -0.568781       -15.4773
  42   2.0000      -0.566128       -15.4051
  43   2.0000      -0.547278       -14.8922
  44   2.0000      -0.541458       -14.7338
  45   2.0000      -0.526707       -14.3324
  46   2.0000      -0.516076       -14.0431
  47   2.0000      -0.508020       -13.8239
  48   2.0000      -0.505750       -13.7622
  49   2.0000      -0.491289       -13.3686
  50   2.0000      -0.486764       -13.2455
  51   2.0000      -0.479993       -13.0613
  52   2.0000      -0.475941       -12.9510
  53   2.0000      -0.465410       -12.6644
  54   2.0000      -0.461145       -12.5484
  55   2.0000      -0.449729       -12.2378
  56   2.0000      -0.443449       -12.0669
  57   2.0000      -0.438260       -11.9257
  58   2.0000      -0.433117       -11.7857
  59   2.0000      -0.425545       -11.5797
  60   2.0000      -0.422935       -11.5086
  61   2.0000      -0.415658       -11.3106
  62   2.0000      -0.407343       -11.0844
  63   2.0000      -0.361448        -9.8355
  64   2.0000      -0.334767        -9.1095
  65   2.0000      -0.323236        -8.7957
  66   2.0000      -0.274948        -7.4817
  67   0.0000       0.016950         0.4612
  68   0.0000       0.083838         2.2814
  69   0.0000       0.088907         2.4193
  70   0.0000       0.109511         2.9799
  71   0.0000       0.131361         3.5745

MULLIKEN ATOMIC CHARGES
-----------------------
   0 S :    0.125258
   1 C :   -0.098652
   2 C :   -0.115936
   3 C :    0.002585
   4 C :   -0.099091
   5 H :   -0.021242
   6 C :    0.046616
   7 H :    0.018878
   8 H :    0.013053
   9 C :   -0.072303
  10 H :    0.041303
  11 H :    0.037840
  12 C :   -0.006548
  13 H :    0.036528
  14 H :    0.034627
  15 H :    0.009233
  16 S :    0.074347
  17 C :   -0.088242
  18 C :   -0.034760
  19 C :   -0.085880
  20 C :   -0.105710
  21 H :    0.032318
  22 C :   -0.015545
  23 H :    0.046285
  24 H :    0.036585
  25 C :   -0.052211
  26 H :    0.048206
  27 H :    0.038403
  28 C :   -0.047136
  29 H :    0.028082
  30 H :    0.036371
  31 H :    0.034321
  32 H :    0.049587
  33 H :    0.052830
Sum of atomic charges:   -0.0000000

LOEWDIN ATOMIC CHARGES
----------------------
   0 S :    0.425745
   1 C :   -0.222357
   2 C :   -0.065927
   3 C :   -0.067185
   4 C :   -0.185655
   5 H :    0.022490
   6 C :   -0.047071
   7 H :    0.033335
   8 H :    0.027477
   9 C :   -0.035590
  10 H :    0.031430
  11 H :    0.029045
  12 C :   -0.061587
  13 H :    0.028837
  14 H :    0.029433
  15 H :    0.015561
  16 S :    0.385602
  17 C :   -0.175901
  18 C :   -0.071709
  19 C :   -0.060534
  20 C :   -0.182653
  21 H :    0.034159
  22 C :   -0.042298
  23 H :    0.034302
  24 H :    0.035053
  25 C :   -0.028793
  26 H :    0.029625
  27 H :    0.024445
  28 C :   -0.064730
  29 H :    0.023268
  30 H :    0.026359
  31 H :    0.023668
  32 H :    0.032860
  33 H :    0.019294

  Mayer bond orders larger than 0.100000
B(  0-S ,  1-C ) :   1.1619 B(  0-S ,  4-C ) :   1.1524 B(  1-C ,  2-C ) :   1.5744
B(  1-C ,  4-C ) :   0.1025 B(  1-C , 32-H ) :   0.9629 B(  2-C ,  3-C ) :   1.2821
B(  2-C ,  6-C ) :   1.0182 B(  3-C ,  4-C ) :   1.5425 B(  3-C ,  5-H ) :   0.9945
B(  4-C , 20-C ) :   1.0762 B(  6-C ,  7-H ) :   0.9406 B(  6-C ,  8-H ) :   0.9380
B(  6-C ,  9-C ) :   1.0548 B(  9-C , 10-H ) :   0.9576 B(  9-C , 11-H ) :   0.9547
B(  9-C , 12-C ) :   1.0771 B( 12-C , 13-H ) :   0.9745 B( 12-C , 14-H ) :   0.9666
B( 12-C , 15-H ) :   0.9665 B( 16-S , 17-C ) :   1.1659 B( 16-S , 20-C ) :   1.1167
B( 17-C , 18-C ) :   1.5974 B( 17-C , 33-H ) :   0.9763 B( 18-C , 19-C ) :   1.2160
B( 18-C , 21-H ) :   0.9894 B( 19-C , 20-C ) :   1.6059 B( 19-C , 22-C ) :   1.0312
B( 22-C , 23-H ) :   0.9514 B( 22-C , 24-H ) :   0.9286 B( 22-C , 25-C ) :   1.0321
B( 25-C , 26-H ) :   0.9552 B( 25-C , 27-H ) :   0.9624 B( 25-C , 28-C ) :   1.0812
B( 28-C , 29-H ) :   0.9779 B( 28-C , 30-H ) :   0.9754 B( 28-C , 31-H ) :   0.9755

Dispersion correction           -0.014811169
FINAL SINGLE POINT ENERGY     -1339.861333010551

DIPOLE MOMENT
-------------
                                X             Y             Z
Electronic contribution:      5.84913     -26.76268      13.72079
Nuclear contribution   :     -5.84845      27.33691     -14.13262
                        -----------------------------------------
Total Dipole Moment    :      0.00067       0.57423      -0.41183
                        -----------------------------------------
Magnitude (a.u.)       :      0.70665
Magnitude (Debye)      :      1.79615

Rotational constants in cm-1:     0.016688     0.010226     0.006863
Rotational constants in MHz :   500.292144   306.553289   205.755251

                             ****ORCA TERMINATED NORMALLY****
TOTAL RUN TIME: 0 days 0 hours 0 minutes 20 seconds 916 msec
