                         Program Version 4.2.1 -  RELEASE  -
|  1> ! wB97X-D3 SP def2-SVP
|  2> %pal
|  3> nprocs 24
|  4> end
|  5>
|  6> * xyz 0 1
|  7> S 	 -81.9194 	 -15.1293 	 -53.3012
|  8> C 	 -83.6072 	 -14.8433 	 -53.829
|  9> C 	 -84.3638 	 -15.9944 	 -53.6938
| 10> C 	 -83.5379 	 -17.103 	 -53.2486
| 11> C 	 -82.2254 	 -16.8109 	 -53.0486
| 12> H 	 -83.916 	 -18.105 	 -53.1323
| 13> C 	 -85.8303 	 -16.0195 	 -53.9551
| 14> H 	 -86.134 	 -17.0157 	 -54.1999
| 15> H 	 -85.8305 	 -15.5544 	 -54.9297
| 16> C 	 -86.7516 	 -15.3214 	 -52.9437
| 17> H 	 -86.7377 	 -15.8087 	 -51.9348
| 18> H 	 -86.4751 	 -14.2583 	 -52.8126
| 19> C 	 -88.1778 	 -15.3694 	 -53.557
| 20> H 	 -88.5132 	 -16.3994 	 -53.6551
| 21> H 	 -88.8356 	 -14.8617 	 -52.8989
| 22> H 	 -88.2313 	 -14.8111 	 -54.5509
| 23> S 	 -80.9125 	 -17.8778 	 -50.9655
| 24> C 	 -79.8844 	 -19.1976 	 -51.2666
| 25> C 	 -79.587 	 -19.3758 	 -52.6225
| 26> C 	 -80.4866 	 -18.6254 	 -53.4263
| 27> C 	 -81.2319 	 -17.7924 	 -52.6552
| 28> H 	 -78.9048 	 -20.0953 	 -52.9832
| 29> C 	 -80.6472 	 -18.7482 	 -54.9634
| 30> H 	 -81.461 	 -18.1027 	 -55.1894
| 31> H 	 -80.9653 	 -19.7474 	 -55.1973
| 32> C 	 -79.459 	 -18.154 	 -55.768
| 33> H 	 -78.6074 	 -18.6182 	 -55.3574
| 34> H 	 -79.2858 	 -17.1282 	 -55.5271
| 35> C 	 -79.7034 	 -18.4225 	 -57.2813
| 36> H 	 -78.82 	 -18.1781 	 -57.8744
| 37> H 	 -80.5094 	 -17.8181 	 -57.6931
| 38> H 	 -79.9017 	 -19.4685 	 -57.285
| 39> H 	 -84.0037 	 -14.0043 	 -54.3674
| 40> H 	 -79.2171 	 -19.7296 	 -50.4941
| 41> *
| 42>
| 43>                          ****END OF INPUT****

CARTESIAN COORDINATES (ANGSTROEM)
---------------------------------
  S    -81.919400  -15.129300  -53.301200
  C    -83.607200  -14.843300  -53.829000
  C    -84.363800  -15.994400  -53.693800
  C    -83.537900  -17.103000  -53.248600
  C    -82.225400  -16.810900  -53.048600
  H    -83.916000  -18.105000  -53.132300
  C    -85.830300  -16.019500  -53.955100
  H    -86.134000  -17.015700  -54.199900
  H    -85.830500  -15.554400  -54.929700
  C    -86.751600  -15.321400  -52.943700
  H    -86.737700  -15.808700  -51.934800
  H    -86.475100  -14.258300  -52.812600
  C    -88.177800  -15.369400  -53.557000
  H    -88.513200  -16.399400  -53.655100
  H    -88.835600  -14.861700  -52.898900
  H    -88.231300  -14.811100  -54.550900
  S    -80.912500  -17.877800  -50.965500
  C    -79.884400  -19.197600  -51.266600
  C    -79.587000  -19.375800  -52.622500
  C    -80.486600  -18.625400  -53.426300
  C    -81.231900  -17.792400  -52.655200
  H    -78.904800  -20.095300  -52.983200
  C    -80.647200  -18.748200  -54.963400
  H    -81.461000  -18.102700  -55.189400
  H    -80.965300  -19.747400  -55.197300
  C    -79.459000  -18.154000  -55.768000
  H    -78.607400  -18.618200  -55.357400
  H    -79.285800  -17.128200  -55.527100
  C    -79.703400  -18.422500  -57.281300
  H    -78.820000  -18.178100  -57.874400
  H    -80.509400  -17.818100  -57.693100
  H    -79.901700  -19.468500  -57.285000
  H    -84.003700  -14.004300  -54.367400
  H    -79.217100  -19.729600  -50.494100

 Total Charge           Charge          ....    0
 Multiplicity           Mult            ....    1
 Number of Electrons    NEL             ....  134
 Basis Dimension        Dim             ....  322

ORBITAL ENERGIES
----------------

  NO   OCC          E(Eh)            E(eV)
   0   2.0000     -88.966414     -2420.8992
   1   2.0000     -88.963970     -2420.8327
   2   2.0000     -10.319800      -280.8160
   3   2.0000     -10.317601      -280.7562
   4   2.0000     -10.314101      -280.6609
   5   2.0000     -10.310709      -280.5687
   6   2.0000     -10.297174      -280.2004
   7   2.0000     -10.297030      -280.1964
   8   2.0000     -10.294899      -280.1385
   9   2.0000     -10.288997      -279.9778
  10   2.0000     -10.287379      -279.9338
  11   2.0000     -10.286735      -279.9163
  12   2.0000     -10.285034      -279.8700
  13   2.0000     -10.281033      -279.7611
  14   2.0000     -10.278759      -279.6992
  15   2.0000     -10.275850      -279.6201
  16   2.0000      -8.082578      -219.9381
  17   2.0000      -8.078263      -219.8207
  18   2.0000      -6.040775      -164.3778
  19   2.0000      -6.037057      -164.2767
  20   2.0000      -6.036863      -164.2714
  21   2.0000      -6.033405      -164.1773
  22   2.0000      -6.032831      -164.1617
  23   2.0000      -6.028954      -164.0562
  24   2.0000      -1.012457       -27.5504
  25   2.0000      -0.984211       -26.7818
  26   2.0000      -0.913956       -24.8700
  27   2.0000      -0.906625       -24.6705
  28   2.0000      -0.867053       -23.5937
  29   2.0000      -0.853018       -23.2118
  30   2.0000      -0.844003       -22.9665
  31   2.0000      -0.810870       -22.0649
  32   2.0000      -0.780943       -21.2506
  33   2.0000      -0.767984       -20.8979
  34   2.0000      -0.706765       -19.2321
  35   2.0000      -0.703300       -19.1378
  36   2.0000      -0.693771       -18.8785
  37   2.0000      -0.661829       -18.0093
  38   2.0000      -0.637894       -17.3580
  39   2.0000      -0.614072       -16.7097
  40   2.0000      -0.593436       -16.1482
  41   2.0000      -0.573657       -15.6100
  42   2.0000      -0.565794       -15.3961
  43   2.0000      -0.553733       -15.0678
  44   2.0000      -0.529260       -14.4019
  45   2.0000      -0.526311       -14.3217
  46   2.0000      -0.516701       -14.0601
  47   2.0000      -0.509245       -13.8573
  48   2.0000      -0.499212       -13.5842
  49   2.0000      -0.495704       -13.4888
  50   2.0000      -0.490881       -13.3575
  51   2.0000      -0.473446       -12.8831
  52   2.0000      -0.472513       -12.8577
  53   2.0000      -0.462280       -12.5793
  54   2.0000      -0.455037       -12.3822
  55   2.0000      -0.451171       -12.2770
  56   2.0000      -0.445475       -12.1220
  57   2.0000      -0.442566       -12.0428
  58   2.0000      -0.440470       -11.9858
  59   2.0000      -0.427029       -11.6200
  60   2.0000      -0.420337       -11.4380
  61   2.0000      -0.417263       -11.3543
  62   2.0000      -0.409742       -11.1497
  63   2.0000      -0.336185        -9.1481
  64   2.0000      -0.325579        -8.8595
  65   2.0000      -0.321771        -8.7558
  66   2.0000      -0.307409        -8.3650
  67   0.0000       0.051616         1.4045
  68   0.0000       0.055070         1.4985
  69   0.0000       0.121615         3.3093
  70   0.0000       0.122411         3.3310
  71   0.0000       0.129536         3.5248

MULLIKEN ATOMIC CHARGES
-----------------------
   0 S :    0.112342
   1 C :   -0.127908
   2 C :   -0.095877
   3 C :    0.052570
   4 C :   -0.170343
   5 H :    0.002239
   6 C :    0.076036
   7 H :    0.003095
   8 H :    0.018578
   9 C :   -0.067433
  10 H :    0.047175
  11 H :    0.034927
  12 C :   -0.051093
  13 H :    0.034995
  14 H :    0.025084
  15 H :    0.040466
  16 S :    0.143866
  17 C :   -0.113106
  18 C :   -0.037061
  19 C :   -0.025711
  20 C :   -0.210347
  21 H :    0.003663
  22 C :    0.089291
  23 H :    0.014747
  24 H :    0.029039
  25 C :   -0.057125
  26 H :    0.007761
  27 H :    0.020938
  28 C :   -0.019091
  29 H :    0.035247
  30 H :    0.039427
  31 H :    0.024872
  32 H :    0.040835
  33 H :    0.077903
Sum of atomic charges:    0.0000000

LOEWDIN ATOMIC CHARGES
----------------------
   0 S :    0.393839
   1 C :   -0.191419
   2 C :   -0.058602
   3 C :   -0.062122
   4 C :   -0.210408
   5 H :    0.028273
   6 C :   -0.039213
   7 H :    0.024972
   8 H :    0.035369
   9 C :   -0.034702
  10 H :    0.032642
  11 H :    0.026989
  12 C :   -0.065141
  13 H :    0.023931
  14 H :    0.017956
  15 H :    0.033188
  16 S :    0.445301
  17 C :   -0.214434
  18 C :   -0.070259
  19 C :   -0.049781
  20 C :   -0.214425
  21 H :    0.022975
  22 C :   -0.021505
  23 H :    0.026206
  24 H :    0.027102
  25 C :   -0.029934
  26 H :    0.013087
  27 H :    0.021506
  28 C :   -0.057654
  29 H :    0.026825
  30 H :    0.028049
  31 H :    0.022405
  32 H :    0.025662
  33 H :    0.043321

  Mayer bond orders larger than 0.100000
B(  0-S ,  1-C ) :   1.1214 B(  0-S ,  4-C ) :   1.1428 B(  1-C ,  2-C ) :   1.6279
B(  1-C , 32-H ) :   0.9678 B(  2-C ,  3-C ) :   1.2280 B(  2-C ,  6-C ) :   1.0099
B(  3-C ,  4-C ) :   1.5977 B(  3-C ,  5-H ) :   0.9980 B(  4-C , 20-C ) :   0.9922
B(  6-C ,  7-H ) :   0.9377 B(  6-C ,  8-H ) :   0.9338 B(  6-C ,  9-C ) :   1.0612
B(  9-C , 10-H ) :   0.9548 B(  9-C , 11-H ) :   0.9549 B(  9-C , 12-C ) :   1.0784
B( 12-C , 13-H ) :   0.9755 B( 12-C , 14-H ) :   0.9744 B( 12-C , 15-H ) :   0.9752
B( 16-S , 17-C ) :   1.1728 B( 16-S , 20-C ) :   1.1652 B( 17-C , 18-C ) :   1.6033
B( 17-C , 33-H ) :   0.9538 B( 18-C , 19-C ) :   1.2411 B( 18-C , 21-H ) :   0.9935
B( 19-C , 20-C ) :   1.6307 B( 19-C , 22-C ) :   1.0265 B( 22-C , 23-H ) :   0.9265
B( 22-C , 24-H ) :   0.9395 B( 22-C , 25-C ) :   1.0574 B( 25-C , 26-H ) :   0.9630
B( 25-C , 27-H ) :   0.9514 B( 25-C , 28-C ) :   1.0708 B( 28-C , 29-H ) :   0.9746
B( 28-C , 30-H ) :   0.9774 B( 28-C , 31-H ) :   0.9761

Dispersion correction           -0.013938107
FINAL SINGLE POINT ENERGY     -1339.871978905960

DIPOLE MOMENT
-------------
                                X             Y             Z
Electronic contribution:     13.89718       2.10257      17.81433
Nuclear contribution   :    -14.21485      -2.34330     -18.20680
                        -----------------------------------------
Total Dipole Moment    :     -0.31767      -0.24073      -0.39246
                        -----------------------------------------
Magnitude (a.u.)       :      0.55937
Magnitude (Debye)      :      1.42180

Rotational constants in cm-1:     0.019702     0.007568     0.006380
Rotational constants in MHz :   590.665098   226.891477   191.263911

                             ****ORCA TERMINATED NORMALLY****
TOTAL RUN TIME: 0 days 0 hours 0 minutes 19 seconds 962 msec
