                         Program Version 4.2.1 -  RELEASE  -
|  1> ! wB97X-D3 SP def2-SVP
|  2> %pal
|  3> nprocs 24
|  4> end
|  5>
|  6> * xyz 0 1
|  7> S 	 -45.3747 	 29.0743 	 29.5649
|  8> C 	 -46.8276 	 29.8444 	 30.1262
|  9> C 	 -48.0105 	 29.1857 	 29.7867
| 10> C 	 -47.7199 	 28.0287 	 28.9506
| 11> C 	 -46.3371 	 27.8438 	 28.7182
| 12> H 	 -48.338 	 27.3535 	 28.3425
| 13> C 	 -49.5119 	 29.5438 	 30.1412
| 14> H 	 -49.7609 	 29.4769 	 31.1946
| 15> H 	 -50.1607 	 28.8276 	 29.5718
| 16> C 	 -49.7859 	 31.0143 	 29.9007
| 17> H 	 -50.7682 	 31.3005 	 30.1582
| 18> H 	 -49.2531 	 31.5846 	 30.6409
| 19> C 	 -49.5896 	 31.3481 	 28.4056
| 20> H 	 -50.3774 	 30.8612 	 27.7632
| 21> H 	 -49.7217 	 32.4194 	 28.268
| 22> H 	 -48.595 	 31.0844 	 27.9935
| 23> S 	 -45.105 	 27.5715 	 26.1908
| 24> C 	 -44.7333 	 25.9641 	 25.693
| 25> C 	 -44.8522 	 25.0202 	 26.6749
| 26> C 	 -45.5045 	 25.5594 	 27.8621
| 27> C 	 -45.7535 	 26.917 	 27.7318
| 28> H 	 -44.7153 	 23.9664 	 26.4053
| 29> C 	 -45.7449 	 24.7577 	 29.0243
| 30> H 	 -46.3727 	 23.8754 	 28.7303
| 31> H 	 -46.3273 	 25.4636 	 29.7729
| 32> C 	 -44.5095 	 24.1915 	 29.787
| 33> H 	 -43.7438 	 24.976 	 30.0138
| 34> H 	 -44.0289 	 23.4834 	 29.1836
| 35> C 	 -45.0348 	 23.3807 	 31.0439
| 36> H 	 -45.8542 	 23.903 	 31.5596
| 37> H 	 -44.3732 	 23.2294 	 31.8318
| 38> H 	 -45.6067 	 22.4916 	 30.7648
| 39> H 	 -46.8948 	 30.7719 	 30.6856
| 40> H 	 -44.5329 	 25.7728 	 24.697
| 41> *
| 42>
| 43>                          ****END OF INPUT****

CARTESIAN COORDINATES (ANGSTROEM)
---------------------------------
  S    -45.374700   29.074300   29.564900
  C    -46.827600   29.844400   30.126200
  C    -48.010500   29.185700   29.786700
  C    -47.719900   28.028700   28.950600
  C    -46.337100   27.843800   28.718200
  H    -48.338000   27.353500   28.342500
  C    -49.511900   29.543800   30.141200
  H    -49.760900   29.476900   31.194600
  H    -50.160700   28.827600   29.571800
  C    -49.785900   31.014300   29.900700
  H    -50.768200   31.300500   30.158200
  H    -49.253100   31.584600   30.640900
  C    -49.589600   31.348100   28.405600
  H    -50.377400   30.861200   27.763200
  H    -49.721700   32.419400   28.268000
  H    -48.595000   31.084400   27.993500
  S    -45.105000   27.571500   26.190800
  C    -44.733300   25.964100   25.693000
  C    -44.852200   25.020200   26.674900
  C    -45.504500   25.559400   27.862100
  C    -45.753500   26.917000   27.731800
  H    -44.715300   23.966400   26.405300
  C    -45.744900   24.757700   29.024300
  H    -46.372700   23.875400   28.730300
  H    -46.327300   25.463600   29.772900
  C    -44.509500   24.191500   29.787000
  H    -43.743800   24.976000   30.013800
  H    -44.028900   23.483400   29.183600
  C    -45.034800   23.380700   31.043900
  H    -45.854200   23.903000   31.559600
  H    -44.373200   23.229400   31.831800
  H    -45.606700   22.491600   30.764800
  H    -46.894800   30.771900   30.685600
  H    -44.532900   25.772800   24.697000

 Total Charge           Charge          ....    0
 Multiplicity           Mult            ....    1
 Number of Electrons    NEL             ....  134
 Basis Dimension        Dim             ....  322

ORBITAL ENERGIES
----------------

  NO   OCC          E(Eh)            E(eV)
   0   2.0000     -88.969638     -2420.9869
   1   2.0000     -88.962417     -2420.7904
   2   2.0000     -10.329992      -281.0934
   3   2.0000     -10.326351      -280.9943
   4   2.0000     -10.315876      -280.7093
   5   2.0000     -10.311251      -280.5834
   6   2.0000     -10.310059      -280.5510
   7   2.0000     -10.301712      -280.3238
   8   2.0000     -10.300483      -280.2904
   9   2.0000     -10.298800      -280.2446
  10   2.0000     -10.295402      -280.1521
  11   2.0000     -10.293865      -280.1103
  12   2.0000     -10.290738      -280.0252
  13   2.0000     -10.281944      -279.7859
  14   2.0000     -10.277368      -279.6614
  15   2.0000     -10.274404      -279.5807
  16   2.0000      -8.083749      -219.9700
  17   2.0000      -8.077437      -219.7982
  18   2.0000      -6.042249      -164.4180
  19   2.0000      -6.038308      -164.3107
  20   2.0000      -6.035885      -164.2448
  21   2.0000      -6.034604      -164.2099
  22   2.0000      -6.032065      -164.1408
  23   2.0000      -6.028078      -164.0323
  24   2.0000      -0.999985       -27.2110
  25   2.0000      -0.978543       -26.6275
  26   2.0000      -0.910257       -24.7693
  27   2.0000      -0.908323       -24.7167
  28   2.0000      -0.864122       -23.5140
  29   2.0000      -0.848231       -23.0815
  30   2.0000      -0.841113       -22.8879
  31   2.0000      -0.807036       -21.9606
  32   2.0000      -0.780150       -21.2290
  33   2.0000      -0.769638       -20.9429
  34   2.0000      -0.710084       -19.3224
  35   2.0000      -0.705204       -19.1896
  36   2.0000      -0.693111       -18.8605
  37   2.0000      -0.656850       -17.8738
  38   2.0000      -0.639597       -17.4043
  39   2.0000      -0.603602       -16.4248
  40   2.0000      -0.592746       -16.1294
  41   2.0000      -0.570933       -15.5359
  42   2.0000      -0.562961       -15.3190
  43   2.0000      -0.550073       -14.9682
  44   2.0000      -0.540604       -14.7106
  45   2.0000      -0.521000       -14.1771
  46   2.0000      -0.514870       -14.0103
  47   2.0000      -0.506514       -13.7830
  48   2.0000      -0.503626       -13.7044
  49   2.0000      -0.490777       -13.3547
  50   2.0000      -0.478051       -13.0084
  51   2.0000      -0.473782       -12.8923
  52   2.0000      -0.472555       -12.8589
  53   2.0000      -0.459124       -12.4934
  54   2.0000      -0.455005       -12.3813
  55   2.0000      -0.443517       -12.0687
  56   2.0000      -0.441609       -12.0168
  57   2.0000      -0.440745       -11.9933
  58   2.0000      -0.433437       -11.7944
  59   2.0000      -0.426032       -11.5929
  60   2.0000      -0.420793       -11.4504
  61   2.0000      -0.415037       -11.2937
  62   2.0000      -0.413588       -11.2543
  63   2.0000      -0.337608        -9.1868
  64   2.0000      -0.326371        -8.8810
  65   2.0000      -0.325066        -8.8455
  66   2.0000      -0.300941        -8.1890
  67   0.0000       0.040291         1.0964
  68   0.0000       0.053388         1.4528
  69   0.0000       0.115573         3.1449
  70   0.0000       0.117535         3.1983
  71   0.0000       0.125374         3.4116

MULLIKEN ATOMIC CHARGES
-----------------------
   0 S :    0.127365
   1 C :   -0.116854
   2 C :   -0.098405
   3 C :    0.039775
   4 C :   -0.217259
   5 H :    0.027315
   6 C :    0.083906
   7 H :    0.034932
   8 H :    0.033067
   9 C :   -0.062396
  10 H :    0.009904
  11 H :    0.018278
  12 C :   -0.070534
  13 H :    0.036550
  14 H :    0.027439
  15 H :    0.054891
  16 S :    0.104433
  17 C :   -0.069856
  18 C :   -0.021733
  19 C :    0.009402
  20 C :   -0.173893
  21 H :    0.029088
  22 C :   -0.029631
  23 H :    0.038061
  24 H :    0.056056
  25 C :   -0.051273
  26 H :    0.045859
  27 H :    0.020080
  28 C :   -0.027068
  29 H :    0.011636
  30 H :    0.027282
  31 H :    0.024075
  32 H :    0.045586
  33 H :    0.033919
Sum of atomic charges:    0.0000000

LOEWDIN ATOMIC CHARGES
----------------------
   0 S :    0.404996
   1 C :   -0.204278
   2 C :   -0.060078
   3 C :   -0.059468
   4 C :   -0.198149
   5 H :    0.037584
   6 C :   -0.025210
   7 H :    0.032326
   8 H :    0.033033
   9 C :   -0.044238
  10 H :    0.019661
  11 H :    0.020843
  12 C :   -0.070075
  13 H :    0.031397
  14 H :    0.022042
  15 H :    0.029040
  16 S :    0.389397
  17 C :   -0.166413
  18 C :   -0.074842
  19 C :   -0.053688
  20 C :   -0.196883
  21 H :    0.035242
  22 C :   -0.048595
  23 H :    0.037923
  24 H :    0.045571
  25 C :   -0.028224
  26 H :    0.032492
  27 H :    0.014129
  28 C :   -0.068436
  29 H :    0.026857
  30 H :    0.017185
  31 H :    0.027969
  32 H :    0.027991
  33 H :    0.012899

  Mayer bond orders larger than 0.100000
B(  0-S ,  1-C ) :   1.1451 B(  0-S ,  4-C ) :   1.1419 B(  1-C ,  2-C ) :   1.6262
B(  1-C , 32-H ) :   0.9621 B(  2-C ,  3-C ) :   1.2217 B(  2-C ,  6-C ) :   0.9982
B(  3-C ,  4-C ) :   1.6015 B(  3-C ,  5-H ) :   0.9809 B(  4-C , 20-C ) :   1.0333
B(  6-C ,  7-H ) :   0.9412 B(  6-C ,  8-H ) :   0.9511 B(  6-C ,  9-C ) :   1.0802
B(  9-C , 10-H ) :   0.9499 B(  9-C , 11-H ) :   0.9519 B(  9-C , 12-C ) :   1.0672
B( 12-C , 13-H ) :   0.9745 B( 12-C , 14-H ) :   0.9755 B( 12-C , 15-H ) :   0.9760
B( 16-S , 17-C ) :   1.1598 B( 16-S , 20-C ) :   1.1138 B( 17-C , 18-C ) :   1.6370
B( 17-C , 33-H ) :   0.9734 B( 18-C , 19-C ) :   1.1861 B( 18-C , 21-H ) :   0.9854
B( 19-C , 20-C ) :   1.6256 B( 19-C , 22-C ) :   1.0816 B( 22-C , 23-H ) :   0.9237
B( 22-C , 24-H ) :   0.9251 B( 22-C , 25-C ) :   1.0599 B( 25-C , 26-H ) :   0.9591
B( 25-C , 27-H ) :   0.9534 B( 25-C , 28-C ) :   1.0684 B( 28-C , 29-H ) :   0.9731
B( 28-C , 30-H ) :   0.9776 B( 28-C , 31-H ) :   0.9726

Dispersion correction           -0.014316402
FINAL SINGLE POINT ENERGY     -1339.861142663586

DIPOLE MOMENT
-------------
                                X             Y             Z
Electronic contribution:     13.52777       5.03634     -11.38781
Nuclear contribution   :    -13.96499      -5.27552      11.49380
                        -----------------------------------------
Total Dipole Moment    :     -0.43722      -0.23917       0.10599
                        -----------------------------------------
Magnitude (a.u.)       :      0.50951
Magnitude (Debye)      :      1.29507

Rotational constants in cm-1:     0.020169     0.007916     0.006621
Rotational constants in MHz :   604.665820   237.316261   198.479224

                             ****ORCA TERMINATED NORMALLY****
TOTAL RUN TIME: 0 days 0 hours 0 minutes 21 seconds 272 msec
