                         Program Version 4.2.1 -  RELEASE  -
|  1> ! wB97X-D3 SP def2-SVP
|  2> %pal
|  3> nprocs 24
|  4> end
|  5>
|  6> * xyz 0 1
|  7> S 	 -44.3166 	 8.50431 	 29.5796
|  8> C 	 -44.2026 	 9.42821 	 28.1575
|  9> C 	 -45.4138 	 10.0132 	 27.7392
| 10> C 	 -46.4862 	 9.65267 	 28.5887
| 11> C 	 -46.0425 	 8.89457 	 29.6303
| 12> H 	 -47.5286 	 9.83956 	 28.5804
| 13> C 	 -45.5713 	 10.8515 	 26.483
| 14> H 	 -44.791 	 11.6205 	 26.3575
| 15> H 	 -46.5237 	 11.3978 	 26.4319
| 16> C 	 -45.5718 	 10.05 	 25.1424
| 17> H 	 -46.3242 	 9.33941 	 25.2502
| 18> H 	 -45.7033 	 10.6794 	 24.268
| 19> C 	 -44.3515 	 9.25402 	 24.8624
| 20> H 	 -44.2753 	 8.36264 	 25.4488
| 21> H 	 -44.3646 	 9.04869 	 23.8009
| 22> H 	 -43.4649 	 9.91101 	 25.0259
| 23> S 	 -46.6361 	 6.64085 	 31.0973
| 24> C 	 -48.0811 	 6.50866 	 31.9985
| 25> C 	 -48.6958 	 7.73813 	 32.0797
| 26> C 	 -48.0648 	 8.76195 	 31.2872
| 27> C 	 -46.9389 	 8.31098 	 30.6007
| 28> H 	 -49.6165 	 7.78492 	 32.684
| 29> C 	 -48.7163 	 10.1609 	 31.0866
| 30> H 	 -48.0495 	 10.7604 	 30.4855
| 31> H 	 -48.6312 	 10.619 	 32.0678
| 32> C 	 -50.1748 	 10.268 	 30.479
| 33> H 	 -50.3858 	 11.3417 	 30.2077
| 34> H 	 -50.9299 	 10.0303 	 31.2287
| 35> C 	 -50.4371 	 9.29875 	 29.3008
| 36> H 	 -49.8577 	 9.62981 	 28.3948
| 37> H 	 -51.4807 	 9.18536 	 29.0691
| 38> H 	 -50.1571 	 8.33794 	 29.6139
| 39> H 	 -43.2698 	 9.49464 	 27.5796
| 40> H 	 -48.4291 	 5.65685 	 32.4574
| 41> *
| 42>
| 43>                          ****END OF INPUT****

CARTESIAN COORDINATES (ANGSTROEM)
---------------------------------
  S    -44.316600    8.504310   29.579600
  C    -44.202600    9.428210   28.157500
  C    -45.413800   10.013200   27.739200
  C    -46.486200    9.652670   28.588700
  C    -46.042500    8.894570   29.630300
  H    -47.528600    9.839560   28.580400
  C    -45.571300   10.851500   26.483000
  H    -44.791000   11.620500   26.357500
  H    -46.523700   11.397800   26.431900
  C    -45.571800   10.050000   25.142400
  H    -46.324200    9.339410   25.250200
  H    -45.703300   10.679400   24.268000
  C    -44.351500    9.254020   24.862400
  H    -44.275300    8.362640   25.448800
  H    -44.364600    9.048690   23.800900
  H    -43.464900    9.911010   25.025900
  S    -46.636100    6.640850   31.097300
  C    -48.081100    6.508660   31.998500
  C    -48.695800    7.738130   32.079700
  C    -48.064800    8.761950   31.287200
  C    -46.938900    8.310980   30.600700
  H    -49.616500    7.784920   32.684000
  C    -48.716300   10.160900   31.086600
  H    -48.049500   10.760400   30.485500
  H    -48.631200   10.619000   32.067800
  C    -50.174800   10.268000   30.479000
  H    -50.385800   11.341700   30.207700
  H    -50.929900   10.030300   31.228700
  C    -50.437100    9.298750   29.300800
  H    -49.857700    9.629810   28.394800
  H    -51.480700    9.185360   29.069100
  H    -50.157100    8.337940   29.613900
  H    -43.269800    9.494640   27.579600
  H    -48.429100    5.656850   32.457400

 Total Charge           Charge          ....    0
 Multiplicity           Mult            ....    1
 Number of Electrons    NEL             ....  134
 Basis Dimension        Dim             ....  322

ORBITAL ENERGIES
----------------

  NO   OCC          E(Eh)            E(eV)
   0   2.0000     -88.973013     -2421.0788
   1   2.0000     -88.960571     -2420.7402
   2   2.0000     -10.327017      -281.0124
   3   2.0000     -10.326646      -281.0023
   4   2.0000     -10.315403      -280.6964
   5   2.0000     -10.309784      -280.5435
   6   2.0000     -10.307770      -280.4887
   7   2.0000     -10.306114      -280.4436
   8   2.0000     -10.295786      -280.1626
   9   2.0000     -10.295335      -280.1503
  10   2.0000     -10.294282      -280.1217
  11   2.0000     -10.293285      -280.0945
  12   2.0000     -10.291234      -280.0387
  13   2.0000     -10.275674      -279.6153
  14   2.0000     -10.274810      -279.5918
  15   2.0000     -10.269148      -279.4377
  16   2.0000      -8.088140      -220.0895
  17   2.0000      -8.076168      -219.7637
  18   2.0000      -6.046458      -164.5325
  19   2.0000      -6.042721      -164.4308
  20   2.0000      -6.038956      -164.3283
  21   2.0000      -6.034650      -164.2112
  22   2.0000      -6.030450      -164.0969
  23   2.0000      -6.027004      -164.0031
  24   2.0000      -1.011620       -27.5276
  25   2.0000      -0.987932       -26.8830
  26   2.0000      -0.913966       -24.8703
  27   2.0000      -0.900227       -24.4964
  28   2.0000      -0.874505       -23.7965
  29   2.0000      -0.860519       -23.4159
  30   2.0000      -0.843183       -22.9442
  31   2.0000      -0.815365       -22.1872
  32   2.0000      -0.784426       -21.3453
  33   2.0000      -0.774511       -21.0755
  34   2.0000      -0.707395       -19.2492
  35   2.0000      -0.696926       -18.9643
  36   2.0000      -0.689450       -18.7609
  37   2.0000      -0.661374       -17.9969
  38   2.0000      -0.645330       -17.5603
  39   2.0000      -0.621508       -16.9121
  40   2.0000      -0.593326       -16.1452
  41   2.0000      -0.577525       -15.7153
  42   2.0000      -0.556183       -15.1345
  43   2.0000      -0.551610       -15.0101
  44   2.0000      -0.542756       -14.7691
  45   2.0000      -0.539167       -14.6715
  46   2.0000      -0.523854       -14.2548
  47   2.0000      -0.507608       -13.8127
  48   2.0000      -0.502076       -13.6622
  49   2.0000      -0.494669       -13.4606
  50   2.0000      -0.492320       -13.3967
  51   2.0000      -0.478903       -13.0316
  52   2.0000      -0.476112       -12.9557
  53   2.0000      -0.466899       -12.7050
  54   2.0000      -0.462776       -12.5928
  55   2.0000      -0.453324       -12.3356
  56   2.0000      -0.441141       -12.0040
  57   2.0000      -0.438941       -11.9442
  58   2.0000      -0.429085       -11.6760
  59   2.0000      -0.425126       -11.5683
  60   2.0000      -0.418645       -11.3919
  61   2.0000      -0.416875       -11.3438
  62   2.0000      -0.409514       -11.1434
  63   2.0000      -0.359607        -9.7854
  64   2.0000      -0.334746        -9.1089
  65   2.0000      -0.328226        -8.9315
  66   2.0000      -0.284558        -7.7432
  67   0.0000       0.027281         0.7423
  68   0.0000       0.072751         1.9797
  69   0.0000       0.106850         2.9075
  70   0.0000       0.119292         3.2461
  71   0.0000       0.134365         3.6563

MULLIKEN ATOMIC CHARGES
-----------------------
   0 S :    0.138337
   1 C :   -0.129654
   2 C :   -0.053904
   3 C :    0.031420
   4 C :   -0.137169
   5 H :   -0.021858
   6 C :    0.051600
   7 H :    0.030123
   8 H :    0.023939
   9 C :   -0.051260
  10 H :    0.008886
  11 H :    0.029738
  12 C :   -0.055127
  13 H :    0.043225
  14 H :    0.028425
  15 H :    0.016460
  16 S :    0.091137
  17 C :   -0.058721
  18 C :   -0.052639
  19 C :   -0.065185
  20 C :   -0.152215
  21 H :    0.028104
  22 C :    0.070906
  23 H :    0.017345
  24 H :    0.035451
  25 C :   -0.086941
  26 H :    0.040783
  27 H :    0.026260
  28 C :   -0.043183
  29 H :    0.050700
  30 H :    0.028720
  31 H :    0.030372
  32 H :    0.058337
  33 H :    0.027586
Sum of atomic charges:   -0.0000000

LOEWDIN ATOMIC CHARGES
----------------------
   0 S :    0.424660
   1 C :   -0.211415
   2 C :   -0.060695
   3 C :   -0.051174
   4 C :   -0.184868
   5 H :    0.028245
   6 C :   -0.034180
   7 H :    0.029308
   8 H :    0.032050
   9 C :   -0.036773
  10 H :    0.015447
  11 H :    0.025101
  12 C :   -0.064971
  13 H :    0.021132
  14 H :    0.027314
  15 H :    0.021172
  16 S :    0.405449
  17 C :   -0.182795
  18 C :   -0.078970
  19 C :   -0.062686
  20 C :   -0.189776
  21 H :    0.035750
  22 C :   -0.034542
  23 H :    0.024742
  24 H :    0.035668
  25 C :   -0.041415
  26 H :    0.030440
  27 H :    0.020819
  28 C :   -0.063701
  29 H :    0.028524
  30 H :    0.025549
  31 H :    0.020529
  32 H :    0.030820
  33 H :    0.015242

  Mayer bond orders larger than 0.100000
B(  0-S ,  1-C ) :   1.1548 B(  0-S ,  4-C ) :   1.1429 B(  1-C ,  2-C ) :   1.5858
B(  1-C , 32-H ) :   0.9610 B(  2-C ,  3-C ) :   1.2295 B(  2-C ,  6-C ) :   1.0276
B(  3-C ,  4-C ) :   1.5743 B(  3-C ,  5-H ) :   0.9993 B(  4-C , 20-C ) :   1.0670
B(  6-C ,  7-H ) :   0.9434 B(  6-C ,  8-H ) :   0.9441 B(  6-C ,  9-C ) :   1.0728
B(  9-C , 10-H ) :   0.9490 B(  9-C , 11-H ) :   0.9590 B(  9-C , 12-C ) :   1.0977
B( 12-C , 13-H ) :   0.9702 B( 12-C , 14-H ) :   0.9702 B( 12-C , 15-H ) :   0.9711
B( 16-S , 17-C ) :   1.1643 B( 16-S , 20-C ) :   1.1351 B( 17-C , 18-C ) :   1.6021
B( 17-C , 33-H ) :   0.9797 B( 18-C , 19-C ) :   1.2269 B( 18-C , 21-H ) :   0.9924
B( 19-C , 20-C ) :   1.5847 B( 19-C , 22-C ) :   1.0389 B( 22-C , 23-H ) :   0.9368
B( 22-C , 24-H ) :   0.9321 B( 22-C , 25-C ) :   1.0533 B( 25-C , 26-H ) :   0.9598
B( 25-C , 27-H ) :   0.9555 B( 25-C , 28-C ) :   1.0810 B( 28-C , 29-H ) :   0.9699
B( 28-C , 30-H ) :   0.9725 B( 28-C , 31-H ) :   0.9687

Dispersion correction           -0.015198492
FINAL SINGLE POINT ENERGY     -1339.877879230731

DIPOLE MOMENT
-------------
                                X             Y             Z
Electronic contribution:     12.35075     -13.01948      18.08443
Nuclear contribution   :    -12.82420      13.26697     -18.36157
                        -----------------------------------------
Total Dipole Moment    :     -0.47344       0.24749      -0.27714
                        -----------------------------------------
Magnitude (a.u.)       :      0.60184
Magnitude (Debye)      :      1.52974

Rotational constants in cm-1:     0.020475     0.008908     0.006978
Rotational constants in MHz :   613.811399   267.049301   209.201268

                             ****ORCA TERMINATED NORMALLY****
TOTAL RUN TIME: 0 days 0 hours 0 minutes 22 seconds 265 msec
