                         Program Version 4.2.1 -  RELEASE  -
|  1> ! wB97X-D3 SP def2-SVP
|  2> %pal
|  3> nprocs 24
|  4> end
|  5>
|  6> * xyz 0 1
|  7> S 	 -51.6882 	 20.8486 	 32.2092
|  8> C 	 -49.9625 	 20.6581 	 31.9645
|  9> C 	 -49.4346 	 19.4434 	 32.448
| 10> C 	 -50.571 	 18.6521 	 32.852
| 11> C 	 -51.7874 	 19.3119 	 32.8571
| 12> H 	 -50.5607 	 17.6281 	 33.2906
| 13> C 	 -47.9761 	 19.0006 	 32.5169
| 14> H 	 -47.9223 	 18.1296 	 31.8776
| 15> H 	 -47.7122 	 18.6746 	 33.551
| 16> C 	 -46.8715 	 19.9904 	 32.0034
| 17> H 	 -46.9236 	 20.8813 	 32.6378
| 18> H 	 -45.9398 	 19.4246 	 32.1339
| 19> C 	 -46.7245 	 20.2877 	 30.5453
| 20> H 	 -47.5992 	 20.8821 	 30.2156
| 21> H 	 -45.8581 	 20.9643 	 30.4177
| 22> H 	 -46.7357 	 19.406 	 29.9624
| 23> S 	 -54.1448 	 19.7182 	 34.3088
| 24> C 	 -55.3426 	 18.4844 	 34.3795
| 25> C 	 -54.9866 	 17.3699 	 33.6599
| 26> C 	 -53.8044 	 17.5506 	 32.9101
| 27> C 	 -53.1349 	 18.7628 	 33.2268
| 28> H 	 -55.6325 	 16.4877 	 33.5479
| 29> C 	 -53.3315 	 16.5069 	 31.8927
| 30> H 	 -53.0178 	 15.6072 	 32.419
| 31> H 	 -52.3172 	 16.7788 	 31.5825
| 32> C 	 -54.2944 	 16.1933 	 30.7375
| 33> H 	 -54.4756 	 17.0337 	 30.0602
| 34> H 	 -55.3063 	 15.966 	 31.1991
| 35> C 	 -54.0851 	 14.9044 	 29.8444
| 36> H 	 -53.1902 	 15.0501 	 29.2461
| 37> H 	 -55.0164 	 14.7204 	 29.3242
| 38> H 	 -54.0013 	 13.9953 	 30.437
| 39> H 	 -49.4126 	 21.3579 	 31.4413
| 40> H 	 -56.2634 	 18.5901 	 34.9119
| 41> *
| 42>
| 43>                          ****END OF INPUT****

CARTESIAN COORDINATES (ANGSTROEM)
---------------------------------
  S    -51.688200   20.848600   32.209200
  C    -49.962500   20.658100   31.964500
  C    -49.434600   19.443400   32.448000
  C    -50.571000   18.652100   32.852000
  C    -51.787400   19.311900   32.857100
  H    -50.560700   17.628100   33.290600
  C    -47.976100   19.000600   32.516900
  H    -47.922300   18.129600   31.877600
  H    -47.712200   18.674600   33.551000
  C    -46.871500   19.990400   32.003400
  H    -46.923600   20.881300   32.637800
  H    -45.939800   19.424600   32.133900
  C    -46.724500   20.287700   30.545300
  H    -47.599200   20.882100   30.215600
  H    -45.858100   20.964300   30.417700
  H    -46.735700   19.406000   29.962400
  S    -54.144800   19.718200   34.308800
  C    -55.342600   18.484400   34.379500
  C    -54.986600   17.369900   33.659900
  C    -53.804400   17.550600   32.910100
  C    -53.134900   18.762800   33.226800
  H    -55.632500   16.487700   33.547900
  C    -53.331500   16.506900   31.892700
  H    -53.017800   15.607200   32.419000
  H    -52.317200   16.778800   31.582500
  C    -54.294400   16.193300   30.737500
  H    -54.475600   17.033700   30.060200
  H    -55.306300   15.966000   31.199100
  C    -54.085100   14.904400   29.844400
  H    -53.190200   15.050100   29.246100
  H    -55.016400   14.720400   29.324200
  H    -54.001300   13.995300   30.437000
  H    -49.412600   21.357900   31.441300
  H    -56.263400   18.590100   34.911900

 Total Charge           Charge          ....    0
 Multiplicity           Mult            ....    1
 Number of Electrons    NEL             ....  134
 Basis Dimension        Dim             ....  322

ORBITAL ENERGIES
----------------

  NO   OCC          E(Eh)            E(eV)
   0   2.0000     -88.966230     -2420.8942
   1   2.0000     -88.965035     -2420.8617
   2   2.0000     -10.331316      -281.1294
   3   2.0000     -10.325381      -280.9679
   4   2.0000     -10.313200      -280.6364
   5   2.0000     -10.309985      -280.5489
   6   2.0000     -10.309535      -280.5367
   7   2.0000     -10.304751      -280.4065
   8   2.0000     -10.302540      -280.3464
   9   2.0000     -10.295723      -280.1609
  10   2.0000     -10.292857      -280.0829
  11   2.0000     -10.291362      -280.0422
  12   2.0000     -10.291165      -280.0368
  13   2.0000     -10.289744      -279.9982
  14   2.0000     -10.280219      -279.7390
  15   2.0000     -10.279671      -279.7241
  16   2.0000      -8.082514      -219.9364
  17   2.0000      -8.080142      -219.8718
  18   2.0000      -6.040763      -164.3775
  19   2.0000      -6.038528      -164.3167
  20   2.0000      -6.036835      -164.2706
  21   2.0000      -6.034462      -164.2061
  22   2.0000      -6.033409      -164.1774
  23   2.0000      -6.031170      -164.1165
  24   2.0000      -1.008752       -27.4495
  25   2.0000      -0.986557       -26.8456
  26   2.0000      -0.914004       -24.8713
  27   2.0000      -0.899956       -24.4891
  28   2.0000      -0.867576       -23.6079
  29   2.0000      -0.850188       -23.1348
  30   2.0000      -0.846468       -23.0336
  31   2.0000      -0.811194       -22.0737
  32   2.0000      -0.790282       -21.5047
  33   2.0000      -0.775049       -21.0902
  34   2.0000      -0.701746       -19.0955
  35   2.0000      -0.698403       -19.0045
  36   2.0000      -0.691042       -18.8042
  37   2.0000      -0.655296       -17.8315
  38   2.0000      -0.642410       -17.4809
  39   2.0000      -0.610293       -16.6069
  40   2.0000      -0.597199       -16.2506
  41   2.0000      -0.580535       -15.7972
  42   2.0000      -0.555555       -15.1174
  43   2.0000      -0.552825       -15.0431
  44   2.0000      -0.538050       -14.6411
  45   2.0000      -0.527116       -14.3435
  46   2.0000      -0.523002       -14.2316
  47   2.0000      -0.515467       -14.0266
  48   2.0000      -0.504074       -13.7165
  49   2.0000      -0.498792       -13.5728
  50   2.0000      -0.488357       -13.2889
  51   2.0000      -0.480887       -13.0856
  52   2.0000      -0.468148       -12.7390
  53   2.0000      -0.464889       -12.6503
  54   2.0000      -0.462619       -12.5885
  55   2.0000      -0.449353       -12.2275
  56   2.0000      -0.446813       -12.1584
  57   2.0000      -0.443699       -12.0737
  58   2.0000      -0.434507       -11.8235
  59   2.0000      -0.424472       -11.5505
  60   2.0000      -0.417038       -11.3482
  61   2.0000      -0.409346       -11.1389
  62   2.0000      -0.406646       -11.0654
  63   2.0000      -0.343052        -9.3349
  64   2.0000      -0.332821        -9.0565
  65   2.0000      -0.329361        -8.9624
  66   2.0000      -0.290123        -7.8947
  67   0.0000       0.035882         0.9764
  68   0.0000       0.072960         1.9853
  69   0.0000       0.113902         3.0994
  70   0.0000       0.119886         3.2623
  71   0.0000       0.133077         3.6212

MULLIKEN ATOMIC CHARGES
-----------------------
   0 S :    0.129947
   1 C :   -0.113740
   2 C :   -0.074496
   3 C :   -0.005645
   4 C :   -0.143725
   5 H :    0.023067
   6 C :    0.062580
   7 H :    0.027531
   8 H :    0.053334
   9 C :   -0.108617
  10 H :    0.041961
  11 H :    0.030425
  12 C :   -0.029591
  13 H :    0.016686
  14 H :    0.047310
  15 H :    0.028646
  16 S :    0.106328
  17 C :   -0.083025
  18 C :   -0.037391
  19 C :   -0.050333
  20 C :   -0.164056
  21 H :    0.028736
  22 C :    0.116005
  23 H :    0.017168
  24 H :    0.003467
  25 C :   -0.118458
  26 H :    0.042994
  27 H :    0.025339
  28 C :   -0.044162
  29 H :    0.045543
  30 H :    0.036171
  31 H :    0.022860
  32 H :    0.015092
  33 H :    0.052051
Sum of atomic charges:   -0.0000000

LOEWDIN ATOMIC CHARGES
----------------------
   0 S :    0.443922
   1 C :   -0.192495
   2 C :   -0.054507
   3 C :   -0.074818
   4 C :   -0.223156
   5 H :    0.035012
   6 C :   -0.031597
   7 H :    0.031969
   8 H :    0.042623
   9 C :   -0.048764
  10 H :    0.025878
  11 H :    0.031792
  12 C :   -0.062553
  13 H :    0.020680
  14 H :    0.036095
  15 H :    0.021637
  16 S :    0.413525
  17 C :   -0.189983
  18 C :   -0.074512
  19 C :   -0.055423
  20 C :   -0.200060
  21 H :    0.035339
  22 C :   -0.041600
  23 H :    0.031939
  24 H :    0.027980
  25 C :   -0.044267
  26 H :    0.027402
  27 H :    0.025985
  28 C :   -0.063979
  29 H :    0.024504
  30 H :    0.029393
  31 H :    0.022579
  32 H :    0.003545
  33 H :    0.025916

  Mayer bond orders larger than 0.100000
B(  0-S ,  1-C ) :   1.1527 B(  0-S ,  4-C ) :   1.1825 B(  1-C ,  2-C ) :   1.5940
B(  1-C , 32-H ) :   0.9714 B(  2-C ,  3-C ) :   1.2468 B(  2-C ,  6-C ) :   1.0040
B(  3-C ,  4-C ) :   1.5850 B(  3-C ,  5-H ) :   0.9862 B(  4-C , 20-C ) :   0.9916
B(  6-C ,  7-H ) :   0.9322 B(  6-C ,  8-H ) :   0.9427 B(  6-C ,  9-C ) :   1.0854
B(  9-C , 10-H ) :   0.9542 B(  9-C , 11-H ) :   0.9535 B(  9-C , 12-C ) :   1.0823
B( 12-C , 13-H ) :   0.9744 B( 12-C , 14-H ) :   0.9701 B( 12-C , 15-H ) :   0.9690
B( 16-S , 17-C ) :   1.1694 B( 16-S , 20-C ) :   1.1555 B( 17-C , 18-C ) :   1.5805
B( 17-C , 20-C ) :   0.1049 B( 17-C , 33-H ) :   0.9706 B( 18-C , 19-C ) :   1.2753
B( 18-C , 21-H ) :   0.9831 B( 19-C , 20-C ) :   1.5708 B( 19-C , 22-C ) :   1.0437
B( 22-C , 23-H ) :   0.9309 B( 22-C , 24-H ) :   0.9242 B( 22-C , 25-C ) :   1.0441
B( 25-C , 26-H ) :   0.9585 B( 25-C , 27-H ) :   0.9607 B( 25-C , 28-C ) :   1.0790
B( 28-C , 29-H ) :   0.9787 B( 28-C , 30-H ) :   0.9756 B( 28-C , 31-H ) :   0.9744

Dispersion correction           -0.013504510
FINAL SINGLE POINT ENERGY     -1339.874001401622

DIPOLE MOMENT
-------------
                                X             Y             Z
Electronic contribution:    -14.84389      15.69228      15.12002
Nuclear contribution   :     15.17513     -16.21014     -15.33705
                        -----------------------------------------
Total Dipole Moment    :      0.33124      -0.51786      -0.21703
                        -----------------------------------------
Magnitude (a.u.)       :      0.65192
Magnitude (Debye)      :      1.65705

Rotational constants in cm-1:     0.019538     0.007433     0.005928
Rotational constants in MHz :   585.721150   222.823373   177.713302

                             ****ORCA TERMINATED NORMALLY****
TOTAL RUN TIME: 0 days 0 hours 0 minutes 20 seconds 836 msec
