                         Program Version 4.2.1 -  RELEASE  -
|  1> ! wB97X-D3 SP def2-SVP
|  2> %pal
|  3> nprocs 24
|  4> end
|  5>
|  6> * xyz 0 1
|  7> S 	 -92.1368 	 -29.6701 	 -63.1414
|  8> C 	 -93.0348 	 -30.0286 	 -64.6402
|  9> C 	 -93.9916 	 -29.0733 	 -64.8752
| 10> C 	 -93.9779 	 -28.0549 	 -63.8817
| 11> C 	 -93.0934 	 -28.2403 	 -62.8169
| 12> H 	 -94.6969 	 -27.196 	 -63.8376
| 13> C 	 -95.022 	 -29.0144 	 -65.9722
| 14> H 	 -95.0165 	 -27.9654 	 -66.3649
| 15> H 	 -96.0259 	 -29.0379 	 -65.5937
| 16> C 	 -95.0574 	 -30.2088 	 -67.0175
| 17> H 	 -94.0611 	 -30.3321 	 -67.4231
| 18> H 	 -95.3785 	 -31.1121 	 -66.4802
| 19> C 	 -96.0296 	 -30.0691 	 -68.086
| 20> H 	 -97.0013 	 -29.6884 	 -67.777
| 21> H 	 -95.6804 	 -29.4394 	 -68.9156
| 22> H 	 -96.2302 	 -31.1067 	 -68.3976
| 23> S 	 -93.0461 	 -28.4148 	 -60.133
| 24> C 	 -93.177 	 -26.9951 	 -59.1576
| 25> C 	 -93.2223 	 -25.8537 	 -59.8841
| 26> C 	 -93.1476 	 -26.1142 	 -61.2787
| 27> C 	 -93.0177 	 -27.4473 	 -61.5609
| 28> H 	 -93.4297 	 -24.8581 	 -59.3975
| 29> C 	 -93.2682 	 -25.0044 	 -62.2939
| 30> H 	 -94.1514 	 -24.4379 	 -61.9935
| 31> H 	 -93.3369 	 -25.4058 	 -63.3126
| 32> C 	 -92.1827 	 -23.892 	 -62.2209
| 33> H 	 -91.2271 	 -24.3772 	 -62.1485
| 34> H 	 -92.3888 	 -23.3529 	 -61.2889
| 35> C 	 -92.1439 	 -22.9279 	 -63.3858
| 36> H 	 -92.8826 	 -22.2401 	 -63.4154
| 37> H 	 -92.0397 	 -23.4757 	 -64.3158
| 38> H 	 -91.22 	 -22.3873 	 -63.2541
| 39> H 	 -93.1223 	 -30.9498 	 -65.2068
| 40> H 	 -93.2104 	 -26.9494 	 -58.0961
| 41> *
| 42>
| 43>                          ****END OF INPUT****

CARTESIAN COORDINATES (ANGSTROEM)
---------------------------------
  S    -92.136800  -29.670100  -63.141400
  C    -93.034800  -30.028600  -64.640200
  C    -93.991600  -29.073300  -64.875200
  C    -93.977900  -28.054900  -63.881700
  C    -93.093400  -28.240300  -62.816900
  H    -94.696900  -27.196000  -63.837600
  C    -95.022000  -29.014400  -65.972200
  H    -95.016500  -27.965400  -66.364900
  H    -96.025900  -29.037900  -65.593700
  C    -95.057400  -30.208800  -67.017500
  H    -94.061100  -30.332100  -67.423100
  H    -95.378500  -31.112100  -66.480200
  C    -96.029600  -30.069100  -68.086000
  H    -97.001300  -29.688400  -67.777000
  H    -95.680400  -29.439400  -68.915600
  H    -96.230200  -31.106700  -68.397600
  S    -93.046100  -28.414800  -60.133000
  C    -93.177000  -26.995100  -59.157600
  C    -93.222300  -25.853700  -59.884100
  C    -93.147600  -26.114200  -61.278700
  C    -93.017700  -27.447300  -61.560900
  H    -93.429700  -24.858100  -59.397500
  C    -93.268200  -25.004400  -62.293900
  H    -94.151400  -24.437900  -61.993500
  H    -93.336900  -25.405800  -63.312600
  C    -92.182700  -23.892000  -62.220900
  H    -91.227100  -24.377200  -62.148500
  H    -92.388800  -23.352900  -61.288900
  C    -92.143900  -22.927900  -63.385800
  H    -92.882600  -22.240100  -63.415400
  H    -92.039700  -23.475700  -64.315800
  H    -91.220000  -22.387300  -63.254100
  H    -93.122300  -30.949800  -65.206800
  H    -93.210400  -26.949400  -58.096100

 Total Charge           Charge          ....    0
 Multiplicity           Mult            ....    1
 Number of Electrons    NEL             ....  134
 Basis Dimension        Dim             ....  322

ORBITAL ENERGIES
----------------

  NO   OCC          E(Eh)            E(eV)
   0   2.0000     -88.966989     -2420.9149
   1   2.0000     -88.964829     -2420.8561
   2   2.0000     -10.333640      -281.1927
   3   2.0000     -10.325159      -280.9619
   4   2.0000     -10.311987      -280.6034
   5   2.0000     -10.311275      -280.5841
   6   2.0000     -10.300557      -280.2924
   7   2.0000     -10.299494      -280.2635
   8   2.0000     -10.295551      -280.1562
   9   2.0000     -10.294096      -280.1166
  10   2.0000     -10.293851      -280.1099
  11   2.0000     -10.288696      -279.9697
  12   2.0000     -10.288128      -279.9542
  13   2.0000     -10.282070      -279.7893
  14   2.0000     -10.277386      -279.6619
  15   2.0000     -10.266908      -279.3768
  16   2.0000      -8.080770      -219.8889
  17   2.0000      -8.080625      -219.8850
  18   2.0000      -6.039518      -164.3436
  19   2.0000      -6.039100      -164.3323
  20   2.0000      -6.035371      -164.2308
  21   2.0000      -6.035037      -164.2217
  22   2.0000      -6.031370      -164.1219
  23   2.0000      -6.031289      -164.1197
  24   2.0000      -1.011634       -27.5280
  25   2.0000      -0.985676       -26.8216
  26   2.0000      -0.915845       -24.9214
  27   2.0000      -0.910783       -24.7837
  28   2.0000      -0.874717       -23.8023
  29   2.0000      -0.857605       -23.3366
  30   2.0000      -0.849939       -23.1280
  31   2.0000      -0.814027       -22.1508
  32   2.0000      -0.783896       -21.3309
  33   2.0000      -0.776063       -21.1178
  34   2.0000      -0.710765       -19.3409
  35   2.0000      -0.699091       -19.0232
  36   2.0000      -0.689630       -18.7658
  37   2.0000      -0.661800       -18.0085
  38   2.0000      -0.631411       -17.1816
  39   2.0000      -0.612239       -16.6599
  40   2.0000      -0.595867       -16.2144
  41   2.0000      -0.578923       -15.7533
  42   2.0000      -0.575596       -15.6628
  43   2.0000      -0.569014       -15.4836
  44   2.0000      -0.525077       -14.2881
  45   2.0000      -0.522242       -14.2109
  46   2.0000      -0.521640       -14.1945
  47   2.0000      -0.514047       -13.9879
  48   2.0000      -0.506543       -13.7837
  49   2.0000      -0.498337       -13.5604
  50   2.0000      -0.492313       -13.3965
  51   2.0000      -0.483394       -13.1538
  52   2.0000      -0.478376       -13.0173
  53   2.0000      -0.469821       -12.7845
  54   2.0000      -0.457628       -12.4527
  55   2.0000      -0.453642       -12.3442
  56   2.0000      -0.451449       -12.2845
  57   2.0000      -0.429443       -11.6857
  58   2.0000      -0.428662       -11.6645
  59   2.0000      -0.425003       -11.5649
  60   2.0000      -0.420778       -11.4499
  61   2.0000      -0.419915       -11.4265
  62   2.0000      -0.410718       -11.1762
  63   2.0000      -0.350185        -9.5290
  64   2.0000      -0.330118        -8.9830
  65   2.0000      -0.327387        -8.9087
  66   2.0000      -0.292878        -7.9696
  67   0.0000       0.032446         0.8829
  68   0.0000       0.078968         2.1488
  69   0.0000       0.111399         3.0313
  70   0.0000       0.120883         3.2894
  71   0.0000       0.131670         3.5829

MULLIKEN ATOMIC CHARGES
-----------------------
   0 S :    0.103640
   1 C :   -0.120239
   2 C :   -0.076143
   3 C :   -0.002682
   4 C :   -0.140722
   5 H :    0.028337
   6 C :    0.037754
   7 H :    0.034821
   8 H :    0.021826
   9 C :   -0.099364
  10 H :    0.036905
  11 H :    0.036346
  12 C :   -0.020156
  13 H :    0.018722
  14 H :    0.039141
  15 H :    0.030367
  16 S :    0.111284
  17 C :   -0.066645
  18 C :   -0.062003
  19 C :   -0.039027
  20 C :   -0.148350
  21 H :    0.040354
  22 C :    0.072977
  23 H :    0.022454
  24 H :    0.020514
  25 C :   -0.108014
  26 H :    0.029854
  27 H :    0.023085
  28 C :    0.022583
  29 H :    0.008381
  30 H :    0.028103
  31 H :    0.024530
  32 H :    0.051490
  33 H :    0.039874
Sum of atomic charges:    0.0000000

LOEWDIN ATOMIC CHARGES
----------------------
   0 S :    0.390024
   1 C :   -0.202370
   2 C :   -0.063878
   3 C :   -0.074678
   4 C :   -0.191898
   5 H :    0.035057
   6 C :   -0.039065
   7 H :    0.038070
   8 H :    0.029707
   9 C :   -0.045234
  10 H :    0.023676
  11 H :    0.029392
  12 C :   -0.063475
  13 H :    0.022477
  14 H :    0.027683
  15 H :    0.032901
  16 S :    0.425635
  17 C :   -0.182526
  18 C :   -0.077520
  19 C :   -0.057953
  20 C :   -0.205107
  21 H :    0.042969
  22 C :   -0.033998
  23 H :    0.032760
  24 H :    0.026390
  25 C :   -0.035832
  26 H :    0.021420
  27 H :    0.020829
  28 C :   -0.050470
  29 H :    0.008036
  30 H :    0.027721
  31 H :    0.031855
  32 H :    0.033029
  33 H :    0.024374

  Mayer bond orders larger than 0.100000
B(  0-S ,  1-C ) :   1.1079 B(  0-S ,  4-C ) :   1.1498 B(  1-C ,  2-C ) :   1.6519
B(  1-C , 32-H ) :   0.9522 B(  2-C ,  3-C ) :   1.2434 B(  2-C ,  6-C ) :   1.0133
B(  3-C ,  4-C ) :   1.5811 B(  3-C ,  5-H ) :   0.9826 B(  4-C , 20-C ) :   1.0108
B(  6-C ,  7-H ) :   0.9401 B(  6-C ,  8-H ) :   0.9352 B(  6-C ,  9-C ) :   1.0573
B(  9-C , 10-H ) :   0.9519 B(  9-C , 11-H ) :   0.9558 B(  9-C , 12-C ) :   1.1030
B( 12-C , 13-H ) :   0.9677 B( 12-C , 14-H ) :   0.9722 B( 12-C , 15-H ) :   0.9721
B( 16-S , 17-C ) :   1.1561 B( 16-S , 20-C ) :   1.1410 B( 17-C , 18-C ) :   1.6336
B( 17-C , 33-H ) :   0.9669 B( 18-C , 19-C ) :   1.2274 B( 18-C , 21-H ) :   0.9805
B( 19-C , 20-C ) :   1.6241 B( 19-C , 22-C ) :   1.0536 B( 22-C , 23-H ) :   0.9277
B( 22-C , 24-H ) :   0.9368 B( 22-C , 25-C ) :   1.0593 B( 25-C , 26-H ) :   0.9603
B( 25-C , 27-H ) :   0.9521 B( 25-C , 28-C ) :   1.0998 B( 28-C , 29-H ) :   0.9744
B( 28-C , 30-H ) :   0.9711 B( 28-C , 31-H ) :   0.9698

Dispersion correction           -0.013067875
FINAL SINGLE POINT ENERGY     -1339.872911893907

DIPOLE MOMENT
-------------
                                X             Y             Z
Electronic contribution:      9.35100     -13.88303      21.81727
Nuclear contribution   :     -9.91524      14.36327     -22.06818
                        -----------------------------------------
Total Dipole Moment    :     -0.56424       0.48024      -0.25091
                        -----------------------------------------
Magnitude (a.u.)       :      0.78228
Magnitude (Debye)      :      1.98839

Rotational constants in cm-1:     0.018876     0.007390     0.005897
Rotational constants in MHz :   565.886851   221.537540   176.775009

                             ****ORCA TERMINATED NORMALLY****
TOTAL RUN TIME: 0 days 0 hours 0 minutes 20 seconds 891 msec
