                         Program Version 4.2.1 -  RELEASE  -
|  1> ! wB97X-D3 SP def2-SVP
|  2> %pal
|  3> nprocs 24
|  4> end
|  5>
|  6> * xyz 0 1
|  7> S 	 -106.75 	 62.4242 	 -11.624
|  8> C 	 -105.993 	 63.8223 	 -12.3442
|  9> C 	 -105.1 	 64.3971 	 -11.4578
| 10> C 	 -105.031 	 63.7092 	 -10.1694
| 11> C 	 -105.917 	 62.6378 	 -10.0572
| 12> H 	 -104.359 	 63.9797 	 -9.37232
| 13> C 	 -104.315 	 65.6307 	 -11.6976
| 14> H 	 -104.541 	 65.9938 	 -12.6928
| 15> H 	 -103.321 	 65.1625 	 -11.8076
| 16> C 	 -104.406 	 66.8726 	 -10.6581
| 17> H 	 -105.364 	 67.3965 	 -10.6361
| 18> H 	 -104.266 	 66.6412 	 -9.63014
| 19> C 	 -103.314 	 67.8875 	 -10.9588
| 20> H 	 -103.351 	 68.7835 	 -10.3077
| 21> H 	 -102.411 	 67.4021 	 -10.6427
| 22> H 	 -103.277 	 68.2805 	 -11.9515
| 23> S 	 -105.771 	 59.969 	 -9.18069
| 24> C 	 -106.06 	 59.6713 	 -7.51858
| 25> C 	 -106.267 	 60.8413 	 -6.78475
| 26> C 	 -106.235 	 61.9986 	 -7.5703
| 27> C 	 -106.056 	 61.7383 	 -8.91319
| 28> H 	 -106.508 	 60.8708 	 -5.73184
| 29> C 	 -106.286 	 63.3783 	 -6.85619
| 30> H 	 -106.558 	 64.1111 	 -7.67342
| 31> H 	 -105.301 	 63.606 	 -6.55839
| 32> C 	 -107.196 	 63.5282 	 -5.63957
| 33> H 	 -107.178 	 64.5884 	 -5.34462
| 34> H 	 -106.767 	 62.9337 	 -4.88283
| 35> C 	 -108.668 	 63.3626 	 -6.05679
| 36> H 	 -109.421 	 63.5538 	 -5.27752
| 37> H 	 -109.05 	 62.3417 	 -6.39542
| 38> H 	 -108.989 	 64.1003 	 -6.80941
| 39> H 	 -106.117 	 64.1237 	 -13.3656
| 40> H 	 -106.17 	 58.6845 	 -7.13351
| 41> *
| 42>
| 43>                          ****END OF INPUT****

CARTESIAN COORDINATES (ANGSTROEM)
---------------------------------
  S    -106.750000   62.424200  -11.624000
  C    -105.993000   63.822300  -12.344200
  C    -105.100000   64.397100  -11.457800
  C    -105.031000   63.709200  -10.169400
  C    -105.917000   62.637800  -10.057200
  H    -104.359000   63.979700   -9.372320
  C    -104.315000   65.630700  -11.697600
  H    -104.541000   65.993800  -12.692800
  H    -103.321000   65.162500  -11.807600
  C    -104.406000   66.872600  -10.658100
  H    -105.364000   67.396500  -10.636100
  H    -104.266000   66.641200   -9.630140
  C    -103.314000   67.887500  -10.958800
  H    -103.351000   68.783500  -10.307700
  H    -102.411000   67.402100  -10.642700
  H    -103.277000   68.280500  -11.951500
  S    -105.771000   59.969000   -9.180690
  C    -106.060000   59.671300   -7.518580
  C    -106.267000   60.841300   -6.784750
  C    -106.235000   61.998600   -7.570300
  C    -106.056000   61.738300   -8.913190
  H    -106.508000   60.870800   -5.731840
  C    -106.286000   63.378300   -6.856190
  H    -106.558000   64.111100   -7.673420
  H    -105.301000   63.606000   -6.558390
  C    -107.196000   63.528200   -5.639570
  H    -107.178000   64.588400   -5.344620
  H    -106.767000   62.933700   -4.882830
  C    -108.668000   63.362600   -6.056790
  H    -109.421000   63.553800   -5.277520
  H    -109.050000   62.341700   -6.395420
  H    -108.989000   64.100300   -6.809410
  H    -106.117000   64.123700  -13.365600
  H    -106.170000   58.684500   -7.133510

 Total Charge           Charge          ....    0
 Multiplicity           Mult            ....    1
 Number of Electrons    NEL             ....  134
 Basis Dimension        Dim             ....  322

ORBITAL ENERGIES
----------------

  NO   OCC          E(Eh)            E(eV)
   0   2.0000     -88.965537     -2420.8753
   1   2.0000     -88.961968     -2420.7782
   2   2.0000     -10.332663      -281.1661
   3   2.0000     -10.328160      -281.0435
   4   2.0000     -10.315897      -280.7098
   5   2.0000     -10.312299      -280.6119
   6   2.0000     -10.301938      -280.3300
   7   2.0000     -10.300669      -280.2955
   8   2.0000     -10.297734      -280.2156
   9   2.0000     -10.295607      -280.1577
  10   2.0000     -10.292917      -280.0845
  11   2.0000     -10.292831      -280.0822
  12   2.0000     -10.291294      -280.0403
  13   2.0000     -10.289470      -279.9907
  14   2.0000     -10.283192      -279.8199
  15   2.0000     -10.275300      -279.6051
  16   2.0000      -8.080164      -219.8724
  17   2.0000      -8.076218      -219.7651
  18   2.0000      -6.038582      -164.3182
  19   2.0000      -6.034892      -164.2178
  20   2.0000      -6.034748      -164.2138
  21   2.0000      -6.030962      -164.1108
  22   2.0000      -6.030724      -164.1043
  23   2.0000      -6.026893      -164.0001
  24   2.0000      -1.000167       -27.2159
  25   2.0000      -0.979761       -26.6607
  26   2.0000      -0.910957       -24.7884
  27   2.0000      -0.905301       -24.6345
  28   2.0000      -0.869320       -23.6554
  29   2.0000      -0.851907       -23.1816
  30   2.0000      -0.845360       -23.0034
  31   2.0000      -0.809801       -22.0358
  32   2.0000      -0.783349       -21.3160
  33   2.0000      -0.766625       -20.8609
  34   2.0000      -0.712653       -19.3923
  35   2.0000      -0.704302       -19.1650
  36   2.0000      -0.696376       -18.9494
  37   2.0000      -0.658869       -17.9287
  38   2.0000      -0.640156       -17.4195
  39   2.0000      -0.616105       -16.7651
  40   2.0000      -0.598825       -16.2948
  41   2.0000      -0.563601       -15.3364
  42   2.0000      -0.563273       -15.3274
  43   2.0000      -0.560335       -15.2475
  44   2.0000      -0.537016       -14.6129
  45   2.0000      -0.523285       -14.2393
  46   2.0000      -0.518606       -14.1120
  47   2.0000      -0.511796       -13.9267
  48   2.0000      -0.503710       -13.7066
  49   2.0000      -0.498991       -13.5782
  50   2.0000      -0.490496       -13.3471
  51   2.0000      -0.475945       -12.9511
  52   2.0000      -0.467923       -12.7328
  53   2.0000      -0.459251       -12.4969
  54   2.0000      -0.455842       -12.4041
  55   2.0000      -0.450540       -12.2598
  56   2.0000      -0.444061       -12.0835
  57   2.0000      -0.438842       -11.9415
  58   2.0000      -0.432115       -11.7584
  59   2.0000      -0.427820       -11.6416
  60   2.0000      -0.422720       -11.5028
  61   2.0000      -0.413659       -11.2562
  62   2.0000      -0.411527       -11.1982
  63   2.0000      -0.342917        -9.3312
  64   2.0000      -0.334710        -9.1079
  65   2.0000      -0.320152        -8.7118
  66   2.0000      -0.292420        -7.9572
  67   0.0000       0.029590         0.8052
  68   0.0000       0.070886         1.9289
  69   0.0000       0.113307         3.0832
  70   0.0000       0.126917         3.4536
  71   0.0000       0.128806         3.5050

MULLIKEN ATOMIC CHARGES
-----------------------
   0 S :    0.096546
   1 C :   -0.112237
   2 C :   -0.098404
   3 C :    0.031367
   4 C :   -0.153542
   5 H :    0.014034
   6 C :    0.059538
   7 H :    0.009178
   8 H :    0.044270
   9 C :   -0.039806
  10 H :    0.034216
  11 H :    0.018004
  12 C :   -0.059819
  13 H :    0.028008
  14 H :    0.023263
  15 H :    0.033455
  16 S :    0.110716
  17 C :   -0.075124
  18 C :   -0.043432
  19 C :   -0.015870
  20 C :   -0.178418
  21 H :    0.015439
  22 C :    0.050461
  23 H :    0.034099
  24 H :    0.030820
  25 C :   -0.033554
  26 H :    0.037335
  27 H :    0.029156
  28 C :   -0.089938
  29 H :    0.024962
  30 H :    0.044828
  31 H :    0.035939
  32 H :    0.043910
  33 H :    0.050599
Sum of atomic charges:    0.0000000

LOEWDIN ATOMIC CHARGES
----------------------
   0 S :    0.386012
   1 C :   -0.200056
   2 C :   -0.067148
   3 C :   -0.057691
   4 C :   -0.184154
   5 H :    0.029031
   6 C :   -0.034239
   7 H :    0.027509
   8 H :    0.042883
   9 C :   -0.033235
  10 H :    0.026565
  11 H :    0.019176
  12 C :   -0.064986
  13 H :    0.028713
  14 H :    0.022765
  15 H :    0.019667
  16 S :    0.401503
  17 C :   -0.182988
  18 C :   -0.077262
  19 C :   -0.049717
  20 C :   -0.188578
  21 H :    0.029664
  22 C :   -0.026472
  23 H :    0.035094
  24 H :    0.024606
  25 C :   -0.038272
  26 H :    0.037566
  27 H :    0.016969
  28 C :   -0.080842
  29 H :    0.024174
  30 H :    0.031783
  31 H :    0.031227
  32 H :    0.027627
  33 H :    0.023109

  Mayer bond orders larger than 0.100000
B(  0-S ,  1-C ) :   1.1254 B(  0-S ,  4-C ) :   1.1395 B(  1-C ,  2-C ) :   1.6198
B(  1-C , 32-H ) :   0.9692 B(  2-C ,  3-C ) :   1.2185 B(  2-C ,  6-C ) :   1.0281
B(  3-C ,  4-C ) :   1.5737 B(  3-C ,  5-H ) :   0.9952 B(  4-C , 20-C ) :   1.0503
B(  6-C ,  7-H ) :   0.9417 B(  6-C ,  8-H ) :   0.9383 B(  6-C ,  9-C ) :   1.0330
B(  9-C , 10-H ) :   0.9607 B(  9-C , 11-H ) :   0.9590 B(  9-C , 12-C ) :   1.0818
B( 12-C , 13-H ) :   0.9724 B( 12-C , 14-H ) :   0.9793 B( 12-C , 15-H ) :   0.9785
B( 16-S , 17-C ) :   1.1774 B( 16-S , 20-C ) :   1.1306 B( 17-C , 18-C ) :   1.5737
B( 17-C , 20-C ) :   0.1037 B( 17-C , 33-H ) :   0.9695 B( 18-C , 19-C ) :   1.2657
B( 18-C , 21-H ) :   0.9877 B( 19-C , 20-C ) :   1.6087 B( 19-C , 22-C ) :   1.0132
B( 22-C , 23-H ) :   0.9334 B( 22-C , 24-H ) :   0.9369 B( 22-C , 25-C ) :   1.0863
B( 25-C , 26-H ) :   0.9482 B( 25-C , 27-H ) :   0.9525 B( 25-C , 28-C ) :   1.0657
B( 28-C , 29-H ) :   0.9758 B( 28-C , 30-H ) :   0.9751 B( 28-C , 31-H ) :   0.9730

Dispersion correction           -0.013925937
FINAL SINGLE POINT ENERGY     -1339.872510706327

DIPOLE MOMENT
-------------
                                X             Y             Z
Electronic contribution:     -2.74354     -26.07385     -11.26205
Nuclear contribution   :      2.98667      26.69533      11.71186
                        -----------------------------------------
Total Dipole Moment    :      0.24313       0.62148       0.44980
                        -----------------------------------------
Magnitude (a.u.)       :      0.80478
Magnitude (Debye)      :      2.04558

Rotational constants in cm-1:     0.017683     0.008309     0.006522
Rotational constants in MHz :   530.137611   249.085234   195.535930

                             ****ORCA TERMINATED NORMALLY****
TOTAL RUN TIME: 0 days 0 hours 0 minutes 21 seconds 255 msec
