                         Program Version 4.2.1 -  RELEASE  -
|  1> ! wB97X-D3 SP def2-SVP
|  2> %pal
|  3> nprocs 24
|  4> end
|  5>
|  6> * xyz 0 1
|  7> S 	 -109.332 	 50.4425 	 -84.3595
|  8> C 	 -108.888 	 49.259 	 -85.5947
|  9> C 	 -109.197 	 49.735 	 -86.8262
| 10> C 	 -109.988 	 50.9759 	 -86.7166
| 11> C 	 -110.137 	 51.4194 	 -85.394
| 12> H 	 -110.443 	 51.5227 	 -87.5898
| 13> C 	 -108.91 	 49.0816 	 -88.1205
| 14> H 	 -109.763 	 48.5989 	 -88.4781
| 15> H 	 -108.091 	 48.3077 	 -88.0717
| 16> C 	 -108.554 	 50.064 	 -89.3182
| 17> H 	 -109.393 	 50.6123 	 -89.7952
| 18> H 	 -107.829 	 50.8725 	 -88.962
| 19> C 	 -107.827 	 49.3341 	 -90.4937
| 20> H 	 -106.836 	 48.9102 	 -90.3293
| 21> H 	 -108.38 	 48.459 	 -90.581
| 22> H 	 -107.902 	 49.9448 	 -91.351
| 23> S 	 -111.7 	 52.7487 	 -83.5232
| 24> C 	 -111.787 	 54.4393 	 -83.608
| 25> C 	 -111.114 	 54.9327 	 -84.693
| 26> C 	 -110.438 	 53.9508 	 -85.4687
| 27> C 	 -110.641 	 52.6667 	 -84.9107
| 28> H 	 -111.092 	 56.0663 	 -84.842
| 29> C 	 -109.551 	 54.3592 	 -86.6063
| 30> H 	 -109.823 	 55.2851 	 -87.039
| 31> H 	 -109.667 	 53.7583 	 -87.4548
| 32> C 	 -108.098 	 54.5026 	 -86.2518
| 33> H 	 -107.512 	 54.5467 	 -87.1612
| 34> H 	 -107.795 	 53.5933 	 -85.7944
| 35> C 	 -107.863 	 55.8154 	 -85.4407
| 36> H 	 -107.834 	 56.727 	 -86.0711
| 37> H 	 -106.826 	 55.748 	 -85.009
| 38> H 	 -108.532 	 55.9125 	 -84.6159
| 39> H 	 -108.246 	 48.4485 	 -85.346
| 40> H 	 -112.341 	 55.1205 	 -82.9182
| 41> *
| 42>
| 43>                          ****END OF INPUT****

CARTESIAN COORDINATES (ANGSTROEM)
---------------------------------
  S    -109.332000   50.442500  -84.359500
  C    -108.888000   49.259000  -85.594700
  C    -109.197000   49.735000  -86.826200
  C    -109.988000   50.975900  -86.716600
  C    -110.137000   51.419400  -85.394000
  H    -110.443000   51.522700  -87.589800
  C    -108.910000   49.081600  -88.120500
  H    -109.763000   48.598900  -88.478100
  H    -108.091000   48.307700  -88.071700
  C    -108.554000   50.064000  -89.318200
  H    -109.393000   50.612300  -89.795200
  H    -107.829000   50.872500  -88.962000
  C    -107.827000   49.334100  -90.493700
  H    -106.836000   48.910200  -90.329300
  H    -108.380000   48.459000  -90.581000
  H    -107.902000   49.944800  -91.351000
  S    -111.700000   52.748700  -83.523200
  C    -111.787000   54.439300  -83.608000
  C    -111.114000   54.932700  -84.693000
  C    -110.438000   53.950800  -85.468700
  C    -110.641000   52.666700  -84.910700
  H    -111.092000   56.066300  -84.842000
  C    -109.551000   54.359200  -86.606300
  H    -109.823000   55.285100  -87.039000
  H    -109.667000   53.758300  -87.454800
  C    -108.098000   54.502600  -86.251800
  H    -107.512000   54.546700  -87.161200
  H    -107.795000   53.593300  -85.794400
  C    -107.863000   55.815400  -85.440700
  H    -107.834000   56.727000  -86.071100
  H    -106.826000   55.748000  -85.009000
  H    -108.532000   55.912500  -84.615900
  H    -108.246000   48.448500  -85.346000
  H    -112.341000   55.120500  -82.918200

 Total Charge           Charge          ....    0
 Multiplicity           Mult            ....    1
 Number of Electrons    NEL             ....  134
 Basis Dimension        Dim             ....  322

ORBITAL ENERGIES
----------------

  NO   OCC          E(Eh)            E(eV)
   0   2.0000     -88.969192     -2420.9748
   1   2.0000     -88.959387     -2420.7080
   2   2.0000     -10.326275      -280.9922
   3   2.0000     -10.321599      -280.8650
   4   2.0000     -10.314769      -280.6791
   5   2.0000     -10.308284      -280.5027
   6   2.0000     -10.304006      -280.3863
   7   2.0000     -10.303732      -280.3788
   8   2.0000     -10.298908      -280.2475
   9   2.0000     -10.298461      -280.2354
  10   2.0000     -10.296434      -280.1802
  11   2.0000     -10.294452      -280.1263
  12   2.0000     -10.277651      -279.6691
  13   2.0000     -10.277510      -279.6653
  14   2.0000     -10.276461      -279.6367
  15   2.0000     -10.272149      -279.5194
  16   2.0000      -8.084719      -219.9964
  17   2.0000      -8.076796      -219.7808
  18   2.0000      -6.043073      -164.4404
  19   2.0000      -6.039006      -164.3297
  20   2.0000      -6.035712      -164.2401
  21   2.0000      -6.035086      -164.2230
  22   2.0000      -6.030811      -164.1067
  23   2.0000      -6.027694      -164.0219
  24   2.0000      -1.017788       -27.6954
  25   2.0000      -0.991808       -26.9885
  26   2.0000      -0.915835       -24.9211
  27   2.0000      -0.914296       -24.8792
  28   2.0000      -0.874325       -23.7916
  29   2.0000      -0.847664       -23.0661
  30   2.0000      -0.842467       -22.9247
  31   2.0000      -0.809043       -22.0152
  32   2.0000      -0.788456       -21.4550
  33   2.0000      -0.777997       -21.1704
  34   2.0000      -0.713559       -19.4169
  35   2.0000      -0.700159       -19.0523
  36   2.0000      -0.688069       -18.7233
  37   2.0000      -0.657488       -17.8912
  38   2.0000      -0.639188       -17.3932
  39   2.0000      -0.618998       -16.8438
  40   2.0000      -0.602829       -16.4038
  41   2.0000      -0.572465       -15.5776
  42   2.0000      -0.563482       -15.3331
  43   2.0000      -0.548503       -14.9255
  44   2.0000      -0.546515       -14.8714
  45   2.0000      -0.529598       -14.4111
  46   2.0000      -0.513328       -13.9684
  47   2.0000      -0.512133       -13.9359
  48   2.0000      -0.505951       -13.7676
  49   2.0000      -0.495521       -13.4838
  50   2.0000      -0.490234       -13.3399
  51   2.0000      -0.487618       -13.2688
  52   2.0000      -0.474397       -12.9090
  53   2.0000      -0.465873       -12.6770
  54   2.0000      -0.464850       -12.6492
  55   2.0000      -0.448105       -12.1936
  56   2.0000      -0.442863       -12.0509
  57   2.0000      -0.434602       -11.8261
  58   2.0000      -0.431603       -11.7445
  59   2.0000      -0.422413       -11.4945
  60   2.0000      -0.420489       -11.4421
  61   2.0000      -0.414838       -11.2883
  62   2.0000      -0.412277       -11.2186
  63   2.0000      -0.349364        -9.5067
  64   2.0000      -0.334626        -9.1056
  65   2.0000      -0.323492        -8.8027
  66   2.0000      -0.292306        -7.9540
  67   0.0000       0.030870         0.8400
  68   0.0000       0.080556         2.1920
  69   0.0000       0.115261         3.1364
  70   0.0000       0.122219         3.3258
  71   0.0000       0.129283         3.5180

MULLIKEN ATOMIC CHARGES
-----------------------
   0 S :    0.100702
   1 C :   -0.124244
   2 C :   -0.066282
   3 C :   -0.010501
   4 C :   -0.131199
   5 H :    0.033828
   6 C :    0.078460
   7 H :    0.034489
   8 H :    0.032935
   9 C :   -0.163318
  10 H :    0.041646
  11 H :    0.043995
  12 C :   -0.009119
  13 H :    0.033678
  14 H :    0.003952
  15 H :    0.031999
  16 S :    0.136406
  17 C :   -0.103300
  18 C :   -0.073574
  19 C :   -0.019267
  20 C :   -0.171668
  21 H :    0.042996
  22 C :    0.123664
  23 H :   -0.009663
  24 H :   -0.010002
  25 C :   -0.034086
  26 H :    0.019335
  27 H :    0.024318
  28 C :   -0.072798
  29 H :    0.036378
  30 H :    0.034151
  31 H :    0.037444
  32 H :    0.039680
  33 H :    0.068966
Sum of atomic charges:   -0.0000000

LOEWDIN ATOMIC CHARGES
----------------------
   0 S :    0.446845
   1 C :   -0.192785
   2 C :   -0.058499
   3 C :   -0.077332
   4 C :   -0.231364
   5 H :    0.035961
   6 C :   -0.031982
   7 H :    0.029785
   8 H :    0.037714
   9 C :   -0.043645
  10 H :    0.025585
  11 H :    0.026245
  12 C :   -0.061397
  13 H :    0.026839
  14 H :    0.014944
  15 H :    0.023009
  16 S :    0.437821
  17 C :   -0.215647
  18 C :   -0.084561
  19 C :   -0.044461
  20 C :   -0.210849
  21 H :    0.042667
  22 C :   -0.031747
  23 H :    0.025314
  24 H :    0.020479
  25 C :   -0.028102
  26 H :    0.024318
  27 H :    0.020575
  28 C :   -0.067639
  29 H :    0.027637
  30 H :    0.032018
  31 H :    0.019162
  32 H :    0.021469
  33 H :    0.041620

  Mayer bond orders larger than 0.100000
B(  0-S ,  1-C ) :   1.1260 B(  0-S ,  4-C ) :   1.2034 B(  1-C ,  2-C ) :   1.6100
B(  1-C , 32-H ) :   0.9795 B(  2-C ,  3-C ) :   1.2226 B(  2-C ,  6-C ) :   1.0466
B(  3-C ,  4-C ) :   1.5453 B(  3-C ,  5-H ) :   0.9871 B(  4-C , 20-C ) :   1.0355
B(  6-C ,  7-H ) :   0.9251 B(  6-C ,  8-H ) :   0.9503 B(  6-C ,  9-C ) :   1.0417
B(  9-C , 10-H ) :   0.9534 B(  9-C , 11-H ) :   0.9664 B(  9-C , 12-C ) :   1.0775
B( 12-C , 13-H ) :   0.9748 B( 12-C , 14-H ) :   0.9711 B( 12-C , 15-H ) :   0.9751
B( 16-S , 17-C ) :   1.1679 B( 16-S , 20-C ) :   1.1604 B( 17-C , 18-C ) :   1.5968
B( 17-C , 20-C ) :   0.1015 B( 17-C , 33-H ) :   0.9590 B( 18-C , 19-C ) :   1.2750
B( 18-C , 21-H ) :   0.9735 B( 19-C , 20-C ) :   1.5441 B( 19-C , 22-C ) :   1.0557
B( 22-C , 23-H ) :   0.9201 B( 22-C , 24-H ) :   0.9166 B( 22-C , 25-C ) :   1.0827
B( 25-C , 26-H ) :   0.9500 B( 25-C , 27-H ) :   0.9584 B( 25-C , 28-C ) :   1.0710
B( 28-C , 29-H ) :   0.9746 B( 28-C , 30-H ) :   0.9730 B( 28-C , 31-H ) :   0.9774

Dispersion correction           -0.014721144
FINAL SINGLE POINT ENERGY     -1339.867366551416

DIPOLE MOMENT
-------------
                                X             Y             Z
Electronic contribution:    -15.23912      -5.13551      24.36144
Nuclear contribution   :     15.48145       5.31987     -24.97321
                        -----------------------------------------
Total Dipole Moment    :      0.24233       0.18435      -0.61177
                        -----------------------------------------
Magnitude (a.u.)       :      0.68336
Magnitude (Debye)      :      1.73696

Rotational constants in cm-1:     0.019992     0.008703     0.006941
Rotational constants in MHz :   599.352700   260.908599   208.099576

                             ****ORCA TERMINATED NORMALLY****
TOTAL RUN TIME: 0 days 0 hours 0 minutes 22 seconds 285 msec
