                         Program Version 4.2.1 -  RELEASE  -
|  1> ! wB97X-D3 SP def2-SVP
|  2> %pal
|  3> nprocs 24
|  4> end
|  5>
|  6> * xyz 0 1
|  7> S 	 -125.688 	 64.5765 	 -48.5066
|  8> C 	 -124.352 	 65.0321 	 -49.4756
|  9> C 	 -124.728 	 65.4827 	 -50.7167
| 10> C 	 -126.137 	 65.2776 	 -50.9445
| 11> C 	 -126.872 	 64.8446 	 -49.7818
| 12> H 	 -126.784 	 65.4585 	 -51.7636
| 13> C 	 -123.68 	 65.8993 	 -51.7436
| 14> H 	 -122.858 	 66.2991 	 -51.1759
| 15> H 	 -124.099 	 66.7476 	 -52.3726
| 16> C 	 -122.987 	 64.8165 	 -52.5864
| 17> H 	 -122.647 	 63.9454 	 -51.97
| 18> H 	 -123.725 	 64.4618 	 -53.2589
| 19> C 	 -121.734 	 65.3742 	 -53.3826
| 20> H 	 -122.065 	 66.0966 	 -54.2061
| 21> H 	 -120.959 	 65.9099 	 -52.802
| 22> H 	 -121.287 	 64.6254 	 -53.9899
| 23> S 	 -128.935 	 62.989 	 -49.2826
| 24> C 	 -130.612 	 63.4617 	 -49.5454
| 25> C 	 -130.662 	 64.7502 	 -50.0542
| 26> C 	 -129.4 	 65.3888 	 -50.2057
| 27> C 	 -128.341 	 64.6473 	 -49.7257
| 28> H 	 -131.619 	 65.1865 	 -50.2421
| 29> C 	 -129.257 	 66.7774 	 -50.8179
| 30> H 	 -130.309 	 67.0412 	 -51.2012
| 31> H 	 -128.581 	 66.6055 	 -51.6715
| 32> C 	 -128.885 	 67.9945 	 -49.8181
| 33> H 	 -127.87 	 67.668 	 -49.4626
| 34> H 	 -129.524 	 68.0774 	 -48.876
| 35> C 	 -128.89 	 69.4485 	 -50.5289
| 36> H 	 -128.25 	 69.5874 	 -51.4302
| 37> H 	 -128.792 	 70.2198 	 -49.7823
| 38> H 	 -129.905 	 69.6439 	 -50.7949
| 39> H 	 -123.372 	 65.1124 	 -48.9846
| 40> H 	 -131.46 	 62.8218 	 -49.4651
| 41> *
| 42>
| 43>                          ****END OF INPUT****

CARTESIAN COORDINATES (ANGSTROEM)
---------------------------------
  S    -125.688000   64.576500  -48.506600
  C    -124.352000   65.032100  -49.475600
  C    -124.728000   65.482700  -50.716700
  C    -126.137000   65.277600  -50.944500
  C    -126.872000   64.844600  -49.781800
  H    -126.784000   65.458500  -51.763600
  C    -123.680000   65.899300  -51.743600
  H    -122.858000   66.299100  -51.175900
  H    -124.099000   66.747600  -52.372600
  C    -122.987000   64.816500  -52.586400
  H    -122.647000   63.945400  -51.970000
  H    -123.725000   64.461800  -53.258900
  C    -121.734000   65.374200  -53.382600
  H    -122.065000   66.096600  -54.206100
  H    -120.959000   65.909900  -52.802000
  H    -121.287000   64.625400  -53.989900
  S    -128.935000   62.989000  -49.282600
  C    -130.612000   63.461700  -49.545400
  C    -130.662000   64.750200  -50.054200
  C    -129.400000   65.388800  -50.205700
  C    -128.341000   64.647300  -49.725700
  H    -131.619000   65.186500  -50.242100
  C    -129.257000   66.777400  -50.817900
  H    -130.309000   67.041200  -51.201200
  H    -128.581000   66.605500  -51.671500
  C    -128.885000   67.994500  -49.818100
  H    -127.870000   67.668000  -49.462600
  H    -129.524000   68.077400  -48.876000
  C    -128.890000   69.448500  -50.528900
  H    -128.250000   69.587400  -51.430200
  H    -128.792000   70.219800  -49.782300
  H    -129.905000   69.643900  -50.794900
  H    -123.372000   65.112400  -48.984600
  H    -131.460000   62.821800  -49.465100

 Total Charge           Charge          ....    0
 Multiplicity           Mult            ....    1
 Number of Electrons    NEL             ....  134
 Basis Dimension        Dim             ....  322

ORBITAL ENERGIES
----------------

  NO   OCC          E(Eh)            E(eV)
   0   2.0000     -88.967654     -2420.9329
   1   2.0000     -88.963823     -2420.8287
   2   2.0000     -10.337555      -281.2992
   3   2.0000     -10.334067      -281.2043
   4   2.0000     -10.319792      -280.8158
   5   2.0000     -10.315162      -280.6898
   6   2.0000     -10.306836      -280.4633
   7   2.0000     -10.306410      -280.4517
   8   2.0000     -10.305931      -280.4386
   9   2.0000     -10.305703      -280.4324
  10   2.0000     -10.300871      -280.3009
  11   2.0000     -10.295727      -280.1610
  12   2.0000     -10.293703      -280.1059
  13   2.0000     -10.292231      -280.0658
  14   2.0000     -10.286945      -279.9220
  15   2.0000     -10.283511      -279.8286
  16   2.0000      -8.082677      -219.9408
  17   2.0000      -8.077531      -219.8008
  18   2.0000      -6.041100      -164.3867
  19   2.0000      -6.036877      -164.2718
  20   2.0000      -6.036158      -164.2522
  21   2.0000      -6.033767      -164.1872
  22   2.0000      -6.032168      -164.1436
  23   2.0000      -6.028232      -164.0365
  24   2.0000      -1.001133       -27.2422
  25   2.0000      -0.982286       -26.7294
  26   2.0000      -0.905901       -24.6508
  27   2.0000      -0.891040       -24.2464
  28   2.0000      -0.865862       -23.5613
  29   2.0000      -0.846083       -23.0231
  30   2.0000      -0.841189       -22.8899
  31   2.0000      -0.812260       -22.1027
  32   2.0000      -0.779433       -21.2094
  33   2.0000      -0.769912       -20.9504
  34   2.0000      -0.708434       -19.2775
  35   2.0000      -0.699723       -19.0404
  36   2.0000      -0.690600       -18.7922
  37   2.0000      -0.664618       -18.0852
  38   2.0000      -0.649796       -17.6819
  39   2.0000      -0.611585       -16.6421
  40   2.0000      -0.585517       -15.9327
  41   2.0000      -0.569125       -15.4867
  42   2.0000      -0.560025       -15.2391
  43   2.0000      -0.549391       -14.9497
  44   2.0000      -0.526174       -14.3179
  45   2.0000      -0.516180       -14.0460
  46   2.0000      -0.515031       -14.0147
  47   2.0000      -0.507468       -13.8089
  48   2.0000      -0.504105       -13.7174
  49   2.0000      -0.500001       -13.6057
  50   2.0000      -0.490317       -13.3422
  51   2.0000      -0.474243       -12.9048
  52   2.0000      -0.470153       -12.7935
  53   2.0000      -0.466836       -12.7032
  54   2.0000      -0.458810       -12.4848
  55   2.0000      -0.450089       -12.2475
  56   2.0000      -0.441642       -12.0177
  57   2.0000      -0.438091       -11.9211
  58   2.0000      -0.430071       -11.7028
  59   2.0000      -0.427733       -11.6392
  60   2.0000      -0.417591       -11.3632
  61   2.0000      -0.414420       -11.2770
  62   2.0000      -0.404429       -11.0051
  63   2.0000      -0.345562        -9.4032
  64   2.0000      -0.331835        -9.0297
  65   2.0000      -0.330127        -8.9832
  66   2.0000      -0.293680        -7.9914
  67   0.0000       0.025059         0.6819
  68   0.0000       0.065269         1.7761
  69   0.0000       0.110967         3.0196
  70   0.0000       0.118284         3.2187
  71   0.0000       0.137942         3.7536

MULLIKEN ATOMIC CHARGES
-----------------------
   0 S :    0.122415
   1 C :   -0.138597
   2 C :   -0.055447
   3 C :    0.046060
   4 C :   -0.185448
   5 H :   -0.006162
   6 C :    0.043818
   7 H :    0.009256
   8 H :    0.039803
   9 C :   -0.048742
  10 H :    0.040994
  11 H :    0.023655
  12 C :   -0.078372
  13 H :    0.030432
  14 H :    0.044183
  15 H :    0.030397
  16 S :    0.085946
  17 C :   -0.077002
  18 C :   -0.031463
  19 C :   -0.035986
  20 C :   -0.145353
  21 H :    0.011062
  22 C :    0.032801
  23 H :    0.025316
  24 H :    0.042974
  25 C :   -0.104689
  26 H :    0.050355
  27 H :    0.049913
  28 C :   -0.039897
  29 H :    0.051948
  30 H :    0.029565
  31 H :    0.015277
  32 H :    0.068497
  33 H :    0.052493
Sum of atomic charges:   -0.0000000

LOEWDIN ATOMIC CHARGES
----------------------
   0 S :    0.425796
   1 C :   -0.205576
   2 C :   -0.069044
   3 C :   -0.055340
   4 C :   -0.203722
   5 H :    0.021716
   6 C :   -0.037287
   7 H :    0.025633
   8 H :    0.037079
   9 C :   -0.034916
  10 H :    0.030881
  11 H :    0.019009
  12 C :   -0.074419
  13 H :    0.031819
  14 H :    0.027170
  15 H :    0.021935
  16 S :    0.374309
  17 C :   -0.170749
  18 C :   -0.071219
  19 C :   -0.059463
  20 C :   -0.181160
  21 H :    0.028162
  22 C :   -0.037240
  23 H :    0.032859
  24 H :    0.032512
  25 C :   -0.040950
  26 H :    0.026596
  27 H :    0.035745
  28 C :   -0.071678
  29 H :    0.032014
  30 H :    0.027059
  31 H :    0.020517
  32 H :    0.034728
  33 H :    0.027224

  Mayer bond orders larger than 0.100000
B(  0-S ,  1-C ) :   1.1712 B(  0-S ,  4-C ) :   1.1667 B(  1-C ,  2-C ) :   1.5664
B(  1-C ,  4-C ) :   0.1006 B(  1-C , 32-H ) :   0.9652 B(  2-C ,  3-C ) :   1.2479
B(  2-C ,  6-C ) :   1.0372 B(  3-C ,  4-C ) :   1.5335 B(  3-C ,  5-H ) :   0.9999
B(  4-C , 20-C ) :   1.0473 B(  6-C ,  7-H ) :   0.9377 B(  6-C ,  8-H ) :   0.9413
B(  6-C ,  9-C ) :   1.0584 B(  9-C , 10-H ) :   0.9567 B(  9-C , 11-H ) :   0.9560
B(  9-C , 12-C ) :   1.0716 B( 12-C , 13-H ) :   0.9747 B( 12-C , 14-H ) :   0.9777
B( 12-C , 15-H ) :   0.9754 B( 16-S , 17-C ) :   1.1548 B( 16-S , 20-C ) :   1.1226
B( 17-C , 18-C ) :   1.6074 B( 17-C , 20-C ) :   0.1002 B( 17-C , 33-H ) :   0.9694
B( 18-C , 19-C ) :   1.2471 B( 18-C , 21-H ) :   0.9923 B( 19-C , 20-C ) :   1.5999
B( 19-C , 22-C ) :   1.0285 B( 22-C , 23-H ) :   0.9391 B( 22-C , 24-H ) :   0.9373
B( 22-C , 25-C ) :   1.0365 B( 25-C , 26-H ) :   0.9610 B( 25-C , 27-H ) :   0.9590
B( 25-C , 28-C ) :   1.0640 B( 28-C , 29-H ) :   0.9787 B( 28-C , 30-H ) :   0.9747
B( 28-C , 31-H ) :   0.9732

Dispersion correction           -0.013830141
FINAL SINGLE POINT ENERGY     -1339.863119614622

DIPOLE MOMENT
-------------
                                X             Y             Z
Electronic contribution:    -10.53483     -19.64674      17.24196
Nuclear contribution   :     10.53236      20.09653     -17.70980
                        -----------------------------------------
Total Dipole Moment    :     -0.00247       0.44978      -0.46784
                        -----------------------------------------
Magnitude (a.u.)       :      0.64899
Magnitude (Debye)      :      1.64959

Rotational constants in cm-1:     0.017735     0.007763     0.006377
Rotational constants in MHz :   531.684377   232.734476   191.170810

                             ****ORCA TERMINATED NORMALLY****
TOTAL RUN TIME: 0 days 0 hours 0 minutes 20 seconds 925 msec
