                         Program Version 4.2.1 -  RELEASE  -
|  1> ! wB97X-D3 SP def2-SVP
|  2> %pal
|  3> nprocs 24
|  4> end
|  5>
|  6> * xyz 0 1
|  7> S 	 -61.1838 	 9.67162 	 21.3253
|  8> C 	 -59.7562 	 10.4683 	 20.7184
|  9> C 	 -58.6691 	 10.2961 	 21.5994
| 10> C 	 -59.0326 	 9.3627 	 22.6419
| 11> C 	 -60.3548 	 8.87037 	 22.6327
| 12> H 	 -58.382 	 8.97803 	 23.3601
| 13> C 	 -57.3532 	 10.9662 	 21.5104
| 14> H 	 -57.0463 	 10.6641 	 20.5442
| 15> H 	 -56.5798 	 10.4533 	 22.104
| 16> C 	 -57.3749 	 12.5541 	 21.6836
| 17> H 	 -56.4512 	 12.9915 	 21.5219
| 18> H 	 -58.0265 	 12.8884 	 20.8723
| 19> C 	 -57.7539 	 13.0349 	 23.1714
| 20> H 	 -57.7676 	 14.1469 	 23.0111
| 21> H 	 -58.7355 	 12.8636 	 23.5585
| 22> H 	 -56.9127 	 12.805 	 23.9081
| 23> S 	 -61.3882 	 7.83763 	 25.0619
| 24> C 	 -61.7949 	 6.143 	 25.1791
| 25> C 	 -61.6198 	 5.5132 	 23.9936
| 26> C 	 -61.1167 	 6.34113 	 22.9195
| 27> C 	 -60.9 	 7.66651 	 23.3343
| 28> H 	 -61.8705 	 4.47366 	 23.8914
| 29> C 	 -60.518 	 5.78206 	 21.6853
| 30> H 	 -59.5573 	 5.3992 	 22.0129
| 31> H 	 -60.2153 	 6.67585 	 21.1076
| 32> C 	 -61.3585 	 4.77472 	 20.918
| 33> H 	 -61.6292 	 3.90818 	 21.4143
| 34> H 	 -60.8022 	 4.49351 	 20.0336
| 35> C 	 -62.7149 	 5.36751 	 20.6048
| 36> H 	 -63.3375 	 5.1133 	 21.4156
| 37> H 	 -63.2242 	 4.98934 	 19.7276
| 38> H 	 -62.6896 	 6.47915 	 20.492
| 39> H 	 -59.6647 	 11.0424 	 19.8063
| 40> H 	 -62.1353 	 5.69217 	 26.1004
| 41> *
| 42>
| 43>                          ****END OF INPUT****

CARTESIAN COORDINATES (ANGSTROEM)
---------------------------------
  S    -61.183800    9.671620   21.325300
  C    -59.756200   10.468300   20.718400
  C    -58.669100   10.296100   21.599400
  C    -59.032600    9.362700   22.641900
  C    -60.354800    8.870370   22.632700
  H    -58.382000    8.978030   23.360100
  C    -57.353200   10.966200   21.510400
  H    -57.046300   10.664100   20.544200
  H    -56.579800   10.453300   22.104000
  C    -57.374900   12.554100   21.683600
  H    -56.451200   12.991500   21.521900
  H    -58.026500   12.888400   20.872300
  C    -57.753900   13.034900   23.171400
  H    -57.767600   14.146900   23.011100
  H    -58.735500   12.863600   23.558500
  H    -56.912700   12.805000   23.908100
  S    -61.388200    7.837630   25.061900
  C    -61.794900    6.143000   25.179100
  C    -61.619800    5.513200   23.993600
  C    -61.116700    6.341130   22.919500
  C    -60.900000    7.666510   23.334300
  H    -61.870500    4.473660   23.891400
  C    -60.518000    5.782060   21.685300
  H    -59.557300    5.399200   22.012900
  H    -60.215300    6.675850   21.107600
  C    -61.358500    4.774720   20.918000
  H    -61.629200    3.908180   21.414300
  H    -60.802200    4.493510   20.033600
  C    -62.714900    5.367510   20.604800
  H    -63.337500    5.113300   21.415600
  H    -63.224200    4.989340   19.727600
  H    -62.689600    6.479150   20.492000
  H    -59.664700   11.042400   19.806300
  H    -62.135300    5.692170   26.100400

 Total Charge           Charge          ....    0
 Multiplicity           Mult            ....    1
 Number of Electrons    NEL             ....  134
 Basis Dimension        Dim             ....  322

ORBITAL ENERGIES
----------------

  NO   OCC          E(Eh)            E(eV)
   0   2.0000     -88.968081     -2420.9446
   1   2.0000     -88.959690     -2420.7162
   2   2.0000     -10.332625      -281.1650
   3   2.0000     -10.332163      -281.1524
   4   2.0000     -10.317916      -280.7648
   5   2.0000     -10.316241      -280.7192
   6   2.0000     -10.304643      -280.4036
   7   2.0000     -10.304404      -280.3971
   8   2.0000     -10.296195      -280.1737
   9   2.0000     -10.293253      -280.0937
  10   2.0000     -10.291104      -280.0352
  11   2.0000     -10.290392      -280.0158
  12   2.0000     -10.288820      -279.9730
  13   2.0000     -10.285846      -279.8921
  14   2.0000     -10.276070      -279.6261
  15   2.0000     -10.265715      -279.3443
  16   2.0000      -8.082280      -219.9300
  17   2.0000      -8.074009      -219.7050
  18   2.0000      -6.040766      -164.3776
  19   2.0000      -6.036572      -164.2635
  20   2.0000      -6.033367      -164.1763
  21   2.0000      -6.032565      -164.1544
  22   2.0000      -6.028564      -164.0456
  23   2.0000      -6.024763      -163.9421
  24   2.0000      -0.998478       -27.1700
  25   2.0000      -0.980542       -26.6819
  26   2.0000      -0.915045       -24.8996
  27   2.0000      -0.905369       -24.6363
  28   2.0000      -0.862056       -23.4577
  29   2.0000      -0.845973       -23.0201
  30   2.0000      -0.843039       -22.9403
  31   2.0000      -0.813400       -22.1337
  32   2.0000      -0.782554       -21.2944
  33   2.0000      -0.769866       -20.9491
  34   2.0000      -0.710701       -19.3392
  35   2.0000      -0.706399       -19.2221
  36   2.0000      -0.694668       -18.9029
  37   2.0000      -0.652860       -17.7652
  38   2.0000      -0.641912       -17.4673
  39   2.0000      -0.609947       -16.5975
  40   2.0000      -0.597884       -16.2693
  41   2.0000      -0.575712       -15.6659
  42   2.0000      -0.560170       -15.2430
  43   2.0000      -0.547148       -14.8887
  44   2.0000      -0.542456       -14.7610
  45   2.0000      -0.539041       -14.6681
  46   2.0000      -0.523263       -14.2387
  47   2.0000      -0.507936       -13.8217
  48   2.0000      -0.501797       -13.6546
  49   2.0000      -0.492132       -13.3916
  50   2.0000      -0.484208       -13.1760
  51   2.0000      -0.474835       -12.9209
  52   2.0000      -0.468171       -12.7396
  53   2.0000      -0.460847       -12.5403
  54   2.0000      -0.457574       -12.4512
  55   2.0000      -0.446125       -12.1397
  56   2.0000      -0.438393       -11.9293
  57   2.0000      -0.436793       -11.8858
  58   2.0000      -0.427471       -11.6321
  59   2.0000      -0.424166       -11.5422
  60   2.0000      -0.422620       -11.5001
  61   2.0000      -0.419771       -11.4226
  62   2.0000      -0.410492       -11.1701
  63   2.0000      -0.333294        -9.0694
  64   2.0000      -0.327768        -8.9190
  65   2.0000      -0.318776        -8.6743
  66   2.0000      -0.305262        -8.3066
  67   0.0000       0.034559         0.9404
  68   0.0000       0.059384         1.6159
  69   0.0000       0.115892         3.1536
  70   0.0000       0.120183         3.2703
  71   0.0000       0.130160         3.5418

MULLIKEN ATOMIC CHARGES
-----------------------
   0 S :    0.126858
   1 C :   -0.132452
   2 C :   -0.092893
   3 C :    0.066654
   4 C :   -0.182533
   5 H :   -0.013916
   6 C :    0.072305
   7 H :    0.016163
   8 H :    0.017211
   9 C :   -0.033950
  10 H :    0.018415
  11 H :    0.029378
  12 C :   -0.091515
  13 H :    0.034627
  14 H :    0.049826
  15 H :    0.054110
  16 S :    0.087857
  17 C :   -0.084916
  18 C :   -0.024902
  19 C :   -0.030604
  20 C :   -0.184981
  21 H :    0.014970
  22 C :    0.055003
  23 H :    0.037821
  24 H :    0.035271
  25 C :   -0.016017
  26 H :    0.011422
  27 H :    0.027639
  28 C :   -0.058064
  29 H :    0.019151
  30 H :    0.027721
  31 H :    0.035956
  32 H :    0.050377
  33 H :    0.058007
Sum of atomic charges:    0.0000000

LOEWDIN ATOMIC CHARGES
----------------------
   0 S :    0.424164
   1 C :   -0.201722
   2 C :   -0.061198
   3 C :   -0.049247
   4 C :   -0.215308
   5 H :    0.019081
   6 C :   -0.041715
   7 H :    0.029281
   8 H :    0.031015
   9 C :   -0.022219
  10 H :    0.015169
  11 H :    0.024567
  12 C :   -0.072960
  13 H :    0.032907
  14 H :    0.022753
  15 H :    0.036403
  16 S :    0.377971
  17 C :   -0.174589
  18 C :   -0.076745
  19 C :   -0.047788
  20 C :   -0.191123
  21 H :    0.028654
  22 C :   -0.032836
  23 H :    0.036443
  24 H :    0.036780
  25 C :   -0.036467
  26 H :    0.015035
  27 H :    0.025894
  28 C :   -0.062632
  29 H :    0.019658
  30 H :    0.024034
  31 H :    0.027740
  32 H :    0.028519
  33 H :    0.030482

  Mayer bond orders larger than 0.100000
B(  0-S ,  1-C ) :   1.1666 B(  0-S ,  4-C ) :   1.1567 B(  1-C ,  2-C ) :   1.5589
B(  1-C ,  4-C ) :   0.1005 B(  1-C , 32-H ) :   0.9694 B(  2-C ,  3-C ) :   1.2683
B(  2-C ,  6-C ) :   1.0187 B(  3-C ,  4-C ) :   1.5535 B(  3-C ,  5-H ) :   1.0015
B(  4-C , 20-C ) :   1.0049 B(  6-C ,  7-H ) :   0.9312 B(  6-C ,  8-H ) :   0.9439
B(  6-C ,  9-C ) :   1.0600 B(  9-C , 10-H ) :   0.9587 B(  9-C , 11-H ) :   0.9603
B(  9-C , 12-C ) :   1.0575 B( 12-C , 13-H ) :   0.9753 B( 12-C , 14-H ) :   0.9806
B( 12-C , 15-H ) :   0.9758 B( 16-S , 17-C ) :   1.1517 B( 16-S , 20-C ) :   1.1297
B( 17-C , 18-C ) :   1.6290 B( 17-C , 33-H ) :   0.9677 B( 18-C , 19-C ) :   1.2122
B( 18-C , 21-H ) :   0.9904 B( 19-C , 20-C ) :   1.6015 B( 19-C , 22-C ) :   1.0428
B( 22-C , 23-H ) :   0.9351 B( 22-C , 24-H ) :   0.9300 B( 22-C , 25-C ) :   1.0702
B( 25-C , 26-H ) :   0.9597 B( 25-C , 27-H ) :   0.9550 B( 25-C , 28-C ) :   1.0675
B( 28-C , 29-H ) :   0.9731 B( 28-C , 30-H ) :   0.9739 B( 28-C , 31-H ) :   0.9769

Dispersion correction           -0.014982346
FINAL SINGLE POINT ENERGY     -1339.860036286255

DIPOLE MOMENT
-------------
                                X             Y             Z
Electronic contribution:     -9.64822      -1.49061       9.61163
Nuclear contribution   :     10.20065       1.30934      -9.89273
                        -----------------------------------------
Total Dipole Moment    :      0.55244      -0.18128      -0.28110
                        -----------------------------------------
Magnitude (a.u.)       :      0.64580
Magnitude (Debye)      :      1.64150

Rotational constants in cm-1:     0.023180     0.007713     0.006524
Rotational constants in MHz :   694.913777   231.224045   195.592809

                             ****ORCA TERMINATED NORMALLY****
TOTAL RUN TIME: 0 days 0 hours 0 minutes 21 seconds 422 msec
