                         Program Version 4.2.1 -  RELEASE  -
|  1> ! wB97X-D3 SP def2-SVP
|  2> %pal
|  3> nprocs 24
|  4> end
|  5>
|  6> * xyz 0 1
|  7> S 	 -129.714 	 68.2261 	 -50.1079
|  8> C 	 -131.115 	 68.3774 	 -51.1542
|  9> C 	 -130.758 	 68.5348 	 -52.4761
| 10> C 	 -129.386 	 68.816 	 -52.5963
| 11> C 	 -128.66 	 68.6564 	 -51.425
| 12> H 	 -128.813 	 68.9546 	 -53.5454
| 13> C 	 -131.698 	 68.4874 	 -53.6711
| 14> H 	 -132.659 	 67.9377 	 -53.4869
| 15> H 	 -131.1 	 68.09 	 -54.5123
| 16> C 	 -132.091 	 69.8815 	 -54.1001
| 17> H 	 -131.108 	 70.2095 	 -54.3634
| 18> H 	 -132.646 	 69.8826 	 -55.0546
| 19> C 	 -132.682 	 70.805 	 -53.0824
| 20> H 	 -133.174 	 71.7511 	 -53.4189
| 21> H 	 -133.464 	 70.312 	 -52.5118
| 22> H 	 -131.891 	 71.0332 	 -52.3052
| 23> S 	 -126.583 	 70.4584 	 -50.9832
| 24> C 	 -124.93 	 69.8554 	 -50.7779
| 25> C 	 -124.921 	 68.5326 	 -51.0738
| 26> C 	 -126.173 	 68.0016 	 -51.5791
| 27> C 	 -127.214 	 68.8712 	 -51.2758
| 28> H 	 -123.99 	 68.0073 	 -51.1382
| 29> C 	 -126.294 	 66.5676 	 -52.0239
| 30> H 	 -127.366 	 66.274 	 -52.3321
| 31> H 	 -125.946 	 66.0366 	 -51.1169
| 32> C 	 -125.414 	 66.2492 	 -53.2244
| 33> H 	 -125.527 	 65.2471 	 -53.5308
| 34> H 	 -124.433 	 66.3118 	 -52.8891
| 35> C 	 -125.586 	 67.1124 	 -54.4682
| 36> H 	 -126.586 	 67.3592 	 -54.9109
| 37> H 	 -124.997 	 66.7691 	 -55.2475
| 38> H 	 -125.198 	 68.0805 	 -54.1821
| 39> H 	 -132.16 	 68.2597 	 -50.8535
| 40> H 	 -124.084 	 70.5414 	 -50.5757
| 41> *
| 42>
| 43>                          ****END OF INPUT****

CARTESIAN COORDINATES (ANGSTROEM)
---------------------------------
  S    -129.714000   68.226100  -50.107900
  C    -131.115000   68.377400  -51.154200
  C    -130.758000   68.534800  -52.476100
  C    -129.386000   68.816000  -52.596300
  C    -128.660000   68.656400  -51.425000
  H    -128.813000   68.954600  -53.545400
  C    -131.698000   68.487400  -53.671100
  H    -132.659000   67.937700  -53.486900
  H    -131.100000   68.090000  -54.512300
  C    -132.091000   69.881500  -54.100100
  H    -131.108000   70.209500  -54.363400
  H    -132.646000   69.882600  -55.054600
  C    -132.682000   70.805000  -53.082400
  H    -133.174000   71.751100  -53.418900
  H    -133.464000   70.312000  -52.511800
  H    -131.891000   71.033200  -52.305200
  S    -126.583000   70.458400  -50.983200
  C    -124.930000   69.855400  -50.777900
  C    -124.921000   68.532600  -51.073800
  C    -126.173000   68.001600  -51.579100
  C    -127.214000   68.871200  -51.275800
  H    -123.990000   68.007300  -51.138200
  C    -126.294000   66.567600  -52.023900
  H    -127.366000   66.274000  -52.332100
  H    -125.946000   66.036600  -51.116900
  C    -125.414000   66.249200  -53.224400
  H    -125.527000   65.247100  -53.530800
  H    -124.433000   66.311800  -52.889100
  C    -125.586000   67.112400  -54.468200
  H    -126.586000   67.359200  -54.910900
  H    -124.997000   66.769100  -55.247500
  H    -125.198000   68.080500  -54.182100
  H    -132.160000   68.259700  -50.853500
  H    -124.084000   70.541400  -50.575700

 Total Charge           Charge          ....    0
 Multiplicity           Mult            ....    1
 Number of Electrons    NEL             ....  134
 Basis Dimension        Dim             ....  322

ORBITAL ENERGIES
----------------

  NO   OCC          E(Eh)            E(eV)
   0   2.0000     -88.968986     -2420.9692
   1   2.0000     -88.959313     -2420.7060
   2   2.0000     -10.327777      -281.0331
   3   2.0000     -10.323747      -280.9234
   4   2.0000     -10.321364      -280.8586
   5   2.0000     -10.314625      -280.6752
   6   2.0000     -10.304164      -280.3906
   7   2.0000     -10.299324      -280.2588
   8   2.0000     -10.297535      -280.2102
   9   2.0000     -10.296602      -280.1848
  10   2.0000     -10.295720      -280.1608
  11   2.0000     -10.293176      -280.0915
  12   2.0000     -10.278869      -279.7022
  13   2.0000     -10.277839      -279.6742
  14   2.0000     -10.277205      -279.6570
  15   2.0000     -10.271513      -279.5021
  16   2.0000      -8.083524      -219.9639
  17   2.0000      -8.074448      -219.7169
  18   2.0000      -6.041989      -164.4109
  19   2.0000      -6.038075      -164.3044
  20   2.0000      -6.034323      -164.2023
  21   2.0000      -6.033042      -164.1674
  22   2.0000      -6.028956      -164.0562
  23   2.0000      -6.025022      -163.9492
  24   2.0000      -1.007822       -27.4242
  25   2.0000      -0.987666       -26.8758
  26   2.0000      -0.919756       -25.0278
  27   2.0000      -0.913608       -24.8605
  28   2.0000      -0.868488       -23.6328
  29   2.0000      -0.846953       -23.0468
  30   2.0000      -0.846343       -23.0302
  31   2.0000      -0.812817       -22.1179
  32   2.0000      -0.786372       -21.3983
  33   2.0000      -0.776968       -21.1424
  34   2.0000      -0.709239       -19.2994
  35   2.0000      -0.696260       -18.9462
  36   2.0000      -0.688591       -18.7375
  37   2.0000      -0.656514       -17.8647
  38   2.0000      -0.637840       -17.3565
  39   2.0000      -0.618863       -16.8401
  40   2.0000      -0.597841       -16.2681
  41   2.0000      -0.570487       -15.5237
  42   2.0000      -0.560054       -15.2399
  43   2.0000      -0.551255       -15.0004
  44   2.0000      -0.547803       -14.9065
  45   2.0000      -0.544790       -14.8245
  46   2.0000      -0.517311       -14.0768
  47   2.0000      -0.509449       -13.8628
  48   2.0000      -0.497027       -13.5248
  49   2.0000      -0.492693       -13.4068
  50   2.0000      -0.485427       -13.2091
  51   2.0000      -0.482094       -13.1184
  52   2.0000      -0.469715       -12.7816
  53   2.0000      -0.465958       -12.6794
  54   2.0000      -0.464566       -12.6415
  55   2.0000      -0.450022       -12.2457
  56   2.0000      -0.447348       -12.1730
  57   2.0000      -0.440313       -11.9815
  58   2.0000      -0.434389       -11.8203
  59   2.0000      -0.418745       -11.3946
  60   2.0000      -0.418004       -11.3745
  61   2.0000      -0.411361       -11.1937
  62   2.0000      -0.404549       -11.0083
  63   2.0000      -0.337083        -9.1725
  64   2.0000      -0.328963        -8.9515
  65   2.0000      -0.314318        -8.5530
  66   2.0000      -0.313361        -8.5270
  67   0.0000       0.045299         1.2327
  68   0.0000       0.052241         1.4216
  69   0.0000       0.105177         2.8620
  70   0.0000       0.116495         3.1700
  71   0.0000       0.130723         3.5571

MULLIKEN ATOMIC CHARGES
-----------------------
   0 S :    0.130386
   1 C :   -0.130208
   2 C :   -0.100088
   3 C :    0.022432
   4 C :   -0.190049
   5 H :    0.030412
   6 C :    0.076892
   7 H :    0.034044
   8 H :    0.033202
   9 C :   -0.067102
  10 H :    0.004657
  11 H :    0.033116
  12 C :   -0.063974
  13 H :    0.046005
  14 H :    0.012066
  15 H :    0.053917
  16 S :    0.099980
  17 C :   -0.106070
  18 C :   -0.013811
  19 C :   -0.047526
  20 C :   -0.165250
  21 H :    0.016156
  22 C :    0.039654
  23 H :    0.048864
  24 H :    0.049692
  25 C :   -0.034301
  26 H :    0.016988
  27 H :    0.002843
  28 C :   -0.038297
  29 H :    0.033979
  30 H :    0.018698
  31 H :    0.025384
  32 H :    0.050318
  33 H :    0.076988
Sum of atomic charges:   -0.0000000

LOEWDIN ATOMIC CHARGES
----------------------
   0 S :    0.418358
   1 C :   -0.196207
   2 C :   -0.068455
   3 C :   -0.067339
   4 C :   -0.202711
   5 H :    0.038775
   6 C :   -0.026013
   7 H :    0.030549
   8 H :    0.038589
   9 C :   -0.051788
  10 H :    0.018148
  11 H :    0.025196
  12 C :   -0.077057
  13 H :    0.033527
  14 H :    0.017790
  15 H :    0.037309
  16 S :    0.395994
  17 C :   -0.176157
  18 C :   -0.075595
  19 C :   -0.053782
  20 C :   -0.211819
  21 H :    0.026561
  22 C :   -0.034130
  23 H :    0.040683
  24 H :    0.041436
  25 C :   -0.035343
  26 H :    0.019103
  27 H :    0.014677
  28 C :   -0.062992
  29 H :    0.029456
  30 H :    0.017685
  31 H :    0.025505
  32 H :    0.030423
  33 H :    0.039623

  Mayer bond orders larger than 0.100000
B(  0-S ,  1-C ) :   1.1500 B(  0-S ,  4-C ) :   1.1608 B(  1-C ,  2-C ) :   1.6000
B(  1-C ,  4-C ) :   0.1003 B(  1-C , 32-H ) :   0.9650 B(  2-C ,  3-C ) :   1.2429
B(  2-C ,  6-C ) :   1.0256 B(  3-C ,  4-C ) :   1.5906 B(  3-C ,  5-H ) :   0.9813
B(  4-C , 20-C ) :   1.0126 B(  6-C ,  7-H ) :   0.9426 B(  6-C ,  8-H ) :   0.9394
B(  6-C ,  9-C ) :   1.0657 B(  9-C , 10-H ) :   0.9557 B(  9-C , 11-H ) :   0.9557
B(  9-C , 12-C ) :   1.0757 B( 12-C , 13-H ) :   0.9733 B( 12-C , 14-H ) :   0.9742
B( 12-C , 15-H ) :   0.9660 B( 16-S , 17-C ) :   1.1412 B( 16-S , 20-C ) :   1.1480
B( 17-C , 18-C ) :   1.6250 B( 17-C , 33-H ) :   0.9671 B( 18-C , 19-C ) :   1.2122
B( 18-C , 21-H ) :   0.9869 B( 19-C , 20-C ) :   1.5959 B( 19-C , 22-C ) :   1.0416
B( 22-C , 23-H ) :   0.9378 B( 22-C , 24-H ) :   0.9424 B( 22-C , 25-C ) :   1.0702
B( 25-C , 26-H ) :   0.9565 B( 25-C , 27-H ) :   0.9503 B( 25-C , 28-C ) :   1.0771
B( 28-C , 29-H ) :   0.9760 B( 28-C , 30-H ) :   0.9716 B( 28-C , 31-H ) :   0.9685

Dispersion correction           -0.015390814
FINAL SINGLE POINT ENERGY     -1339.867420136043

DIPOLE MOMENT
-------------
                                X             Y             Z
Electronic contribution:      5.24348       4.85996      19.24252
Nuclear contribution   :     -5.07685      -5.16606     -19.76076
                        -----------------------------------------
Total Dipole Moment    :      0.16664      -0.30610      -0.51824
                        -----------------------------------------
Magnitude (a.u.)       :      0.62453
Magnitude (Debye)      :      1.58742

Rotational constants in cm-1:     0.020932     0.008243     0.007410
Rotational constants in MHz :   627.538738   247.121613   222.157815

                             ****ORCA TERMINATED NORMALLY****
TOTAL RUN TIME: 0 days 0 hours 0 minutes 22 seconds 338 msec
