                         Program Version 4.2.1 -  RELEASE  -
|  1> ! wB97X-D3 SP def2-SVP
|  2> %pal
|  3> nprocs 24
|  4> end
|  5>
|  6> * xyz 0 1
|  7> S 	 -35.0311 	 -5.40942 	 10.2897
|  8> C 	 -34.7848 	 -4.1338 	 11.5484
|  9> C 	 -35.6373 	 -4.37387 	 12.6509
| 10> C 	 -36.483 	 -5.52751 	 12.5265
| 11> C 	 -36.3276 	 -6.14721 	 11.3067
| 12> H 	 -37.1916 	 -5.93033 	 13.2356
| 13> C 	 -35.527 	 -3.69403 	 13.9795
| 14> H 	 -36.5758 	 -3.45337 	 14.3222
| 15> H 	 -35.1044 	 -2.7067 	 14.0139
| 16> C 	 -34.7756 	 -4.48758 	 15.0461
| 17> H 	 -35.0935 	 -4.0576 	 15.9939
| 18> H 	 -35.0234 	 -5.57272 	 15.06
| 19> C 	 -33.2401 	 -4.48503 	 14.7702
| 20> H 	 -33.0368 	 -4.97379 	 13.8306
| 21> H 	 -32.9174 	 -3.45923 	 14.6463
| 22> H 	 -32.6347 	 -5.03357 	 15.4559
| 23> S 	 -35.8389 	 -8.65365 	 10.2587
| 24> C 	 -37.1374 	 -9.72814 	 9.91679
| 25> C 	 -38.355 	 -9.26241 	 10.3499
| 26> C 	 -38.2557 	 -7.91209 	 10.8854
| 27> C 	 -36.9446 	 -7.44769 	 10.8856
| 28> H 	 -39.2936 	 -9.82406 	 10.2465
| 29> C 	 -39.4513 	 -7.13958 	 11.529
| 30> H 	 -39.2766 	 -6.97932 	 12.6115
| 31> H 	 -40.3266 	 -7.777 	 11.4345
| 32> C 	 -39.7786 	 -5.88106 	 10.7902
| 33> H 	 -39.9127 	 -5.96636 	 9.63244
| 34> H 	 -39.0418 	 -5.08178 	 10.9936
| 35> C 	 -41.1142 	 -5.3571 	 11.3456
| 36> H 	 -41.9929 	 -5.91949 	 10.9841
| 37> H 	 -41.2648 	 -4.30858 	 11.0505
| 38> H 	 -41.2568 	 -5.32133 	 12.4281
| 39> H 	 -33.9729 	 -3.3873 	 11.3371
| 40> H 	 -37.0761 	 -10.6854 	 9.52723
| 41> *
| 42>
| 43>                          ****END OF INPUT****

CARTESIAN COORDINATES (ANGSTROEM)
---------------------------------
  S    -35.031100   -5.409420   10.289700
  C    -34.784800   -4.133800   11.548400
  C    -35.637300   -4.373870   12.650900
  C    -36.483000   -5.527510   12.526500
  C    -36.327600   -6.147210   11.306700
  H    -37.191600   -5.930330   13.235600
  C    -35.527000   -3.694030   13.979500
  H    -36.575800   -3.453370   14.322200
  H    -35.104400   -2.706700   14.013900
  C    -34.775600   -4.487580   15.046100
  H    -35.093500   -4.057600   15.993900
  H    -35.023400   -5.572720   15.060000
  C    -33.240100   -4.485030   14.770200
  H    -33.036800   -4.973790   13.830600
  H    -32.917400   -3.459230   14.646300
  H    -32.634700   -5.033570   15.455900
  S    -35.838900   -8.653650   10.258700
  C    -37.137400   -9.728140    9.916790
  C    -38.355000   -9.262410   10.349900
  C    -38.255700   -7.912090   10.885400
  C    -36.944600   -7.447690   10.885600
  H    -39.293600   -9.824060   10.246500
  C    -39.451300   -7.139580   11.529000
  H    -39.276600   -6.979320   12.611500
  H    -40.326600   -7.777000   11.434500
  C    -39.778600   -5.881060   10.790200
  H    -39.912700   -5.966360    9.632440
  H    -39.041800   -5.081780   10.993600
  C    -41.114200   -5.357100   11.345600
  H    -41.992900   -5.919490   10.984100
  H    -41.264800   -4.308580   11.050500
  H    -41.256800   -5.321330   12.428100
  H    -33.972900   -3.387300   11.337100
  H    -37.076100  -10.685400    9.527230

 Total Charge           Charge          ....    0
 Multiplicity           Mult            ....    1
 Number of Electrons    NEL             ....  134
 Basis Dimension        Dim             ....  322

ORBITAL ENERGIES
----------------

  NO   OCC          E(Eh)            E(eV)
   0   2.0000     -88.966484     -2420.9011
   1   2.0000     -88.966168     -2420.8925
   2   2.0000     -10.338014      -281.3117
   3   2.0000     -10.328597      -281.0554
   4   2.0000     -10.327352      -281.0215
   5   2.0000     -10.311011      -280.5769
   6   2.0000     -10.309575      -280.5378
   7   2.0000     -10.305887      -280.4374
   8   2.0000     -10.298721      -280.2424
   9   2.0000     -10.296349      -280.1779
  10   2.0000     -10.295990      -280.1681
  11   2.0000     -10.292503      -280.0732
  12   2.0000     -10.290609      -280.0217
  13   2.0000     -10.289542      -279.9927
  14   2.0000     -10.275656      -279.6148
  15   2.0000     -10.271522      -279.5023
  16   2.0000      -8.081324      -219.9040
  17   2.0000      -8.079616      -219.8575
  18   2.0000      -6.039820      -164.3519
  19   2.0000      -6.038190      -164.3075
  20   2.0000      -6.035756      -164.2413
  21   2.0000      -6.034438      -164.2054
  22   2.0000      -6.032083      -164.1413
  23   2.0000      -6.030307      -164.0930
  24   2.0000      -1.001131       -27.2422
  25   2.0000      -0.976997       -26.5854
  26   2.0000      -0.910637       -24.7797
  27   2.0000      -0.910189       -24.7675
  28   2.0000      -0.861362       -23.4389
  29   2.0000      -0.848492       -23.0886
  30   2.0000      -0.841696       -22.9037
  31   2.0000      -0.812915       -22.1205
  32   2.0000      -0.780328       -21.2338
  33   2.0000      -0.770198       -20.9582
  34   2.0000      -0.703961       -19.1558
  35   2.0000      -0.695456       -18.9243
  36   2.0000      -0.685264       -18.6470
  37   2.0000      -0.661112       -17.9898
  38   2.0000      -0.644464       -17.5367
  39   2.0000      -0.624041       -16.9810
  40   2.0000      -0.594736       -16.1836
  41   2.0000      -0.568002       -15.4561
  42   2.0000      -0.564265       -15.3544
  43   2.0000      -0.549412       -14.9503
  44   2.0000      -0.532865       -14.5000
  45   2.0000      -0.520563       -14.1652
  46   2.0000      -0.519445       -14.1348
  47   2.0000      -0.506741       -13.7891
  48   2.0000      -0.498888       -13.5754
  49   2.0000      -0.492007       -13.3882
  50   2.0000      -0.489640       -13.3238
  51   2.0000      -0.480118       -13.0647
  52   2.0000      -0.468920       -12.7600
  53   2.0000      -0.463428       -12.6105
  54   2.0000      -0.456073       -12.4104
  55   2.0000      -0.449763       -12.2387
  56   2.0000      -0.445796       -12.1307
  57   2.0000      -0.441630       -12.0174
  58   2.0000      -0.435009       -11.8372
  59   2.0000      -0.417844       -11.3701
  60   2.0000      -0.414700       -11.2846
  61   2.0000      -0.412487       -11.2243
  62   2.0000      -0.410863       -11.1801
  63   2.0000      -0.347611        -9.4590
  64   2.0000      -0.331165        -9.0115
  65   2.0000      -0.330209        -8.9854
  66   2.0000      -0.292051        -7.9471
  67   0.0000       0.027606         0.7512
  68   0.0000       0.068666         1.8685
  69   0.0000       0.103937         2.8283
  70   0.0000       0.116371         3.1666
  71   0.0000       0.131335         3.5738

MULLIKEN ATOMIC CHARGES
-----------------------
   0 S :    0.080820
   1 C :   -0.154116
   2 C :   -0.043393
   3 C :    0.023202
   4 C :   -0.124603
   5 H :    0.019259
   6 C :    0.032333
   7 H :    0.029652
   8 H :    0.014441
   9 C :   -0.069978
  10 H :    0.031088
  11 H :    0.034374
  12 C :   -0.033379
  13 H :    0.030756
  14 H :    0.016813
  15 H :    0.031222
  16 S :    0.115982
  17 C :   -0.053796
  18 C :   -0.044805
  19 C :   -0.043653
  20 C :   -0.166285
  21 H :    0.026989
  22 C :    0.062588
  23 H :    0.047165
  24 H :    0.008890
  25 C :   -0.104149
  26 H :    0.057350
  27 H :    0.051228
  28 C :   -0.064917
  29 H :    0.030936
  30 H :    0.027726
  31 H :    0.021648
  32 H :    0.080590
  33 H :    0.028021
Sum of atomic charges:   -0.0000000

LOEWDIN ATOMIC CHARGES
----------------------
   0 S :    0.353263
   1 C :   -0.187857
   2 C :   -0.058298
   3 C :   -0.060121
   4 C :   -0.164802
   5 H :    0.035679
   6 C :   -0.040564
   7 H :    0.035123
   8 H :    0.026382
   9 C :   -0.036519
  10 H :    0.022917
  11 H :    0.026457
  12 C :   -0.062163
  13 H :    0.026930
  14 H :    0.019124
  15 H :    0.022441
  16 S :    0.418858
  17 C :   -0.186074
  18 C :   -0.072545
  19 C :   -0.055760
  20 C :   -0.201646
  21 H :    0.035282
  22 C :   -0.031720
  23 H :    0.034480
  24 H :    0.027706
  25 C :   -0.048725
  26 H :    0.042342
  27 H :    0.028446
  28 C :   -0.075873
  29 H :    0.023541
  30 H :    0.025631
  31 H :    0.021277
  32 H :    0.039681
  33 H :    0.017106

  Mayer bond orders larger than 0.100000
B(  0-S ,  1-C ) :   1.1148 B(  0-S ,  4-C ) :   1.1418 B(  1-C ,  2-C ) :   1.6006
B(  1-C , 32-H ) :   0.9683 B(  2-C ,  3-C ) :   1.2079 B(  2-C ,  6-C ) :   1.0445
B(  3-C ,  4-C ) :   1.5933 B(  3-C ,  5-H ) :   0.9926 B(  4-C , 20-C ) :   1.0214
B(  6-C ,  7-H ) :   0.9358 B(  6-C ,  8-H ) :   0.9433 B(  6-C ,  9-C ) :   1.0625
B(  9-C , 10-H ) :   0.9569 B(  9-C , 11-H ) :   0.9596 B(  9-C , 12-C ) :   1.0633
B( 12-C , 13-H ) :   0.9732 B( 12-C , 14-H ) :   0.9766 B( 12-C , 15-H ) :   0.9752
B( 16-S , 17-C ) :   1.1560 B( 16-S , 20-C ) :   1.1443 B( 17-C , 18-C ) :   1.6140
B( 17-C , 33-H ) :   0.9704 B( 18-C , 19-C ) :   1.2518 B( 18-C , 21-H ) :   0.9843
B( 19-C , 20-C ) :   1.6099 B( 19-C , 22-C ) :   1.0216 B( 22-C , 23-H ) :   0.9391
B( 22-C , 24-H ) :   0.9371 B( 22-C , 25-C ) :   1.0648 B( 25-C , 26-H ) :   0.9542
B( 25-C , 27-H ) :   0.9512 B( 25-C , 28-C ) :   1.0789 B( 28-C , 29-H ) :   0.9753
B( 28-C , 30-H ) :   0.9740 B( 28-C , 31-H ) :   0.9721

Dispersion correction           -0.014709139
FINAL SINGLE POINT ENERGY     -1339.880548199089

DIPOLE MOMENT
-------------
                                X             Y             Z
Electronic contribution:     10.99293     -12.28625     -16.83961
Nuclear contribution   :    -11.33161      12.36009      17.31957
                        -----------------------------------------
Total Dipole Moment    :     -0.33868       0.07384       0.47996
                        -----------------------------------------
Magnitude (a.u.)       :      0.59205
Magnitude (Debye)      :      1.50486

Rotational constants in cm-1:     0.017964     0.009081     0.007249
Rotational constants in MHz :   538.535349   272.246009   217.311459

                             ****ORCA TERMINATED NORMALLY****
TOTAL RUN TIME: 0 days 0 hours 0 minutes 21 seconds 844 msec
