                         Program Version 4.2.1 -  RELEASE  -
|  1> ! wB97X-D3 SP def2-SVP
|  2> %pal
|  3> nprocs 24
|  4> end
|  5>
|  6> * xyz 0 1
|  7> S 	 -58.7211 	 8.34826 	 -95.9535
|  8> C 	 -58.4483 	 10.0976 	 -95.7581
|  9> C 	 -59.3385 	 10.8343 	 -96.5272
| 10> C 	 -59.8344 	 9.98459 	 -97.5575
| 11> C 	 -59.7253 	 8.60827 	 -97.3463
| 12> H 	 -60.4103 	 10.3514 	 -98.4305
| 13> C 	 -59.5559 	 12.2808 	 -96.5018
| 14> H 	 -59.563 	 12.566 	 -95.4265
| 15> H 	 -60.6366 	 12.4682 	 -96.7874
| 16> C 	 -58.7436 	 13.2166 	 -97.3216
| 17> H 	 -58.616 	 12.8413 	 -98.3551
| 18> H 	 -59.3182 	 14.0906 	 -97.4218
| 19> C 	 -57.432 	 13.5958 	 -96.6886
| 20> H 	 -56.7849 	 12.7052 	 -96.7869
| 21> H 	 -56.8987 	 14.2171 	 -97.3402
| 22> H 	 -57.6033 	 13.9166 	 -95.6632
| 23> S 	 -59.0959 	 6.3128 	 -98.5709
| 24> C 	 -60.2727 	 5.35704 	 -99.4381
| 25> C 	 -61.5277 	 5.87207 	 -99.2954
| 26> C 	 -61.5192 	 7.16162 	 -98.5891
| 27> C 	 -60.2501 	 7.57207 	 -98.2025
| 28> H 	 -62.4221 	 5.41064 	 -99.6702
| 29> C 	 -62.7891 	 7.88153 	 -98.2691
| 30> H 	 -63.2584 	 8.00563 	 -99.2449
| 31> H 	 -62.5215 	 8.90836 	 -97.982
| 32> C 	 -63.7204 	 7.25224 	 -97.2422
| 33> H 	 -63.1856 	 7.13936 	 -96.2663
| 34> H 	 -64.0301 	 6.24454 	 -97.675
| 35> C 	 -64.8706 	 8.28499 	 -97.0115
| 36> H 	 -64.412 	 9.2238 	 -96.572
| 37> H 	 -65.5163 	 8.02927 	 -96.2068
| 38> H 	 -65.3935 	 8.49308 	 -97.9757
| 39> H 	 -57.8754 	 10.4946 	 -94.9955
| 40> H 	 -59.994 	 4.33054 	 -99.8406
| 41> *
| 42>
| 43>                          ****END OF INPUT****

CARTESIAN COORDINATES (ANGSTROEM)
---------------------------------
  S    -58.721100    8.348260  -95.953500
  C    -58.448300   10.097600  -95.758100
  C    -59.338500   10.834300  -96.527200
  C    -59.834400    9.984590  -97.557500
  C    -59.725300    8.608270  -97.346300
  H    -60.410300   10.351400  -98.430500
  C    -59.555900   12.280800  -96.501800
  H    -59.563000   12.566000  -95.426500
  H    -60.636600   12.468200  -96.787400
  C    -58.743600   13.216600  -97.321600
  H    -58.616000   12.841300  -98.355100
  H    -59.318200   14.090600  -97.421800
  C    -57.432000   13.595800  -96.688600
  H    -56.784900   12.705200  -96.786900
  H    -56.898700   14.217100  -97.340200
  H    -57.603300   13.916600  -95.663200
  S    -59.095900    6.312800  -98.570900
  C    -60.272700    5.357040  -99.438100
  C    -61.527700    5.872070  -99.295400
  C    -61.519200    7.161620  -98.589100
  C    -60.250100    7.572070  -98.202500
  H    -62.422100    5.410640  -99.670200
  C    -62.789100    7.881530  -98.269100
  H    -63.258400    8.005630  -99.244900
  H    -62.521500    8.908360  -97.982000
  C    -63.720400    7.252240  -97.242200
  H    -63.185600    7.139360  -96.266300
  H    -64.030100    6.244540  -97.675000
  C    -64.870600    8.284990  -97.011500
  H    -64.412000    9.223800  -96.572000
  H    -65.516300    8.029270  -96.206800
  H    -65.393500    8.493080  -97.975700
  H    -57.875400   10.494600  -94.995500
  H    -59.994000    4.330540  -99.840600

 Total Charge           Charge          ....    0
 Multiplicity           Mult            ....    1
 Number of Electrons    NEL             ....  134
 Basis Dimension        Dim             ....  322

ORBITAL ENERGIES
----------------

  NO   OCC          E(Eh)            E(eV)
   0   2.0000     -88.966529     -2420.9023
   1   2.0000     -88.957905     -2420.6677
   2   2.0000     -10.327549      -281.0269
   3   2.0000     -10.324005      -280.9305
   4   2.0000     -10.322414      -280.8872
   5   2.0000     -10.311524      -280.5908
   6   2.0000     -10.304889      -280.4103
   7   2.0000     -10.299391      -280.2607
   8   2.0000     -10.296738      -280.1885
   9   2.0000     -10.295959      -280.1673
  10   2.0000     -10.292835      -280.0823
  11   2.0000     -10.292333      -280.0686
  12   2.0000     -10.285962      -279.8953
  13   2.0000     -10.284559      -279.8571
  14   2.0000     -10.279781      -279.7270
  15   2.0000     -10.272767      -279.5362
  16   2.0000      -8.080804      -219.8899
  17   2.0000      -8.073422      -219.6890
  18   2.0000      -6.039321      -164.3383
  19   2.0000      -6.035442      -164.2327
  20   2.0000      -6.031980      -164.1385
  21   2.0000      -6.031499      -164.1254
  22   2.0000      -6.027780      -164.0242
  23   2.0000      -6.024094      -163.9239
  24   2.0000      -1.006568       -27.3901
  25   2.0000      -0.983355       -26.7584
  26   2.0000      -0.924442       -25.1554
  27   2.0000      -0.909475       -24.7481
  28   2.0000      -0.874244       -23.7894
  29   2.0000      -0.850072       -23.1316
  30   2.0000      -0.843704       -22.9584
  31   2.0000      -0.812822       -22.1180
  32   2.0000      -0.786129       -21.3916
  33   2.0000      -0.769044       -20.9268
  34   2.0000      -0.709139       -19.2966
  35   2.0000      -0.700663       -19.0660
  36   2.0000      -0.692776       -18.8514
  37   2.0000      -0.660584       -17.9754
  38   2.0000      -0.639038       -17.3891
  39   2.0000      -0.619335       -16.8530
  40   2.0000      -0.595413       -16.2020
  41   2.0000      -0.575582       -15.6624
  42   2.0000      -0.565320       -15.3831
  43   2.0000      -0.557517       -15.1708
  44   2.0000      -0.543858       -14.7991
  45   2.0000      -0.527641       -14.3578
  46   2.0000      -0.523637       -14.2489
  47   2.0000      -0.505948       -13.7676
  48   2.0000      -0.504196       -13.7199
  49   2.0000      -0.499614       -13.5952
  50   2.0000      -0.485955       -13.2235
  51   2.0000      -0.482912       -13.1407
  52   2.0000      -0.470096       -12.7920
  53   2.0000      -0.462506       -12.5854
  54   2.0000      -0.457841       -12.4585
  55   2.0000      -0.445575       -12.1247
  56   2.0000      -0.442042       -12.0286
  57   2.0000      -0.438157       -11.9229
  58   2.0000      -0.433270       -11.7899
  59   2.0000      -0.425804       -11.5867
  60   2.0000      -0.420877       -11.4527
  61   2.0000      -0.412221       -11.2171
  62   2.0000      -0.408482       -11.1153
  63   2.0000      -0.344929        -9.3860
  64   2.0000      -0.329606        -8.9690
  65   2.0000      -0.323609        -8.8058
  66   2.0000      -0.292504        -7.9594
  67   0.0000       0.030264         0.8235
  68   0.0000       0.070680         1.9233
  69   0.0000       0.100919         2.7461
  70   0.0000       0.124036         3.3752
  71   0.0000       0.127618         3.4727

MULLIKEN ATOMIC CHARGES
-----------------------
   0 S :    0.114379
   1 C :   -0.094728
   2 C :   -0.071032
   3 C :    0.002757
   4 C :   -0.137891
   5 H :    0.022987
   6 C :    0.014157
   7 H :    0.023136
   8 H :    0.029650
   9 C :   -0.028615
  10 H :    0.026470
  11 H :    0.011309
  12 C :   -0.011505
  13 H :    0.024808
  14 H :    0.016321
  15 H :    0.036736
  16 S :    0.080468
  17 C :   -0.104860
  18 C :   -0.016120
  19 C :   -0.049678
  20 C :   -0.150573
  21 H :    0.015948
  22 C :    0.044384
  23 H :    0.025136
  24 H :    0.005668
  25 C :   -0.081333
  26 H :    0.046369
  27 H :    0.040816
  28 C :   -0.048723
  29 H :    0.034398
  30 H :    0.029231
  31 H :    0.043261
  32 H :    0.021665
  33 H :    0.085005
Sum of atomic charges:   -0.0000000

LOEWDIN ATOMIC CHARGES
----------------------
   0 S :    0.398970
   1 C :   -0.172645
   2 C :   -0.062664
   3 C :   -0.065059
   4 C :   -0.207819
   5 H :    0.031469
   6 C :   -0.044157
   7 H :    0.034802
   8 H :    0.040888
   9 C :   -0.039300
  10 H :    0.029705
  11 H :    0.017745
  12 C :   -0.060997
  13 H :    0.031102
  14 H :    0.020640
  15 H :    0.026510
  16 S :    0.399478
  17 C :   -0.188478
  18 C :   -0.073027
  19 C :   -0.048855
  20 C :   -0.201865
  21 H :    0.028916
  22 C :   -0.043088
  23 H :    0.031187
  24 H :    0.027124
  25 C :   -0.039759
  26 H :    0.033274
  27 H :    0.028512
  28 C :   -0.068941
  29 H :    0.034009
  30 H :    0.018947
  31 H :    0.029876
  32 H :    0.009614
  33 H :    0.043885

  Mayer bond orders larger than 0.100000
B(  0-S ,  1-C ) :   1.1361 B(  0-S ,  4-C ) :   1.1407 B(  1-C ,  2-C ) :   1.5866
B(  1-C , 32-H ) :   0.9763 B(  2-C ,  3-C ) :   1.2359 B(  2-C ,  6-C ) :   1.0541
B(  3-C ,  4-C ) :   1.5775 B(  3-C ,  5-H ) :   0.9806 B(  4-C , 20-C ) :   1.0571
B(  6-C ,  7-H ) :   0.9302 B(  6-C ,  8-H ) :   0.9302 B(  6-C ,  9-C ) :   1.0809
B(  9-C , 10-H ) :   0.9473 B(  9-C , 11-H ) :   0.9455 B(  9-C , 12-C ) :   1.0942
B( 12-C , 13-H ) :   0.9700 B( 12-C , 14-H ) :   0.9659 B( 12-C , 15-H ) :   0.9732
B( 16-S , 17-C ) :   1.1566 B( 16-S , 20-C ) :   1.1237 B( 17-C , 18-C ) :   1.6082
B( 17-C , 33-H ) :   0.9582 B( 18-C , 19-C ) :   1.2217 B( 18-C , 21-H ) :   0.9944
B( 19-C , 20-C ) :   1.6068 B( 19-C , 22-C ) :   1.0463 B( 22-C , 23-H ) :   0.9267
B( 22-C , 24-H ) :   0.9323 B( 22-C , 25-C ) :   1.0617 B( 25-C , 26-H ) :   0.9545
B( 25-C , 27-H ) :   0.9529 B( 25-C , 28-C ) :   1.0767 B( 28-C , 29-H ) :   0.9716
B( 28-C , 30-H ) :   0.9749 B( 28-C , 31-H ) :   0.9744

Dispersion correction           -0.013849778
FINAL SINGLE POINT ENERGY     -1339.868822674764

DIPOLE MOMENT
-------------
                                X             Y             Z
Electronic contribution:     13.81858     -20.41749      -1.64817
Nuclear contribution   :    -14.33736      20.85376       1.61980
                        -----------------------------------------
Total Dipole Moment    :     -0.51878       0.43627      -0.02836
                        -----------------------------------------
Magnitude (a.u.)       :      0.67843
Magnitude (Debye)      :      1.72444

Rotational constants in cm-1:     0.019377     0.008035     0.006508
Rotational constants in MHz :   580.900495   240.872905   195.114120

                             ****ORCA TERMINATED NORMALLY****
TOTAL RUN TIME: 0 days 0 hours 0 minutes 21 seconds 340 msec
