                         Program Version 4.2.1 -  RELEASE  -
|  1> ! wB97X-D3 SP def2-SVP
|  2> %pal
|  3> nprocs 24
|  4> end
|  5>
|  6> * xyz 0 1
|  7> S 	 -58.2327 	 2.88941 	 -19.6677
|  8> C 	 -59.8954 	 3.46102 	 -19.5863
|  9> C 	 -60.5921 	 3.10097 	 -20.729
| 10> C 	 -59.8017 	 2.45429 	 -21.7503
| 11> C 	 -58.5092 	 2.24516 	 -21.3368
| 12> H 	 -60.0806 	 2.12441 	 -22.7209
| 13> C 	 -62.0744 	 3.21936 	 -20.964
| 14> H 	 -62.4848 	 3.21478 	 -19.9315
| 15> H 	 -62.4236 	 2.32912 	 -21.4779
| 16> C 	 -62.4212 	 4.40439 	 -21.8889
| 17> H 	 -62.1066 	 5.28709 	 -21.4849
| 18> H 	 -61.8372 	 4.24797 	 -22.8106
| 19> C 	 -63.8838 	 4.41435 	 -22.1603
| 20> H 	 -64.5065 	 4.62137 	 -21.3217
| 21> H 	 -64.1551 	 5.14458 	 -22.9239
| 22> H 	 -64.2728 	 3.63068 	 -22.6984
| 23> S 	 -56.5721 	 0.371228 	 -21.2243
| 24> C 	 -55.4011 	 0.254863 	 -22.565
| 25> C 	 -55.8292 	 0.953832 	 -23.6791
| 26> C 	 -56.9102 	 1.82783 	 -23.4022
| 27> C 	 -57.4279 	 1.63301 	 -22.0494
| 28> H 	 -55.2428 	 0.942531 	 -24.6058
| 29> C 	 -57.4005 	 2.77919 	 -24.4253
| 30> H 	 -56.4814 	 3.03181 	 -24.8687
| 31> H 	 -57.7213 	 3.69928 	 -23.9202
| 32> C 	 -58.5413 	 2.36042 	 -25.4408
| 33> H 	 -58.5246 	 3.17366 	 -26.187
| 34> H 	 -59.5118 	 2.31513 	 -24.9685
| 35> C 	 -58.1376 	 1.08439 	 -26.0933
| 36> H 	 -57.8114 	 0.297209 	 -25.421
| 37> H 	 -57.3047 	 1.29488 	 -26.7256
| 38> H 	 -58.8662 	 0.817771 	 -26.7923
| 39> H 	 -60.4239 	 3.94384 	 -18.7595
| 40> H 	 -54.4209 	 -0.24323 	 -22.6235
| 41> *
| 42>
| 43>                          ****END OF INPUT****

CARTESIAN COORDINATES (ANGSTROEM)
---------------------------------
  S    -58.232700    2.889410  -19.667700
  C    -59.895400    3.461020  -19.586300
  C    -60.592100    3.100970  -20.729000
  C    -59.801700    2.454290  -21.750300
  C    -58.509200    2.245160  -21.336800
  H    -60.080600    2.124410  -22.720900
  C    -62.074400    3.219360  -20.964000
  H    -62.484800    3.214780  -19.931500
  H    -62.423600    2.329120  -21.477900
  C    -62.421200    4.404390  -21.888900
  H    -62.106600    5.287090  -21.484900
  H    -61.837200    4.247970  -22.810600
  C    -63.883800    4.414350  -22.160300
  H    -64.506500    4.621370  -21.321700
  H    -64.155100    5.144580  -22.923900
  H    -64.272800    3.630680  -22.698400
  S    -56.572100    0.371228  -21.224300
  C    -55.401100    0.254863  -22.565000
  C    -55.829200    0.953832  -23.679100
  C    -56.910200    1.827830  -23.402200
  C    -57.427900    1.633010  -22.049400
  H    -55.242800    0.942531  -24.605800
  C    -57.400500    2.779190  -24.425300
  H    -56.481400    3.031810  -24.868700
  H    -57.721300    3.699280  -23.920200
  C    -58.541300    2.360420  -25.440800
  H    -58.524600    3.173660  -26.187000
  H    -59.511800    2.315130  -24.968500
  C    -58.137600    1.084390  -26.093300
  H    -57.811400    0.297209  -25.421000
  H    -57.304700    1.294880  -26.725600
  H    -58.866200    0.817771  -26.792300
  H    -60.423900    3.943840  -18.759500
  H    -54.420900   -0.243230  -22.623500

 Total Charge           Charge          ....    0
 Multiplicity           Mult            ....    1
 Number of Electrons    NEL             ....  134
 Basis Dimension        Dim             ....  322

ORBITAL ENERGIES
----------------

  NO   OCC          E(Eh)            E(eV)
   0   2.0000     -88.969997     -2420.9967
   1   2.0000     -88.965275     -2420.8682
   2   2.0000     -10.330049      -281.0949
   3   2.0000     -10.327501      -281.0256
   4   2.0000     -10.319510      -280.8082
   5   2.0000     -10.316240      -280.7192
   6   2.0000     -10.305717      -280.4328
   7   2.0000     -10.299094      -280.2526
   8   2.0000     -10.294401      -280.1249
   9   2.0000     -10.293314      -280.0953
  10   2.0000     -10.290684      -280.0238
  11   2.0000     -10.289281      -279.9856
  12   2.0000     -10.284466      -279.8546
  13   2.0000     -10.280365      -279.7430
  14   2.0000     -10.265426      -279.3364
  15   2.0000     -10.265138      -279.3286
  16   2.0000      -8.083983      -219.9764
  17   2.0000      -8.078874      -219.8373
  18   2.0000      -6.042490      -164.4245
  19   2.0000      -6.038508      -164.3162
  20   2.0000      -6.037578      -164.2909
  21   2.0000      -6.034872      -164.2172
  22   2.0000      -6.033617      -164.1831
  23   2.0000      -6.029402      -164.0684
  24   2.0000      -1.000837       -27.2342
  25   2.0000      -0.977137       -26.5892
  26   2.0000      -0.917145       -24.9568
  27   2.0000      -0.912818       -24.8390
  28   2.0000      -0.873193       -23.7608
  29   2.0000      -0.854564       -23.2539
  30   2.0000      -0.849338       -23.1117
  31   2.0000      -0.818002       -22.2590
  32   2.0000      -0.781938       -21.2776
  33   2.0000      -0.766741       -20.8641
  34   2.0000      -0.715775       -19.4772
  35   2.0000      -0.709275       -19.3003
  36   2.0000      -0.692113       -18.8333
  37   2.0000      -0.659492       -17.9457
  38   2.0000      -0.640743       -17.4355
  39   2.0000      -0.616697       -16.7812
  40   2.0000      -0.586389       -15.9564
  41   2.0000      -0.576670       -15.6920
  42   2.0000      -0.563089       -15.3224
  43   2.0000      -0.553990       -15.0748
  44   2.0000      -0.552095       -15.0233
  45   2.0000      -0.527830       -14.3630
  46   2.0000      -0.520744       -14.1702
  47   2.0000      -0.509367       -13.8606
  48   2.0000      -0.504890       -13.7387
  49   2.0000      -0.500898       -13.6301
  50   2.0000      -0.490015       -13.3340
  51   2.0000      -0.486673       -13.2430
  52   2.0000      -0.471015       -12.8170
  53   2.0000      -0.463804       -12.6208
  54   2.0000      -0.457570       -12.4511
  55   2.0000      -0.449749       -12.2383
  56   2.0000      -0.443102       -12.0574
  57   2.0000      -0.440643       -11.9905
  58   2.0000      -0.431500       -11.7417
  59   2.0000      -0.428517       -11.6605
  60   2.0000      -0.424748       -11.5580
  61   2.0000      -0.416119       -11.3232
  62   2.0000      -0.411817       -11.2061
  63   2.0000      -0.348171        -9.4742
  64   2.0000      -0.330903        -9.0043
  65   2.0000      -0.324699        -8.8355
  66   2.0000      -0.284637        -7.7454
  67   0.0000       0.021062         0.5731
  68   0.0000       0.069474         1.8905
  69   0.0000       0.105460         2.8697
  70   0.0000       0.119483         3.2513
  71   0.0000       0.125616         3.4182

MULLIKEN ATOMIC CHARGES
-----------------------
   0 S :    0.104033
   1 C :   -0.114519
   2 C :   -0.097819
   3 C :    0.054125
   4 C :   -0.143330
   5 H :   -0.012545
   6 C :    0.045602
   7 H :    0.025227
   8 H :    0.022052
   9 C :   -0.021975
  10 H :    0.005033
  11 H :    0.022475
  12 C :    0.011617
  13 H :    0.027059
  14 H :    0.011582
  15 H :   -0.000204
  16 S :    0.122864
  17 C :   -0.100353
  18 C :   -0.057960
  19 C :   -0.052384
  20 C :   -0.167467
  21 H :    0.029263
  22 C :    0.061684
  23 H :    0.006484
  24 H :    0.028017
  25 C :   -0.041871
  26 H :    0.032860
  27 H :    0.030815
  28 C :   -0.021128
  29 H :    0.055635
  30 H :    0.005693
  31 H :    0.016792
  32 H :    0.049330
  33 H :    0.063313
Sum of atomic charges:    0.0000000

LOEWDIN ATOMIC CHARGES
----------------------
   0 S :    0.374179
   1 C :   -0.202626
   2 C :   -0.062220
   3 C :   -0.051787
   4 C :   -0.175007
   5 H :    0.025583
   6 C :   -0.031236
   7 H :    0.030940
   8 H :    0.029770
   9 C :   -0.025672
  10 H :    0.012282
  11 H :    0.029239
  12 C :   -0.064369
  13 H :    0.024148
  14 H :    0.030031
  15 H :    0.015551
  16 S :    0.413138
  17 C :   -0.188011
  18 C :   -0.076701
  19 C :   -0.054434
  20 C :   -0.212020
  21 H :    0.035807
  22 C :   -0.037780
  23 H :    0.025504
  24 H :    0.034630
  25 C :   -0.026326
  26 H :    0.030508
  27 H :    0.017126
  28 C :   -0.064457
  29 H :    0.030098
  30 H :    0.022961
  31 H :    0.019410
  32 H :    0.034543
  33 H :    0.037197

  Mayer bond orders larger than 0.100000
B(  0-S ,  1-C ) :   1.1145 B(  0-S ,  4-C ) :   1.1197 B(  1-C ,  2-C ) :   1.6472
B(  1-C , 32-H ) :   0.9628 B(  2-C ,  3-C ) :   1.1922 B(  2-C ,  6-C ) :   1.0260
B(  3-C ,  4-C ) :   1.6022 B(  3-C ,  5-H ) :   0.9991 B(  4-C , 20-C ) :   1.0740
B(  6-C ,  7-H ) :   0.9424 B(  6-C ,  8-H ) :   0.9439 B(  6-C ,  9-C ) :   1.0561
B(  9-C , 10-H ) :   0.9536 B(  9-C , 11-H ) :   0.9521 B(  9-C , 12-C ) :   1.0991
B( 12-C , 13-H ) :   0.9717 B( 12-C , 14-H ) :   0.9622 B( 12-C , 15-H ) :   0.9647
B( 16-S , 17-C ) :   1.1464 B( 16-S , 20-C ) :   1.1607 B( 17-C , 18-C ) :   1.5998
B( 17-C , 20-C ) :   0.1089 B( 17-C , 33-H ) :   0.9622 B( 18-C , 19-C ) :   1.2708
B( 18-C , 21-H ) :   0.9784 B( 19-C , 20-C ) :   1.5076 B( 19-C , 22-C ) :   1.0496
B( 22-C , 23-H ) :   0.9304 B( 22-C , 24-H ) :   0.9267 B( 22-C , 25-C ) :   1.0603
B( 25-C , 26-H ) :   0.9510 B( 25-C , 27-H ) :   0.9560 B( 25-C , 28-C ) :   1.0881
B( 28-C , 29-H ) :   0.9709 B( 28-C , 30-H ) :   0.9685 B( 28-C , 31-H ) :   0.9664

Dispersion correction           -0.014532907
FINAL SINGLE POINT ENERGY     -1339.856659451727

DIPOLE MOMENT
-------------
                                X             Y             Z
Electronic contribution:     20.03057      -8.49390      20.70464
Nuclear contribution   :    -20.39072       8.69082     -21.37276
                        -----------------------------------------
Total Dipole Moment    :     -0.36015       0.19693      -0.66812
                        -----------------------------------------
Magnitude (a.u.)       :      0.78414
Magnitude (Debye)      :      1.99313

Rotational constants in cm-1:     0.018758     0.009030     0.006520
Rotational constants in MHz :   562.337594   270.707704   195.465711

                             ****ORCA TERMINATED NORMALLY****
TOTAL RUN TIME: 0 days 0 hours 0 minutes 22 seconds 169 msec
