                         Program Version 4.2.1 -  RELEASE  -
|  1> ! wB97X-D3 SP def2-SVP
|  2> %pal
|  3> nprocs 24
|  4> end
|  5>
|  6> * xyz 0 1
|  7> S 	 35.1578 	 -37.2795 	 -129.255
|  8> C 	 34.3755 	 -35.9327 	 -128.455
|  9> C 	 33.5689 	 -35.3031 	 -129.397
| 10> C 	 33.8758 	 -35.7208 	 -130.736
| 11> C 	 34.8916 	 -36.6377 	 -130.803
| 12> H 	 33.3472 	 -35.4453 	 -131.68
| 13> C 	 32.738 	 -34.0378 	 -129.362
| 14> H 	 31.9622 	 -33.9879 	 -130.087
| 15> H 	 33.4264 	 -33.2875 	 -129.682
| 16> C 	 32.2013 	 -33.6871 	 -127.969
| 17> H 	 31.3019 	 -33.1761 	 -128.001
| 18> H 	 31.7411 	 -34.5302 	 -127.433
| 19> C 	 33.118 	 -32.9646 	 -127.015
| 20> H 	 32.6397 	 -32.5097 	 -126.105
| 21> H 	 33.8938 	 -33.6255 	 -126.701
| 22> H 	 33.6071 	 -32.0729 	 -127.307
| 23> S 	 34.909 	 -39.0205 	 -132.056
| 24> C 	 35.5024 	 -39.1571 	 -133.633
| 25> C 	 36.1132 	 -38.0794 	 -134.107
| 26> C 	 35.9118 	 -36.9783 	 -133.249
| 27> C 	 35.3191 	 -37.3016 	 -132.051
| 28> H 	 36.5805 	 -38.1499 	 -135.087
| 29> C 	 36.5999 	 -35.6171 	 -133.629
| 30> H 	 37.2346 	 -35.6908 	 -134.553
| 31> H 	 37.4237 	 -35.522 	 -132.955
| 32> C 	 35.6245 	 -34.3598 	 -133.736
| 33> H 	 35.0361 	 -34.1254 	 -132.882
| 34> H 	 34.8562 	 -34.6082 	 -134.418
| 35> C 	 36.2662 	 -33.1873 	 -134.37
| 36> H 	 36.9485 	 -32.6626 	 -133.584
| 37> H 	 35.6086 	 -32.3801 	 -134.6
| 38> H 	 36.7933 	 -33.3292 	 -135.335
| 39> H 	 34.5427 	 -35.5704 	 -127.451
| 40> H 	 35.6531 	 -40.1064 	 -134.246
| 41> *
| 42>
| 43>                          ****END OF INPUT****

CARTESIAN COORDINATES (ANGSTROEM)
---------------------------------
  S     35.157800  -37.279500  -129.255000
  C     34.375500  -35.932700  -128.455000
  C     33.568900  -35.303100  -129.397000
  C     33.875800  -35.720800  -130.736000
  C     34.891600  -36.637700  -130.803000
  H     33.347200  -35.445300  -131.680000
  C     32.738000  -34.037800  -129.362000
  H     31.962200  -33.987900  -130.087000
  H     33.426400  -33.287500  -129.682000
  C     32.201300  -33.687100  -127.969000
  H     31.301900  -33.176100  -128.001000
  H     31.741100  -34.530200  -127.433000
  C     33.118000  -32.964600  -127.015000
  H     32.639700  -32.509700  -126.105000
  H     33.893800  -33.625500  -126.701000
  H     33.607100  -32.072900  -127.307000
  S     34.909000  -39.020500  -132.056000
  C     35.502400  -39.157100  -133.633000
  C     36.113200  -38.079400  -134.107000
  C     35.911800  -36.978300  -133.249000
  C     35.319100  -37.301600  -132.051000
  H     36.580500  -38.149900  -135.087000
  C     36.599900  -35.617100  -133.629000
  H     37.234600  -35.690800  -134.553000
  H     37.423700  -35.522000  -132.955000
  C     35.624500  -34.359800  -133.736000
  H     35.036100  -34.125400  -132.882000
  H     34.856200  -34.608200  -134.418000
  C     36.266200  -33.187300  -134.370000
  H     36.948500  -32.662600  -133.584000
  H     35.608600  -32.380100  -134.600000
  H     36.793300  -33.329200  -135.335000
  H     34.542700  -35.570400  -127.451000
  H     35.653100  -40.106400  -134.246000

 Total Charge           Charge          ....    0
 Multiplicity           Mult            ....    1
 Number of Electrons    NEL             ....  134
 Basis Dimension        Dim             ....  322

ORBITAL ENERGIES
----------------

  NO   OCC          E(Eh)            E(eV)
   0   2.0000     -88.964119     -2420.8368
   1   2.0000     -88.962199     -2420.7845
   2   2.0000     -10.326955      -281.0107
   3   2.0000     -10.326113      -280.9878
   4   2.0000     -10.316509      -280.7265
   5   2.0000     -10.307606      -280.4842
   6   2.0000     -10.305371      -280.4234
   7   2.0000     -10.303417      -280.3702
   8   2.0000     -10.297614      -280.2123
   9   2.0000     -10.290928      -280.0304
  10   2.0000     -10.290558      -280.0203
  11   2.0000     -10.283035      -279.8156
  12   2.0000     -10.280809      -279.7550
  13   2.0000     -10.279760      -279.7265
  14   2.0000     -10.278962      -279.7048
  15   2.0000     -10.274946      -279.5955
  16   2.0000      -8.079928      -219.8660
  17   2.0000      -8.078227      -219.8197
  18   2.0000      -6.038576      -164.3180
  19   2.0000      -6.036649      -164.2656
  20   2.0000      -6.034412      -164.2047
  21   2.0000      -6.032697      -164.1580
  22   2.0000      -6.030321      -164.0934
  23   2.0000      -6.028835      -164.0529
  24   2.0000      -1.016810       -27.6688
  25   2.0000      -0.995219       -27.0813
  26   2.0000      -0.916871       -24.9493
  27   2.0000      -0.902466       -24.5573
  28   2.0000      -0.872122       -23.7316
  29   2.0000      -0.855013       -23.2661
  30   2.0000      -0.851790       -23.1784
  31   2.0000      -0.814913       -22.1749
  32   2.0000      -0.788167       -21.4471
  33   2.0000      -0.773098       -21.0371
  34   2.0000      -0.717750       -19.5310
  35   2.0000      -0.708794       -19.2873
  36   2.0000      -0.694962       -18.9109
  37   2.0000      -0.655842       -17.8464
  38   2.0000      -0.641011       -17.4428
  39   2.0000      -0.613894       -16.7049
  40   2.0000      -0.592804       -16.1310
  41   2.0000      -0.579887       -15.7795
  42   2.0000      -0.557570       -15.1723
  43   2.0000      -0.553457       -15.0603
  44   2.0000      -0.539194       -14.6722
  45   2.0000      -0.528231       -14.3739
  46   2.0000      -0.520589       -14.1659
  47   2.0000      -0.509692       -13.8694
  48   2.0000      -0.506343       -13.7783
  49   2.0000      -0.502250       -13.6669
  50   2.0000      -0.492754       -13.4085
  51   2.0000      -0.483677       -13.1615
  52   2.0000      -0.473400       -12.8819
  53   2.0000      -0.469100       -12.7648
  54   2.0000      -0.458908       -12.4875
  55   2.0000      -0.456292       -12.4163
  56   2.0000      -0.446207       -12.1419
  57   2.0000      -0.438679       -11.9371
  58   2.0000      -0.425337       -11.5740
  59   2.0000      -0.421604       -11.4724
  60   2.0000      -0.416075       -11.3220
  61   2.0000      -0.406562       -11.0631
  62   2.0000      -0.404111       -10.9964
  63   2.0000      -0.346452        -9.4274
  64   2.0000      -0.333255        -9.0683
  65   2.0000      -0.323042        -8.7904
  66   2.0000      -0.295773        -8.0484
  67   0.0000       0.035149         0.9565
  68   0.0000       0.062899         1.7116
  69   0.0000       0.107550         2.9266
  70   0.0000       0.120897         3.2898
  71   0.0000       0.134867         3.6699

MULLIKEN ATOMIC CHARGES
-----------------------
   0 S :    0.107881
   1 C :   -0.128760
   2 C :   -0.053799
   3 C :   -0.010895
   4 C :   -0.117480
   5 H :    0.040986
   6 C :    0.074978
   7 H :    0.022043
   8 H :    0.035987
   9 C :   -0.025728
  10 H :   -0.005998
  11 H :    0.019190
  12 C :   -0.040999
  13 H :    0.029983
  14 H :    0.009201
  15 H :    0.014048
  16 S :    0.102907
  17 C :   -0.086389
  18 C :   -0.058261
  19 C :   -0.033494
  20 C :   -0.165648
  21 H :    0.022558
  22 C :    0.057630
  23 H :    0.012263
  24 H :    0.031576
  25 C :   -0.015569
  26 H :    0.019056
  27 H :    0.010927
  28 C :   -0.080818
  29 H :    0.033297
  30 H :    0.018766
  31 H :    0.038863
  32 H :    0.055620
  33 H :    0.066076
Sum of atomic charges:    0.0000000

LOEWDIN ATOMIC CHARGES
----------------------
   0 S :    0.420427
   1 C :   -0.202223
   2 C :   -0.053460
   3 C :   -0.070975
   4 C :   -0.210090
   5 H :    0.038914
   6 C :   -0.023392
   7 H :    0.030794
   8 H :    0.037994
   9 C :   -0.051041
  10 H :    0.016726
  11 H :    0.032682
  12 C :   -0.068722
  13 H :    0.035969
  14 H :    0.015487
  15 H :    0.019137
  16 S :    0.416463
  17 C :   -0.209451
  18 C :   -0.085058
  19 C :   -0.056108
  20 C :   -0.187675
  21 H :    0.037515
  22 C :   -0.025023
  23 H :    0.033266
  24 H :    0.028297
  25 C :   -0.042996
  26 H :    0.020994
  27 H :    0.021885
  28 C :   -0.075302
  29 H :    0.031885
  30 H :    0.020693
  31 H :    0.028629
  32 H :    0.029531
  33 H :    0.044227

  Mayer bond orders larger than 0.100000
B(  0-S ,  1-C ) :   1.1277 B(  0-S ,  4-C ) :   1.1650 B(  1-C ,  2-C ) :   1.5942
B(  1-C , 32-H ) :   0.9739 B(  2-C ,  3-C ) :   1.2314 B(  2-C ,  6-C ) :   1.0209
B(  3-C ,  4-C ) :   1.5740 B(  3-C ,  5-H ) :   0.9817 B(  4-C , 20-C ) :   1.0051
B(  6-C ,  7-H ) :   0.9407 B(  6-C ,  8-H ) :   0.9436 B(  6-C ,  9-C ) :   1.0579
B(  9-C , 10-H ) :   0.9484 B(  9-C , 11-H ) :   0.9495 B(  9-C , 12-C ) :   1.0805
B( 12-C , 13-H ) :   0.9681 B( 12-C , 14-H ) :   0.9792 B( 12-C , 15-H ) :   0.9702
B( 16-S , 17-C ) :   1.1596 B( 16-S , 20-C ) :   1.1343 B( 17-C , 18-C ) :   1.6598
B( 17-C , 33-H ) :   0.9461 B( 18-C , 19-C ) :   1.2225 B( 18-C , 21-H ) :   0.9896
B( 19-C , 20-C ) :   1.6540 B( 19-C , 22-C ) :   1.0147 B( 22-C , 23-H ) :   0.9468
B( 22-C , 24-H ) :   0.9441 B( 22-C , 25-C ) :   1.0359 B( 25-C , 26-H ) :   0.9496
B( 25-C , 27-H ) :   0.9516 B( 25-C , 28-C ) :   1.1027 B( 28-C , 29-H ) :   0.9716
B( 28-C , 30-H ) :   0.9698 B( 28-C , 31-H ) :   0.9714

Dispersion correction           -0.013967419
FINAL SINGLE POINT ENERGY     -1339.823131202471

DIPOLE MOMENT
-------------
                                X             Y             Z
Electronic contribution:      3.30796     -28.38566       1.12118
Nuclear contribution   :     -3.44688      29.01760      -1.43726
                        -----------------------------------------
Total Dipole Moment    :     -0.13892       0.63194      -0.31608
                        -----------------------------------------
Magnitude (a.u.)       :      0.72011
Magnitude (Debye)      :      1.83037

Rotational constants in cm-1:     0.019132     0.008531     0.006390
Rotational constants in MHz :   573.563151   255.747022   191.560996

                             ****ORCA TERMINATED NORMALLY****
TOTAL RUN TIME: 0 days 0 hours 0 minutes 21 seconds 438 msec
