                         Program Version 4.2.1 -  RELEASE  -
|  1> ! wB97X-D3 SP def2-SVP
|  2> %pal
|  3> nprocs 24
|  4> end
|  5>
|  6> * xyz 0 1
|  7> S 	 -101.275 	 0.371227 	 -106.577
|  8> C 	 -99.944 	 1.18029 	 -107.34
|  9> C 	 -99.6272 	 2.30732 	 -106.611
| 10> C 	 -100.193 	 2.35639 	 -105.299
| 11> C 	 -101.189 	 1.38031 	 -105.102
| 12> H 	 -100.022 	 3.15115 	 -104.551
| 13> C 	 -98.8183 	 3.43176 	 -107.123
| 14> H 	 -99.4236 	 4.34629 	 -107.183
| 15> H 	 -98.557 	 3.20913 	 -108.177
| 16> C 	 -97.4564 	 3.7163 	 -106.4
| 17> H 	 -97.7229 	 4.25275 	 -105.456
| 18> H 	 -96.7822 	 2.92015 	 -106.118
| 19> C 	 -96.6447 	 4.78449 	 -107.087
| 20> H 	 -96.0662 	 4.43309 	 -108.021
| 21> H 	 -97.2076 	 5.63113 	 -107.439
| 22> H 	 -96.0343 	 5.39846 	 -106.352
| 23> S 	 -103.835 	 1.28665 	 -104.154
| 24> C 	 -104.052 	 0.989617 	 -102.401
| 25> C 	 -102.891 	 1.07122 	 -101.678
| 26> C 	 -101.742 	 1.26076 	 -102.55
| 27> C 	 -102.086 	 1.28687 	 -103.932
| 28> H 	 -102.931 	 1.05018 	 -100.602
| 29> C 	 -100.356 	 1.28075 	 -101.935
| 30> H 	 -100.271 	 2.26061 	 -101.565
| 31> H 	 -99.5778 	 1.1553 	 -102.674
| 32> C 	 -100.136 	 0.341368 	 -100.814
| 33> H 	 -100.227 	 -0.597411 	 -101.326
| 34> H 	 -100.871 	 0.54173 	 -100.087
| 35> C 	 -98.725 	 0.683974 	 -100.293
| 36> H 	 -98.564 	 1.75868 	 -99.9591
| 37> H 	 -98.0852 	 0.536387 	 -101.181
| 38> H 	 -98.3604 	 0.0311011 	 -99.4493
| 39> H 	 -99.6248 	 0.921444 	 -108.305
| 40> H 	 -104.992 	 1.04179 	 -101.868
| 41> *
| 42>
| 43>                          ****END OF INPUT****

CARTESIAN COORDINATES (ANGSTROEM)
---------------------------------
  S    -101.275000    0.371227  -106.577000
  C    -99.944000    1.180290  -107.340000
  C    -99.627200    2.307320  -106.611000
  C    -100.193000    2.356390  -105.299000
  C    -101.189000    1.380310  -105.102000
  H    -100.022000    3.151150  -104.551000
  C    -98.818300    3.431760  -107.123000
  H    -99.423600    4.346290  -107.183000
  H    -98.557000    3.209130  -108.177000
  C    -97.456400    3.716300  -106.400000
  H    -97.722900    4.252750  -105.456000
  H    -96.782200    2.920150  -106.118000
  C    -96.644700    4.784490  -107.087000
  H    -96.066200    4.433090  -108.021000
  H    -97.207600    5.631130  -107.439000
  H    -96.034300    5.398460  -106.352000
  S    -103.835000    1.286650  -104.154000
  C    -104.052000    0.989617  -102.401000
  C    -102.891000    1.071220  -101.678000
  C    -101.742000    1.260760  -102.550000
  C    -102.086000    1.286870  -103.932000
  H    -102.931000    1.050180  -100.602000
  C    -100.356000    1.280750  -101.935000
  H    -100.271000    2.260610  -101.565000
  H    -99.577800    1.155300  -102.674000
  C    -100.136000    0.341368  -100.814000
  H    -100.227000   -0.597411  -101.326000
  H    -100.871000    0.541730  -100.087000
  C    -98.725000    0.683974  -100.293000
  H    -98.564000    1.758680  -99.959100
  H    -98.085200    0.536387  -101.181000
  H    -98.360400    0.031101  -99.449300
  H    -99.624800    0.921444  -108.305000
  H    -104.992000    1.041790  -101.868000

 Total Charge           Charge          ....    0
 Multiplicity           Mult            ....    1
 Number of Electrons    NEL             ....  134
 Basis Dimension        Dim             ....  322

ORBITAL ENERGIES
----------------

  NO   OCC          E(Eh)            E(eV)
   0   2.0000     -88.968411     -2420.9535
   1   2.0000     -88.965416     -2420.8720
   2   2.0000     -10.337597      -281.3003
   3   2.0000     -10.333879      -281.1991
   4   2.0000     -10.318688      -280.7858
   5   2.0000     -10.312046      -280.6050
   6   2.0000     -10.308999      -280.5221
   7   2.0000     -10.299463      -280.2626
   8   2.0000     -10.298803      -280.2447
   9   2.0000     -10.296701      -280.1875
  10   2.0000     -10.295143      -280.1451
  11   2.0000     -10.290568      -280.0206
  12   2.0000     -10.288816      -279.9729
  13   2.0000     -10.284706      -279.8611
  14   2.0000     -10.278768      -279.6995
  15   2.0000     -10.278443      -279.6906
  16   2.0000      -8.082102      -219.9252
  17   2.0000      -8.079753      -219.8612
  18   2.0000      -6.040738      -164.3768
  19   2.0000      -6.038332      -164.3114
  20   2.0000      -6.036928      -164.2732
  21   2.0000      -6.034242      -164.2001
  22   2.0000      -6.032613      -164.1557
  23   2.0000      -6.030516      -164.0987
  24   2.0000      -0.999406       -27.1952
  25   2.0000      -0.980089       -26.6696
  26   2.0000      -0.924036       -25.1443
  27   2.0000      -0.909626       -24.7522
  28   2.0000      -0.870004       -23.6740
  29   2.0000      -0.850241       -23.1362
  30   2.0000      -0.844294       -22.9744
  31   2.0000      -0.816114       -22.2076
  32   2.0000      -0.775296       -21.0969
  33   2.0000      -0.763607       -20.7788
  34   2.0000      -0.708971       -19.2921
  35   2.0000      -0.701481       -19.0883
  36   2.0000      -0.696085       -18.9414
  37   2.0000      -0.653892       -17.7933
  38   2.0000      -0.644338       -17.5333
  39   2.0000      -0.619872       -16.8676
  40   2.0000      -0.599056       -16.3011
  41   2.0000      -0.583474       -15.8771
  42   2.0000      -0.572298       -15.5730
  43   2.0000      -0.560815       -15.2605
  44   2.0000      -0.525919       -14.3110
  45   2.0000      -0.520756       -14.1705
  46   2.0000      -0.514920       -14.0117
  47   2.0000      -0.512542       -13.9470
  48   2.0000      -0.504417       -13.7259
  49   2.0000      -0.497933       -13.5494
  50   2.0000      -0.492749       -13.4084
  51   2.0000      -0.475175       -12.9302
  52   2.0000      -0.465673       -12.6716
  53   2.0000      -0.460648       -12.5349
  54   2.0000      -0.458128       -12.4663
  55   2.0000      -0.453199       -12.3322
  56   2.0000      -0.445149       -12.1131
  57   2.0000      -0.435067       -11.8388
  58   2.0000      -0.431316       -11.7367
  59   2.0000      -0.429051       -11.6751
  60   2.0000      -0.419417       -11.4129
  61   2.0000      -0.416660       -11.3379
  62   2.0000      -0.407557       -11.0902
  63   2.0000      -0.350469        -9.5367
  64   2.0000      -0.330118        -8.9830
  65   2.0000      -0.325903        -8.8683
  66   2.0000      -0.288747        -7.8572
  67   0.0000       0.027685         0.7534
  68   0.0000       0.066690         1.8147
  69   0.0000       0.105365         2.8671
  70   0.0000       0.117341         3.1930
  71   0.0000       0.133001         3.6191

MULLIKEN ATOMIC CHARGES
-----------------------
   0 S :    0.102264
   1 C :   -0.097067
   2 C :   -0.069140
   3 C :    0.021848
   4 C :   -0.155312
   5 H :    0.031338
   6 C :    0.045487
   7 H :    0.044755
   8 H :    0.014279
   9 C :   -0.066446
  10 H :    0.024726
  11 H :    0.043326
  12 C :   -0.087254
  13 H :    0.048661
  14 H :    0.010851
  15 H :    0.034957
  16 S :    0.104941
  17 C :   -0.080291
  18 C :   -0.048694
  19 C :   -0.033300
  20 C :   -0.157621
  21 H :    0.026450
  22 C :    0.055968
  23 H :    0.010743
  24 H :    0.019298
  25 C :   -0.034813
  26 H :    0.041146
  27 H :    0.021533
  28 C :   -0.076745
  29 H :    0.039748
  30 H :    0.029948
  31 H :    0.045587
  32 H :    0.034558
  33 H :    0.054273
Sum of atomic charges:    0.0000000

LOEWDIN ATOMIC CHARGES
----------------------
   0 S :    0.397535
   1 C :   -0.190321
   2 C :   -0.068774
   3 C :   -0.061947
   4 C :   -0.183363
   5 H :    0.037251
   6 C :   -0.033962
   7 H :    0.038788
   8 H :    0.028691
   9 C :   -0.046530
  10 H :    0.027901
  11 H :    0.028287
  12 C :   -0.084652
  13 H :    0.031080
  14 H :    0.019028
  15 H :    0.034662
  16 S :    0.383667
  17 C :   -0.170920
  18 C :   -0.069332
  19 C :   -0.044802
  20 C :   -0.201882
  21 H :    0.032972
  22 C :   -0.032431
  23 H :    0.023762
  24 H :    0.026079
  25 C :   -0.033408
  26 H :    0.031829
  27 H :    0.014672
  28 C :   -0.070762
  29 H :    0.031930
  30 H :    0.027865
  31 H :    0.028304
  32 H :    0.019492
  33 H :    0.029293

  Mayer bond orders larger than 0.100000
B(  0-S ,  1-C ) :   1.1385 B(  0-S ,  4-C ) :   1.1512 B(  1-C ,  2-C ) :   1.5898
B(  1-C , 32-H ) :   0.9775 B(  2-C ,  3-C ) :   1.2413 B(  2-C ,  6-C ) :   1.0422
B(  3-C ,  4-C ) :   1.5507 B(  3-C ,  5-H ) :   0.9888 B(  4-C , 20-C ) :   1.0604
B(  6-C ,  7-H ) :   0.9340 B(  6-C ,  8-H ) :   0.9451 B(  6-C ,  9-C ) :   1.0501
B(  9-C , 10-H ) :   0.9504 B(  9-C , 11-H ) :   0.9629 B(  9-C , 12-C ) :   1.0871
B( 12-C , 13-H ) :   0.9727 B( 12-C , 14-H ) :   0.9665 B( 12-C , 15-H ) :   0.9725
B( 16-S , 17-C ) :   1.1347 B( 16-S , 20-C ) :   1.1282 B( 17-C , 18-C ) :   1.6534
B( 17-C , 33-H ) :   0.9591 B( 18-C , 19-C ) :   1.2172 B( 18-C , 21-H ) :   0.9847
B( 19-C , 20-C ) :   1.5950 B( 19-C , 22-C ) :   1.0308 B( 22-C , 23-H ) :   0.9197
B( 22-C , 24-H ) :   0.9390 B( 22-C , 25-C ) :   1.0688 B( 25-C , 26-H ) :   0.9607
B( 25-C , 27-H ) :   0.9433 B( 25-C , 28-C ) :   1.0787 B( 28-C , 29-H ) :   0.9735
B( 28-C , 30-H ) :   0.9723 B( 28-C , 31-H ) :   0.9732

Dispersion correction           -0.013333505
FINAL SINGLE POINT ENERGY     -1339.858583018967

DIPOLE MOMENT
-------------
                                X             Y             Z
Electronic contribution:    -26.65002     -11.41228      -9.15186
Nuclear contribution   :     27.05209      11.92998       9.50176
                        -----------------------------------------
Total Dipole Moment    :      0.40206       0.51770       0.34990
                        -----------------------------------------
Magnitude (a.u.)       :      0.74303
Magnitude (Debye)      :      1.88864

Rotational constants in cm-1:     0.016789     0.008247     0.006250
Rotational constants in MHz :   503.324307   247.234330   187.356428

                             ****ORCA TERMINATED NORMALLY****
TOTAL RUN TIME: 0 days 0 hours 0 minutes 22 seconds 259 msec
