                         Program Version 4.2.1 -  RELEASE  -
|  1> ! wB97X-D3 SP def2-SVP
|  2> %pal
|  3> nprocs 24
|  4> end
|  5>
|  6> * xyz 0 1
|  7> S 	 -115.017 	 20.9836 	 -113.282
|  8> C 	 -116.728 	 21.5014 	 -113.38
|  9> C 	 -117.582 	 20.4798 	 -113.077
| 10> C 	 -116.851 	 19.4422 	 -112.437
| 11> C 	 -115.492 	 19.4813 	 -112.652
| 12> H 	 -117.322 	 18.5591 	 -112.005
| 13> C 	 -119.099 	 20.4422 	 -113.156
| 14> H 	 -119.408 	 19.3672 	 -112.903
| 15> H 	 -119.384 	 20.4743 	 -114.197
| 16> C 	 -119.777 	 21.5369 	 -112.394
| 17> H 	 -119.577 	 21.495 	 -111.308
| 18> H 	 -119.335 	 22.5252 	 -112.681
| 19> C 	 -121.273 	 21.5935 	 -112.7
| 20> H 	 -121.473 	 21.8963 	 -113.742
| 21> H 	 -121.75 	 20.643 	 -112.588
| 22> H 	 -121.725 	 22.3223 	 -111.982
| 23> S 	 -114.031 	 18.7171 	 -110.415
| 24> C 	 -113.282 	 17.1574 	 -110.425
| 25> C 	 -113.515 	 16.4887 	 -111.647
| 26> C 	 -114.231 	 17.2853 	 -112.583
| 27> C 	 -114.518 	 18.517 	 -112.102
| 28> H 	 -113.103 	 15.5139 	 -111.685
| 29> C 	 -114.734 	 16.8582 	 -113.967
| 30> H 	 -115.572 	 17.3503 	 -114.38
| 31> H 	 -115.123 	 15.8711 	 -113.733
| 32> C 	 -113.684 	 16.8991 	 -115.103
| 33> H 	 -114.206 	 16.5173 	 -116.003
| 34> H 	 -112.828 	 16.3202 	 -114.9
| 35> C 	 -113.122 	 18.223 	 -115.292
| 36> H 	 -112.57 	 18.1368 	 -116.208
| 37> H 	 -112.5 	 18.5847 	 -114.497
| 38> H 	 -113.941 	 18.9249 	 -115.51
| 39> H 	 -117.157 	 22.4611 	 -113.61
| 40> H 	 -112.928 	 16.6749 	 -109.516
| 41> *
| 42>
| 43>                          ****END OF INPUT****

CARTESIAN COORDINATES (ANGSTROEM)
---------------------------------
  S    -115.017000   20.983600  -113.282000
  C    -116.728000   21.501400  -113.380000
  C    -117.582000   20.479800  -113.077000
  C    -116.851000   19.442200  -112.437000
  C    -115.492000   19.481300  -112.652000
  H    -117.322000   18.559100  -112.005000
  C    -119.099000   20.442200  -113.156000
  H    -119.408000   19.367200  -112.903000
  H    -119.384000   20.474300  -114.197000
  C    -119.777000   21.536900  -112.394000
  H    -119.577000   21.495000  -111.308000
  H    -119.335000   22.525200  -112.681000
  C    -121.273000   21.593500  -112.700000
  H    -121.473000   21.896300  -113.742000
  H    -121.750000   20.643000  -112.588000
  H    -121.725000   22.322300  -111.982000
  S    -114.031000   18.717100  -110.415000
  C    -113.282000   17.157400  -110.425000
  C    -113.515000   16.488700  -111.647000
  C    -114.231000   17.285300  -112.583000
  C    -114.518000   18.517000  -112.102000
  H    -113.103000   15.513900  -111.685000
  C    -114.734000   16.858200  -113.967000
  H    -115.572000   17.350300  -114.380000
  H    -115.123000   15.871100  -113.733000
  C    -113.684000   16.899100  -115.103000
  H    -114.206000   16.517300  -116.003000
  H    -112.828000   16.320200  -114.900000
  C    -113.122000   18.223000  -115.292000
  H    -112.570000   18.136800  -116.208000
  H    -112.500000   18.584700  -114.497000
  H    -113.941000   18.924900  -115.510000
  H    -117.157000   22.461100  -113.610000
  H    -112.928000   16.674900  -109.516000

 Total Charge           Charge          ....    0
 Multiplicity           Mult            ....    1
 Number of Electrons    NEL             ....  134
 Basis Dimension        Dim             ....  322

ORBITAL ENERGIES
----------------

  NO   OCC          E(Eh)            E(eV)
   0   2.0000     -88.966963     -2420.9141
   1   2.0000     -88.962845     -2420.8021
   2   2.0000     -10.320749      -280.8419
   3   2.0000     -10.318834      -280.7898
   4   2.0000     -10.318673      -280.7854
   5   2.0000     -10.310565      -280.5647
   6   2.0000     -10.301356      -280.3142
   7   2.0000     -10.296724      -280.1881
   8   2.0000     -10.295502      -280.1548
   9   2.0000     -10.294802      -280.1358
  10   2.0000     -10.291771      -280.0533
  11   2.0000     -10.287725      -279.9432
  12   2.0000     -10.283322      -279.8234
  13   2.0000     -10.281485      -279.7734
  14   2.0000     -10.273811      -279.5646
  15   2.0000     -10.260216      -279.1947
  16   2.0000      -8.081511      -219.9091
  17   2.0000      -8.077825      -219.8088
  18   2.0000      -6.040050      -164.3581
  19   2.0000      -6.036166      -164.2524
  20   2.0000      -6.035986      -164.2475
  21   2.0000      -6.032304      -164.1473
  22   2.0000      -6.032295      -164.1471
  23   2.0000      -6.028740      -164.0503
  24   2.0000      -1.008850       -27.4522
  25   2.0000      -0.985760       -26.8239
  26   2.0000      -0.917931       -24.9782
  27   2.0000      -0.914552       -24.8862
  28   2.0000      -0.867638       -23.6096
  29   2.0000      -0.855006       -23.2659
  30   2.0000      -0.845347       -23.0031
  31   2.0000      -0.808235       -21.9932
  32   2.0000      -0.786176       -21.3929
  33   2.0000      -0.775865       -21.1124
  34   2.0000      -0.706803       -19.2331
  35   2.0000      -0.695559       -18.9271
  36   2.0000      -0.688218       -18.7274
  37   2.0000      -0.657497       -17.8914
  38   2.0000      -0.636554       -17.3215
  39   2.0000      -0.618183       -16.8216
  40   2.0000      -0.602849       -16.4044
  41   2.0000      -0.572011       -15.5652
  42   2.0000      -0.558786       -15.2053
  43   2.0000      -0.554093       -15.0776
  44   2.0000      -0.549823       -14.9614
  45   2.0000      -0.533614       -14.5204
  46   2.0000      -0.518164       -14.1000
  47   2.0000      -0.510773       -13.8988
  48   2.0000      -0.501528       -13.6473
  49   2.0000      -0.493215       -13.4210
  50   2.0000      -0.484971       -13.1967
  51   2.0000      -0.476566       -12.9680
  52   2.0000      -0.471145       -12.8205
  53   2.0000      -0.466017       -12.6810
  54   2.0000      -0.458658       -12.4807
  55   2.0000      -0.450955       -12.2711
  56   2.0000      -0.444579       -12.0976
  57   2.0000      -0.440371       -11.9831
  58   2.0000      -0.427917       -11.6442
  59   2.0000      -0.423168       -11.5150
  60   2.0000      -0.417556       -11.3623
  61   2.0000      -0.413837       -11.2611
  62   2.0000      -0.406743       -11.0680
  63   2.0000      -0.335765        -9.1366
  64   2.0000      -0.328672        -8.9436
  65   2.0000      -0.317713        -8.6454
  66   2.0000      -0.310375        -8.4457
  67   0.0000       0.047726         1.2987
  68   0.0000       0.052887         1.4391
  69   0.0000       0.111856         3.0438
  70   0.0000       0.118235         3.2173
  71   0.0000       0.135981         3.7002

MULLIKEN ATOMIC CHARGES
-----------------------
   0 S :    0.125158
   1 C :   -0.125836
   2 C :   -0.089393
   3 C :    0.028522
   4 C :   -0.178752
   5 H :    0.013063
   6 C :    0.079426
   7 H :    0.025490
   8 H :    0.024921
   9 C :   -0.097703
  10 H :    0.039268
  11 H :    0.029626
  12 C :   -0.038010
  13 H :    0.033652
  14 H :    0.025084
  15 H :    0.042495
  16 S :    0.115286
  17 C :   -0.111118
  18 C :   -0.043962
  19 C :   -0.020340
  20 C :   -0.159800
  21 H :    0.008745
  22 C :    0.098072
  23 H :    0.018317
  24 H :    0.015947
  25 C :   -0.051605
  26 H :    0.031404
  27 H :    0.010970
  28 C :   -0.033556
  29 H :    0.022374
  30 H :    0.045646
  31 H :    0.018215
  32 H :    0.032244
  33 H :    0.066149
Sum of atomic charges:   -0.0000000

LOEWDIN ATOMIC CHARGES
----------------------
   0 S :    0.423850
   1 C :   -0.189484
   2 C :   -0.062622
   3 C :   -0.062050
   4 C :   -0.217611
   5 H :    0.029830
   6 C :   -0.036122
   7 H :    0.036361
   8 H :    0.031509
   9 C :   -0.046160
  10 H :    0.029290
  11 H :    0.027806
  12 C :   -0.065394
  13 H :    0.027025
  14 H :    0.019620
  15 H :    0.033212
  16 S :    0.408717
  17 C :   -0.189716
  18 C :   -0.070723
  19 C :   -0.051693
  20 C :   -0.202447
  21 H :    0.026940
  22 C :   -0.025331
  23 H :    0.025023
  24 H :    0.029505
  25 C :   -0.037546
  26 H :    0.028540
  27 H :    0.015980
  28 C :   -0.062990
  29 H :    0.026990
  30 H :    0.025062
  31 H :    0.020328
  32 H :    0.023440
  33 H :    0.030860

  Mayer bond orders larger than 0.100000
B(  0-S ,  1-C ) :   1.1367 B(  0-S ,  4-C ) :   1.1588 B(  1-C ,  2-C ) :   1.6214
B(  1-C , 32-H ) :   0.9680 B(  2-C ,  3-C ) :   1.2481 B(  2-C ,  6-C ) :   1.0097
B(  3-C ,  4-C ) :   1.5928 B(  3-C ,  5-H ) :   0.9851 B(  4-C , 20-C ) :   0.9856
B(  6-C ,  7-H ) :   0.9383 B(  6-C ,  8-H ) :   0.9323 B(  6-C ,  9-C ) :   1.0665
B(  9-C , 10-H ) :   0.9553 B(  9-C , 11-H ) :   0.9529 B(  9-C , 12-C ) :   1.0812
B( 12-C , 13-H ) :   0.9739 B( 12-C , 14-H ) :   0.9743 B( 12-C , 15-H ) :   0.9736
B( 16-S , 17-C ) :   1.1746 B( 16-S , 20-C ) :   1.1441 B( 17-C , 18-C ) :   1.6000
B( 17-C , 33-H ) :   0.9653 B( 18-C , 19-C ) :   1.2278 B( 18-C , 21-H ) :   1.0039
B( 19-C , 20-C ) :   1.6172 B( 19-C , 22-C ) :   1.0251 B( 22-C , 23-H ) :   0.9352
B( 22-C , 24-H ) :   0.9302 B( 22-C , 25-C ) :   1.0741 B( 25-C , 26-H ) :   0.9541
B( 25-C , 27-H ) :   0.9542 B( 25-C , 28-C ) :   1.0874 B( 28-C , 29-H ) :   0.9658
B( 28-C , 30-H ) :   0.9705 B( 28-C , 31-H ) :   0.9694

Dispersion correction           -0.015048017
FINAL SINGLE POINT ENERGY     -1339.867716925713

DIPOLE MOMENT
-------------
                                X             Y             Z
Electronic contribution:     16.33186       1.85929      12.26996
Nuclear contribution   :    -16.89610      -2.21224     -12.38748
                        -----------------------------------------
Total Dipole Moment    :     -0.56424      -0.35295      -0.11751
                        -----------------------------------------
Magnitude (a.u.)       :      0.67584
Magnitude (Debye)      :      1.71784

Rotational constants in cm-1:     0.022201     0.007684     0.006938
Rotational constants in MHz :   665.583047   230.346353   207.985695

                             ****ORCA TERMINATED NORMALLY****
TOTAL RUN TIME: 0 days 0 hours 0 minutes 20 seconds 846 msec
