                         Program Version 4.2.1 -  RELEASE  -
|  1> ! wB97X-D3 SP def2-SVP
|  2> %pal
|  3> nprocs 24
|  4> end
|  5>
|  6> * xyz 0 1
|  7> S 	 -103.353 	 62.5224 	 -4.55896
|  8> C 	 -104.778 	 63.1469 	 -5.36082
|  9> C 	 -104.46 	 63.9375 	 -6.42769
| 10> C 	 -103.08 	 63.8242 	 -6.76228
| 11> C 	 -102.361 	 63.2168 	 -5.75908
| 12> H 	 -102.567 	 64.3117 	 -7.61374
| 13> C 	 -105.401 	 64.7814 	 -7.21914
| 14> H 	 -106.425 	 64.5464 	 -6.90361
| 15> H 	 -105.245 	 64.4913 	 -8.26717
| 16> C 	 -105.159 	 66.3111 	 -7.0224
| 17> H 	 -105.433 	 66.6122 	 -6.09052
| 18> H 	 -104.096 	 66.4798 	 -7.11823
| 19> C 	 -105.979 	 67.1036 	 -8.08036
| 20> H 	 -105.547 	 66.9657 	 -9.05884
| 21> H 	 -106.927 	 66.6533 	 -8.23353
| 22> H 	 -106.016 	 68.1968 	 -7.92338
| 23> S 	 -100.378 	 61.5019 	 -5.25013
| 24> C 	 -98.7211 	 61.9791 	 -5.32433
| 25> C 	 -98.6347 	 63.2282 	 -5.88569
| 26> C 	 -99.8691 	 63.8867 	 -6.19877
| 27> C 	 -100.905 	 63.1048 	 -5.78835
| 28> H 	 -97.6898 	 63.6929 	 -6.00794
| 29> C 	 -99.942 	 65.3404 	 -6.68804
| 30> H 	 -100.77 	 65.43 	 -7.37447
| 31> H 	 -99.113 	 65.3876 	 -7.48751
| 32> C 	 -99.8547 	 66.5291 	 -5.72977
| 33> H 	 -99.7059 	 67.4046 	 -6.2973
| 34> H 	 -98.943 	 66.4658 	 -5.10484
| 35> C 	 -101.159 	 66.6831 	 -4.91792
| 36> H 	 -101.42 	 65.7529 	 -4.41567
| 37> H 	 -102.033 	 66.9695 	 -5.52544
| 38> H 	 -101.027 	 67.3455 	 -4.09991
| 39> H 	 -105.775 	 63.0425 	 -4.86997
| 40> H 	 -97.8405 	 61.3491 	 -5.2837
| 41> *
| 42>
| 43>                          ****END OF INPUT****

CARTESIAN COORDINATES (ANGSTROEM)
---------------------------------
  S    -103.353000   62.522400   -4.558960
  C    -104.778000   63.146900   -5.360820
  C    -104.460000   63.937500   -6.427690
  C    -103.080000   63.824200   -6.762280
  C    -102.361000   63.216800   -5.759080
  H    -102.567000   64.311700   -7.613740
  C    -105.401000   64.781400   -7.219140
  H    -106.425000   64.546400   -6.903610
  H    -105.245000   64.491300   -8.267170
  C    -105.159000   66.311100   -7.022400
  H    -105.433000   66.612200   -6.090520
  H    -104.096000   66.479800   -7.118230
  C    -105.979000   67.103600   -8.080360
  H    -105.547000   66.965700   -9.058840
  H    -106.927000   66.653300   -8.233530
  H    -106.016000   68.196800   -7.923380
  S    -100.378000   61.501900   -5.250130
  C    -98.721100   61.979100   -5.324330
  C    -98.634700   63.228200   -5.885690
  C    -99.869100   63.886700   -6.198770
  C    -100.905000   63.104800   -5.788350
  H    -97.689800   63.692900   -6.007940
  C    -99.942000   65.340400   -6.688040
  H    -100.770000   65.430000   -7.374470
  H    -99.113000   65.387600   -7.487510
  C    -99.854700   66.529100   -5.729770
  H    -99.705900   67.404600   -6.297300
  H    -98.943000   66.465800   -5.104840
  C    -101.159000   66.683100   -4.917920
  H    -101.420000   65.752900   -4.415670
  H    -102.033000   66.969500   -5.525440
  H    -101.027000   67.345500   -4.099910
  H    -105.775000   63.042500   -4.869970
  H    -97.840500   61.349100   -5.283700

 Total Charge           Charge          ....    0
 Multiplicity           Mult            ....    1
 Number of Electrons    NEL             ....  134
 Basis Dimension        Dim             ....  322

ORBITAL ENERGIES
----------------

  NO   OCC          E(Eh)            E(eV)
   0   2.0000     -88.967171     -2420.9198
   1   2.0000     -88.961523     -2420.7661
   2   2.0000     -10.326322      -280.9935
   3   2.0000     -10.324548      -280.9452
   4   2.0000     -10.312472      -280.6166
   5   2.0000     -10.311217      -280.5825
   6   2.0000     -10.303315      -280.3675
   7   2.0000     -10.299678      -280.2685
   8   2.0000     -10.297596      -280.2118
   9   2.0000     -10.293962      -280.1129
  10   2.0000     -10.290794      -280.0267
  11   2.0000     -10.288302      -279.9589
  12   2.0000     -10.288251      -279.9575
  13   2.0000     -10.283383      -279.8251
  14   2.0000     -10.277221      -279.6574
  15   2.0000     -10.271853      -279.5113
  16   2.0000      -8.082656      -219.9402
  17   2.0000      -8.076641      -219.7766
  18   2.0000      -6.041105      -164.3868
  19   2.0000      -6.037123      -164.2785
  20   2.0000      -6.035182      -164.2256
  21   2.0000      -6.033359      -164.1760
  22   2.0000      -6.031079      -164.1140
  23   2.0000      -6.027351      -164.0126
  24   2.0000      -1.013991       -27.5921
  25   2.0000      -0.988863       -26.9083
  26   2.0000      -0.914999       -24.8984
  27   2.0000      -0.907137       -24.6845
  28   2.0000      -0.870244       -23.6805
  29   2.0000      -0.854763       -23.2593
  30   2.0000      -0.845553       -23.0087
  31   2.0000      -0.812484       -22.1088
  32   2.0000      -0.783163       -21.3110
  33   2.0000      -0.774497       -21.0751
  34   2.0000      -0.715526       -19.4705
  35   2.0000      -0.706401       -19.2222
  36   2.0000      -0.694628       -18.9018
  37   2.0000      -0.664094       -18.0709
  38   2.0000      -0.638367       -17.3708
  39   2.0000      -0.622145       -16.9294
  40   2.0000      -0.594611       -16.1802
  41   2.0000      -0.567964       -15.4551
  42   2.0000      -0.558869       -15.2076
  43   2.0000      -0.551332       -15.0025
  44   2.0000      -0.541233       -14.7277
  45   2.0000      -0.526257       -14.3202
  46   2.0000      -0.517377       -14.0785
  47   2.0000      -0.510573       -13.8934
  48   2.0000      -0.503121       -13.6906
  49   2.0000      -0.498455       -13.5636
  50   2.0000      -0.493096       -13.4178
  51   2.0000      -0.476671       -12.9709
  52   2.0000      -0.475454       -12.9378
  53   2.0000      -0.464831       -12.6487
  54   2.0000      -0.460779       -12.5384
  55   2.0000      -0.450385       -12.2556
  56   2.0000      -0.444677       -12.1003
  57   2.0000      -0.439678       -11.9642
  58   2.0000      -0.437032       -11.8922
  59   2.0000      -0.429261       -11.6808
  60   2.0000      -0.422530       -11.4976
  61   2.0000      -0.420651       -11.4465
  62   2.0000      -0.411119       -11.1871
  63   2.0000      -0.353090        -9.6081
  64   2.0000      -0.332435        -9.0460
  65   2.0000      -0.330139        -8.9835
  66   2.0000      -0.289737        -7.8841
  67   0.0000       0.029321         0.7979
  68   0.0000       0.082290         2.2392
  69   0.0000       0.106773         2.9054
  70   0.0000       0.114931         3.1274
  71   0.0000       0.131376         3.5749

MULLIKEN ATOMIC CHARGES
-----------------------
   0 S :    0.119885
   1 C :   -0.150860
   2 C :   -0.074884
   3 C :   -0.010531
   4 C :   -0.122290
   5 H :    0.025790
   6 C :    0.055902
   7 H :    0.018382
   8 H :    0.033933
   9 C :   -0.036181
  10 H :    0.008378
  11 H :    0.028856
  12 C :   -0.030068
  13 H :    0.013998
  14 H :    0.019435
  15 H :    0.044986
  16 S :    0.086853
  17 C :   -0.066472
  18 C :   -0.048250
  19 C :   -0.032313
  20 C :   -0.158174
  21 H :    0.000183
  22 C :    0.033183
  23 H :   -0.000192
  24 H :    0.024969
  25 C :    0.000463
  26 H :    0.017661
  27 H :    0.028952
  28 C :   -0.046586
  29 H :    0.035570
  30 H :    0.035650
  31 H :    0.022159
  32 H :    0.062156
  33 H :    0.059459
Sum of atomic charges:   -0.0000000

LOEWDIN ATOMIC CHARGES
----------------------
   0 S :    0.420584
   1 C :   -0.207991
   2 C :   -0.063001
   3 C :   -0.070113
   4 C :   -0.209112
   5 H :    0.033769
   6 C :   -0.026380
   7 H :    0.028810
   8 H :    0.033930
   9 C :   -0.021880
  10 H :    0.010654
  11 H :    0.020303
  12 C :   -0.064366
  13 H :    0.022791
  14 H :    0.020552
  15 H :    0.030174
  16 S :    0.398138
  17 C :   -0.199313
  18 C :   -0.064330
  19 C :   -0.066227
  20 C :   -0.172413
  21 H :    0.022199
  22 C :   -0.036744
  23 H :    0.021926
  24 H :    0.039380
  25 C :   -0.032205
  26 H :    0.020784
  27 H :    0.028871
  28 C :   -0.064443
  29 H :    0.028738
  30 H :    0.027566
  31 H :    0.020817
  32 H :    0.034443
  33 H :    0.034091

  Mayer bond orders larger than 0.100000
B(  0-S ,  1-C ) :   1.1196 B(  0-S ,  4-C ) :   1.1684 B(  1-C ,  2-C ) :   1.6245
B(  1-C , 32-H ) :   0.9621 B(  2-C ,  3-C ) :   1.2265 B(  2-C ,  6-C ) :   1.0324
B(  3-C ,  4-C ) :   1.5686 B(  3-C ,  5-H ) :   0.9858 B(  4-C , 20-C ) :   1.0317
B(  6-C ,  7-H ) :   0.9357 B(  6-C ,  8-H ) :   0.9422 B(  6-C ,  9-C ) :   1.0568
B(  9-C , 10-H ) :   0.9565 B(  9-C , 11-H ) :   0.9588 B(  9-C , 12-C ) :   1.0756
B( 12-C , 13-H ) :   0.9737 B( 12-C , 14-H ) :   0.9715 B( 12-C , 15-H ) :   0.9762
B( 16-S , 17-C ) :   1.1335 B( 16-S , 20-C ) :   1.1473 B( 17-C , 18-C ) :   1.6302
B( 17-C , 33-H ) :   0.9646 B( 18-C , 19-C ) :   1.2266 B( 18-C , 21-H ) :   0.9908
B( 19-C , 20-C ) :   1.6200 B( 19-C , 22-C ) :   1.0378 B( 22-C , 23-H ) :   0.9333
B( 22-C , 24-H ) :   0.9261 B( 22-C , 25-C ) :   1.0724 B( 25-C , 26-H ) :   0.9474
B( 25-C , 27-H ) :   0.9544 B( 25-C , 28-C ) :   1.0770 B( 28-C , 29-H ) :   0.9754
B( 28-C , 30-H ) :   0.9735 B( 28-C , 31-H ) :   0.9709

Dispersion correction           -0.015542508
FINAL SINGLE POINT ENERGY     -1339.882926535251

DIPOLE MOMENT
-------------
                                X             Y             Z
Electronic contribution:      7.91159     -27.62721      10.30914
Nuclear contribution   :     -7.93119      28.29940     -10.65156
                        -----------------------------------------
Total Dipole Moment    :     -0.01960       0.67219      -0.34242
                        -----------------------------------------
Magnitude (a.u.)       :      0.75463
Magnitude (Debye)      :      1.91813

Rotational constants in cm-1:     0.020212     0.009518     0.007233
Rotational constants in MHz :   605.951637   285.343228   216.831562

                             ****ORCA TERMINATED NORMALLY****
TOTAL RUN TIME: 0 days 0 hours 0 minutes 21 seconds 604 msec
