                         Program Version 4.2.1 -  RELEASE  -
|  1> ! wB97X-D3 SP def2-SVP
|  2> %pal
|  3> nprocs 24
|  4> end
|  5>
|  6> * xyz 0 1
|  7> S 	 -122.54 	 51.0091 	 -37.3913
|  8> C 	 -121.145 	 49.8699 	 -37.3584
|  9> C 	 -121.176 	 48.9651 	 -36.3135
| 10> C 	 -122.416 	 49.1851 	 -35.5425
| 11> C 	 -123.086 	 50.349 	 -35.9041
| 12> H 	 -122.801 	 48.6133 	 -34.7524
| 13> C 	 -120.16 	 47.8682 	 -36.1685
| 14> H 	 -119.42 	 47.956 	 -36.9812
| 15> H 	 -120.623 	 46.8999 	 -36.4435
| 16> C 	 -119.448 	 47.7337 	 -34.8052
| 17> H 	 -120.22 	 47.3475 	 -34.1223
| 18> H 	 -118.739 	 46.8878 	 -34.7595
| 19> C 	 -118.874 	 49.0433 	 -34.229
| 20> H 	 -119.621 	 49.7889 	 -34.1295
| 21> H 	 -118.54 	 48.9475 	 -33.2227
| 22> H 	 -117.956 	 49.415 	 -34.7259
| 23> S 	 -125.759 	 50.9748 	 -35.7522
| 24> C 	 -126.481 	 51.4945 	 -34.2958
| 25> C 	 -125.496 	 51.7226 	 -33.356
| 26> C 	 -124.169 	 51.3782 	 -33.8108
| 27> C 	 -124.169 	 50.9978 	 -35.1256
| 28> H 	 -125.805 	 52.0958 	 -32.3716
| 29> C 	 -122.928 	 51.2976 	 -32.848
| 30> H 	 -122.765 	 52.3397 	 -32.5948
| 31> H 	 -122.079 	 51.0039 	 -33.4838
| 32> C 	 -123.034 	 50.5054 	 -31.5413
| 33> H 	 -123.876 	 50.7139 	 -31.0299
| 34> H 	 -122.279 	 50.8752 	 -30.8558
| 35> C 	 -122.941 	 48.9503 	 -31.7153
| 36> H 	 -123.782 	 48.4653 	 -32.2019
| 37> H 	 -123.016 	 48.5327 	 -30.7048
| 38> H 	 -121.962 	 48.6918 	 -32.179
| 39> H 	 -120.261 	 49.8559 	 -38.0676
| 40> H 	 -127.462 	 51.8386 	 -34.1934
| 41> *
| 42>
| 43>                          ****END OF INPUT****

CARTESIAN COORDINATES (ANGSTROEM)
---------------------------------
  S    -122.540000   51.009100  -37.391300
  C    -121.145000   49.869900  -37.358400
  C    -121.176000   48.965100  -36.313500
  C    -122.416000   49.185100  -35.542500
  C    -123.086000   50.349000  -35.904100
  H    -122.801000   48.613300  -34.752400
  C    -120.160000   47.868200  -36.168500
  H    -119.420000   47.956000  -36.981200
  H    -120.623000   46.899900  -36.443500
  C    -119.448000   47.733700  -34.805200
  H    -120.220000   47.347500  -34.122300
  H    -118.739000   46.887800  -34.759500
  C    -118.874000   49.043300  -34.229000
  H    -119.621000   49.788900  -34.129500
  H    -118.540000   48.947500  -33.222700
  H    -117.956000   49.415000  -34.725900
  S    -125.759000   50.974800  -35.752200
  C    -126.481000   51.494500  -34.295800
  C    -125.496000   51.722600  -33.356000
  C    -124.169000   51.378200  -33.810800
  C    -124.169000   50.997800  -35.125600
  H    -125.805000   52.095800  -32.371600
  C    -122.928000   51.297600  -32.848000
  H    -122.765000   52.339700  -32.594800
  H    -122.079000   51.003900  -33.483800
  C    -123.034000   50.505400  -31.541300
  H    -123.876000   50.713900  -31.029900
  H    -122.279000   50.875200  -30.855800
  C    -122.941000   48.950300  -31.715300
  H    -123.782000   48.465300  -32.201900
  H    -123.016000   48.532700  -30.704800
  H    -121.962000   48.691800  -32.179000
  H    -120.261000   49.855900  -38.067600
  H    -127.462000   51.838600  -34.193400

 Total Charge           Charge          ....    0
 Multiplicity           Mult            ....    1
 Number of Electrons    NEL             ....  134
 Basis Dimension        Dim             ....  322

ORBITAL ENERGIES
----------------

  NO   OCC          E(Eh)            E(eV)
   0   2.0000     -88.966965     -2420.9142
   1   2.0000     -88.961180     -2420.7568
   2   2.0000     -10.328699      -281.0582
   3   2.0000     -10.320861      -280.8449
   4   2.0000     -10.319944      -280.8200
   5   2.0000     -10.310481      -280.5625
   6   2.0000     -10.307173      -280.4724
   7   2.0000     -10.304546      -280.4009
   8   2.0000     -10.298563      -280.2381
   9   2.0000     -10.295460      -280.1537
  10   2.0000     -10.295050      -280.1425
  11   2.0000     -10.293485      -280.1000
  12   2.0000     -10.292237      -280.0660
  13   2.0000     -10.282376      -279.7977
  14   2.0000     -10.282157      -279.7917
  15   2.0000     -10.274021      -279.5703
  16   2.0000      -8.081555      -219.9103
  17   2.0000      -8.077674      -219.8047
  18   2.0000      -6.040049      -164.3581
  19   2.0000      -6.036241      -164.2545
  20   2.0000      -6.036158      -164.2522
  21   2.0000      -6.032175      -164.1438
  22   2.0000      -6.031747      -164.1322
  23   2.0000      -6.028539      -164.0449
  24   2.0000      -1.010604       -27.4999
  25   2.0000      -0.983294       -26.7568
  26   2.0000      -0.910886       -24.7865
  27   2.0000      -0.903972       -24.5983
  28   2.0000      -0.866757       -23.5857
  29   2.0000      -0.847763       -23.0688
  30   2.0000      -0.841311       -22.8932
  31   2.0000      -0.814610       -22.1667
  32   2.0000      -0.786346       -21.3976
  33   2.0000      -0.777541       -21.1580
  34   2.0000      -0.712543       -19.3893
  35   2.0000      -0.705373       -19.1942
  36   2.0000      -0.690058       -18.7774
  37   2.0000      -0.655645       -17.8410
  38   2.0000      -0.637589       -17.3497
  39   2.0000      -0.617784       -16.8107
  40   2.0000      -0.594629       -16.1807
  41   2.0000      -0.567049       -15.4302
  42   2.0000      -0.549909       -14.9638
  43   2.0000      -0.546921       -14.8825
  44   2.0000      -0.545325       -14.8391
  45   2.0000      -0.540320       -14.7029
  46   2.0000      -0.524227       -14.2649
  47   2.0000      -0.505744       -13.7620
  48   2.0000      -0.502241       -13.6667
  49   2.0000      -0.493712       -13.4346
  50   2.0000      -0.489616       -13.3231
  51   2.0000      -0.471814       -12.8387
  52   2.0000      -0.469219       -12.7681
  53   2.0000      -0.466193       -12.6858
  54   2.0000      -0.462230       -12.5779
  55   2.0000      -0.450294       -12.2531
  56   2.0000      -0.443111       -12.0577
  57   2.0000      -0.439271       -11.9532
  58   2.0000      -0.436917       -11.8891
  59   2.0000      -0.427807       -11.6412
  60   2.0000      -0.426437       -11.6039
  61   2.0000      -0.412769       -11.2320
  62   2.0000      -0.410408       -11.1678
  63   2.0000      -0.338924        -9.2226
  64   2.0000      -0.330202        -8.9853
  65   2.0000      -0.324220        -8.8225
  66   2.0000      -0.303638        -8.2624
  67   0.0000       0.039676         1.0796
  68   0.0000       0.068196         1.8557
  69   0.0000       0.109905         2.9907
  70   0.0000       0.122400         3.3307
  71   0.0000       0.125769         3.4223

MULLIKEN ATOMIC CHARGES
-----------------------
   0 S :    0.116997
   1 C :   -0.136527
   2 C :   -0.097491
   3 C :    0.061060
   4 C :   -0.176519
   5 H :   -0.010707
   6 C :    0.070010
   7 H :    0.012498
   8 H :    0.043026
   9 C :   -0.086549
  10 H :    0.023839
  11 H :    0.030441
  12 C :   -0.023235
  13 H :    0.033753
  14 H :    0.013820
  15 H :    0.034815
  16 S :    0.111693
  17 C :   -0.072609
  18 C :   -0.061309
  19 C :   -0.047897
  20 C :   -0.153322
  21 H :    0.023800
  22 C :    0.069280
  23 H :    0.026218
  24 H :    0.035126
  25 C :   -0.006235
  26 H :   -0.007327
  27 H :    0.023143
  28 C :   -0.075718
  29 H :    0.047238
  30 H :    0.028549
  31 H :    0.042942
  32 H :    0.064240
  33 H :    0.042957
Sum of atomic charges:   -0.0000000

LOEWDIN ATOMIC CHARGES
----------------------
   0 S :    0.397714
   1 C :   -0.191796
   2 C :   -0.059811
   3 C :   -0.052802
   4 C :   -0.200665
   5 H :    0.021057
   6 C :   -0.035834
   7 H :    0.028774
   8 H :    0.040083
   9 C :   -0.046098
  10 H :    0.024116
  11 H :    0.027948
  12 C :   -0.066285
  13 H :    0.021989
  14 H :    0.023605
  15 H :    0.030139
  16 S :    0.437423
  17 C :   -0.192080
  18 C :   -0.075342
  19 C :   -0.055589
  20 C :   -0.223104
  21 H :    0.031538
  22 C :   -0.028692
  23 H :    0.032745
  24 H :    0.031102
  25 C :   -0.030509
  26 H :    0.007391
  27 H :    0.029716
  28 C :   -0.067995
  29 H :    0.026030
  30 H :    0.028177
  31 H :    0.027118
  32 H :    0.038815
  33 H :    0.021121

  Mayer bond orders larger than 0.100000
B(  0-S ,  1-C ) :   1.1172 B(  0-S ,  4-C ) :   1.1552 B(  1-C ,  2-C ) :   1.6609
B(  1-C , 32-H ) :   0.9535 B(  2-C ,  3-C ) :   1.1757 B(  2-C ,  6-C ) :   1.0303
B(  3-C ,  4-C ) :   1.6057 B(  3-C ,  5-H ) :   1.0052 B(  4-C , 20-C ) :   0.9784
B(  6-C ,  7-H ) :   0.9395 B(  6-C ,  8-H ) :   0.9382 B(  6-C ,  9-C ) :   1.0600
B(  9-C , 10-H ) :   0.9530 B(  9-C , 11-H ) :   0.9554 B(  9-C , 12-C ) :   1.0814
B( 12-C , 13-H ) :   0.9700 B( 12-C , 14-H ) :   0.9680 B( 12-C , 15-H ) :   0.9737
B( 16-S , 17-C ) :   1.1733 B( 16-S , 20-C ) :   1.1638 B( 17-C , 18-C ) :   1.5997
B( 17-C , 33-H ) :   0.9728 B( 18-C , 19-C ) :   1.2392 B( 18-C , 21-H ) :   0.9904
B( 19-C , 20-C ) :   1.6119 B( 19-C , 22-C ) :   1.0229 B( 22-C , 23-H ) :   0.9272
B( 22-C , 24-H ) :   0.9398 B( 22-C , 25-C ) :   1.0788 B( 25-C , 26-H ) :   0.9487
B( 25-C , 27-H ) :   0.9501 B( 25-C , 28-C ) :   1.0753 B( 28-C , 29-H ) :   0.9738
B( 28-C , 30-H ) :   0.9703 B( 28-C , 31-H ) :   0.9750

Dispersion correction           -0.016172312
FINAL SINGLE POINT ENERGY     -1339.874635913613

DIPOLE MOMENT
-------------
                                X             Y             Z
Electronic contribution:    -19.33927      12.01404     -20.71333
Nuclear contribution   :     19.63154     -12.28633      21.40187
                        -----------------------------------------
Total Dipole Moment    :      0.29226      -0.27228       0.68854
                        -----------------------------------------
Magnitude (a.u.)       :      0.79602
Magnitude (Debye)      :      2.02331

Rotational constants in cm-1:     0.018502     0.010513     0.007442
Rotational constants in MHz :   554.679724   315.182927   223.099321

                             ****ORCA TERMINATED NORMALLY****
TOTAL RUN TIME: 0 days 0 hours 0 minutes 23 seconds 147 msec
