                         Program Version 4.2.1 -  RELEASE  -
|  1> ! wB97X-D3 SP def2-SVP
|  2> %pal
|  3> nprocs 24
|  4> end
|  5>
|  6> * xyz 0 1
|  7> S 	 -140.877 	 4.08171 	 14.1239
|  8> C 	 -140.727 	 3.85069 	 12.4516
|  9> C 	 -140.725 	 5.04328 	 11.7184
| 10> C 	 -140.88 	 6.16925 	 12.5564
| 11> C 	 -141.09 	 5.8013 	 13.9005
| 12> H 	 -141.086 	 7.11668 	 12.1505
| 13> C 	 -140.595 	 5.1577 	 10.2717
| 14> H 	 -140.993 	 6.18495 	 10.0468
| 15> H 	 -141.149 	 4.41274 	 9.76367
| 16> C 	 -139.191 	 5.09087 	 9.7317
| 17> H 	 -138.51 	 5.71399 	 10.2984
| 18> H 	 -138.875 	 4.04622 	 9.98859
| 19> C 	 -138.96 	 5.49414 	 8.32903
| 20> H 	 -137.853 	 5.72428 	 8.12903
| 21> H 	 -139.332 	 4.8196 	 7.548
| 22> H 	 -139.445 	 6.42929 	 8.12752
| 23> S 	 -140.242 	 7.98389 	 15.3515
| 24> C 	 -141.085 	 8.4297 	 16.8107
| 25> C 	 -142.23 	 7.60747 	 17.0333
| 26> C 	 -142.395 	 6.61772 	 16.0364
| 27> C 	 -141.38 	 6.66242 	 15.0639
| 28> H 	 -142.924 	 7.86483 	 17.9205
| 29> C 	 -143.628 	 5.71293 	 16.0624
| 30> H 	 -143.924 	 5.27724 	 17.0746
| 31> H 	 -143.423 	 4.74293 	 15.5502
| 32> C 	 -144.797 	 6.3484 	 15.3904
| 33> H 	 -144.584 	 6.37116 	 14.31
| 34> H 	 -144.921 	 7.37046 	 15.7635
| 35> C 	 -146.187 	 5.70696 	 15.652
| 36> H 	 -146.356 	 5.67351 	 16.672
| 37> H 	 -146.289 	 4.67323 	 15.2468
| 38> H 	 -147.075 	 6.25255 	 15.2313
| 39> H 	 -140.713 	 2.92362 	 11.8841
| 40> H 	 -140.72 	 9.06358 	 17.5864
| 41> *
| 42>
| 43>                          ****END OF INPUT****

CARTESIAN COORDINATES (ANGSTROEM)
---------------------------------
  S    -140.877000    4.081710   14.123900
  C    -140.727000    3.850690   12.451600
  C    -140.725000    5.043280   11.718400
  C    -140.880000    6.169250   12.556400
  C    -141.090000    5.801300   13.900500
  H    -141.086000    7.116680   12.150500
  C    -140.595000    5.157700   10.271700
  H    -140.993000    6.184950   10.046800
  H    -141.149000    4.412740    9.763670
  C    -139.191000    5.090870    9.731700
  H    -138.510000    5.713990   10.298400
  H    -138.875000    4.046220    9.988590
  C    -138.960000    5.494140    8.329030
  H    -137.853000    5.724280    8.129030
  H    -139.332000    4.819600    7.548000
  H    -139.445000    6.429290    8.127520
  S    -140.242000    7.983890   15.351500
  C    -141.085000    8.429700   16.810700
  C    -142.230000    7.607470   17.033300
  C    -142.395000    6.617720   16.036400
  C    -141.380000    6.662420   15.063900
  H    -142.924000    7.864830   17.920500
  C    -143.628000    5.712930   16.062400
  H    -143.924000    5.277240   17.074600
  H    -143.423000    4.742930   15.550200
  C    -144.797000    6.348400   15.390400
  H    -144.584000    6.371160   14.310000
  H    -144.921000    7.370460   15.763500
  C    -146.187000    5.706960   15.652000
  H    -146.356000    5.673510   16.672000
  H    -146.289000    4.673230   15.246800
  H    -147.075000    6.252550   15.231300
  H    -140.713000    2.923620   11.884100
  H    -140.720000    9.063580   17.586400

 Total Charge           Charge          ....    0
 Multiplicity           Mult            ....    1
 Number of Electrons    NEL             ....  134
 Basis Dimension        Dim             ....  322

ORBITAL ENERGIES
----------------

  NO   OCC          E(Eh)            E(eV)
   0   2.0000     -88.972175     -2421.0560
   1   2.0000     -88.971459     -2421.0365
   2   2.0000     -10.332968      -281.1744
   3   2.0000     -10.332582      -281.1639
   4   2.0000     -10.319222      -280.8003
   5   2.0000     -10.309745      -280.5424
   6   2.0000     -10.308282      -280.5026
   7   2.0000     -10.303840      -280.3817
   8   2.0000     -10.295390      -280.1518
   9   2.0000     -10.293589      -280.1028
  10   2.0000     -10.291637      -280.0497
  11   2.0000     -10.285456      -279.8815
  12   2.0000     -10.282870      -279.8111
  13   2.0000     -10.281616      -279.7770
  14   2.0000     -10.279907      -279.7305
  15   2.0000     -10.276268      -279.6315
  16   2.0000      -8.087124      -220.0618
  17   2.0000      -8.085539      -220.0187
  18   2.0000      -6.045458      -164.5053
  19   2.0000      -6.043916      -164.4633
  20   2.0000      -6.041502      -164.3976
  21   2.0000      -6.040048      -164.3581
  22   2.0000      -6.038156      -164.3066
  23   2.0000      -6.036569      -164.2634
  24   2.0000      -1.007090       -27.4043
  25   2.0000      -0.984761       -26.7967
  26   2.0000      -0.923249       -25.1229
  27   2.0000      -0.909223       -24.7412
  28   2.0000      -0.865935       -23.5633
  29   2.0000      -0.858449       -23.3596
  30   2.0000      -0.847834       -23.0707
  31   2.0000      -0.810994       -22.0683
  32   2.0000      -0.784222       -21.3398
  33   2.0000      -0.769667       -20.9437
  34   2.0000      -0.702807       -19.1244
  35   2.0000      -0.698748       -19.0139
  36   2.0000      -0.689178       -18.7535
  37   2.0000      -0.660735       -17.9795
  38   2.0000      -0.641485       -17.4557
  39   2.0000      -0.622162       -16.9299
  40   2.0000      -0.598367       -16.2824
  41   2.0000      -0.570890       -15.5347
  42   2.0000      -0.562863       -15.3163
  43   2.0000      -0.560220       -15.2444
  44   2.0000      -0.526194       -14.3185
  45   2.0000      -0.524688       -14.2775
  46   2.0000      -0.516836       -14.0638
  47   2.0000      -0.508992       -13.8504
  48   2.0000      -0.504233       -13.7209
  49   2.0000      -0.501688       -13.6516
  50   2.0000      -0.492787       -13.4094
  51   2.0000      -0.476650       -12.9703
  52   2.0000      -0.467675       -12.7261
  53   2.0000      -0.464924       -12.6512
  54   2.0000      -0.463584       -12.6148
  55   2.0000      -0.450996       -12.2722
  56   2.0000      -0.447109       -12.1665
  57   2.0000      -0.434841       -11.8326
  58   2.0000      -0.430800       -11.7227
  59   2.0000      -0.426425       -11.6036
  60   2.0000      -0.421258       -11.4630
  61   2.0000      -0.411097       -11.1865
  62   2.0000      -0.407732       -11.0949
  63   2.0000      -0.343112        -9.3366
  64   2.0000      -0.336586        -9.1590
  65   2.0000      -0.329939        -8.9781
  66   2.0000      -0.288246        -7.8436
  67   0.0000       0.026856         0.7308
  68   0.0000       0.064733         1.7615
  69   0.0000       0.107146         2.9156
  70   0.0000       0.116350         3.1661
  71   0.0000       0.133255         3.6260

MULLIKEN ATOMIC CHARGES
-----------------------
   0 S :    0.148049
   1 C :   -0.113792
   2 C :   -0.113536
   3 C :    0.048583
   4 C :   -0.160056
   5 H :   -0.000817
   6 C :    0.086075
   7 H :    0.011586
   8 H :    0.017362
   9 C :   -0.066505
  10 H :    0.018617
  11 H :    0.018904
  12 C :   -0.038083
  13 H :    0.044553
  14 H :    0.031842
  15 H :    0.015770
  16 S :    0.129863
  17 C :   -0.093339
  18 C :   -0.086068
  19 C :    0.003743
  20 C :   -0.175455
  21 H :    0.056727
  22 C :    0.039717
  23 H :    0.030166
  24 H :    0.017530
  25 C :   -0.069254
  26 H :    0.039731
  27 H :    0.027192
  28 C :   -0.048475
  29 H :    0.012958
  30 H :    0.031788
  31 H :    0.039422
  32 H :    0.040244
  33 H :    0.054960
Sum of atomic charges:    0.0000000

LOEWDIN ATOMIC CHARGES
----------------------
   0 S :    0.451702
   1 C :   -0.225236
   2 C :   -0.062785
   3 C :   -0.059377
   4 C :   -0.197045
   5 H :    0.024166
   6 C :   -0.032965
   7 H :    0.031822
   8 H :    0.026491
   9 C :   -0.047582
  10 H :    0.024941
  11 H :    0.024988
  12 C :   -0.070264
  13 H :    0.039065
  14 H :    0.023874
  15 H :    0.021596
  16 S :    0.420307
  17 C :   -0.193761
  18 C :   -0.077293
  19 C :   -0.055423
  20 C :   -0.200415
  21 H :    0.048610
  22 C :   -0.043881
  23 H :    0.034595
  24 H :    0.025535
  25 C :   -0.042934
  26 H :    0.029645
  27 H :    0.024324
  28 C :   -0.067833
  29 H :    0.011274
  30 H :    0.026327
  31 H :    0.033469
  32 H :    0.028832
  33 H :    0.025229

  Mayer bond orders larger than 0.100000
B(  0-S ,  1-C ) :   1.1590 B(  0-S ,  4-C ) :   1.1795 B(  1-C ,  2-C ) :   1.5711
B(  1-C , 32-H ) :   0.9621 B(  2-C ,  3-C ) :   1.2971 B(  2-C ,  6-C ) :   1.0472
B(  3-C ,  4-C ) :   1.5213 B(  3-C ,  5-H ) :   0.9940 B(  4-C , 20-C ) :   1.0324
B(  6-C ,  7-H ) :   0.9296 B(  6-C ,  8-H ) :   0.9306 B(  6-C ,  9-C ) :   1.0685
B(  9-C , 10-H ) :   0.9520 B(  9-C , 11-H ) :   0.9484 B(  9-C , 12-C ) :   1.0900
B( 12-C , 13-H ) :   0.9737 B( 12-C , 14-H ) :   0.9718 B( 12-C , 15-H ) :   0.9667
B( 16-S , 17-C ) :   1.1699 B( 16-S , 20-C ) :   1.1561 B( 17-C , 18-C ) :   1.5846
B( 17-C , 20-C ) :   0.1098 B( 17-C , 33-H ) :   0.9682 B( 18-C , 19-C ) :   1.2705
B( 18-C , 21-H ) :   0.9739 B( 19-C , 20-C ) :   1.5566 B( 19-C , 22-C ) :   1.0426
B( 22-C , 23-H ) :   0.9433 B( 22-C , 24-H ) :   0.9236 B( 22-C , 25-C ) :   1.0621
B( 25-C , 26-H ) :   0.9527 B( 25-C , 27-H ) :   0.9587 B( 25-C , 28-C ) :   1.0779
B( 28-C , 29-H ) :   0.9746 B( 28-C , 30-H ) :   0.9749 B( 28-C , 31-H ) :   0.9751

Dispersion correction           -0.013790161
FINAL SINGLE POINT ENERGY     -1339.875397630204

DIPOLE MOMENT
-------------
                                X             Y             Z
Electronic contribution:     11.23407       2.81979      15.30307
Nuclear contribution   :    -11.51506      -2.80179     -15.47657
                        -----------------------------------------
Total Dipole Moment    :     -0.28099       0.01800      -0.17350
                        -----------------------------------------
Magnitude (a.u.)       :      0.33073
Magnitude (Debye)      :      0.84066

Rotational constants in cm-1:     0.020541     0.007371     0.006280
Rotational constants in MHz :   615.807194   220.968415   188.255548

                             ****ORCA TERMINATED NORMALLY****
TOTAL RUN TIME: 0 days 0 hours 0 minutes 21 seconds 109 msec
