                         Program Version 4.2.1 -  RELEASE  -
|  1> ! wB97X-D3 SP def2-SVP
|  2> %pal
|  3> nprocs 24
|  4> end
|  5>
|  6> * xyz 0 1
|  7> S 	 -142.787 	 6.02423 	 4.5128
|  8> C 	 -142.488 	 5.11607 	 5.98289
|  9> C 	 -142.929 	 5.84468 	 7.08141
| 10> C 	 -143.332 	 7.20736 	 6.66476
| 11> C 	 -143.361 	 7.48063 	 5.32802
| 12> H 	 -143.722 	 7.92837 	 7.41651
| 13> C 	 -142.795 	 5.37758 	 8.54795
| 14> H 	 -141.886 	 5.91227 	 9.0302
| 15> H 	 -142.569 	 4.34279 	 8.53833
| 16> C 	 -144.008 	 5.39573 	 9.46138
| 17> H 	 -143.794 	 4.70595 	 10.2394
| 18> H 	 -144.183 	 6.38174 	 9.87279
| 19> C 	 -145.291 	 4.92092 	 8.7211
| 20> H 	 -146.127 	 5.10427 	 9.37878
| 21> H 	 -145.626 	 5.63674 	 7.96827
| 22> H 	 -145.22 	 3.91161 	 8.2858
| 23> S 	 -143.298 	 10.2417 	 5.32351
| 24> C 	 -144.102 	 11.0805 	 3.97635
| 25> C 	 -144.883 	 10.2314 	 3.22032
| 26> C 	 -144.6 	 8.85423 	 3.54973
| 27> C 	 -143.806 	 8.68439 	 4.65235
| 28> H 	 -145.543 	 10.7035 	 2.50847
| 29> C 	 -145.287 	 7.82135 	 2.69911
| 30> H 	 -144.585 	 7.00314 	 2.40947
| 31> H 	 -145.381 	 8.17418 	 1.6689
| 32> C 	 -146.668 	 7.39207 	 3.1988
| 33> H 	 -147.257 	 8.32022 	 3.03323
| 34> H 	 -146.593 	 7.12837 	 4.21275
| 35> C 	 -147.134 	 6.14981 	 2.44068
| 36> H 	 -147.639 	 6.62106 	 1.51071
| 37> H 	 -147.926 	 5.66759 	 3.01376
| 38> H 	 -146.397 	 5.41263 	 2.08024
| 39> H 	 -142.134 	 4.15998 	 6.02374
| 40> H 	 -143.987 	 12.115 	 3.71065
| 41> *
| 42>
| 43>                          ****END OF INPUT****

CARTESIAN COORDINATES (ANGSTROEM)
---------------------------------
  S    -142.787000    6.024230    4.512800
  C    -142.488000    5.116070    5.982890
  C    -142.929000    5.844680    7.081410
  C    -143.332000    7.207360    6.664760
  C    -143.361000    7.480630    5.328020
  H    -143.722000    7.928370    7.416510
  C    -142.795000    5.377580    8.547950
  H    -141.886000    5.912270    9.030200
  H    -142.569000    4.342790    8.538330
  C    -144.008000    5.395730    9.461380
  H    -143.794000    4.705950   10.239400
  H    -144.183000    6.381740    9.872790
  C    -145.291000    4.920920    8.721100
  H    -146.127000    5.104270    9.378780
  H    -145.626000    5.636740    7.968270
  H    -145.220000    3.911610    8.285800
  S    -143.298000   10.241700    5.323510
  C    -144.102000   11.080500    3.976350
  C    -144.883000   10.231400    3.220320
  C    -144.600000    8.854230    3.549730
  C    -143.806000    8.684390    4.652350
  H    -145.543000   10.703500    2.508470
  C    -145.287000    7.821350    2.699110
  H    -144.585000    7.003140    2.409470
  H    -145.381000    8.174180    1.668900
  C    -146.668000    7.392070    3.198800
  H    -147.257000    8.320220    3.033230
  H    -146.593000    7.128370    4.212750
  C    -147.134000    6.149810    2.440680
  H    -147.639000    6.621060    1.510710
  H    -147.926000    5.667590    3.013760
  H    -146.397000    5.412630    2.080240
  H    -142.134000    4.159980    6.023740
  H    -143.987000   12.115000    3.710650

 Total Charge           Charge          ....    0
 Multiplicity           Mult            ....    1
 Number of Electrons    NEL             ....  134
 Basis Dimension        Dim             ....  322

ORBITAL ENERGIES
----------------

  NO   OCC          E(Eh)            E(eV)
   0   2.0000     -88.967817     -2420.9374
   1   2.0000     -88.962122     -2420.7824
   2   2.0000     -10.331939      -281.1464
   3   2.0000     -10.330177      -281.0984
   4   2.0000     -10.318957      -280.7931
   5   2.0000     -10.310373      -280.5595
   6   2.0000     -10.307160      -280.4721
   7   2.0000     -10.304841      -280.4090
   8   2.0000     -10.296787      -280.1898
   9   2.0000     -10.295989      -280.1681
  10   2.0000     -10.295154      -280.1454
  11   2.0000     -10.287102      -279.9263
  12   2.0000     -10.284006      -279.8420
  13   2.0000     -10.282846      -279.8105
  14   2.0000     -10.282787      -279.8089
  15   2.0000     -10.275547      -279.6119
  16   2.0000      -8.081723      -219.9149
  17   2.0000      -8.076373      -219.7693
  18   2.0000      -6.040443      -164.3688
  19   2.0000      -6.036448      -164.2601
  20   2.0000      -6.035119      -164.2239
  21   2.0000      -6.032201      -164.1445
  22   2.0000      -6.030887      -164.1088
  23   2.0000      -6.026957      -164.0018
  24   2.0000      -1.003815       -27.3152
  25   2.0000      -0.980058       -26.6687
  26   2.0000      -0.910169       -24.7670
  27   2.0000      -0.909877       -24.7590
  28   2.0000      -0.873200       -23.7610
  29   2.0000      -0.849141       -23.1063
  30   2.0000      -0.833818       -22.6893
  31   2.0000      -0.817500       -22.2453
  32   2.0000      -0.782057       -21.2809
  33   2.0000      -0.770663       -20.9708
  34   2.0000      -0.709519       -19.3070
  35   2.0000      -0.698161       -18.9979
  36   2.0000      -0.691820       -18.8254
  37   2.0000      -0.667803       -18.1719
  38   2.0000      -0.633914       -17.2497
  39   2.0000      -0.619161       -16.8482
  40   2.0000      -0.596540       -16.2327
  41   2.0000      -0.573155       -15.5963
  42   2.0000      -0.564334       -15.3563
  43   2.0000      -0.555526       -15.1166
  44   2.0000      -0.535464       -14.5707
  45   2.0000      -0.527576       -14.3561
  46   2.0000      -0.523256       -14.2385
  47   2.0000      -0.510967       -13.9041
  48   2.0000      -0.508874       -13.8472
  49   2.0000      -0.495051       -13.4710
  50   2.0000      -0.485633       -13.2147
  51   2.0000      -0.478539       -13.0217
  52   2.0000      -0.473978       -12.8976
  53   2.0000      -0.466330       -12.6895
  54   2.0000      -0.459675       -12.5084
  55   2.0000      -0.441556       -12.0153
  56   2.0000      -0.438902       -11.9431
  57   2.0000      -0.430994       -11.7279
  58   2.0000      -0.423471       -11.5232
  59   2.0000      -0.422211       -11.4889
  60   2.0000      -0.414859       -11.2889
  61   2.0000      -0.412527       -11.2254
  62   2.0000      -0.403019       -10.9667
  63   2.0000      -0.356244        -9.6939
  64   2.0000      -0.331411        -9.0182
  65   2.0000      -0.323067        -8.7911
  66   2.0000      -0.290918        -7.9163
  67   0.0000       0.030018         0.8168
  68   0.0000       0.071657         1.9499
  69   0.0000       0.101797         2.7700
  70   0.0000       0.122689         3.3385
  71   0.0000       0.130216         3.5434

MULLIKEN ATOMIC CHARGES
-----------------------
   0 S :    0.091592
   1 C :   -0.081187
   2 C :   -0.106202
   3 C :   -0.010276
   4 C :   -0.112012
   5 H :    0.022005
   6 C :    0.047018
   7 H :    0.060272
   8 H :    0.001158
   9 C :   -0.053191
  10 H :    0.028143
  11 H :    0.027033
  12 C :   -0.057265
  13 H :    0.021993
  14 H :    0.029770
  15 H :    0.045220
  16 S :    0.106378
  17 C :   -0.096551
  18 C :   -0.030608
  19 C :   -0.032806
  20 C :   -0.125936
  21 H :    0.025746
  22 C :    0.007190
  23 H :    0.022229
  24 H :    0.009094
  25 C :   -0.031635
  26 H :    0.038499
  27 H :    0.028737
  28 C :   -0.066885
  29 H :    0.032339
  30 H :    0.038738
  31 H :    0.052673
  32 H :    0.014446
  33 H :    0.054283
Sum of atomic charges:    0.0000000

LOEWDIN ATOMIC CHARGES
----------------------
   0 S :    0.395853
   1 C :   -0.179392
   2 C :   -0.058770
   3 C :   -0.078351
   4 C :   -0.186002
   5 H :    0.031120
   6 C :   -0.038538
   7 H :    0.044794
   8 H :    0.022594
   9 C :   -0.036653
  10 H :    0.023148
  11 H :    0.020639
  12 C :   -0.070640
  13 H :    0.026067
  14 H :    0.028906
  15 H :    0.028861
  16 S :    0.387581
  17 C :   -0.169241
  18 C :   -0.065611
  19 C :   -0.053223
  20 C :   -0.188481
  21 H :    0.035098
  22 C :   -0.047489
  23 H :    0.025143
  24 H :    0.027938
  25 C :   -0.033925
  26 H :    0.032262
  27 H :    0.017933
  28 C :   -0.071171
  29 H :    0.034688
  30 H :    0.025670
  31 H :    0.030668
  32 H :    0.010761
  33 H :    0.027762

  Mayer bond orders larger than 0.100000
B(  0-S ,  1-C ) :   1.1325 B(  0-S ,  4-C ) :   1.1228 B(  1-C ,  2-C ) :   1.6236
B(  1-C , 32-H ) :   0.9780 B(  2-C ,  3-C ) :   1.2171 B(  2-C ,  6-C ) :   1.0304
B(  3-C ,  4-C ) :   1.5977 B(  3-C ,  5-H ) :   0.9849 B(  4-C , 20-C ) :   1.0650
B(  6-C ,  7-H ) :   0.9428 B(  6-C ,  8-H ) :   0.9389 B(  6-C ,  9-C ) :   1.0672
B(  9-C , 10-H ) :   0.9602 B(  9-C , 11-H ) :   0.9523 B(  9-C , 12-C ) :   1.0923
B( 12-C , 13-H ) :   0.9695 B( 12-C , 14-H ) :   0.9636 B( 12-C , 15-H ) :   0.9764
B( 16-S , 17-C ) :   1.1418 B( 16-S , 20-C ) :   1.1128 B( 17-C , 18-C ) :   1.6471
B( 17-C , 33-H ) :   0.9667 B( 18-C , 19-C ) :   1.2002 B( 18-C , 21-H ) :   0.9912
B( 19-C , 20-C ) :   1.6213 B( 19-C , 22-C ) :   1.0492 B( 22-C , 23-H ) :   0.9345
B( 22-C , 24-H ) :   0.9297 B( 22-C , 25-C ) :   1.0459 B( 25-C , 26-H ) :   0.9563
B( 25-C , 27-H ) :   0.9627 B( 25-C , 28-C ) :   1.0666 B( 28-C , 29-H ) :   0.9762
B( 28-C , 30-H ) :   0.9766 B( 28-C , 31-H ) :   0.9770

Dispersion correction           -0.014586795
FINAL SINGLE POINT ENERGY     -1339.859448146173

DIPOLE MOMENT
-------------
                                X             Y             Z
Electronic contribution:     16.15194      13.63812      -5.29832
Nuclear contribution   :    -16.56365     -13.71206       5.38726
                        -----------------------------------------
Total Dipole Moment    :     -0.41171      -0.07393       0.08894
                        -----------------------------------------
Magnitude (a.u.)       :      0.42765
Magnitude (Debye)      :      1.08700

Rotational constants in cm-1:     0.017873     0.008907     0.007431
Rotational constants in MHz :   535.820021   267.018868   222.780906

                             ****ORCA TERMINATED NORMALLY****
TOTAL RUN TIME: 0 days 0 hours 0 minutes 20 seconds 456 msec
