                         Program Version 4.2.1 -  RELEASE  -
|  1> ! wB97X-D3 SP def2-SVP
|  2> %pal
|  3> nprocs 24
|  4> end
|  5>
|  6> * xyz 0 1
|  7> S 	 -32.7421 	 3.37811 	 6.21317
|  8> C 	 -33.0485 	 4.97528 	 6.91793
|  9> C 	 -34.2003 	 5.54858 	 6.36311
| 10> C 	 -34.5687 	 4.8459 	 5.09686
| 11> C 	 -33.8284 	 3.69551 	 4.78714
| 12> H 	 -35.3074 	 5.06509 	 4.39428
| 13> C 	 -34.8199 	 6.8472 	 6.89167
| 14> H 	 -34.1379 	 7.23115 	 7.50278
| 15> H 	 -35.5426 	 6.49858 	 7.53934
| 16> C 	 -35.2937 	 7.99295 	 5.99301
| 17> H 	 -36.2336 	 7.67115 	 5.44262
| 18> H 	 -35.6323 	 8.88458 	 6.53509
| 19> C 	 -34.123 	 8.46356 	 5.05049
| 20> H 	 -34.2399 	 8.98777 	 4.18593
| 21> H 	 -33.3515 	 8.9507 	 5.61489
| 22> H 	 -33.5888 	 7.65099 	 4.63635
| 23> S 	 -34.6767 	 1.17987 	 3.80008
| 24> C 	 -34.8799 	 1.1622 	 2.0598
| 25> C 	 -34.2017 	 2.1178 	 1.42578
| 26> C 	 -33.5862 	 3.04114 	 2.30932
| 27> C 	 -33.844 	 2.75505 	 3.65131
| 28> H 	 -34.3068 	 2.16945 	 0.330769
| 29> C 	 -33.1385 	 4.35223 	 1.80671
| 30> H 	 -33.5263 	 5.18982 	 2.46452
| 31> H 	 -33.5315 	 4.56459 	 0.80816
| 32> C 	 -31.6139 	 4.62055 	 1.63035
| 33> H 	 -31.3969 	 5.65968 	 1.21047
| 34> H 	 -31.1805 	 3.87034 	 0.897902
| 35> C 	 -30.753 	 4.49983 	 2.83447
| 36> H 	 -30.7103 	 3.50545 	 3.2132
| 37> H 	 -31.207 	 5.07737 	 3.68314
| 38> H 	 -29.7191 	 4.73835 	 2.70974
| 39> H 	 -32.575 	 5.36084 	 7.75121
| 40> H 	 -35.4378 	 0.422688 	 1.53211
| 41> *
| 42>
| 43>                          ****END OF INPUT****

CARTESIAN COORDINATES (ANGSTROEM)
---------------------------------
  S    -32.742100    3.378110    6.213170
  C    -33.048500    4.975280    6.917930
  C    -34.200300    5.548580    6.363110
  C    -34.568700    4.845900    5.096860
  C    -33.828400    3.695510    4.787140
  H    -35.307400    5.065090    4.394280
  C    -34.819900    6.847200    6.891670
  H    -34.137900    7.231150    7.502780
  H    -35.542600    6.498580    7.539340
  C    -35.293700    7.992950    5.993010
  H    -36.233600    7.671150    5.442620
  H    -35.632300    8.884580    6.535090
  C    -34.123000    8.463560    5.050490
  H    -34.239900    8.987770    4.185930
  H    -33.351500    8.950700    5.614890
  H    -33.588800    7.650990    4.636350
  S    -34.676700    1.179870    3.800080
  C    -34.879900    1.162200    2.059800
  C    -34.201700    2.117800    1.425780
  C    -33.586200    3.041140    2.309320
  C    -33.844000    2.755050    3.651310
  H    -34.306800    2.169450    0.330769
  C    -33.138500    4.352230    1.806710
  H    -33.526300    5.189820    2.464520
  H    -33.531500    4.564590    0.808160
  C    -31.613900    4.620550    1.630350
  H    -31.396900    5.659680    1.210470
  H    -31.180500    3.870340    0.897902
  C    -30.753000    4.499830    2.834470
  H    -30.710300    3.505450    3.213200
  H    -31.207000    5.077370    3.683140
  H    -29.719100    4.738350    2.709740
  H    -32.575000    5.360840    7.751210
  H    -35.437800    0.422688    1.532110

 Total Charge           Charge          ....    0
 Multiplicity           Mult            ....    1
 Number of Electrons    NEL             ....  134
 Basis Dimension        Dim             ....  322

ORBITAL ENERGIES
----------------

  NO   OCC          E(Eh)            E(eV)
   0   2.0000     -88.967270     -2420.9225
   1   2.0000     -88.959233     -2420.7038
   2   2.0000     -10.339459      -281.3510
   3   2.0000     -10.333498      -281.1888
   4   2.0000     -10.316164      -280.7171
   5   2.0000     -10.315574      -280.7010
   6   2.0000     -10.314850      -280.6814
   7   2.0000     -10.307275      -280.4752
   8   2.0000     -10.303236      -280.3653
   9   2.0000     -10.300800      -280.2990
  10   2.0000     -10.293287      -280.0946
  11   2.0000     -10.292876      -280.0834
  12   2.0000     -10.288784      -279.9720
  13   2.0000     -10.282169      -279.7920
  14   2.0000     -10.265635      -279.3421
  15   2.0000     -10.259993      -279.1886
  16   2.0000      -8.081807      -219.9171
  17   2.0000      -8.072844      -219.6733
  18   2.0000      -6.040344      -164.3661
  19   2.0000      -6.036515      -164.2619
  20   2.0000      -6.032350      -164.1486
  21   2.0000      -6.031540      -164.1266
  22   2.0000      -6.027554      -164.0181
  23   2.0000      -6.023415      -163.9054
  24   2.0000      -1.003780       -27.3142
  25   2.0000      -0.975067       -26.5329
  26   2.0000      -0.911544       -24.8044
  27   2.0000      -0.907211       -24.6865
  28   2.0000      -0.869953       -23.6726
  29   2.0000      -0.852670       -23.2023
  30   2.0000      -0.836681       -22.7672
  31   2.0000      -0.821877       -22.3644
  32   2.0000      -0.790701       -21.5161
  33   2.0000      -0.775137       -21.0925
  34   2.0000      -0.718890       -19.5620
  35   2.0000      -0.701412       -19.0864
  36   2.0000      -0.684301       -18.6208
  37   2.0000      -0.657444       -17.8900
  38   2.0000      -0.650621       -17.7043
  39   2.0000      -0.615498       -16.7485
  40   2.0000      -0.596800       -16.2398
  41   2.0000      -0.567507       -15.4427
  42   2.0000      -0.563438       -15.3319
  43   2.0000      -0.547855       -14.9079
  44   2.0000      -0.544434       -14.8148
  45   2.0000      -0.538114       -14.6428
  46   2.0000      -0.516798       -14.0628
  47   2.0000      -0.510270       -13.8851
  48   2.0000      -0.506063       -13.7707
  49   2.0000      -0.497003       -13.5241
  50   2.0000      -0.490264       -13.3407
  51   2.0000      -0.482060       -13.1175
  52   2.0000      -0.472138       -12.8475
  53   2.0000      -0.458071       -12.4647
  54   2.0000      -0.454814       -12.3761
  55   2.0000      -0.446120       -12.1395
  56   2.0000      -0.443425       -12.0662
  57   2.0000      -0.438818       -11.9409
  58   2.0000      -0.433461       -11.7951
  59   2.0000      -0.422507       -11.4970
  60   2.0000      -0.415998       -11.3199
  61   2.0000      -0.412863       -11.2346
  62   2.0000      -0.403311       -10.9747
  63   2.0000      -0.342920        -9.3313
  64   2.0000      -0.330857        -9.0031
  65   2.0000      -0.322691        -8.7809
  66   2.0000      -0.299934        -8.1616
  67   0.0000       0.033874         0.9218
  68   0.0000       0.044137         1.2010
  69   0.0000       0.107715         2.9311
  70   0.0000       0.115881         3.1533
  71   0.0000       0.119760         3.2588

MULLIKEN ATOMIC CHARGES
-----------------------
   0 S :    0.079602
   1 C :   -0.082467
   2 C :   -0.138873
   3 C :    0.081221
   4 C :   -0.189314
   5 H :   -0.006212
   6 C :    0.169330
   7 H :   -0.026514
   8 H :    0.022666
   9 C :   -0.070366
  10 H :    0.037143
  11 H :    0.039595
  12 C :   -0.013528
  13 H :    0.009081
  14 H :    0.017067
  15 H :    0.009255
  16 S :    0.108987
  17 C :   -0.082352
  18 C :   -0.039672
  19 C :    0.015542
  20 C :   -0.145854
  21 H :    0.032803
  22 C :    0.040118
  23 H :    0.038680
  24 H :    0.023919
  25 C :   -0.106957
  26 H :    0.037875
  27 H :    0.026984
  28 C :   -0.031587
  29 H :    0.016418
  30 H :    0.030411
  31 H :    0.026642
  32 H :    0.025981
  33 H :    0.044376
Sum of atomic charges:   -0.0000000

LOEWDIN ATOMIC CHARGES
----------------------
   0 S :    0.356128
   1 C :   -0.173527
   2 C :   -0.046396
   3 C :   -0.051325
   4 C :   -0.168167
   5 H :    0.020835
   6 C :   -0.022970
   7 H :    0.014793
   8 H :    0.030978
   9 C :   -0.034640
  10 H :    0.027758
  11 H :    0.030540
  12 C :   -0.067031
  13 H :    0.014474
  14 H :    0.026108
  15 H :    0.023709
  16 S :    0.386926
  17 C :   -0.165753
  18 C :   -0.074583
  19 C :   -0.047745
  20 C :   -0.195133
  21 H :    0.041053
  22 C :   -0.038602
  23 H :    0.038986
  24 H :    0.032556
  25 C :   -0.048498
  26 H :    0.030146
  27 H :    0.025042
  28 C :   -0.074359
  29 H :    0.018575
  30 H :    0.028235
  31 H :    0.023232
  32 H :    0.013383
  33 H :    0.025273

  Mayer bond orders larger than 0.100000
B(  0-S ,  1-C ) :   1.1322 B(  0-S ,  4-C ) :   1.1118 B(  1-C ,  2-C ) :   1.6359
B(  1-C , 32-H ) :   0.9751 B(  2-C ,  3-C ) :   1.1653 B(  2-C ,  6-C ) :   1.0128
B(  3-C ,  4-C ) :   1.6349 B(  3-C ,  5-H ) :   1.0005 B(  4-C , 20-C ) :   1.0238
B(  6-C ,  7-H ) :   0.9273 B(  6-C ,  8-H ) :   0.9190 B(  6-C ,  9-C ) :   1.0693
B(  9-C , 10-H ) :   0.9563 B(  9-C , 11-H ) :   0.9580 B(  9-C , 12-C ) :   1.0537
B( 12-C , 13-H ) :   0.9764 B( 12-C , 14-H ) :   0.9736 B( 12-C , 15-H ) :   0.9726
B( 16-S , 17-C ) :   1.1444 B( 16-S , 20-C ) :   1.1221 B( 17-C , 18-C ) :   1.6641
B( 17-C , 33-H ) :   0.9642 B( 18-C , 19-C ) :   1.2127 B( 18-C , 21-H ) :   0.9863
B( 19-C , 20-C ) :   1.5987 B( 19-C , 22-C ) :   1.0437 B( 22-C , 23-H ) :   0.9327
B( 22-C , 24-H ) :   0.9384 B( 22-C , 25-C ) :   1.0682 B( 25-C , 26-H ) :   0.9553
B( 25-C , 27-H ) :   0.9516 B( 25-C , 28-C ) :   1.0925 B( 28-C , 29-H ) :   0.9666
B( 28-C , 30-H ) :   0.9693 B( 28-C , 31-H ) :   0.9706

Dispersion correction           -0.015880312
FINAL SINGLE POINT ENERGY     -1339.832922142377

DIPOLE MOMENT
-------------
                                X             Y             Z
Electronic contribution:     -4.77703     -25.40746       6.08880
Nuclear contribution   :      4.45176      25.99394      -6.40324
                        -----------------------------------------
Total Dipole Moment    :     -0.32527       0.58648      -0.31444
                        -----------------------------------------
Magnitude (a.u.)       :      0.74070
Magnitude (Debye)      :      1.88271

Rotational constants in cm-1:     0.018801     0.009076     0.008008
Rotational constants in MHz :   563.649906   272.081170   240.075107

                             ****ORCA TERMINATED NORMALLY****
TOTAL RUN TIME: 0 days 0 hours 0 minutes 22 seconds 841 msec
