                         Program Version 4.2.1 -  RELEASE  -
|  1> ! wB97X-D3 SP def2-SVP
|  2> %pal
|  3> nprocs 24
|  4> end
|  5>
|  6> * xyz 0 1
|  7> S 	 -35.7238 	 -7.48323 	 18.7101
|  8> C 	 -34.546 	 -8.50119 	 19.4283
|  9> C 	 -34.6697 	 -9.78938 	 18.8945
| 10> C 	 -35.5571 	 -9.86578 	 17.7972
| 11> C 	 -36.3569 	 -8.79508 	 17.711
| 12> H 	 -35.604 	 -10.6799 	 17.1151
| 13> C 	 -33.796 	 -10.9107 	 19.3277
| 14> H 	 -34.3506 	 -11.8493 	 19.1651
| 15> H 	 -33.7193 	 -10.9393 	 20.4432
| 16> C 	 -32.3883 	 -10.9265 	 18.6777
| 17> H 	 -32.0092 	 -11.9946 	 18.9113
| 18> H 	 -32.5076 	 -10.8554 	 17.561
| 19> C 	 -31.3427 	 -9.95703 	 19.3417
| 20> H 	 -30.2801 	 -10.1973 	 19.1173
| 21> H 	 -31.5554 	 -8.92546 	 19.1761
| 22> H 	 -31.3861 	 -9.98873 	 20.4773
| 23> S 	 -38.6666 	 -9.52832 	 16.3636
| 24> C 	 -39.2467 	 -8.5838 	 15.0481
| 25> C 	 -38.3809 	 -7.45091 	 14.8795
| 26> C 	 -37.2744 	 -7.4181 	 15.7439
| 27> C 	 -37.2613 	 -8.51865 	 16.5621
| 28> H 	 -38.7041 	 -6.70753 	 14.1766
| 29> C 	 -36.362 	 -6.24752 	 15.8245
| 30> H 	 -35.3592 	 -6.56207 	 16.2365
| 31> H 	 -36.8715 	 -5.57753 	 16.5614
| 32> C 	 -36.1318 	 -5.50284 	 14.5098
| 33> H 	 -35.4088 	 -4.6793 	 14.5937
| 34> H 	 -37.0453 	 -4.95351 	 14.2175
| 35> C 	 -35.5951 	 -6.39432 	 13.3592
| 36> H 	 -36.4529 	 -6.87202 	 12.863
| 37> H 	 -34.848 	 -7.14218 	 13.5407
| 38> H 	 -35.1053 	 -5.78756 	 12.577
| 39> H 	 -33.8745 	 -8.1829 	 20.232
| 40> H 	 -40.2739 	 -8.66453 	 14.5812
| 41> *
| 42>
| 43>                          ****END OF INPUT****

CARTESIAN COORDINATES (ANGSTROEM)
---------------------------------
  S    -35.723800   -7.483230   18.710100
  C    -34.546000   -8.501190   19.428300
  C    -34.669700   -9.789380   18.894500
  C    -35.557100   -9.865780   17.797200
  C    -36.356900   -8.795080   17.711000
  H    -35.604000  -10.679900   17.115100
  C    -33.796000  -10.910700   19.327700
  H    -34.350600  -11.849300   19.165100
  H    -33.719300  -10.939300   20.443200
  C    -32.388300  -10.926500   18.677700
  H    -32.009200  -11.994600   18.911300
  H    -32.507600  -10.855400   17.561000
  C    -31.342700   -9.957030   19.341700
  H    -30.280100  -10.197300   19.117300
  H    -31.555400   -8.925460   19.176100
  H    -31.386100   -9.988730   20.477300
  S    -38.666600   -9.528320   16.363600
  C    -39.246700   -8.583800   15.048100
  C    -38.380900   -7.450910   14.879500
  C    -37.274400   -7.418100   15.743900
  C    -37.261300   -8.518650   16.562100
  H    -38.704100   -6.707530   14.176600
  C    -36.362000   -6.247520   15.824500
  H    -35.359200   -6.562070   16.236500
  H    -36.871500   -5.577530   16.561400
  C    -36.131800   -5.502840   14.509800
  H    -35.408800   -4.679300   14.593700
  H    -37.045300   -4.953510   14.217500
  C    -35.595100   -6.394320   13.359200
  H    -36.452900   -6.872020   12.863000
  H    -34.848000   -7.142180   13.540700
  H    -35.105300   -5.787560   12.577000
  H    -33.874500   -8.182900   20.232000
  H    -40.273900   -8.664530   14.581200

 Total Charge           Charge          ....    0
 Multiplicity           Mult            ....    1
 Number of Electrons    NEL             ....  134
 Basis Dimension        Dim             ....  322

ORBITAL ENERGIES
----------------

  NO   OCC          E(Eh)            E(eV)
   0   2.0000     -88.967424     -2420.9267
   1   2.0000     -88.964750     -2420.8539
   2   2.0000     -10.324212      -280.9361
   3   2.0000     -10.321627      -280.8657
   4   2.0000     -10.321206      -280.8543
   5   2.0000     -10.314320      -280.6669
   6   2.0000     -10.303114      -280.3620
   7   2.0000     -10.296788      -280.1898
   8   2.0000     -10.295692      -280.1600
   9   2.0000     -10.293885      -280.1108
  10   2.0000     -10.292867      -280.0831
  11   2.0000     -10.291648      -280.0500
  12   2.0000     -10.289504      -279.9916
  13   2.0000     -10.287416      -279.9348
  14   2.0000     -10.287047      -279.9248
  15   2.0000     -10.274320      -279.5785
  16   2.0000      -8.082345      -219.9318
  17   2.0000      -8.079445      -219.8529
  18   2.0000      -6.040683      -164.3753
  19   2.0000      -6.037913      -164.3000
  20   2.0000      -6.036705      -164.2671
  21   2.0000      -6.033866      -164.1898
  22   2.0000      -6.033410      -164.1774
  23   2.0000      -6.030325      -164.0935
  24   2.0000      -1.011304       -27.5190
  25   2.0000      -0.989240       -26.9186
  26   2.0000      -0.910260       -24.7694
  27   2.0000      -0.905063       -24.6280
  28   2.0000      -0.864943       -23.5363
  29   2.0000      -0.850717       -23.1492
  30   2.0000      -0.843301       -22.9474
  31   2.0000      -0.810774       -22.0623
  32   2.0000      -0.782155       -21.2835
  33   2.0000      -0.770823       -20.9752
  34   2.0000      -0.704721       -19.1764
  35   2.0000      -0.699129       -19.0243
  36   2.0000      -0.686401       -18.6779
  37   2.0000      -0.661099       -17.9894
  38   2.0000      -0.642818       -17.4920
  39   2.0000      -0.619313       -16.8524
  40   2.0000      -0.592163       -16.1136
  41   2.0000      -0.567448       -15.4410
  42   2.0000      -0.554442       -15.0871
  43   2.0000      -0.539741       -14.6871
  44   2.0000      -0.535419       -14.5695
  45   2.0000      -0.532583       -14.4923
  46   2.0000      -0.521251       -14.1839
  47   2.0000      -0.511402       -13.9159
  48   2.0000      -0.503013       -13.6877
  49   2.0000      -0.490613       -13.3503
  50   2.0000      -0.487379       -13.2622
  51   2.0000      -0.478964       -13.0333
  52   2.0000      -0.471970       -12.8429
  53   2.0000      -0.467159       -12.7120
  54   2.0000      -0.460303       -12.5255
  55   2.0000      -0.444419       -12.0933
  56   2.0000      -0.439165       -11.9503
  57   2.0000      -0.436397       -11.8750
  58   2.0000      -0.432962       -11.7815
  59   2.0000      -0.427867       -11.6429
  60   2.0000      -0.423184       -11.5154
  61   2.0000      -0.408810       -11.1243
  62   2.0000      -0.403978       -10.9928
  63   2.0000      -0.350085        -9.5263
  64   2.0000      -0.331212        -9.0127
  65   2.0000      -0.321010        -8.7351
  66   2.0000      -0.291978        -7.9451
  67   0.0000       0.034150         0.9293
  68   0.0000       0.067718         1.8427
  69   0.0000       0.112228         3.0539
  70   0.0000       0.122550         3.3348
  71   0.0000       0.128741         3.5032

MULLIKEN ATOMIC CHARGES
-----------------------
   0 S :    0.088897
   1 C :   -0.121567
   2 C :   -0.084830
   3 C :    0.023727
   4 C :   -0.109566
   5 H :    0.011212
   6 C :    0.025972
   7 H :    0.024934
   8 H :    0.029164
   9 C :   -0.077646
  10 H :    0.039557
  11 H :    0.046519
  12 C :   -0.064957
  13 H :    0.049105
  14 H :    0.030443
  15 H :    0.024462
  16 S :    0.125019
  17 C :   -0.126912
  18 C :   -0.065172
  19 C :   -0.022902
  20 C :   -0.180137
  21 H :    0.015496
  22 C :    0.044583
  23 H :    0.053223
  24 H :    0.057359
  25 C :   -0.072850
  26 H :    0.029233
  27 H :    0.027503
  28 C :   -0.058011
  29 H :    0.033355
  30 H :    0.033952
  31 H :    0.026063
  32 H :    0.060432
  33 H :    0.084340
Sum of atomic charges:   -0.0000000

LOEWDIN ATOMIC CHARGES
----------------------
   0 S :    0.427988
   1 C :   -0.207464
   2 C :   -0.070410
   3 C :   -0.054535
   4 C :   -0.187214
   5 H :    0.030306
   6 C :   -0.046393
   7 H :    0.031648
   8 H :    0.034291
   9 C :   -0.042038
  10 H :    0.032371
  11 H :    0.030404
  12 C :   -0.076249
  13 H :    0.032559
  14 H :    0.017279
  15 H :    0.030097
  16 S :    0.432894
  17 C :   -0.217095
  18 C :   -0.069759
  19 C :   -0.066859
  20 C :   -0.204320
  21 H :    0.026097
  22 C :   -0.045645
  23 H :    0.030818
  24 H :    0.041451
  25 C :   -0.046358
  26 H :    0.026792
  27 H :    0.024537
  28 C :   -0.071953
  29 H :    0.026857
  30 H :    0.024488
  31 H :    0.027889
  32 H :    0.032587
  33 H :    0.044940

  Mayer bond orders larger than 0.100000
B(  0-S ,  1-C ) :   1.1552 B(  0-S ,  4-C ) :   1.1479 B(  1-C ,  2-C ) :   1.5731
B(  1-C , 32-H ) :   0.9684 B(  2-C ,  3-C ) :   1.2580 B(  2-C ,  6-C ) :   1.0397
B(  3-C ,  4-C ) :   1.5776 B(  3-C ,  5-H ) :   0.9970 B(  4-C , 20-C ) :   0.9887
B(  6-C ,  7-H ) :   0.9410 B(  6-C ,  8-H ) :   0.9397 B(  6-C ,  9-C ) :   1.0603
B(  9-C , 10-H ) :   0.9568 B(  9-C , 11-H ) :   0.9579 B(  9-C , 12-C ) :   1.0617
B( 12-C , 13-H ) :   0.9761 B( 12-C , 14-H ) :   0.9744 B( 12-C , 15-H ) :   0.9737
B( 16-S , 17-C ) :   1.1794 B( 16-S , 20-C ) :   1.1722 B( 17-C , 18-C ) :   1.5587
B( 17-C , 20-C ) :   0.1065 B( 17-C , 33-H ) :   0.9596 B( 18-C , 19-C ) :   1.2701
B( 18-C , 21-H ) :   0.9912 B( 19-C , 20-C ) :   1.5657 B( 19-C , 22-C ) :   1.0279
B( 22-C , 23-H ) :   0.9289 B( 22-C , 24-H ) :   0.9317 B( 22-C , 25-C ) :   1.0803
B( 25-C , 26-H ) :   0.9597 B( 25-C , 27-H ) :   0.9458 B( 25-C , 28-C ) :   1.0707
B( 28-C , 29-H ) :   0.9731 B( 28-C , 30-H ) :   0.9775 B( 28-C , 31-H ) :   0.9756

Dispersion correction           -0.014733050
FINAL SINGLE POINT ENERGY     -1339.876034631356

DIPOLE MOMENT
-------------
                                X             Y             Z
Electronic contribution:    -20.48156      -1.92878       5.41336
Nuclear contribution   :     20.82028       2.03829      -5.49909
                        -----------------------------------------
Total Dipole Moment    :      0.33872       0.10951      -0.08574
                        -----------------------------------------
Magnitude (a.u.)       :      0.36616
Magnitude (Debye)      :      0.93072

Rotational constants in cm-1:     0.021638     0.007985     0.006910
Rotational constants in MHz :   648.685925   239.397061   207.156578

                             ****ORCA TERMINATED NORMALLY****
TOTAL RUN TIME: 0 days 0 hours 0 minutes 21 seconds 728 msec
