                         Program Version 4.2.1 -  RELEASE  -
|  1> ! wB97X-D3 SP def2-SVP
|  2> %pal
|  3> nprocs 24
|  4> end
|  5>
|  6> * xyz 0 1
|  7> S 	 -98.1639 	 -28.0542 	 -58.8547
|  8> C 	 -99.1737 	 -26.8009 	 -58.2062
|  9> C 	 -98.5519 	 -25.5366 	 -58.0463
| 10> C 	 -97.225 	 -25.7448 	 -58.3982
| 11> C 	 -96.8674 	 -26.9972 	 -58.8358
| 12> H 	 -96.4443 	 -25.0004 	 -58.1692
| 13> C 	 -99.1911 	 -24.2244 	 -57.4496
| 14> H 	 -98.3883 	 -23.985 	 -56.7242
| 15> H 	 -100.155 	 -24.5265 	 -56.969
| 16> C 	 -99.5442 	 -23.1457 	 -58.365
| 17> H 	 -99.6035 	 -22.2014 	 -57.8183
| 18> H 	 -98.5942 	 -23.0321 	 -58.9369
| 19> C 	 -100.667 	 -23.4569 	 -59.3881
| 20> H 	 -101.59 	 -23.183 	 -58.9222
| 21> H 	 -100.585 	 -22.9411 	 -60.3446
| 22> H 	 -100.753 	 -24.5346 	 -59.6097
| 23> S 	 -95.6221 	 -28.3964 	 -60.8246
| 24> C 	 -93.9058 	 -28.4859 	 -60.9259
| 25> C 	 -93.3609 	 -27.8459 	 -59.8585
| 26> C 	 -94.3077 	 -27.3087 	 -58.9321
| 27> C 	 -95.6313 	 -27.4603 	 -59.3492
| 28> H 	 -92.3102 	 -27.9282 	 -59.7305
| 29> C 	 -93.9442 	 -26.7297 	 -57.5763
| 30> H 	 -94.3559 	 -27.3182 	 -56.7389
| 31> H 	 -94.3969 	 -25.6999 	 -57.5423
| 32> C 	 -92.4155 	 -26.441 	 -57.3731
| 33> H 	 -92.1007 	 -25.5753 	 -57.9599
| 34> H 	 -91.7485 	 -27.2602 	 -57.6508
| 35> C 	 -92.0108 	 -26.0586 	 -55.946
| 36> H 	 -92.6258 	 -25.1637 	 -55.7277
| 37> H 	 -90.8693 	 -25.977 	 -55.9826
| 38> H 	 -92.2032 	 -26.7363 	 -55.1826
| 39> H 	 -100.165 	 -26.9988 	 -57.82
| 40> H 	 -93.4351 	 -29.1108 	 -61.6349
| 41> *
| 42>
| 43>                          ****END OF INPUT****

CARTESIAN COORDINATES (ANGSTROEM)
---------------------------------
  S    -98.163900  -28.054200  -58.854700
  C    -99.173700  -26.800900  -58.206200
  C    -98.551900  -25.536600  -58.046300
  C    -97.225000  -25.744800  -58.398200
  C    -96.867400  -26.997200  -58.835800
  H    -96.444300  -25.000400  -58.169200
  C    -99.191100  -24.224400  -57.449600
  H    -98.388300  -23.985000  -56.724200
  H    -100.155000  -24.526500  -56.969000
  C    -99.544200  -23.145700  -58.365000
  H    -99.603500  -22.201400  -57.818300
  H    -98.594200  -23.032100  -58.936900
  C    -100.667000  -23.456900  -59.388100
  H    -101.590000  -23.183000  -58.922200
  H    -100.585000  -22.941100  -60.344600
  H    -100.753000  -24.534600  -59.609700
  S    -95.622100  -28.396400  -60.824600
  C    -93.905800  -28.485900  -60.925900
  C    -93.360900  -27.845900  -59.858500
  C    -94.307700  -27.308700  -58.932100
  C    -95.631300  -27.460300  -59.349200
  H    -92.310200  -27.928200  -59.730500
  C    -93.944200  -26.729700  -57.576300
  H    -94.355900  -27.318200  -56.738900
  H    -94.396900  -25.699900  -57.542300
  C    -92.415500  -26.441000  -57.373100
  H    -92.100700  -25.575300  -57.959900
  H    -91.748500  -27.260200  -57.650800
  C    -92.010800  -26.058600  -55.946000
  H    -92.625800  -25.163700  -55.727700
  H    -90.869300  -25.977000  -55.982600
  H    -92.203200  -26.736300  -55.182600
  H    -100.165000  -26.998800  -57.820000
  H    -93.435100  -29.110800  -61.634900

 Total Charge           Charge          ....    0
 Multiplicity           Mult            ....    1
 Number of Electrons    NEL             ....  134
 Basis Dimension        Dim             ....  322

ORBITAL ENERGIES
----------------

  NO   OCC          E(Eh)            E(eV)
   0   2.0000     -88.970434     -2421.0086
   1   2.0000     -88.958806     -2420.6922
   2   2.0000     -10.321004      -280.8488
   3   2.0000     -10.318784      -280.7884
   4   2.0000     -10.313691      -280.6498
   5   2.0000     -10.308974      -280.5215
   6   2.0000     -10.304820      -280.4084
   7   2.0000     -10.302962      -280.3579
   8   2.0000     -10.301122      -280.3078
   9   2.0000     -10.298259      -280.2299
  10   2.0000     -10.291267      -280.0396
  11   2.0000     -10.287757      -279.9441
  12   2.0000     -10.287191      -279.9287
  13   2.0000     -10.286755      -279.9168
  14   2.0000     -10.279275      -279.7133
  15   2.0000     -10.278461      -279.6911
  16   2.0000      -8.086801      -220.0530
  17   2.0000      -8.074534      -219.7192
  18   2.0000      -6.044940      -164.4912
  19   2.0000      -6.041072      -164.3859
  20   2.0000      -6.037859      -164.2985
  21   2.0000      -6.032971      -164.1655
  22   2.0000      -6.028758      -164.0508
  23   2.0000      -6.025456      -163.9610
  24   2.0000      -1.020014       -27.7560
  25   2.0000      -0.990534       -26.9538
  26   2.0000      -0.921163       -25.0661
  27   2.0000      -0.904632       -24.6163
  28   2.0000      -0.875992       -23.8369
  29   2.0000      -0.856963       -23.3191
  30   2.0000      -0.845283       -23.0013
  31   2.0000      -0.811388       -22.0790
  32   2.0000      -0.789646       -21.4874
  33   2.0000      -0.771074       -20.9820
  34   2.0000      -0.709424       -19.3044
  35   2.0000      -0.700434       -19.0598
  36   2.0000      -0.693800       -18.8793
  37   2.0000      -0.653830       -17.7916
  38   2.0000      -0.638802       -17.3827
  39   2.0000      -0.626423       -17.0458
  40   2.0000      -0.601155       -16.3582
  41   2.0000      -0.568667       -15.4742
  42   2.0000      -0.565485       -15.3876
  43   2.0000      -0.560723       -15.2581
  44   2.0000      -0.548133       -14.9155
  45   2.0000      -0.531245       -14.4559
  46   2.0000      -0.521763       -14.1979
  47   2.0000      -0.510071       -13.8797
  48   2.0000      -0.503445       -13.6994
  49   2.0000      -0.497069       -13.5259
  50   2.0000      -0.486661       -13.2427
  51   2.0000      -0.479675       -13.0526
  52   2.0000      -0.475504       -12.9391
  53   2.0000      -0.466209       -12.6862
  54   2.0000      -0.459941       -12.5156
  55   2.0000      -0.451839       -12.2952
  56   2.0000      -0.448554       -12.2058
  57   2.0000      -0.444547       -12.0967
  58   2.0000      -0.429904       -11.6983
  59   2.0000      -0.423981       -11.5371
  60   2.0000      -0.419460       -11.4141
  61   2.0000      -0.406466       -11.0605
  62   2.0000      -0.403789       -10.9877
  63   2.0000      -0.350711        -9.5433
  64   2.0000      -0.340436        -9.2637
  65   2.0000      -0.327327        -8.9070
  66   2.0000      -0.283060        -7.7024
  67   0.0000       0.028657         0.7798
  68   0.0000       0.074737         2.0337
  69   0.0000       0.109740         2.9862
  70   0.0000       0.125881         3.4254
  71   0.0000       0.135576         3.6892

MULLIKEN ATOMIC CHARGES
-----------------------
   0 S :    0.140096
   1 C :   -0.133756
   2 C :   -0.103778
   3 C :    0.005498
   4 C :   -0.164826
   5 H :    0.008607
   6 C :    0.061184
   7 H :    0.043975
   8 H :    0.020832
   9 C :   -0.053454
  10 H :    0.037531
  11 H :    0.018058
  12 C :   -0.044417
  13 H :    0.024482
  14 H :    0.043644
  15 H :    0.039461
  16 S :    0.088081
  17 C :   -0.073877
  18 C :   -0.028384
  19 C :   -0.040136
  20 C :   -0.124085
  21 H :    0.006064
  22 C :    0.060397
  23 H :    0.052440
  24 H :    0.032403
  25 C :   -0.126074
  26 H :    0.035627
  27 H :    0.031315
  28 C :   -0.036548
  29 H :    0.028789
  30 H :    0.044049
  31 H :    0.019001
  32 H :    0.040481
  33 H :    0.047318
Sum of atomic charges:   -0.0000000

LOEWDIN ATOMIC CHARGES
----------------------
   0 S :    0.459532
   1 C :   -0.204588
   2 C :   -0.060205
   3 C :   -0.068171
   4 C :   -0.226437
   5 H :    0.029267
   6 C :   -0.026785
   7 H :    0.039971
   8 H :    0.030080
   9 C :   -0.053478
  10 H :    0.029383
  11 H :    0.026709
  12 C :   -0.063042
  13 H :    0.021705
  14 H :    0.031141
  15 H :    0.032030
  16 S :    0.409669
  17 C :   -0.186088
  18 C :   -0.072215
  19 C :   -0.064375
  20 C :   -0.201118
  21 H :    0.026135
  22 C :   -0.034750
  23 H :    0.036916
  24 H :    0.036588
  25 C :   -0.047520
  26 H :    0.027117
  27 H :    0.017636
  28 C :   -0.063829
  29 H :    0.027149
  30 H :    0.038999
  31 H :    0.009989
  32 H :    0.019091
  33 H :    0.023496

  Mayer bond orders larger than 0.100000
B(  0-S ,  1-C ) :   1.1780 B(  0-S ,  4-C ) :   1.1756 B(  1-C ,  2-C ) :   1.5606
B(  1-C ,  4-C ) :   0.1096 B(  1-C , 32-H ) :   0.9635 B(  2-C ,  3-C ) :   1.3136
B(  2-C ,  6-C ) :   0.9929 B(  3-C ,  4-C ) :   1.5397 B(  3-C ,  5-H ) :   0.9802
B(  4-C , 20-C ) :   1.0567 B(  6-C ,  7-H ) :   0.9393 B(  6-C ,  8-H ) :   0.9394
B(  6-C ,  9-C ) :   1.0850 B(  9-C , 10-H ) :   0.9542 B(  9-C , 11-H ) :   0.9515
B(  9-C , 12-C ) :   1.0553 B( 12-C , 13-H ) :   0.9749 B( 12-C , 14-H ) :   0.9769
B( 12-C , 15-H ) :   0.9766 B( 16-S , 17-C ) :   1.1643 B( 16-S , 20-C ) :   1.1463
B( 17-C , 18-C ) :   1.5753 B( 17-C , 20-C ) :   0.1038 B( 17-C , 33-H ) :   0.9723
B( 18-C , 19-C ) :   1.2666 B( 18-C , 21-H ) :   0.9980 B( 19-C , 20-C ) :   1.5693
B( 19-C , 22-C ) :   1.0344 B( 22-C , 23-H ) :   0.9411 B( 22-C , 24-H ) :   0.9254
B( 22-C , 25-C ) :   1.0726 B( 25-C , 26-H ) :   0.9574 B( 25-C , 27-H ) :   0.9543
B( 25-C , 28-C ) :   1.0816 B( 28-C , 29-H ) :   0.9737 B( 28-C , 30-H ) :   0.9727
B( 28-C , 31-H ) :   0.9783

Dispersion correction           -0.013519556
FINAL SINGLE POINT ENERGY     -1339.862753745758

DIPOLE MOMENT
-------------
                                X             Y             Z
Electronic contribution:     -3.98710     -20.59276     -13.44462
Nuclear contribution   :      4.13431      20.94803      13.86826
                        -----------------------------------------
Total Dipole Moment    :      0.14721       0.35527       0.42364
                        -----------------------------------------
Magnitude (a.u.)       :      0.57215
Magnitude (Debye)      :      1.45430

Rotational constants in cm-1:     0.018593     0.008001     0.006331
Rotational constants in MHz :   557.414815   239.849765   189.811395

                             ****ORCA TERMINATED NORMALLY****
TOTAL RUN TIME: 0 days 0 hours 0 minutes 21 seconds 306 msec
