                         Program Version 4.2.1 -  RELEASE  -
|  1> ! wB97X-D3 SP def2-SVP
|  2> %pal
|  3> nprocs 24
|  4> end
|  5>
|  6> * xyz 0 1
|  7> S 	 45.8341 	 -19.7733 	 -113.546
|  8> C 	 47.1237 	 -18.5785 	 -113.619
|  9> C 	 47.4263 	 -18.2389 	 -112.35
| 10> C 	 46.7554 	 -18.9316 	 -111.241
| 11> C 	 45.8109 	 -19.7602 	 -111.777
| 12> H 	 46.7737 	 -18.5997 	 -110.225
| 13> C 	 48.4728 	 -17.2798 	 -112.108
| 14> H 	 48.318 	 -16.9223 	 -111.071
| 15> H 	 48.1781 	 -16.5723 	 -112.857
| 16> C 	 49.8832 	 -17.6785 	 -112.579
| 17> H 	 49.766 	 -17.9727 	 -113.574
| 18> H 	 50.4149 	 -16.7013 	 -112.571
| 19> C 	 50.571 	 -18.7403 	 -111.656
| 20> H 	 50.9581 	 -18.3243 	 -110.757
| 21> H 	 49.9961 	 -19.6662 	 -111.455
| 22> H 	 51.496 	 -19.0857 	 -112.174
| 23> S 	 43.2039 	 -20.3363 	 -111.328
| 24> C 	 42.6849 	 -21.6653 	 -110.323
| 25> C 	 43.8198 	 -22.064 	 -109.614
| 26> C 	 45.0993 	 -21.5568 	 -110.083
| 27> C 	 44.9042 	 -20.5562 	 -111.001
| 28> H 	 43.7521 	 -22.7993 	 -108.731
| 29> C 	 46.3882 	 -22.1418 	 -109.6
| 30> H 	 46.5838 	 -21.803 	 -108.609
| 31> H 	 47.1683 	 -21.6648 	 -110.19
| 32> C 	 46.6051 	 -23.72 	 -109.688
| 33> H 	 46.5037 	 -23.9889 	 -110.796
| 34> H 	 45.9276 	 -24.2763 	 -109.058
| 35> C 	 48.02 	 -23.9995 	 -109.435
| 36> H 	 48.5903 	 -23.9531 	 -110.408
| 37> H 	 48.0577 	 -25.0869 	 -109.145
| 38> H 	 48.644 	 -23.3696 	 -108.769
| 39> H 	 47.4565 	 -18.1574 	 -114.561
| 40> H 	 41.6719 	 -22.003 	 -110.127
| 41> *
| 42>
| 43>                          ****END OF INPUT****

CARTESIAN COORDINATES (ANGSTROEM)
---------------------------------
  S     45.834100  -19.773300  -113.546000
  C     47.123700  -18.578500  -113.619000
  C     47.426300  -18.238900  -112.350000
  C     46.755400  -18.931600  -111.241000
  C     45.810900  -19.760200  -111.777000
  H     46.773700  -18.599700  -110.225000
  C     48.472800  -17.279800  -112.108000
  H     48.318000  -16.922300  -111.071000
  H     48.178100  -16.572300  -112.857000
  C     49.883200  -17.678500  -112.579000
  H     49.766000  -17.972700  -113.574000
  H     50.414900  -16.701300  -112.571000
  C     50.571000  -18.740300  -111.656000
  H     50.958100  -18.324300  -110.757000
  H     49.996100  -19.666200  -111.455000
  H     51.496000  -19.085700  -112.174000
  S     43.203900  -20.336300  -111.328000
  C     42.684900  -21.665300  -110.323000
  C     43.819800  -22.064000  -109.614000
  C     45.099300  -21.556800  -110.083000
  C     44.904200  -20.556200  -111.001000
  H     43.752100  -22.799300  -108.731000
  C     46.388200  -22.141800  -109.600000
  H     46.583800  -21.803000  -108.609000
  H     47.168300  -21.664800  -110.190000
  C     46.605100  -23.720000  -109.688000
  H     46.503700  -23.988900  -110.796000
  H     45.927600  -24.276300  -109.058000
  C     48.020000  -23.999500  -109.435000
  H     48.590300  -23.953100  -110.408000
  H     48.057700  -25.086900  -109.145000
  H     48.644000  -23.369600  -108.769000
  H     47.456500  -18.157400  -114.561000
  H     41.671900  -22.003000  -110.127000

 Total Charge           Charge          ....    0
 Multiplicity           Mult            ....    1
 Number of Electrons    NEL             ....  134
 Basis Dimension        Dim             ....  322

ORBITAL ENERGIES
----------------

  NO   OCC          E(Eh)            E(eV)
   0   2.0000     -88.960851     -2420.7478
   1   2.0000     -88.959784     -2420.7188
   2   2.0000     -10.329130      -281.0699
   3   2.0000     -10.321264      -280.8559
   4   2.0000     -10.319682      -280.8128
   5   2.0000     -10.309471      -280.5350
   6   2.0000     -10.301720      -280.3241
   7   2.0000     -10.300283      -280.2849
   8   2.0000     -10.294623      -280.1309
   9   2.0000     -10.292004      -280.0597
  10   2.0000     -10.291350      -280.0419
  11   2.0000     -10.289293      -279.9859
  12   2.0000     -10.288807      -279.9727
  13   2.0000     -10.281419      -279.7716
  14   2.0000     -10.280062      -279.7347
  15   2.0000     -10.278126      -279.6820
  16   2.0000      -8.075477      -219.7449
  17   2.0000      -8.074904      -219.7293
  18   2.0000      -6.034148      -164.1975
  19   2.0000      -6.033568      -164.1817
  20   2.0000      -6.029925      -164.0826
  21   2.0000      -6.029237      -164.0639
  22   2.0000      -6.026135      -163.9795
  23   2.0000      -6.025566      -163.9640
  24   2.0000      -1.008376       -27.4393
  25   2.0000      -0.985116       -26.8064
  26   2.0000      -0.918048       -24.9814
  27   2.0000      -0.910313       -24.7709
  28   2.0000      -0.871447       -23.7133
  29   2.0000      -0.853383       -23.2217
  30   2.0000      -0.843604       -22.9556
  31   2.0000      -0.817114       -22.2348
  32   2.0000      -0.776779       -21.1372
  33   2.0000      -0.767922       -20.8962
  34   2.0000      -0.711162       -19.3517
  35   2.0000      -0.703262       -19.1367
  36   2.0000      -0.694582       -18.9005
  37   2.0000      -0.655712       -17.8428
  38   2.0000      -0.644071       -17.5261
  39   2.0000      -0.609190       -16.5769
  40   2.0000      -0.592797       -16.1308
  41   2.0000      -0.573362       -15.6020
  42   2.0000      -0.568056       -15.4576
  43   2.0000      -0.549254       -14.9460
  44   2.0000      -0.538071       -14.6417
  45   2.0000      -0.529786       -14.4162
  46   2.0000      -0.523406       -14.2426
  47   2.0000      -0.512426       -13.9438
  48   2.0000      -0.506836       -13.7917
  49   2.0000      -0.506287       -13.7768
  50   2.0000      -0.487014       -13.2523
  51   2.0000      -0.482563       -13.1312
  52   2.0000      -0.469784       -12.7835
  53   2.0000      -0.469292       -12.7701
  54   2.0000      -0.455608       -12.3977
  55   2.0000      -0.447176       -12.1683
  56   2.0000      -0.442832       -12.0501
  57   2.0000      -0.431557       -11.7433
  58   2.0000      -0.426081       -11.5942
  59   2.0000      -0.422170       -11.4878
  60   2.0000      -0.412636       -11.2284
  61   2.0000      -0.410849       -11.1798
  62   2.0000      -0.407024       -11.0757
  63   2.0000      -0.344214        -9.3665
  64   2.0000      -0.325352        -8.8533
  65   2.0000      -0.318759        -8.6739
  66   2.0000      -0.299417        -8.1476
  67   0.0000       0.031994         0.8706
  68   0.0000       0.071214         1.9378
  69   0.0000       0.114467         3.1148
  70   0.0000       0.124467         3.3869
  71   0.0000       0.128027         3.4838

MULLIKEN ATOMIC CHARGES
-----------------------
   0 S :    0.104148
   1 C :   -0.153873
   2 C :   -0.095977
   3 C :    0.042650
   4 C :   -0.136062
   5 H :    0.023784
   6 C :    0.056078
   7 H :    0.019327
   8 H :    0.017446
   9 C :   -0.031238
  10 H :    0.008295
  11 H :    0.036438
  12 C :   -0.052428
  13 H :    0.025297
  14 H :    0.048552
  15 H :    0.028616
  16 S :    0.099051
  17 C :   -0.094997
  18 C :   -0.065257
  19 C :   -0.026273
  20 C :   -0.175739
  21 H :    0.042815
  22 C :    0.065500
  23 H :    0.024416
  24 H :    0.014996
  25 C :   -0.068140
  26 H :    0.049939
  27 H :    0.037262
  28 C :   -0.080953
  29 H :    0.036766
  30 H :    0.038114
  31 H :    0.037552
  32 H :    0.057445
  33 H :    0.066450
Sum of atomic charges:   -0.0000000

LOEWDIN ATOMIC CHARGES
----------------------
   0 S :    0.388459
   1 C :   -0.200120
   2 C :   -0.063737
   3 C :   -0.061162
   4 C :   -0.180736
   5 H :    0.034500
   6 C :   -0.044622
   7 H :    0.029459
   8 H :    0.034981
   9 C :   -0.025380
  10 H :    0.013389
  11 H :    0.031319
  12 C :   -0.070253
  13 H :    0.020520
  14 H :    0.030796
  15 H :    0.030030
  16 S :    0.405520
  17 C :   -0.192447
  18 C :   -0.078102
  19 C :   -0.059715
  20 C :   -0.203175
  21 H :    0.037326
  22 C :   -0.032223
  23 H :    0.027499
  24 H :    0.030792
  25 C :   -0.040566
  26 H :    0.043002
  27 H :    0.018490
  28 C :   -0.080767
  29 H :    0.032125
  30 H :    0.033938
  31 H :    0.024045
  32 H :    0.031558
  33 H :    0.035259

  Mayer bond orders larger than 0.100000
B(  0-S ,  1-C ) :   1.0997 B(  0-S ,  4-C ) :   1.1561 B(  1-C ,  2-C ) :   1.6285
B(  1-C , 32-H ) :   0.9749 B(  2-C ,  3-C ) :   1.1966 B(  2-C ,  6-C ) :   1.0304
B(  3-C ,  4-C ) :   1.5839 B(  3-C ,  5-H ) :   0.9944 B(  4-C , 20-C ) :   1.0348
B(  6-C ,  7-H ) :   0.9403 B(  6-C ,  8-H ) :   0.9268 B(  6-C ,  9-C ) :   1.0805
B(  9-C , 10-H ) :   0.9522 B(  9-C , 11-H ) :   0.9556 B(  9-C , 12-C ) :   1.0683
B( 12-C , 13-H ) :   0.9761 B( 12-C , 14-H ) :   0.9779 B( 12-C , 15-H ) :   0.9735
B( 16-S , 17-C ) :   1.1448 B( 16-S , 20-C ) :   1.1410 B( 17-C , 18-C ) :   1.6081
B( 17-C , 33-H ) :   0.9719 B( 18-C , 19-C ) :   1.2284 B( 18-C , 21-H ) :   0.9719
B( 19-C , 20-C ) :   1.6020 B( 19-C , 22-C ) :   1.0548 B( 22-C , 23-H ) :   0.9235
B( 22-C , 24-H ) :   0.9319 B( 22-C , 25-C ) :   1.0581 B( 25-C , 26-H ) :   0.9564
B( 25-C , 27-H ) :   0.9604 B( 25-C , 28-C ) :   1.0767 B( 28-C , 29-H ) :   0.9773
B( 28-C , 30-H ) :   0.9706 B( 28-C , 31-H ) :   0.9725

Dispersion correction           -0.014000295
FINAL SINGLE POINT ENERGY     -1339.851925863361

DIPOLE MOMENT
-------------
                                X             Y             Z
Electronic contribution:    -26.30345       5.33370      -9.33634
Nuclear contribution   :     26.82437      -5.32469       9.68581
                        -----------------------------------------
Total Dipole Moment    :      0.52092       0.00901       0.34948
                        -----------------------------------------
Magnitude (a.u.)       :      0.62736
Magnitude (Debye)      :      1.59461

Rotational constants in cm-1:     0.017757     0.009213     0.006768
Rotational constants in MHz :   532.336621   276.207402   202.899232

                             ****ORCA TERMINATED NORMALLY****
TOTAL RUN TIME: 0 days 0 hours 0 minutes 21 seconds 499 msec
