                         Program Version 4.2.1 -  RELEASE  -
|  1> ! wB97X-D3 SP def2-SVP
|  2> %pal
|  3> nprocs 24
|  4> end
|  5>
|  6> * xyz 0 1
|  7> S 	 -112.408 	 57.7192 	 -16.8564
|  8> C 	 -112.342 	 59.4267 	 -16.5389
|  9> C 	 -112.271 	 60.1217 	 -17.6924
| 10> C 	 -112.083 	 59.2776 	 -18.8552
| 11> C 	 -112.151 	 57.9066 	 -18.6446
| 12> H 	 -111.77 	 59.5726 	 -19.8386
| 13> C 	 -112.004 	 61.6781 	 -17.7817
| 14> H 	 -112.891 	 62.1929 	 -17.4989
| 15> H 	 -111.842 	 61.8839 	 -18.8053
| 16> C 	 -110.86 	 62.1524 	 -16.9748
| 17> H 	 -111.269 	 62.0684 	 -15.8891
| 18> H 	 -110.054 	 61.4166 	 -17.217
| 19> C 	 -110.487 	 63.6062 	 -17.2676
| 20> H 	 -111.358 	 64.1288 	 -17.1467
| 21> H 	 -109.819 	 64.0173 	 -16.4523
| 22> H 	 -110.059 	 63.9062 	 -18.2404
| 23> S 	 -112.935 	 55.3276 	 -19.2362
| 24> C 	 -112.336 	 54.5429 	 -20.6647
| 25> C 	 -111.521 	 55.3642 	 -21.4045
| 26> C 	 -111.464 	 56.6588 	 -20.877
| 27> C 	 -112.056 	 56.7703 	 -19.5969
| 28> H 	 -111.209 	 55.0815 	 -22.3604
| 29> C 	 -110.466 	 57.6893 	 -21.4208
| 30> H 	 -109.604 	 57.1376 	 -21.7899
| 31> H 	 -110.131 	 58.4443 	 -20.7263
| 32> C 	 -111.068 	 58.5133 	 -22.5793
| 33> H 	 -111.791 	 59.2173 	 -22.2107
| 34> H 	 -111.708 	 57.833 	 -23.1069
| 35> C 	 -110.045 	 59.1798 	 -23.5352
| 36> H 	 -110.569 	 59.8537 	 -24.2297
| 37> H 	 -109.763 	 58.3213 	 -24.1956
| 38> H 	 -109.17 	 59.6728 	 -23.0187
| 39> H 	 -112.364 	 59.8995 	 -15.5456
| 40> H 	 -112.777 	 53.5921 	 -21.0407
| 41> *
| 42>
| 43>                          ****END OF INPUT****

CARTESIAN COORDINATES (ANGSTROEM)
---------------------------------
  S    -112.408000   57.719200  -16.856400
  C    -112.342000   59.426700  -16.538900
  C    -112.271000   60.121700  -17.692400
  C    -112.083000   59.277600  -18.855200
  C    -112.151000   57.906600  -18.644600
  H    -111.770000   59.572600  -19.838600
  C    -112.004000   61.678100  -17.781700
  H    -112.891000   62.192900  -17.498900
  H    -111.842000   61.883900  -18.805300
  C    -110.860000   62.152400  -16.974800
  H    -111.269000   62.068400  -15.889100
  H    -110.054000   61.416600  -17.217000
  C    -110.487000   63.606200  -17.267600
  H    -111.358000   64.128800  -17.146700
  H    -109.819000   64.017300  -16.452300
  H    -110.059000   63.906200  -18.240400
  S    -112.935000   55.327600  -19.236200
  C    -112.336000   54.542900  -20.664700
  C    -111.521000   55.364200  -21.404500
  C    -111.464000   56.658800  -20.877000
  C    -112.056000   56.770300  -19.596900
  H    -111.209000   55.081500  -22.360400
  C    -110.466000   57.689300  -21.420800
  H    -109.604000   57.137600  -21.789900
  H    -110.131000   58.444300  -20.726300
  C    -111.068000   58.513300  -22.579300
  H    -111.791000   59.217300  -22.210700
  H    -111.708000   57.833000  -23.106900
  C    -110.045000   59.179800  -23.535200
  H    -110.569000   59.853700  -24.229700
  H    -109.763000   58.321300  -24.195600
  H    -109.170000   59.672800  -23.018700
  H    -112.364000   59.899500  -15.545600
  H    -112.777000   53.592100  -21.040700

 Total Charge           Charge          ....    0
 Multiplicity           Mult            ....    1
 Number of Electrons    NEL             ....  134
 Basis Dimension        Dim             ....  322

ORBITAL ENERGIES
----------------

  NO   OCC          E(Eh)            E(eV)
   0   2.0000     -88.970098     -2420.9995
   1   2.0000     -88.963796     -2420.8280
   2   2.0000     -10.339896      -281.3629
   3   2.0000     -10.335432      -281.2414
   4   2.0000     -10.320958      -280.8475
   5   2.0000     -10.315238      -280.6919
   6   2.0000     -10.306409      -280.4517
   7   2.0000     -10.301739      -280.3246
   8   2.0000     -10.296568      -280.1839
   9   2.0000     -10.294510      -280.1278
  10   2.0000     -10.291935      -280.0578
  11   2.0000     -10.291295      -280.0404
  12   2.0000     -10.289700      -279.9970
  13   2.0000     -10.284312      -279.8503
  14   2.0000     -10.282303      -279.7957
  15   2.0000     -10.279449      -279.7180
  16   2.0000      -8.085398      -220.0149
  17   2.0000      -8.077812      -219.8084
  18   2.0000      -6.043795      -164.4600
  19   2.0000      -6.039685      -164.3482
  20   2.0000      -6.036606      -164.2644
  21   2.0000      -6.036379      -164.2582
  22   2.0000      -6.032382      -164.1495
  23   2.0000      -6.028321      -164.0390
  24   2.0000      -1.008987       -27.4559
  25   2.0000      -0.986515       -26.8444
  26   2.0000      -0.917204       -24.9584
  27   2.0000      -0.909714       -24.7546
  28   2.0000      -0.873519       -23.7697
  29   2.0000      -0.853187       -23.2164
  30   2.0000      -0.841234       -22.8912
  31   2.0000      -0.818026       -22.2596
  32   2.0000      -0.783979       -21.3332
  33   2.0000      -0.773280       -21.0420
  34   2.0000      -0.705636       -19.2013
  35   2.0000      -0.697666       -18.9845
  36   2.0000      -0.690705       -18.7950
  37   2.0000      -0.669633       -18.2216
  38   2.0000      -0.639934       -17.4135
  39   2.0000      -0.620438       -16.8830
  40   2.0000      -0.601095       -16.3566
  41   2.0000      -0.574703       -15.6385
  42   2.0000      -0.570541       -15.5252
  43   2.0000      -0.561007       -15.2658
  44   2.0000      -0.525615       -14.3027
  45   2.0000      -0.522338       -14.2135
  46   2.0000      -0.517044       -14.0695
  47   2.0000      -0.510477       -13.8908
  48   2.0000      -0.507331       -13.8052
  49   2.0000      -0.502751       -13.6806
  50   2.0000      -0.491512       -13.3747
  51   2.0000      -0.488732       -13.2991
  52   2.0000      -0.480466       -13.0741
  53   2.0000      -0.471806       -12.8385
  54   2.0000      -0.463556       -12.6140
  55   2.0000      -0.452722       -12.3192
  56   2.0000      -0.438272       -11.9260
  57   2.0000      -0.435552       -11.8520
  58   2.0000      -0.428695       -11.6654
  59   2.0000      -0.423866       -11.5340
  60   2.0000      -0.418959       -11.4005
  61   2.0000      -0.413244       -11.2449
  62   2.0000      -0.406457       -11.0603
  63   2.0000      -0.363509        -9.8916
  64   2.0000      -0.337855        -9.1935
  65   2.0000      -0.328764        -8.9461
  66   2.0000      -0.287009        -7.8099
  67   0.0000       0.020973         0.5707
  68   0.0000       0.076301         2.0762
  69   0.0000       0.109458         2.9785
  70   0.0000       0.120589         3.2814
  71   0.0000       0.129246         3.5170

MULLIKEN ATOMIC CHARGES
-----------------------
   0 S :    0.088868
   1 C :   -0.135477
   2 C :   -0.069191
   3 C :    0.015187
   4 C :   -0.121916
   5 H :   -0.013191
   6 C :    0.095201
   7 H :    0.020483
   8 H :    0.002232
   9 C :   -0.119007
  10 H :    0.038766
  11 H :    0.047647
  12 C :   -0.020202
  13 H :    0.002208
  14 H :    0.039662
  15 H :    0.042800
  16 S :    0.116644
  17 C :   -0.104974
  18 C :    0.002842
  19 C :   -0.038153
  20 C :   -0.132846
  21 H :    0.000820
  22 C :    0.033911
  23 H :    0.026536
  24 H :    0.027380
  25 C :   -0.087837
  26 H :    0.023037
  27 H :    0.011389
  28 C :   -0.061706
  29 H :    0.038824
  30 H :    0.036687
  31 H :    0.055254
  32 H :    0.063468
  33 H :    0.074657
Sum of atomic charges:    0.0000000

LOEWDIN ATOMIC CHARGES
----------------------
   0 S :    0.374501
   1 C :   -0.195204
   2 C :   -0.067211
   3 C :   -0.067783
   4 C :   -0.167744
   5 H :    0.023292
   6 C :   -0.026770
   7 H :    0.023326
   8 H :    0.018857
   9 C :   -0.047696
  10 H :    0.034215
  11 H :    0.030462
  12 C :   -0.067247
  13 H :    0.012801
  14 H :    0.036224
  15 H :    0.030011
  16 S :    0.430635
  17 C :   -0.191082
  18 C :   -0.064746
  19 C :   -0.056860
  20 C :   -0.199349
  21 H :    0.025120
  22 C :   -0.026561
  23 H :    0.030160
  24 H :    0.024719
  25 C :   -0.046498
  26 H :    0.015065
  27 H :    0.017650
  28 C :   -0.073305
  29 H :    0.028854
  30 H :    0.032254
  31 H :    0.032887
  32 H :    0.038647
  33 H :    0.038373

  Mayer bond orders larger than 0.100000
B(  0-S ,  1-C ) :   1.1346 B(  0-S ,  4-C ) :   1.1238 B(  1-C ,  2-C ) :   1.6335
B(  1-C , 32-H ) :   0.9662 B(  2-C ,  3-C ) :   1.2243 B(  2-C ,  6-C ) :   1.0120
B(  3-C ,  4-C ) :   1.6004 B(  3-C ,  5-H ) :   0.9884 B(  4-C , 20-C ) :   1.0588
B(  6-C ,  7-H ) :   0.9297 B(  6-C ,  8-H ) :   0.9466 B(  6-C ,  9-C ) :   1.0711
B(  9-C , 10-H ) :   0.9462 B(  9-C , 11-H ) :   0.9607 B(  9-C , 12-C ) :   1.0798
B( 12-C , 13-H ) :   0.9670 B( 12-C , 14-H ) :   0.9727 B( 12-C , 15-H ) :   0.9756
B( 16-S , 17-C ) :   1.1707 B( 16-S , 20-C ) :   1.1651 B( 17-C , 18-C ) :   1.5751
B( 17-C , 20-C ) :   0.1023 B( 17-C , 33-H ) :   0.9611 B( 18-C , 19-C ) :   1.2872
B( 18-C , 21-H ) :   0.9932 B( 19-C , 20-C ) :   1.5389 B( 19-C , 22-C ) :   1.0373
B( 22-C , 23-H ) :   0.9499 B( 22-C , 24-H ) :   0.9448 B( 22-C , 25-C ) :   1.0407
B( 25-C , 26-H ) :   0.9521 B( 25-C , 27-H ) :   0.9575 B( 25-C , 28-C ) :   1.0688
B( 28-C , 29-H ) :   0.9737 B( 28-C , 30-H ) :   0.9773 B( 28-C , 31-H ) :   0.9749

Dispersion correction           -0.013599966
FINAL SINGLE POINT ENERGY     -1339.861863494405

DIPOLE MOMENT
-------------
                                X             Y             Z
Electronic contribution:    -12.74733     -26.97549      12.41155
Nuclear contribution   :     12.94541      27.46323     -12.91127
                        -----------------------------------------
Total Dipole Moment    :      0.19808       0.48773      -0.49972
                        -----------------------------------------
Magnitude (a.u.)       :      0.72584
Magnitude (Debye)      :      1.84494

Rotational constants in cm-1:     0.017654     0.008565     0.005949
Rotational constants in MHz :   529.261259   256.758265   178.335352

                             ****ORCA TERMINATED NORMALLY****
TOTAL RUN TIME: 0 days 0 hours 0 minutes 21 seconds 218 msec
