                         Program Version 4.2.1 -  RELEASE  -
|  1> ! wB97X-D3 SP def2-SVP
|  2> %pal
|  3> nprocs 24
|  4> end
|  5>
|  6> * xyz 0 1
|  7> S 	 32.9742 	 1.80162 	 -116.247
|  8> C 	 32.4386 	 2.95329 	 -117.431
|  9> C 	 31.1071 	 3.35461 	 -117.3
| 10> C 	 30.489 	 2.6293 	 -116.265
| 11> C 	 31.3211 	 1.68879 	 -115.688
| 12> H 	 29.46 	 2.77137 	 -115.99
| 13> C 	 30.3858 	 4.45763 	 -117.989
| 14> H 	 30.9928 	 4.80565 	 -118.828
| 15> H 	 30.3754 	 5.35379 	 -117.374
| 16> C 	 28.9842 	 4.16597 	 -118.517
| 17> H 	 28.9608 	 3.43181 	 -119.306
| 18> H 	 28.3329 	 3.67524 	 -117.758
| 19> C 	 28.2799 	 5.53186 	 -118.852
| 20> H 	 27.2872 	 5.3412 	 -119.265
| 21> H 	 28.1521 	 5.97195 	 -117.915
| 22> H 	 28.8949 	 6.18547 	 -119.445
| 23> S 	 30.922 	 -0.919874 	 -115.082
| 24> C 	 30.6803 	 -1.41204 	 -113.479
| 25> C 	 30.3506 	 -0.358378 	 -112.634
| 26> C 	 30.5039 	 0.918715 	 -113.307
| 27> C 	 30.9325 	 0.772283 	 -114.605
| 28> H 	 30.1429 	 -0.538226 	 -111.641
| 29> C 	 30.256 	 2.18511 	 -112.581
| 30> H 	 31.0542 	 2.85706 	 -112.929
| 31> H 	 30.4781 	 2.03415 	 -111.54
| 32> C 	 28.8851 	 2.85158 	 -112.695
| 33> H 	 28.7598 	 3.0355 	 -113.74
| 34> H 	 28.8234 	 3.87073 	 -112.224
| 35> C 	 27.7707 	 1.97938 	 -112.037
| 36> H 	 27.8862 	 1.84951 	 -110.981
| 37> H 	 27.853 	 0.953338 	 -112.354
| 38> H 	 26.7447 	 2.41441 	 -112.309
| 39> H 	 33.0933 	 3.35234 	 -118.222
| 40> H 	 30.472 	 -2.42901 	 -113.045
| 41> *
| 42>
| 43>                          ****END OF INPUT****

CARTESIAN COORDINATES (ANGSTROEM)
---------------------------------
  S     32.974200    1.801620  -116.247000
  C     32.438600    2.953290  -117.431000
  C     31.107100    3.354610  -117.300000
  C     30.489000    2.629300  -116.265000
  C     31.321100    1.688790  -115.688000
  H     29.460000    2.771370  -115.990000
  C     30.385800    4.457630  -117.989000
  H     30.992800    4.805650  -118.828000
  H     30.375400    5.353790  -117.374000
  C     28.984200    4.165970  -118.517000
  H     28.960800    3.431810  -119.306000
  H     28.332900    3.675240  -117.758000
  C     28.279900    5.531860  -118.852000
  H     27.287200    5.341200  -119.265000
  H     28.152100    5.971950  -117.915000
  H     28.894900    6.185470  -119.445000
  S     30.922000   -0.919874  -115.082000
  C     30.680300   -1.412040  -113.479000
  C     30.350600   -0.358378  -112.634000
  C     30.503900    0.918715  -113.307000
  C     30.932500    0.772283  -114.605000
  H     30.142900   -0.538226  -111.641000
  C     30.256000    2.185110  -112.581000
  H     31.054200    2.857060  -112.929000
  H     30.478100    2.034150  -111.540000
  C     28.885100    2.851580  -112.695000
  H     28.759800    3.035500  -113.740000
  H     28.823400    3.870730  -112.224000
  C     27.770700    1.979380  -112.037000
  H     27.886200    1.849510  -110.981000
  H     27.853000    0.953338  -112.354000
  H     26.744700    2.414410  -112.309000
  H     33.093300    3.352340  -118.222000
  H     30.472000   -2.429010  -113.045000

 Total Charge           Charge          ....    0
 Multiplicity           Mult            ....    1
 Number of Electrons    NEL             ....  134
 Basis Dimension        Dim             ....  322

ORBITAL ENERGIES
----------------

  NO   OCC          E(Eh)            E(eV)
   0   2.0000     -88.971873     -2421.0478
   1   2.0000     -88.962816     -2420.8013
   2   2.0000     -10.327224      -281.0181
   3   2.0000     -10.321537      -280.8633
   4   2.0000     -10.315771      -280.7064
   5   2.0000     -10.313928      -280.6562
   6   2.0000     -10.301058      -280.3060
   7   2.0000     -10.297622      -280.2125
   8   2.0000     -10.292048      -280.0609
   9   2.0000     -10.290758      -280.0258
  10   2.0000     -10.290312      -280.0136
  11   2.0000     -10.288988      -279.9776
  12   2.0000     -10.285938      -279.8946
  13   2.0000     -10.283777      -279.8358
  14   2.0000     -10.279450      -279.7180
  15   2.0000     -10.277264      -279.6586
  16   2.0000      -8.086583      -220.0471
  17   2.0000      -8.078499      -219.8271
  18   2.0000      -6.044878      -164.4895
  19   2.0000      -6.041292      -164.3919
  20   2.0000      -6.037374      -164.2853
  21   2.0000      -6.036961      -164.2741
  22   2.0000      -6.032886      -164.1632
  23   2.0000      -6.029231      -164.0637
  24   2.0000      -1.008752       -27.4495
  25   2.0000      -0.987621       -26.8745
  26   2.0000      -0.915569       -24.9139
  27   2.0000      -0.910444       -24.7744
  28   2.0000      -0.866186       -23.5701
  29   2.0000      -0.854114       -23.2416
  30   2.0000      -0.845970       -23.0200
  31   2.0000      -0.812906       -22.1203
  32   2.0000      -0.783927       -21.3317
  33   2.0000      -0.770802       -20.9746
  34   2.0000      -0.713494       -19.4152
  35   2.0000      -0.704482       -19.1699
  36   2.0000      -0.687596       -18.7104
  37   2.0000      -0.661993       -18.0137
  38   2.0000      -0.641706       -17.4617
  39   2.0000      -0.628162       -17.0932
  40   2.0000      -0.588921       -16.0253
  41   2.0000      -0.572166       -15.5694
  42   2.0000      -0.560970       -15.2648
  43   2.0000      -0.548837       -14.9346
  44   2.0000      -0.541662       -14.7394
  45   2.0000      -0.531589       -14.4653
  46   2.0000      -0.514052       -13.9881
  47   2.0000      -0.511260       -13.9121
  48   2.0000      -0.501816       -13.6551
  49   2.0000      -0.491545       -13.3756
  50   2.0000      -0.486774       -13.2458
  51   2.0000      -0.479857       -13.0576
  52   2.0000      -0.473121       -12.8743
  53   2.0000      -0.465724       -12.6730
  54   2.0000      -0.462283       -12.5794
  55   2.0000      -0.455036       -12.3822
  56   2.0000      -0.448494       -12.2041
  57   2.0000      -0.442555       -12.0425
  58   2.0000      -0.433112       -11.7856
  59   2.0000      -0.427928       -11.6445
  60   2.0000      -0.421182       -11.4610
  61   2.0000      -0.418145       -11.3783
  62   2.0000      -0.411203       -11.1894
  63   2.0000      -0.340208        -9.2575
  64   2.0000      -0.328199        -8.9307
  65   2.0000      -0.324666        -8.8346
  66   2.0000      -0.301148        -8.1947
  67   0.0000       0.036552         0.9946
  68   0.0000       0.064081         1.7437
  69   0.0000       0.109685         2.9847
  70   0.0000       0.117675         3.2021
  71   0.0000       0.131297         3.5728

MULLIKEN ATOMIC CHARGES
-----------------------
   0 S :    0.144048
   1 C :   -0.136245
   2 C :   -0.056314
   3 C :    0.033446
   4 C :   -0.163653
   5 H :    0.011490
   6 C :    0.069480
   7 H :    0.010384
   8 H :    0.034588
   9 C :   -0.105053
  10 H :    0.030681
  11 H :    0.028845
  12 C :   -0.021400
  13 H :    0.038657
  14 H :    0.017598
  15 H :    0.031214
  16 S :    0.122780
  17 C :   -0.085845
  18 C :   -0.045310
  19 C :   -0.016303
  20 C :   -0.202749
  21 H :   -0.010223
  22 C :    0.061859
  23 H :    0.031588
  24 H :    0.009030
  25 C :   -0.029376
  26 H :    0.007803
  27 H :    0.037237
  28 C :   -0.068122
  29 H :    0.021953
  30 H :    0.030085
  31 H :    0.049336
  32 H :    0.049962
  33 H :    0.068529
Sum of atomic charges:   -0.0000000

LOEWDIN ATOMIC CHARGES
----------------------
   0 S :    0.424666
   1 C :   -0.203300
   2 C :   -0.066532
   3 C :   -0.051830
   4 C :   -0.205166
   5 H :    0.027114
   6 C :   -0.036950
   7 H :    0.031710
   8 H :    0.035007
   9 C :   -0.037363
  10 H :    0.020518
  11 H :    0.023512
  12 C :   -0.053659
  13 H :    0.029017
  14 H :    0.018012
  15 H :    0.021480
  16 S :    0.427647
  17 C :   -0.211758
  18 C :   -0.070591
  19 C :   -0.051790
  20 C :   -0.201564
  21 H :    0.015856
  22 C :   -0.037890
  23 H :    0.037367
  24 H :    0.025032
  25 C :   -0.035382
  26 H :    0.015167
  27 H :    0.031275
  28 C :   -0.071209
  29 H :    0.020774
  30 H :    0.022742
  31 H :    0.036121
  32 H :    0.029118
  33 H :    0.042848

  Mayer bond orders larger than 0.100000
B(  0-S ,  1-C ) :   1.1489 B(  0-S ,  4-C ) :   1.1637 B(  1-C ,  2-C ) :   1.5975
B(  1-C , 32-H ) :   0.9600 B(  2-C ,  3-C ) :   1.2583 B(  2-C ,  6-C ) :   1.0283
B(  3-C ,  4-C ) :   1.5668 B(  3-C ,  5-H ) :   0.9933 B(  4-C , 20-C ) :   1.0113
B(  6-C ,  7-H ) :   0.9270 B(  6-C ,  8-H ) :   0.9403 B(  6-C ,  9-C ) :   1.0510
B(  9-C , 10-H ) :   0.9594 B(  9-C , 11-H ) :   0.9594 B(  9-C , 12-C ) :   1.0655
B( 12-C , 13-H ) :   0.9739 B( 12-C , 14-H ) :   0.9778 B( 12-C , 15-H ) :   0.9776
B( 16-S , 17-C ) :   1.1659 B( 16-S , 20-C ) :   1.1491 B( 17-C , 18-C ) :   1.6170
B( 17-C , 33-H ) :   0.9548 B( 18-C , 19-C ) :   1.2176 B( 18-C , 21-H ) :   0.9995
B( 19-C , 20-C ) :   1.6147 B( 19-C , 22-C ) :   1.0540 B( 22-C , 23-H ) :   0.9229
B( 22-C , 24-H ) :   0.9336 B( 22-C , 25-C ) :   1.0732 B( 25-C , 26-H ) :   0.9553
B( 25-C , 27-H ) :   0.9523 B( 25-C , 28-C ) :   1.0657 B( 28-C , 29-H ) :   0.9739
B( 28-C , 30-H ) :   0.9760 B( 28-C , 31-H ) :   0.9740

Dispersion correction           -0.014508177
FINAL SINGLE POINT ENERGY     -1339.877202705180

DIPOLE MOMENT
-------------
                                X             Y             Z
Electronic contribution:     20.69707     -19.81230      -1.28846
Nuclear contribution   :    -21.08338      20.29036       1.39471
                        -----------------------------------------
Total Dipole Moment    :     -0.38631       0.47806       0.10624
                        -----------------------------------------
Magnitude (a.u.)       :      0.62375
Magnitude (Debye)      :      1.58544

Rotational constants in cm-1:     0.017826     0.008916     0.006912
Rotational constants in MHz :   534.416300   267.296604   207.215186

                             ****ORCA TERMINATED NORMALLY****
TOTAL RUN TIME: 0 days 0 hours 0 minutes 21 seconds 748 msec
