                         Program Version 4.2.1 -  RELEASE  -
|  1> ! wB97X-D3 SP def2-SVP
|  2> %pal
|  3> nprocs 24
|  4> end
|  5>
|  6> * xyz 0 1
|  7> S 	 -43.1741 	 -4.88648 	 -17.6974
|  8> C 	 -43.8318 	 -6.20577 	 -18.6648
|  9> C 	 -42.9064 	 -7.17272 	 -18.8709
| 10> C 	 -41.6379 	 -6.68928 	 -18.4859
| 11> C 	 -41.5945 	 -5.53075 	 -17.7206
| 12> H 	 -40.6777 	 -7.10416 	 -18.6252
| 13> C 	 -43.0967 	 -8.53635 	 -19.5064
| 14> H 	 -44.2076 	 -8.72414 	 -19.5555
| 15> H 	 -42.6442 	 -9.24715 	 -18.7491
| 16> C 	 -42.3329 	 -8.87713 	 -20.8076
| 17> H 	 -42.8709 	 -8.33991 	 -21.5949
| 18> H 	 -41.3347 	 -8.51427 	 -20.7607
| 19> C 	 -42.2396 	 -10.3187 	 -21.2782
| 20> H 	 -41.6943 	 -10.8594 	 -20.4779
| 21> H 	 -43.2294 	 -10.8585 	 -21.3322
| 22> H 	 -41.6321 	 -10.2931 	 -22.1622
| 23> S 	 -39.5551 	 -3.68311 	 -18.1707
| 24> C 	 -38.2506 	 -3.5418 	 -17.0072
| 25> C 	 -38.4384 	 -4.44202 	 -16.0044
| 26> C 	 -39.6925 	 -5.15545 	 -16.0839
| 27> C 	 -40.417 	 -4.87489 	 -17.2332
| 28> H 	 -37.6775 	 -4.57481 	 -15.239
| 29> C 	 -40.1349 	 -6.20584 	 -15.1395
| 30> H 	 -39.2434 	 -6.51939 	 -14.7113
| 31> H 	 -40.5813 	 -7.15171 	 -15.6088
| 32> C 	 -41.1427 	 -5.68367 	 -14.1415
| 33> H 	 -41.9667 	 -5.17621 	 -14.7057
| 34> H 	 -40.7798 	 -4.94698 	 -13.443
| 35> C 	 -41.7286 	 -6.83542 	 -13.3344
| 36> H 	 -41.9753 	 -7.60845 	 -14.0267
| 37> H 	 -42.618 	 -6.54503 	 -12.8157
| 38> H 	 -41.1494 	 -7.2227 	 -12.5852
| 39> H 	 -44.8759 	 -6.28537 	 -18.9314
| 40> H 	 -37.4065 	 -2.91008 	 -17.1007
| 41> *
| 42>
| 43>                          ****END OF INPUT****

CARTESIAN COORDINATES (ANGSTROEM)
---------------------------------
  S    -43.174100   -4.886480  -17.697400
  C    -43.831800   -6.205770  -18.664800
  C    -42.906400   -7.172720  -18.870900
  C    -41.637900   -6.689280  -18.485900
  C    -41.594500   -5.530750  -17.720600
  H    -40.677700   -7.104160  -18.625200
  C    -43.096700   -8.536350  -19.506400
  H    -44.207600   -8.724140  -19.555500
  H    -42.644200   -9.247150  -18.749100
  C    -42.332900   -8.877130  -20.807600
  H    -42.870900   -8.339910  -21.594900
  H    -41.334700   -8.514270  -20.760700
  C    -42.239600  -10.318700  -21.278200
  H    -41.694300  -10.859400  -20.477900
  H    -43.229400  -10.858500  -21.332200
  H    -41.632100  -10.293100  -22.162200
  S    -39.555100   -3.683110  -18.170700
  C    -38.250600   -3.541800  -17.007200
  C    -38.438400   -4.442020  -16.004400
  C    -39.692500   -5.155450  -16.083900
  C    -40.417000   -4.874890  -17.233200
  H    -37.677500   -4.574810  -15.239000
  C    -40.134900   -6.205840  -15.139500
  H    -39.243400   -6.519390  -14.711300
  H    -40.581300   -7.151710  -15.608800
  C    -41.142700   -5.683670  -14.141500
  H    -41.966700   -5.176210  -14.705700
  H    -40.779800   -4.946980  -13.443000
  C    -41.728600   -6.835420  -13.334400
  H    -41.975300   -7.608450  -14.026700
  H    -42.618000   -6.545030  -12.815700
  H    -41.149400   -7.222700  -12.585200
  H    -44.875900   -6.285370  -18.931400
  H    -37.406500   -2.910080  -17.100700

 Total Charge           Charge          ....    0
 Multiplicity           Mult            ....    1
 Number of Electrons    NEL             ....  134
 Basis Dimension        Dim             ....  322

ORBITAL ENERGIES
----------------

  NO   OCC          E(Eh)            E(eV)
   0   2.0000     -88.964157     -2420.8378
   1   2.0000     -88.962110     -2420.7821
   2   2.0000     -10.322313      -280.8844
   3   2.0000     -10.320913      -280.8463
   4   2.0000     -10.315675      -280.7038
   5   2.0000     -10.313867      -280.6546
   6   2.0000     -10.304093      -280.3886
   7   2.0000     -10.300929      -280.3025
   8   2.0000     -10.299304      -280.2583
   9   2.0000     -10.294450      -280.1262
  10   2.0000     -10.287442      -279.9355
  11   2.0000     -10.285861      -279.8925
  12   2.0000     -10.284770      -279.8628
  13   2.0000     -10.282227      -279.7936
  14   2.0000     -10.279191      -279.7110
  15   2.0000     -10.258751      -279.1548
  16   2.0000      -8.079323      -219.8496
  17   2.0000      -8.076970      -219.7855
  18   2.0000      -6.037787      -164.2965
  19   2.0000      -6.035494      -164.2341
  20   2.0000      -6.033653      -164.1841
  21   2.0000      -6.031304      -164.1201
  22   2.0000      -6.030197      -164.0900
  23   2.0000      -6.027852      -164.0262
  24   2.0000      -1.012562       -27.5532
  25   2.0000      -0.989238       -26.9185
  26   2.0000      -0.914253       -24.8781
  27   2.0000      -0.912405       -24.8278
  28   2.0000      -0.877767       -23.8853
  29   2.0000      -0.851609       -23.1734
  30   2.0000      -0.848506       -23.0890
  31   2.0000      -0.817305       -22.2400
  32   2.0000      -0.785253       -21.3678
  33   2.0000      -0.772398       -21.0180
  34   2.0000      -0.711413       -19.3585
  35   2.0000      -0.696803       -18.9610
  36   2.0000      -0.694152       -18.8888
  37   2.0000      -0.662628       -18.0310
  38   2.0000      -0.648246       -17.6397
  39   2.0000      -0.617989       -16.8163
  40   2.0000      -0.599583       -16.3155
  41   2.0000      -0.574247       -15.6261
  42   2.0000      -0.566247       -15.4084
  43   2.0000      -0.564528       -15.3616
  44   2.0000      -0.536653       -14.6031
  45   2.0000      -0.523398       -14.2424
  46   2.0000      -0.520464       -14.1625
  47   2.0000      -0.511638       -13.9224
  48   2.0000      -0.508711       -13.8427
  49   2.0000      -0.504747       -13.7349
  50   2.0000      -0.498978       -13.5779
  51   2.0000      -0.476755       -12.9732
  52   2.0000      -0.472602       -12.8602
  53   2.0000      -0.464161       -12.6305
  54   2.0000      -0.457345       -12.4450
  55   2.0000      -0.449602       -12.2343
  56   2.0000      -0.444688       -12.1006
  57   2.0000      -0.437624       -11.9084
  58   2.0000      -0.436007       -11.8644
  59   2.0000      -0.422706       -11.5024
  60   2.0000      -0.418271       -11.3817
  61   2.0000      -0.413093       -11.2408
  62   2.0000      -0.408994       -11.1293
  63   2.0000      -0.335139        -9.1196
  64   2.0000      -0.327299        -8.9062
  65   2.0000      -0.320026        -8.7084
  66   2.0000      -0.314367        -8.5544
  67   0.0000       0.045818         1.2468
  68   0.0000       0.056261         1.5309
  69   0.0000       0.112190         3.0528
  70   0.0000       0.124052         3.3756
  71   0.0000       0.136893         3.7251

MULLIKEN ATOMIC CHARGES
-----------------------
   0 S :    0.115785
   1 C :   -0.137076
   2 C :   -0.036346
   3 C :    0.043220
   4 C :   -0.193248
   5 H :   -0.009889
   6 C :    0.047974
   7 H :    0.030548
   8 H :    0.033697
   9 C :   -0.076529
  10 H :    0.029191
  11 H :    0.025839
  12 C :   -0.049150
  13 H :    0.023940
  14 H :    0.044105
  15 H :    0.044906
  16 S :    0.111148
  17 C :   -0.077329
  18 C :   -0.028817
  19 C :   -0.038303
  20 C :   -0.163133
  21 H :    0.019268
  22 C :    0.095324
  23 H :   -0.008314
  24 H :    0.035832
  25 C :   -0.080796
  26 H :    0.028115
  27 H :    0.023177
  28 C :    0.016118
  29 H :    0.013654
  30 H :    0.018537
  31 H :    0.008169
  32 H :    0.044340
  33 H :    0.046044
Sum of atomic charges:    0.0000000

LOEWDIN ATOMIC CHARGES
----------------------
   0 S :    0.421517
   1 C :   -0.185866
   2 C :   -0.069580
   3 C :   -0.053056
   4 C :   -0.215927
   5 H :    0.021568
   6 C :   -0.035450
   7 H :    0.033918
   8 H :    0.037739
   9 C :   -0.044010
  10 H :    0.024336
  11 H :    0.021782
  12 C :   -0.064919
  13 H :    0.024107
  14 H :    0.031804
  15 H :    0.029814
  16 S :    0.407224
  17 C :   -0.174554
  18 C :   -0.073605
  19 C :   -0.048590
  20 C :   -0.211501
  21 H :    0.032426
  22 C :   -0.034807
  23 H :    0.018035
  24 H :    0.039790
  25 C :   -0.034995
  26 H :    0.025548
  27 H :    0.021537
  28 C :   -0.055344
  29 H :    0.020982
  30 H :    0.024844
  31 H :    0.011930
  32 H :    0.027419
  33 H :    0.025885

  Mayer bond orders larger than 0.100000
B(  0-S ,  1-C ) :   1.1501 B(  0-S ,  4-C ) :   1.1495 B(  1-C ,  2-C ) :   1.6038
B(  1-C , 32-H ) :   0.9687 B(  2-C ,  3-C ) :   1.2179 B(  2-C ,  6-C ) :   1.0270
B(  3-C ,  4-C ) :   1.6014 B(  3-C ,  5-H ) :   0.9958 B(  4-C , 20-C ) :   1.0300
B(  6-C ,  7-H ) :   0.9408 B(  6-C ,  8-H ) :   0.9325 B(  6-C ,  9-C ) :   1.0611
B(  9-C , 10-H ) :   0.9531 B(  9-C , 11-H ) :   0.9540 B(  9-C , 12-C ) :   1.0890
B( 12-C , 13-H ) :   0.9722 B( 12-C , 14-H ) :   0.9745 B( 12-C , 15-H ) :   0.9717
B( 16-S , 17-C ) :   1.1586 B( 16-S , 20-C ) :   1.1383 B( 17-C , 18-C ) :   1.6058
B( 17-C , 33-H ) :   0.9718 B( 18-C , 19-C ) :   1.2511 B( 18-C , 21-H ) :   0.9884
B( 19-C , 20-C ) :   1.5898 B( 19-C , 22-C ) :   1.0508 B( 22-C , 23-H ) :   0.9167
B( 22-C , 24-H ) :   0.9299 B( 22-C , 25-C ) :   1.0652 B( 25-C , 26-H ) :   0.9565
B( 25-C , 27-H ) :   0.9512 B( 25-C , 28-C ) :   1.0885 B( 28-C , 29-H ) :   0.9716
B( 28-C , 30-H ) :   0.9697 B( 28-C , 31-H ) :   0.9727

Dispersion correction           -0.014279772
FINAL SINGLE POINT ENERGY     -1339.874067827417

DIPOLE MOMENT
-------------
                                X             Y             Z
Electronic contribution:      3.29958      23.64382      -3.47733
Nuclear contribution   :     -3.08239     -24.24849       3.55433
                        -----------------------------------------
Total Dipole Moment    :      0.21719      -0.60466       0.07700
                        -----------------------------------------
Magnitude (a.u.)       :      0.64708
Magnitude (Debye)      :      1.64476

Rotational constants in cm-1:     0.017763     0.008163     0.007228
Rotational constants in MHz :   532.527146   244.725250   216.703078

                             ****ORCA TERMINATED NORMALLY****
TOTAL RUN TIME: 0 days 0 hours 0 minutes 21 seconds 625 msec
