                         Program Version 4.2.1 -  RELEASE  -
|  1> ! wB97X-D3 SP def2-SVP
|  2> %pal
|  3> nprocs 24
|  4> end
|  5>
|  6> * xyz 0 1
|  7> S 	 -35.4927 	 2.27945 	 12.2986
|  8> C 	 -34.049 	 1.83361 	 13.1508
|  9> C 	 -34.2659 	 0.846899 	 14.0642
| 10> C 	 -35.5488 	 0.313876 	 13.9509
| 11> C 	 -36.321 	 0.889058 	 12.9611
| 12> H 	 -35.936 	 -0.51025 	 14.5064
| 13> C 	 -33.313 	 0.415857 	 15.1117
| 14> H 	 -32.3312 	 0.118812 	 14.6736
| 15> H 	 -33.7314 	 -0.428927 	 15.6274
| 16> C 	 -33.0264 	 1.59652 	 16.0498
| 17> H 	 -32.1994 	 1.46924 	 16.7168
| 18> H 	 -32.7057 	 2.41173 	 15.333
| 19> C 	 -34.2835 	 1.95318 	 16.8905
| 20> H 	 -34.3654 	 1.19872 	 17.695
| 21> H 	 -34.1586 	 2.93881 	 17.3835
| 22> H 	 -35.1869 	 1.89855 	 16.2395
| 23> S 	 -37.8419 	 -0.995687 	 11.7165
| 24> C 	 -39.592 	 -0.899308 	 11.9187
| 25> C 	 -39.9739 	 0.318185 	 12.3997
| 26> C 	 -38.89 	 1.17251 	 12.8299
| 27> C 	 -37.6794 	 0.543735 	 12.5715
| 28> H 	 -41.0281 	 0.583767 	 12.3807
| 29> C 	 -39.1213 	 2.56447 	 13.3488
| 30> H 	 -38.3497 	 3.15268 	 12.9835
| 31> H 	 -39.0621 	 2.5306 	 14.446
| 32> C 	 -40.3956 	 3.3625 	 12.9262
| 33> H 	 -41.1642 	 2.63632 	 13.2049
| 34> H 	 -40.4902 	 3.45489 	 11.8795
| 35> C 	 -40.4745 	 4.75727 	 13.4997
| 36> H 	 -41.4277 	 5.15182 	 13.2976
| 37> H 	 -39.7142 	 5.40702 	 12.997
| 38> H 	 -40.1786 	 4.68444 	 14.5935
| 39> H 	 -33.0557 	 2.40867 	 13.0328
| 40> H 	 -40.2533 	 -1.61702 	 11.6796
| 41> *
| 42>
| 43>                          ****END OF INPUT****

CARTESIAN COORDINATES (ANGSTROEM)
---------------------------------
  S    -35.492700    2.279450   12.298600
  C    -34.049000    1.833610   13.150800
  C    -34.265900    0.846899   14.064200
  C    -35.548800    0.313876   13.950900
  C    -36.321000    0.889058   12.961100
  H    -35.936000   -0.510250   14.506400
  C    -33.313000    0.415857   15.111700
  H    -32.331200    0.118812   14.673600
  H    -33.731400   -0.428927   15.627400
  C    -33.026400    1.596520   16.049800
  H    -32.199400    1.469240   16.716800
  H    -32.705700    2.411730   15.333000
  C    -34.283500    1.953180   16.890500
  H    -34.365400    1.198720   17.695000
  H    -34.158600    2.938810   17.383500
  H    -35.186900    1.898550   16.239500
  S    -37.841900   -0.995687   11.716500
  C    -39.592000   -0.899308   11.918700
  C    -39.973900    0.318185   12.399700
  C    -38.890000    1.172510   12.829900
  C    -37.679400    0.543735   12.571500
  H    -41.028100    0.583767   12.380700
  C    -39.121300    2.564470   13.348800
  H    -38.349700    3.152680   12.983500
  H    -39.062100    2.530600   14.446000
  C    -40.395600    3.362500   12.926200
  H    -41.164200    2.636320   13.204900
  H    -40.490200    3.454890   11.879500
  C    -40.474500    4.757270   13.499700
  H    -41.427700    5.151820   13.297600
  H    -39.714200    5.407020   12.997000
  H    -40.178600    4.684440   14.593500
  H    -33.055700    2.408670   13.032800
  H    -40.253300   -1.617020   11.679600

 Total Charge           Charge          ....    0
 Multiplicity           Mult            ....    1
 Number of Electrons    NEL             ....  134
 Basis Dimension        Dim             ....  322

ORBITAL ENERGIES
----------------

  NO   OCC          E(Eh)            E(eV)
   0   2.0000     -88.965906     -2420.8854
   1   2.0000     -88.964367     -2420.8435
   2   2.0000     -10.324703      -280.9494
   3   2.0000     -10.324045      -280.9315
   4   2.0000     -10.314981      -280.6849
   5   2.0000     -10.307475      -280.4807
   6   2.0000     -10.304446      -280.3982
   7   2.0000     -10.291414      -280.0436
   8   2.0000     -10.291111      -280.0354
   9   2.0000     -10.289021      -279.9785
  10   2.0000     -10.288167      -279.9552
  11   2.0000     -10.286827      -279.9188
  12   2.0000     -10.286081      -279.8985
  13   2.0000     -10.284092      -279.8444
  14   2.0000     -10.283060      -279.8163
  15   2.0000     -10.280849      -279.7561
  16   2.0000      -8.080752      -219.8884
  17   2.0000      -8.078680      -219.8321
  18   2.0000      -6.039155      -164.3338
  19   2.0000      -6.037241      -164.2817
  20   2.0000      -6.035249      -164.2275
  21   2.0000      -6.033378      -164.1766
  22   2.0000      -6.031628      -164.1289
  23   2.0000      -6.029276      -164.0649
  24   2.0000      -1.008970       -27.4555
  25   2.0000      -0.985370       -26.8133
  26   2.0000      -0.915921       -24.9235
  27   2.0000      -0.911363       -24.7995
  28   2.0000      -0.866683       -23.5836
  29   2.0000      -0.852748       -23.2044
  30   2.0000      -0.846724       -23.0405
  31   2.0000      -0.812673       -22.1139
  32   2.0000      -0.783317       -21.3151
  33   2.0000      -0.770330       -20.9617
  34   2.0000      -0.706922       -19.2363
  35   2.0000      -0.702971       -19.1288
  36   2.0000      -0.696797       -18.9608
  37   2.0000      -0.654085       -17.7986
  38   2.0000      -0.639820       -17.4104
  39   2.0000      -0.611976       -16.6527
  40   2.0000      -0.601299       -16.3622
  41   2.0000      -0.577967       -15.7273
  42   2.0000      -0.573389       -15.6027
  43   2.0000      -0.553563       -15.0632
  44   2.0000      -0.535281       -14.5657
  45   2.0000      -0.532986       -14.5033
  46   2.0000      -0.516628       -14.0582
  47   2.0000      -0.508413       -13.8346
  48   2.0000      -0.505650       -13.7594
  49   2.0000      -0.492004       -13.3881
  50   2.0000      -0.485043       -13.1987
  51   2.0000      -0.478507       -13.0209
  52   2.0000      -0.472136       -12.8475
  53   2.0000      -0.469859       -12.7855
  54   2.0000      -0.459682       -12.5086
  55   2.0000      -0.458085       -12.4651
  56   2.0000      -0.442477       -12.0404
  57   2.0000      -0.434684       -11.8284
  58   2.0000      -0.431781       -11.7494
  59   2.0000      -0.425782       -11.5861
  60   2.0000      -0.423437       -11.5223
  61   2.0000      -0.417271       -11.3545
  62   2.0000      -0.405543       -11.0354
  63   2.0000      -0.336436        -9.1549
  64   2.0000      -0.329923        -8.9776
  65   2.0000      -0.326946        -8.8966
  66   2.0000      -0.298932        -8.1344
  67   0.0000       0.036444         0.9917
  68   0.0000       0.060744         1.6529
  69   0.0000       0.106674         2.9027
  70   0.0000       0.112543         3.0625
  71   0.0000       0.134430         3.6580

MULLIKEN ATOMIC CHARGES
-----------------------
   0 S :    0.120237
   1 C :   -0.166474
   2 C :   -0.083071
   3 C :    0.053575
   4 C :   -0.184876
   5 H :    0.000988
   6 C :    0.089376
   7 H :    0.038397
   8 H :    0.012276
   9 C :   -0.081988
  10 H :    0.023173
  11 H :    0.025548
  12 C :   -0.071705
  13 H :    0.030977
  14 H :    0.043414
  15 H :    0.054037
  16 S :    0.113258
  17 C :   -0.039871
  18 C :   -0.056813
  19 C :   -0.004676
  20 C :   -0.195919
  21 H :    0.023645
  22 C :    0.102267
  23 H :   -0.004730
  24 H :    0.040151
  25 C :   -0.103671
  26 H :    0.028772
  27 H :    0.021659
  28 C :   -0.026338
  29 H :    0.034461
  30 H :    0.039823
  31 H :    0.040210
  32 H :    0.077971
  33 H :    0.005921
Sum of atomic charges:    0.0000000

LOEWDIN ATOMIC CHARGES
----------------------
   0 S :    0.417103
   1 C :   -0.209109
   2 C :   -0.076183
   3 C :   -0.055096
   4 C :   -0.201647
   5 H :    0.029159
   6 C :   -0.028924
   7 H :    0.038215
   8 H :    0.023389
   9 C :   -0.040018
  10 H :    0.015722
  11 H :    0.024265
  12 C :   -0.069697
  13 H :    0.025680
  14 H :    0.029221
  15 H :    0.031461
  16 S :    0.395700
  17 C :   -0.161815
  18 C :   -0.070258
  19 C :   -0.050023
  20 C :   -0.196476
  21 H :    0.031284
  22 C :   -0.029611
  23 H :    0.014169
  24 H :    0.038093
  25 C :   -0.040647
  26 H :    0.019164
  27 H :    0.018448
  28 C :   -0.058693
  29 H :    0.022630
  30 H :    0.032790
  31 H :    0.033667
  32 H :    0.043173
  33 H :    0.004863

  Mayer bond orders larger than 0.100000
B(  0-S ,  1-C ) :   1.1576 B(  0-S ,  4-C ) :   1.1608 B(  1-C ,  2-C ) :   1.5877
B(  1-C , 32-H ) :   0.9524 B(  2-C ,  3-C ) :   1.2583 B(  2-C ,  6-C ) :   1.0272
B(  3-C ,  4-C ) :   1.5635 B(  3-C ,  5-H ) :   1.0040 B(  4-C , 20-C ) :   1.0193
B(  6-C ,  7-H ) :   0.9326 B(  6-C ,  8-H ) :   0.9437 B(  6-C ,  9-C ) :   1.0649
B(  9-C , 10-H ) :   0.9588 B(  9-C , 11-H ) :   0.9572 B(  9-C , 12-C ) :   1.0610
B( 12-C , 13-H ) :   0.9747 B( 12-C , 14-H ) :   0.9736 B( 12-C , 15-H ) :   0.9778
B( 16-S , 17-C ) :   1.1362 B( 16-S , 20-C ) :   1.1430 B( 17-C , 18-C ) :   1.6447
B( 17-C , 33-H ) :   0.9768 B( 18-C , 19-C ) :   1.2134 B( 18-C , 21-H ) :   0.9815
B( 19-C , 20-C ) :   1.6203 B( 19-C , 22-C ) :   1.0341 B( 22-C , 23-H ) :   0.9317
B( 22-C , 24-H ) :   0.9162 B( 22-C , 25-C ) :   1.0692 B( 25-C , 26-H ) :   0.9498
B( 25-C , 27-H ) :   0.9566 B( 25-C , 28-C ) :   1.0854 B( 28-C , 29-H ) :   0.9707
B( 28-C , 30-H ) :   0.9720 B( 28-C , 31-H ) :   0.9741

Dispersion correction           -0.014292423
FINAL SINGLE POINT ENERGY     -1339.871503226076

DIPOLE MOMENT
-------------
                                X             Y             Z
Electronic contribution:      1.62928     -13.75600     -17.62123
Nuclear contribution   :     -1.73727      13.95310      17.99955
                        -----------------------------------------
Total Dipole Moment    :     -0.10799       0.19710       0.37833
                        -----------------------------------------
Magnitude (a.u.)       :      0.44005
Magnitude (Debye)      :      1.11851

Rotational constants in cm-1:     0.018512     0.008482     0.006865
Rotational constants in MHz :   554.979805   254.293248   205.818613

                             ****ORCA TERMINATED NORMALLY****
TOTAL RUN TIME: 0 days 0 hours 0 minutes 21 seconds 684 msec
