                         Program Version 4.2.1 -  RELEASE  -
|  1> ! wB97X-D3 SP def2-SVP
|  2> %pal
|  3> nprocs 24
|  4> end
|  5>
|  6> * xyz 0 1
|  7> S 	 -121.427 	 60.7274 	 -39.4066
|  8> C 	 -122.942 	 59.9216 	 -39.8907
|  9> C 	 -123.494 	 59.1634 	 -38.9148
| 10> C 	 -122.722 	 59.3267 	 -37.6808
| 11> C 	 -121.593 	 60.0585 	 -37.7986
| 12> H 	 -123.019 	 58.8005 	 -36.8063
| 13> C 	 -124.777 	 58.3965 	 -38.9646
| 14> H 	 -125.224 	 58.8431 	 -38.0815
| 15> H 	 -124.58 	 57.3713 	 -38.6296
| 16> C 	 -125.788 	 58.512 	 -40.1836
| 17> H 	 -126.714 	 58.5383 	 -39.6883
| 18> H 	 -125.6 	 59.4919 	 -40.6036
| 19> C 	 -125.59 	 57.4448 	 -41.3192
| 20> H 	 -125.884 	 56.4522 	 -40.9117
| 21> H 	 -126.167 	 57.6774 	 -42.2163
| 22> H 	 -124.588 	 57.5145 	 -41.5998
| 23> S 	 -118.849 	 60.0328 	 -37.2702
| 24> C 	 -118.277 	 60.3191 	 -35.6467
| 25> C 	 -119.332 	 60.5999 	 -34.801
| 26> C 	 -120.607 	 60.405 	 -35.4039
| 27> C 	 -120.545 	 60.2655 	 -36.798
| 28> H 	 -119.163 	 60.7965 	 -33.7279
| 29> C 	 -121.781 	 60.7477 	 -34.5839
| 30> H 	 -122.689 	 60.5423 	 -35.0447
| 31> H 	 -121.639 	 61.7627 	 -34.4002
| 32> C 	 -121.963 	 60.0725 	 -33.1989
| 33> H 	 -122.699 	 60.5758 	 -32.5782
| 34> H 	 -121.137 	 59.9574 	 -32.5084
| 35> C 	 -122.547 	 58.6201 	 -33.4015
| 36> H 	 -123.611 	 58.6713 	 -33.8301
| 37> H 	 -122.575 	 58.0671 	 -32.4083
| 38> H 	 -121.887 	 58.2307 	 -34.1965
| 39> H 	 -123.481 	 60.0676 	 -40.8288
| 40> H 	 -117.238 	 60.2793 	 -35.3257
| 41> *
| 42>
| 43>                          ****END OF INPUT****

CARTESIAN COORDINATES (ANGSTROEM)
---------------------------------
  S    -121.427000   60.727400  -39.406600
  C    -122.942000   59.921600  -39.890700
  C    -123.494000   59.163400  -38.914800
  C    -122.722000   59.326700  -37.680800
  C    -121.593000   60.058500  -37.798600
  H    -123.019000   58.800500  -36.806300
  C    -124.777000   58.396500  -38.964600
  H    -125.224000   58.843100  -38.081500
  H    -124.580000   57.371300  -38.629600
  C    -125.788000   58.512000  -40.183600
  H    -126.714000   58.538300  -39.688300
  H    -125.600000   59.491900  -40.603600
  C    -125.590000   57.444800  -41.319200
  H    -125.884000   56.452200  -40.911700
  H    -126.167000   57.677400  -42.216300
  H    -124.588000   57.514500  -41.599800
  S    -118.849000   60.032800  -37.270200
  C    -118.277000   60.319100  -35.646700
  C    -119.332000   60.599900  -34.801000
  C    -120.607000   60.405000  -35.403900
  C    -120.545000   60.265500  -36.798000
  H    -119.163000   60.796500  -33.727900
  C    -121.781000   60.747700  -34.583900
  H    -122.689000   60.542300  -35.044700
  H    -121.639000   61.762700  -34.400200
  C    -121.963000   60.072500  -33.198900
  H    -122.699000   60.575800  -32.578200
  H    -121.137000   59.957400  -32.508400
  C    -122.547000   58.620100  -33.401500
  H    -123.611000   58.671300  -33.830100
  H    -122.575000   58.067100  -32.408300
  H    -121.887000   58.230700  -34.196500
  H    -123.481000   60.067600  -40.828800
  H    -117.238000   60.279300  -35.325700

 Total Charge           Charge          ....    0
 Multiplicity           Mult            ....    1
 Number of Electrons    NEL             ....  134
 Basis Dimension        Dim             ....  322

ORBITAL ENERGIES
----------------

  NO   OCC          E(Eh)            E(eV)
   0   2.0000     -88.965965     -2420.8870
   1   2.0000     -88.963465     -2420.8190
   2   2.0000     -10.331149      -281.1249
   3   2.0000     -10.330017      -281.0941
   4   2.0000     -10.319473      -280.8071
   5   2.0000     -10.309313      -280.5307
   6   2.0000     -10.303372      -280.3690
   7   2.0000     -10.299781      -280.2713
   8   2.0000     -10.296048      -280.1697
   9   2.0000     -10.294008      -280.1142
  10   2.0000     -10.293482      -280.0999
  11   2.0000     -10.290472      -280.0180
  12   2.0000     -10.290059      -280.0067
  13   2.0000     -10.288479      -279.9637
  14   2.0000     -10.283090      -279.8171
  15   2.0000     -10.281862      -279.7837
  16   2.0000      -8.080342      -219.8773
  17   2.0000      -8.077904      -219.8109
  18   2.0000      -6.038973      -164.3288
  19   2.0000      -6.036670      -164.2661
  20   2.0000      -6.034828      -164.2160
  21   2.0000      -6.032648      -164.1567
  22   2.0000      -6.031062      -164.1135
  23   2.0000      -6.028223      -164.0363
  24   2.0000      -1.005894       -27.3718
  25   2.0000      -0.983896       -26.7732
  26   2.0000      -0.914344       -24.8806
  27   2.0000      -0.910163       -24.7668
  28   2.0000      -0.867360       -23.6021
  29   2.0000      -0.850762       -23.1504
  30   2.0000      -0.845102       -22.9964
  31   2.0000      -0.814268       -22.1574
  32   2.0000      -0.785592       -21.3770
  33   2.0000      -0.773067       -21.0362
  34   2.0000      -0.717687       -19.5293
  35   2.0000      -0.705354       -19.1936
  36   2.0000      -0.694932       -18.9101
  37   2.0000      -0.658190       -17.9103
  38   2.0000      -0.631601       -17.1867
  39   2.0000      -0.617516       -16.8035
  40   2.0000      -0.601431       -16.3658
  41   2.0000      -0.578062       -15.7299
  42   2.0000      -0.565879       -15.3983
  43   2.0000      -0.550366       -14.9762
  44   2.0000      -0.542491       -14.7619
  45   2.0000      -0.530507       -14.4358
  46   2.0000      -0.519935       -14.1482
  47   2.0000      -0.511313       -13.9135
  48   2.0000      -0.500404       -13.6167
  49   2.0000      -0.498990       -13.5782
  50   2.0000      -0.494878       -13.4663
  51   2.0000      -0.482678       -13.1343
  52   2.0000      -0.468449       -12.7471
  53   2.0000      -0.465057       -12.6548
  54   2.0000      -0.459547       -12.5049
  55   2.0000      -0.449560       -12.2332
  56   2.0000      -0.446673       -12.1546
  57   2.0000      -0.436514       -11.8781
  58   2.0000      -0.430946       -11.7266
  59   2.0000      -0.426946       -11.6178
  60   2.0000      -0.424356       -11.5473
  61   2.0000      -0.421338       -11.4652
  62   2.0000      -0.413100       -11.2410
  63   2.0000      -0.354543        -9.6476
  64   2.0000      -0.328629        -8.9424
  65   2.0000      -0.325490        -8.8570
  66   2.0000      -0.289645        -7.8817
  67   0.0000       0.030950         0.8422
  68   0.0000       0.075121         2.0441
  69   0.0000       0.110586         3.0092
  70   0.0000       0.115700         3.1484
  71   0.0000       0.127258         3.4629

MULLIKEN ATOMIC CHARGES
-----------------------
   0 S :    0.097504
   1 C :   -0.140546
   2 C :   -0.084127
   3 C :    0.009270
   4 C :   -0.111495
   5 H :   -0.012081
   6 C :    0.021369
   7 H :    0.029125
   8 H :    0.035443
   9 C :   -0.038608
  10 H :    0.025914
  11 H :    0.018631
  12 C :   -0.028829
  13 H :    0.044000
  14 H :    0.039921
  15 H :    0.027451
  16 S :    0.101179
  17 C :   -0.089284
  18 C :   -0.045385
  19 C :   -0.049712
  20 C :   -0.115928
  21 H :    0.032816
  22 C :    0.112585
  23 H :   -0.002621
  24 H :    0.034325
  25 C :   -0.089236
  26 H :    0.024016
  27 H :    0.026259
  28 C :   -0.126747
  29 H :    0.041302
  30 H :    0.055684
  31 H :    0.052901
  32 H :    0.042109
  33 H :    0.062795
Sum of atomic charges:   -0.0000000

LOEWDIN ATOMIC CHARGES
----------------------
   0 S :    0.378826
   1 C :   -0.198512
   2 C :   -0.058291
   3 C :   -0.062623
   4 C :   -0.183141
   5 H :    0.022002
   6 C :   -0.038595
   7 H :    0.038323
   8 H :    0.034627
   9 C :   -0.029037
  10 H :    0.020659
  11 H :    0.021666
  12 C :   -0.056387
  13 H :    0.030939
  14 H :    0.028782
  15 H :    0.019507
  16 S :    0.398926
  17 C :   -0.183240
  18 C :   -0.074140
  19 C :   -0.057880
  20 C :   -0.191757
  21 H :    0.036493
  22 C :   -0.021587
  23 H :    0.021258
  24 H :    0.035177
  25 C :   -0.040159
  26 H :    0.022144
  27 H :    0.018174
  28 C :   -0.079300
  29 H :    0.026186
  30 H :    0.033408
  31 H :    0.027146
  32 H :    0.026658
  33 H :    0.033747

  Mayer bond orders larger than 0.100000
B(  0-S ,  1-C ) :   1.0933 B(  0-S ,  4-C ) :   1.1275 B(  1-C ,  2-C ) :   1.6931
B(  1-C , 32-H ) :   0.9533 B(  2-C ,  3-C ) :   1.2013 B(  2-C ,  6-C ) :   0.9981
B(  3-C ,  4-C ) :   1.6212 B(  3-C ,  5-H ) :   0.9966 B(  4-C , 20-C ) :   1.0334
B(  6-C ,  7-H ) :   0.9390 B(  6-C ,  8-H ) :   0.9326 B(  6-C ,  9-C ) :   1.0571
B(  9-C , 10-H ) :   0.9590 B(  9-C , 11-H ) :   0.9572 B(  9-C , 12-C ) :   1.0652
B( 12-C , 13-H ) :   0.9782 B( 12-C , 14-H ) :   0.9770 B( 12-C , 15-H ) :   0.9783
B( 16-S , 17-C ) :   1.1569 B( 16-S , 20-C ) :   1.1320 B( 17-C , 18-C ) :   1.6039
B( 17-C , 20-C ) :   0.1008 B( 17-C , 33-H ) :   0.9676 B( 18-C , 19-C ) :   1.2375
B( 18-C , 21-H ) :   0.9846 B( 19-C , 20-C ) :   1.5749 B( 19-C , 22-C ) :   1.0619
B( 22-C , 23-H ) :   0.9327 B( 22-C , 24-H ) :   0.9330 B( 22-C , 25-C ) :   1.0562
B( 25-C , 26-H ) :   0.9571 B( 25-C , 27-H ) :   0.9617 B( 25-C , 28-C ) :   1.0595
B( 28-C , 29-H ) :   0.9734 B( 28-C , 30-H ) :   0.9735 B( 28-C , 31-H ) :   0.9795

Dispersion correction           -0.014074964
FINAL SINGLE POINT ENERGY     -1339.862758926668

DIPOLE MOMENT
-------------
                                X             Y             Z
Electronic contribution:     23.41548      10.77726      -8.08781
Nuclear contribution   :    -23.99475     -10.93872       8.59346
                        -----------------------------------------
Total Dipole Moment    :     -0.57927      -0.16146       0.50565
                        -----------------------------------------
Magnitude (a.u.)       :      0.78569
Magnitude (Debye)      :      1.99706

Rotational constants in cm-1:     0.021098     0.007739     0.006057
Rotational constants in MHz :   632.497956   232.020169   181.577254

                             ****ORCA TERMINATED NORMALLY****
TOTAL RUN TIME: 0 days 0 hours 0 minutes 21 seconds 520 msec
