                         Program Version 4.2.1 -  RELEASE  -
|  1> ! wB97X-D3 SP def2-SVP
|  2> %pal
|  3> nprocs 24
|  4> end
|  5>
|  6> * xyz 0 1
|  7> S 	 -100.305 	 38.9138 	 -88.3755
|  8> C 	 -100.983 	 37.7284 	 -87.2572
|  9> C 	 -101.876 	 38.4111 	 -86.4529
| 10> C 	 -102.182 	 39.761 	 -86.8616
| 11> C 	 -101.392 	 40.2451 	 -87.904
| 12> H 	 -102.748 	 40.5361 	 -86.348
| 13> C 	 -102.514 	 37.7626 	 -85.2465
| 14> H 	 -102.374 	 38.4381 	 -84.3702
| 15> H 	 -101.862 	 36.8901 	 -85.0181
| 16> C 	 -103.927 	 37.2327 	 -85.3532
| 17> H 	 -104.32 	 37.7297 	 -86.1923
| 18> H 	 -103.874 	 36.2058 	 -85.629
| 19> C 	 -104.701 	 37.6753 	 -83.9856
| 20> H 	 -104.966 	 38.7061 	 -83.9703
| 21> H 	 -105.642 	 37.1924 	 -83.9974
| 22> H 	 -104.184 	 37.2987 	 -83.0556
| 23> S 	 -99.4702 	 42.1314 	 -88.3009
| 24> C 	 -99.9012 	 43.8533 	 -88.5317
| 25> C 	 -101.274 	 44.0392 	 -88.4802
| 26> C 	 -102.003 	 42.7843 	 -88.3445
| 27> C 	 -101.138 	 41.6608 	 -88.2335
| 28> H 	 -101.711 	 44.9982 	 -88.5999
| 29> C 	 -103.535 	 42.7171 	 -88.3463
| 30> H 	 -103.851 	 42.7494 	 -87.3431
| 31> H 	 -103.686 	 41.6848 	 -88.704
| 32> C 	 -104.247 	 43.7427 	 -89.2691
| 33> H 	 -103.819 	 43.8958 	 -90.2464
| 34> H 	 -104.201 	 44.6774 	 -88.7382
| 35> C 	 -105.727 	 43.2863 	 -89.3957
| 36> H 	 -105.702 	 42.3803 	 -90.0422
| 37> H 	 -106.439 	 44.0123 	 -89.741
| 38> H 	 -106.008 	 42.8948 	 -88.4304
| 39> H 	 -100.816 	 36.6641 	 -87.2112
| 40> H 	 -99.2344 	 44.7285 	 -88.4013
| 41> *
| 42>
| 43>                          ****END OF INPUT****

CARTESIAN COORDINATES (ANGSTROEM)
---------------------------------
  S    -100.305000   38.913800  -88.375500
  C    -100.983000   37.728400  -87.257200
  C    -101.876000   38.411100  -86.452900
  C    -102.182000   39.761000  -86.861600
  C    -101.392000   40.245100  -87.904000
  H    -102.748000   40.536100  -86.348000
  C    -102.514000   37.762600  -85.246500
  H    -102.374000   38.438100  -84.370200
  H    -101.862000   36.890100  -85.018100
  C    -103.927000   37.232700  -85.353200
  H    -104.320000   37.729700  -86.192300
  H    -103.874000   36.205800  -85.629000
  C    -104.701000   37.675300  -83.985600
  H    -104.966000   38.706100  -83.970300
  H    -105.642000   37.192400  -83.997400
  H    -104.184000   37.298700  -83.055600
  S    -99.470200   42.131400  -88.300900
  C    -99.901200   43.853300  -88.531700
  C    -101.274000   44.039200  -88.480200
  C    -102.003000   42.784300  -88.344500
  C    -101.138000   41.660800  -88.233500
  H    -101.711000   44.998200  -88.599900
  C    -103.535000   42.717100  -88.346300
  H    -103.851000   42.749400  -87.343100
  H    -103.686000   41.684800  -88.704000
  C    -104.247000   43.742700  -89.269100
  H    -103.819000   43.895800  -90.246400
  H    -104.201000   44.677400  -88.738200
  C    -105.727000   43.286300  -89.395700
  H    -105.702000   42.380300  -90.042200
  H    -106.439000   44.012300  -89.741000
  H    -106.008000   42.894800  -88.430400
  H    -100.816000   36.664100  -87.211200
  H    -99.234400   44.728500  -88.401300

 Total Charge           Charge          ....    0
 Multiplicity           Mult            ....    1
 Number of Electrons    NEL             ....  134
 Basis Dimension        Dim             ....  322

ORBITAL ENERGIES
----------------

  NO   OCC          E(Eh)            E(eV)
   0   2.0000     -88.968064     -2420.9441
   1   2.0000     -88.964853     -2420.8567
   2   2.0000     -10.338540      -281.3260
   3   2.0000     -10.334013      -281.2028
   4   2.0000     -10.321812      -280.8708
   5   2.0000     -10.318981      -280.7937
   6   2.0000     -10.309603      -280.5385
   7   2.0000     -10.303851      -280.3820
   8   2.0000     -10.298932      -280.2482
   9   2.0000     -10.296652      -280.1861
  10   2.0000     -10.293117      -280.0899
  11   2.0000     -10.289060      -279.9795
  12   2.0000     -10.287835      -279.9462
  13   2.0000     -10.285148      -279.8731
  14   2.0000     -10.284398      -279.8527
  15   2.0000     -10.279229      -279.7120
  16   2.0000      -8.082174      -219.9271
  17   2.0000      -8.078767      -219.8344
  18   2.0000      -6.040843      -164.3797
  19   2.0000      -6.037513      -164.2891
  20   2.0000      -6.036736      -164.2679
  21   2.0000      -6.033223      -164.1723
  22   2.0000      -6.032804      -164.1609
  23   2.0000      -6.029447      -164.0696
  24   2.0000      -1.001833       -27.2613
  25   2.0000      -0.978375       -26.6229
  26   2.0000      -0.910253       -24.7692
  27   2.0000      -0.907375       -24.6909
  28   2.0000      -0.869428       -23.6583
  29   2.0000      -0.848362       -23.0851
  30   2.0000      -0.836792       -22.7703
  31   2.0000      -0.818335       -22.2680
  32   2.0000      -0.777619       -21.1601
  33   2.0000      -0.767088       -20.8735
  34   2.0000      -0.713060       -19.4034
  35   2.0000      -0.706323       -19.2200
  36   2.0000      -0.699912       -19.0456
  37   2.0000      -0.656349       -17.8602
  38   2.0000      -0.642493       -17.4831
  39   2.0000      -0.615234       -16.7414
  40   2.0000      -0.590575       -16.0704
  41   2.0000      -0.572245       -15.5716
  42   2.0000      -0.569330       -15.4923
  43   2.0000      -0.556945       -15.1552
  44   2.0000      -0.529982       -14.4215
  45   2.0000      -0.527183       -14.3454
  46   2.0000      -0.520724       -14.1696
  47   2.0000      -0.509879       -13.8745
  48   2.0000      -0.504217       -13.7204
  49   2.0000      -0.498553       -13.5663
  50   2.0000      -0.488264       -13.2863
  51   2.0000      -0.479211       -13.0400
  52   2.0000      -0.472692       -12.8626
  53   2.0000      -0.463536       -12.6135
  54   2.0000      -0.458995       -12.4899
  55   2.0000      -0.450007       -12.2453
  56   2.0000      -0.445468       -12.1218
  57   2.0000      -0.442942       -12.0531
  58   2.0000      -0.433347       -11.7920
  59   2.0000      -0.422247       -11.4899
  60   2.0000      -0.418572       -11.3899
  61   2.0000      -0.417716       -11.3666
  62   2.0000      -0.402931       -10.9643
  63   2.0000      -0.358094        -9.7442
  64   2.0000      -0.330414        -8.9910
  65   2.0000      -0.325491        -8.8571
  66   2.0000      -0.287494        -7.8231
  67   0.0000       0.021972         0.5979
  68   0.0000       0.069453         1.8899
  69   0.0000       0.104615         2.8467
  70   0.0000       0.125880         3.4254
  71   0.0000       0.128770         3.5040

MULLIKEN ATOMIC CHARGES
-----------------------
   0 S :    0.084611
   1 C :   -0.096914
   2 C :   -0.122505
   3 C :    0.034636
   4 C :   -0.137980
   5 H :    0.017423
   6 C :    0.016698
   7 H :    0.041144
   8 H :    0.015729
   9 C :   -0.011205
  10 H :    0.017815
  11 H :    0.024362
  12 C :   -0.070207
  13 H :    0.039360
  14 H :    0.019700
  15 H :    0.052990
  16 S :    0.104160
  17 C :   -0.096935
  18 C :   -0.029529
  19 C :   -0.079315
  20 C :   -0.136708
  21 H :    0.013829
  22 C :    0.040972
  23 H :    0.038134
  24 H :    0.033823
  25 C :   -0.069333
  26 H :    0.041084
  27 H :    0.027884
  28 C :   -0.036243
  29 H :    0.036483
  30 H :    0.040334
  31 H :    0.018235
  32 H :    0.055019
  33 H :    0.072449
Sum of atomic charges:   -0.0000000

LOEWDIN ATOMIC CHARGES
----------------------
   0 S :    0.381944
   1 C :   -0.190698
   2 C :   -0.066764
   3 C :   -0.068811
   4 C :   -0.182747
   5 H :    0.032434
   6 C :   -0.041986
   7 H :    0.034657
   8 H :    0.029904
   9 C :   -0.030924
  10 H :    0.018172
  11 H :    0.022219
  12 C :   -0.060997
  13 H :    0.024581
  14 H :    0.018433
  15 H :    0.034431
  16 S :    0.403882
  17 C :   -0.187117
  18 C :   -0.064910
  19 C :   -0.056811
  20 C :   -0.204148
  21 H :    0.026930
  22 C :   -0.031423
  23 H :    0.025652
  24 H :    0.034447
  25 C :   -0.034106
  26 H :    0.025113
  27 H :    0.019476
  28 C :   -0.060552
  29 H :    0.031265
  30 H :    0.022450
  31 H :    0.021488
  32 H :    0.035064
  33 H :    0.039454

  Mayer bond orders larger than 0.100000
B(  0-S ,  1-C ) :   1.1222 B(  0-S ,  4-C ) :   1.1474 B(  1-C ,  2-C ) :   1.6042
B(  1-C , 32-H ) :   0.9716 B(  2-C ,  3-C ) :   1.2378 B(  2-C ,  6-C ) :   1.0419
B(  3-C ,  4-C ) :   1.5541 B(  3-C ,  5-H ) :   0.9875 B(  4-C , 20-C ) :   1.0482
B(  6-C ,  7-H ) :   0.9473 B(  6-C ,  8-H ) :   0.9404 B(  6-C ,  9-C ) :   1.0352
B(  9-C , 10-H ) :   0.9646 B(  9-C , 11-H ) :   0.9596 B(  9-C , 12-C ) :   1.0637
B( 12-C , 13-H ) :   0.9778 B( 12-C , 14-H ) :   0.9755 B( 12-C , 15-H ) :   0.9786
B( 16-S , 17-C ) :   1.1396 B( 16-S , 20-C ) :   1.1464 B( 17-C , 18-C ) :   1.6222
B( 17-C , 33-H ) :   0.9580 B( 18-C , 19-C ) :   1.2453 B( 18-C , 21-H ) :   0.9908
B( 19-C , 20-C ) :   1.5852 B( 19-C , 22-C ) :   1.0224 B( 22-C , 23-H ) :   0.9250
B( 22-C , 24-H ) :   0.9440 B( 22-C , 25-C ) :   1.0640 B( 25-C , 26-H ) :   0.9666
B( 25-C , 27-H ) :   0.9460 B( 25-C , 28-C ) :   1.0785 B( 28-C , 29-H ) :   0.9775
B( 28-C , 30-H ) :   0.9749 B( 28-C , 31-H ) :   0.9716

Dispersion correction           -0.013380687
FINAL SINGLE POINT ENERGY     -1339.853944728266

DIPOLE MOMENT
-------------
                                X             Y             Z
Electronic contribution:     28.22469       1.07524      -9.90179
Nuclear contribution   :    -28.87489      -0.91165      10.38075
                        -----------------------------------------
Total Dipole Moment    :     -0.65020       0.16358       0.47897
                        -----------------------------------------
Magnitude (a.u.)       :      0.82397
Magnitude (Debye)      :      2.09437

Rotational constants in cm-1:     0.016146     0.008489     0.006194
Rotational constants in MHz :   484.035371   254.507078   185.686543

                             ****ORCA TERMINATED NORMALLY****
TOTAL RUN TIME: 0 days 0 hours 0 minutes 20 seconds 861 msec
