                         Program Version 4.2.1 -  RELEASE  -
|  1> ! wB97X-D3 SP def2-SVP
|  2> %pal
|  3> nprocs 24
|  4> end
|  5>
|  6> * xyz 0 1
|  7> S 	 -91.1725 	 -39.2544 	 -61.4868
|  8> C 	 -91.0904 	 -40.8805 	 -61.9865
|  9> C 	 -91.134 	 -41.71 	 -60.8432
| 10> C 	 -91.576 	 -41.0076 	 -59.6865
| 11> C 	 -91.6584 	 -39.6637 	 -59.8453
| 12> H 	 -91.6583 	 -41.4565 	 -58.6517
| 13> C 	 -90.9322 	 -43.1614 	 -60.7965
| 14> H 	 -90.3916 	 -43.382 	 -59.8427
| 15> H 	 -90.3281 	 -43.4316 	 -61.6141
| 16> C 	 -92.2686 	 -43.8614 	 -60.9283
| 17> H 	 -93.1363 	 -43.2653 	 -60.649
| 18> H 	 -92.4069 	 -43.9675 	 -61.9938
| 19> C 	 -92.4655 	 -45.219 	 -60.2037
| 20> H 	 -92.6267 	 -45.1234 	 -59.1645
| 21> H 	 -93.2974 	 -45.7671 	 -60.5281
| 22> H 	 -91.6116 	 -45.8505 	 -60.4909
| 23> S 	 -90.8713 	 -37.6637 	 -58.0629
| 24> C 	 -92.0593 	 -36.9596 	 -57.0657
| 25> C 	 -93.2587 	 -37.581 	 -57.2183
| 26> C 	 -93.2507 	 -38.7033 	 -58.1
| 27> C 	 -92.0756 	 -38.6791 	 -58.8354
| 28> H 	 -94.1088 	 -37.1887 	 -56.6246
| 29> C 	 -94.4444 	 -39.6334 	 -58.3379
| 30> H 	 -94.1175 	 -40.5176 	 -58.9208
| 31> H 	 -95.2279 	 -39.0837 	 -58.8661
| 32> C 	 -94.8805 	 -40.2936 	 -56.9931
| 33> H 	 -95.7276 	 -40.9163 	 -57.2556
| 34> H 	 -95.3448 	 -39.4786 	 -56.5145
| 35> C 	 -93.9039 	 -41.0362 	 -56.1422
| 36> H 	 -93.5131 	 -41.9369 	 -56.5906
| 37> H 	 -94.1275 	 -41.1769 	 -55.0586
| 38> H 	 -93.0389 	 -40.4414 	 -56.1034
| 39> H 	 -90.6237 	 -41.33 	 -62.9035
| 40> H 	 -92.0257 	 -36.1495 	 -56.4429
| 41> *
| 42>
| 43>                          ****END OF INPUT****

CARTESIAN COORDINATES (ANGSTROEM)
---------------------------------
  S    -91.172500  -39.254400  -61.486800
  C    -91.090400  -40.880500  -61.986500
  C    -91.134000  -41.710000  -60.843200
  C    -91.576000  -41.007600  -59.686500
  C    -91.658400  -39.663700  -59.845300
  H    -91.658300  -41.456500  -58.651700
  C    -90.932200  -43.161400  -60.796500
  H    -90.391600  -43.382000  -59.842700
  H    -90.328100  -43.431600  -61.614100
  C    -92.268600  -43.861400  -60.928300
  H    -93.136300  -43.265300  -60.649000
  H    -92.406900  -43.967500  -61.993800
  C    -92.465500  -45.219000  -60.203700
  H    -92.626700  -45.123400  -59.164500
  H    -93.297400  -45.767100  -60.528100
  H    -91.611600  -45.850500  -60.490900
  S    -90.871300  -37.663700  -58.062900
  C    -92.059300  -36.959600  -57.065700
  C    -93.258700  -37.581000  -57.218300
  C    -93.250700  -38.703300  -58.100000
  C    -92.075600  -38.679100  -58.835400
  H    -94.108800  -37.188700  -56.624600
  C    -94.444400  -39.633400  -58.337900
  H    -94.117500  -40.517600  -58.920800
  H    -95.227900  -39.083700  -58.866100
  C    -94.880500  -40.293600  -56.993100
  H    -95.727600  -40.916300  -57.255600
  H    -95.344800  -39.478600  -56.514500
  C    -93.903900  -41.036200  -56.142200
  H    -93.513100  -41.936900  -56.590600
  H    -94.127500  -41.176900  -55.058600
  H    -93.038900  -40.441400  -56.103400
  H    -90.623700  -41.330000  -62.903500
  H    -92.025700  -36.149500  -56.442900

 Total Charge           Charge          ....    0
 Multiplicity           Mult            ....    1
 Number of Electrons    NEL             ....  134
 Basis Dimension        Dim             ....  322

ORBITAL ENERGIES
----------------

  NO   OCC          E(Eh)            E(eV)
   0   2.0000     -88.965469     -2420.8735
   1   2.0000     -88.964179     -2420.8384
   2   2.0000     -10.325268      -280.9648
   3   2.0000     -10.324840      -280.9532
   4   2.0000     -10.314137      -280.6619
   5   2.0000     -10.304940      -280.4117
   6   2.0000     -10.303904      -280.3835
   7   2.0000     -10.296934      -280.1938
   8   2.0000     -10.295586      -280.1571
   9   2.0000     -10.292278      -280.0671
  10   2.0000     -10.290914      -280.0300
  11   2.0000     -10.286444      -279.9084
  12   2.0000     -10.282747      -279.8078
  13   2.0000     -10.280496      -279.7465
  14   2.0000     -10.274195      -279.5751
  15   2.0000     -10.272325      -279.5242
  16   2.0000      -8.080906      -219.8926
  17   2.0000      -8.079315      -219.8493
  18   2.0000      -6.039326      -164.3384
  19   2.0000      -6.037856      -164.2984
  20   2.0000      -6.035427      -164.2323
  21   2.0000      -6.033722      -164.1859
  22   2.0000      -6.031599      -164.1281
  23   2.0000      -6.030047      -164.0859
  24   2.0000      -1.011484       -27.5239
  25   2.0000      -0.992066       -26.9955
  26   2.0000      -0.918242       -24.9866
  27   2.0000      -0.912466       -24.8295
  28   2.0000      -0.871209       -23.7068
  29   2.0000      -0.850789       -23.1512
  30   2.0000      -0.847786       -23.0694
  31   2.0000      -0.818744       -22.2792
  32   2.0000      -0.789283       -21.4775
  33   2.0000      -0.774829       -21.0842
  34   2.0000      -0.708578       -19.2814
  35   2.0000      -0.702235       -19.1088
  36   2.0000      -0.699788       -19.0422
  37   2.0000      -0.650583       -17.7033
  38   2.0000      -0.639278       -17.3956
  39   2.0000      -0.622071       -16.9274
  40   2.0000      -0.597977       -16.2718
  41   2.0000      -0.569783       -15.5046
  42   2.0000      -0.559928       -15.2364
  43   2.0000      -0.557230       -15.1630
  44   2.0000      -0.543572       -14.7913
  45   2.0000      -0.529433       -14.4066
  46   2.0000      -0.524003       -14.2589
  47   2.0000      -0.512736       -13.9523
  48   2.0000      -0.502043       -13.6613
  49   2.0000      -0.495345       -13.4790
  50   2.0000      -0.492700       -13.4071
  51   2.0000      -0.485499       -13.2111
  52   2.0000      -0.473156       -12.8752
  53   2.0000      -0.469703       -12.7813
  54   2.0000      -0.462018       -12.5721
  55   2.0000      -0.459404       -12.5010
  56   2.0000      -0.448764       -12.2115
  57   2.0000      -0.438297       -11.9267
  58   2.0000      -0.432772       -11.7763
  59   2.0000      -0.419983       -11.4283
  60   2.0000      -0.416161       -11.3243
  61   2.0000      -0.412899       -11.2356
  62   2.0000      -0.405066       -11.0224
  63   2.0000      -0.342469        -9.3191
  64   2.0000      -0.330438        -8.9917
  65   2.0000      -0.323594        -8.8055
  66   2.0000      -0.299365        -8.1461
  67   0.0000       0.037141         1.0107
  68   0.0000       0.066096         1.7986
  69   0.0000       0.110010         2.9935
  70   0.0000       0.119674         3.2565
  71   0.0000       0.124562         3.3895

MULLIKEN ATOMIC CHARGES
-----------------------
   0 S :    0.121105
   1 C :   -0.111703
   2 C :   -0.173030
   3 C :    0.015224
   4 C :   -0.167127
   5 H :    0.034378
   6 C :    0.112418
   7 H :    0.037770
   8 H :    0.006614
   9 C :   -0.084991
  10 H :    0.033618
  11 H :    0.015793
  12 C :   -0.017891
  13 H :    0.029009
  14 H :    0.015265
  15 H :    0.028745
  16 S :    0.120180
  17 C :   -0.033208
  18 C :   -0.065068
  19 C :   -0.058763
  20 C :   -0.146769
  21 H :    0.026892
  22 C :    0.060025
  23 H :    0.031237
  24 H :    0.053345
  25 C :   -0.068490
  26 H :    0.022273
  27 H :    0.008185
  28 C :   -0.012331
  29 H :    0.023496
  30 H :    0.046142
  31 H :    0.016654
  32 H :    0.067441
  33 H :    0.013563
Sum of atomic charges:    0.0000000

LOEWDIN ATOMIC CHARGES
----------------------
   0 S :    0.423142
   1 C :   -0.234915
   2 C :   -0.061930
   3 C :   -0.071079
   4 C :   -0.195610
   5 H :    0.041546
   6 C :   -0.033206
   7 H :    0.037538
   8 H :    0.023746
   9 C :   -0.038819
  10 H :    0.023677
  11 H :    0.024388
  12 C :   -0.061086
  13 H :    0.020041
  14 H :    0.020631
  15 H :    0.027616
  16 S :    0.421742
  17 C :   -0.188134
  18 C :   -0.076625
  19 C :   -0.053712
  20 C :   -0.201106
  21 H :    0.034846
  22 C :   -0.024451
  23 H :    0.031776
  24 H :    0.038858
  25 C :   -0.041190
  26 H :    0.022645
  27 H :    0.014716
  28 C :   -0.067969
  29 H :    0.023547
  30 H :    0.039667
  31 H :    0.022331
  32 H :    0.042359
  33 H :    0.015020

  Mayer bond orders larger than 0.100000
B(  0-S ,  1-C ) :   1.1538 B(  0-S ,  4-C ) :   1.1542 B(  1-C ,  2-C ) :   1.5830
B(  1-C , 32-H ) :   0.9547 B(  2-C ,  3-C ) :   1.2548 B(  2-C ,  6-C ) :   1.0534
B(  3-C ,  4-C ) :   1.5872 B(  3-C ,  5-H ) :   0.9802 B(  4-C , 20-C ) :   1.0090
B(  6-C ,  7-H ) :   0.9434 B(  6-C ,  8-H ) :   0.9271 B(  6-C ,  9-C ) :   1.0351
B(  9-C , 10-H ) :   0.9676 B(  9-C , 11-H ) :   0.9518 B(  9-C , 12-C ) :   1.0807
B( 12-C , 13-H ) :   0.9776 B( 12-C , 14-H ) :   0.9704 B( 12-C , 15-H ) :   0.9742
B( 16-S , 17-C ) :   1.1492 B( 16-S , 20-C ) :   1.1541 B( 17-C , 18-C ) :   1.6409
B( 17-C , 33-H ) :   0.9720 B( 18-C , 19-C ) :   1.2126 B( 18-C , 21-H ) :   0.9839
B( 19-C , 20-C ) :   1.5948 B( 19-C , 22-C ) :   1.0412 B( 22-C , 23-H ) :   0.9347
B( 22-C , 24-H ) :   0.9431 B( 22-C , 25-C ) :   1.0607 B( 25-C , 26-H ) :   0.9562
B( 25-C , 27-H ) :   0.9548 B( 25-C , 28-C ) :   1.0761 B( 28-C , 29-H ) :   0.9685
B( 28-C , 30-H ) :   0.9688 B( 28-C , 31-H ) :   0.9659

Dispersion correction           -0.015300606
FINAL SINGLE POINT ENERGY     -1339.855664788051

DIPOLE MOMENT
-------------
                                X             Y             Z
Electronic contribution:     13.38478      25.97071      -7.15752
Nuclear contribution   :    -13.69181     -26.47368       7.47122
                        -----------------------------------------
Total Dipole Moment    :     -0.30703      -0.50298       0.31370
                        -----------------------------------------
Magnitude (a.u.)       :      0.66758
Magnitude (Debye)      :      1.69686

Rotational constants in cm-1:     0.018388     0.009696     0.007099
Rotational constants in MHz :   551.245156   290.674818   212.813976

                             ****ORCA TERMINATED NORMALLY****
TOTAL RUN TIME: 0 days 0 hours 0 minutes 22 seconds 556 msec
