                         Program Version 4.2.1 -  RELEASE  -
|  1> ! wB97X-D3 SP def2-SVP
|  2> %pal
|  3> nprocs 24
|  4> end
|  5>
|  6> * xyz 0 1
|  7> S 	 -21.9655 	 -36.0907 	 -92.2937
|  8> C 	 -20.6003 	 -37.1609 	 -92.8529
|  9> C 	 -20.7326 	 -37.5997 	 -94.134
| 10> C 	 -21.9533 	 -37.0389 	 -94.7301
| 11> C 	 -22.7361 	 -36.297 	 -93.8745
| 12> H 	 -22.3306 	 -37.2092 	 -95.77
| 13> C 	 -19.7728 	 -38.5012 	 -94.796
| 14> H 	 -18.7889 	 -38.0493 	 -94.7153
| 15> H 	 -20.0147 	 -38.3892 	 -95.8634
| 16> C 	 -19.7831 	 -39.933 	 -94.3201
| 17> H 	 -19.4681 	 -39.9446 	 -93.2136
| 18> H 	 -20.8397 	 -40.2995 	 -94.416
| 19> C 	 -18.8751 	 -40.9028 	 -95.0296
| 20> H 	 -19.1336 	 -41.0751 	 -96.0601
| 21> H 	 -17.8788 	 -40.6966 	 -94.9554
| 22> H 	 -18.9268 	 -41.7903 	 -94.4204
| 23> S 	 -25.3433 	 -36.9538 	 -93.5304
| 24> C 	 -26.669 	 -35.8242 	 -93.8802
| 25> C 	 -26.144 	 -34.7275 	 -94.5508
| 26> C 	 -24.7291 	 -34.7413 	 -94.6764
| 27> C 	 -24.1212 	 -35.8202 	 -94.0859
| 28> H 	 -26.8295 	 -34.0138 	 -94.92
| 29> C 	 -24.0058 	 -33.4694 	 -95.1464
| 30> H 	 -24.1519 	 -33.2415 	 -96.2397
| 31> H 	 -22.9341 	 -33.6602 	 -95.1146
| 32> C 	 -24.4357 	 -32.1993 	 -94.3363
| 33> H 	 -24.2916 	 -32.309 	 -93.2509
| 34> H 	 -25.547 	 -32.0092 	 -94.6034
| 35> C 	 -23.6035 	 -30.9875 	 -94.7227
| 36> H 	 -23.7451 	 -30.5325 	 -95.6999
| 37> H 	 -22.5274 	 -31.099 	 -94.7724
| 38> H 	 -23.7848 	 -30.1927 	 -93.9987
| 39> H 	 -19.8898 	 -37.5431 	 -92.1666
| 40> H 	 -27.7001 	 -35.9177 	 -93.5574
| 41> *
| 42>
| 43>                          ****END OF INPUT****

CARTESIAN COORDINATES (ANGSTROEM)
---------------------------------
  S    -21.965500  -36.090700  -92.293700
  C    -20.600300  -37.160900  -92.852900
  C    -20.732600  -37.599700  -94.134000
  C    -21.953300  -37.038900  -94.730100
  C    -22.736100  -36.297000  -93.874500
  H    -22.330600  -37.209200  -95.770000
  C    -19.772800  -38.501200  -94.796000
  H    -18.788900  -38.049300  -94.715300
  H    -20.014700  -38.389200  -95.863400
  C    -19.783100  -39.933000  -94.320100
  H    -19.468100  -39.944600  -93.213600
  H    -20.839700  -40.299500  -94.416000
  C    -18.875100  -40.902800  -95.029600
  H    -19.133600  -41.075100  -96.060100
  H    -17.878800  -40.696600  -94.955400
  H    -18.926800  -41.790300  -94.420400
  S    -25.343300  -36.953800  -93.530400
  C    -26.669000  -35.824200  -93.880200
  C    -26.144000  -34.727500  -94.550800
  C    -24.729100  -34.741300  -94.676400
  C    -24.121200  -35.820200  -94.085900
  H    -26.829500  -34.013800  -94.920000
  C    -24.005800  -33.469400  -95.146400
  H    -24.151900  -33.241500  -96.239700
  H    -22.934100  -33.660200  -95.114600
  C    -24.435700  -32.199300  -94.336300
  H    -24.291600  -32.309000  -93.250900
  H    -25.547000  -32.009200  -94.603400
  C    -23.603500  -30.987500  -94.722700
  H    -23.745100  -30.532500  -95.699900
  H    -22.527400  -31.099000  -94.772400
  H    -23.784800  -30.192700  -93.998700
  H    -19.889800  -37.543100  -92.166600
  H    -27.700100  -35.917700  -93.557400

 Total Charge           Charge          ....    0
 Multiplicity           Mult            ....    1
 Number of Electrons    NEL             ....  134
 Basis Dimension        Dim             ....  322

ORBITAL ENERGIES
----------------

  NO   OCC          E(Eh)            E(eV)
   0   2.0000     -88.963404     -2420.8173
   1   2.0000     -88.959910     -2420.7222
   2   2.0000     -10.332349      -281.1575
   3   2.0000     -10.326374      -280.9949
   4   2.0000     -10.319380      -280.8046
   5   2.0000     -10.313164      -280.6355
   6   2.0000     -10.302669      -280.3499
   7   2.0000     -10.302373      -280.3418
   8   2.0000     -10.301519      -280.3186
   9   2.0000     -10.296504      -280.1821
  10   2.0000     -10.295218      -280.1471
  11   2.0000     -10.294394      -280.1247
  12   2.0000     -10.290095      -280.0077
  13   2.0000     -10.288847      -279.9738
  14   2.0000     -10.272881      -279.5393
  15   2.0000     -10.268438      -279.4184
  16   2.0000      -8.076987      -219.7860
  17   2.0000      -8.074426      -219.7163
  18   2.0000      -6.035628      -164.2378
  19   2.0000      -6.033096      -164.1689
  20   2.0000      -6.031828      -164.1344
  21   2.0000      -6.028841      -164.0531
  22   2.0000      -6.027508      -164.0168
  23   2.0000      -6.025121      -163.9519
  24   2.0000      -1.000145       -27.2153
  25   2.0000      -0.977653       -26.6033
  26   2.0000      -0.918351       -24.9896
  27   2.0000      -0.900321       -24.4990
  28   2.0000      -0.870564       -23.6893
  29   2.0000      -0.845753       -23.0141
  30   2.0000      -0.845306       -23.0019
  31   2.0000      -0.815397       -22.1881
  32   2.0000      -0.785059       -21.3625
  33   2.0000      -0.769843       -20.9485
  34   2.0000      -0.703373       -19.1397
  35   2.0000      -0.700412       -19.0592
  36   2.0000      -0.695169       -18.9165
  37   2.0000      -0.660073       -17.9615
  38   2.0000      -0.640593       -17.4314
  39   2.0000      -0.612735       -16.6734
  40   2.0000      -0.592312       -16.1176
  41   2.0000      -0.573346       -15.6015
  42   2.0000      -0.565040       -15.3755
  43   2.0000      -0.556536       -15.1441
  44   2.0000      -0.531709       -14.4685
  45   2.0000      -0.527314       -14.3489
  46   2.0000      -0.516691       -14.0599
  47   2.0000      -0.515639       -14.0313
  48   2.0000      -0.510549       -13.8927
  49   2.0000      -0.495932       -13.4950
  50   2.0000      -0.494481       -13.4555
  51   2.0000      -0.470449       -12.8016
  52   2.0000      -0.464521       -12.6403
  53   2.0000      -0.461517       -12.5585
  54   2.0000      -0.455566       -12.3966
  55   2.0000      -0.446545       -12.1511
  56   2.0000      -0.441616       -12.0170
  57   2.0000      -0.430591       -11.7170
  58   2.0000      -0.430356       -11.7106
  59   2.0000      -0.426885       -11.6161
  60   2.0000      -0.417834       -11.3698
  61   2.0000      -0.416015       -11.3204
  62   2.0000      -0.412313       -11.2196
  63   2.0000      -0.334825        -9.1111
  64   2.0000      -0.323851        -8.8124
  65   2.0000      -0.319629        -8.6976
  66   2.0000      -0.315458        -8.5840
  67   0.0000       0.040513         1.1024
  68   0.0000       0.055767         1.5175
  69   0.0000       0.107164         2.9161
  70   0.0000       0.118886         3.2351
  71   0.0000       0.130902         3.5620

MULLIKEN ATOMIC CHARGES
-----------------------
   0 S :    0.094455
   1 C :   -0.118293
   2 C :   -0.086384
   3 C :    0.040023
   4 C :   -0.171713
   5 H :    0.030615
   6 C :    0.087262
   7 H :    0.029303
   8 H :    0.014715
   9 C :   -0.125768
  10 H :    0.035135
  11 H :    0.042211
  12 C :    0.029416
  13 H :    0.033597
  14 H :    0.001224
  15 H :    0.023060
  16 S :    0.099526
  17 C :   -0.099567
  18 C :   -0.036868
  19 C :    0.028288
  20 C :   -0.185196
  21 H :    0.009557
  22 C :    0.035916
  23 H :    0.034357
  24 H :    0.024568
  25 C :   -0.092096
  26 H :    0.048529
  27 H :    0.047907
  28 C :   -0.049211
  29 H :    0.019999
  30 H :    0.023455
  31 H :    0.031010
  32 H :    0.037690
  33 H :    0.063278
Sum of atomic charges:   -0.0000000

LOEWDIN ATOMIC CHARGES
----------------------
   0 S :    0.362581
   1 C :   -0.161377
   2 C :   -0.061249
   3 C :   -0.060899
   4 C :   -0.194234
   5 H :    0.040161
   6 C :   -0.042790
   7 H :    0.033395
   8 H :    0.032116
   9 C :   -0.041963
  10 H :    0.031604
  11 H :    0.032765
  12 C :   -0.058015
  13 H :    0.025159
  14 H :    0.012314
  15 H :    0.032651
  16 S :    0.394012
  17 C :   -0.173720
  18 C :   -0.068286
  19 C :   -0.059429
  20 C :   -0.199840
  21 H :    0.024992
  22 C :   -0.036085
  23 H :    0.035332
  24 H :    0.026632
  25 C :   -0.040661
  26 H :    0.031211
  27 H :    0.034691
  28 C :   -0.077137
  29 H :    0.022661
  30 H :    0.024797
  31 H :    0.027703
  32 H :    0.018277
  33 H :    0.032630

  Mayer bond orders larger than 0.100000
B(  0-S ,  1-C ) :   1.1138 B(  0-S ,  4-C ) :   1.1309 B(  1-C ,  2-C ) :   1.6644
B(  1-C , 32-H ) :   0.9709 B(  2-C ,  3-C ) :   1.1875 B(  2-C ,  6-C ) :   1.0212
B(  3-C ,  4-C ) :   1.6473 B(  3-C ,  5-H ) :   0.9827 B(  4-C , 20-C ) :   0.9844
B(  6-C ,  7-H ) :   0.9313 B(  6-C ,  8-H ) :   0.9319 B(  6-C ,  9-C ) :   1.0679
B(  9-C , 10-H ) :   0.9520 B(  9-C , 11-H ) :   0.9546 B(  9-C , 12-C ) :   1.0950
B( 12-C , 13-H ) :   0.9725 B( 12-C , 14-H ) :   0.9669 B( 12-C , 15-H ) :   0.9675
B( 16-S , 17-C ) :   1.1493 B( 16-S , 20-C ) :   1.1456 B( 17-C , 18-C ) :   1.6169
B( 17-C , 20-C ) :   0.1017 B( 17-C , 33-H ) :   0.9688 B( 18-C , 19-C ) :   1.2144
B( 18-C , 21-H ) :   0.9971 B( 19-C , 20-C ) :   1.6246 B( 19-C , 22-C ) :   1.0469
B( 22-C , 23-H ) :   0.9356 B( 22-C , 24-H ) :   0.9426 B( 22-C , 25-C ) :   1.0559
B( 25-C , 26-H ) :   0.9593 B( 25-C , 27-H ) :   0.9483 B( 25-C , 28-C ) :   1.0814
B( 28-C , 29-H ) :   0.9720 B( 28-C , 30-H ) :   0.9730 B( 28-C , 31-H ) :   0.9751

Dispersion correction           -0.013459527
FINAL SINGLE POINT ENERGY     -1339.872301903731

DIPOLE MOMENT
-------------
                                X             Y             Z
Electronic contribution:    -12.76206      -3.27024      10.46314
Nuclear contribution   :     13.00530       3.27561     -10.82245
                        -----------------------------------------
Total Dipole Moment    :      0.24324       0.00537      -0.35931
                        -----------------------------------------
Magnitude (a.u.)       :      0.43394
Magnitude (Debye)      :      1.10298

Rotational constants in cm-1:     0.022650     0.006763     0.005953
Rotational constants in MHz :   679.028034   202.744838   178.455954

                             ****ORCA TERMINATED NORMALLY****
TOTAL RUN TIME: 0 days 0 hours 0 minutes 20 seconds 584 msec
