                         Program Version 4.2.1 -  RELEASE  -
|  1> ! wB97X-D3 SP def2-SVP
|  2> %pal
|  3> nprocs 24
|  4> end
|  5>
|  6> * xyz 0 1
|  7> S 	 -39.7658 	 -0.606462 	 -4.18198
|  8> C 	 -39.1687 	 0.147066 	 -2.67524
|  9> C 	 -39.362 	 1.55442 	 -2.75321
| 10> C 	 -39.871 	 1.99514 	 -4.0104
| 11> C 	 -40.1091 	 0.957491 	 -4.89715
| 12> H 	 -40.1421 	 3.03269 	 -4.27533
| 13> C 	 -38.9881 	 2.50414 	 -1.66328
| 14> H 	 -38.5689 	 1.99052 	 -0.798292
| 15> H 	 -39.8357 	 2.97341 	 -1.24474
| 16> C 	 -37.9665 	 3.58148 	 -2.05745
| 17> H 	 -37.1668 	 3.27437 	 -2.65457
| 18> H 	 -38.4848 	 4.38181 	 -2.59141
| 19> C 	 -37.1954 	 4.17261 	 -0.862611
| 20> H 	 -37.8742 	 4.68341 	 -0.259523
| 21> H 	 -36.7287 	 3.32701 	 -0.359677
| 22> H 	 -36.3319 	 4.68863 	 -1.21808
| 23> S 	 -39.8833 	 1.61006 	 -7.55226
| 24> C 	 -41.1919 	 1.562 	 -8.67568
| 25> C 	 -42.3653 	 1.25726 	 -7.97019
| 26> C 	 -42.1273 	 1.052 	 -6.53332
| 27> C 	 -40.8081 	 1.12644 	 -6.16721
| 28> H 	 -43.3281 	 1.37966 	 -8.4606
| 29> C 	 -43.2203 	 0.789216 	 -5.54293
| 30> H 	 -42.9936 	 0.171861 	 -4.70515
| 31> H 	 -43.8501 	 0.140145 	 -6.15841
| 32> C 	 -43.9595 	 2.07303 	 -5.14764
| 33> H 	 -44.1378 	 2.72926 	 -6.06169
| 34> H 	 -43.4511 	 2.65118 	 -4.33501
| 35> C 	 -45.3146 	 1.76957 	 -4.57885
| 36> H 	 -45.9295 	 2.76197 	 -4.44022
| 37> H 	 -45.2809 	 1.19727 	 -3.66006
| 38> H 	 -45.9146 	 1.16431 	 -5.28976
| 39> H 	 -38.8364 	 -0.316612 	 -1.7636
| 40> H 	 -41.3056 	 1.86711 	 -9.69865
| 41> *
| 42>
| 43>                          ****END OF INPUT****

CARTESIAN COORDINATES (ANGSTROEM)
---------------------------------
  S    -39.765800   -0.606462   -4.181980
  C    -39.168700    0.147066   -2.675240
  C    -39.362000    1.554420   -2.753210
  C    -39.871000    1.995140   -4.010400
  C    -40.109100    0.957491   -4.897150
  H    -40.142100    3.032690   -4.275330
  C    -38.988100    2.504140   -1.663280
  H    -38.568900    1.990520   -0.798292
  H    -39.835700    2.973410   -1.244740
  C    -37.966500    3.581480   -2.057450
  H    -37.166800    3.274370   -2.654570
  H    -38.484800    4.381810   -2.591410
  C    -37.195400    4.172610   -0.862611
  H    -37.874200    4.683410   -0.259523
  H    -36.728700    3.327010   -0.359677
  H    -36.331900    4.688630   -1.218080
  S    -39.883300    1.610060   -7.552260
  C    -41.191900    1.562000   -8.675680
  C    -42.365300    1.257260   -7.970190
  C    -42.127300    1.052000   -6.533320
  C    -40.808100    1.126440   -6.167210
  H    -43.328100    1.379660   -8.460600
  C    -43.220300    0.789216   -5.542930
  H    -42.993600    0.171861   -4.705150
  H    -43.850100    0.140145   -6.158410
  C    -43.959500    2.073030   -5.147640
  H    -44.137800    2.729260   -6.061690
  H    -43.451100    2.651180   -4.335010
  C    -45.314600    1.769570   -4.578850
  H    -45.929500    2.761970   -4.440220
  H    -45.280900    1.197270   -3.660060
  H    -45.914600    1.164310   -5.289760
  H    -38.836400   -0.316612   -1.763600
  H    -41.305600    1.867110   -9.698650

 Total Charge           Charge          ....    0
 Multiplicity           Mult            ....    1
 Number of Electrons    NEL             ....  134
 Basis Dimension        Dim             ....  322

ORBITAL ENERGIES
----------------

  NO   OCC          E(Eh)            E(eV)
   0   2.0000     -88.972336     -2421.0604
   1   2.0000     -88.961483     -2420.7650
   2   2.0000     -10.331849      -281.1439
   3   2.0000     -10.321640      -280.8661
   4   2.0000     -10.320973      -280.8480
   5   2.0000     -10.317608      -280.7564
   6   2.0000     -10.305770      -280.4342
   7   2.0000     -10.302915      -280.3566
   8   2.0000     -10.298658      -280.2407
   9   2.0000     -10.297692      -280.2144
  10   2.0000     -10.290561      -280.0204
  11   2.0000     -10.287408      -279.9346
  12   2.0000     -10.284682      -279.8604
  13   2.0000     -10.281670      -279.7785
  14   2.0000     -10.278669      -279.6968
  15   2.0000     -10.271028      -279.4889
  16   2.0000      -8.085669      -220.0222
  17   2.0000      -8.076735      -219.7791
  18   2.0000      -6.044240      -164.4721
  19   2.0000      -6.040286      -164.3645
  20   2.0000      -6.036520      -164.2621
  21   2.0000      -6.035333      -164.2297
  22   2.0000      -6.030912      -164.1095
  23   2.0000      -6.027603      -164.0194
  24   2.0000      -1.005368       -27.3575
  25   2.0000      -0.981316       -26.7030
  26   2.0000      -0.915400       -24.9093
  27   2.0000      -0.911574       -24.8052
  28   2.0000      -0.870216       -23.6798
  29   2.0000      -0.850814       -23.1518
  30   2.0000      -0.847206       -23.0536
  31   2.0000      -0.816076       -22.2066
  32   2.0000      -0.781643       -21.2696
  33   2.0000      -0.767560       -20.8864
  34   2.0000      -0.708833       -19.2883
  35   2.0000      -0.696216       -18.9450
  36   2.0000      -0.688633       -18.7387
  37   2.0000      -0.661745       -18.0070
  38   2.0000      -0.642231       -17.4760
  39   2.0000      -0.619887       -16.8680
  40   2.0000      -0.595770       -16.2117
  41   2.0000      -0.580934       -15.8080
  42   2.0000      -0.566670       -15.4199
  43   2.0000      -0.559387       -15.2217
  44   2.0000      -0.535875       -14.5819
  45   2.0000      -0.526096       -14.3158
  46   2.0000      -0.518262       -14.1026
  47   2.0000      -0.512054       -13.9337
  48   2.0000      -0.507597       -13.8124
  49   2.0000      -0.505300       -13.7499
  50   2.0000      -0.493711       -13.4346
  51   2.0000      -0.476546       -12.9675
  52   2.0000      -0.470600       -12.8057
  53   2.0000      -0.459509       -12.5039
  54   2.0000      -0.457936       -12.4611
  55   2.0000      -0.445265       -12.1163
  56   2.0000      -0.442111       -12.0305
  57   2.0000      -0.440330       -11.9820
  58   2.0000      -0.429939       -11.6992
  59   2.0000      -0.425033       -11.5657
  60   2.0000      -0.421153       -11.4602
  61   2.0000      -0.414841       -11.2884
  62   2.0000      -0.402664       -10.9570
  63   2.0000      -0.336471        -9.1558
  64   2.0000      -0.326694        -8.8898
  65   2.0000      -0.320431        -8.7194
  66   2.0000      -0.311204        -8.4683
  67   0.0000       0.040820         1.1108
  68   0.0000       0.056745         1.5441
  69   0.0000       0.112027         3.0484
  70   0.0000       0.122434         3.3316
  71   0.0000       0.128835         3.5058

MULLIKEN ATOMIC CHARGES
-----------------------
   0 S :    0.123159
   1 C :   -0.110860
   2 C :   -0.094515
   3 C :    0.043165
   4 C :   -0.151386
   5 H :    0.031937
   6 C :    0.102556
   7 H :   -0.002234
   8 H :    0.021485
   9 C :   -0.088878
  10 H :    0.019652
  11 H :    0.028501
  12 C :   -0.023847
  13 H :    0.027619
  14 H :    0.019909
  15 H :    0.028936
  16 S :    0.110236
  17 C :   -0.078696
  18 C :   -0.058053
  19 C :   -0.038703
  20 C :   -0.183756
  21 H :    0.025014
  22 C :    0.087032
  23 H :    0.019805
  24 H :    0.015801
  25 C :   -0.081051
  26 H :    0.039725
  27 H :    0.042111
  28 C :   -0.080537
  29 H :    0.045977
  30 H :    0.033584
  31 H :    0.024134
  32 H :    0.045983
  33 H :    0.056197
Sum of atomic charges:   -0.0000000

LOEWDIN ATOMIC CHARGES
----------------------
   0 S :    0.403887
   1 C :   -0.192502
   2 C :   -0.055951
   3 C :   -0.055968
   4 C :   -0.198157
   5 H :    0.039772
   6 C :   -0.032537
   7 H :    0.026465
   8 H :    0.028423
   9 C :   -0.034939
  10 H :    0.018291
  11 H :    0.020894
  12 C :   -0.052029
  13 H :    0.014718
  14 H :    0.025126
  15 H :    0.026153
  16 S :    0.425018
  17 C :   -0.196871
  18 C :   -0.078736
  19 C :   -0.053687
  20 C :   -0.214202
  21 H :    0.030127
  22 C :   -0.033633
  23 H :    0.026088
  24 H :    0.032683
  25 C :   -0.046263
  26 H :    0.032279
  27 H :    0.030806
  28 C :   -0.076253
  29 H :    0.036154
  30 H :    0.020888
  31 H :    0.020585
  32 H :    0.028446
  33 H :    0.034926

  Mayer bond orders larger than 0.100000
B(  0-S ,  1-C ) :   1.1316 B(  0-S ,  4-C ) :   1.1518 B(  1-C ,  2-C ) :   1.5978
B(  1-C ,  4-C ) :   0.1019 B(  1-C , 32-H ) :   0.9682 B(  2-C ,  3-C ) :   1.2419
B(  2-C ,  6-C ) :   1.0477 B(  3-C ,  4-C ) :   1.5784 B(  3-C ,  5-H ) :   0.9868
B(  4-C , 20-C ) :   1.0049 B(  6-C ,  7-H ) :   0.9410 B(  6-C ,  8-H ) :   0.9248
B(  6-C ,  9-C ) :   1.0537 B(  9-C , 10-H ) :   0.9645 B(  9-C , 11-H ) :   0.9519
B(  9-C , 12-C ) :   1.0933 B( 12-C , 13-H ) :   0.9789 B( 12-C , 14-H ) :   0.9722
B( 12-C , 15-H ) :   0.9755 B( 16-S , 17-C ) :   1.1688 B( 16-S , 20-C ) :   1.1365
B( 17-C , 18-C ) :   1.6048 B( 17-C , 33-H ) :   0.9669 B( 18-C , 19-C ) :   1.2406
B( 18-C , 21-H ) :   0.9834 B( 19-C , 20-C ) :   1.6174 B( 19-C , 22-C ) :   1.0408
B( 22-C , 23-H ) :   0.9327 B( 22-C , 24-H ) :   0.9365 B( 22-C , 25-C ) :   1.0578
B( 25-C , 26-H ) :   0.9579 B( 25-C , 27-H ) :   0.9498 B( 25-C , 28-C ) :   1.0834
B( 28-C , 29-H ) :   0.9726 B( 28-C , 30-H ) :   0.9717 B( 28-C , 31-H ) :   0.9748

Dispersion correction           -0.014082021
FINAL SINGLE POINT ENERGY     -1339.868436276818

DIPOLE MOMENT
-------------
                                X             Y             Z
Electronic contribution:      8.57997     -14.21435     -17.34431
Nuclear contribution   :     -8.91279      14.64205      17.73989
                        -----------------------------------------
Total Dipole Moment    :     -0.33282       0.42770       0.39557
                        -----------------------------------------
Magnitude (a.u.)       :      0.67095
Magnitude (Debye)      :      1.70542

Rotational constants in cm-1:     0.018099     0.007821     0.006967
Rotational constants in MHz :   542.587990   234.473361   208.854095

                             ****ORCA TERMINATED NORMALLY****
TOTAL RUN TIME: 0 days 0 hours 0 minutes 20 seconds 276 msec
