                         Program Version 4.2.1 -  RELEASE  -
|  1> ! wB97X-D3 SP def2-SVP
|  2> %pal
|  3> nprocs 24
|  4> end
|  5>
|  6> * xyz 0 1
|  7> S 	 -48.968 	 5.80989 	 -17.5406
|  8> C 	 -49.2538 	 4.4073 	 -18.5687
|  9> C 	 -49.5867 	 3.39078 	 -17.7169
| 10> C 	 -50.0111 	 3.78897 	 -16.4492
| 11> C 	 -49.7205 	 5.09124 	 -16.1178
| 12> H 	 -50.4697 	 3.09728 	 -15.739
| 13> C 	 -49.7511 	 1.96729 	 -18.2033
| 14> H 	 -49.3156 	 1.82399 	 -19.2792
| 15> H 	 -50.8411 	 1.90931 	 -18.2628
| 16> C 	 -49.0875 	 0.916572 	 -17.284
| 17> H 	 -49.5394 	 1.00378 	 -16.3126
| 18> H 	 -49.2507 	 -0.0130226 	 -17.6718
| 19> C 	 -47.5484 	 1.06889 	 -17.2343
| 20> H 	 -47.0975 	 0.102255 	 -16.9151
| 21> H 	 -47.2239 	 1.20642 	 -18.234
| 22> H 	 -47.2652 	 2.0048 	 -16.7478
| 23> S 	 -50.5769 	 7.32984 	 -14.6202
| 24> C 	 -50.5355 	 7.13028 	 -12.8806
| 25> C 	 -49.9846 	 5.94525 	 -12.5174
| 26> C 	 -49.5622 	 5.12055 	 -13.5598
| 27> C 	 -49.8138 	 5.74812 	 -14.805
| 28> H 	 -50.0757 	 5.54463 	 -11.5009
| 29> C 	 -48.8892 	 3.79491 	 -13.2464
| 30> H 	 -49.0782 	 3.04155 	 -14.0302
| 31> H 	 -49.3702 	 3.40861 	 -12.329
| 32> C 	 -47.3421 	 3.81389 	 -13.2628
| 33> H 	 -46.9165 	 4.04939 	 -14.2256
| 34> H 	 -46.9577 	 2.78584 	 -13.0772
| 35> C 	 -46.7412 	 4.59298 	 -12.0776
| 36> H 	 -45.6993 	 4.30539 	 -11.9711
| 37> H 	 -47.1922 	 4.38508 	 -11.1379
| 38> H 	 -46.6826 	 5.65445 	 -12.237
| 39> H 	 -48.9214 	 4.26004 	 -19.5979
| 40> H 	 -51.0533 	 7.76769 	 -12.1956
| 41> *
| 42>
| 43>                          ****END OF INPUT****

CARTESIAN COORDINATES (ANGSTROEM)
---------------------------------
  S    -48.968000    5.809890  -17.540600
  C    -49.253800    4.407300  -18.568700
  C    -49.586700    3.390780  -17.716900
  C    -50.011100    3.788970  -16.449200
  C    -49.720500    5.091240  -16.117800
  H    -50.469700    3.097280  -15.739000
  C    -49.751100    1.967290  -18.203300
  H    -49.315600    1.823990  -19.279200
  H    -50.841100    1.909310  -18.262800
  C    -49.087500    0.916572  -17.284000
  H    -49.539400    1.003780  -16.312600
  H    -49.250700   -0.013023  -17.671800
  C    -47.548400    1.068890  -17.234300
  H    -47.097500    0.102255  -16.915100
  H    -47.223900    1.206420  -18.234000
  H    -47.265200    2.004800  -16.747800
  S    -50.576900    7.329840  -14.620200
  C    -50.535500    7.130280  -12.880600
  C    -49.984600    5.945250  -12.517400
  C    -49.562200    5.120550  -13.559800
  C    -49.813800    5.748120  -14.805000
  H    -50.075700    5.544630  -11.500900
  C    -48.889200    3.794910  -13.246400
  H    -49.078200    3.041550  -14.030200
  H    -49.370200    3.408610  -12.329000
  C    -47.342100    3.813890  -13.262800
  H    -46.916500    4.049390  -14.225600
  H    -46.957700    2.785840  -13.077200
  C    -46.741200    4.592980  -12.077600
  H    -45.699300    4.305390  -11.971100
  H    -47.192200    4.385080  -11.137900
  H    -46.682600    5.654450  -12.237000
  H    -48.921400    4.260040  -19.597900
  H    -51.053300    7.767690  -12.195600

 Total Charge           Charge          ....    0
 Multiplicity           Mult            ....    1
 Number of Electrons    NEL             ....  134
 Basis Dimension        Dim             ....  322

ORBITAL ENERGIES
----------------

  NO   OCC          E(Eh)            E(eV)
   0   2.0000     -88.972120     -2421.0545
   1   2.0000     -88.959502     -2420.7111
   2   2.0000     -10.333235      -281.1816
   3   2.0000     -10.331561      -281.1361
   4   2.0000     -10.316603      -280.7290
   5   2.0000     -10.310939      -280.5749
   6   2.0000     -10.305021      -280.4139
   7   2.0000     -10.298017      -280.2233
   8   2.0000     -10.297288      -280.2035
   9   2.0000     -10.293336      -280.0959
  10   2.0000     -10.290025      -280.0058
  11   2.0000     -10.289720      -279.9975
  12   2.0000     -10.289074      -279.9799
  13   2.0000     -10.280236      -279.7394
  14   2.0000     -10.277126      -279.6548
  15   2.0000     -10.268370      -279.4165
  16   2.0000      -8.086399      -220.0421
  17   2.0000      -8.074042      -219.7058
  18   2.0000      -6.044818      -164.4879
  19   2.0000      -6.041008      -164.3842
  20   2.0000      -6.037227      -164.2813
  21   2.0000      -6.032578      -164.1548
  22   2.0000      -6.028607      -164.0467
  23   2.0000      -6.024717      -163.9409
  24   2.0000      -1.007800       -27.4236
  25   2.0000      -0.989181       -26.9170
  26   2.0000      -0.911785       -24.8109
  27   2.0000      -0.907826       -24.7032
  28   2.0000      -0.870041       -23.6750
  29   2.0000      -0.853096       -23.2139
  30   2.0000      -0.842531       -22.9264
  31   2.0000      -0.815498       -22.1908
  32   2.0000      -0.785464       -21.3736
  33   2.0000      -0.770895       -20.9771
  34   2.0000      -0.715848       -19.4792
  35   2.0000      -0.700085       -19.0503
  36   2.0000      -0.691883       -18.8271
  37   2.0000      -0.658814       -17.9273
  38   2.0000      -0.634147       -17.2560
  39   2.0000      -0.624614       -16.9966
  40   2.0000      -0.596760       -16.2387
  41   2.0000      -0.568536       -15.4707
  42   2.0000      -0.556523       -15.1437
  43   2.0000      -0.552897       -15.0451
  44   2.0000      -0.544684       -14.8216
  45   2.0000      -0.540392       -14.7048
  46   2.0000      -0.517434       -14.0801
  47   2.0000      -0.509700       -13.8696
  48   2.0000      -0.501172       -13.6376
  49   2.0000      -0.492059       -13.3896
  50   2.0000      -0.488213       -13.2850
  51   2.0000      -0.484059       -13.1719
  52   2.0000      -0.472077       -12.8459
  53   2.0000      -0.466141       -12.6843
  54   2.0000      -0.464821       -12.6484
  55   2.0000      -0.449750       -12.2383
  56   2.0000      -0.448460       -12.2032
  57   2.0000      -0.441159       -12.0045
  58   2.0000      -0.432730       -11.7752
  59   2.0000      -0.424668       -11.5558
  60   2.0000      -0.417839       -11.3700
  61   2.0000      -0.412683       -11.2297
  62   2.0000      -0.405698       -11.0396
  63   2.0000      -0.348379        -9.4799
  64   2.0000      -0.337125        -9.1736
  65   2.0000      -0.324434        -8.8283
  66   2.0000      -0.290710        -7.9106
  67   0.0000       0.022092         0.6011
  68   0.0000       0.071042         1.9331
  69   0.0000       0.110568         3.0087
  70   0.0000       0.115503         3.1430
  71   0.0000       0.128474         3.4960

MULLIKEN ATOMIC CHARGES
-----------------------
   0 S :    0.083465
   1 C :   -0.115575
   2 C :   -0.105127
   3 C :    0.003352
   4 C :   -0.119101
   5 H :    0.021001
   6 C :   -0.008684
   7 H :    0.031320
   8 H :    0.048980
   9 C :   -0.022494
  10 H :    0.021852
  11 H :    0.006740
  12 C :   -0.043912
  13 H :    0.044757
  14 H :    0.006351
  15 H :    0.047144
  16 S :    0.124235
  17 C :   -0.080800
  18 C :   -0.035112
  19 C :   -0.031012
  20 C :   -0.159062
  21 H :    0.022659
  22 C :    0.064149
  23 H :    0.015664
  24 H :    0.029651
  25 C :   -0.068127
  26 H :    0.038933
  27 H :    0.027804
  28 C :   -0.034365
  29 H :    0.020447
  30 H :    0.017912
  31 H :    0.037511
  32 H :    0.058069
  33 H :    0.051375
Sum of atomic charges:   -0.0000000

LOEWDIN ATOMIC CHARGES
----------------------
   0 S :    0.385755
   1 C :   -0.200067
   2 C :   -0.074500
   3 C :   -0.075240
   4 C :   -0.181208
   5 H :    0.031030
   6 C :   -0.034495
   7 H :    0.033954
   8 H :    0.035272
   9 C :   -0.031637
  10 H :    0.017678
  11 H :    0.012395
  12 C :   -0.061517
  13 H :    0.033335
  14 H :    0.018030
  15 H :    0.028898
  16 S :    0.412384
  17 C :   -0.178440
  18 C :   -0.075163
  19 C :   -0.048986
  20 C :   -0.199841
  21 H :    0.034968
  22 C :   -0.033106
  23 H :    0.031318
  24 H :    0.033212
  25 C :   -0.033050
  26 H :    0.027052
  27 H :    0.028591
  28 C :   -0.066874
  29 H :    0.025996
  30 H :    0.018777
  31 H :    0.023738
  32 H :    0.034514
  33 H :    0.027225

  Mayer bond orders larger than 0.100000
B(  0-S ,  1-C ) :   1.1248 B(  0-S ,  4-C ) :   1.1574 B(  1-C ,  2-C ) :   1.5965
B(  1-C ,  4-C ) :   0.1025 B(  1-C , 32-H ) :   0.9686 B(  2-C ,  3-C ) :   1.2507
B(  2-C ,  6-C ) :   1.0113 B(  3-C ,  4-C ) :   1.5672 B(  3-C ,  5-H ) :   0.9873
B(  4-C , 20-C ) :   1.0398 B(  6-C ,  7-H ) :   0.9476 B(  6-C ,  8-H ) :   0.9467
B(  6-C ,  9-C ) :   1.0739 B(  9-C , 10-H ) :   0.9553 B(  9-C , 11-H ) :   0.9533
B(  9-C , 12-C ) :   1.0716 B( 12-C , 13-H ) :   0.9758 B( 12-C , 14-H ) :   0.9716
B( 12-C , 15-H ) :   0.9730 B( 16-S , 17-C ) :   1.1552 B( 16-S , 20-C ) :   1.1538
B( 17-C , 18-C ) :   1.5981 B( 17-C , 20-C ) :   0.1014 B( 17-C , 33-H ) :   0.9674
B( 18-C , 19-C ) :   1.2841 B( 18-C , 21-H ) :   0.9790 B( 19-C , 20-C ) :   1.5552
B( 19-C , 22-C ) :   1.0333 B( 22-C , 23-H ) :   0.9278 B( 22-C , 24-H ) :   0.9389
B( 22-C , 25-C ) :   1.0776 B( 25-C , 26-H ) :   0.9548 B( 25-C , 27-H ) :   0.9574
B( 25-C , 28-C ) :   1.0762 B( 28-C , 29-H ) :   0.9737 B( 28-C , 30-H ) :   0.9744
B( 28-C , 31-H ) :   0.9752

Dispersion correction           -0.015569447
FINAL SINGLE POINT ENERGY     -1339.870425125251

DIPOLE MOMENT
-------------
                                X             Y             Z
Electronic contribution:    -12.69805      24.70530      -6.26524
Nuclear contribution   :     12.72591     -25.48317       6.61053
                        -----------------------------------------
Total Dipole Moment    :      0.02786      -0.77787       0.34529
                        -----------------------------------------
Magnitude (a.u.)       :      0.85152
Magnitude (Debye)      :      2.16439

Rotational constants in cm-1:     0.018703     0.009958     0.007477
Rotational constants in MHz :   560.689748   298.545585   224.140642

                             ****ORCA TERMINATED NORMALLY****
TOTAL RUN TIME: 0 days 0 hours 0 minutes 22 seconds 835 msec
