                         Program Version 4.2.1 -  RELEASE  -
|  1> ! wB97X-D3 SP def2-SVP
|  2> %pal
|  3> nprocs 24
|  4> end
|  5>
|  6> * xyz 0 1
|  7> S 	 16.9188 	 -12.8231 	 -118.427
|  8> C 	 16.1096 	 -11.3908 	 -117.788
|  9> C 	 14.8257 	 -11.7644 	 -117.318
| 10> C 	 14.424 	 -13.1219 	 -117.622
| 11> C 	 15.4466 	 -13.8304 	 -118.202
| 12> H 	 13.4902 	 -13.5626 	 -117.455
| 13> C 	 13.8945 	 -10.7263 	 -116.68
| 14> H 	 14.388 	 -10.1014 	 -115.97
| 15> H 	 13.3479 	 -11.3671 	 -116.048
| 16> C 	 13.0743 	 -9.82014 	 -117.636
| 17> H 	 13.6272 	 -9.13722 	 -118.27
| 18> H 	 12.5852 	 -10.4717 	 -118.334
| 19> C 	 11.9785 	 -9.07298 	 -116.969
| 20> H 	 11.3603 	 -8.58095 	 -117.765
| 21> H 	 11.3423 	 -9.78457 	 -116.397
| 22> H 	 12.2823 	 -8.30338 	 -116.179
| 23> S 	 14.4917 	 -15.3985 	 -120.171
| 24> C 	 14.9841 	 -17.0799 	 -120.215
| 25> C 	 15.6687 	 -17.439 	 -119.13
| 26> C 	 15.8851 	 -16.378 	 -118.186
| 27> C 	 15.3099 	 -15.2465 	 -118.636
| 28> H 	 16.1424 	 -18.3891 	 -119.077
| 29> C 	 16.7045 	 -16.5686 	 -116.903
| 30> H 	 16.9637 	 -15.5715 	 -116.544
| 31> H 	 17.6571 	 -17.0474 	 -117.05
| 32> C 	 15.902 	 -17.2071 	 -115.773
| 33> H 	 15.5613 	 -18.1764 	 -116.268
| 34> H 	 15.0345 	 -16.6414 	 -115.58
| 35> C 	 16.5416 	 -17.4629 	 -114.426
| 36> H 	 15.743 	 -17.8277 	 -113.786
| 37> H 	 16.8825 	 -16.5436 	 -113.965
| 38> H 	 17.4283 	 -18.1345 	 -114.497
| 39> H 	 16.5505 	 -10.4687 	 -117.589
| 40> H 	 14.7675 	 -17.7925 	 -121.025
| 41> *
| 42>
| 43>                          ****END OF INPUT****

CARTESIAN COORDINATES (ANGSTROEM)
---------------------------------
  S     16.918800  -12.823100  -118.427000
  C     16.109600  -11.390800  -117.788000
  C     14.825700  -11.764400  -117.318000
  C     14.424000  -13.121900  -117.622000
  C     15.446600  -13.830400  -118.202000
  H     13.490200  -13.562600  -117.455000
  C     13.894500  -10.726300  -116.680000
  H     14.388000  -10.101400  -115.970000
  H     13.347900  -11.367100  -116.048000
  C     13.074300   -9.820140  -117.636000
  H     13.627200   -9.137220  -118.270000
  H     12.585200  -10.471700  -118.334000
  C     11.978500   -9.072980  -116.969000
  H     11.360300   -8.580950  -117.765000
  H     11.342300   -9.784570  -116.397000
  H     12.282300   -8.303380  -116.179000
  S     14.491700  -15.398500  -120.171000
  C     14.984100  -17.079900  -120.215000
  C     15.668700  -17.439000  -119.130000
  C     15.885100  -16.378000  -118.186000
  C     15.309900  -15.246500  -118.636000
  H     16.142400  -18.389100  -119.077000
  C     16.704500  -16.568600  -116.903000
  H     16.963700  -15.571500  -116.544000
  H     17.657100  -17.047400  -117.050000
  C     15.902000  -17.207100  -115.773000
  H     15.561300  -18.176400  -116.268000
  H     15.034500  -16.641400  -115.580000
  C     16.541600  -17.462900  -114.426000
  H     15.743000  -17.827700  -113.786000
  H     16.882500  -16.543600  -113.965000
  H     17.428300  -18.134500  -114.497000
  H     16.550500  -10.468700  -117.589000
  H     14.767500  -17.792500  -121.025000

 Total Charge           Charge          ....    0
 Multiplicity           Mult            ....    1
 Number of Electrons    NEL             ....  134
 Basis Dimension        Dim             ....  322

ORBITAL ENERGIES
----------------

  NO   OCC          E(Eh)            E(eV)
   0   2.0000     -88.967530     -2420.9296
   1   2.0000     -88.963664     -2420.8244
   2   2.0000     -10.332067      -281.1498
   3   2.0000     -10.322656      -280.8937
   4   2.0000     -10.313709      -280.6503
   5   2.0000     -10.312822      -280.6262
   6   2.0000     -10.305224      -280.4194
   7   2.0000     -10.301571      -280.3200
   8   2.0000     -10.293661      -280.1048
   9   2.0000     -10.289021      -279.9785
  10   2.0000     -10.285624      -279.8861
  11   2.0000     -10.285546      -279.8839
  12   2.0000     -10.284191      -279.8471
  13   2.0000     -10.282253      -279.7943
  14   2.0000     -10.281926      -279.7854
  15   2.0000     -10.278887      -279.7027
  16   2.0000      -8.080750      -219.8884
  17   2.0000      -8.078856      -219.8369
  18   2.0000      -6.039371      -164.3397
  19   2.0000      -6.037424      -164.2867
  20   2.0000      -6.035431      -164.2324
  21   2.0000      -6.033455      -164.1786
  22   2.0000      -6.031515      -164.1259
  23   2.0000      -6.029352      -164.0670
  24   2.0000      -1.007490       -27.4152
  25   2.0000      -0.978952       -26.6386
  26   2.0000      -0.909685       -24.7538
  27   2.0000      -0.909353       -24.7447
  28   2.0000      -0.870269       -23.6812
  29   2.0000      -0.852378       -23.1944
  30   2.0000      -0.848446       -23.0874
  31   2.0000      -0.819530       -22.3005
  32   2.0000      -0.784484       -21.3469
  33   2.0000      -0.766990       -20.8709
  34   2.0000      -0.701358       -19.0849
  35   2.0000      -0.698584       -19.0094
  36   2.0000      -0.690233       -18.7822
  37   2.0000      -0.664403       -18.0793
  38   2.0000      -0.646818       -17.6008
  39   2.0000      -0.617042       -16.7906
  40   2.0000      -0.599048       -16.3009
  41   2.0000      -0.567611       -15.4455
  42   2.0000      -0.561805       -15.2875
  43   2.0000      -0.558384       -15.1944
  44   2.0000      -0.532187       -14.4816
  45   2.0000      -0.527275       -14.3479
  46   2.0000      -0.521139       -14.1809
  47   2.0000      -0.509591       -13.8667
  48   2.0000      -0.508498       -13.8369
  49   2.0000      -0.501976       -13.6595
  50   2.0000      -0.487190       -13.2571
  51   2.0000      -0.482888       -13.1400
  52   2.0000      -0.468217       -12.7408
  53   2.0000      -0.460651       -12.5349
  54   2.0000      -0.455914       -12.4061
  55   2.0000      -0.451325       -12.2812
  56   2.0000      -0.448720       -12.2103
  57   2.0000      -0.437257       -11.8984
  58   2.0000      -0.435662       -11.8550
  59   2.0000      -0.426708       -11.6113
  60   2.0000      -0.417085       -11.3495
  61   2.0000      -0.406333       -11.0569
  62   2.0000      -0.404917       -11.0184
  63   2.0000      -0.337761        -9.1909
  64   2.0000      -0.336566        -9.1584
  65   2.0000      -0.324529        -8.8309
  66   2.0000      -0.306585        -8.3426
  67   0.0000       0.044597         1.2135
  68   0.0000       0.057626         1.5681
  69   0.0000       0.112572         3.0632
  70   0.0000       0.114908         3.1268
  71   0.0000       0.134563         3.6617

MULLIKEN ATOMIC CHARGES
-----------------------
   0 S :    0.113418
   1 C :   -0.089090
   2 C :   -0.113096
   3 C :    0.048992
   4 C :   -0.137306
   5 H :   -0.000435
   6 C :    0.090570
   7 H :    0.010116
   8 H :    0.000628
   9 C :   -0.019289
  10 H :    0.025978
  11 H :    0.015825
  12 C :   -0.089533
  13 H :    0.045458
  14 H :    0.027550
  15 H :    0.038572
  16 S :    0.112875
  17 C :   -0.088289
  18 C :   -0.021245
  19 C :   -0.022404
  20 C :   -0.210198
  21 H :    0.007858
  22 C :    0.109897
  23 H :    0.007021
  24 H :    0.022757
  25 C :   -0.103743
  26 H :    0.023821
  27 H :    0.018060
  28 C :   -0.016631
  29 H :    0.039941
  30 H :    0.024973
  31 H :    0.036136
  32 H :    0.031893
  33 H :    0.058919
Sum of atomic charges:   -0.0000000

LOEWDIN ATOMIC CHARGES
----------------------
   0 S :    0.383494
   1 C :   -0.185196
   2 C :   -0.054280
   3 C :   -0.057533
   4 C :   -0.180548
   5 H :    0.026118
   6 C :   -0.030863
   7 H :    0.024463
   8 H :    0.023875
   9 C :   -0.041358
  10 H :    0.024880
  11 H :    0.024300
  12 C :   -0.074776
  13 H :    0.033110
  14 H :    0.024478
  15 H :    0.027582
  16 S :    0.402826
  17 C :   -0.180880
  18 C :   -0.070361
  19 C :   -0.050196
  20 C :   -0.195347
  21 H :    0.027955
  22 C :   -0.028272
  23 H :    0.025142
  24 H :    0.027352
  25 C :   -0.043857
  26 H :    0.025815
  27 H :    0.019200
  28 C :   -0.063564
  29 H :    0.032177
  30 H :    0.023391
  31 H :    0.027869
  32 H :    0.017719
  33 H :    0.035283

  Mayer bond orders larger than 0.100000
B(  0-S ,  1-C ) :   1.1314 B(  0-S ,  4-C ) :   1.1356 B(  1-C ,  2-C ) :   1.6074
B(  1-C , 32-H ) :   0.9781 B(  2-C ,  3-C ) :   1.2207 B(  2-C ,  6-C ) :   1.0265
B(  3-C ,  4-C ) :   1.5898 B(  3-C ,  5-H ) :   1.0011 B(  4-C , 20-C ) :   0.9967
B(  6-C ,  7-H ) :   0.9393 B(  6-C ,  8-H ) :   0.9377 B(  6-C ,  9-C ) :   1.0556
B(  9-C , 10-H ) :   0.9538 B(  9-C , 11-H ) :   0.9507 B(  9-C , 12-C ) :   1.0891
B( 12-C , 13-H ) :   0.9719 B( 12-C , 14-H ) :   0.9736 B( 12-C , 15-H ) :   0.9732
B( 16-S , 17-C ) :   1.1270 B( 16-S , 20-C ) :   1.1424 B( 17-C , 18-C ) :   1.6717
B( 17-C , 33-H ) :   0.9605 B( 18-C , 19-C ) :   1.1918 B( 18-C , 21-H ) :   0.9900
B( 19-C , 20-C ) :   1.6719 B( 19-C , 22-C ) :   1.0422 B( 22-C , 23-H ) :   0.9194
B( 22-C , 24-H ) :   0.9373 B( 22-C , 25-C ) :   1.0658 B( 25-C , 26-H ) :   0.9569
B( 25-C , 27-H ) :   0.9519 B( 25-C , 28-C ) :   1.0911 B( 28-C , 29-H ) :   0.9713
B( 28-C , 30-H ) :   0.9703 B( 28-C , 31-H ) :   0.9729

Dispersion correction           -0.013707548
FINAL SINGLE POINT ENERGY     -1339.874301177749

DIPOLE MOMENT
-------------
                                X             Y             Z
Electronic contribution:      7.79114      -5.02260     -19.38050
Nuclear contribution   :     -7.90249       4.94627      19.73764
                        -----------------------------------------
Total Dipole Moment    :     -0.11136      -0.07633       0.35713
                        -----------------------------------------
Magnitude (a.u.)       :      0.38180
Magnitude (Debye)      :      0.97045

Rotational constants in cm-1:     0.019026     0.007360     0.006443
Rotational constants in MHz :   570.394813   220.656215   193.149840

                             ****ORCA TERMINATED NORMALLY****
TOTAL RUN TIME: 0 days 0 hours 0 minutes 19 seconds 623 msec
