                         Program Version 4.2.1 -  RELEASE  -
|  1> ! wB97X-D3 SP def2-SVP
|  2> %pal
|  3> nprocs 24
|  4> end
|  5>
|  6> * xyz 0 1
|  7> S 	 -144.772 	 26.5755 	 -19.5706
|  8> C 	 -146.097 	 25.6648 	 -20.2744
|  9> C 	 -145.724 	 24.5041 	 -20.9395
| 10> C 	 -144.351 	 24.2162 	 -20.6898
| 11> C 	 -143.704 	 25.2407 	 -19.9382
| 12> H 	 -143.823 	 23.3566 	 -21.0533
| 13> C 	 -146.688 	 23.5951 	 -21.6201
| 14> H 	 -147.252 	 24.243 	 -22.3002
| 15> H 	 -147.266 	 23.3881 	 -20.7503
| 16> C 	 -146.19 	 22.3711 	 -22.284
| 17> H 	 -145.632 	 22.6947 	 -23.2153
| 18> H 	 -145.49 	 21.8179 	 -21.6344
| 19> C 	 -147.335 	 21.364 	 -22.5792
| 20> H 	 -148.119 	 21.7572 	 -23.286
| 21> H 	 -147.074 	 20.4317 	 -22.9855
| 22> H 	 -147.899 	 21.1433 	 -21.6906
| 23> S 	 -141.08 	 25.8798 	 -20.6228
| 24> C 	 -139.782 	 24.9222 	 -19.8099
| 25> C 	 -140.224 	 24.3491 	 -18.625
| 26> C 	 -141.656 	 24.369 	 -18.5644
| 27> C 	 -142.307 	 25.1978 	 -19.5436
| 28> H 	 -139.53 	 23.9252 	 -17.9496
| 29> C 	 -142.421 	 23.8158 	 -17.4048
| 30> H 	 -142.757 	 22.7723 	 -17.7491
| 31> H 	 -143.377 	 24.3335 	 -17.3354
| 32> C 	 -141.868 	 23.6795 	 -15.9855
| 33> H 	 -142.106 	 24.7186 	 -15.4987
| 34> H 	 -140.78 	 23.4895 	 -16.0575
| 35> C 	 -142.597 	 22.5615 	 -15.2536
| 36> H 	 -142.491 	 21.6441 	 -15.9123
| 37> H 	 -143.704 	 22.7124 	 -14.9923
| 38> H 	 -142.12 	 22.3469 	 -14.3371
| 39> H 	 -147.051 	 26.1222 	 -20.3735
| 40> H 	 -138.708 	 24.9893 	 -20.1266
| 41> *
| 42>
| 43>                          ****END OF INPUT****

CARTESIAN COORDINATES (ANGSTROEM)
---------------------------------
  S    -144.772000   26.575500  -19.570600
  C    -146.097000   25.664800  -20.274400
  C    -145.724000   24.504100  -20.939500
  C    -144.351000   24.216200  -20.689800
  C    -143.704000   25.240700  -19.938200
  H    -143.823000   23.356600  -21.053300
  C    -146.688000   23.595100  -21.620100
  H    -147.252000   24.243000  -22.300200
  H    -147.266000   23.388100  -20.750300
  C    -146.190000   22.371100  -22.284000
  H    -145.632000   22.694700  -23.215300
  H    -145.490000   21.817900  -21.634400
  C    -147.335000   21.364000  -22.579200
  H    -148.119000   21.757200  -23.286000
  H    -147.074000   20.431700  -22.985500
  H    -147.899000   21.143300  -21.690600
  S    -141.080000   25.879800  -20.622800
  C    -139.782000   24.922200  -19.809900
  C    -140.224000   24.349100  -18.625000
  C    -141.656000   24.369000  -18.564400
  C    -142.307000   25.197800  -19.543600
  H    -139.530000   23.925200  -17.949600
  C    -142.421000   23.815800  -17.404800
  H    -142.757000   22.772300  -17.749100
  H    -143.377000   24.333500  -17.335400
  C    -141.868000   23.679500  -15.985500
  H    -142.106000   24.718600  -15.498700
  H    -140.780000   23.489500  -16.057500
  C    -142.597000   22.561500  -15.253600
  H    -142.491000   21.644100  -15.912300
  H    -143.704000   22.712400  -14.992300
  H    -142.120000   22.346900  -14.337100
  H    -147.051000   26.122200  -20.373500
  H    -138.708000   24.989300  -20.126600

 Total Charge           Charge          ....    0
 Multiplicity           Mult            ....    1
 Number of Electrons    NEL             ....  134
 Basis Dimension        Dim             ....  322

ORBITAL ENERGIES
----------------

  NO   OCC          E(Eh)            E(eV)
   0   2.0000     -88.969425     -2420.9811
   1   2.0000     -88.962559     -2420.7943
   2   2.0000     -10.329244      -281.0730
   3   2.0000     -10.325846      -280.9806
   4   2.0000     -10.324735      -280.9503
   5   2.0000     -10.307490      -280.4811
   6   2.0000     -10.307383      -280.4782
   7   2.0000     -10.300309      -280.2857
   8   2.0000     -10.297205      -280.2012
   9   2.0000     -10.296101      -280.1712
  10   2.0000     -10.295454      -280.1536
  11   2.0000     -10.295208      -280.1469
  12   2.0000     -10.287242      -279.9301
  13   2.0000     -10.285560      -279.8843
  14   2.0000     -10.284775      -279.8630
  15   2.0000     -10.279889      -279.7300
  16   2.0000      -8.083700      -219.9687
  17   2.0000      -8.076162      -219.7635
  18   2.0000      -6.041981      -164.4107
  19   2.0000      -6.038352      -164.3119
  20   2.0000      -6.034777      -164.2146
  21   2.0000      -6.034678      -164.2119
  22   2.0000      -6.030794      -164.1062
  23   2.0000      -6.026928      -164.0011
  24   2.0000      -0.997461       -27.1423
  25   2.0000      -0.974838       -26.5267
  26   2.0000      -0.921423       -25.0732
  27   2.0000      -0.905616       -24.6431
  28   2.0000      -0.867201       -23.5977
  29   2.0000      -0.849336       -23.1116
  30   2.0000      -0.844381       -22.9768
  31   2.0000      -0.812515       -22.1097
  32   2.0000      -0.783805       -21.3284
  33   2.0000      -0.761661       -20.7258
  34   2.0000      -0.715601       -19.4725
  35   2.0000      -0.693614       -18.8742
  36   2.0000      -0.687753       -18.7147
  37   2.0000      -0.648261       -17.6401
  38   2.0000      -0.638532       -17.3753
  39   2.0000      -0.618264       -16.8238
  40   2.0000      -0.594454       -16.1759
  41   2.0000      -0.580602       -15.7990
  42   2.0000      -0.568013       -15.4564
  43   2.0000      -0.560755       -15.2589
  44   2.0000      -0.528160       -14.3720
  45   2.0000      -0.517875       -14.0921
  46   2.0000      -0.510404       -13.8888
  47   2.0000      -0.509463       -13.8632
  48   2.0000      -0.502637       -13.6774
  49   2.0000      -0.498025       -13.5520
  50   2.0000      -0.485786       -13.2189
  51   2.0000      -0.472245       -12.8504
  52   2.0000      -0.469584       -12.7780
  53   2.0000      -0.464937       -12.6516
  54   2.0000      -0.456362       -12.4182
  55   2.0000      -0.451659       -12.2903
  56   2.0000      -0.446765       -12.1571
  57   2.0000      -0.437955       -11.9174
  58   2.0000      -0.429785       -11.6950
  59   2.0000      -0.422130       -11.4867
  60   2.0000      -0.421646       -11.4736
  61   2.0000      -0.417900       -11.3716
  62   2.0000      -0.412996       -11.2382
  63   2.0000      -0.336111        -9.1460
  64   2.0000      -0.330048        -8.9811
  65   2.0000      -0.307985        -8.3807
  66   2.0000      -0.296802        -8.0764
  67   0.0000       0.038471         1.0468
  68   0.0000       0.044824         1.2197
  69   0.0000       0.107247         2.9183
  70   0.0000       0.117234         3.1901
  71   0.0000       0.132568         3.6073

MULLIKEN ATOMIC CHARGES
-----------------------
   0 S :    0.128344
   1 C :   -0.132638
   2 C :   -0.091332
   3 C :    0.038279
   4 C :   -0.178233
   5 H :    0.013805
   6 C :    0.074953
   7 H :    0.036919
   8 H :    0.037397
   9 C :   -0.088970
  10 H :    0.047396
  11 H :    0.038425
  12 C :   -0.029543
  13 H :    0.028423
  14 H :    0.023243
  15 H :    0.020682
  16 S :    0.094451
  17 C :   -0.124209
  18 C :   -0.015582
  19 C :   -0.011616
  20 C :   -0.157843
  21 H :    0.015935
  22 C :    0.007007
  23 H :    0.027377
  24 H :    0.029794
  25 C :   -0.073667
  26 H :    0.054742
  27 H :    0.035293
  28 C :   -0.071222
  29 H :    0.036369
  30 H :    0.052955
  31 H :    0.024997
  32 H :    0.033122
  33 H :    0.074947
Sum of atomic charges:   -0.0000000

LOEWDIN ATOMIC CHARGES
----------------------
   0 S :    0.416150
   1 C :   -0.201767
   2 C :   -0.055558
   3 C :   -0.052018
   4 C :   -0.206185
   5 H :    0.029555
   6 C :   -0.038859
   7 H :    0.037800
   8 H :    0.039025
   9 C :   -0.044324
  10 H :    0.034601
  11 H :    0.027785
  12 C :   -0.063124
  13 H :    0.029943
  14 H :    0.018341
  15 H :    0.023353
  16 S :    0.377756
  17 C :   -0.168562
  18 C :   -0.072192
  19 C :   -0.045283
  20 C :   -0.213343
  21 H :    0.027793
  22 C :   -0.050626
  23 H :    0.035695
  24 H :    0.030454
  25 C :   -0.047570
  26 H :    0.039652
  27 H :    0.024065
  28 C :   -0.070636
  29 H :    0.030864
  30 H :    0.037060
  31 H :    0.017640
  32 H :    0.015773
  33 H :    0.036742

  Mayer bond orders larger than 0.100000
B(  0-S ,  1-C ) :   1.1509 B(  0-S ,  4-C ) :   1.1648 B(  1-C ,  2-C ) :   1.5959
B(  1-C ,  4-C ) :   0.1079 B(  1-C , 32-H ) :   0.9727 B(  2-C ,  3-C ) :   1.2687
B(  2-C ,  6-C ) :   0.9822 B(  3-C ,  4-C ) :   1.5375 B(  3-C ,  5-H ) :   0.9940
B(  4-C , 20-C ) :   1.0217 B(  6-C ,  7-H ) :   0.9293 B(  6-C ,  8-H ) :   0.9383
B(  6-C ,  9-C ) :   1.0964 B(  9-C , 10-H ) :   0.9509 B(  9-C , 11-H ) :   0.9453
B(  9-C , 12-C ) :   1.0798 B( 12-C , 13-H ) :   0.9741 B( 12-C , 14-H ) :   0.9760
B( 12-C , 15-H ) :   0.9742 B( 16-S , 17-C ) :   1.1682 B( 16-S , 20-C ) :   1.1284
B( 17-C , 18-C ) :   1.5968 B( 17-C , 20-C ) :   0.1062 B( 17-C , 33-H ) :   0.9583
B( 18-C , 19-C ) :   1.2375 B( 18-C , 21-H ) :   0.9924 B( 19-C , 20-C ) :   1.5761
B( 19-C , 22-C ) :   1.0418 B( 22-C , 23-H ) :   0.9250 B( 22-C , 24-H ) :   0.9405
B( 22-C , 25-C ) :   1.0542 B( 25-C , 26-H ) :   0.9515 B( 25-C , 27-H ) :   0.9523
B( 25-C , 28-C ) :   1.0810 B( 28-C , 29-H ) :   0.9725 B( 28-C , 30-H ) :   0.9746
B( 28-C , 31-H ) :   0.9731

Dispersion correction           -0.013591285
FINAL SINGLE POINT ENERGY     -1339.856652330437

DIPOLE MOMENT
-------------
                                X             Y             Z
Electronic contribution:     11.32314      23.00560      -6.17346
Nuclear contribution   :    -11.53852     -23.63368       6.28524
                        -----------------------------------------
Total Dipole Moment    :     -0.21538      -0.62808       0.11178
                        -----------------------------------------
Magnitude (a.u.)       :      0.67333
Magnitude (Debye)      :      1.71147

Rotational constants in cm-1:     0.016302     0.007774     0.006855
Rotational constants in MHz :   488.712634   233.045198   205.514502

                             ****ORCA TERMINATED NORMALLY****
TOTAL RUN TIME: 0 days 0 hours 0 minutes 20 seconds 925 msec
