                         Program Version 4.2.1 -  RELEASE  -
|  1> ! wB97X-D3 SP def2-SVP
|  2> %pal
|  3> nprocs 24
|  4> end
|  5>
|  6> * xyz 0 1
|  7> S 	 -61.3117 	 11.973 	 21.2384
|  8> C 	 -59.7728 	 12.4547 	 20.6693
|  9> C 	 -58.725 	 11.8025 	 21.3318
| 10> C 	 -59.2273 	 10.771 	 22.2212
| 11> C 	 -60.5646 	 10.6324 	 22.1708
| 12> H 	 -58.6423 	 10.1188 	 22.7988
| 13> C 	 -57.2058 	 12.0424 	 21.1082
| 14> H 	 -56.8246 	 11.4547 	 20.2235
| 15> H 	 -56.6817 	 11.5513 	 21.9724
| 16> C 	 -56.7545 	 13.5141 	 21.0668
| 17> H 	 -55.7182 	 13.3918 	 20.7851
| 18> H 	 -57.3101 	 14.0611 	 20.2956
| 19> C 	 -56.7203 	 14.2341 	 22.3434
| 20> H 	 -56.281 	 15.1788 	 22.0139
| 21> H 	 -57.7309 	 14.3619 	 22.7448
| 22> H 	 -56.0715 	 13.7128 	 23.0737
| 23> S 	 -62.3585 	 10.3449 	 24.2227
| 24> C 	 -63.1297 	 8.80788 	 24.4779
| 25> C 	 -62.4389 	 7.77206 	 23.8592
| 26> C 	 -61.3779 	 8.27554 	 23.0074
| 27> C 	 -61.315 	 9.6977 	 22.9947
| 28> H 	 -62.6594 	 6.70554 	 24.0904
| 29> C 	 -60.5748 	 7.30129 	 22.1508
| 30> H 	 -59.7487 	 6.92503 	 22.7972
| 31> H 	 -60.0156 	 7.85186 	 21.3763
| 32> C 	 -61.2645 	 6.15239 	 21.4435
| 33> H 	 -61.8688 	 5.51303 	 22.0918
| 34> H 	 -60.5447 	 5.48962 	 20.9645
| 35> C 	 -62.1199 	 6.64569 	 20.2508
| 36> H 	 -62.7584 	 7.51144 	 20.3865
| 37> H 	 -62.7881 	 5.87981 	 19.8447
| 38> H 	 -61.4894 	 6.80379 	 19.4203
| 39> H 	 -59.5183 	 13.1726 	 19.8806
| 40> H 	 -63.9729 	 8.72641 	 25.1554
| 41> *
| 42>
| 43>                          ****END OF INPUT****

CARTESIAN COORDINATES (ANGSTROEM)
---------------------------------
  S    -61.311700   11.973000   21.238400
  C    -59.772800   12.454700   20.669300
  C    -58.725000   11.802500   21.331800
  C    -59.227300   10.771000   22.221200
  C    -60.564600   10.632400   22.170800
  H    -58.642300   10.118800   22.798800
  C    -57.205800   12.042400   21.108200
  H    -56.824600   11.454700   20.223500
  H    -56.681700   11.551300   21.972400
  C    -56.754500   13.514100   21.066800
  H    -55.718200   13.391800   20.785100
  H    -57.310100   14.061100   20.295600
  C    -56.720300   14.234100   22.343400
  H    -56.281000   15.178800   22.013900
  H    -57.730900   14.361900   22.744800
  H    -56.071500   13.712800   23.073700
  S    -62.358500   10.344900   24.222700
  C    -63.129700    8.807880   24.477900
  C    -62.438900    7.772060   23.859200
  C    -61.377900    8.275540   23.007400
  C    -61.315000    9.697700   22.994700
  H    -62.659400    6.705540   24.090400
  C    -60.574800    7.301290   22.150800
  H    -59.748700    6.925030   22.797200
  H    -60.015600    7.851860   21.376300
  C    -61.264500    6.152390   21.443500
  H    -61.868800    5.513030   22.091800
  H    -60.544700    5.489620   20.964500
  C    -62.119900    6.645690   20.250800
  H    -62.758400    7.511440   20.386500
  H    -62.788100    5.879810   19.844700
  H    -61.489400    6.803790   19.420300
  H    -59.518300   13.172600   19.880600
  H    -63.972900    8.726410   25.155400

 Total Charge           Charge          ....    0
 Multiplicity           Mult            ....    1
 Number of Electrons    NEL             ....  134
 Basis Dimension        Dim             ....  322

ORBITAL ENERGIES
----------------

  NO   OCC          E(Eh)            E(eV)
   0   2.0000     -88.967407     -2420.9262
   1   2.0000     -88.962790     -2420.8006
   2   2.0000     -10.326231      -280.9910
   3   2.0000     -10.325973      -280.9840
   4   2.0000     -10.316783      -280.7339
   5   2.0000     -10.315170      -280.6900
   6   2.0000     -10.309691      -280.5410
   7   2.0000     -10.303036      -280.3599
   8   2.0000     -10.299623      -280.2670
   9   2.0000     -10.299020      -280.2506
  10   2.0000     -10.293092      -280.0893
  11   2.0000     -10.289823      -280.0003
  12   2.0000     -10.287047      -279.9248
  13   2.0000     -10.282197      -279.7928
  14   2.0000     -10.274973      -279.5962
  15   2.0000     -10.266686      -279.3707
  16   2.0000      -8.081973      -219.9217
  17   2.0000      -8.078139      -219.8173
  18   2.0000      -6.040553      -164.3718
  19   2.0000      -6.036601      -164.2643
  20   2.0000      -6.036559      -164.2631
  21   2.0000      -6.032562      -164.1544
  22   2.0000      -6.032547      -164.1540
  23   2.0000      -6.028984      -164.0570
  24   2.0000      -1.004213       -27.3260
  25   2.0000      -0.981375       -26.7046
  26   2.0000      -0.914040       -24.8723
  27   2.0000      -0.906453       -24.6659
  28   2.0000      -0.870940       -23.6995
  29   2.0000      -0.852174       -23.1888
  30   2.0000      -0.842973       -22.9385
  31   2.0000      -0.812786       -22.1170
  32   2.0000      -0.780678       -21.2433
  33   2.0000      -0.768966       -20.9246
  34   2.0000      -0.705165       -19.1885
  35   2.0000      -0.696976       -18.9657
  36   2.0000      -0.686919       -18.6920
  37   2.0000      -0.653341       -17.7783
  38   2.0000      -0.640116       -17.4184
  39   2.0000      -0.611287       -16.6340
  40   2.0000      -0.597271       -16.2526
  41   2.0000      -0.577679       -15.7194
  42   2.0000      -0.552543       -15.0355
  43   2.0000      -0.549806       -14.9610
  44   2.0000      -0.542950       -14.7744
  45   2.0000      -0.538089       -14.6422
  46   2.0000      -0.513490       -13.9728
  47   2.0000      -0.510330       -13.8868
  48   2.0000      -0.500662       -13.6237
  49   2.0000      -0.495988       -13.4965
  50   2.0000      -0.490558       -13.3488
  51   2.0000      -0.475516       -12.9394
  52   2.0000      -0.466232       -12.6868
  53   2.0000      -0.464620       -12.6430
  54   2.0000      -0.457147       -12.4396
  55   2.0000      -0.446788       -12.1577
  56   2.0000      -0.444190       -12.0870
  57   2.0000      -0.435082       -11.8392
  58   2.0000      -0.431603       -11.7445
  59   2.0000      -0.422463       -11.4958
  60   2.0000      -0.418887       -11.3985
  61   2.0000      -0.414953       -11.2914
  62   2.0000      -0.409371       -11.1396
  63   2.0000      -0.346273        -9.4226
  64   2.0000      -0.327490        -8.9115
  65   2.0000      -0.323300        -8.7974
  66   2.0000      -0.293545        -7.9878
  67   0.0000       0.033727         0.9177
  68   0.0000       0.062167         1.6916
  69   0.0000       0.110357         3.0030
  70   0.0000       0.123821         3.3694
  71   0.0000       0.131220         3.5707

MULLIKEN ATOMIC CHARGES
-----------------------
   0 S :    0.124087
   1 C :   -0.115350
   2 C :   -0.101524
   3 C :    0.061097
   4 C :   -0.147878
   5 H :   -0.003024
   6 C :    0.023047
   7 H :    0.053610
   8 H :    0.017293
   9 C :   -0.081326
  10 H :    0.020519
  11 H :    0.028636
  12 C :   -0.027810
  13 H :    0.036593
  14 H :    0.042934
  15 H :    0.031845
  16 S :    0.110237
  17 C :   -0.105208
  18 C :   -0.041482
  19 C :   -0.032215
  20 C :   -0.190701
  21 H :    0.040713
  22 C :    0.056043
  23 H :    0.040105
  24 H :    0.021330
  25 C :   -0.052289
  26 H :    0.026375
  27 H :    0.026912
  28 C :   -0.053898
  29 H :    0.043410
  30 H :    0.020472
  31 H :    0.014497
  32 H :    0.052396
  33 H :    0.060556
Sum of atomic charges:   -0.0000000

LOEWDIN ATOMIC CHARGES
----------------------
   0 S :    0.403083
   1 C :   -0.211821
   2 C :   -0.067388
   3 C :   -0.046615
   4 C :   -0.186563
   5 H :    0.025220
   6 C :   -0.041896
   7 H :    0.038007
   8 H :    0.030298
   9 C :   -0.047847
  10 H :    0.025722
  11 H :    0.021563
  12 C :   -0.060905
  13 H :    0.032368
  14 H :    0.026974
  15 H :    0.027471
  16 S :    0.415154
  17 C :   -0.186881
  18 C :   -0.076669
  19 C :   -0.052566
  20 C :   -0.209821
  21 H :    0.040186
  22 C :   -0.040667
  23 H :    0.037557
  24 H :    0.032726
  25 C :   -0.039577
  26 H :    0.018584
  27 H :    0.030008
  28 C :   -0.067268
  29 H :    0.026390
  30 H :    0.026335
  31 H :    0.018488
  32 H :    0.033643
  33 H :    0.026704

  Mayer bond orders larger than 0.100000
B(  0-S ,  1-C ) :   1.1430 B(  0-S ,  4-C ) :   1.1197 B(  1-C ,  2-C ) :   1.6232
B(  1-C , 32-H ) :   0.9630 B(  2-C ,  3-C ) :   1.2219 B(  2-C ,  6-C ) :   1.0057
B(  3-C ,  4-C ) :   1.6056 B(  3-C ,  5-H ) :   1.0019 B(  4-C , 20-C ) :   1.0432
B(  6-C ,  7-H ) :   0.9423 B(  6-C ,  8-H ) :   0.9436 B(  6-C ,  9-C ) :   1.0713
B(  9-C , 10-H ) :   0.9509 B(  9-C , 11-H ) :   0.9545 B(  9-C , 12-C ) :   1.0875
B( 12-C , 13-H ) :   0.9710 B( 12-C , 14-H ) :   0.9740 B( 12-C , 15-H ) :   0.9696
B( 16-S , 17-C ) :   1.1660 B( 16-S , 20-C ) :   1.1581 B( 17-C , 18-C ) :   1.5880
B( 17-C , 33-H ) :   0.9697 B( 18-C , 19-C ) :   1.2478 B( 18-C , 21-H ) :   0.9842
B( 19-C , 20-C ) :   1.5702 B( 19-C , 22-C ) :   1.0419 B( 22-C , 23-H ) :   0.9269
B( 22-C , 24-H ) :   0.9348 B( 22-C , 25-C ) :   1.0825 B( 25-C , 26-H ) :   0.9567
B( 25-C , 27-H ) :   0.9516 B( 25-C , 28-C ) :   1.0697 B( 28-C , 29-H ) :   0.9802
B( 28-C , 30-H ) :   0.9732 B( 28-C , 31-H ) :   0.9752

Dispersion correction           -0.014086611
FINAL SINGLE POINT ENERGY     -1339.876794467600

DIPOLE MOMENT
-------------
                                X             Y             Z
Electronic contribution:    -16.57410       6.21352       9.22786
Nuclear contribution   :     17.13604      -6.52866      -9.37104
                        -----------------------------------------
Total Dipole Moment    :      0.56194      -0.31514      -0.14318
                        -----------------------------------------
Magnitude (a.u.)       :      0.66000
Magnitude (Debye)      :      1.67758

Rotational constants in cm-1:     0.022153     0.007452     0.006572
Rotational constants in MHz :   664.124461   223.409261   197.023741

                             ****ORCA TERMINATED NORMALLY****
TOTAL RUN TIME: 0 days 0 hours 0 minutes 21 seconds 209 msec
