                         Program Version 4.2.1 -  RELEASE  -
|  1> ! wB97X-D3 SP def2-SVP
|  2> %pal
|  3> nprocs 24
|  4> end
|  5>
|  6> * xyz 0 1
|  7> S 	 -118.569 	 21.6516 	 -111.649
|  8> C 	 -119.346 	 22.2933 	 -113.101
|  9> C 	 -120.108 	 21.4065 	 -113.787
| 10> C 	 -120.272 	 20.1705 	 -113.038
| 11> C 	 -119.595 	 20.1851 	 -111.828
| 12> H 	 -120.951 	 19.4248 	 -113.361
| 13> C 	 -120.623 	 21.6019 	 -115.183
| 14> H 	 -119.674 	 21.5215 	 -115.799
| 15> H 	 -120.838 	 22.6396 	 -115.293
| 16> C 	 -121.701 	 20.7063 	 -115.808
| 17> H 	 -121.225 	 19.7447 	 -115.932
| 18> H 	 -122.532 	 20.525 	 -115.148
| 19> C 	 -122.128 	 21.0534 	 -117.216
| 20> H 	 -122.709 	 21.9885 	 -117.223
| 21> H 	 -121.233 	 21.1651 	 -117.834
| 22> H 	 -122.845 	 20.3085 	 -117.681
| 23> S 	 -117.764 	 18.863 	 -110.256
| 24> C 	 -118.117 	 17.5947 	 -109.159
| 25> C 	 -119.396 	 17.1063 	 -109.447
| 26> C 	 -120.131 	 17.8868 	 -110.452
| 27> C 	 -119.388 	 18.9978 	 -110.933
| 28> H 	 -119.791 	 16.3159 	 -108.857
| 29> C 	 -121.528 	 17.5511 	 -110.914
| 30> H 	 -121.928 	 18.4611 	 -111.436
| 31> H 	 -122.148 	 17.5636 	 -109.957
| 32> C 	 -121.739 	 16.3034 	 -111.823
| 33> H 	 -121.482 	 15.3248 	 -111.373
| 34> H 	 -121.062 	 16.3708 	 -112.688
| 35> C 	 -123.159 	 16.0408 	 -112.308
| 36> H 	 -123.853 	 15.9123 	 -111.504
| 37> H 	 -123.09 	 15.1179 	 -112.831
| 38> H 	 -123.459 	 16.751 	 -113.085
| 39> H 	 -119.074 	 23.2313 	 -113.599
| 40> H 	 -117.404 	 17.1779 	 -108.492
| 41> *
| 42>
| 43>                          ****END OF INPUT****

CARTESIAN COORDINATES (ANGSTROEM)
---------------------------------
  S    -118.569000   21.651600  -111.649000
  C    -119.346000   22.293300  -113.101000
  C    -120.108000   21.406500  -113.787000
  C    -120.272000   20.170500  -113.038000
  C    -119.595000   20.185100  -111.828000
  H    -120.951000   19.424800  -113.361000
  C    -120.623000   21.601900  -115.183000
  H    -119.674000   21.521500  -115.799000
  H    -120.838000   22.639600  -115.293000
  C    -121.701000   20.706300  -115.808000
  H    -121.225000   19.744700  -115.932000
  H    -122.532000   20.525000  -115.148000
  C    -122.128000   21.053400  -117.216000
  H    -122.709000   21.988500  -117.223000
  H    -121.233000   21.165100  -117.834000
  H    -122.845000   20.308500  -117.681000
  S    -117.764000   18.863000  -110.256000
  C    -118.117000   17.594700  -109.159000
  C    -119.396000   17.106300  -109.447000
  C    -120.131000   17.886800  -110.452000
  C    -119.388000   18.997800  -110.933000
  H    -119.791000   16.315900  -108.857000
  C    -121.528000   17.551100  -110.914000
  H    -121.928000   18.461100  -111.436000
  H    -122.148000   17.563600  -109.957000
  C    -121.739000   16.303400  -111.823000
  H    -121.482000   15.324800  -111.373000
  H    -121.062000   16.370800  -112.688000
  C    -123.159000   16.040800  -112.308000
  H    -123.853000   15.912300  -111.504000
  H    -123.090000   15.117900  -112.831000
  H    -123.459000   16.751000  -113.085000
  H    -119.074000   23.231300  -113.599000
  H    -117.404000   17.177900  -108.492000

 Total Charge           Charge          ....    0
 Multiplicity           Mult            ....    1
 Number of Electrons    NEL             ....  134
 Basis Dimension        Dim             ....  322

ORBITAL ENERGIES
----------------

  NO   OCC          E(Eh)            E(eV)
   0   2.0000     -88.971268     -2421.0313
   1   2.0000     -88.958946     -2420.6960
   2   2.0000     -10.340942      -281.3913
   3   2.0000     -10.333959      -281.2013
   4   2.0000     -10.314808      -280.6802
   5   2.0000     -10.311821      -280.5989
   6   2.0000     -10.310470      -280.5622
   7   2.0000     -10.301974      -280.3310
   8   2.0000     -10.299824      -280.2724
   9   2.0000     -10.297548      -280.2105
  10   2.0000     -10.297041      -280.1967
  11   2.0000     -10.295952      -280.1671
  12   2.0000     -10.291617      -280.0491
  13   2.0000     -10.289866      -280.0015
  14   2.0000     -10.288552      -279.9657
  15   2.0000     -10.274818      -279.5920
  16   2.0000      -8.084611      -219.9935
  17   2.0000      -8.074338      -219.7139
  18   2.0000      -6.043338      -164.4476
  19   2.0000      -6.039577      -164.3452
  20   2.0000      -6.034929      -164.2188
  21   2.0000      -6.032776      -164.1602
  22   2.0000      -6.028621      -164.0471
  23   2.0000      -6.025252      -163.9554
  24   2.0000      -0.999924       -27.2093
  25   2.0000      -0.979914       -26.6648
  26   2.0000      -0.915740       -24.9186
  27   2.0000      -0.904155       -24.6033
  28   2.0000      -0.869926       -23.6719
  29   2.0000      -0.855197       -23.2711
  30   2.0000      -0.844925       -22.9916
  31   2.0000      -0.817501       -22.2453
  32   2.0000      -0.780759       -21.2455
  33   2.0000      -0.771315       -20.9885
  34   2.0000      -0.713645       -19.4193
  35   2.0000      -0.697576       -18.9820
  36   2.0000      -0.690097       -18.7785
  37   2.0000      -0.658197       -17.9105
  38   2.0000      -0.634375       -17.2622
  39   2.0000      -0.626282       -17.0420
  40   2.0000      -0.592318       -16.1178
  41   2.0000      -0.576458       -15.6862
  42   2.0000      -0.564802       -15.3690
  43   2.0000      -0.560850       -15.2615
  44   2.0000      -0.530859       -14.4454
  45   2.0000      -0.526247       -14.3199
  46   2.0000      -0.516886       -14.0652
  47   2.0000      -0.510766       -13.8987
  48   2.0000      -0.509163       -13.8550
  49   2.0000      -0.495661       -13.4876
  50   2.0000      -0.492148       -13.3920
  51   2.0000      -0.481228       -13.0949
  52   2.0000      -0.473639       -12.8884
  53   2.0000      -0.461716       -12.5639
  54   2.0000      -0.459827       -12.5125
  55   2.0000      -0.451910       -12.2971
  56   2.0000      -0.447540       -12.1782
  57   2.0000      -0.439749       -11.9662
  58   2.0000      -0.436296       -11.8722
  59   2.0000      -0.429173       -11.6784
  60   2.0000      -0.419123       -11.4049
  61   2.0000      -0.413743       -11.2585
  62   2.0000      -0.407079       -11.0772
  63   2.0000      -0.354529        -9.6472
  64   2.0000      -0.329695        -8.9715
  65   2.0000      -0.322142        -8.7659
  66   2.0000      -0.286500        -7.7961
  67   0.0000       0.022131         0.6022
  68   0.0000       0.073736         2.0065
  69   0.0000       0.101787         2.7698
  70   0.0000       0.121841         3.3155
  71   0.0000       0.129056         3.5118

MULLIKEN ATOMIC CHARGES
-----------------------
   0 S :    0.108578
   1 C :   -0.120682
   2 C :   -0.085988
   3 C :    0.012551
   4 C :   -0.089263
   5 H :    0.006685
   6 C :    0.044333
   7 H :    0.046120
   8 H :    0.013981
   9 C :   -0.059806
  10 H :    0.026921
  11 H :    0.033302
  12 C :   -0.061628
  13 H :    0.032845
  14 H :    0.035778
  15 H :    0.047311
  16 S :    0.073777
  17 C :   -0.082790
  18 C :   -0.017351
  19 C :   -0.060735
  20 C :   -0.142132
  21 H :    0.010765
  22 C :    0.029892
  23 H :    0.022435
  24 H :    0.037996
  25 C :   -0.084136
  26 H :    0.027575
  27 H :    0.029852
  28 C :   -0.020050
  29 H :    0.034956
  30 H :    0.020663
  31 H :    0.029134
  32 H :    0.042635
  33 H :    0.056477
Sum of atomic charges:    0.0000000

LOEWDIN ATOMIC CHARGES
----------------------
   0 S :    0.381551
   1 C :   -0.196301
   2 C :   -0.059630
   3 C :   -0.054092
   4 C :   -0.171529
   5 H :    0.023689
   6 C :   -0.038324
   7 H :    0.046778
   8 H :    0.025324
   9 C :   -0.047135
  10 H :    0.025801
  11 H :    0.021871
  12 C :   -0.065593
  13 H :    0.024335
  14 H :    0.027061
  15 H :    0.036662
  16 S :    0.405498
  17 C :   -0.192187
  18 C :   -0.069149
  19 C :   -0.063816
  20 C :   -0.188442
  21 H :    0.024869
  22 C :   -0.047490
  23 H :    0.033059
  24 H :    0.038825
  25 C :   -0.044404
  26 H :    0.026406
  27 H :    0.026647
  28 C :   -0.059766
  29 H :    0.023445
  30 H :    0.025627
  31 H :    0.023875
  32 H :    0.030069
  33 H :    0.026464

  Mayer bond orders larger than 0.100000
B(  0-S ,  1-C ) :   1.1095 B(  0-S ,  4-C ) :   1.1335 B(  1-C ,  2-C ) :   1.6700
B(  1-C , 32-H ) :   0.9592 B(  2-C ,  3-C ) :   1.2257 B(  2-C ,  6-C ) :   1.0159
B(  3-C ,  4-C ) :   1.5701 B(  3-C ,  5-H ) :   0.9917 B(  4-C , 20-C ) :   1.0426
B(  6-C ,  7-H ) :   0.9270 B(  6-C ,  8-H ) :   0.9381 B(  6-C ,  9-C ) :   1.0639
B(  9-C , 10-H ) :   0.9415 B(  9-C , 11-H ) :   0.9582 B(  9-C , 12-C ) :   1.0894
B( 12-C , 13-H ) :   0.9750 B( 12-C , 14-H ) :   0.9730 B( 12-C , 15-H ) :   0.9727
B( 16-S , 17-C ) :   1.1664 B( 16-S , 20-C ) :   1.1469 B( 17-C , 18-C ) :   1.5753
B( 17-C , 33-H ) :   0.9760 B( 18-C , 19-C ) :   1.2476 B( 18-C , 21-H ) :   0.9989
B( 19-C , 20-C ) :   1.5680 B( 19-C , 22-C ) :   1.0552 B( 22-C , 23-H ) :   0.9376
B( 22-C , 24-H ) :   0.9317 B( 22-C , 25-C ) :   1.0486 B( 25-C , 26-H ) :   0.9586
B( 25-C , 27-H ) :   0.9532 B( 25-C , 28-C ) :   1.0917 B( 28-C , 29-H ) :   0.9743
B( 28-C , 30-H ) :   0.9721 B( 28-C , 31-H ) :   0.9741

Dispersion correction           -0.013359269
FINAL SINGLE POINT ENERGY     -1339.870666305483

DIPOLE MOMENT
-------------
                                X             Y             Z
Electronic contribution:     23.72829       9.62357      21.06003
Nuclear contribution   :    -24.19042      -9.96741     -21.63879
                        -----------------------------------------
Total Dipole Moment    :     -0.46213      -0.34384      -0.57876
                        -----------------------------------------
Magnitude (a.u.)       :      0.81655
Magnitude (Debye)      :      2.07550

Rotational constants in cm-1:     0.015883     0.009187     0.006069
Rotational constants in MHz :   476.163088   275.414047   181.957641

                             ****ORCA TERMINATED NORMALLY****
TOTAL RUN TIME: 0 days 0 hours 0 minutes 20 seconds 810 msec
