                         Program Version 4.2.1 -  RELEASE  -
|  1> ! wB97X-D3 SP def2-SVP
|  2> %pal
|  3> nprocs 24
|  4> end
|  5>
|  6> * xyz 0 1
|  7> S 	 -107.006 	 49.7019 	 -97.0887
|  8> C 	 -106.399 	 50.5946 	 -95.7208
|  9> C 	 -106.958 	 51.8459 	 -95.6871
| 10> C 	 -107.932 	 52.0764 	 -96.7264
| 11> C 	 -108.096 	 50.993 	 -97.6312
| 12> H 	 -108.63 	 52.9238 	 -96.7379
| 13> C 	 -106.854 	 52.7956 	 -94.5334
| 14> H 	 -106.421 	 53.7231 	 -94.9764
| 15> H 	 -106.098 	 52.2314 	 -93.912
| 16> C 	 -108.145 	 53.2333 	 -93.7624
| 17> H 	 -107.896 	 53.6288 	 -92.846
| 18> H 	 -108.612 	 53.9972 	 -94.3549
| 19> C 	 -109.087 	 52.0677 	 -93.4697
| 20> H 	 -109.765 	 51.8359 	 -94.303
| 21> H 	 -108.69 	 51.1094 	 -93.1784
| 22> H 	 -109.722 	 52.4153 	 -92.6921
| 23> S 	 -109.101 	 49.3394 	 -99.6164
| 24> C 	 -110.499 	 49.7862 	 -100.419
| 25> C 	 -110.75 	 51.1004 	 -100.342
| 26> C 	 -109.818 	 51.7778 	 -99.5014
| 27> C 	 -108.938 	 50.9092 	 -98.8308
| 28> H 	 -111.695 	 51.4792 	 -100.766
| 29> C 	 -109.968 	 53.275 	 -99.3315
| 30> H 	 -109.22 	 53.7132 	 -98.7042
| 31> H 	 -110.796 	 53.4381 	 -98.6542
| 32> C 	 -110.112 	 54.1451 	 -100.602
| 33> H 	 -111.108 	 53.9266 	 -101.122
| 34> H 	 -109.425 	 53.8849 	 -101.392
| 35> C 	 -110.198 	 55.6175 	 -100.313
| 36> H 	 -109.197 	 56.1441 	 -100.124
| 37> H 	 -110.789 	 55.9743 	 -99.5021
| 38> H 	 -110.61 	 56.1797 	 -101.162
| 39> H 	 -105.732 	 50.2058 	 -94.9789
| 40> H 	 -111.161 	 49.0742 	 -100.951
| 41> *
| 42>
| 43>                          ****END OF INPUT****

CARTESIAN COORDINATES (ANGSTROEM)
---------------------------------
  S    -107.006000   49.701900  -97.088700
  C    -106.399000   50.594600  -95.720800
  C    -106.958000   51.845900  -95.687100
  C    -107.932000   52.076400  -96.726400
  C    -108.096000   50.993000  -97.631200
  H    -108.630000   52.923800  -96.737900
  C    -106.854000   52.795600  -94.533400
  H    -106.421000   53.723100  -94.976400
  H    -106.098000   52.231400  -93.912000
  C    -108.145000   53.233300  -93.762400
  H    -107.896000   53.628800  -92.846000
  H    -108.612000   53.997200  -94.354900
  C    -109.087000   52.067700  -93.469700
  H    -109.765000   51.835900  -94.303000
  H    -108.690000   51.109400  -93.178400
  H    -109.722000   52.415300  -92.692100
  S    -109.101000   49.339400  -99.616400
  C    -110.499000   49.786200  -100.419000
  C    -110.750000   51.100400  -100.342000
  C    -109.818000   51.777800  -99.501400
  C    -108.938000   50.909200  -98.830800
  H    -111.695000   51.479200  -100.766000
  C    -109.968000   53.275000  -99.331500
  H    -109.220000   53.713200  -98.704200
  H    -110.796000   53.438100  -98.654200
  C    -110.112000   54.145100  -100.602000
  H    -111.108000   53.926600  -101.122000
  H    -109.425000   53.884900  -101.392000
  C    -110.198000   55.617500  -100.313000
  H    -109.197000   56.144100  -100.124000
  H    -110.789000   55.974300  -99.502100
  H    -110.610000   56.179700  -101.162000
  H    -105.732000   50.205800  -94.978900
  H    -111.161000   49.074200  -100.951000

 Total Charge           Charge          ....    0
 Multiplicity           Mult            ....    1
 Number of Electrons    NEL             ....  134
 Basis Dimension        Dim             ....  322

ORBITAL ENERGIES
----------------

  NO   OCC          E(Eh)            E(eV)
   0   2.0000     -88.965453     -2420.8730
   1   2.0000     -88.961704     -2420.7710
   2   2.0000     -10.340990      -281.3926
   3   2.0000     -10.334119      -281.2057
   4   2.0000     -10.312614      -280.6205
   5   2.0000     -10.311802      -280.5984
   6   2.0000     -10.310168      -280.5539
   7   2.0000     -10.297811      -280.2177
   8   2.0000     -10.297402      -280.2065
   9   2.0000     -10.295108      -280.1441
  10   2.0000     -10.294863      -280.1375
  11   2.0000     -10.291114      -280.0355
  12   2.0000     -10.290349      -280.0146
  13   2.0000     -10.284540      -279.8566
  14   2.0000     -10.282373      -279.7976
  15   2.0000     -10.269378      -279.4440
  16   2.0000      -8.079764      -219.8616
  17   2.0000      -8.078327      -219.8225
  18   2.0000      -6.038458      -164.3148
  19   2.0000      -6.036776      -164.2690
  20   2.0000      -6.034259      -164.2005
  21   2.0000      -6.032606      -164.1556
  22   2.0000      -6.030416      -164.0960
  23   2.0000      -6.028996      -164.0573
  24   2.0000      -1.011964       -27.5369
  25   2.0000      -0.987098       -26.8603
  26   2.0000      -0.911985       -24.8164
  27   2.0000      -0.909921       -24.7602
  28   2.0000      -0.872746       -23.7486
  29   2.0000      -0.856111       -23.2960
  30   2.0000      -0.842812       -22.9341
  31   2.0000      -0.817097       -22.2343
  32   2.0000      -0.784562       -21.3490
  33   2.0000      -0.773556       -21.0495
  34   2.0000      -0.715293       -19.4641
  35   2.0000      -0.705366       -19.1940
  36   2.0000      -0.699323       -19.0296
  37   2.0000      -0.654741       -17.8164
  38   2.0000      -0.632862       -17.2210
  39   2.0000      -0.624757       -17.0005
  40   2.0000      -0.602084       -16.3836
  41   2.0000      -0.563223       -15.3261
  42   2.0000      -0.556110       -15.1325
  43   2.0000      -0.554330       -15.0841
  44   2.0000      -0.545724       -14.8499
  45   2.0000      -0.528738       -14.3877
  46   2.0000      -0.520510       -14.1638
  47   2.0000      -0.514021       -13.9872
  48   2.0000      -0.510982       -13.9045
  49   2.0000      -0.499761       -13.5992
  50   2.0000      -0.493102       -13.4180
  51   2.0000      -0.483094       -13.1457
  52   2.0000      -0.471186       -12.8216
  53   2.0000      -0.461939       -12.5700
  54   2.0000      -0.457896       -12.4600
  55   2.0000      -0.454894       -12.3783
  56   2.0000      -0.447205       -12.1691
  57   2.0000      -0.442654       -12.0452
  58   2.0000      -0.431550       -11.7431
  59   2.0000      -0.428720       -11.6661
  60   2.0000      -0.412884       -11.2352
  61   2.0000      -0.410102       -11.1594
  62   2.0000      -0.404038       -10.9944
  63   2.0000      -0.365998        -9.9593
  64   2.0000      -0.331496        -9.0205
  65   2.0000      -0.323650        -8.8070
  66   2.0000      -0.280205        -7.6248
  67   0.0000       0.015690         0.4270
  68   0.0000       0.093004         2.5308
  69   0.0000       0.102278         2.7831
  70   0.0000       0.117130         3.1873
  71   0.0000       0.132970         3.6183

MULLIKEN ATOMIC CHARGES
-----------------------
   0 S :    0.095170
   1 C :   -0.116564
   2 C :   -0.088391
   3 C :   -0.020938
   4 C :   -0.105932
   5 H :    0.020404
   6 C :    0.029421
   7 H :    0.041681
   8 H :    0.021806
   9 C :   -0.019865
  10 H :    0.017721
  11 H :    0.024235
  12 C :   -0.040655
  13 H :    0.030594
  14 H :    0.031404
  15 H :    0.019583
  16 S :    0.095652
  17 C :   -0.087283
  18 C :   -0.050582
  19 C :   -0.055761
  20 C :   -0.114359
  21 H :    0.033322
  22 C :    0.064592
  23 H :    0.008851
  24 H :    0.025518
  25 C :   -0.060328
  26 H :    0.028808
  27 H :    0.039046
  28 C :   -0.069729
  29 H :    0.036301
  30 H :    0.021648
  31 H :    0.031140
  32 H :    0.046086
  33 H :    0.067405
Sum of atomic charges:   -0.0000000

LOEWDIN ATOMIC CHARGES
----------------------
   0 S :    0.394742
   1 C :   -0.199335
   2 C :   -0.070386
   3 C :   -0.074793
   4 C :   -0.176767
   5 H :    0.028270
   6 C :   -0.037107
   7 H :    0.036334
   8 H :    0.032049
   9 C :   -0.027617
  10 H :    0.017894
  11 H :    0.023959
  12 C :   -0.065736
  13 H :    0.028677
  14 H :    0.025344
  15 H :    0.022039
  16 S :    0.420846
  17 C :   -0.201672
  18 C :   -0.084488
  19 C :   -0.048613
  20 C :   -0.192217
  21 H :    0.039587
  22 C :   -0.038898
  23 H :    0.023325
  24 H :    0.034614
  25 C :   -0.041365
  26 H :    0.029913
  27 H :    0.028444
  28 C :   -0.076242
  29 H :    0.030957
  30 H :    0.020798
  31 H :    0.030162
  32 H :    0.028277
  33 H :    0.039004

  Mayer bond orders larger than 0.100000
B(  0-S ,  1-C ) :   1.1271 B(  0-S ,  4-C ) :   1.1466 B(  1-C ,  2-C ) :   1.6092
B(  1-C , 32-H ) :   0.9664 B(  2-C ,  3-C ) :   1.2474 B(  2-C ,  6-C ) :   1.0276
B(  3-C ,  4-C ) :   1.5525 B(  3-C ,  5-H ) :   0.9796 B(  4-C , 20-C ) :   1.1047
B(  6-C ,  7-H ) :   0.9355 B(  6-C ,  8-H ) :   0.9454 B(  6-C ,  9-C ) :   1.0681
B(  9-C , 10-H ) :   0.9586 B(  9-C , 11-H ) :   0.9484 B(  9-C , 12-C ) :   1.0834
B( 12-C , 13-H ) :   0.9698 B( 12-C , 14-H ) :   0.9783 B( 12-C , 15-H ) :   0.9741
B( 16-S , 17-C ) :   1.1767 B( 16-S , 20-C ) :   1.1233 B( 17-C , 18-C ) :   1.6173
B( 17-C , 33-H ) :   0.9584 B( 18-C , 19-C ) :   1.2358 B( 18-C , 21-H ) :   0.9910
B( 19-C , 20-C ) :   1.5669 B( 19-C , 22-C ) :   1.0453 B( 22-C , 23-H ) :   0.9370
B( 22-C , 24-H ) :   0.9243 B( 22-C , 25-C ) :   1.0537 B( 25-C , 26-H ) :   0.9494
B( 25-C , 27-H ) :   0.9584 B( 25-C , 28-C ) :   1.0841 B( 28-C , 29-H ) :   0.9712
B( 28-C , 30-H ) :   0.9739 B( 28-C , 31-H ) :   0.9733

Dispersion correction           -0.014031985
FINAL SINGLE POINT ENERGY     -1339.862302859991

DIPOLE MOMENT
-------------
                                X             Y             Z
Electronic contribution:      8.50104     -25.72431      -9.04623
Nuclear contribution   :     -9.05123      26.34595       9.27450
                        -----------------------------------------
Total Dipole Moment    :     -0.55019       0.62164       0.22827
                        -----------------------------------------
Magnitude (a.u.)       :      0.86096
Magnitude (Debye)      :      2.18839

Rotational constants in cm-1:     0.016583     0.009201     0.006664
Rotational constants in MHz :   497.137751   275.840438   199.775671

                             ****ORCA TERMINATED NORMALLY****
TOTAL RUN TIME: 0 days 0 hours 0 minutes 21 seconds 412 msec
