                         Program Version 4.2.1 -  RELEASE  -
|  1> ! wB97X-D3 SP def2-SVP
|  2> %pal
|  3> nprocs 24
|  4> end
|  5>
|  6> * xyz 0 1
|  7> S 	 -109.576 	 49.3895 	 -84.9897
|  8> C 	 -108.03 	 49.183 	 -85.831
|  9> C 	 -108.151 	 49.5353 	 -87.1312
| 10> C 	 -109.441 	 50.0761 	 -87.4356
| 11> C 	 -110.33 	 50.0893 	 -86.3997
| 12> H 	 -109.815 	 50.5446 	 -88.3706
| 13> C 	 -106.997 	 49.4649 	 -88.1202
| 14> H 	 -106.05 	 49.262 	 -87.5075
| 15> H 	 -106.896 	 50.4223 	 -88.6006
| 16> C 	 -107.133 	 48.315 	 -89.152
| 17> H 	 -107.413 	 47.4622 	 -88.5718
| 18> H 	 -107.902 	 48.584 	 -89.855
| 19> C 	 -105.859 	 48.0604 	 -90.0262
| 20> H 	 -105.483 	 48.8043 	 -90.7425
| 21> H 	 -105.037 	 47.8766 	 -89.4028
| 22> H 	 -106.021 	 47.1502 	 -90.6627
| 23> S 	 -112.962 	 49.441 	 -85.6771
| 24> C 	 -114.167 	 50.7255 	 -85.7564
| 25> C 	 -113.615 	 51.8711 	 -86.2506
| 26> C 	 -112.25 	 51.7351 	 -86.6116
| 27> C 	 -111.734 	 50.5185 	 -86.3625
| 28> H 	 -114.159 	 52.8054 	 -86.4318
| 29> C 	 -111.445 	 52.9011 	 -87.0697
| 30> H 	 -112.084 	 53.6559 	 -87.5297
| 31> H 	 -110.784 	 52.6934 	 -87.941
| 32> C 	 -110.567 	 53.6274 	 -86.0241
| 33> H 	 -109.98 	 54.4586 	 -86.4915
| 34> H 	 -109.808 	 52.9974 	 -85.6636
| 35> C 	 -111.222 	 54.2528 	 -84.8542
| 36> H 	 -111.794 	 53.6099 	 -84.2699
| 37> H 	 -111.971 	 54.9546 	 -85.183
| 38> H 	 -110.538 	 54.8163 	 -84.1411
| 39> H 	 -107.11 	 48.7617 	 -85.4191
| 40> H 	 -115.183 	 50.6865 	 -85.4151
| 41> *
| 42>
| 43>                          ****END OF INPUT****

CARTESIAN COORDINATES (ANGSTROEM)
---------------------------------
  S    -109.576000   49.389500  -84.989700
  C    -108.030000   49.183000  -85.831000
  C    -108.151000   49.535300  -87.131200
  C    -109.441000   50.076100  -87.435600
  C    -110.330000   50.089300  -86.399700
  H    -109.815000   50.544600  -88.370600
  C    -106.997000   49.464900  -88.120200
  H    -106.050000   49.262000  -87.507500
  H    -106.896000   50.422300  -88.600600
  C    -107.133000   48.315000  -89.152000
  H    -107.413000   47.462200  -88.571800
  H    -107.902000   48.584000  -89.855000
  C    -105.859000   48.060400  -90.026200
  H    -105.483000   48.804300  -90.742500
  H    -105.037000   47.876600  -89.402800
  H    -106.021000   47.150200  -90.662700
  S    -112.962000   49.441000  -85.677100
  C    -114.167000   50.725500  -85.756400
  C    -113.615000   51.871100  -86.250600
  C    -112.250000   51.735100  -86.611600
  C    -111.734000   50.518500  -86.362500
  H    -114.159000   52.805400  -86.431800
  C    -111.445000   52.901100  -87.069700
  H    -112.084000   53.655900  -87.529700
  H    -110.784000   52.693400  -87.941000
  C    -110.567000   53.627400  -86.024100
  H    -109.980000   54.458600  -86.491500
  H    -109.808000   52.997400  -85.663600
  C    -111.222000   54.252800  -84.854200
  H    -111.794000   53.609900  -84.269900
  H    -111.971000   54.954600  -85.183000
  H    -110.538000   54.816300  -84.141100
  H    -107.110000   48.761700  -85.419100
  H    -115.183000   50.686500  -85.415100

 Total Charge           Charge          ....    0
 Multiplicity           Mult            ....    1
 Number of Electrons    NEL             ....  134
 Basis Dimension        Dim             ....  322

ORBITAL ENERGIES
----------------

  NO   OCC          E(Eh)            E(eV)
   0   2.0000     -88.968252     -2420.9492
   1   2.0000     -88.963746     -2420.8266
   2   2.0000     -10.329498      -281.0799
   3   2.0000     -10.326166      -280.9893
   4   2.0000     -10.319388      -280.8048
   5   2.0000     -10.314123      -280.6616
   6   2.0000     -10.300108      -280.2802
   7   2.0000     -10.297149      -280.1997
   8   2.0000     -10.296891      -280.1927
   9   2.0000     -10.295187      -280.1463
  10   2.0000     -10.294213      -280.1198
  11   2.0000     -10.292680      -280.0781
  12   2.0000     -10.287536      -279.9381
  13   2.0000     -10.279982      -279.7325
  14   2.0000     -10.277810      -279.6734
  15   2.0000     -10.265812      -279.3470
  16   2.0000      -8.082443      -219.9345
  17   2.0000      -8.078355      -219.8232
  18   2.0000      -6.041118      -164.3872
  19   2.0000      -6.037008      -164.2753
  20   2.0000      -6.036996      -164.2750
  21   2.0000      -6.033085      -164.1686
  22   2.0000      -6.032835      -164.1618
  23   2.0000      -6.028993      -164.0572
  24   2.0000      -1.011093       -27.5132
  25   2.0000      -0.988827       -26.9074
  26   2.0000      -0.910677       -24.7808
  27   2.0000      -0.908515       -24.7219
  28   2.0000      -0.871311       -23.7096
  29   2.0000      -0.854510       -23.2524
  30   2.0000      -0.841829       -22.9073
  31   2.0000      -0.819921       -22.3112
  32   2.0000      -0.785127       -21.3644
  33   2.0000      -0.775392       -21.0995
  34   2.0000      -0.712278       -19.3821
  35   2.0000      -0.700808       -19.0700
  36   2.0000      -0.691893       -18.8274
  37   2.0000      -0.666687       -18.1415
  38   2.0000      -0.643654       -17.5147
  39   2.0000      -0.614759       -16.7284
  40   2.0000      -0.598881       -16.2964
  41   2.0000      -0.573091       -15.5946
  42   2.0000      -0.561317       -15.2742
  43   2.0000      -0.551234       -14.9998
  44   2.0000      -0.545465       -14.8429
  45   2.0000      -0.519798       -14.1444
  46   2.0000      -0.513031       -13.9603
  47   2.0000      -0.509081       -13.8528
  48   2.0000      -0.507694       -13.8151
  49   2.0000      -0.502371       -13.6702
  50   2.0000      -0.487762       -13.2727
  51   2.0000      -0.480182       -13.0664
  52   2.0000      -0.478655       -13.0249
  53   2.0000      -0.466490       -12.6938
  54   2.0000      -0.461981       -12.5711
  55   2.0000      -0.449824       -12.2403
  56   2.0000      -0.440429       -11.9847
  57   2.0000      -0.433389       -11.7931
  58   2.0000      -0.431987       -11.7550
  59   2.0000      -0.422966       -11.5095
  60   2.0000      -0.421347       -11.4654
  61   2.0000      -0.416565       -11.3353
  62   2.0000      -0.408129       -11.1057
  63   2.0000      -0.349355        -9.5064
  64   2.0000      -0.336131        -9.1466
  65   2.0000      -0.330357        -8.9895
  66   2.0000      -0.300572        -8.1790
  67   0.0000       0.032546         0.8856
  68   0.0000       0.068737         1.8704
  69   0.0000       0.113112         3.0779
  70   0.0000       0.120969         3.2917
  71   0.0000       0.138003         3.7553

MULLIKEN ATOMIC CHARGES
-----------------------
   0 S :    0.101323
   1 C :   -0.129790
   2 C :   -0.074842
   3 C :    0.025796
   4 C :   -0.158194
   5 H :    0.020670
   6 C :    0.049885
   7 H :    0.021855
   8 H :    0.029601
   9 C :   -0.052435
  10 H :    0.031976
  11 H :    0.031427
  12 C :   -0.056675
  13 H :    0.034978
  14 H :    0.015036
  15 H :    0.040097
  16 S :    0.108487
  17 C :   -0.079506
  18 C :   -0.031206
  19 C :   -0.012697
  20 C :   -0.161622
  21 H :    0.023594
  22 C :    0.057057
  23 H :    0.009659
  24 H :    0.024996
  25 C :   -0.044441
  26 H :    0.024092
  27 H :    0.023523
  28 C :   -0.039437
  29 H :    0.016368
  30 H :    0.004504
  31 H :    0.041150
  32 H :    0.050609
  33 H :    0.054161
Sum of atomic charges:    0.0000000

LOEWDIN ATOMIC CHARGES
----------------------
   0 S :    0.391889
   1 C :   -0.189949
   2 C :   -0.068753
   3 C :   -0.070009
   4 C :   -0.187286
   5 H :    0.036125
   6 C :   -0.028781
   7 H :    0.032802
   8 H :    0.026480
   9 C :   -0.032595
  10 H :    0.025098
  11 H :    0.023064
  12 C :   -0.071322
  13 H :    0.028118
  14 H :    0.013728
  15 H :    0.034125
  16 S :    0.392708
  17 C :   -0.173540
  18 C :   -0.069969
  19 C :   -0.063203
  20 C :   -0.188874
  21 H :    0.035436
  22 C :   -0.034175
  23 H :    0.028041
  24 H :    0.036055
  25 C :   -0.039607
  26 H :    0.030794
  27 H :    0.018025
  28 C :   -0.067809
  29 H :    0.013936
  30 H :    0.018327
  31 H :    0.036774
  32 H :    0.033469
  33 H :    0.030882

  Mayer bond orders larger than 0.100000
B(  0-S ,  1-C ) :   1.1206 B(  0-S ,  4-C ) :   1.1387 B(  1-C ,  2-C ) :   1.6446
B(  1-C , 32-H ) :   0.9647 B(  2-C ,  3-C ) :   1.2021 B(  2-C ,  6-C ) :   1.0251
B(  3-C ,  4-C ) :   1.6184 B(  3-C ,  5-H ) :   0.9884 B(  4-C , 20-C ) :   1.0238
B(  6-C ,  7-H ) :   0.9442 B(  6-C ,  8-H ) :   0.9411 B(  6-C ,  9-C ) :   1.0599
B(  9-C , 10-H ) :   0.9563 B(  9-C , 11-H ) :   0.9576 B(  9-C , 12-C ) :   1.0777
B( 12-C , 13-H ) :   0.9766 B( 12-C , 14-H ) :   0.9760 B( 12-C , 15-H ) :   0.9754
B( 16-S , 17-C ) :   1.1434 B( 16-S , 20-C ) :   1.1243 B( 17-C , 18-C ) :   1.6162
B( 17-C , 33-H ) :   0.9677 B( 18-C , 19-C ) :   1.2470 B( 18-C , 21-H ) :   0.9837
B( 19-C , 20-C ) :   1.6261 B( 19-C , 22-C ) :   1.0528 B( 22-C , 23-H ) :   0.9294
B( 22-C , 24-H ) :   0.9290 B( 22-C , 25-C ) :   1.0720 B( 25-C , 26-H ) :   0.9504
B( 25-C , 27-H ) :   0.9535 B( 25-C , 28-C ) :   1.0878 B( 28-C , 29-H ) :   0.9718
B( 28-C , 30-H ) :   0.9693 B( 28-C , 31-H ) :   0.9708

Dispersion correction           -0.014676294
FINAL SINGLE POINT ENERGY     -1339.887781569961

DIPOLE MOMENT
-------------
                                X             Y             Z
Electronic contribution:    -16.50293     -10.82086      13.06340
Nuclear contribution   :     16.72222      11.20814     -13.46125
                        -----------------------------------------
Total Dipole Moment    :      0.21929       0.38728      -0.39785
                        -----------------------------------------
Magnitude (a.u.)       :      0.59695
Magnitude (Debye)      :      1.51734

Rotational constants in cm-1:     0.022074     0.007538     0.006835
Rotational constants in MHz :   661.758196   225.973853   204.910403

                             ****ORCA TERMINATED NORMALLY****
TOTAL RUN TIME: 0 days 0 hours 0 minutes 20 seconds 741 msec
