                         Program Version 4.2.1 -  RELEASE  -
|  1> ! wB97X-D3 SP def2-SVP
|  2> %pal
|  3> nprocs 24
|  4> end
|  5>
|  6> * xyz 0 1
|  7> S 	 -70.5698 	 -43.867 	 -93.0032
|  8> C 	 -70.5347 	 -42.0801 	 -92.8959
|  9> C 	 -70.6099 	 -41.4793 	 -94.1385
| 10> C 	 -70.7329 	 -42.4402 	 -95.2
| 11> C 	 -70.7761 	 -43.7502 	 -94.775
| 12> H 	 -70.819 	 -42.3154 	 -96.2892
| 13> C 	 -70.5995 	 -39.954 	 -94.4957
| 14> H 	 -71.4243 	 -39.4421 	 -93.9975
| 15> H 	 -70.817 	 -39.6953 	 -95.4961
| 16> C 	 -69.2974 	 -39.2453 	 -94.0681
| 17> H 	 -69.4212 	 -38.1583 	 -94.3623
| 18> H 	 -69.0927 	 -39.366 	 -92.9695
| 19> C 	 -68.1586 	 -39.8024 	 -94.9847
| 20> H 	 -67.2291 	 -39.5306 	 -94.6059
| 21> H 	 -68.1821 	 -40.875 	 -95.2211
| 22> H 	 -68.3736 	 -39.3735 	 -96.0062
| 23> S 	 -69.3335 	 -45.9806 	 -95.6087
| 24> C 	 -69.9786 	 -46.9939 	 -96.8421
| 25> C 	 -71.2493 	 -46.6347 	 -97.3448
| 26> C 	 -71.6912 	 -45.4437 	 -96.6592
| 27> C 	 -70.7146 	 -44.9013 	 -95.7548
| 28> H 	 -71.6115 	 -47.1545 	 -98.1696
| 29> C 	 -73.0838 	 -44.9931 	 -96.964
| 30> H 	 -73.598 	 -45.8859 	 -97.345
| 31> H 	 -73.0986 	 -44.3498 	 -97.8398
| 32> C 	 -73.9643 	 -44.3984 	 -95.8807
| 33> H 	 -74.9521 	 -44.2653 	 -96.309
| 34> H 	 -73.6329 	 -43.3963 	 -95.5878
| 35> C 	 -74.267 	 -45.3393 	 -94.6327
| 36> H 	 -75.1765 	 -45.1629 	 -94.0444
| 37> H 	 -73.5209 	 -45.1579 	 -93.9304
| 38> H 	 -74.2393 	 -46.3777 	 -94.9225
| 39> H 	 -70.629 	 -41.6058 	 -91.8891
| 40> H 	 -69.513 	 -47.8031 	 -97.3442
| 41> *
| 42>
| 43>                          ****END OF INPUT****

CARTESIAN COORDINATES (ANGSTROEM)
---------------------------------
  S    -70.569800  -43.867000  -93.003200
  C    -70.534700  -42.080100  -92.895900
  C    -70.609900  -41.479300  -94.138500
  C    -70.732900  -42.440200  -95.200000
  C    -70.776100  -43.750200  -94.775000
  H    -70.819000  -42.315400  -96.289200
  C    -70.599500  -39.954000  -94.495700
  H    -71.424300  -39.442100  -93.997500
  H    -70.817000  -39.695300  -95.496100
  C    -69.297400  -39.245300  -94.068100
  H    -69.421200  -38.158300  -94.362300
  H    -69.092700  -39.366000  -92.969500
  C    -68.158600  -39.802400  -94.984700
  H    -67.229100  -39.530600  -94.605900
  H    -68.182100  -40.875000  -95.221100
  H    -68.373600  -39.373500  -96.006200
  S    -69.333500  -45.980600  -95.608700
  C    -69.978600  -46.993900  -96.842100
  C    -71.249300  -46.634700  -97.344800
  C    -71.691200  -45.443700  -96.659200
  C    -70.714600  -44.901300  -95.754800
  H    -71.611500  -47.154500  -98.169600
  C    -73.083800  -44.993100  -96.964000
  H    -73.598000  -45.885900  -97.345000
  H    -73.098600  -44.349800  -97.839800
  C    -73.964300  -44.398400  -95.880700
  H    -74.952100  -44.265300  -96.309000
  H    -73.632900  -43.396300  -95.587800
  C    -74.267000  -45.339300  -94.632700
  H    -75.176500  -45.162900  -94.044400
  H    -73.520900  -45.157900  -93.930400
  H    -74.239300  -46.377700  -94.922500
  H    -70.629000  -41.605800  -91.889100
  H    -69.513000  -47.803100  -97.344200

 Total Charge           Charge          ....    0
 Multiplicity           Mult            ....    1
 Number of Electrons    NEL             ....  134
 Basis Dimension        Dim             ....  322

ORBITAL ENERGIES
----------------

  NO   OCC          E(Eh)            E(eV)
   0   2.0000     -88.971074     -2421.0260
   1   2.0000     -88.970116     -2420.9999
   2   2.0000     -10.334761      -281.2231
   3   2.0000     -10.333691      -281.1940
   4   2.0000     -10.324815      -280.9525
   5   2.0000     -10.314278      -280.6658
   6   2.0000     -10.311576      -280.5923
   7   2.0000     -10.310887      -280.5735
   8   2.0000     -10.296252      -280.1752
   9   2.0000     -10.296098      -280.1711
  10   2.0000     -10.293366      -280.0967
  11   2.0000     -10.292267      -280.0668
  12   2.0000     -10.288806      -279.9727
  13   2.0000     -10.282261      -279.7945
  14   2.0000     -10.273614      -279.5592
  15   2.0000     -10.265123      -279.3282
  16   2.0000      -8.085612      -220.0207
  17   2.0000      -8.083312      -219.9581
  18   2.0000      -6.044031      -164.4665
  19   2.0000      -6.041961      -164.4101
  20   2.0000      -6.040082      -164.3590
  21   2.0000      -6.038101      -164.3051
  22   2.0000      -6.036557      -164.2631
  23   2.0000      -6.033942      -164.1919
  24   2.0000      -0.997676       -27.1481
  25   2.0000      -0.978141       -26.6166
  26   2.0000      -0.905851       -24.6495
  27   2.0000      -0.904834       -24.6218
  28   2.0000      -0.861668       -23.4472
  29   2.0000      -0.844976       -22.9930
  30   2.0000      -0.840265       -22.8648
  31   2.0000      -0.809089       -22.0164
  32   2.0000      -0.782749       -21.2997
  33   2.0000      -0.772199       -21.0126
  34   2.0000      -0.708893       -19.2900
  35   2.0000      -0.695597       -18.9282
  36   2.0000      -0.678750       -18.4697
  37   2.0000      -0.662102       -18.0167
  38   2.0000      -0.642970       -17.4961
  39   2.0000      -0.609671       -16.5900
  40   2.0000      -0.586441       -15.9579
  41   2.0000      -0.577011       -15.7013
  42   2.0000      -0.553581       -15.0637
  43   2.0000      -0.548981       -14.9385
  44   2.0000      -0.536627       -14.6024
  45   2.0000      -0.534802       -14.5527
  46   2.0000      -0.512679       -13.9507
  47   2.0000      -0.510880       -13.9017
  48   2.0000      -0.494181       -13.4473
  49   2.0000      -0.489820       -13.3287
  50   2.0000      -0.481788       -13.1101
  51   2.0000      -0.475002       -12.9255
  52   2.0000      -0.469628       -12.7792
  53   2.0000      -0.463993       -12.6259
  54   2.0000      -0.458180       -12.4677
  55   2.0000      -0.446498       -12.1498
  56   2.0000      -0.441549       -12.0152
  57   2.0000      -0.437295       -11.8994
  58   2.0000      -0.434341       -11.8190
  59   2.0000      -0.419861       -11.4250
  60   2.0000      -0.415047       -11.2940
  61   2.0000      -0.414167       -11.2701
  62   2.0000      -0.404428       -11.0051
  63   2.0000      -0.342016        -9.3067
  64   2.0000      -0.331609        -9.0236
  65   2.0000      -0.329472        -8.9654
  66   2.0000      -0.294454        -8.0125
  67   0.0000       0.033578         0.9137
  68   0.0000       0.056267         1.5311
  69   0.0000       0.107255         2.9186
  70   0.0000       0.119026         3.2389
  71   0.0000       0.122476         3.3327

MULLIKEN ATOMIC CHARGES
-----------------------
   0 S :    0.101846
   1 C :   -0.160670
   2 C :   -0.043306
   3 C :    0.023084
   4 C :   -0.152875
   5 H :    0.027414
   6 C :    0.080782
   7 H :    0.027757
   8 H :    0.005721
   9 C :   -0.115010
  10 H :    0.044770
  11 H :    0.048762
  12 C :   -0.045297
  13 H :    0.027706
  14 H :    0.044260
  15 H :    0.021173
  16 S :    0.129078
  17 C :   -0.074473
  18 C :   -0.039390
  19 C :   -0.022941
  20 C :   -0.180902
  21 H :    0.005882
  22 C :    0.050387
  23 H :    0.017185
  24 H :    0.035830
  25 C :   -0.063225
  26 H :    0.021665
  27 H :    0.034853
  28 C :   -0.033716
  29 H :    0.031392
  30 H :    0.012066
  31 H :    0.026504
  32 H :    0.074787
  33 H :    0.038903
Sum of atomic charges:   -0.0000000

LOEWDIN ATOMIC CHARGES
----------------------
   0 S :    0.372964
   1 C :   -0.188671
   2 C :   -0.057378
   3 C :   -0.065563
   4 C :   -0.185640
   5 H :    0.038736
   6 C :   -0.029376
   7 H :    0.030782
   8 H :    0.022293
   9 C :   -0.041816
  10 H :    0.031507
  11 H :    0.025864
  12 C :   -0.066043
  13 H :    0.013596
  14 H :    0.028395
  15 H :    0.029716
  16 S :    0.425887
  17 C :   -0.187074
  18 C :   -0.064629
  19 C :   -0.047744
  20 C :   -0.208313
  21 H :    0.024106
  22 C :   -0.039751
  23 H :    0.033903
  24 H :    0.035859
  25 C :   -0.039237
  26 H :    0.024107
  27 H :    0.023271
  28 C :   -0.063717
  29 H :    0.028421
  30 H :    0.012825
  31 H :    0.023384
  32 H :    0.038010
  33 H :    0.021328

  Mayer bond orders larger than 0.100000
B(  0-S ,  1-C ) :   1.1260 B(  0-S ,  4-C ) :   1.1339 B(  1-C ,  2-C ) :   1.6290
B(  1-C , 32-H ) :   0.9624 B(  2-C ,  3-C ) :   1.2112 B(  2-C ,  6-C ) :   1.0032
B(  3-C ,  4-C ) :   1.6125 B(  3-C ,  5-H ) :   0.9867 B(  4-C , 20-C ) :   1.0202
B(  6-C ,  7-H ) :   0.9387 B(  6-C ,  8-H ) :   0.9494 B(  6-C ,  9-C ) :   1.0730
B(  9-C , 10-H ) :   0.9581 B(  9-C , 11-H ) :   0.9610 B(  9-C , 12-C ) :   1.0541
B( 12-C , 13-H ) :   0.9776 B( 12-C , 14-H ) :   0.9800 B( 12-C , 15-H ) :   0.9741
B( 16-S , 17-C ) :   1.1772 B( 16-S , 20-C ) :   1.1386 B( 17-C , 18-C ) :   1.6111
B( 17-C , 33-H ) :   0.9639 B( 18-C , 19-C ) :   1.2461 B( 18-C , 21-H ) :   0.9970
B( 19-C , 20-C ) :   1.5723 B( 19-C , 22-C ) :   1.0297 B( 22-C , 23-H ) :   0.9360
B( 22-C , 24-H ) :   0.9255 B( 22-C , 25-C ) :   1.0930 B( 25-C , 26-H ) :   0.9526
B( 25-C , 27-H ) :   0.9532 B( 25-C , 28-C ) :   1.0594 B( 28-C , 29-H ) :   0.9793
B( 28-C , 30-H ) :   0.9740 B( 28-C , 31-H ) :   0.9770

Dispersion correction           -0.015427350
FINAL SINGLE POINT ENERGY     -1339.857772803117

DIPOLE MOMENT
-------------
                                X             Y             Z
Electronic contribution:      9.34689     -16.00201       4.40606
Nuclear contribution   :     -9.62094      16.36072      -4.79814
                        -----------------------------------------
Total Dipole Moment    :     -0.27406       0.35871      -0.39207
                        -----------------------------------------
Magnitude (a.u.)       :      0.59791
Magnitude (Debye)      :      1.51977

Rotational constants in cm-1:     0.020402     0.008543     0.007621
Rotational constants in MHz :   611.633193   256.106108   228.469175

                             ****ORCA TERMINATED NORMALLY****
TOTAL RUN TIME: 0 days 0 hours 0 minutes 22 seconds 150 msec
