                         Program Version 4.2.1 -  RELEASE  -
|  1> ! wB97X-D3 SP def2-SVP
|  2> %pal
|  3> nprocs 24
|  4> end
|  5>
|  6> * xyz 0 1
|  7> S 	 -63.0336 	 8.52386 	 -68.1738
|  8> C 	 -63.9375 	 9.0104 	 -69.5432
|  9> C 	 -65.2434 	 8.46352 	 -69.6054
| 10> C 	 -65.4216 	 7.55539 	 -68.5217
| 11> C 	 -64.2603 	 7.37524 	 -67.6968
| 12> H 	 -66.3513 	 6.97756 	 -68.3633
| 13> C 	 -66.0741 	 8.57975 	 -70.8222
| 14> H 	 -66.0102 	 7.5663 	 -71.2993
| 15> H 	 -65.4995 	 9.28199 	 -71.4428
| 16> C 	 -67.5438 	 9.14449 	 -70.5475
| 17> H 	 -67.3969 	 10.1976 	 -70.0964
| 18> H 	 -68.0032 	 9.36555 	 -71.5515
| 19> C 	 -68.5053 	 8.22065 	 -69.7433
| 20> H 	 -68.2403 	 7.84319 	 -68.7954
| 21> H 	 -69.5686 	 8.57079 	 -69.7175
| 22> H 	 -68.621 	 7.29713 	 -70.2984
| 23> S 	 -63.6934 	 6.96359 	 -65.0015
| 24> C 	 -63.5088 	 5.32522 	 -64.3989
| 25> C 	 -63.7715 	 4.38385 	 -65.41
| 26> C 	 -64.1367 	 5.06423 	 -66.6166
| 27> C 	 -64.1075 	 6.46285 	 -66.5812
| 28> H 	 -63.7294 	 3.31507 	 -65.3317
| 29> C 	 -64.4208 	 4.23503 	 -67.8723
| 30> H 	 -63.7041 	 3.37965 	 -67.7386
| 31> H 	 -64.0963 	 4.78906 	 -68.6965
| 32> C 	 -65.8285 	 3.7535 	 -67.9947
| 33> H 	 -66.4944 	 4.47068 	 -67.4875
| 34> H 	 -65.9695 	 2.86167 	 -67.488
| 35> C 	 -66.2574 	 3.56439 	 -69.3849
| 36> H 	 -67.2571 	 3.33205 	 -69.6604
| 37> H 	 -65.6284 	 2.82615 	 -69.7529
| 38> H 	 -65.9788 	 4.49599 	 -69.917
| 39> H 	 -63.5761 	 9.53089 	 -70.4132
| 40> H 	 -63.2014 	 5.07277 	 -63.3936
| 41> *
| 42>
| 43>                          ****END OF INPUT****

CARTESIAN COORDINATES (ANGSTROEM)
---------------------------------
  S    -63.033600    8.523860  -68.173800
  C    -63.937500    9.010400  -69.543200
  C    -65.243400    8.463520  -69.605400
  C    -65.421600    7.555390  -68.521700
  C    -64.260300    7.375240  -67.696800
  H    -66.351300    6.977560  -68.363300
  C    -66.074100    8.579750  -70.822200
  H    -66.010200    7.566300  -71.299300
  H    -65.499500    9.281990  -71.442800
  C    -67.543800    9.144490  -70.547500
  H    -67.396900   10.197600  -70.096400
  H    -68.003200    9.365550  -71.551500
  C    -68.505300    8.220650  -69.743300
  H    -68.240300    7.843190  -68.795400
  H    -69.568600    8.570790  -69.717500
  H    -68.621000    7.297130  -70.298400
  S    -63.693400    6.963590  -65.001500
  C    -63.508800    5.325220  -64.398900
  C    -63.771500    4.383850  -65.410000
  C    -64.136700    5.064230  -66.616600
  C    -64.107500    6.462850  -66.581200
  H    -63.729400    3.315070  -65.331700
  C    -64.420800    4.235030  -67.872300
  H    -63.704100    3.379650  -67.738600
  H    -64.096300    4.789060  -68.696500
  C    -65.828500    3.753500  -67.994700
  H    -66.494400    4.470680  -67.487500
  H    -65.969500    2.861670  -67.488000
  C    -66.257400    3.564390  -69.384900
  H    -67.257100    3.332050  -69.660400
  H    -65.628400    2.826150  -69.752900
  H    -65.978800    4.495990  -69.917000
  H    -63.576100    9.530890  -70.413200
  H    -63.201400    5.072770  -63.393600

 Total Charge           Charge          ....    0
 Multiplicity           Mult            ....    1
 Number of Electrons    NEL             ....  134
 Basis Dimension        Dim             ....  322

ORBITAL ENERGIES
----------------

  NO   OCC          E(Eh)            E(eV)
   0   2.0000     -88.972004     -2421.0513
   1   2.0000     -88.966980     -2420.9146
   2   2.0000     -10.334224      -281.2085
   3   2.0000     -10.322816      -280.8981
   4   2.0000     -10.321897      -280.8731
   5   2.0000     -10.311799      -280.5983
   6   2.0000     -10.308388      -280.5055
   7   2.0000     -10.301709      -280.3238
   8   2.0000     -10.301582      -280.3203
   9   2.0000     -10.299778      -280.2712
  10   2.0000     -10.299550      -280.2650
  11   2.0000     -10.296766      -280.1892
  12   2.0000     -10.282762      -279.8082
  13   2.0000     -10.282245      -279.7941
  14   2.0000     -10.271348      -279.4976
  15   2.0000     -10.264804      -279.3195
  16   2.0000      -8.086892      -220.0555
  17   2.0000      -8.082103      -219.9252
  18   2.0000      -6.045222      -164.4989
  19   2.0000      -6.041272      -164.3914
  20   2.0000      -6.040556      -164.3719
  21   2.0000      -6.037942      -164.3008
  22   2.0000      -6.036386      -164.2584
  23   2.0000      -6.033073      -164.1683
  24   2.0000      -1.006997       -27.4018
  25   2.0000      -0.985010       -26.8035
  26   2.0000      -0.921325       -25.0705
  27   2.0000      -0.908094       -24.7105
  28   2.0000      -0.866854       -23.5883
  29   2.0000      -0.855495       -23.2792
  30   2.0000      -0.846719       -23.0404
  31   2.0000      -0.815417       -22.1886
  32   2.0000      -0.784157       -21.3380
  33   2.0000      -0.768093       -20.9009
  34   2.0000      -0.708893       -19.2899
  35   2.0000      -0.701540       -19.0899
  36   2.0000      -0.696598       -18.9554
  37   2.0000      -0.665668       -18.1138
  38   2.0000      -0.635526       -17.2935
  39   2.0000      -0.617477       -16.8024
  40   2.0000      -0.595640       -16.2082
  41   2.0000      -0.573832       -15.6148
  42   2.0000      -0.568416       -15.4674
  43   2.0000      -0.546037       -14.8584
  44   2.0000      -0.533502       -14.5173
  45   2.0000      -0.531889       -14.4734
  46   2.0000      -0.525028       -14.2868
  47   2.0000      -0.512811       -13.9543
  48   2.0000      -0.504122       -13.7179
  49   2.0000      -0.497920       -13.5491
  50   2.0000      -0.493776       -13.4363
  51   2.0000      -0.480494       -13.0749
  52   2.0000      -0.478033       -13.0079
  53   2.0000      -0.466950       -12.7064
  54   2.0000      -0.460786       -12.5386
  55   2.0000      -0.446340       -12.1455
  56   2.0000      -0.441684       -12.0188
  57   2.0000      -0.438856       -11.9419
  58   2.0000      -0.432074       -11.7573
  59   2.0000      -0.428788       -11.6679
  60   2.0000      -0.422945       -11.5089
  61   2.0000      -0.417619       -11.3640
  62   2.0000      -0.404537       -11.0080
  63   2.0000      -0.343050        -9.3349
  64   2.0000      -0.330363        -8.9896
  65   2.0000      -0.328846        -8.9484
  66   2.0000      -0.290135        -7.8950
  67   0.0000       0.030995         0.8434
  68   0.0000       0.060966         1.6590
  69   0.0000       0.110377         3.0035
  70   0.0000       0.122456         3.3322
  71   0.0000       0.124603         3.3906

MULLIKEN ATOMIC CHARGES
-----------------------
   0 S :    0.145773
   1 C :   -0.115932
   2 C :   -0.102059
   3 C :    0.027717
   4 C :   -0.186130
   5 H :    0.018687
   6 C :    0.031221
   7 H :    0.057811
   8 H :    0.017794
   9 C :   -0.088496
  10 H :    0.048929
  11 H :    0.040922
  12 C :   -0.045726
  13 H :    0.033976
  14 H :    0.042931
  15 H :    0.015821
  16 S :    0.116289
  17 C :   -0.101368
  18 C :   -0.002794
  19 C :   -0.098388
  20 C :   -0.143538
  21 H :    0.016836
  22 C :    0.075611
  23 H :    0.024753
  24 H :    0.014016
  25 C :   -0.013437
  26 H :    0.024765
  27 H :    0.002223
  28 C :   -0.014234
  29 H :    0.027953
  30 H :    0.007688
  31 H :    0.016558
  32 H :    0.044095
  33 H :    0.059733
Sum of atomic charges:    0.0000000

LOEWDIN ATOMIC CHARGES
----------------------
   0 S :    0.437720
   1 C :   -0.216237
   2 C :   -0.068566
   3 C :   -0.060718
   4 C :   -0.201321
   5 H :    0.031620
   6 C :   -0.037286
   7 H :    0.040499
   8 H :    0.032091
   9 C :   -0.042300
  10 H :    0.034896
  11 H :    0.030179
  12 C :   -0.075618
  13 H :    0.016719
  14 H :    0.037100
  15 H :    0.026502
  16 S :    0.427738
  17 C :   -0.183216
  18 C :   -0.067290
  19 C :   -0.050345
  20 C :   -0.231549
  21 H :    0.030589
  22 C :   -0.024166
  23 H :    0.035510
  24 H :    0.020195
  25 C :   -0.039982
  26 H :    0.022151
  27 H :    0.014472
  28 C :   -0.056898
  29 H :    0.021472
  30 H :    0.017595
  31 H :    0.025395
  32 H :    0.024819
  33 H :    0.028230

  Mayer bond orders larger than 0.100000
B(  0-S ,  1-C ) :   1.1679 B(  0-S ,  4-C ) :   1.1659 B(  1-C ,  2-C ) :   1.5709
B(  1-C ,  4-C ) :   0.1073 B(  1-C , 32-H ) :   0.9597 B(  2-C ,  3-C ) :   1.2783
B(  2-C ,  6-C ) :   1.0262 B(  3-C ,  4-C ) :   1.5238 B(  3-C ,  5-H ) :   0.9820
B(  4-C , 20-C ) :   1.0581 B(  6-C ,  7-H ) :   0.9429 B(  6-C ,  8-H ) :   0.9348
B(  6-C ,  9-C ) :   1.0569 B(  9-C , 10-H ) :   0.9562 B(  9-C , 11-H ) :   0.9578
B(  9-C , 12-C ) :   1.0645 B( 12-C , 13-H ) :   0.9751 B( 12-C , 14-H ) :   0.9711
B( 12-C , 15-H ) :   0.9709 B( 16-S , 17-C ) :   1.1788 B( 16-S , 20-C ) :   1.1422
B( 17-C , 18-C ) :   1.5499 B( 17-C , 33-H ) :   0.9703 B( 18-C , 19-C ) :   1.2921
B( 18-C , 21-H ) :   0.9920 B( 19-C , 20-C ) :   1.5580 B( 19-C , 22-C ) :   1.0473
B( 22-C , 23-H ) :   0.9291 B( 22-C , 24-H ) :   0.9358 B( 22-C , 25-C ) :   1.0503
B( 25-C , 26-H ) :   0.9576 B( 25-C , 27-H ) :   0.9417 B( 25-C , 28-C ) :   1.0911
B( 28-C , 29-H ) :   0.9729 B( 28-C , 30-H ) :   0.9670 B( 28-C , 31-H ) :   0.9742

Dispersion correction           -0.015285084
FINAL SINGLE POINT ENERGY     -1339.864802494220

DIPOLE MOMENT
-------------
                                X             Y             Z
Electronic contribution:     21.21914      10.16351      18.67559
Nuclear contribution   :    -21.53368     -10.61430     -19.14101
                        -----------------------------------------
Total Dipole Moment    :     -0.31454      -0.45079      -0.46542
                        -----------------------------------------
Magnitude (a.u.)       :      0.72025
Magnitude (Debye)      :      1.83074

Rotational constants in cm-1:     0.017851     0.009776     0.007451
Rotational constants in MHz :   535.169651   293.073367   223.385939

                             ****ORCA TERMINATED NORMALLY****
TOTAL RUN TIME: 0 days 0 hours 0 minutes 22 seconds 665 msec
