                         Program Version 4.2.1 -  RELEASE  -
|  1> ! wB97X-D3 SP def2-SVP
|  2> %pal
|  3> nprocs 24
|  4> end
|  5>
|  6> * xyz 0 1
|  7> S 	 21.0351 	 -6.07547 	 -111.238
|  8> C 	 21.6458 	 -7.33177 	 -110.267
|  9> C 	 21.6086 	 -8.60074 	 -110.868
| 10> C 	 21.1147 	 -8.46418 	 -112.202
| 11> C 	 20.647 	 -7.21009 	 -112.545
| 12> H 	 20.982 	 -9.3406 	 -112.848
| 13> C 	 22.0247 	 -9.97599 	 -110.316
| 14> H 	 21.3625 	 -10.7957 	 -110.749
| 15> H 	 21.8065 	 -9.89402 	 -109.266
| 16> C 	 23.5159 	 -10.3624 	 -110.205
| 17> H 	 24.2019 	 -9.55646 	 -109.904
| 18> H 	 23.5843 	 -11.0638 	 -109.357
| 19> C 	 24.1262 	 -11.1244 	 -111.421
| 20> H 	 24.2733 	 -10.5 	 -112.318
| 21> H 	 25.1415 	 -11.5188 	 -111.197
| 22> H 	 23.4336 	 -11.8832 	 -111.729
| 23> S 	 21.1088 	 -5.83654 	 -114.999
| 24> C 	 19.985 	 -6.09629 	 -116.297
| 25> C 	 18.9243 	 -6.82801 	 -115.824
| 26> C 	 18.9734 	 -7.10802 	 -114.417
| 27> C 	 20.1381 	 -6.78156 	 -113.828
| 28> H 	 18.1264 	 -7.10522 	 -116.524
| 29> C 	 17.9293 	 -7.94876 	 -113.767
| 30> H 	 17.8827 	 -7.56225 	 -112.793
| 31> H 	 18.3506 	 -8.91221 	 -113.816
| 32> C 	 16.5275 	 -8.03255 	 -114.263
| 33> H 	 16.5882 	 -8.32115 	 -115.26
| 34> H 	 15.9969 	 -7.106 	 -114.255
| 35> C 	 15.6708 	 -9.07106 	 -113.512
| 36> H 	 15.4914 	 -8.9404 	 -112.475
| 37> H 	 16.138 	 -10.0486 	 -113.701
| 38> H 	 14.7247 	 -9.26511 	 -114.024
| 39> H 	 22.0309 	 -7.29631 	 -109.251
| 40> H 	 20.2141 	 -5.96952 	 -117.344
| 41> *
| 42>
| 43>                          ****END OF INPUT****

CARTESIAN COORDINATES (ANGSTROEM)
---------------------------------
  S     21.035100   -6.075470  -111.238000
  C     21.645800   -7.331770  -110.267000
  C     21.608600   -8.600740  -110.868000
  C     21.114700   -8.464180  -112.202000
  C     20.647000   -7.210090  -112.545000
  H     20.982000   -9.340600  -112.848000
  C     22.024700   -9.975990  -110.316000
  H     21.362500  -10.795700  -110.749000
  H     21.806500   -9.894020  -109.266000
  C     23.515900  -10.362400  -110.205000
  H     24.201900   -9.556460  -109.904000
  H     23.584300  -11.063800  -109.357000
  C     24.126200  -11.124400  -111.421000
  H     24.273300  -10.500000  -112.318000
  H     25.141500  -11.518800  -111.197000
  H     23.433600  -11.883200  -111.729000
  S     21.108800   -5.836540  -114.999000
  C     19.985000   -6.096290  -116.297000
  C     18.924300   -6.828010  -115.824000
  C     18.973400   -7.108020  -114.417000
  C     20.138100   -6.781560  -113.828000
  H     18.126400   -7.105220  -116.524000
  C     17.929300   -7.948760  -113.767000
  H     17.882700   -7.562250  -112.793000
  H     18.350600   -8.912210  -113.816000
  C     16.527500   -8.032550  -114.263000
  H     16.588200   -8.321150  -115.260000
  H     15.996900   -7.106000  -114.255000
  C     15.670800   -9.071060  -113.512000
  H     15.491400   -8.940400  -112.475000
  H     16.138000  -10.048600  -113.701000
  H     14.724700   -9.265110  -114.024000
  H     22.030900   -7.296310  -109.251000
  H     20.214100   -5.969520  -117.344000

 Total Charge           Charge          ....    0
 Multiplicity           Mult            ....    1
 Number of Electrons    NEL             ....  134
 Basis Dimension        Dim             ....  322

ORBITAL ENERGIES
----------------

  NO   OCC          E(Eh)            E(eV)
   0   2.0000     -88.970306     -2421.0051
   1   2.0000     -88.957937     -2420.6685
   2   2.0000     -10.328103      -281.0420
   3   2.0000     -10.320114      -280.8246
   4   2.0000     -10.315391      -280.6961
   5   2.0000     -10.315039      -280.6865
   6   2.0000     -10.302484      -280.3448
   7   2.0000     -10.302225      -280.3378
   8   2.0000     -10.295725      -280.1609
   9   2.0000     -10.295124      -280.1446
  10   2.0000     -10.293972      -280.1132
  11   2.0000     -10.291119      -280.0356
  12   2.0000     -10.278809      -279.7006
  13   2.0000     -10.276314      -279.6327
  14   2.0000     -10.276124      -279.6275
  15   2.0000     -10.273795      -279.5642
  16   2.0000      -8.085122      -220.0074
  17   2.0000      -8.072740      -219.6704
  18   2.0000      -6.043584      -164.4543
  19   2.0000      -6.039522      -164.3438
  20   2.0000      -6.036017      -164.2484
  21   2.0000      -6.031431      -164.1236
  22   2.0000      -6.027137      -164.0067
  23   2.0000      -6.023378      -163.9045
  24   2.0000      -1.007034       -27.4028
  25   2.0000      -0.985958       -26.8293
  26   2.0000      -0.918067       -24.9819
  27   2.0000      -0.906004       -24.6536
  28   2.0000      -0.872923       -23.7534
  29   2.0000      -0.850302       -23.1379
  30   2.0000      -0.846611       -23.0374
  31   2.0000      -0.812668       -22.1138
  32   2.0000      -0.784634       -21.3510
  33   2.0000      -0.775001       -21.0889
  34   2.0000      -0.710645       -19.3376
  35   2.0000      -0.702652       -19.1201
  36   2.0000      -0.700015       -19.0484
  37   2.0000      -0.652153       -17.7460
  38   2.0000      -0.638247       -17.3676
  39   2.0000      -0.616204       -16.7678
  40   2.0000      -0.597894       -16.2695
  41   2.0000      -0.584511       -15.9054
  42   2.0000      -0.571382       -15.5481
  43   2.0000      -0.544124       -14.8064
  44   2.0000      -0.537760       -14.6332
  45   2.0000      -0.528819       -14.3899
  46   2.0000      -0.515773       -14.0349
  47   2.0000      -0.514540       -14.0014
  48   2.0000      -0.507435       -13.8080
  49   2.0000      -0.500279       -13.6133
  50   2.0000      -0.487184       -13.2569
  51   2.0000      -0.479539       -13.0489
  52   2.0000      -0.474542       -12.9130
  53   2.0000      -0.466967       -12.7068
  54   2.0000      -0.458563       -12.4781
  55   2.0000      -0.448150       -12.1948
  56   2.0000      -0.444371       -12.0920
  57   2.0000      -0.440414       -11.9843
  58   2.0000      -0.428086       -11.6488
  59   2.0000      -0.424959       -11.5637
  60   2.0000      -0.420256       -11.4357
  61   2.0000      -0.413647       -11.2559
  62   2.0000      -0.409332       -11.1385
  63   2.0000      -0.341641        -9.2965
  64   2.0000      -0.326977        -8.8975
  65   2.0000      -0.325242        -8.8503
  66   2.0000      -0.301252        -8.1975
  67   0.0000       0.039372         1.0714
  68   0.0000       0.055093         1.4991
  69   0.0000       0.114872         3.1258
  70   0.0000       0.126373         3.4388
  71   0.0000       0.137256         3.7349

MULLIKEN ATOMIC CHARGES
-----------------------
   0 S :    0.138558
   1 C :   -0.101721
   2 C :   -0.113568
   3 C :    0.045111
   4 C :   -0.206545
   5 H :    0.016511
   6 C :    0.058589
   7 H :    0.046839
   8 H :    0.019443
   9 C :   -0.074045
  10 H :    0.033235
  11 H :    0.027677
  12 C :   -0.060361
  13 H :    0.036171
  14 H :    0.040148
  15 H :    0.020794
  16 S :    0.092779
  17 C :   -0.079703
  18 C :   -0.067945
  19 C :   -0.036782
  20 C :   -0.149251
  21 H :    0.029353
  22 C :    0.117737
  23 H :    0.020534
  24 H :    0.018683
  25 C :   -0.042187
  26 H :    0.003394
  27 H :    0.024327
  28 C :   -0.037148
  29 H :    0.037780
  30 H :    0.014071
  31 H :    0.024715
  32 H :    0.040529
  33 H :    0.062280
Sum of atomic charges:   -0.0000000

LOEWDIN ATOMIC CHARGES
----------------------
   0 S :    0.427607
   1 C :   -0.212077
   2 C :   -0.070652
   3 C :   -0.050839
   4 C :   -0.197906
   5 H :    0.032381
   6 C :   -0.037402
   7 H :    0.041902
   8 H :    0.034094
   9 C :   -0.041999
  10 H :    0.028260
  11 H :    0.025783
  12 C :   -0.072235
  13 H :    0.026139
  14 H :    0.029960
  15 H :    0.018238
  16 S :    0.384244
  17 C :   -0.182356
  18 C :   -0.081689
  19 C :   -0.050048
  20 C :   -0.198542
  21 H :    0.032593
  22 C :   -0.027430
  23 H :    0.029396
  24 H :    0.031598
  25 C :   -0.033218
  26 H :    0.013708
  27 H :    0.021813
  28 C :   -0.060020
  29 H :    0.020542
  30 H :    0.025717
  31 H :    0.029019
  32 H :    0.030042
  33 H :    0.033375

  Mayer bond orders larger than 0.100000
B(  0-S ,  1-C ) :   1.1688 B(  0-S ,  4-C ) :   1.1356 B(  1-C ,  2-C ) :   1.5961
B(  1-C ,  4-C ) :   0.1001 B(  1-C , 32-H ) :   0.9577 B(  2-C ,  3-C ) :   1.2744
B(  2-C ,  6-C ) :   1.0192 B(  3-C ,  4-C ) :   1.5734 B(  3-C ,  5-H ) :   0.9855
B(  4-C , 20-C ) :   1.0482 B(  6-C ,  7-H ) :   0.9461 B(  6-C ,  8-H ) :   0.9307
B(  6-C ,  9-C ) :   1.0617 B(  9-C , 10-H ) :   0.9544 B(  9-C , 11-H ) :   0.9589
B(  9-C , 12-C ) :   1.0766 B( 12-C , 13-H ) :   0.9778 B( 12-C , 14-H ) :   0.9745
B( 12-C , 15-H ) :   0.9766 B( 16-S , 17-C ) :   1.1591 B( 16-S , 20-C ) :   1.1094
B( 17-C , 18-C ) :   1.6255 B( 17-C , 33-H ) :   0.9636 B( 18-C , 19-C ) :   1.2161
B( 18-C , 21-H ) :   0.9855 B( 19-C , 20-C ) :   1.6350 B( 19-C , 22-C ) :   1.0426
B( 22-C , 23-H ) :   0.9161 B( 22-C , 24-H ) :   0.9240 B( 22-C , 25-C ) :   1.0886
B( 25-C , 26-H ) :   0.9375 B( 25-C , 27-H ) :   0.9552 B( 25-C , 28-C ) :   1.0944
B( 28-C , 29-H ) :   0.9792 B( 28-C , 30-H ) :   0.9706 B( 28-C , 31-H ) :   0.9705

Dispersion correction           -0.013617438
FINAL SINGLE POINT ENERGY     -1339.866655113272

DIPOLE MOMENT
-------------
                                X             Y             Z
Electronic contribution:      6.47291      24.12834      -4.88245
Nuclear contribution   :     -6.67988     -24.90466       4.94433
                        -----------------------------------------
Total Dipole Moment    :     -0.20697      -0.77633       0.06188
                        -----------------------------------------
Magnitude (a.u.)       :      0.80582
Magnitude (Debye)      :      2.04824

Rotational constants in cm-1:     0.017069     0.007828     0.006757
Rotational constants in MHz :   511.701295   234.682490   202.576952

                             ****ORCA TERMINATED NORMALLY****
TOTAL RUN TIME: 0 days 0 hours 0 minutes 20 seconds 987 msec
