                         Program Version 4.2.1 -  RELEASE  -
|  1> ! wB97X-D3 SP def2-SVP
|  2> %pal
|  3> nprocs 24
|  4> end
|  5>
|  6> * xyz 0 1
|  7> S 	 -126.81 	 60.2615 	 -59.2427
|  8> C 	 -128.43 	 60.6707 	 -59.846
|  9> C 	 -129.045 	 61.5606 	 -58.9494
| 10> C 	 -128.128 	 61.9389 	 -57.939
| 11> C 	 -126.89 	 61.3004 	 -57.8778
| 12> H 	 -128.244 	 62.7546 	 -57.2088
| 13> C 	 -130.465 	 62.1278 	 -59.1824
| 14> H 	 -130.869 	 62.2129 	 -58.1824
| 15> H 	 -131.006 	 61.4729 	 -59.918
| 16> C 	 -130.523 	 63.5226 	 -59.8088
| 17> H 	 -131.477 	 63.6292 	 -60.3127
| 18> H 	 -130.343 	 64.175 	 -58.9746
| 19> C 	 -129.453 	 63.7115 	 -60.8363
| 20> H 	 -129.556 	 64.6033 	 -61.3664
| 21> H 	 -128.498 	 63.8019 	 -60.3716
| 22> H 	 -129.598 	 62.9095 	 -61.5998
| 23> S 	 -124.263 	 61.7543 	 -57.9164
| 24> C 	 -123.408 	 62.1489 	 -56.4277
| 25> C 	 -124.216 	 62.2608 	 -55.3818
| 26> C 	 -125.581 	 61.8943 	 -55.6745
| 27> C 	 -125.743 	 61.67 	 -57.0327
| 28> H 	 -123.684 	 62.6912 	 -54.4624
| 29> C 	 -126.661 	 61.9038 	 -54.6677
| 30> H 	 -127.529 	 62.171 	 -55.2157
| 31> H 	 -126.548 	 62.683 	 -53.9688
| 32> C 	 -126.874 	 60.5348 	 -54.0241
| 33> H 	 -126.8 	 59.6393 	 -54.74
| 34> H 	 -127.937 	 60.5874 	 -53.6775
| 35> C 	 -125.928 	 60.2705 	 -52.8263
| 36> H 	 -126.133 	 59.1693 	 -52.7063
| 37> H 	 -126.395 	 60.8322 	 -51.9581
| 38> H 	 -124.821 	 60.5842 	 -52.9564
| 39> H 	 -128.78 	 60.3623 	 -60.803
| 40> H 	 -122.437 	 62.5698 	 -56.3499
| 41> *
| 42>
| 43>                          ****END OF INPUT****

CARTESIAN COORDINATES (ANGSTROEM)
---------------------------------
  S    -126.810000   60.261500  -59.242700
  C    -128.430000   60.670700  -59.846000
  C    -129.045000   61.560600  -58.949400
  C    -128.128000   61.938900  -57.939000
  C    -126.890000   61.300400  -57.877800
  H    -128.244000   62.754600  -57.208800
  C    -130.465000   62.127800  -59.182400
  H    -130.869000   62.212900  -58.182400
  H    -131.006000   61.472900  -59.918000
  C    -130.523000   63.522600  -59.808800
  H    -131.477000   63.629200  -60.312700
  H    -130.343000   64.175000  -58.974600
  C    -129.453000   63.711500  -60.836300
  H    -129.556000   64.603300  -61.366400
  H    -128.498000   63.801900  -60.371600
  H    -129.598000   62.909500  -61.599800
  S    -124.263000   61.754300  -57.916400
  C    -123.408000   62.148900  -56.427700
  C    -124.216000   62.260800  -55.381800
  C    -125.581000   61.894300  -55.674500
  C    -125.743000   61.670000  -57.032700
  H    -123.684000   62.691200  -54.462400
  C    -126.661000   61.903800  -54.667700
  H    -127.529000   62.171000  -55.215700
  H    -126.548000   62.683000  -53.968800
  C    -126.874000   60.534800  -54.024100
  H    -126.800000   59.639300  -54.740000
  H    -127.937000   60.587400  -53.677500
  C    -125.928000   60.270500  -52.826300
  H    -126.133000   59.169300  -52.706300
  H    -126.395000   60.832200  -51.958100
  H    -124.821000   60.584200  -52.956400
  H    -128.780000   60.362300  -60.803000
  H    -122.437000   62.569800  -56.349900

 Total Charge           Charge          ....    0
 Multiplicity           Mult            ....    1
 Number of Electrons    NEL             ....  134
 Basis Dimension        Dim             ....  322

ORBITAL ENERGIES
----------------

  NO   OCC          E(Eh)            E(eV)
   0   2.0000     -88.965239     -2420.8672
   1   2.0000     -88.963469     -2420.8191
   2   2.0000     -10.329747      -281.0867
   3   2.0000     -10.328150      -281.0432
   4   2.0000     -10.316703      -280.7318
   5   2.0000     -10.306484      -280.4537
   6   2.0000     -10.306254      -280.4474
   7   2.0000     -10.303786      -280.3803
   8   2.0000     -10.296119      -280.1716
   9   2.0000     -10.294844      -280.1370
  10   2.0000     -10.294591      -280.1301
  11   2.0000     -10.292349      -280.0691
  12   2.0000     -10.290499      -280.0187
  13   2.0000     -10.279778      -279.7270
  14   2.0000     -10.279522      -279.7200
  15   2.0000     -10.265774      -279.3459
  16   2.0000      -8.079919      -219.8658
  17   2.0000      -8.078789      -219.8350
  18   2.0000      -6.038382      -164.3127
  19   2.0000      -6.037369      -164.2852
  20   2.0000      -6.034191      -164.1987
  21   2.0000      -6.033317      -164.1749
  22   2.0000      -6.030953      -164.1106
  23   2.0000      -6.029316      -164.0660
  24   2.0000      -1.011799       -27.5325
  25   2.0000      -0.986921       -26.8555
  26   2.0000      -0.919087       -25.0096
  27   2.0000      -0.912694       -24.8357
  28   2.0000      -0.874184       -23.7878
  29   2.0000      -0.847188       -23.0531
  30   2.0000      -0.841238       -22.8912
  31   2.0000      -0.818049       -22.2602
  32   2.0000      -0.786139       -21.3919
  33   2.0000      -0.774662       -21.0796
  34   2.0000      -0.708094       -19.2682
  35   2.0000      -0.692735       -18.8503
  36   2.0000      -0.682831       -18.5808
  37   2.0000      -0.656448       -17.8629
  38   2.0000      -0.638895       -17.3852
  39   2.0000      -0.621064       -16.9000
  40   2.0000      -0.597290       -16.2531
  41   2.0000      -0.578880       -15.7521
  42   2.0000      -0.560832       -15.2610
  43   2.0000      -0.550338       -14.9755
  44   2.0000      -0.542373       -14.7587
  45   2.0000      -0.539204       -14.6725
  46   2.0000      -0.523112       -14.2346
  47   2.0000      -0.513946       -13.9852
  48   2.0000      -0.502576       -13.6758
  49   2.0000      -0.494586       -13.4584
  50   2.0000      -0.492002       -13.3880
  51   2.0000      -0.479121       -13.0375
  52   2.0000      -0.472713       -12.8632
  53   2.0000      -0.467931       -12.7331
  54   2.0000      -0.460432       -12.5290
  55   2.0000      -0.440675       -11.9914
  56   2.0000      -0.438319       -11.9273
  57   2.0000      -0.434775       -11.8308
  58   2.0000      -0.429770       -11.6946
  59   2.0000      -0.421455       -11.4684
  60   2.0000      -0.414106       -11.2684
  61   2.0000      -0.411587       -11.1998
  62   2.0000      -0.406812       -11.0699
  63   2.0000      -0.353311        -9.6141
  64   2.0000      -0.330068        -8.9816
  65   2.0000      -0.329660        -8.9705
  66   2.0000      -0.289832        -7.8867
  67   0.0000       0.027241         0.7413
  68   0.0000       0.076436         2.0799
  69   0.0000       0.109134         2.9697
  70   0.0000       0.115776         3.1504
  71   0.0000       0.136890         3.7250

MULLIKEN ATOMIC CHARGES
-----------------------
   0 S :    0.100487
   1 C :   -0.133649
   2 C :   -0.081594
   3 C :   -0.010870
   4 C :   -0.133734
   5 H :    0.021907
   6 C :    0.073982
   7 H :    0.032280
   8 H :    0.032507
   9 C :   -0.071661
  10 H :    0.033258
  11 H :    0.021325
  12 C :   -0.006423
  13 H :    0.011684
  14 H :    0.037890
  15 H :    0.018975
  16 S :    0.098794
  17 C :   -0.069788
  18 C :   -0.078368
  19 C :   -0.058260
  20 C :   -0.149839
  21 H :    0.048666
  22 C :    0.152485
  23 H :   -0.014507
  24 H :    0.007789
  25 C :   -0.121594
  26 H :    0.053219
  27 H :    0.037037
  28 C :   -0.090045
  29 H :    0.049974
  30 H :    0.039417
  31 H :    0.063273
  32 H :    0.045622
  33 H :    0.039761
Sum of atomic charges:    0.0000000

LOEWDIN ATOMIC CHARGES
----------------------
   0 S :    0.410890
   1 C :   -0.184569
   2 C :   -0.060913
   3 C :   -0.079992
   4 C :   -0.211096
   5 H :    0.028131
   6 C :   -0.027173
   7 H :    0.032150
   8 H :    0.035277
   9 C :   -0.039332
  10 H :    0.026045
  11 H :    0.019463
  12 C :   -0.058477
  13 H :    0.015841
  14 H :    0.026571
  15 H :    0.027132
  16 S :    0.404347
  17 C :   -0.182474
  18 C :   -0.082375
  19 C :   -0.052394
  20 C :   -0.195037
  21 H :    0.049564
  22 C :   -0.033124
  23 H :    0.024230
  24 H :    0.025810
  25 C :   -0.044748
  26 H :    0.033756
  27 H :    0.029203
  28 C :   -0.083984
  29 H :    0.035963
  30 H :    0.029096
  31 H :    0.036156
  32 H :    0.021248
  33 H :    0.024817

  Mayer bond orders larger than 0.100000
B(  0-S ,  1-C ) :   1.1563 B(  0-S ,  4-C ) :   1.1622 B(  1-C ,  2-C ) :   1.5488
B(  1-C ,  4-C ) :   0.1046 B(  1-C , 32-H ) :   0.9760 B(  2-C ,  3-C ) :   1.2728
B(  2-C ,  6-C ) :   1.0246 B(  3-C ,  4-C ) :   1.5545 B(  3-C ,  5-H ) :   0.9788
B(  4-C , 20-C ) :   1.0320 B(  6-C ,  7-H ) :   0.9426 B(  6-C ,  8-H ) :   0.9417
B(  6-C ,  9-C ) :   1.0693 B(  9-C , 10-H ) :   0.9599 B(  9-C , 11-H ) :   0.9521
B(  9-C , 12-C ) :   1.1103 B( 12-C , 13-H ) :   0.9689 B( 12-C , 14-H ) :   0.9602
B( 12-C , 15-H ) :   0.9727 B( 16-S , 17-C ) :   1.1268 B( 16-S , 20-C ) :   1.1418
B( 17-C , 18-C ) :   1.6959 B( 17-C , 33-H ) :   0.9588 B( 18-C , 19-C ) :   1.1883
B( 18-C , 21-H ) :   0.9715 B( 19-C , 20-C ) :   1.6230 B( 19-C , 22-C ) :   1.0521
B( 22-C , 23-H ) :   0.9171 B( 22-C , 24-H ) :   0.9268 B( 22-C , 25-C ) :   1.0582
B( 25-C , 26-H ) :   0.9646 B( 25-C , 27-H ) :   0.9557 B( 25-C , 28-C ) :   1.0569
B( 28-C , 29-H ) :   0.9769 B( 28-C , 30-H ) :   0.9759 B( 28-C , 31-H ) :   0.9716

Dispersion correction           -0.014674875
FINAL SINGLE POINT ENERGY     -1339.852108814757

DIPOLE MOMENT
-------------
                                X             Y             Z
Electronic contribution:     16.05018      -6.53450      -9.70845
Nuclear contribution   :    -16.44734       7.07696       9.96395
                        -----------------------------------------
Total Dipole Moment    :     -0.39716       0.54247       0.25550
                        -----------------------------------------
Magnitude (a.u.)       :      0.71923
Magnitude (Debye)      :      1.82813

Rotational constants in cm-1:     0.021524     0.008146     0.007049
Rotational constants in MHz :   645.275304   244.200346   211.332264

                             ****ORCA TERMINATED NORMALLY****
TOTAL RUN TIME: 0 days 0 hours 0 minutes 21 seconds 989 msec
