                         Program Version 4.2.1 -  RELEASE  -
|  1> ! wB97X-D3 SP def2-SVP
|  2> %pal
|  3> nprocs 24
|  4> end
|  5>
|  6> * xyz 0 1
|  7> S 	 -122.966 	 66.6895 	 -41.9124
|  8> C 	 -123.246 	 68.4131 	 -42.0315
|  9> C 	 -122.064 	 69.1063 	 -42.044
| 10> C 	 -120.893 	 68.27 	 -41.7892
| 11> C 	 -121.202 	 66.9511 	 -42.0948
| 12> H 	 -119.893 	 68.592 	 -41.5751
| 13> C 	 -121.991 	 70.5897 	 -41.9441
| 14> H 	 -121.679 	 70.8386 	 -40.9368
| 15> H 	 -122.961 	 71.0482 	 -41.9564
| 16> C 	 -120.998 	 71.1865 	 -42.9274
| 17> H 	 -120.004 	 70.8106 	 -42.7579
| 18> H 	 -121.322 	 71.0205 	 -44.0088
| 19> C 	 -121.107 	 72.763 	 -42.8452
| 20> H 	 -120.631 	 73.3086 	 -43.6048
| 21> H 	 -122.079 	 73.1258 	 -42.651
| 22> H 	 -120.621 	 73.2203 	 -41.9876
| 23> S 	 -119.552 	 65.3567 	 -40.4523
| 24> C 	 -118.121 	 64.6215 	 -41.2101
| 25> C 	 -118.273 	 64.6635 	 -42.5602
| 26> C 	 -119.472 	 65.3035 	 -42.9979
| 27> C 	 -120.213 	 65.8623 	 -41.9914
| 28> H 	 -117.402 	 64.2484 	 -43.1228
| 29> C 	 -119.718 	 65.6004 	 -44.4597
| 30> H 	 -120.672 	 66.1343 	 -44.747
| 31> H 	 -119.772 	 64.6659 	 -45.0346
| 32> C 	 -118.575 	 66.3464 	 -45.2549
| 33> H 	 -118.794 	 66.5505 	 -46.3305
| 34> H 	 -117.661 	 65.7141 	 -45.2207
| 35> C 	 -118.172 	 67.6813 	 -44.6062
| 36> H 	 -117.822 	 67.5152 	 -43.5655
| 37> H 	 -118.975 	 68.3932 	 -44.5463
| 38> H 	 -117.359 	 68.2725 	 -45.1537
| 39> H 	 -124.236 	 68.7107 	 -42.3568
| 40> H 	 -117.298 	 64.1125 	 -40.6862
| 41> *
| 42>
| 43>                          ****END OF INPUT****

CARTESIAN COORDINATES (ANGSTROEM)
---------------------------------
  S    -122.966000   66.689500  -41.912400
  C    -123.246000   68.413100  -42.031500
  C    -122.064000   69.106300  -42.044000
  C    -120.893000   68.270000  -41.789200
  C    -121.202000   66.951100  -42.094800
  H    -119.893000   68.592000  -41.575100
  C    -121.991000   70.589700  -41.944100
  H    -121.679000   70.838600  -40.936800
  H    -122.961000   71.048200  -41.956400
  C    -120.998000   71.186500  -42.927400
  H    -120.004000   70.810600  -42.757900
  H    -121.322000   71.020500  -44.008800
  C    -121.107000   72.763000  -42.845200
  H    -120.631000   73.308600  -43.604800
  H    -122.079000   73.125800  -42.651000
  H    -120.621000   73.220300  -41.987600
  S    -119.552000   65.356700  -40.452300
  C    -118.121000   64.621500  -41.210100
  C    -118.273000   64.663500  -42.560200
  C    -119.472000   65.303500  -42.997900
  C    -120.213000   65.862300  -41.991400
  H    -117.402000   64.248400  -43.122800
  C    -119.718000   65.600400  -44.459700
  H    -120.672000   66.134300  -44.747000
  H    -119.772000   64.665900  -45.034600
  C    -118.575000   66.346400  -45.254900
  H    -118.794000   66.550500  -46.330500
  H    -117.661000   65.714100  -45.220700
  C    -118.172000   67.681300  -44.606200
  H    -117.822000   67.515200  -43.565500
  H    -118.975000   68.393200  -44.546300
  H    -117.359000   68.272500  -45.153700
  H    -124.236000   68.710700  -42.356800
  H    -117.298000   64.112500  -40.686200

 Total Charge           Charge          ....    0
 Multiplicity           Mult            ....    1
 Number of Electrons    NEL             ....  134
 Basis Dimension        Dim             ....  322

ORBITAL ENERGIES
----------------

  NO   OCC          E(Eh)            E(eV)
   0   2.0000     -88.962319     -2420.7878
   1   2.0000     -88.961688     -2420.7706
   2   2.0000     -10.335315      -281.2382
   3   2.0000     -10.325658      -280.9754
   4   2.0000     -10.321404      -280.8597
   5   2.0000     -10.313535      -280.6455
   6   2.0000     -10.305933      -280.4387
   7   2.0000     -10.303101      -280.3616
   8   2.0000     -10.302320      -280.3404
   9   2.0000     -10.297817      -280.2178
  10   2.0000     -10.295145      -280.1451
  11   2.0000     -10.294999      -280.1412
  12   2.0000     -10.291999      -280.0595
  13   2.0000     -10.287289      -279.9314
  14   2.0000     -10.275413      -279.6082
  15   2.0000     -10.270715      -279.4804
  16   2.0000      -8.076878      -219.7830
  17   2.0000      -8.076266      -219.7664
  18   2.0000      -6.035471      -164.2335
  19   2.0000      -6.034897      -164.2179
  20   2.0000      -6.031372      -164.1220
  21   2.0000      -6.030973      -164.1111
  22   2.0000      -6.027565      -164.0184
  23   2.0000      -6.026719      -163.9954
  24   2.0000      -1.006194       -27.3799
  25   2.0000      -0.984979       -26.8026
  26   2.0000      -0.913044       -24.8452
  27   2.0000      -0.898979       -24.4625
  28   2.0000      -0.871815       -23.7233
  29   2.0000      -0.845074       -22.9956
  30   2.0000      -0.839904       -22.8550
  31   2.0000      -0.819881       -22.3101
  32   2.0000      -0.779725       -21.2174
  33   2.0000      -0.769897       -20.9500
  34   2.0000      -0.714281       -19.4366
  35   2.0000      -0.696412       -18.9503
  36   2.0000      -0.688329       -18.7304
  37   2.0000      -0.654377       -17.8065
  38   2.0000      -0.647382       -17.6161
  39   2.0000      -0.620451       -16.8833
  40   2.0000      -0.596699       -16.2370
  41   2.0000      -0.569721       -15.5029
  42   2.0000      -0.560399       -15.2492
  43   2.0000      -0.541242       -14.7280
  44   2.0000      -0.539045       -14.6682
  45   2.0000      -0.533236       -14.5101
  46   2.0000      -0.519346       -14.1321
  47   2.0000      -0.514303       -13.9949
  48   2.0000      -0.502165       -13.6646
  49   2.0000      -0.499181       -13.5834
  50   2.0000      -0.484024       -13.1710
  51   2.0000      -0.474033       -12.8991
  52   2.0000      -0.465854       -12.6765
  53   2.0000      -0.465653       -12.6711
  54   2.0000      -0.455451       -12.3935
  55   2.0000      -0.450256       -12.2521
  56   2.0000      -0.443298       -12.0628
  57   2.0000      -0.435644       -11.8545
  58   2.0000      -0.427945       -11.6450
  59   2.0000      -0.423681       -11.5289
  60   2.0000      -0.413684       -11.2569
  61   2.0000      -0.411242       -11.1905
  62   2.0000      -0.410195       -11.1620
  63   2.0000      -0.336721        -9.1626
  64   2.0000      -0.326209        -8.8766
  65   2.0000      -0.319841        -8.7033
  66   2.0000      -0.314434        -8.5562
  67   0.0000       0.037087         1.0092
  68   0.0000       0.049103         1.3362
  69   0.0000       0.101819         2.7706
  70   0.0000       0.123430         3.3587
  71   0.0000       0.130440         3.5495

MULLIKEN ATOMIC CHARGES
-----------------------
   0 S :    0.085092
   1 C :   -0.124657
   2 C :   -0.067239
   3 C :    0.033219
   4 C :   -0.147451
   5 H :    0.029811
   6 C :    0.076365
   7 H :    0.029703
   8 H :    0.005678
   9 C :   -0.095177
  10 H :    0.040219
  11 H :    0.048126
  12 C :   -0.017236
  13 H :    0.022518
  14 H :    0.012293
  15 H :    0.006307
  16 S :    0.099783
  17 C :   -0.116650
  18 C :   -0.050887
  19 C :    0.007742
  20 C :   -0.166053
  21 H :    0.041708
  22 C :    0.050061
  23 H :    0.048054
  24 H :    0.032498
  25 C :   -0.107511
  26 H :    0.042690
  27 H :    0.030141
  28 C :   -0.079661
  29 H :    0.037724
  30 H :    0.022380
  31 H :    0.036525
  32 H :    0.064129
  33 H :    0.069759
Sum of atomic charges:    0.0000000

LOEWDIN ATOMIC CHARGES
----------------------
   0 S :    0.377870
   1 C :   -0.193306
   2 C :   -0.059249
   3 C :   -0.036296
   4 C :   -0.175436
   5 H :    0.030819
   6 C :   -0.034598
   7 H :    0.035862
   8 H :    0.026531
   9 C :   -0.033811
  10 H :    0.021631
  11 H :    0.035272
  12 C :   -0.069857
  13 H :    0.018756
  14 H :    0.019728
  15 H :    0.023938
  16 S :    0.386125
  17 C :   -0.176024
  18 C :   -0.080742
  19 C :   -0.058093
  20 C :   -0.202423
  21 H :    0.043179
  22 C :   -0.037571
  23 H :    0.038685
  24 H :    0.035352
  25 C :   -0.045868
  26 H :    0.030061
  27 H :    0.020996
  28 C :   -0.080050
  29 H :    0.025238
  30 H :    0.015889
  31 H :    0.030590
  32 H :    0.028306
  33 H :    0.038493

  Mayer bond orders larger than 0.100000
B(  0-S ,  1-C ) :   1.1275 B(  0-S ,  4-C ) :   1.1375 B(  1-C ,  2-C ) :   1.6329
B(  1-C , 32-H ) :   0.9650 B(  2-C ,  3-C ) :   1.1906 B(  2-C ,  6-C ) :   1.0449
B(  3-C ,  4-C ) :   1.6068 B(  3-C ,  5-H ) :   0.9898 B(  4-C , 20-C ) :   1.0122
B(  6-C ,  7-H ) :   0.9326 B(  6-C ,  8-H ) :   0.9436 B(  6-C ,  9-C ) :   1.0491
B(  9-C , 10-H ) :   0.9588 B(  9-C , 11-H ) :   0.9618 B(  9-C , 12-C ) :   1.0675
B( 12-C , 13-H ) :   0.9774 B( 12-C , 14-H ) :   0.9740 B( 12-C , 15-H ) :   0.9684
B( 16-S , 17-C ) :   1.1408 B( 16-S , 20-C ) :   1.1356 B( 17-C , 18-C ) :   1.6439
B( 17-C , 33-H ) :   0.9639 B( 18-C , 19-C ) :   1.2083 B( 18-C , 21-H ) :   0.9851
B( 19-C , 20-C ) :   1.6163 B( 19-C , 22-C ) :   1.0509 B( 22-C , 23-H ) :   0.9426
B( 22-C , 24-H ) :   0.9299 B( 22-C , 25-C ) :   1.0633 B( 25-C , 26-H ) :   0.9581
B( 25-C , 27-H ) :   0.9546 B( 25-C , 28-C ) :   1.0718 B( 28-C , 29-H ) :   0.9715
B( 28-C , 30-H ) :   0.9751 B( 28-C , 31-H ) :   0.9739

Dispersion correction           -0.015511415
FINAL SINGLE POINT ENERGY     -1339.857935302362

DIPOLE MOMENT
-------------
                                X             Y             Z
Electronic contribution:     -9.10455     -22.58177      15.71428
Nuclear contribution   :      9.47613      23.07036     -15.98954
                        -----------------------------------------
Total Dipole Moment    :      0.37158       0.48858      -0.27526
                        -----------------------------------------
Magnitude (a.u.)       :      0.67272
Magnitude (Debye)      :      1.70992

Rotational constants in cm-1:     0.018415     0.009036     0.007505
Rotational constants in MHz :   552.064121   270.884751   224.996324

                             ****ORCA TERMINATED NORMALLY****
TOTAL RUN TIME: 0 days 0 hours 0 minutes 20 seconds 997 msec
