                         Program Version 4.2.1 -  RELEASE  -
|  1> ! wB97X-D3 SP def2-SVP
|  2> %pal
|  3> nprocs 24
|  4> end
|  5>
|  6> * xyz 0 1
|  7> S 	 -126.105 	 64.5061 	 -59.4622
|  8> C 	 -127.549 	 63.7089 	 -60.1032
|  9> C 	 -128.182 	 62.9805 	 -59.11
| 10> C 	 -127.568 	 63.135 	 -57.7987
| 11> C 	 -126.364 	 63.8206 	 -57.837
| 12> H 	 -127.913 	 62.7233 	 -56.825
| 13> C 	 -129.479 	 62.1719 	 -59.2595
| 14> H 	 -130.06 	 62.8063 	 -59.9362
| 15> H 	 -130.109 	 62.1584 	 -58.3682
| 16> C 	 -129.281 	 60.7172 	 -59.7611
| 17> H 	 -130.182 	 60.1315 	 -59.5263
| 18> H 	 -129.196 	 60.7561 	 -60.9088
| 19> C 	 -128.059 	 59.9858 	 -59.0977
| 20> H 	 -127.792 	 60.4888 	 -58.1497
| 21> H 	 -128.155 	 58.9183 	 -58.9287
| 22> H 	 -127.121 	 60.0524 	 -59.64
| 23> S 	 -125.337 	 65.6993 	 -56.126
| 24> C 	 -123.85 	 65.2655 	 -55.3377
| 25> C 	 -123.721 	 63.8923 	 -55.1759
| 26> C 	 -124.681 	 63.1808 	 -56.042
| 27> C 	 -125.488 	 64.0564 	 -56.7672
| 28> H 	 -122.849 	 63.44 	 -54.6038
| 29> C 	 -124.529 	 61.6652 	 -56.1789
| 30> H 	 -125.547 	 61.2324 	 -55.8828
| 31> H 	 -123.859 	 61.4115 	 -55.3343
| 32> C 	 -124.082 	 61.079 	 -57.5134
| 33> H 	 -124.649 	 61.5409 	 -58.3089
| 34> H 	 -124.294 	 60.0732 	 -57.4923
| 35> C 	 -122.496 	 61.2205 	 -57.6985
| 36> H 	 -122.174 	 60.6068 	 -58.569
| 37> H 	 -121.983 	 60.7916 	 -56.8323
| 38> H 	 -122.346 	 62.2235 	 -57.9834
| 39> H 	 -127.752 	 63.6625 	 -61.125
| 40> H 	 -123.318 	 65.959 	 -54.8277
| 41> *
| 42>
| 43>                          ****END OF INPUT****

CARTESIAN COORDINATES (ANGSTROEM)
---------------------------------
  S    -126.105000   64.506100  -59.462200
  C    -127.549000   63.708900  -60.103200
  C    -128.182000   62.980500  -59.110000
  C    -127.568000   63.135000  -57.798700
  C    -126.364000   63.820600  -57.837000
  H    -127.913000   62.723300  -56.825000
  C    -129.479000   62.171900  -59.259500
  H    -130.060000   62.806300  -59.936200
  H    -130.109000   62.158400  -58.368200
  C    -129.281000   60.717200  -59.761100
  H    -130.182000   60.131500  -59.526300
  H    -129.196000   60.756100  -60.908800
  C    -128.059000   59.985800  -59.097700
  H    -127.792000   60.488800  -58.149700
  H    -128.155000   58.918300  -58.928700
  H    -127.121000   60.052400  -59.640000
  S    -125.337000   65.699300  -56.126000
  C    -123.850000   65.265500  -55.337700
  C    -123.721000   63.892300  -55.175900
  C    -124.681000   63.180800  -56.042000
  C    -125.488000   64.056400  -56.767200
  H    -122.849000   63.440000  -54.603800
  C    -124.529000   61.665200  -56.178900
  H    -125.547000   61.232400  -55.882800
  H    -123.859000   61.411500  -55.334300
  C    -124.082000   61.079000  -57.513400
  H    -124.649000   61.540900  -58.308900
  H    -124.294000   60.073200  -57.492300
  C    -122.496000   61.220500  -57.698500
  H    -122.174000   60.606800  -58.569000
  H    -121.983000   60.791600  -56.832300
  H    -122.346000   62.223500  -57.983400
  H    -127.752000   63.662500  -61.125000
  H    -123.318000   65.959000  -54.827700

 Total Charge           Charge          ....    0
 Multiplicity           Mult            ....    1
 Number of Electrons    NEL             ....  134
 Basis Dimension        Dim             ....  322

ORBITAL ENERGIES
----------------

  NO   OCC          E(Eh)            E(eV)
   0   2.0000     -88.965876     -2420.8846
   1   2.0000     -88.961734     -2420.7719
   2   2.0000     -10.327845      -281.0350
   3   2.0000     -10.321677      -280.8671
   4   2.0000     -10.315903      -280.7100
   5   2.0000     -10.310582      -280.5652
   6   2.0000     -10.309434      -280.5340
   7   2.0000     -10.307605      -280.4842
   8   2.0000     -10.303330      -280.3679
   9   2.0000     -10.300588      -280.2933
  10   2.0000     -10.299561      -280.2653
  11   2.0000     -10.296789      -280.1899
  12   2.0000     -10.295145      -280.1451
  13   2.0000     -10.279548      -279.7207
  14   2.0000     -10.277914      -279.6763
  15   2.0000     -10.276963      -279.6504
  16   2.0000      -8.079774      -219.8618
  17   2.0000      -8.076845      -219.7821
  18   2.0000      -6.038379      -164.3127
  19   2.0000      -6.035321      -164.2294
  20   2.0000      -6.034358      -164.2032
  21   2.0000      -6.031524      -164.1261
  22   2.0000      -6.030502      -164.0983
  23   2.0000      -6.027399      -164.0139
  24   2.0000      -1.003020       -27.2936
  25   2.0000      -0.977623       -26.6025
  26   2.0000      -0.904822       -24.6214
  27   2.0000      -0.903198       -24.5773
  28   2.0000      -0.871022       -23.7017
  29   2.0000      -0.842494       -22.9254
  30   2.0000      -0.836921       -22.7738
  31   2.0000      -0.811439       -22.0804
  32   2.0000      -0.782145       -21.2832
  33   2.0000      -0.771682       -20.9985
  34   2.0000      -0.715274       -19.4636
  35   2.0000      -0.700866       -19.0715
  36   2.0000      -0.692514       -18.8443
  37   2.0000      -0.662069       -18.0158
  38   2.0000      -0.645083       -17.5536
  39   2.0000      -0.605931       -16.4882
  40   2.0000      -0.586228       -15.9521
  41   2.0000      -0.568476       -15.4690
  42   2.0000      -0.554191       -15.0803
  43   2.0000      -0.550199       -14.9717
  44   2.0000      -0.545158       -14.8345
  45   2.0000      -0.534596       -14.5471
  46   2.0000      -0.514482       -13.9998
  47   2.0000      -0.510827       -13.9003
  48   2.0000      -0.500464       -13.6183
  49   2.0000      -0.493347       -13.4247
  50   2.0000      -0.488477       -13.2921
  51   2.0000      -0.472171       -12.8484
  52   2.0000      -0.466821       -12.7029
  53   2.0000      -0.462112       -12.5747
  54   2.0000      -0.459511       -12.5039
  55   2.0000      -0.450812       -12.2672
  56   2.0000      -0.443965       -12.0809
  57   2.0000      -0.438895       -11.9429
  58   2.0000      -0.433384       -11.7930
  59   2.0000      -0.421196       -11.4613
  60   2.0000      -0.416668       -11.3381
  61   2.0000      -0.410774       -11.1777
  62   2.0000      -0.408391       -11.1129
  63   2.0000      -0.336525        -9.1573
  64   2.0000      -0.329514        -8.9665
  65   2.0000      -0.323692        -8.8081
  66   2.0000      -0.299586        -8.1521
  67   0.0000       0.026064         0.7092
  68   0.0000       0.058049         1.5796
  69   0.0000       0.101575         2.7640
  70   0.0000       0.116909         3.1813
  71   0.0000       0.125347         3.4109

MULLIKEN ATOMIC CHARGES
-----------------------
   0 S :    0.106958
   1 C :   -0.099325
   2 C :   -0.096919
   3 C :    0.036554
   4 C :   -0.188227
   5 H :    0.034690
   6 C :    0.053636
   7 H :    0.030133
   8 H :    0.028047
   9 C :   -0.083448
  10 H :    0.038735
  11 H :    0.043492
  12 C :   -0.052119
  13 H :    0.021286
  14 H :    0.036133
  15 H :    0.030494
  16 S :    0.107262
  17 C :   -0.049918
  18 C :   -0.061087
  19 C :   -0.028372
  20 C :   -0.186732
  21 H :    0.052895
  22 C :    0.034128
  23 H :    0.037124
  24 H :    0.014955
  25 C :   -0.018980
  26 H :    0.042725
  27 H :    0.010019
  28 C :   -0.057763
  29 H :    0.031922
  30 H :    0.036301
  31 H :    0.041687
  32 H :    0.034920
  33 H :    0.018795
Sum of atomic charges:    0.0000000

LOEWDIN ATOMIC CHARGES
----------------------
   0 S :    0.386210
   1 C :   -0.179930
   2 C :   -0.058747
   3 C :   -0.059765
   4 C :   -0.193340
   5 H :    0.038818
   6 C :   -0.038016
   7 H :    0.033219
   8 H :    0.030862
   9 C :   -0.043623
  10 H :    0.026562
  11 H :    0.030661
  12 C :   -0.076977
  13 H :    0.027576
  14 H :    0.025828
  15 H :    0.027618
  16 S :    0.396491
  17 C :   -0.164749
  18 C :   -0.078515
  19 C :   -0.045113
  20 C :   -0.207789
  21 H :    0.044674
  22 C :   -0.037699
  23 H :    0.037223
  24 H :    0.028560
  25 C :   -0.027549
  26 H :    0.026805
  27 H :    0.012315
  28 C :   -0.059807
  29 H :    0.028425
  30 H :    0.025696
  31 H :    0.022182
  32 H :    0.018154
  33 H :    0.003738

  Mayer bond orders larger than 0.100000
B(  0-S ,  1-C ) :   1.1299 B(  0-S ,  4-C ) :   1.1250 B(  1-C ,  2-C ) :   1.6308
B(  1-C , 32-H ) :   0.9764 B(  2-C ,  3-C ) :   1.2094 B(  2-C ,  6-C ) :   1.0107
B(  3-C ,  4-C ) :   1.5991 B(  3-C ,  5-H ) :   0.9815 B(  4-C , 20-C ) :   1.0876
B(  6-C ,  7-H ) :   0.9491 B(  6-C ,  8-H ) :   0.9468 B(  6-C ,  9-C ) :   1.0650
B(  9-C , 10-H ) :   0.9630 B(  9-C , 11-H ) :   0.9608 B(  9-C , 12-C ) :   1.0583
B( 12-C , 13-H ) :   0.9762 B( 12-C , 14-H ) :   0.9767 B( 12-C , 15-H ) :   0.9709
B( 16-S , 17-C ) :   1.1537 B( 16-S , 20-C ) :   1.1293 B( 17-C , 18-C ) :   1.6292
B( 17-C , 33-H ) :   0.9780 B( 18-C , 19-C ) :   1.2130 B( 18-C , 21-H ) :   0.9742
B( 19-C , 20-C ) :   1.6017 B( 19-C , 22-C ) :   1.0395 B( 22-C , 23-H ) :   0.9285
B( 22-C , 24-H ) :   0.9365 B( 22-C , 25-C ) :   1.0704 B( 25-C , 26-H ) :   0.9565
B( 25-C , 27-H ) :   0.9512 B( 25-C , 28-C ) :   1.0679 B( 28-C , 29-H ) :   0.9769
B( 28-C , 30-H ) :   0.9764 B( 28-C , 31-H ) :   0.9819

Dispersion correction           -0.016187182
FINAL SINGLE POINT ENERGY     -1339.858106404983

DIPOLE MOMENT
-------------
                                X             Y             Z
Electronic contribution:      1.19167      26.20369       3.81281
Nuclear contribution   :     -1.27634     -26.83077      -3.72618
                        -----------------------------------------
Total Dipole Moment    :     -0.08467      -0.62708       0.08663
                        -----------------------------------------
Magnitude (a.u.)       :      0.63868
Magnitude (Debye)      :      1.62338

Rotational constants in cm-1:     0.019537     0.009695     0.007763
Rotational constants in MHz :   585.690780   290.639240   232.740031

                             ****ORCA TERMINATED NORMALLY****
TOTAL RUN TIME: 0 days 0 hours 0 minutes 21 seconds 654 msec
