                         Program Version 4.2.1 -  RELEASE  -
|  1> ! wB97X-D3 SP def2-SVP
|  2> %pal
|  3> nprocs 24
|  4> end
|  5>
|  6> * xyz 0 1
|  7> S 	 -32.6979 	 2.73387 	 6.01689
|  8> C 	 -32.7846 	 4.45766 	 6.39304
|  9> C 	 -33.7323 	 5.12654 	 5.67132
| 10> C 	 -34.0354 	 4.37044 	 4.47694
| 11> C 	 -33.5436 	 3.1192 	 4.48837
| 12> H 	 -34.7338 	 4.80924 	 3.74204
| 13> C 	 -34.1321 	 6.55732 	 5.92784
| 14> H 	 -34.1571 	 6.7391 	 6.98876
| 15> H 	 -35.2557 	 6.62922 	 5.6512
| 16> C 	 -33.251 	 7.60688 	 5.16665
| 17> H 	 -33.5661 	 7.7342 	 4.09988
| 18> H 	 -33.5489 	 8.52378 	 5.53977
| 19> C 	 -31.7503 	 7.46135 	 5.21911
| 20> H 	 -31.2798 	 8.44065 	 5.21654
| 21> H 	 -31.4861 	 7.01348 	 6.22078
| 22> H 	 -31.2785 	 6.86249 	 4.37022
| 23> S 	 -34.1781 	 0.494115 	 3.94514
| 24> C 	 -34.1523 	 -0.047994 	 2.24362
| 25> C 	 -33.8078 	 0.992442 	 1.39059
| 26> C 	 -33.5482 	 2.23511 	 2.07564
| 27> C 	 -33.6879 	 2.08815 	 3.42167
| 28> H 	 -33.829 	 0.745207 	 0.323623
| 29> C 	 -33.1961 	 3.51577 	 1.28402
| 30> H 	 -33.2655 	 4.30572 	 2.07703
| 31> H 	 -34.041 	 3.77298 	 0.575252
| 32> C 	 -31.7975 	 3.56787 	 0.694575
| 33> H 	 -31.8066 	 4.47856 	 0.0863261
| 34> H 	 -31.7174 	 2.70105 	 -0.026685
| 35> C 	 -30.681 	 3.53971 	 1.76294
| 36> H 	 -30.7551 	 2.54851 	 2.22965
| 37> H 	 -30.7071 	 4.23749 	 2.574
| 38> H 	 -29.674 	 3.60045 	 1.36193
| 39> H 	 -32.3007 	 4.89906 	 7.22963
| 40> H 	 -34.4458 	 -1.01314 	 1.85831
| 41> *
| 42>
| 43>                          ****END OF INPUT****

CARTESIAN COORDINATES (ANGSTROEM)
---------------------------------
  S    -32.697900    2.733870    6.016890
  C    -32.784600    4.457660    6.393040
  C    -33.732300    5.126540    5.671320
  C    -34.035400    4.370440    4.476940
  C    -33.543600    3.119200    4.488370
  H    -34.733800    4.809240    3.742040
  C    -34.132100    6.557320    5.927840
  H    -34.157100    6.739100    6.988760
  H    -35.255700    6.629220    5.651200
  C    -33.251000    7.606880    5.166650
  H    -33.566100    7.734200    4.099880
  H    -33.548900    8.523780    5.539770
  C    -31.750300    7.461350    5.219110
  H    -31.279800    8.440650    5.216540
  H    -31.486100    7.013480    6.220780
  H    -31.278500    6.862490    4.370220
  S    -34.178100    0.494115    3.945140
  C    -34.152300   -0.047994    2.243620
  C    -33.807800    0.992442    1.390590
  C    -33.548200    2.235110    2.075640
  C    -33.687900    2.088150    3.421670
  H    -33.829000    0.745207    0.323623
  C    -33.196100    3.515770    1.284020
  H    -33.265500    4.305720    2.077030
  H    -34.041000    3.772980    0.575252
  C    -31.797500    3.567870    0.694575
  H    -31.806600    4.478560    0.086326
  H    -31.717400    2.701050   -0.026685
  C    -30.681000    3.539710    1.762940
  H    -30.755100    2.548510    2.229650
  H    -30.707100    4.237490    2.574000
  H    -29.674000    3.600450    1.361930
  H    -32.300700    4.899060    7.229630
  H    -34.445800   -1.013140    1.858310

 Total Charge           Charge          ....    0
 Multiplicity           Mult            ....    1
 Number of Electrons    NEL             ....  134
 Basis Dimension        Dim             ....  322

ORBITAL ENERGIES
----------------

  NO   OCC          E(Eh)            E(eV)
   0   2.0000     -88.965762     -2420.8815
   1   2.0000     -88.964553     -2420.8486
   2   2.0000     -10.329858      -281.0897
   3   2.0000     -10.326018      -280.9852
   4   2.0000     -10.317253      -280.7467
   5   2.0000     -10.309093      -280.5247
   6   2.0000     -10.302559      -280.3469
   7   2.0000     -10.301417      -280.3158
   8   2.0000     -10.297694      -280.2145
   9   2.0000     -10.296418      -280.1798
  10   2.0000     -10.295288      -280.1490
  11   2.0000     -10.294358      -280.1237
  12   2.0000     -10.291217      -280.0382
  13   2.0000     -10.287456      -279.9359
  14   2.0000     -10.286498      -279.9098
  15   2.0000     -10.271635      -279.5054
  16   2.0000      -8.079987      -219.8676
  17   2.0000      -8.078780      -219.8348
  18   2.0000      -6.038613      -164.3190
  19   2.0000      -6.037425      -164.2867
  20   2.0000      -6.034710      -164.2128
  21   2.0000      -6.033788      -164.1877
  22   2.0000      -6.030529      -164.0990
  23   2.0000      -6.029004      -164.0575
  24   2.0000      -1.003811       -27.3151
  25   2.0000      -0.980994       -26.6942
  26   2.0000      -0.909754       -24.7557
  27   2.0000      -0.903683       -24.5905
  28   2.0000      -0.864547       -23.5255
  29   2.0000      -0.848697       -23.0942
  30   2.0000      -0.840309       -22.8660
  31   2.0000      -0.814596       -22.1663
  32   2.0000      -0.782014       -21.2797
  33   2.0000      -0.774109       -21.0646
  34   2.0000      -0.706760       -19.2319
  35   2.0000      -0.696633       -18.9564
  36   2.0000      -0.691568       -18.8185
  37   2.0000      -0.655586       -17.8394
  38   2.0000      -0.636104       -17.3093
  39   2.0000      -0.622966       -16.9518
  40   2.0000      -0.588627       -16.0173
  41   2.0000      -0.563805       -15.3419
  42   2.0000      -0.549492       -14.9524
  43   2.0000      -0.546970       -14.8838
  44   2.0000      -0.543242       -14.7824
  45   2.0000      -0.531193       -14.4545
  46   2.0000      -0.516425       -14.0526
  47   2.0000      -0.506955       -13.7949
  48   2.0000      -0.495355       -13.4793
  49   2.0000      -0.493451       -13.4275
  50   2.0000      -0.488421       -13.2906
  51   2.0000      -0.474343       -12.9075
  52   2.0000      -0.467767       -12.7286
  53   2.0000      -0.460922       -12.5423
  54   2.0000      -0.460605       -12.5337
  55   2.0000      -0.447569       -12.1790
  56   2.0000      -0.441773       -12.0213
  57   2.0000      -0.437236       -11.8978
  58   2.0000      -0.436428       -11.8758
  59   2.0000      -0.422940       -11.5088
  60   2.0000      -0.418156       -11.3786
  61   2.0000      -0.414778       -11.2867
  62   2.0000      -0.407334       -11.0841
  63   2.0000      -0.350161        -9.5284
  64   2.0000      -0.332415        -9.0455
  65   2.0000      -0.329092        -8.9550
  66   2.0000      -0.289593        -7.8802
  67   0.0000       0.034358         0.9349
  68   0.0000       0.065361         1.7786
  69   0.0000       0.097328         2.6484
  70   0.0000       0.120072         3.2673
  71   0.0000       0.126000         3.4286

MULLIKEN ATOMIC CHARGES
-----------------------
   0 S :    0.100374
   1 C :   -0.115559
   2 C :   -0.087947
   3 C :    0.001211
   4 C :   -0.117857
   5 H :    0.031193
   6 C :    0.026912
   7 H :    0.025759
   8 H :    0.042071
   9 C :   -0.030751
  10 H :    0.026526
  11 H :    0.007287
  12 C :   -0.070822
  13 H :    0.034389
  14 H :    0.025836
  15 H :    0.061743
  16 S :    0.098392
  17 C :   -0.093952
  18 C :   -0.047966
  19 C :   -0.057111
  20 C :   -0.137554
  21 H :    0.027245
  22 C :    0.040757
  23 H :    0.008838
  24 H :    0.048008
  25 C :   -0.055174
  26 H :    0.030847
  27 H :    0.035859
  28 C :   -0.045086
  29 H :    0.040638
  30 H :    0.031667
  31 H :    0.030997
  32 H :    0.033412
  33 H :    0.049818
Sum of atomic charges:   -0.0000000

LOEWDIN ATOMIC CHARGES
----------------------
   0 S :    0.368345
   1 C :   -0.178322
   2 C :   -0.064301
   3 C :   -0.065119
   4 C :   -0.172571
   5 H :    0.038393
   6 C :   -0.036059
   7 H :    0.027288
   8 H :    0.044564
   9 C :   -0.043229
  10 H :    0.029341
  11 H :    0.014954
  12 C :   -0.073415
  13 H :    0.028294
  14 H :    0.028502
  15 H :    0.037653
  16 S :    0.383208
  17 C :   -0.177496
  18 C :   -0.068444
  19 C :   -0.066098
  20 C :   -0.190308
  21 H :    0.035457
  22 C :   -0.039520
  23 H :    0.029512
  24 H :    0.038526
  25 C :   -0.041390
  26 H :    0.023843
  27 H :    0.028387
  28 C :   -0.066190
  29 H :    0.033473
  30 H :    0.023081
  31 H :    0.026228
  32 H :    0.015787
  33 H :    0.027627

  Mayer bond orders larger than 0.100000
B(  0-S ,  1-C ) :   1.1188 B(  0-S ,  4-C ) :   1.1119 B(  1-C ,  2-C ) :   1.6497
B(  1-C , 32-H ) :   0.9678 B(  2-C ,  3-C ) :   1.1849 B(  2-C ,  6-C ) :   1.0473
B(  3-C ,  4-C ) :   1.6384 B(  3-C ,  5-H ) :   0.9852 B(  4-C , 20-C ) :   1.0068
B(  6-C ,  7-H ) :   0.9405 B(  6-C ,  8-H ) :   0.9385 B(  6-C ,  9-C ) :   1.0628
B(  9-C , 10-H ) :   0.9522 B(  9-C , 11-H ) :   0.9542 B(  9-C , 12-C ) :   1.0782
B( 12-C , 13-H ) :   0.9704 B( 12-C , 14-H ) :   0.9732 B( 12-C , 15-H ) :   0.9725
B( 16-S , 17-C ) :   1.1214 B( 16-S , 20-C ) :   1.1358 B( 17-C , 18-C ) :   1.6628
B( 17-C , 33-H ) :   0.9675 B( 18-C , 19-C ) :   1.1881 B( 18-C , 21-H ) :   0.9863
B( 19-C , 20-C ) :   1.6523 B( 19-C , 22-C ) :   1.0231 B( 22-C , 23-H ) :   0.9273
B( 22-C , 24-H ) :   0.9391 B( 22-C , 25-C ) :   1.0698 B( 25-C , 26-H ) :   0.9544
B( 25-C , 27-H ) :   0.9586 B( 25-C , 28-C ) :   1.0627 B( 28-C , 29-H ) :   0.9720
B( 28-C , 30-H ) :   0.9777 B( 28-C , 31-H ) :   0.9748

Dispersion correction           -0.015715623
FINAL SINGLE POINT ENERGY     -1339.874949462050

DIPOLE MOMENT
-------------
                                X             Y             Z
Electronic contribution:     -9.06252     -23.92133       9.64438
Nuclear contribution   :      8.96270      24.63856      -9.95787
                        -----------------------------------------
Total Dipole Moment    :     -0.09982       0.71724      -0.31349
                        -----------------------------------------
Magnitude (a.u.)       :      0.78909
Magnitude (Debye)      :      2.00572

Rotational constants in cm-1:     0.020341     0.009527     0.007572
Rotational constants in MHz :   609.796716   285.611943   227.012087

                             ****ORCA TERMINATED NORMALLY****
TOTAL RUN TIME: 0 days 0 hours 0 minutes 22 seconds 928 msec
