                         Program Version 4.2.1 -  RELEASE  -
|  1> ! wB97X-D3 SP def2-SVP
|  2> %pal
|  3> nprocs 24
|  4> end
|  5>
|  6> * xyz 0 1
|  7> S 	 -58.4663 	 -4.13121 	 -29.3748
|  8> C 	 -58.2498 	 -4.94624 	 -27.8032
|  9> C 	 -57.0414 	 -4.62363 	 -27.2913
| 10> C 	 -56.4184 	 -3.5451 	 -28.0305
| 11> C 	 -57.0526 	 -3.17593 	 -29.1409
| 12> H 	 -55.438 	 -3.00299 	 -27.7895
| 13> C 	 -56.3719 	 -5.20098 	 -26.0491
| 14> H 	 -55.3422 	 -5.54055 	 -26.2321
| 15> H 	 -56.9361 	 -6.09873 	 -25.817
| 16> C 	 -56.2815 	 -4.15882 	 -24.854
| 17> H 	 -55.681 	 -3.32019 	 -25.1738
| 18> H 	 -57.2841 	 -3.78537 	 -24.5679
| 19> C 	 -55.8487 	 -4.95106 	 -23.5669
| 20> H 	 -56.5617 	 -5.54486 	 -23.0036
| 21> H 	 -55.1148 	 -5.63487 	 -23.8071
| 22> H 	 -55.3826 	 -4.24093 	 -22.8458
| 23> S 	 -57.013 	 -2.1893 	 -31.7713
| 24> C 	 -56.4132 	 -0.541344 	 -32.045
| 25> C 	 -56.1955 	 0.133336 	 -30.8197
| 26> C 	 -56.4285 	 -0.710631 	 -29.6975
| 27> C 	 -56.7838 	 -2.01883 	 -30.0303
| 28> H 	 -55.8106 	 1.11983 	 -30.7116
| 29> C 	 -56.14 	 -0.174376 	 -28.2887
| 30> H 	 -55.6708 	 0.76786 	 -28.4719
| 31> H 	 -55.2808 	 -0.666365 	 -27.8065
| 32> C 	 -57.3877 	 -0.205916 	 -27.3151
| 33> H 	 -57.0536 	 0.167931 	 -26.322
| 34> H 	 -57.6261 	 -1.22394 	 -27.0769
| 35> C 	 -58.6955 	 0.396327 	 -27.7824
| 36> H 	 -59.0765 	 -0.181276 	 -28.5731
| 37> H 	 -58.5488 	 1.41503 	 -28.0917
| 38> H 	 -59.5071 	 0.429988 	 -27.0718
| 39> H 	 -59.0147 	 -5.61085 	 -27.4173
| 40> H 	 -56.4226 	 -0.131525 	 -33.0342
| 41> *
| 42>
| 43>                          ****END OF INPUT****

CARTESIAN COORDINATES (ANGSTROEM)
---------------------------------
  S    -58.466300   -4.131210  -29.374800
  C    -58.249800   -4.946240  -27.803200
  C    -57.041400   -4.623630  -27.291300
  C    -56.418400   -3.545100  -28.030500
  C    -57.052600   -3.175930  -29.140900
  H    -55.438000   -3.002990  -27.789500
  C    -56.371900   -5.200980  -26.049100
  H    -55.342200   -5.540550  -26.232100
  H    -56.936100   -6.098730  -25.817000
  C    -56.281500   -4.158820  -24.854000
  H    -55.681000   -3.320190  -25.173800
  H    -57.284100   -3.785370  -24.567900
  C    -55.848700   -4.951060  -23.566900
  H    -56.561700   -5.544860  -23.003600
  H    -55.114800   -5.634870  -23.807100
  H    -55.382600   -4.240930  -22.845800
  S    -57.013000   -2.189300  -31.771300
  C    -56.413200   -0.541344  -32.045000
  C    -56.195500    0.133336  -30.819700
  C    -56.428500   -0.710631  -29.697500
  C    -56.783800   -2.018830  -30.030300
  H    -55.810600    1.119830  -30.711600
  C    -56.140000   -0.174376  -28.288700
  H    -55.670800    0.767860  -28.471900
  H    -55.280800   -0.666365  -27.806500
  C    -57.387700   -0.205916  -27.315100
  H    -57.053600    0.167931  -26.322000
  H    -57.626100   -1.223940  -27.076900
  C    -58.695500    0.396327  -27.782400
  H    -59.076500   -0.181276  -28.573100
  H    -58.548800    1.415030  -28.091700
  H    -59.507100    0.429988  -27.071800
  H    -59.014700   -5.610850  -27.417300
  H    -56.422600   -0.131525  -33.034200

 Total Charge           Charge          ....    0
 Multiplicity           Mult            ....    1
 Number of Electrons    NEL             ....  134
 Basis Dimension        Dim             ....  322

ORBITAL ENERGIES
----------------

  NO   OCC          E(Eh)            E(eV)
   0   2.0000     -88.969096     -2420.9722
   1   2.0000     -88.959507     -2420.7112
   2   2.0000     -10.330707      -281.1128
   3   2.0000     -10.324420      -280.9418
   4   2.0000     -10.324055      -280.9318
   5   2.0000     -10.316005      -280.7128
   6   2.0000     -10.303881      -280.3829
   7   2.0000     -10.303385      -280.3694
   8   2.0000     -10.298576      -280.2385
   9   2.0000     -10.297428      -280.2073
  10   2.0000     -10.296867      -280.1920
  11   2.0000     -10.295968      -280.1675
  12   2.0000     -10.293398      -280.0976
  13   2.0000     -10.284205      -279.8474
  14   2.0000     -10.277537      -279.6660
  15   2.0000     -10.263276      -279.2779
  16   2.0000      -8.083079      -219.9518
  17   2.0000      -8.074938      -219.7302
  18   2.0000      -6.041546      -164.3988
  19   2.0000      -6.037666      -164.2932
  20   2.0000      -6.033977      -164.1929
  21   2.0000      -6.033515      -164.1803
  22   2.0000      -6.029505      -164.0712
  23   2.0000      -6.025419      -163.9600
  24   2.0000      -1.008075       -27.4311
  25   2.0000      -0.982185       -26.7266
  26   2.0000      -0.905960       -24.6524
  27   2.0000      -0.900832       -24.5129
  28   2.0000      -0.867359       -23.6020
  29   2.0000      -0.850353       -23.1393
  30   2.0000      -0.841009       -22.8850
  31   2.0000      -0.814519       -22.1642
  32   2.0000      -0.784195       -21.3390
  33   2.0000      -0.774034       -21.0625
  34   2.0000      -0.710643       -19.3376
  35   2.0000      -0.705764       -19.2048
  36   2.0000      -0.687939       -18.7198
  37   2.0000      -0.667554       -18.1651
  38   2.0000      -0.645712       -17.5707
  39   2.0000      -0.615433       -16.7468
  40   2.0000      -0.592760       -16.1298
  41   2.0000      -0.569220       -15.4893
  42   2.0000      -0.554686       -15.0938
  43   2.0000      -0.546101       -14.8602
  44   2.0000      -0.541629       -14.7385
  45   2.0000      -0.523671       -14.2498
  46   2.0000      -0.515646       -14.0314
  47   2.0000      -0.512021       -13.9328
  48   2.0000      -0.499115       -13.5816
  49   2.0000      -0.493797       -13.4369
  50   2.0000      -0.492752       -13.4085
  51   2.0000      -0.480995       -13.0885
  52   2.0000      -0.473860       -12.8944
  53   2.0000      -0.468229       -12.7412
  54   2.0000      -0.465518       -12.6674
  55   2.0000      -0.448563       -12.2060
  56   2.0000      -0.443766       -12.0755
  57   2.0000      -0.439793       -11.9674
  58   2.0000      -0.432055       -11.7568
  59   2.0000      -0.425158       -11.5691
  60   2.0000      -0.417681       -11.3657
  61   2.0000      -0.411840       -11.2067
  62   2.0000      -0.407205       -11.0806
  63   2.0000      -0.350848        -9.5471
  64   2.0000      -0.334473        -9.1015
  65   2.0000      -0.327076        -8.9002
  66   2.0000      -0.292325        -7.9546
  67   0.0000       0.028555         0.7770
  68   0.0000       0.070641         1.9223
  69   0.0000       0.101063         2.7501
  70   0.0000       0.120121         3.2687
  71   0.0000       0.127888         3.4800

MULLIKEN ATOMIC CHARGES
-----------------------
   0 S :    0.080292
   1 C :   -0.149206
   2 C :   -0.044031
   3 C :   -0.041678
   4 C :   -0.102315
   5 H :    0.037522
   6 C :    0.055584
   7 H :    0.039805
   8 H :    0.016251
   9 C :   -0.082325
  10 H :    0.039587
  11 H :    0.039339
  12 C :   -0.035972
  13 H :    0.038377
  14 H :    0.005509
  15 H :    0.033829
  16 S :    0.100554
  17 C :   -0.091220
  18 C :   -0.014261
  19 C :   -0.067246
  20 C :   -0.144102
  21 H :    0.014529
  22 C :    0.080330
  23 H :   -0.002871
  24 H :    0.029666
  25 C :   -0.068001
  26 H :    0.020746
  27 H :    0.033289
  28 C :   -0.009363
  29 H :    0.030729
  30 H :    0.018380
  31 H :    0.024943
  32 H :    0.052986
  33 H :    0.060345
Sum of atomic charges:   -0.0000000

LOEWDIN ATOMIC CHARGES
----------------------
   0 S :    0.383919
   1 C :   -0.179654
   2 C :   -0.062827
   3 C :   -0.079535
   4 C :   -0.195690
   5 H :    0.043855
   6 C :   -0.029711
   7 H :    0.033921
   8 H :    0.027023
   9 C :   -0.031783
  10 H :    0.022919
  11 H :    0.028534
  12 C :   -0.066783
  13 H :    0.028409
  14 H :    0.010237
  15 H :    0.031297
  16 S :    0.395597
  17 C :   -0.172523
  18 C :   -0.063800
  19 C :   -0.058942
  20 C :   -0.193090
  21 H :    0.028376
  22 C :   -0.029405
  23 H :    0.023047
  24 H :    0.032931
  25 C :   -0.039564
  26 H :    0.023661
  27 H :    0.023865
  28 C :   -0.059913
  29 H :    0.023209
  30 H :    0.020393
  31 H :    0.027658
  32 H :    0.030180
  33 H :    0.024191

  Mayer bond orders larger than 0.100000
B(  0-S ,  1-C ) :   1.1140 B(  0-S ,  4-C ) :   1.1353 B(  1-C ,  2-C ) :   1.6461
B(  1-C , 32-H ) :   0.9758 B(  2-C ,  3-C ) :   1.1743 B(  2-C ,  6-C ) :   1.0308
B(  3-C ,  4-C ) :   1.6544 B(  3-C ,  5-H ) :   0.9825 B(  4-C , 20-C ) :   1.0146
B(  6-C ,  7-H ) :   0.9396 B(  6-C ,  8-H ) :   0.9457 B(  6-C ,  9-C ) :   1.0492
B(  9-C , 10-H ) :   0.9617 B(  9-C , 11-H ) :   0.9614 B(  9-C , 12-C ) :   1.0634
B( 12-C , 13-H ) :   0.9791 B( 12-C , 14-H ) :   0.9741 B( 12-C , 15-H ) :   0.9743
B( 16-S , 17-C ) :   1.1647 B( 16-S , 20-C ) :   1.1439 B( 17-C , 18-C ) :   1.5631
B( 17-C , 20-C ) :   0.1103 B( 17-C , 33-H ) :   0.9730 B( 18-C , 19-C ) :   1.2762
B( 18-C , 21-H ) :   0.9888 B( 19-C , 20-C ) :   1.5772 B( 19-C , 22-C ) :   1.0262
B( 22-C , 23-H ) :   0.9319 B( 22-C , 24-H ) :   0.9405 B( 22-C , 25-C ) :   1.0512
B( 25-C , 26-H ) :   0.9552 B( 25-C , 27-H ) :   0.9545 B( 25-C , 28-C ) :   1.0837
B( 28-C , 29-H ) :   0.9685 B( 28-C , 30-H ) :   0.9770 B( 28-C , 31-H ) :   0.9711

Dispersion correction           -0.015486854
FINAL SINGLE POINT ENERGY     -1339.873681017701

DIPOLE MOMENT
-------------
                                X             Y             Z
Electronic contribution:     -4.47747      -5.08334     -28.73919
Nuclear contribution   :      4.75505       5.26327      29.38426
                        -----------------------------------------
Total Dipole Moment    :      0.27758       0.17994       0.64507
                        -----------------------------------------
Magnitude (a.u.)       :      0.72494
Magnitude (Debye)      :      1.84265

Rotational constants in cm-1:     0.021217     0.008691     0.007222
Rotational constants in MHz :   636.060262   260.559520   216.523543

                             ****ORCA TERMINATED NORMALLY****
TOTAL RUN TIME: 0 days 0 hours 0 minutes 21 seconds 451 msec
