                         Program Version 4.2.1 -  RELEASE  -
|  1> ! wB97X-D3 SP def2-SVP
|  2> %pal
|  3> nprocs 24
|  4> end
|  5>
|  6> * xyz 0 1
|  7> S 	 -55.2388 	 14.1261 	 -88.7608
|  8> C 	 -54.8187 	 13.8183 	 -90.48
|  9> C 	 -54.0602 	 14.8436 	 -91.0286
| 10> C 	 -53.8304 	 15.8799 	 -90.0769
| 11> C 	 -54.4325 	 15.663 	 -88.8385
| 12> H 	 -53.2687 	 16.8122 	 -90.1079
| 13> C 	 -53.547 	 15.0002 	 -92.436
| 14> H 	 -53.2107 	 16.033 	 -92.7144
| 15> H 	 -54.346 	 14.7596 	 -93.0809
| 16> C 	 -52.3605 	 14.0752 	 -92.8089
| 17> H 	 -51.4793 	 14.2998 	 -92.1898
| 18> H 	 -52.6831 	 13.0268 	 -92.6422
| 19> C 	 -51.9087 	 14.1525 	 -94.2953
| 20> H 	 -52.6597 	 13.5773 	 -94.8542
| 21> H 	 -51.9016 	 15.0986 	 -94.864
| 22> H 	 -50.9943 	 13.6264 	 -94.4156
| 23> S 	 -54.1375 	 15.5914 	 -86.0683
| 24> C 	 -53.6424 	 16.9739 	 -85.1663
| 25> C 	 -54.126 	 18.0657 	 -85.8823
| 26> C 	 -54.5281 	 17.7741 	 -87.2222
| 27> C 	 -54.1728 	 16.4835 	 -87.6178
| 28> H 	 -54.0706 	 19.0918 	 -85.4649
| 29> C 	 -54.8907 	 18.9368 	 -88.1572
| 30> H 	 -53.9785 	 18.9779 	 -88.8278
| 31> H 	 -54.9082 	 19.8349 	 -87.4487
| 32> C 	 -56.2921 	 18.5026 	 -88.7445
| 33> H 	 -56.8946 	 18.2723 	 -87.8879
| 34> H 	 -56.2376 	 17.6488 	 -89.4141
| 35> C 	 -57.0299 	 19.7189 	 -89.3748
| 36> H 	 -57.142 	 20.493 	 -88.6553
| 37> H 	 -58.021 	 19.3516 	 -89.6392
| 38> H 	 -56.4268 	 20.2212 	 -90.1004
| 39> H 	 -55.1739 	 12.9239 	 -91.0176
| 40> H 	 -53.0614 	 17.1164 	 -84.2701
| 41> *
| 42>
| 43>                          ****END OF INPUT****

CARTESIAN COORDINATES (ANGSTROEM)
---------------------------------
  S    -55.238800   14.126100  -88.760800
  C    -54.818700   13.818300  -90.480000
  C    -54.060200   14.843600  -91.028600
  C    -53.830400   15.879900  -90.076900
  C    -54.432500   15.663000  -88.838500
  H    -53.268700   16.812200  -90.107900
  C    -53.547000   15.000200  -92.436000
  H    -53.210700   16.033000  -92.714400
  H    -54.346000   14.759600  -93.080900
  C    -52.360500   14.075200  -92.808900
  H    -51.479300   14.299800  -92.189800
  H    -52.683100   13.026800  -92.642200
  C    -51.908700   14.152500  -94.295300
  H    -52.659700   13.577300  -94.854200
  H    -51.901600   15.098600  -94.864000
  H    -50.994300   13.626400  -94.415600
  S    -54.137500   15.591400  -86.068300
  C    -53.642400   16.973900  -85.166300
  C    -54.126000   18.065700  -85.882300
  C    -54.528100   17.774100  -87.222200
  C    -54.172800   16.483500  -87.617800
  H    -54.070600   19.091800  -85.464900
  C    -54.890700   18.936800  -88.157200
  H    -53.978500   18.977900  -88.827800
  H    -54.908200   19.834900  -87.448700
  C    -56.292100   18.502600  -88.744500
  H    -56.894600   18.272300  -87.887900
  H    -56.237600   17.648800  -89.414100
  C    -57.029900   19.718900  -89.374800
  H    -57.142000   20.493000  -88.655300
  H    -58.021000   19.351600  -89.639200
  H    -56.426800   20.221200  -90.100400
  H    -55.173900   12.923900  -91.017600
  H    -53.061400   17.116400  -84.270100

 Total Charge           Charge          ....    0
 Multiplicity           Mult            ....    1
 Number of Electrons    NEL             ....  134
 Basis Dimension        Dim             ....  322

ORBITAL ENERGIES
----------------

  NO   OCC          E(Eh)            E(eV)
   0   2.0000     -88.970290     -2421.0047
   1   2.0000     -88.956745     -2420.6361
   2   2.0000     -10.332356      -281.1577
   3   2.0000     -10.329587      -281.0823
   4   2.0000     -10.321330      -280.8577
   5   2.0000     -10.317276      -280.7473
   6   2.0000     -10.307399      -280.4786
   7   2.0000     -10.305129      -280.4168
   8   2.0000     -10.304395      -280.3968
   9   2.0000     -10.295082      -280.1434
  10   2.0000     -10.293914      -280.1117
  11   2.0000     -10.293857      -280.1101
  12   2.0000     -10.292404      -280.0705
  13   2.0000     -10.286511      -279.9102
  14   2.0000     -10.278589      -279.6946
  15   2.0000     -10.269620      -279.4506
  16   2.0000      -8.084312      -219.9853
  17   2.0000      -8.071887      -219.6472
  18   2.0000      -6.042893      -164.4355
  19   2.0000      -6.039004      -164.3297
  20   2.0000      -6.034944      -164.2192
  21   2.0000      -6.030638      -164.1020
  22   2.0000      -6.026682      -163.9944
  23   2.0000      -6.021972      -163.8662
  24   2.0000      -1.005963       -27.3736
  25   2.0000      -0.984090       -26.7784
  26   2.0000      -0.909945       -24.7609
  27   2.0000      -0.903537       -24.5865
  28   2.0000      -0.864585       -23.5266
  29   2.0000      -0.849815       -23.1246
  30   2.0000      -0.842659       -22.9299
  31   2.0000      -0.812232       -22.1020
  32   2.0000      -0.780396       -21.2357
  33   2.0000      -0.767926       -20.8963
  34   2.0000      -0.706498       -19.2248
  35   2.0000      -0.699587       -19.0367
  36   2.0000      -0.689464       -18.7613
  37   2.0000      -0.657661       -17.8959
  38   2.0000      -0.643776       -17.5180
  39   2.0000      -0.613740       -16.7007
  40   2.0000      -0.581212       -15.8156
  41   2.0000      -0.571632       -15.5549
  42   2.0000      -0.561759       -15.2862
  43   2.0000      -0.557484       -15.1699
  44   2.0000      -0.534330       -14.5399
  45   2.0000      -0.524148       -14.2628
  46   2.0000      -0.519730       -14.1426
  47   2.0000      -0.513137       -13.9632
  48   2.0000      -0.501746       -13.6532
  49   2.0000      -0.500938       -13.6312
  50   2.0000      -0.488689       -13.2979
  51   2.0000      -0.482261       -13.1230
  52   2.0000      -0.470764       -12.8101
  53   2.0000      -0.461149       -12.5485
  54   2.0000      -0.453344       -12.3361
  55   2.0000      -0.447630       -12.1806
  56   2.0000      -0.445338       -12.1183
  57   2.0000      -0.436944       -11.8898
  58   2.0000      -0.434529       -11.8241
  59   2.0000      -0.429866       -11.6972
  60   2.0000      -0.416716       -11.3394
  61   2.0000      -0.414658       -11.2834
  62   2.0000      -0.394585       -10.7372
  63   2.0000      -0.347917        -9.4673
  64   2.0000      -0.334689        -9.1074
  65   2.0000      -0.317444        -8.6381
  66   2.0000      -0.285528        -7.7696
  67   0.0000       0.018588         0.5058
  68   0.0000       0.054504         1.4831
  69   0.0000       0.093917         2.5556
  70   0.0000       0.124635         3.3915
  71   0.0000       0.132843         3.6148

MULLIKEN ATOMIC CHARGES
-----------------------
   0 S :    0.105314
   1 C :   -0.148464
   2 C :   -0.025636
   3 C :   -0.001725
   4 C :   -0.147819
   5 H :    0.011856
   6 C :    0.078983
   7 H :    0.030800
   8 H :    0.015604
   9 C :   -0.102963
  10 H :    0.039060
  11 H :    0.033811
  12 C :   -0.047573
  13 H :    0.019093
  14 H :    0.036376
  15 H :    0.033697
  16 S :    0.068679
  17 C :   -0.066036
  18 C :   -0.051670
  19 C :   -0.070239
  20 C :   -0.133027
  21 H :    0.029309
  22 C :    0.012836
  23 H :    0.061863
  24 H :    0.033689
  25 C :   -0.099030
  26 H :    0.034192
  27 H :    0.063366
  28 C :    0.004755
  29 H :    0.007067
  30 H :    0.037120
  31 H :    0.020993
  32 H :    0.057695
  33 H :    0.058026
Sum of atomic charges:   -0.0000000

LOEWDIN ATOMIC CHARGES
----------------------
   0 S :    0.394125
   1 C :   -0.190588
   2 C :   -0.056439
   3 C :   -0.070786
   4 C :   -0.194958
   5 H :    0.033188
   6 C :   -0.030582
   7 H :    0.035526
   8 H :    0.025470
   9 C :   -0.036508
  10 H :    0.024199
  11 H :    0.026599
  12 C :   -0.073335
  13 H :    0.025292
  14 H :    0.027166
  15 H :    0.023935
  16 S :    0.381650
  17 C :   -0.182675
  18 C :   -0.083974
  19 C :   -0.058690
  20 C :   -0.183433
  21 H :    0.031426
  22 C :   -0.038368
  23 H :    0.039933
  24 H :    0.035585
  25 C :   -0.030777
  26 H :    0.026913
  27 H :    0.028883
  28 C :   -0.062457
  29 H :    0.017444
  30 H :    0.028047
  31 H :    0.020233
  32 H :    0.031963
  33 H :    0.035993

  Mayer bond orders larger than 0.100000
B(  0-S ,  1-C ) :   1.1230 B(  0-S ,  4-C ) :   1.1498 B(  1-C ,  2-C ) :   1.6091
B(  1-C , 32-H ) :   0.9679 B(  2-C ,  3-C ) :   1.2249 B(  2-C ,  6-C ) :   1.0175
B(  3-C ,  4-C ) :   1.5847 B(  3-C ,  5-H ) :   0.9959 B(  4-C , 20-C ) :   1.0491
B(  6-C ,  7-H ) :   0.9484 B(  6-C ,  8-H ) :   0.9354 B(  6-C ,  9-C ) :   1.0610
B(  9-C , 10-H ) :   0.9622 B(  9-C , 11-H ) :   0.9588 B(  9-C , 12-C ) :   1.0722
B( 12-C , 13-H ) :   0.9748 B( 12-C , 14-H ) :   0.9767 B( 12-C , 15-H ) :   0.9754
B( 16-S , 17-C ) :   1.1643 B( 16-S , 20-C ) :   1.1028 B( 17-C , 18-C ) :   1.5907
B( 17-C , 20-C ) :   0.1134 B( 17-C , 33-H ) :   0.9731 B( 18-C , 19-C ) :   1.2462
B( 18-C , 21-H ) :   0.9794 B( 19-C , 20-C ) :   1.5582 B( 19-C , 22-C ) :   1.0188
B( 22-C , 23-H ) :   0.9439 B( 22-C , 24-H ) :   0.9463 B( 22-C , 25-C ) :   1.0337
B( 25-C , 26-H ) :   0.9604 B( 25-C , 27-H ) :   0.9564 B( 25-C , 28-C ) :   1.0821
B( 28-C , 29-H ) :   0.9740 B( 28-C , 30-H ) :   0.9741 B( 28-C , 31-H ) :   0.9718

Dispersion correction           -0.013924209
FINAL SINGLE POINT ENERGY     -1339.832013378296

DIPOLE MOMENT
-------------
                                X             Y             Z
Electronic contribution:     -1.93071     -11.20729      23.83790
Nuclear contribution   :      2.06300      11.69068     -24.25498
                        -----------------------------------------
Total Dipole Moment    :      0.13229       0.48339      -0.41708
                        -----------------------------------------
Magnitude (a.u.)       :      0.65201
Magnitude (Debye)      :      1.65728

Rotational constants in cm-1:     0.019519     0.007679     0.006499
Rotational constants in MHz :   585.173445   230.204823   194.843198

                             ****ORCA TERMINATED NORMALLY****
TOTAL RUN TIME: 0 days 0 hours 0 minutes 21 seconds 490 msec
