                         Program Version 4.2.1 -  RELEASE  -
|  1> ! wB97X-D3 SP def2-SVP
|  2> %pal
|  3> nprocs 24
|  4> end
|  5>
|  6> * xyz 0 1
|  7> S 	 -116.311 	 15.8074 	 -114.524
|  8> C 	 -114.707 	 16.6059 	 -114.678
|  9> C 	 -113.814 	 15.9217 	 -113.816
| 10> C 	 -114.419 	 14.7028 	 -113.237
| 11> C 	 -115.798 	 14.5953 	 -113.416
| 12> H 	 -113.983 	 13.908 	 -112.656
| 13> C 	 -112.313 	 16.2382 	 -113.74
| 14> H 	 -111.924 	 15.4777 	 -113.058
| 15> H 	 -112.144 	 17.0169 	 -113.059
| 16> C 	 -111.403 	 16.4422 	 -114.921
| 17> H 	 -111.823 	 15.6496 	 -115.637
| 18> H 	 -111.732 	 17.3599 	 -115.444
| 19> C 	 -109.865 	 16.4461 	 -114.611
| 20> H 	 -109.622 	 17.2296 	 -113.949
| 21> H 	 -109.535 	 15.5466 	 -114.077
| 22> H 	 -109.381 	 16.4517 	 -115.594
| 23> S 	 -116.766 	 13.807 	 -111.013
| 24> C 	 -117.826 	 12.4967 	 -110.812
| 25> C 	 -117.963 	 11.8051 	 -111.985
| 26> C 	 -117.327 	 12.4838 	 -113.097
| 27> C 	 -116.598 	 13.5944 	 -112.664
| 28> H 	 -118.586 	 10.9956 	 -111.948
| 29> C 	 -117.363 	 12.0087 	 -114.548
| 30> H 	 -117.493 	 10.9255 	 -114.583
| 31> H 	 -116.362 	 12.2884 	 -114.932
| 32> C 	 -118.433 	 12.7397 	 -115.375
| 33> H 	 -118.186 	 13.7566 	 -115.22
| 34> H 	 -119.435 	 12.6697 	 -114.932
| 35> C 	 -118.37 	 12.4002 	 -116.861
| 36> H 	 -119.123 	 12.9687 	 -117.431
| 37> H 	 -118.482 	 11.3624 	 -117.212
| 38> H 	 -117.368 	 12.5853 	 -117.257
| 39> H 	 -114.457 	 17.5365 	 -115.184
| 40> H 	 -117.965 	 11.9668 	 -109.918
| 41> *
| 42>
| 43>                          ****END OF INPUT****

CARTESIAN COORDINATES (ANGSTROEM)
---------------------------------
  S    -116.311000   15.807400  -114.524000
  C    -114.707000   16.605900  -114.678000
  C    -113.814000   15.921700  -113.816000
  C    -114.419000   14.702800  -113.237000
  C    -115.798000   14.595300  -113.416000
  H    -113.983000   13.908000  -112.656000
  C    -112.313000   16.238200  -113.740000
  H    -111.924000   15.477700  -113.058000
  H    -112.144000   17.016900  -113.059000
  C    -111.403000   16.442200  -114.921000
  H    -111.823000   15.649600  -115.637000
  H    -111.732000   17.359900  -115.444000
  C    -109.865000   16.446100  -114.611000
  H    -109.622000   17.229600  -113.949000
  H    -109.535000   15.546600  -114.077000
  H    -109.381000   16.451700  -115.594000
  S    -116.766000   13.807000  -111.013000
  C    -117.826000   12.496700  -110.812000
  C    -117.963000   11.805100  -111.985000
  C    -117.327000   12.483800  -113.097000
  C    -116.598000   13.594400  -112.664000
  H    -118.586000   10.995600  -111.948000
  C    -117.363000   12.008700  -114.548000
  H    -117.493000   10.925500  -114.583000
  H    -116.362000   12.288400  -114.932000
  C    -118.433000   12.739700  -115.375000
  H    -118.186000   13.756600  -115.220000
  H    -119.435000   12.669700  -114.932000
  C    -118.370000   12.400200  -116.861000
  H    -119.123000   12.968700  -117.431000
  H    -118.482000   11.362400  -117.212000
  H    -117.368000   12.585300  -117.257000
  H    -114.457000   17.536500  -115.184000
  H    -117.965000   11.966800  -109.918000

 Total Charge           Charge          ....    0
 Multiplicity           Mult            ....    1
 Number of Electrons    NEL             ....  134
 Basis Dimension        Dim             ....  322

ORBITAL ENERGIES
----------------

  NO   OCC          E(Eh)            E(eV)
   0   2.0000     -88.970836     -2421.0195
   1   2.0000     -88.963979     -2420.8330
   2   2.0000     -10.333118      -281.1784
   3   2.0000     -10.326284      -280.9925
   4   2.0000     -10.325022      -280.9581
   5   2.0000     -10.316033      -280.7135
   6   2.0000     -10.305003      -280.4134
   7   2.0000     -10.304872      -280.4098
   8   2.0000     -10.299701      -280.2691
   9   2.0000     -10.296374      -280.1786
  10   2.0000     -10.290202      -280.0106
  11   2.0000     -10.287894      -279.9478
  12   2.0000     -10.286387      -279.9068
  13   2.0000     -10.284839      -279.8647
  14   2.0000     -10.280075      -279.7351
  15   2.0000     -10.276105      -279.6270
  16   2.0000      -8.084340      -219.9861
  17   2.0000      -8.081068      -219.8970
  18   2.0000      -6.042973      -164.4377
  19   2.0000      -6.039311      -164.3380
  20   2.0000      -6.038804      -164.3242
  21   2.0000      -6.035211      -164.2265
  22   2.0000      -6.035001      -164.2207
  23   2.0000      -6.032176      -164.1439
  24   2.0000      -1.015348       -27.6290
  25   2.0000      -0.984052       -26.7774
  26   2.0000      -0.911248       -24.7963
  27   2.0000      -0.907414       -24.6920
  28   2.0000      -0.872545       -23.7431
  29   2.0000      -0.848317       -23.0839
  30   2.0000      -0.843367       -22.9492
  31   2.0000      -0.818557       -22.2741
  32   2.0000      -0.785235       -21.3673
  33   2.0000      -0.771858       -21.0033
  34   2.0000      -0.710841       -19.3430
  35   2.0000      -0.704508       -19.1706
  36   2.0000      -0.694021       -18.8853
  37   2.0000      -0.666603       -18.1392
  38   2.0000      -0.643913       -17.5218
  39   2.0000      -0.611819       -16.6484
  40   2.0000      -0.591738       -16.1020
  41   2.0000      -0.576448       -15.6859
  42   2.0000      -0.561592       -15.2817
  43   2.0000      -0.554016       -15.0755
  44   2.0000      -0.531896       -14.4736
  45   2.0000      -0.526892       -14.3375
  46   2.0000      -0.516676       -14.0595
  47   2.0000      -0.513481       -13.9725
  48   2.0000      -0.510975       -13.9043
  49   2.0000      -0.505525       -13.7560
  50   2.0000      -0.492123       -13.3913
  51   2.0000      -0.482140       -13.1197
  52   2.0000      -0.474866       -12.9217
  53   2.0000      -0.463565       -12.6142
  54   2.0000      -0.454782       -12.3752
  55   2.0000      -0.447840       -12.1863
  56   2.0000      -0.442108       -12.0304
  57   2.0000      -0.441338       -12.0094
  58   2.0000      -0.437920       -11.9164
  59   2.0000      -0.422050       -11.4846
  60   2.0000      -0.417306       -11.3555
  61   2.0000      -0.406931       -11.0732
  62   2.0000      -0.403560       -10.9814
  63   2.0000      -0.339616        -9.2414
  64   2.0000      -0.329772        -8.9736
  65   2.0000      -0.324689        -8.8352
  66   2.0000      -0.310083        -8.4378
  67   0.0000       0.036009         0.9799
  68   0.0000       0.062034         1.6880
  69   0.0000       0.108116         2.9420
  70   0.0000       0.117268         3.1910
  71   0.0000       0.128338         3.4923

MULLIKEN ATOMIC CHARGES
-----------------------
   0 S :    0.109459
   1 C :   -0.124546
   2 C :   -0.088137
   3 C :    0.018643
   4 C :   -0.143044
   5 H :    0.018290
   6 C :    0.077628
   7 H :   -0.002184
   8 H :    0.006479
   9 C :   -0.092862
  10 H :    0.038773
  11 H :    0.026803
  12 C :   -0.031175
  13 H :    0.033563
  14 H :    0.033802
  15 H :    0.052018
  16 S :    0.132505
  17 C :   -0.070634
  18 C :   -0.030894
  19 C :   -0.044728
  20 C :   -0.183152
  21 H :   -0.011569
  22 C :    0.059925
  23 H :    0.024352
  24 H :    0.033157
  25 C :   -0.033695
  26 H :    0.001726
  27 H :    0.027459
  28 C :   -0.037095
  29 H :    0.038513
  30 H :    0.024268
  31 H :    0.021030
  32 H :    0.065993
  33 H :    0.049327
Sum of atomic charges:   -0.0000000

LOEWDIN ATOMIC CHARGES
----------------------
   0 S :    0.412341
   1 C :   -0.190467
   2 C :   -0.053025
   3 C :   -0.065904
   4 C :   -0.212161
   5 H :    0.029740
   6 C :   -0.052023
   7 H :    0.030662
   8 H :    0.023646
   9 C :   -0.049811
  10 H :    0.032529
  11 H :    0.022031
  12 C :   -0.055951
  13 H :    0.022464
  14 H :    0.029051
  15 H :    0.036511
  16 S :    0.470626
  17 C :   -0.205300
  18 C :   -0.058486
  19 C :   -0.051774
  20 C :   -0.228960
  21 H :    0.016837
  22 C :   -0.029474
  23 H :    0.027139
  24 H :    0.033979
  25 C :   -0.039330
  26 H :    0.010662
  27 H :    0.025556
  28 C :   -0.072132
  29 H :    0.029576
  30 H :    0.024913
  31 H :    0.026285
  32 H :    0.036291
  33 H :    0.023958

  Mayer bond orders larger than 0.100000
B(  0-S ,  1-C ) :   1.1335 B(  0-S ,  4-C ) :   1.1537 B(  1-C ,  2-C ) :   1.5937
B(  1-C , 32-H ) :   0.9734 B(  2-C ,  3-C ) :   1.2251 B(  2-C ,  6-C ) :   1.0320
B(  3-C ,  4-C ) :   1.5807 B(  3-C ,  5-H ) :   0.9899 B(  4-C , 20-C ) :   1.0028
B(  6-C ,  7-H ) :   0.9338 B(  6-C ,  8-H ) :   0.9177 B(  6-C ,  9-C ) :   1.0560
B(  9-C , 10-H ) :   0.9613 B(  9-C , 11-H ) :   0.9489 B(  9-C , 12-C ) :   1.0635
B( 12-C , 13-H ) :   0.9767 B( 12-C , 14-H ) :   0.9771 B( 12-C , 15-H ) :   0.9746
B( 16-S , 17-C ) :   1.1828 B( 16-S , 20-C ) :   1.1880 B( 17-C , 18-C ) :   1.5959
B( 17-C , 33-H ) :   0.9610 B( 18-C , 19-C ) :   1.2599 B( 18-C , 21-H ) :   1.0053
B( 19-C , 20-C ) :   1.5546 B( 19-C , 22-C ) :   1.0447 B( 22-C , 23-H ) :   0.9405
B( 22-C , 24-H ) :   0.9306 B( 22-C , 25-C ) :   1.0617 B( 25-C , 26-H ) :   0.9453
B( 25-C , 27-H ) :   0.9559 B( 25-C , 28-C ) :   1.0801 B( 28-C , 29-H ) :   0.9741
B( 28-C , 30-H ) :   0.9754 B( 28-C , 31-H ) :   0.9700

Dispersion correction           -0.014116205
FINAL SINGLE POINT ENERGY     -1339.853511787756

DIPOLE MOMENT
-------------
                                X             Y             Z
Electronic contribution:    -13.35382       2.11927      15.90694
Nuclear contribution   :     13.81071      -2.31090     -15.96890
                        -----------------------------------------
Total Dipole Moment    :      0.45689      -0.19163      -0.06196
                        -----------------------------------------
Magnitude (a.u.)       :      0.49931
Magnitude (Debye)      :      1.26915

Rotational constants in cm-1:     0.020179     0.007466     0.006199
Rotational constants in MHz :   604.944566   223.810877   185.842399

                             ****ORCA TERMINATED NORMALLY****
TOTAL RUN TIME: 0 days 0 hours 0 minutes 20 seconds 868 msec
