                         Program Version 4.2.1 -  RELEASE  -
|  1> ! wB97X-D3 SP def2-SVP
|  2> %pal
|  3> nprocs 24
|  4> end
|  5>
|  6> * xyz 0 1
|  7> S 	 -40.9003 	 16.6502 	 -98.1899
|  8> C 	 -39.201 	 16.7284 	 -98.1633
|  9> C 	 -38.5753 	 16.157 	 -97.0779
| 10> C 	 -39.5507 	 15.8953 	 -96.0636
| 11> C 	 -40.8581 	 16.0355 	 -96.517
| 12> H 	 -39.3589 	 15.7628 	 -95.0684
| 13> C 	 -37.1231 	 15.8686 	 -96.9813
| 14> H 	 -36.7215 	 15.8552 	 -95.9613
| 15> H 	 -36.6695 	 16.7889 	 -97.2887
| 16> C 	 -36.5239 	 14.6938 	 -97.799
| 17> H 	 -37.0175 	 14.8393 	 -98.8169
| 18> H 	 -35.456 	 14.8273 	 -97.8684
| 19> C 	 -37.0152 	 13.3174 	 -97.2597
| 20> H 	 -38.0759 	 13.2297 	 -96.9651
| 21> H 	 -36.8638 	 12.5754 	 -98.0181
| 22> H 	 -36.3523 	 13.0128 	 -96.4859
| 23> S 	 -42.1584 	 17.2558 	 -94.3783
| 24> C 	 -43.6032 	 16.567 	 -93.7143
| 25> C 	 -43.9661 	 15.4161 	 -94.4595
| 26> C 	 -43.0937 	 15.1357 	 -95.5859
| 27> C 	 -42.0477 	 16.0426 	 -95.7266
| 28> H 	 -44.8062 	 14.8125 	 -94.0798
| 29> C 	 -43.2051 	 13.7967 	 -96.3762
| 30> H 	 -44.2198 	 13.4611 	 -96.2487
| 31> H 	 -42.5973 	 12.9896 	 -95.8837
| 32> C 	 -42.8092 	 13.9286 	 -97.8063
| 33> H 	 -41.7239 	 13.9644 	 -97.6312
| 34> H 	 -43.1793 	 14.8618 	 -98.279
| 35> C 	 -43.184 	 12.6659 	 -98.63
| 36> H 	 -42.6308 	 11.7467 	 -98.2317
| 37> H 	 -42.9515 	 12.7677 	 -99.7073
| 38> H 	 -44.2028 	 12.4306 	 -98.4648
| 39> H 	 -38.5534 	 16.9886 	 -98.944
| 40> H 	 -44.1412 	 16.8647 	 -92.8006
| 41> *
| 42>
| 43>                          ****END OF INPUT****

CARTESIAN COORDINATES (ANGSTROEM)
---------------------------------
  S    -40.900300   16.650200  -98.189900
  C    -39.201000   16.728400  -98.163300
  C    -38.575300   16.157000  -97.077900
  C    -39.550700   15.895300  -96.063600
  C    -40.858100   16.035500  -96.517000
  H    -39.358900   15.762800  -95.068400
  C    -37.123100   15.868600  -96.981300
  H    -36.721500   15.855200  -95.961300
  H    -36.669500   16.788900  -97.288700
  C    -36.523900   14.693800  -97.799000
  H    -37.017500   14.839300  -98.816900
  H    -35.456000   14.827300  -97.868400
  C    -37.015200   13.317400  -97.259700
  H    -38.075900   13.229700  -96.965100
  H    -36.863800   12.575400  -98.018100
  H    -36.352300   13.012800  -96.485900
  S    -42.158400   17.255800  -94.378300
  C    -43.603200   16.567000  -93.714300
  C    -43.966100   15.416100  -94.459500
  C    -43.093700   15.135700  -95.585900
  C    -42.047700   16.042600  -95.726600
  H    -44.806200   14.812500  -94.079800
  C    -43.205100   13.796700  -96.376200
  H    -44.219800   13.461100  -96.248700
  H    -42.597300   12.989600  -95.883700
  C    -42.809200   13.928600  -97.806300
  H    -41.723900   13.964400  -97.631200
  H    -43.179300   14.861800  -98.279000
  C    -43.184000   12.665900  -98.630000
  H    -42.630800   11.746700  -98.231700
  H    -42.951500   12.767700  -99.707300
  H    -44.202800   12.430600  -98.464800
  H    -38.553400   16.988600  -98.944000
  H    -44.141200   16.864700  -92.800600

 Total Charge           Charge          ....    0
 Multiplicity           Mult            ....    1
 Number of Electrons    NEL             ....  134
 Basis Dimension        Dim             ....  322

ORBITAL ENERGIES
----------------

  NO   OCC          E(Eh)            E(eV)
   0   2.0000     -88.969137     -2420.9733
   1   2.0000     -88.963040     -2420.8074
   2   2.0000     -10.326751      -281.0052
   3   2.0000     -10.326458      -280.9972
   4   2.0000     -10.322221      -280.8819
   5   2.0000     -10.308214      -280.5008
   6   2.0000     -10.306232      -280.4468
   7   2.0000     -10.298798      -280.2446
   8   2.0000     -10.297183      -280.2006
   9   2.0000     -10.296116      -280.1716
  10   2.0000     -10.291809      -280.0544
  11   2.0000     -10.290602      -280.0215
  12   2.0000     -10.288041      -279.9518
  13   2.0000     -10.280534      -279.7476
  14   2.0000     -10.279905      -279.7304
  15   2.0000     -10.275153      -279.6011
  16   2.0000      -8.083656      -219.9675
  17   2.0000      -8.076920      -219.7842
  18   2.0000      -6.042108      -164.4141
  19   2.0000      -6.038324      -164.3112
  20   2.0000      -6.035474      -164.2336
  21   2.0000      -6.034344      -164.2028
  22   2.0000      -6.031409      -164.1230
  23   2.0000      -6.027803      -164.0249
  24   2.0000      -1.004901       -27.3448
  25   2.0000      -0.977809       -26.6075
  26   2.0000      -0.912148       -24.8208
  27   2.0000      -0.908109       -24.7109
  28   2.0000      -0.868463       -23.6321
  29   2.0000      -0.851953       -23.1828
  30   2.0000      -0.840711       -22.8769
  31   2.0000      -0.810927       -22.0665
  32   2.0000      -0.783138       -21.3103
  33   2.0000      -0.770358       -20.9625
  34   2.0000      -0.710464       -19.3327
  35   2.0000      -0.704161       -19.1612
  36   2.0000      -0.687172       -18.6989
  37   2.0000      -0.654679       -17.8147
  38   2.0000      -0.645857       -17.5747
  39   2.0000      -0.610650       -16.6166
  40   2.0000      -0.592048       -16.1104
  41   2.0000      -0.576516       -15.6878
  42   2.0000      -0.566586       -15.4176
  43   2.0000      -0.553250       -15.0547
  44   2.0000      -0.539606       -14.6834
  45   2.0000      -0.519163       -14.1271
  46   2.0000      -0.511405       -13.9160
  47   2.0000      -0.506325       -13.7778
  48   2.0000      -0.502943       -13.6858
  49   2.0000      -0.496345       -13.5062
  50   2.0000      -0.491261       -13.3679
  51   2.0000      -0.481486       -13.1019
  52   2.0000      -0.475683       -12.9440
  53   2.0000      -0.466575       -12.6962
  54   2.0000      -0.459274       -12.4975
  55   2.0000      -0.445460       -12.1216
  56   2.0000      -0.442468       -12.0402
  57   2.0000      -0.434563       -11.8250
  58   2.0000      -0.433563       -11.7979
  59   2.0000      -0.429577       -11.6894
  60   2.0000      -0.412602       -11.2275
  61   2.0000      -0.410096       -11.1593
  62   2.0000      -0.406257       -11.0548
  63   2.0000      -0.339032        -9.2255
  64   2.0000      -0.329226        -8.9587
  65   2.0000      -0.323754        -8.8098
  66   2.0000      -0.294464        -8.0128
  67   0.0000       0.034442         0.9372
  68   0.0000       0.052239         1.4215
  69   0.0000       0.104457         2.8424
  70   0.0000       0.113149         3.0790
  71   0.0000       0.127385         3.4663

MULLIKEN ATOMIC CHARGES
-----------------------
   0 S :    0.137123
   1 C :   -0.068303
   2 C :   -0.114781
   3 C :    0.077294
   4 C :   -0.211017
   5 H :   -0.017125
   6 C :    0.062662
   7 H :    0.014209
   8 H :    0.014025
   9 C :   -0.070724
  10 H :    0.030136
  11 H :    0.039159
  12 C :   -0.037860
  13 H :    0.050622
  14 H :    0.023095
  15 H :    0.023181
  16 S :    0.102859
  17 C :   -0.106625
  18 C :   -0.058684
  19 C :   -0.020729
  20 C :   -0.151173
  21 H :    0.029677
  22 C :    0.077651
  23 H :    0.000241
  24 H :    0.045210
  25 C :   -0.136929
  26 H :    0.063954
  27 H :    0.043800
  28 C :   -0.025415
  29 H :    0.027101
  30 H :    0.048035
  31 H :    0.019012
  32 H :    0.018115
  33 H :    0.072203
Sum of atomic charges:   -0.0000000

LOEWDIN ATOMIC CHARGES
----------------------
   0 S :    0.433263
   1 C :   -0.193841
   2 C :   -0.066009
   3 C :   -0.033276
   4 C :   -0.195363
   5 H :    0.016969
   6 C :   -0.044682
   7 H :    0.028986
   8 H :    0.030768
   9 C :   -0.033247
  10 H :    0.028036
  11 H :    0.025470
  12 C :   -0.066758
  13 H :    0.033558
  14 H :    0.023489
  15 H :    0.020983
  16 S :    0.390283
  17 C :   -0.197164
  18 C :   -0.082095
  19 C :   -0.049355
  20 C :   -0.192417
  21 H :    0.033980
  22 C :   -0.028080
  23 H :    0.016538
  24 H :    0.039488
  25 C :   -0.058095
  26 H :    0.030055
  27 H :    0.021386
  28 C :   -0.065735
  29 H :    0.031861
  30 H :    0.030383
  31 H :    0.015564
  32 H :    0.015833
  33 H :    0.039222

  Mayer bond orders larger than 0.100000
B(  0-S ,  1-C ) :   1.1583 B(  0-S ,  4-C ) :   1.1349 B(  1-C ,  2-C ) :   1.6301
B(  1-C , 32-H ) :   0.9579 B(  2-C ,  3-C ) :   1.2161 B(  2-C ,  6-C ) :   1.0279
B(  3-C ,  4-C ) :   1.5851 B(  3-C ,  5-H ) :   1.0108 B(  4-C , 20-C ) :   1.0413
B(  6-C ,  7-H ) :   0.9387 B(  6-C ,  8-H ) :   0.9264 B(  6-C ,  9-C ) :   1.0651
B(  9-C , 10-H ) :   0.9590 B(  9-C , 11-H ) :   0.9563 B(  9-C , 12-C ) :   1.0674
B( 12-C , 13-H ) :   0.9761 B( 12-C , 14-H ) :   0.9743 B( 12-C , 15-H ) :   0.9753
B( 16-S , 17-C ) :   1.1681 B( 16-S , 20-C ) :   1.1147 B( 17-C , 18-C ) :   1.6000
B( 17-C , 33-H ) :   0.9624 B( 18-C , 19-C ) :   1.2498 B( 18-C , 21-H ) :   0.9853
B( 19-C , 20-C ) :   1.5893 B( 19-C , 22-C ) :   1.0268 B( 22-C , 23-H ) :   0.9349
B( 22-C , 24-H ) :   0.9364 B( 22-C , 25-C ) :   1.0438 B( 25-C , 26-H ) :   0.9466
B( 25-C , 27-H ) :   0.9619 B( 25-C , 28-C ) :   1.0812 B( 28-C , 29-H ) :   0.9705
B( 28-C , 30-H ) :   0.9748 B( 28-C , 31-H ) :   0.9756

Dispersion correction           -0.014904080
FINAL SINGLE POINT ENERGY     -1339.859436511737

DIPOLE MOMENT
-------------
                                X             Y             Z
Electronic contribution:    -10.20016      20.51528       8.57112
Nuclear contribution   :     10.55503     -20.98143      -8.48718
                        -----------------------------------------
Total Dipole Moment    :      0.35486      -0.46615       0.08394
                        -----------------------------------------
Magnitude (a.u.)       :      0.59183
Magnitude (Debye)      :      1.50432

Rotational constants in cm-1:     0.018441     0.009221     0.007560
Rotational constants in MHz :   552.832328   276.425626   226.634345

                             ****ORCA TERMINATED NORMALLY****
TOTAL RUN TIME: 0 days 0 hours 0 minutes 21 seconds 77 msec
