                         Program Version 4.2.1 -  RELEASE  -
|  1> ! wB97X-D3 SP def2-SVP
|  2> %pal
|  3> nprocs 24
|  4> end
|  5>
|  6> * xyz 0 1
|  7> S 	 -32.9005 	 -30.3724 	 -99.1114
|  8> C 	 -32.9917 	 -30.1855 	 -100.877
|  9> C 	 -32.9766 	 -31.3893 	 -101.497
| 10> C 	 -32.7031 	 -32.5065 	 -100.603
| 11> C 	 -32.4891 	 -32.0951 	 -99.3019
| 12> H 	 -32.7258 	 -33.5616 	 -100.876
| 13> C 	 -33.2779 	 -31.6221 	 -102.968
| 14> H 	 -32.6931 	 -32.4629 	 -103.19
| 15> H 	 -32.9263 	 -30.8421 	 -103.698
| 16> C 	 -34.7526 	 -31.9397 	 -103.333
| 17> H 	 -35.4315 	 -31.1946 	 -102.919
| 18> H 	 -34.8394 	 -31.8917 	 -104.454
| 19> C 	 -35.2557 	 -33.3095 	 -102.818
| 20> H 	 -35.2571 	 -33.3302 	 -101.67
| 21> H 	 -36.3207 	 -33.536 	 -103.078
| 22> H 	 -34.6675 	 -34.1347 	 -103.209
| 23> S 	 -33.0555 	 -33.2692 	 -96.7049
| 24> C 	 -31.7264 	 -33.8912 	 -95.7307
| 25> C 	 -30.6004 	 -34.0361 	 -96.5499
| 26> C 	 -30.7402 	 -33.4127 	 -97.8627
| 27> C 	 -31.9971 	 -32.9055 	 -98.1372
| 28> H 	 -29.6778 	 -34.3822 	 -96.0875
| 29> C 	 -29.5589 	 -33.3655 	 -98.818
| 30> H 	 -29.8452 	 -32.7062 	 -99.7095
| 31> H 	 -29.238 	 -34.3999 	 -99.1339
| 32> C 	 -28.3905 	 -32.4156 	 -98.3117
| 33> H 	 -28.0402 	 -32.9618 	 -97.4373
| 34> H 	 -28.6612 	 -31.3947 	 -98.0069
| 35> C 	 -27.193 	 -32.2126 	 -99.2598
| 36> H 	 -26.5081 	 -31.5753 	 -98.6991
| 37> H 	 -27.4956 	 -31.8066 	 -100.188
| 38> H 	 -26.5887 	 -33.1168 	 -99.4058
| 39> H 	 -33.3811 	 -29.3714 	 -101.425
| 40> H 	 -31.7523 	 -34.3304 	 -94.7189
| 41> *
| 42>
| 43>                          ****END OF INPUT****

CARTESIAN COORDINATES (ANGSTROEM)
---------------------------------
  S    -32.900500  -30.372400  -99.111400
  C    -32.991700  -30.185500  -100.877000
  C    -32.976600  -31.389300  -101.497000
  C    -32.703100  -32.506500  -100.603000
  C    -32.489100  -32.095100  -99.301900
  H    -32.725800  -33.561600  -100.876000
  C    -33.277900  -31.622100  -102.968000
  H    -32.693100  -32.462900  -103.190000
  H    -32.926300  -30.842100  -103.698000
  C    -34.752600  -31.939700  -103.333000
  H    -35.431500  -31.194600  -102.919000
  H    -34.839400  -31.891700  -104.454000
  C    -35.255700  -33.309500  -102.818000
  H    -35.257100  -33.330200  -101.670000
  H    -36.320700  -33.536000  -103.078000
  H    -34.667500  -34.134700  -103.209000
  S    -33.055500  -33.269200  -96.704900
  C    -31.726400  -33.891200  -95.730700
  C    -30.600400  -34.036100  -96.549900
  C    -30.740200  -33.412700  -97.862700
  C    -31.997100  -32.905500  -98.137200
  H    -29.677800  -34.382200  -96.087500
  C    -29.558900  -33.365500  -98.818000
  H    -29.845200  -32.706200  -99.709500
  H    -29.238000  -34.399900  -99.133900
  C    -28.390500  -32.415600  -98.311700
  H    -28.040200  -32.961800  -97.437300
  H    -28.661200  -31.394700  -98.006900
  C    -27.193000  -32.212600  -99.259800
  H    -26.508100  -31.575300  -98.699100
  H    -27.495600  -31.806600  -100.188000
  H    -26.588700  -33.116800  -99.405800
  H    -33.381100  -29.371400  -101.425000
  H    -31.752300  -34.330400  -94.718900

 Total Charge           Charge          ....    0
 Multiplicity           Mult            ....    1
 Number of Electrons    NEL             ....  134
 Basis Dimension        Dim             ....  322

ORBITAL ENERGIES
----------------

  NO   OCC          E(Eh)            E(eV)
   0   2.0000     -88.966756     -2420.9085
   1   2.0000     -88.964119     -2420.8368
   2   2.0000     -10.339365      -281.3484
   3   2.0000     -10.335760      -281.2503
   4   2.0000     -10.326092      -280.9872
   5   2.0000     -10.311310      -280.5850
   6   2.0000     -10.309952      -280.5480
   7   2.0000     -10.302477      -280.3447
   8   2.0000     -10.301811      -280.3265
   9   2.0000     -10.300439      -280.2892
  10   2.0000     -10.298732      -280.2427
  11   2.0000     -10.294725      -280.1337
  12   2.0000     -10.293664      -280.1048
  13   2.0000     -10.286944      -279.9220
  14   2.0000     -10.286279      -279.9039
  15   2.0000     -10.273907      -279.5672
  16   2.0000      -8.080595      -219.8842
  17   2.0000      -8.077662      -219.8044
  18   2.0000      -6.039336      -164.3387
  19   2.0000      -6.036437      -164.2598
  20   2.0000      -6.035401      -164.2316
  21   2.0000      -6.032272      -164.1465
  22   2.0000      -6.030961      -164.1108
  23   2.0000      -6.028251      -164.0371
  24   2.0000      -0.997411       -27.1409
  25   2.0000      -0.977498       -26.5991
  26   2.0000      -0.907746       -24.7010
  27   2.0000      -0.898100       -24.4385
  28   2.0000      -0.865088       -23.5402
  29   2.0000      -0.845298       -23.0017
  30   2.0000      -0.839800       -22.8521
  31   2.0000      -0.815683       -22.1959
  32   2.0000      -0.780510       -21.2388
  33   2.0000      -0.769787       -20.9470
  34   2.0000      -0.704423       -19.1683
  35   2.0000      -0.698645       -19.0111
  36   2.0000      -0.688335       -18.7306
  37   2.0000      -0.653379       -17.7794
  38   2.0000      -0.639632       -17.4053
  39   2.0000      -0.613940       -16.7062
  40   2.0000      -0.588267       -16.0075
  41   2.0000      -0.573493       -15.6055
  42   2.0000      -0.562971       -15.3192
  43   2.0000      -0.541735       -14.7414
  44   2.0000      -0.537937       -14.6380
  45   2.0000      -0.521021       -14.1777
  46   2.0000      -0.520024       -14.1506
  47   2.0000      -0.512963       -13.9584
  48   2.0000      -0.504090       -13.7170
  49   2.0000      -0.499798       -13.6002
  50   2.0000      -0.485166       -13.2020
  51   2.0000      -0.479125       -13.0377
  52   2.0000      -0.467372       -12.7178
  53   2.0000      -0.465678       -12.6717
  54   2.0000      -0.460464       -12.5299
  55   2.0000      -0.441344       -12.0096
  56   2.0000      -0.439374       -11.9560
  57   2.0000      -0.434650       -11.8274
  58   2.0000      -0.431025       -11.7288
  59   2.0000      -0.425790       -11.5863
  60   2.0000      -0.416610       -11.3365
  61   2.0000      -0.413085       -11.2406
  62   2.0000      -0.397019       -10.8034
  63   2.0000      -0.335953        -9.1417
  64   2.0000      -0.330588        -8.9958
  65   2.0000      -0.325821        -8.8660
  66   2.0000      -0.308517        -8.3952
  67   0.0000       0.030998         0.8435
  68   0.0000       0.056368         1.5338
  69   0.0000       0.109423         2.9775
  70   0.0000       0.114524         3.1163
  71   0.0000       0.126425         3.4402

MULLIKEN ATOMIC CHARGES
-----------------------
   0 S :    0.105698
   1 C :   -0.078471
   2 C :   -0.117184
   3 C :    0.051568
   4 C :   -0.167535
   5 H :    0.026183
   6 C :    0.066382
   7 H :    0.007170
   8 H :    0.038408
   9 C :   -0.066508
  10 H :    0.031504
  11 H :    0.039416
  12 C :   -0.102355
  13 H :    0.053077
  14 H :    0.040950
  15 H :    0.031941
  16 S :    0.086908
  17 C :   -0.105000
  18 C :   -0.038258
  19 C :   -0.011085
  20 C :   -0.159770
  21 H :    0.031008
  22 C :    0.013055
  23 H :    0.044256
  24 H :    0.056460
  25 C :   -0.112906
  26 H :    0.015514
  27 H :    0.044658
  28 C :   -0.021480
  29 H :    0.030861
  30 H :    0.031297
  31 H :    0.023642
  32 H :    0.033800
  33 H :    0.076797
Sum of atomic charges:    0.0000000

LOEWDIN ATOMIC CHARGES
----------------------
   0 S :    0.381782
   1 C :   -0.181108
   2 C :   -0.063255
   3 C :   -0.054144
   4 C :   -0.179793
   5 H :    0.036847
   6 C :   -0.035136
   7 H :    0.021949
   8 H :    0.038998
   9 C :   -0.040892
  10 H :    0.023768
  11 H :    0.029083
  12 C :   -0.079520
  13 H :    0.035053
  14 H :    0.030704
  15 H :    0.019854
  16 S :    0.367759
  17 C :   -0.181423
  18 C :   -0.078452
  19 C :   -0.051531
  20 C :   -0.187780
  21 H :    0.031224
  22 C :   -0.043715
  23 H :    0.039188
  24 H :    0.039667
  25 C :   -0.040951
  26 H :    0.014758
  27 H :    0.030654
  28 C :   -0.062058
  29 H :    0.030401
  30 H :    0.017620
  31 H :    0.023939
  32 H :    0.024565
  33 H :    0.041946

  Mayer bond orders larger than 0.100000
B(  0-S ,  1-C ) :   1.1140 B(  0-S ,  4-C ) :   1.1378 B(  1-C ,  2-C ) :   1.6742
B(  1-C , 32-H ) :   0.9628 B(  2-C ,  3-C ) :   1.2009 B(  2-C ,  6-C ) :   1.0179
B(  3-C ,  4-C ) :   1.6043 B(  3-C ,  5-H ) :   0.9921 B(  4-C , 20-C ) :   1.0154
B(  6-C ,  7-H ) :   0.9362 B(  6-C ,  8-H ) :   0.9477 B(  6-C ,  9-C ) :   1.0622
B(  9-C , 10-H ) :   0.9571 B(  9-C , 11-H ) :   0.9565 B(  9-C , 12-C ) :   1.0778
B( 12-C , 13-H ) :   0.9708 B( 12-C , 14-H ) :   0.9729 B( 12-C , 15-H ) :   0.9763
B( 16-S , 17-C ) :   1.1520 B( 16-S , 20-C ) :   1.1101 B( 17-C , 18-C ) :   1.6305
B( 17-C , 33-H ) :   0.9603 B( 18-C , 19-C ) :   1.2119 B( 18-C , 21-H ) :   0.9832
B( 19-C , 20-C ) :   1.6343 B( 19-C , 22-C ) :   1.0459 B( 22-C , 23-H ) :   0.9389
B( 22-C , 24-H ) :   0.9433 B( 22-C , 25-C ) :   1.0381 B( 25-C , 26-H ) :   0.9579
B( 25-C , 27-H ) :   0.9618 B( 25-C , 28-C ) :   1.0890 B( 28-C , 29-H ) :   0.9728
B( 28-C , 30-H ) :   0.9760 B( 28-C , 31-H ) :   0.9737

Dispersion correction           -0.014281373
FINAL SINGLE POINT ENERGY     -1339.865334498239

DIPOLE MOMENT
-------------
                                X             Y             Z
Electronic contribution:     -9.93982       4.22309      18.74494
Nuclear contribution   :     10.23063      -4.47461     -19.19079
                        -----------------------------------------
Total Dipole Moment    :      0.29081      -0.25153      -0.44585
                        -----------------------------------------
Magnitude (a.u.)       :      0.58875
Magnitude (Debye)      :      1.49647

Rotational constants in cm-1:     0.017989     0.008214     0.006880
Rotational constants in MHz :   539.292662   246.254944   206.267421

                             ****ORCA TERMINATED NORMALLY****
TOTAL RUN TIME: 0 days 0 hours 0 minutes 21 seconds 105 msec
