                         Program Version 4.2.1 -  RELEASE  -
|  1> ! wB97X-D3 SP def2-SVP
|  2> %pal
|  3> nprocs 24
|  4> end
|  5>
|  6> * xyz 0 1
|  7> S 	 20.1004 	 -25.3106 	 -119.613
|  8> C 	 21.2833 	 -26.5493 	 -119.368
|  9> C 	 22.2075 	 -26.157 	 -118.392
| 10> C 	 21.881 	 -24.9155 	 -117.729
| 11> C 	 20.733 	 -24.3356 	 -118.264
| 12> H 	 22.4472 	 -24.5269 	 -116.933
| 13> C 	 23.3938 	 -27.0083 	 -117.981
| 14> H 	 23.3773 	 -28.0285 	 -118.304
| 15> H 	 23.4395 	 -27.072 	 -116.911
| 16> C 	 24.7459 	 -26.3801 	 -118.213
| 17> H 	 24.7972 	 -25.9927 	 -119.265
| 18> H 	 24.8357 	 -25.4615 	 -117.598
| 19> C 	 26.0398 	 -27.1843 	 -117.729
| 20> H 	 26.0541 	 -28.1407 	 -118.258
| 21> H 	 27.0052 	 -26.7318 	 -118.012
| 22> H 	 25.9623 	 -27.3192 	 -116.659
| 23> S 	 19.9165 	 -22.8086 	 -116.12
| 24> C 	 19.2572 	 -21.1737 	 -116.376
| 25> C 	 19.3858 	 -20.8035 	 -117.691
| 26> C 	 19.9299 	 -21.8836 	 -118.472
| 27> C 	 20.1752 	 -23.0371 	 -117.841
| 28> H 	 19.1213 	 -19.797 	 -118.046
| 29> C 	 20.187 	 -21.7336 	 -119.965
| 30> H 	 20.9152 	 -22.4771 	 -120.464
| 31> H 	 20.632 	 -20.7558 	 -120.074
| 32> C 	 18.8551 	 -21.8309 	 -120.731
| 33> H 	 18.3143 	 -20.9261 	 -120.461
| 34> H 	 18.2746 	 -22.6528 	 -120.388
| 35> C 	 19.0097 	 -21.8296 	 -122.236
| 36> H 	 19.3341 	 -20.8763 	 -122.634
| 37> H 	 18.0445 	 -22.0412 	 -122.744
| 38> H 	 19.6462 	 -22.6719 	 -122.651
| 39> H 	 21.4224 	 -27.4396 	 -119.938
| 40> H 	 18.7952 	 -20.5351 	 -115.582
| 41> *
| 42>
| 43>                          ****END OF INPUT****

CARTESIAN COORDINATES (ANGSTROEM)
---------------------------------
  S     20.100400  -25.310600  -119.613000
  C     21.283300  -26.549300  -119.368000
  C     22.207500  -26.157000  -118.392000
  C     21.881000  -24.915500  -117.729000
  C     20.733000  -24.335600  -118.264000
  H     22.447200  -24.526900  -116.933000
  C     23.393800  -27.008300  -117.981000
  H     23.377300  -28.028500  -118.304000
  H     23.439500  -27.072000  -116.911000
  C     24.745900  -26.380100  -118.213000
  H     24.797200  -25.992700  -119.265000
  H     24.835700  -25.461500  -117.598000
  C     26.039800  -27.184300  -117.729000
  H     26.054100  -28.140700  -118.258000
  H     27.005200  -26.731800  -118.012000
  H     25.962300  -27.319200  -116.659000
  S     19.916500  -22.808600  -116.120000
  C     19.257200  -21.173700  -116.376000
  C     19.385800  -20.803500  -117.691000
  C     19.929900  -21.883600  -118.472000
  C     20.175200  -23.037100  -117.841000
  H     19.121300  -19.797000  -118.046000
  C     20.187000  -21.733600  -119.965000
  H     20.915200  -22.477100  -120.464000
  H     20.632000  -20.755800  -120.074000
  C     18.855100  -21.830900  -120.731000
  H     18.314300  -20.926100  -120.461000
  H     18.274600  -22.652800  -120.388000
  C     19.009700  -21.829600  -122.236000
  H     19.334100  -20.876300  -122.634000
  H     18.044500  -22.041200  -122.744000
  H     19.646200  -22.671900  -122.651000
  H     21.422400  -27.439600  -119.938000
  H     18.795200  -20.535100  -115.582000

 Total Charge           Charge          ....    0
 Multiplicity           Mult            ....    1
 Number of Electrons    NEL             ....  134
 Basis Dimension        Dim             ....  322

ORBITAL ENERGIES
----------------

  NO   OCC          E(Eh)            E(eV)
   0   2.0000     -88.972322     -2421.0600
   1   2.0000     -88.961915     -2420.7768
   2   2.0000     -10.338148      -281.3153
   3   2.0000     -10.325070      -280.9594
   4   2.0000     -10.323302      -280.9113
   5   2.0000     -10.315311      -280.6939
   6   2.0000     -10.305712      -280.4327
   7   2.0000     -10.299971      -280.2765
   8   2.0000     -10.298716      -280.2423
   9   2.0000     -10.297475      -280.2086
  10   2.0000     -10.290795      -280.0268
  11   2.0000     -10.290201      -280.0106
  12   2.0000     -10.287279      -279.9311
  13   2.0000     -10.285425      -279.8806
  14   2.0000     -10.278447      -279.6908
  15   2.0000     -10.277968      -279.6777
  16   2.0000      -8.086134      -220.0349
  17   2.0000      -8.076411      -219.7703
  18   2.0000      -6.044774      -164.4867
  19   2.0000      -6.040665      -164.3748
  20   2.0000      -6.036925      -164.2731
  21   2.0000      -6.035083      -164.2229
  22   2.0000      -6.031041      -164.1130
  23   2.0000      -6.026914      -164.0007
  24   2.0000      -1.006496       -27.3881
  25   2.0000      -0.984534       -26.7905
  26   2.0000      -0.910383       -24.7728
  27   2.0000      -0.906181       -24.6584
  28   2.0000      -0.871509       -23.7150
  29   2.0000      -0.847789       -23.0695
  30   2.0000      -0.842951       -22.9379
  31   2.0000      -0.817332       -22.2407
  32   2.0000      -0.780812       -21.2470
  33   2.0000      -0.768233       -20.9047
  34   2.0000      -0.705791       -19.2055
  35   2.0000      -0.692883       -18.8543
  36   2.0000      -0.689753       -18.7691
  37   2.0000      -0.668939       -18.2028
  38   2.0000      -0.643854       -17.5202
  39   2.0000      -0.620601       -16.8874
  40   2.0000      -0.594076       -16.1656
  41   2.0000      -0.574678       -15.6378
  42   2.0000      -0.564640       -15.3646
  43   2.0000      -0.560996       -15.2655
  44   2.0000      -0.522281       -14.2120
  45   2.0000      -0.520796       -14.1716
  46   2.0000      -0.514256       -13.9936
  47   2.0000      -0.513931       -13.9848
  48   2.0000      -0.504945       -13.7403
  49   2.0000      -0.500743       -13.6259
  50   2.0000      -0.496431       -13.5086
  51   2.0000      -0.474161       -12.9026
  52   2.0000      -0.470844       -12.8123
  53   2.0000      -0.468233       -12.7413
  54   2.0000      -0.462486       -12.5849
  55   2.0000      -0.454489       -12.3673
  56   2.0000      -0.445649       -12.1267
  57   2.0000      -0.432085       -11.7576
  58   2.0000      -0.428363       -11.6564
  59   2.0000      -0.420186       -11.4338
  60   2.0000      -0.418938       -11.3999
  61   2.0000      -0.410768       -11.1776
  62   2.0000      -0.405966       -11.0469
  63   2.0000      -0.352619        -9.5953
  64   2.0000      -0.332001        -9.0342
  65   2.0000      -0.326222        -8.8769
  66   2.0000      -0.296828        -8.0771
  67   0.0000       0.033677         0.9164
  68   0.0000       0.066876         1.8198
  69   0.0000       0.102454         2.7879
  70   0.0000       0.116570         3.1720
  71   0.0000       0.133765         3.6399

MULLIKEN ATOMIC CHARGES
-----------------------
   0 S :    0.118287
   1 C :   -0.104491
   2 C :   -0.083970
   3 C :    0.045027
   4 C :   -0.132904
   5 H :    0.004779
   6 C :    0.108332
   7 H :    0.012520
   8 H :    0.011104
   9 C :   -0.145021
  10 H :    0.034345
  11 H :    0.029317
  12 C :   -0.050528
  13 H :    0.030276
  14 H :    0.044653
  15 H :    0.037601
  16 S :    0.084763
  17 C :   -0.109850
  18 C :   -0.022372
  19 C :   -0.046181
  20 C :   -0.136632
  21 H :    0.030772
  22 C :    0.024799
  23 H :    0.044822
  24 H :    0.018535
  25 C :   -0.056714
  26 H :    0.019040
  27 H :    0.025186
  28 C :   -0.048523
  29 H :    0.028572
  30 H :    0.029555
  31 H :    0.035930
  32 H :    0.041806
  33 H :    0.077166
Sum of atomic charges:   -0.0000000

LOEWDIN ATOMIC CHARGES
----------------------
   0 S :    0.412380
   1 C :   -0.202641
   2 C :   -0.054062
   3 C :   -0.050491
   4 C :   -0.177176
   5 H :    0.024981
   6 C :   -0.036412
   7 H :    0.024852
   8 H :    0.030301
   9 C :   -0.048668
  10 H :    0.022473
  11 H :    0.021991
  12 C :   -0.065461
  13 H :    0.022918
  14 H :    0.032363
  15 H :    0.023990
  16 S :    0.383212
  17 C :   -0.174816
  18 C :   -0.073049
  19 C :   -0.061006
  20 C :   -0.193837
  21 H :    0.037824
  22 C :   -0.035772
  23 H :    0.033264
  24 H :    0.025595
  25 C :   -0.041840
  26 H :    0.024001
  27 H :    0.017998
  28 C :   -0.072998
  29 H :    0.021947
  30 H :    0.029257
  31 H :    0.029702
  32 H :    0.027376
  33 H :    0.041805

  Mayer bond orders larger than 0.100000
B(  0-S ,  1-C ) :   1.1327 B(  0-S ,  4-C ) :   1.1497 B(  1-C ,  2-C ) :   1.6055
B(  1-C , 32-H ) :   0.9711 B(  2-C ,  3-C ) :   1.2386 B(  2-C ,  6-C ) :   1.0428
B(  3-C ,  4-C ) :   1.5608 B(  3-C ,  5-H ) :   0.9990 B(  4-C , 20-C ) :   1.0152
B(  6-C ,  7-H ) :   0.9463 B(  6-C ,  8-H ) :   0.9326 B(  6-C ,  9-C ) :   1.0418
B(  9-C , 10-H ) :   0.9591 B(  9-C , 11-H ) :   0.9592 B(  9-C , 12-C ) :   1.0678
B( 12-C , 13-H ) :   0.9781 B( 12-C , 14-H ) :   0.9764 B( 12-C , 15-H ) :   0.9758
B( 16-S , 17-C ) :   1.1469 B( 16-S , 20-C ) :   1.1060 B( 17-C , 18-C ) :   1.6278
B( 17-C , 33-H ) :   0.9611 B( 18-C , 19-C ) :   1.2062 B( 18-C , 21-H ) :   0.9884
B( 19-C , 20-C ) :   1.6639 B( 19-C , 22-C ) :   1.0391 B( 22-C , 23-H ) :   0.9455
B( 22-C , 24-H ) :   0.9300 B( 22-C , 25-C ) :   1.0541 B( 25-C , 26-H ) :   0.9510
B( 25-C , 27-H ) :   0.9574 B( 25-C , 28-C ) :   1.0943 B( 28-C , 29-H ) :   0.9733
B( 28-C , 30-H ) :   0.9716 B( 28-C , 31-H ) :   0.9714

Dispersion correction           -0.014211329
FINAL SINGLE POINT ENERGY     -1339.882888860529

DIPOLE MOMENT
-------------
                                X             Y             Z
Electronic contribution:    -14.08364       2.09530      11.40912
Nuclear contribution   :     14.39079      -1.94934     -11.53915
                        -----------------------------------------
Total Dipole Moment    :      0.30715       0.14595      -0.13002
                        -----------------------------------------
Magnitude (a.u.)       :      0.36407
Magnitude (Debye)      :      0.92540

Rotational constants in cm-1:     0.019564     0.007864     0.006438
Rotational constants in MHz :   586.521152   235.767434   193.016380

                             ****ORCA TERMINATED NORMALLY****
TOTAL RUN TIME: 0 days 0 hours 0 minutes 19 seconds 913 msec
