                         Program Version 4.2.1 -  RELEASE  -
|  1> ! wB97X-D3 SP def2-SVP
|  2> %pal
|  3> nprocs 24
|  4> end
|  5>
|  6> * xyz 0 1
|  7> S 	 -132.92 	 27.6762 	 -15.0578
|  8> C 	 -132.737 	 26.6631 	 -13.638
|  9> C 	 -132.564 	 25.3165 	 -13.9456
| 10> C 	 -132.487 	 25.098 	 -15.3732
| 11> C 	 -132.686 	 26.2525 	 -16.1017
| 12> H 	 -132.303 	 24.1717 	 -15.9121
| 13> C 	 -132.163 	 24.2594 	 -12.9897
| 14> H 	 -133.025 	 24.0318 	 -12.3831
| 15> H 	 -131.622 	 24.8037 	 -12.2803
| 16> C 	 -131.321 	 23.0219 	 -13.3921
| 17> H 	 -130.918 	 22.575 	 -12.5275
| 18> H 	 -132.007 	 22.3168 	 -13.9218
| 19> C 	 -130.123 	 23.3425 	 -14.2656
| 20> H 	 -129.55 	 22.3892 	 -14.1644
| 21> H 	 -130.385 	 23.5784 	 -15.3118
| 22> H 	 -129.55 	 24.163 	 -13.9311
| 23> S 	 -131.303 	 27.3753 	 -18.1448
| 24> C 	 -131.772 	 27.1397 	 -19.7497
| 25> C 	 -132.815 	 26.3146 	 -19.9323
| 26> C 	 -133.247 	 25.8223 	 -18.6154
| 27> C 	 -132.566 	 26.3997 	 -17.5644
| 28> H 	 -133.148 	 26.1547 	 -20.9355
| 29> C 	 -134.406 	 24.8933 	 -18.4708
| 30> H 	 -134.458 	 24.45 	 -17.5085
| 31> H 	 -134.156 	 24.1436 	 -19.2154
| 32> C 	 -135.705 	 25.6215 	 -18.7482
| 33> H 	 -135.741 	 25.9321 	 -19.8091
| 34> H 	 -135.738 	 26.6116 	 -18.1702
| 35> C 	 -137.044 	 24.8559 	 -18.5373
| 36> H 	 -136.958 	 23.8321 	 -19.0165
| 37> H 	 -137.817 	 25.4108 	 -19.105
| 38> H 	 -137.283 	 24.8851 	 -17.5182
| 39> H 	 -132.799 	 27.0725 	 -12.6009
| 40> H 	 -131.415 	 27.6784 	 -20.5834
| 41> *
| 42>
| 43>                          ****END OF INPUT****

CARTESIAN COORDINATES (ANGSTROEM)
---------------------------------
  S    -132.920000   27.676200  -15.057800
  C    -132.737000   26.663100  -13.638000
  C    -132.564000   25.316500  -13.945600
  C    -132.487000   25.098000  -15.373200
  C    -132.686000   26.252500  -16.101700
  H    -132.303000   24.171700  -15.912100
  C    -132.163000   24.259400  -12.989700
  H    -133.025000   24.031800  -12.383100
  H    -131.622000   24.803700  -12.280300
  C    -131.321000   23.021900  -13.392100
  H    -130.918000   22.575000  -12.527500
  H    -132.007000   22.316800  -13.921800
  C    -130.123000   23.342500  -14.265600
  H    -129.550000   22.389200  -14.164400
  H    -130.385000   23.578400  -15.311800
  H    -129.550000   24.163000  -13.931100
  S    -131.303000   27.375300  -18.144800
  C    -131.772000   27.139700  -19.749700
  C    -132.815000   26.314600  -19.932300
  C    -133.247000   25.822300  -18.615400
  C    -132.566000   26.399700  -17.564400
  H    -133.148000   26.154700  -20.935500
  C    -134.406000   24.893300  -18.470800
  H    -134.458000   24.450000  -17.508500
  H    -134.156000   24.143600  -19.215400
  C    -135.705000   25.621500  -18.748200
  H    -135.741000   25.932100  -19.809100
  H    -135.738000   26.611600  -18.170200
  C    -137.044000   24.855900  -18.537300
  H    -136.958000   23.832100  -19.016500
  H    -137.817000   25.410800  -19.105000
  H    -137.283000   24.885100  -17.518200
  H    -132.799000   27.072500  -12.600900
  H    -131.415000   27.678400  -20.583400

 Total Charge           Charge          ....    0
 Multiplicity           Mult            ....    1
 Number of Electrons    NEL             ....  134
 Basis Dimension        Dim             ....  322

ORBITAL ENERGIES
----------------

  NO   OCC          E(Eh)            E(eV)
   0   2.0000     -88.967234     -2420.9215
   1   2.0000     -88.958623     -2420.6872
   2   2.0000     -10.329900      -281.0909
   3   2.0000     -10.317253      -280.7467
   4   2.0000     -10.316793      -280.7342
   5   2.0000     -10.302845      -280.3547
   6   2.0000     -10.301813      -280.3266
   7   2.0000     -10.301109      -280.3074
   8   2.0000     -10.295376      -280.1514
   9   2.0000     -10.289464      -279.9905
  10   2.0000     -10.288785      -279.9721
  11   2.0000     -10.285928      -279.8943
  12   2.0000     -10.280932      -279.7584
  13   2.0000     -10.280567      -279.7485
  14   2.0000     -10.277571      -279.6669
  15   2.0000     -10.275341      -279.6062
  16   2.0000      -8.081274      -219.9027
  17   2.0000      -8.075837      -219.7547
  18   2.0000      -6.039828      -164.3521
  19   2.0000      -6.035939      -164.2462
  20   2.0000      -6.034219      -164.1994
  21   2.0000      -6.031982      -164.1386
  22   2.0000      -6.029992      -164.0844
  23   2.0000      -6.026586      -163.9917
  24   2.0000      -1.012122       -27.5412
  25   2.0000      -0.984786       -26.7974
  26   2.0000      -0.914857       -24.8945
  27   2.0000      -0.909566       -24.7505
  28   2.0000      -0.872272       -23.7357
  29   2.0000      -0.848387       -23.0858
  30   2.0000      -0.845427       -23.0053
  31   2.0000      -0.822993       -22.3948
  32   2.0000      -0.784908       -21.3584
  33   2.0000      -0.769441       -20.9375
  34   2.0000      -0.706985       -19.2380
  35   2.0000      -0.692234       -18.8366
  36   2.0000      -0.687581       -18.7100
  37   2.0000      -0.658599       -17.9214
  38   2.0000      -0.640082       -17.4175
  39   2.0000      -0.625299       -17.0152
  40   2.0000      -0.595474       -16.2037
  41   2.0000      -0.569873       -15.5070
  42   2.0000      -0.561581       -15.2814
  43   2.0000      -0.551166       -14.9980
  44   2.0000      -0.548175       -14.9166
  45   2.0000      -0.521051       -14.1785
  46   2.0000      -0.520057       -14.1515
  47   2.0000      -0.513881       -13.9834
  48   2.0000      -0.505442       -13.7538
  49   2.0000      -0.499301       -13.5867
  50   2.0000      -0.490683       -13.3522
  51   2.0000      -0.480251       -13.0683
  52   2.0000      -0.469577       -12.7778
  53   2.0000      -0.464989       -12.6530
  54   2.0000      -0.461314       -12.5530
  55   2.0000      -0.446801       -12.1581
  56   2.0000      -0.442583       -12.0433
  57   2.0000      -0.431640       -11.7455
  58   2.0000      -0.430650       -11.7186
  59   2.0000      -0.427449       -11.6315
  60   2.0000      -0.418041       -11.3755
  61   2.0000      -0.414549       -11.2804
  62   2.0000      -0.409171       -11.1341
  63   2.0000      -0.344468        -9.3735
  64   2.0000      -0.327103        -8.9009
  65   2.0000      -0.323973        -8.8158
  66   2.0000      -0.296696        -8.0735
  67   0.0000       0.039640         1.0786
  68   0.0000       0.074897         2.0380
  69   0.0000       0.119961         3.2643
  70   0.0000       0.125279         3.4090
  71   0.0000       0.130390         3.5481

MULLIKEN ATOMIC CHARGES
-----------------------
   0 S :    0.114764
   1 C :   -0.148491
   2 C :   -0.085684
   3 C :    0.026309
   4 C :   -0.171473
   5 H :    0.029042
   6 C :    0.085625
   7 H :    0.024886
   8 H :   -0.001761
   9 C :   -0.047126
  10 H :    0.024479
  11 H :    0.037702
  12 C :   -0.061164
  13 H :    0.040039
  14 H :    0.038959
  15 H :    0.030607
  16 S :    0.120918
  17 C :   -0.061029
  18 C :   -0.040098
  19 C :   -0.076597
  20 C :   -0.164411
  21 H :    0.012273
  22 C :    0.145935
  23 H :    0.006096
  24 H :    0.022826
  25 C :   -0.146359
  26 H :    0.021275
  27 H :    0.042782
  28 C :   -0.027299
  29 H :    0.039265
  30 H :    0.034142
  31 H :    0.035441
  32 H :    0.064631
  33 H :    0.033496
Sum of atomic charges:   -0.0000000

LOEWDIN ATOMIC CHARGES
----------------------
   0 S :    0.392180
   1 C :   -0.206166
   2 C :   -0.059609
   3 C :   -0.060049
   4 C :   -0.186196
   5 H :    0.034502
   6 C :   -0.044530
   7 H :    0.034655
   8 H :    0.026012
   9 C :   -0.033696
  10 H :    0.024009
  11 H :    0.028355
  12 C :   -0.064118
  13 H :    0.035001
  14 H :    0.026163
  15 H :    0.020994
  16 S :    0.442571
  17 C :   -0.194190
  18 C :   -0.071271
  19 C :   -0.047495
  20 C :   -0.227641
  21 H :    0.031997
  22 C :   -0.034006
  23 H :    0.022499
  24 H :    0.032996
  25 C :   -0.048134
  26 H :    0.020312
  27 H :    0.033091
  28 C :   -0.065428
  29 H :    0.032161
  30 H :    0.030427
  31 H :    0.016718
  32 H :    0.035961
  33 H :    0.021927

  Mayer bond orders larger than 0.100000
B(  0-S ,  1-C ) :   1.1329 B(  0-S ,  4-C ) :   1.1490 B(  1-C ,  2-C ) :   1.6228
B(  1-C , 32-H ) :   0.9614 B(  2-C ,  3-C ) :   1.2202 B(  2-C ,  6-C ) :   1.0134
B(  3-C ,  4-C ) :   1.6058 B(  3-C ,  5-H ) :   0.9812 B(  4-C , 20-C ) :   1.0032
B(  6-C ,  7-H ) :   0.9174 B(  6-C ,  8-H ) :   0.9316 B(  6-C ,  9-C ) :   1.0807
B(  9-C , 10-H ) :   0.9554 B(  9-C , 11-H ) :   0.9503 B(  9-C , 12-C ) :   1.0771
B( 12-C , 13-H ) :   0.9739 B( 12-C , 14-H ) :   0.9710 B( 12-C , 15-H ) :   0.9757
B( 16-S , 17-C ) :   1.1641 B( 16-S , 20-C ) :   1.1485 B( 17-C , 18-C ) :   1.6503
B( 17-C , 33-H ) :   0.9627 B( 18-C , 19-C ) :   1.1912 B( 18-C , 21-H ) :   0.9988
B( 19-C , 20-C ) :   1.6280 B( 19-C , 22-C ) :   1.0571 B( 22-C , 23-H ) :   0.9281
B( 22-C , 24-H ) :   0.9184 B( 22-C , 25-C ) :   1.0674 B( 25-C , 26-H ) :   0.9569
B( 25-C , 27-H ) :   0.9558 B( 25-C , 28-C ) :   1.0807 B( 28-C , 29-H ) :   0.9719
B( 28-C , 30-H ) :   0.9756 B( 28-C , 31-H ) :   0.9783

Dispersion correction           -0.014467422
FINAL SINGLE POINT ENERGY     -1339.869362227672

DIPOLE MOMENT
-------------
                                X             Y             Z
Electronic contribution:      8.34137      19.64511      -2.47567
Nuclear contribution   :     -8.41558     -20.11491       2.53635
                        -----------------------------------------
Total Dipole Moment    :     -0.07421      -0.46979       0.06069
                        -----------------------------------------
Magnitude (a.u.)       :      0.47948
Magnitude (Debye)      :      1.21873

Rotational constants in cm-1:     0.017386     0.008812     0.007815
Rotational constants in MHz :   521.221004   264.184605   234.277041

                             ****ORCA TERMINATED NORMALLY****
TOTAL RUN TIME: 0 days 0 hours 0 minutes 21 seconds 916 msec
