                         Program Version 4.2.1 -  RELEASE  -
|  1> ! wB97X-D3 SP def2-SVP
|  2> %pal
|  3> nprocs 24
|  4> end
|  5>
|  6> * xyz 0 1
|  7> S 	 -132.445 	 13.8274 	 -15.7346
|  8> C 	 -132.355 	 12.3835 	 -14.6568
|  9> C 	 -131.989 	 11.2626 	 -15.3322
| 10> C 	 -131.92 	 11.5435 	 -16.7522
| 11> C 	 -132.202 	 12.8304 	 -17.1212
| 12> H 	 -131.874 	 10.7958 	 -17.5791
| 13> C 	 -132.076 	 9.90452 	 -14.6835
| 14> H 	 -131.865 	 9.94839 	 -13.6327
| 15> H 	 -131.349 	 9.32588 	 -15.1871
| 16> C 	 -133.491 	 9.39424 	 -14.6729
| 17> H 	 -134.2 	 9.9762 	 -14.0504
| 18> H 	 -133.925 	 9.41601 	 -15.6792
| 19> C 	 -133.525 	 7.93823 	 -14.2054
| 20> H 	 -133.053 	 7.26316 	 -14.9436
| 21> H 	 -133.045 	 7.88093 	 -13.2399
| 22> H 	 -134.592 	 7.59344 	 -14.0833
| 23> S 	 -131.438 	 14.8695 	 -18.8081
| 24> C 	 -132.179 	 15.0565 	 -20.3222
| 25> C 	 -132.935 	 13.9765 	 -20.5927
| 26> C 	 -133.074 	 13.0124 	 -19.5314
| 27> C 	 -132.281 	 13.3708 	 -18.4541
| 28> H 	 -133.302 	 13.8542 	 -21.5816
| 29> C 	 -133.976 	 11.7887 	 -19.6398
| 30> H 	 -135.026 	 11.9985 	 -19.7074
| 31> H 	 -133.822 	 11.2075 	 -18.6699
| 32> C 	 -133.561 	 10.8826 	 -20.8017
| 33> H 	 -132.555 	 10.55 	 -20.6442
| 34> H 	 -133.563 	 11.4104 	 -21.7703
| 35> C 	 -134.498 	 9.6715 	 -20.8734
| 36> H 	 -134.411 	 9.06868 	 -21.7645
| 37> H 	 -135.496 	 10.0301 	 -21.0589
| 38> H 	 -134.459 	 9.05608 	 -19.9434
| 39> H 	 -132.382 	 12.3907 	 -13.6385
| 40> H 	 -131.93 	 15.9096 	 -20.9749
| 41> *
| 42>
| 43>                          ****END OF INPUT****

CARTESIAN COORDINATES (ANGSTROEM)
---------------------------------
  S    -132.445000   13.827400  -15.734600
  C    -132.355000   12.383500  -14.656800
  C    -131.989000   11.262600  -15.332200
  C    -131.920000   11.543500  -16.752200
  C    -132.202000   12.830400  -17.121200
  H    -131.874000   10.795800  -17.579100
  C    -132.076000    9.904520  -14.683500
  H    -131.865000    9.948390  -13.632700
  H    -131.349000    9.325880  -15.187100
  C    -133.491000    9.394240  -14.672900
  H    -134.200000    9.976200  -14.050400
  H    -133.925000    9.416010  -15.679200
  C    -133.525000    7.938230  -14.205400
  H    -133.053000    7.263160  -14.943600
  H    -133.045000    7.880930  -13.239900
  H    -134.592000    7.593440  -14.083300
  S    -131.438000   14.869500  -18.808100
  C    -132.179000   15.056500  -20.322200
  C    -132.935000   13.976500  -20.592700
  C    -133.074000   13.012400  -19.531400
  C    -132.281000   13.370800  -18.454100
  H    -133.302000   13.854200  -21.581600
  C    -133.976000   11.788700  -19.639800
  H    -135.026000   11.998500  -19.707400
  H    -133.822000   11.207500  -18.669900
  C    -133.561000   10.882600  -20.801700
  H    -132.555000   10.550000  -20.644200
  H    -133.563000   11.410400  -21.770300
  C    -134.498000    9.671500  -20.873400
  H    -134.411000    9.068680  -21.764500
  H    -135.496000   10.030100  -21.058900
  H    -134.459000    9.056080  -19.943400
  H    -132.382000   12.390700  -13.638500
  H    -131.930000   15.909600  -20.974900

 Total Charge           Charge          ....    0
 Multiplicity           Mult            ....    1
 Number of Electrons    NEL             ....  134
 Basis Dimension        Dim             ....  322

ORBITAL ENERGIES
----------------

  NO   OCC          E(Eh)            E(eV)
   0   2.0000     -88.963278     -2420.8139
   1   2.0000     -88.960549     -2420.7396
   2   2.0000     -10.325416      -280.9689
   3   2.0000     -10.324757      -280.9509
   4   2.0000     -10.313585      -280.6469
   5   2.0000     -10.306352      -280.4501
   6   2.0000     -10.304875      -280.4099
   7   2.0000     -10.299502      -280.2637
   8   2.0000     -10.296228      -280.1746
   9   2.0000     -10.295278      -280.1488
  10   2.0000     -10.288607      -279.9672
  11   2.0000     -10.287421      -279.9350
  12   2.0000     -10.287213      -279.9293
  13   2.0000     -10.286675      -279.9147
  14   2.0000     -10.282173      -279.7922
  15   2.0000     -10.278295      -279.6866
  16   2.0000      -8.077782      -219.8076
  17   2.0000      -8.076734      -219.7791
  18   2.0000      -6.036421      -164.2594
  19   2.0000      -6.035164      -164.2252
  20   2.0000      -6.032368      -164.1491
  21   2.0000      -6.030981      -164.1113
  22   2.0000      -6.028350      -164.0397
  23   2.0000      -6.027536      -164.0176
  24   2.0000      -1.012140       -27.5417
  25   2.0000      -0.987905       -26.8823
  26   2.0000      -0.922863       -25.1124
  27   2.0000      -0.912972       -24.8432
  28   2.0000      -0.875189       -23.8151
  29   2.0000      -0.852100       -23.1868
  30   2.0000      -0.840975       -22.8841
  31   2.0000      -0.817351       -22.2413
  32   2.0000      -0.784046       -21.3350
  33   2.0000      -0.774345       -21.0710
  34   2.0000      -0.707664       -19.2565
  35   2.0000      -0.701172       -19.0799
  36   2.0000      -0.698903       -19.0181
  37   2.0000      -0.659499       -17.9459
  38   2.0000      -0.644997       -17.5513
  39   2.0000      -0.619232       -16.8502
  40   2.0000      -0.603672       -16.4268
  41   2.0000      -0.573077       -15.5942
  42   2.0000      -0.569653       -15.5010
  43   2.0000      -0.566723       -15.4213
  44   2.0000      -0.530443       -14.4341
  45   2.0000      -0.526649       -14.3309
  46   2.0000      -0.523737       -14.2516
  47   2.0000      -0.513309       -13.9679
  48   2.0000      -0.505778       -13.7629
  49   2.0000      -0.501809       -13.6549
  50   2.0000      -0.493862       -13.4387
  51   2.0000      -0.480686       -13.0801
  52   2.0000      -0.470675       -12.8077
  53   2.0000      -0.465635       -12.6706
  54   2.0000      -0.463084       -12.6012
  55   2.0000      -0.448514       -12.2047
  56   2.0000      -0.443142       -12.0585
  57   2.0000      -0.439292       -11.9537
  58   2.0000      -0.431448       -11.7403
  59   2.0000      -0.424409       -11.5488
  60   2.0000      -0.422425       -11.4948
  61   2.0000      -0.418936       -11.3998
  62   2.0000      -0.413825       -11.2608
  63   2.0000      -0.347546        -9.4572
  64   2.0000      -0.331022        -9.0076
  65   2.0000      -0.327291        -8.9060
  66   2.0000      -0.298214        -8.1148
  67   0.0000       0.034612         0.9418
  68   0.0000       0.074208         2.0193
  69   0.0000       0.114403         3.1131
  70   0.0000       0.122706         3.3390
  71   0.0000       0.124590         3.3903

MULLIKEN ATOMIC CHARGES
-----------------------
   0 S :    0.108677
   1 C :   -0.088307
   2 C :   -0.073561
   3 C :    0.012305
   4 C :   -0.152829
   5 H :    0.020697
   6 C :    0.098195
   7 H :    0.012858
   8 H :    0.020697
   9 C :   -0.085719
  10 H :    0.034505
  11 H :    0.024033
  12 C :   -0.054853
  13 H :    0.038947
  14 H :    0.025886
  15 H :    0.039747
  16 S :    0.099757
  17 C :   -0.098259
  18 C :   -0.022682
  19 C :   -0.014554
  20 C :   -0.169566
  21 H :    0.004518
  22 C :    0.064680
  23 H :    0.030981
  24 H :    0.025410
  25 C :   -0.092860
  26 H :    0.025014
  27 H :    0.033556
  28 C :   -0.025400
  29 H :    0.025498
  30 H :    0.012934
  31 H :    0.040490
  32 H :    0.006779
  33 H :    0.072425
Sum of atomic charges:    0.0000000

LOEWDIN ATOMIC CHARGES
----------------------
   0 S :    0.391071
   1 C :   -0.162354
   2 C :   -0.056509
   3 C :   -0.072313
   4 C :   -0.198459
   5 H :    0.032537
   6 C :   -0.024356
   7 H :    0.030140
   8 H :    0.026949
   9 C :   -0.040668
  10 H :    0.028712
  11 H :    0.021403
  12 C :   -0.067339
  13 H :    0.026719
  14 H :    0.019721
  15 H :    0.031235
  16 S :    0.417114
  17 C :   -0.196959
  18 C :   -0.075764
  19 C :   -0.050200
  20 C :   -0.199723
  21 H :    0.023830
  22 C :   -0.029232
  23 H :    0.027816
  24 H :    0.036160
  25 C :   -0.038610
  26 H :    0.019904
  27 H :    0.024621
  28 C :   -0.068419
  29 H :    0.024941
  30 H :    0.021986
  31 H :    0.030074
  32 H :    0.007162
  33 H :    0.038811

  Mayer bond orders larger than 0.100000
B(  0-S ,  1-C ) :   1.1140 B(  0-S ,  4-C ) :   1.1410 B(  1-C ,  2-C ) :   1.6405
B(  1-C , 32-H ) :   0.9773 B(  2-C ,  3-C ) :   1.2030 B(  2-C ,  6-C ) :   1.0450
B(  3-C ,  4-C ) :   1.6098 B(  3-C ,  5-H ) :   0.9845 B(  4-C , 20-C ) :   1.0390
B(  6-C ,  7-H ) :   0.9318 B(  6-C ,  8-H ) :   0.9385 B(  6-C ,  9-C ) :   1.0621
B(  9-C , 10-H ) :   0.9533 B(  9-C , 11-H ) :   0.9558 B(  9-C , 12-C ) :   1.0840
B( 12-C , 13-H ) :   0.9764 B( 12-C , 14-H ) :   0.9727 B( 12-C , 15-H ) :   0.9735
B( 16-S , 17-C ) :   1.1611 B( 16-S , 20-C ) :   1.1443 B( 17-C , 18-C ) :   1.6092
B( 17-C , 33-H ) :   0.9652 B( 18-C , 19-C ) :   1.2274 B( 18-C , 21-H ) :   0.9968
B( 19-C , 20-C ) :   1.6008 B( 19-C , 22-C ) :   1.0375 B( 22-C , 23-H ) :   0.9378
B( 22-C , 24-H ) :   0.9324 B( 22-C , 25-C ) :   1.0558 B( 25-C , 26-H ) :   0.9547
B( 25-C , 27-H ) :   0.9557 B( 25-C , 28-C ) :   1.0884 B( 28-C , 29-H ) :   0.9711
B( 28-C , 30-H ) :   0.9692 B( 28-C , 31-H ) :   0.9741

Dispersion correction           -0.013868536
FINAL SINGLE POINT ENERGY     -1339.883277055963

DIPOLE MOMENT
-------------
                                X             Y             Z
Electronic contribution:     11.83543      30.27368       1.38074
Nuclear contribution   :    -12.14849     -30.88731      -1.60885
                        -----------------------------------------
Total Dipole Moment    :     -0.31306      -0.61363      -0.22811
                        -----------------------------------------
Magnitude (a.u.)       :      0.72566
Magnitude (Debye)      :      1.84448

Rotational constants in cm-1:     0.017434     0.009232     0.006338
Rotational constants in MHz :   522.656914   276.758904   190.021533

                             ****ORCA TERMINATED NORMALLY****
TOTAL RUN TIME: 0 days 0 hours 0 minutes 21 seconds 684 msec
