                         Program Version 4.2.1 -  RELEASE  -
|  1> ! wB97X-D3 SP def2-SVP
|  2> %pal
|  3> nprocs 24
|  4> end
|  5>
|  6> * xyz 0 1
|  7> S 	 -90.9177 	 -35.607 	 -64.7361
|  8> C 	 -92.7274 	 -35.5462 	 -64.8043
|  9> C 	 -93.1725 	 -35.0837 	 -66.0319
| 10> C 	 -92.1076 	 -34.8031 	 -66.9607
| 11> C 	 -90.8254 	 -34.8732 	 -66.3603
| 12> H 	 -92.1941 	 -34.4716 	 -68.0366
| 13> C 	 -94.6131 	 -34.9812 	 -66.5372
| 14> H 	 -94.6138 	 -34.2286 	 -67.2984
| 15> H 	 -95.3248 	 -34.6475 	 -65.7724
| 16> C 	 -95.3629 	 -36.2816 	 -67.0191
| 17> H 	 -95.5651 	 -37.0812 	 -66.2799
| 18> H 	 -96.3956 	 -36.0755 	 -67.3577
| 19> C 	 -94.6038 	 -37.0477 	 -68.1322
| 20> H 	 -94.0066 	 -36.4185 	 -68.7863
| 21> H 	 -94.0784 	 -37.8525 	 -67.6156
| 22> H 	 -95.3637 	 -37.4747 	 -68.703
| 23> S 	 -88.3423 	 -33.6727 	 -66.1616
| 24> C 	 -87.3732 	 -33.3761 	 -67.5442
| 25> C 	 -87.9272 	 -34.0903 	 -68.6035
| 26> C 	 -89.127 	 -34.6984 	 -68.3197
| 27> C 	 -89.5496 	 -34.5794 	 -67.0192
| 28> H 	 -87.4163 	 -34.1895 	 -69.4909
| 29> C 	 -89.9235 	 -35.5176 	 -69.382
| 30> H 	 -89.3414 	 -35.4392 	 -70.3413
| 31> H 	 -90.8071 	 -34.8652 	 -69.5731
| 32> C 	 -90.3013 	 -36.9688 	 -69.1215
| 33> H 	 -90.7762 	 -37.0569 	 -68.1604
| 34> H 	 -89.2744 	 -37.4731 	 -68.9962
| 35> C 	 -91.0754 	 -37.5867 	 -70.356
| 36> H 	 -90.2741 	 -37.7238 	 -71.0612
| 37> H 	 -91.809 	 -36.8866 	 -70.7483
| 38> H 	 -91.5216 	 -38.5531 	 -70.1422
| 39> H 	 -93.364 	 -35.7524 	 -63.9167
| 40> H 	 -86.416 	 -32.9281 	 -67.597
| 41> *
| 42>
| 43>                          ****END OF INPUT****

CARTESIAN COORDINATES (ANGSTROEM)
---------------------------------
  S    -90.917700  -35.607000  -64.736100
  C    -92.727400  -35.546200  -64.804300
  C    -93.172500  -35.083700  -66.031900
  C    -92.107600  -34.803100  -66.960700
  C    -90.825400  -34.873200  -66.360300
  H    -92.194100  -34.471600  -68.036600
  C    -94.613100  -34.981200  -66.537200
  H    -94.613800  -34.228600  -67.298400
  H    -95.324800  -34.647500  -65.772400
  C    -95.362900  -36.281600  -67.019100
  H    -95.565100  -37.081200  -66.279900
  H    -96.395600  -36.075500  -67.357700
  C    -94.603800  -37.047700  -68.132200
  H    -94.006600  -36.418500  -68.786300
  H    -94.078400  -37.852500  -67.615600
  H    -95.363700  -37.474700  -68.703000
  S    -88.342300  -33.672700  -66.161600
  C    -87.373200  -33.376100  -67.544200
  C    -87.927200  -34.090300  -68.603500
  C    -89.127000  -34.698400  -68.319700
  C    -89.549600  -34.579400  -67.019200
  H    -87.416300  -34.189500  -69.490900
  C    -89.923500  -35.517600  -69.382000
  H    -89.341400  -35.439200  -70.341300
  H    -90.807100  -34.865200  -69.573100
  C    -90.301300  -36.968800  -69.121500
  H    -90.776200  -37.056900  -68.160400
  H    -89.274400  -37.473100  -68.996200
  C    -91.075400  -37.586700  -70.356000
  H    -90.274100  -37.723800  -71.061200
  H    -91.809000  -36.886600  -70.748300
  H    -91.521600  -38.553100  -70.142200
  H    -93.364000  -35.752400  -63.916700
  H    -86.416000  -32.928100  -67.597000

 Total Charge           Charge          ....    0
 Multiplicity           Mult            ....    1
 Number of Electrons    NEL             ....  134
 Basis Dimension        Dim             ....  322

ORBITAL ENERGIES
----------------

  NO   OCC          E(Eh)            E(eV)
   0   2.0000     -88.970418     -2421.0081
   1   2.0000     -88.965825     -2420.8832
   2   2.0000     -10.339827      -281.3610
   3   2.0000     -10.324272      -280.9377
   4   2.0000     -10.324178      -280.9352
   5   2.0000     -10.315212      -280.6912
   6   2.0000     -10.309329      -280.5311
   7   2.0000     -10.304762      -280.4068
   8   2.0000     -10.298423      -280.2343
   9   2.0000     -10.297403      -280.2066
  10   2.0000     -10.296935      -280.1938
  11   2.0000     -10.292180      -280.0645
  12   2.0000     -10.289221      -279.9839
  13   2.0000     -10.284559      -279.8571
  14   2.0000     -10.280280      -279.7406
  15   2.0000     -10.268743      -279.4267
  16   2.0000      -8.083499      -219.9632
  17   2.0000      -8.081301      -219.9034
  18   2.0000      -6.042174      -164.4159
  19   2.0000      -6.039661      -164.3475
  20   2.0000      -6.038337      -164.3115
  21   2.0000      -6.035434      -164.2325
  22   2.0000      -6.034078      -164.1956
  23   2.0000      -6.032427      -164.1507
  24   2.0000      -1.011471       -27.5235
  25   2.0000      -0.978996       -26.6398
  26   2.0000      -0.904484       -24.6123
  27   2.0000      -0.903006       -24.5720
  28   2.0000      -0.868259       -23.6265
  29   2.0000      -0.851180       -23.1618
  30   2.0000      -0.843812       -22.9613
  31   2.0000      -0.811015       -22.0688
  32   2.0000      -0.782881       -21.3033
  33   2.0000      -0.773869       -21.0580
  34   2.0000      -0.708046       -19.2669
  35   2.0000      -0.698819       -19.0158
  36   2.0000      -0.690222       -18.7819
  37   2.0000      -0.670585       -18.2476
  38   2.0000      -0.635319       -17.2879
  39   2.0000      -0.613068       -16.6824
  40   2.0000      -0.592752       -16.1296
  41   2.0000      -0.570103       -15.5133
  42   2.0000      -0.562493       -15.3062
  43   2.0000      -0.544126       -14.8064
  44   2.0000      -0.542844       -14.7715
  45   2.0000      -0.521968       -14.2035
  46   2.0000      -0.520406       -14.1610
  47   2.0000      -0.517284       -14.0760
  48   2.0000      -0.509615       -13.8673
  49   2.0000      -0.495754       -13.4901
  50   2.0000      -0.486075       -13.2268
  51   2.0000      -0.481841       -13.1116
  52   2.0000      -0.475182       -12.9304
  53   2.0000      -0.467808       -12.7297
  54   2.0000      -0.458243       -12.4694
  55   2.0000      -0.443359       -12.0644
  56   2.0000      -0.441536       -12.0148
  57   2.0000      -0.439094       -11.9483
  58   2.0000      -0.435269       -11.8443
  59   2.0000      -0.418241       -11.3809
  60   2.0000      -0.413470       -11.2511
  61   2.0000      -0.410838       -11.1795
  62   2.0000      -0.408856       -11.1255
  63   2.0000      -0.349073        -9.4988
  64   2.0000      -0.334253        -9.0955
  65   2.0000      -0.332785        -9.0555
  66   2.0000      -0.288596        -7.8531
  67   0.0000       0.019663         0.5351
  68   0.0000       0.069714         1.8970
  69   0.0000       0.103662         2.8208
  70   0.0000       0.119102         3.2409
  71   0.0000       0.126829         3.4512

MULLIKEN ATOMIC CHARGES
-----------------------
   0 S :    0.097081
   1 C :   -0.142622
   2 C :   -0.049189
   3 C :   -0.016822
   4 C :   -0.135121
   5 H :    0.038260
   6 C :    0.077362
   7 H :    0.023651
   8 H :    0.028342
   9 C :   -0.114742
  10 H :    0.028454
  11 H :    0.029482
  12 C :   -0.027431
  13 H :    0.027460
  14 H :    0.044994
  15 H :    0.011633
  16 S :    0.114890
  17 C :   -0.072736
  18 C :   -0.026044
  19 C :   -0.030161
  20 C :   -0.146566
  21 H :   -0.017294
  22 C :    0.012942
  23 H :    0.013249
  24 H :    0.027158
  25 C :   -0.073436
  26 H :    0.045645
  27 H :    0.039041
  28 C :   -0.031671
  29 H :    0.028770
  30 H :    0.035460
  31 H :    0.042995
  32 H :    0.067850
  33 H :    0.049116
Sum of atomic charges:    0.0000000

LOEWDIN ATOMIC CHARGES
----------------------
   0 S :    0.369060
   1 C :   -0.184322
   2 C :   -0.061355
   3 C :   -0.068218
   4 C :   -0.176871
   5 H :    0.040457
   6 C :   -0.029976
   7 H :    0.026932
   8 H :    0.034723
   9 C :   -0.042816
  10 H :    0.026579
  11 H :    0.023056
  12 C :   -0.064200
  13 H :    0.020024
  14 H :    0.031109
  15 H :    0.018117
  16 S :    0.439484
  17 C :   -0.189489
  18 C :   -0.067863
  19 C :   -0.062197
  20 C :   -0.212253
  21 H :    0.018006
  22 C :   -0.037355
  23 H :    0.028827
  24 H :    0.025301
  25 C :   -0.043036
  26 H :    0.019648
  27 H :    0.033757
  28 C :   -0.057927
  29 H :    0.025866
  30 H :    0.023623
  31 H :    0.028241
  32 H :    0.037822
  33 H :    0.027247

  Mayer bond orders larger than 0.100000
B(  0-S ,  1-C ) :   1.1128 B(  0-S ,  4-C ) :   1.1452 B(  1-C ,  2-C ) :   1.6236
B(  1-C ,  4-C ) :   0.1038 B(  1-C , 32-H ) :   0.9643 B(  2-C ,  3-C ) :   1.2251
B(  2-C ,  6-C ) :   1.0263 B(  3-C ,  4-C ) :   1.5752 B(  3-C ,  5-H ) :   0.9751
B(  4-C , 20-C ) :   1.0432 B(  6-C ,  7-H ) :   0.9442 B(  6-C ,  8-H ) :   0.9402
B(  6-C ,  9-C ) :   1.0624 B(  9-C , 10-H ) :   0.9623 B(  9-C , 11-H ) :   0.9642
B(  9-C , 12-C ) :   1.0629 B( 12-C , 13-H ) :   0.9799 B( 12-C , 14-H ) :   0.9807
B( 12-C , 15-H ) :   0.9734 B( 16-S , 17-C ) :   1.1947 B( 16-S , 20-C ) :   1.1535
B( 17-C , 18-C ) :   1.5264 B( 17-C , 20-C ) :   0.1116 B( 17-C , 33-H ) :   0.9720
B( 18-C , 19-C ) :   1.3283 B( 18-C , 21-H ) :   1.0033 B( 19-C , 20-C ) :   1.5442
B( 19-C , 22-C ) :   1.0109 B( 22-C , 23-H ) :   0.9387 B( 22-C , 24-H ) :   0.9288
B( 22-C , 25-C ) :   1.0526 B( 25-C , 26-H ) :   0.9566 B( 25-C , 27-H ) :   0.9574
B( 25-C , 28-C ) :   1.0567 B( 28-C , 29-H ) :   0.9774 B( 28-C , 30-H ) :   0.9780
B( 28-C , 31-H ) :   0.9763

Dispersion correction           -0.015743008
FINAL SINGLE POINT ENERGY     -1339.865453501696

DIPOLE MOMENT
-------------
                                X             Y             Z
Electronic contribution:     19.70920      13.64717      20.39794
Nuclear contribution   :    -20.07784     -13.82745     -20.94511
                        -----------------------------------------
Total Dipole Moment    :     -0.36864      -0.18028      -0.54717
                        -----------------------------------------
Magnitude (a.u.)       :      0.68396
Magnitude (Debye)      :      1.73848

Rotational constants in cm-1:     0.018960     0.009965     0.007282
Rotational constants in MHz :   568.395382   298.729717   218.304488

                             ****ORCA TERMINATED NORMALLY****
TOTAL RUN TIME: 0 days 0 hours 0 minutes 22 seconds 907 msec
