                         Program Version 4.2.1 -  RELEASE  -
|  1> ! wB97X-D3 SP def2-SVP
|  2> %pal
|  3> nprocs 24
|  4> end
|  5>
|  6> * xyz 0 1
|  7> S 	 -94.2141 	 -36.6993 	 -57.6325
|  8> C 	 -94.8759 	 -38.2317 	 -57.0641
|  9> C 	 -95.0356 	 -38.2386 	 -55.6696
| 10> C 	 -94.5897 	 -37.0805 	 -55.0188
| 11> C 	 -94.1674 	 -36.122 	 -55.9305
| 12> H 	 -94.7026 	 -37.0368 	 -53.9341
| 13> C 	 -95.6553 	 -39.4039 	 -54.9354
| 14> H 	 -95.1773 	 -39.5926 	 -53.9749
| 15> H 	 -95.5165 	 -40.3298 	 -55.5261
| 16> C 	 -97.2083 	 -39.2204 	 -54.7889
| 17> H 	 -97.4309 	 -38.33 	 -54.2953
| 18> H 	 -97.6147 	 -39.0656 	 -55.7731
| 19> C 	 -97.8877 	 -40.3877 	 -54.0584
| 20> H 	 -99.0209 	 -40.345 	 -54.1516
| 21> H 	 -97.5636 	 -41.397 	 -54.4108
| 22> H 	 -97.7788 	 -40.3361 	 -53.0033
| 23> S 	 -91.7933 	 -34.6996 	 -55.5958
| 24> C 	 -91.8549 	 -33.0793 	 -54.8079
| 25> C 	 -93.1658 	 -32.6665 	 -54.836
| 26> C 	 -94.1144 	 -33.6348 	 -55.3037
| 27> C 	 -93.5104 	 -34.8524 	 -55.5838
| 28> H 	 -93.4474 	 -31.6205 	 -54.6188
| 29> C 	 -95.5623 	 -33.2757 	 -55.6385
| 30> H 	 -95.7281 	 -32.3884 	 -54.9802
| 31> H 	 -96.2497 	 -34.0535 	 -55.3173
| 32> C 	 -95.8518 	 -32.9124 	 -57.086
| 33> H 	 -95.0408 	 -33.3156 	 -57.7459
| 34> H 	 -95.6411 	 -31.8085 	 -57.2171
| 35> C 	 -97.293 	 -33.1941 	 -57.4712
| 36> H 	 -97.3801 	 -34.2457 	 -57.551
| 37> H 	 -97.418 	 -32.8853 	 -58.4684
| 38> H 	 -98.0744 	 -32.7046 	 -56.921
| 39> H 	 -95.2784 	 -39.0238 	 -57.6605
| 40> H 	 -91 	 -32.5198 	 -54.5132
| 41> *
| 42>
| 43>                          ****END OF INPUT****

CARTESIAN COORDINATES (ANGSTROEM)
---------------------------------
  S    -94.214100  -36.699300  -57.632500
  C    -94.875900  -38.231700  -57.064100
  C    -95.035600  -38.238600  -55.669600
  C    -94.589700  -37.080500  -55.018800
  C    -94.167400  -36.122000  -55.930500
  H    -94.702600  -37.036800  -53.934100
  C    -95.655300  -39.403900  -54.935400
  H    -95.177300  -39.592600  -53.974900
  H    -95.516500  -40.329800  -55.526100
  C    -97.208300  -39.220400  -54.788900
  H    -97.430900  -38.330000  -54.295300
  H    -97.614700  -39.065600  -55.773100
  C    -97.887700  -40.387700  -54.058400
  H    -99.020900  -40.345000  -54.151600
  H    -97.563600  -41.397000  -54.410800
  H    -97.778800  -40.336100  -53.003300
  S    -91.793300  -34.699600  -55.595800
  C    -91.854900  -33.079300  -54.807900
  C    -93.165800  -32.666500  -54.836000
  C    -94.114400  -33.634800  -55.303700
  C    -93.510400  -34.852400  -55.583800
  H    -93.447400  -31.620500  -54.618800
  C    -95.562300  -33.275700  -55.638500
  H    -95.728100  -32.388400  -54.980200
  H    -96.249700  -34.053500  -55.317300
  C    -95.851800  -32.912400  -57.086000
  H    -95.040800  -33.315600  -57.745900
  H    -95.641100  -31.808500  -57.217100
  C    -97.293000  -33.194100  -57.471200
  H    -97.380100  -34.245700  -57.551000
  H    -97.418000  -32.885300  -58.468400
  H    -98.074400  -32.704600  -56.921000
  H    -95.278400  -39.023800  -57.660500
  H    -91.000000  -32.519800  -54.513200

 Total Charge           Charge          ....    0
 Multiplicity           Mult            ....    1
 Number of Electrons    NEL             ....  134
 Basis Dimension        Dim             ....  322

ORBITAL ENERGIES
----------------

  NO   OCC          E(Eh)            E(eV)
   0   2.0000     -88.973216     -2421.0843
   1   2.0000     -88.962189     -2420.7842
   2   2.0000     -10.335921      -281.2547
   3   2.0000     -10.321968      -280.8750
   4   2.0000     -10.318909      -280.7918
   5   2.0000     -10.315113      -280.6885
   6   2.0000     -10.299032      -280.2509
   7   2.0000     -10.298275      -280.2303
   8   2.0000     -10.297642      -280.2131
   9   2.0000     -10.295547      -280.1561
  10   2.0000     -10.294538      -280.1286
  11   2.0000     -10.287882      -279.9475
  12   2.0000     -10.286316      -279.9049
  13   2.0000     -10.283614      -279.8314
  14   2.0000     -10.283256      -279.8216
  15   2.0000     -10.266543      -279.3668
  16   2.0000      -8.086418      -220.0426
  17   2.0000      -8.076704      -219.7783
  18   2.0000      -6.044936      -164.4911
  19   2.0000      -6.041162      -164.3884
  20   2.0000      -6.037252      -164.2820
  21   2.0000      -6.035275      -164.2282
  22   2.0000      -6.031300      -164.1200
  23   2.0000      -6.027342      -164.0123
  24   2.0000      -1.001987       -27.2655
  25   2.0000      -0.980326       -26.6760
  26   2.0000      -0.907728       -24.7005
  27   2.0000      -0.905731       -24.6462
  28   2.0000      -0.864912       -23.5354
  29   2.0000      -0.852004       -23.1842
  30   2.0000      -0.846530       -23.0353
  31   2.0000      -0.815170       -22.1819
  32   2.0000      -0.779292       -21.2056
  33   2.0000      -0.766772       -20.8649
  34   2.0000      -0.707382       -19.2488
  35   2.0000      -0.704267       -19.1641
  36   2.0000      -0.691827       -18.8256
  37   2.0000      -0.660694       -17.9784
  38   2.0000      -0.637154       -17.3378
  39   2.0000      -0.622510       -16.9393
  40   2.0000      -0.595546       -16.2056
  41   2.0000      -0.566632       -15.4188
  42   2.0000      -0.559315       -15.2197
  43   2.0000      -0.557671       -15.1750
  44   2.0000      -0.522026       -14.2051
  45   2.0000      -0.520968       -14.1763
  46   2.0000      -0.516851       -14.0642
  47   2.0000      -0.510852       -13.9010
  48   2.0000      -0.502906       -13.6848
  49   2.0000      -0.501802       -13.6547
  50   2.0000      -0.495215       -13.4755
  51   2.0000      -0.478967       -13.0334
  52   2.0000      -0.469244       -12.7688
  53   2.0000      -0.463402       -12.6098
  54   2.0000      -0.459652       -12.5078
  55   2.0000      -0.450324       -12.2539
  56   2.0000      -0.442570       -12.0429
  57   2.0000      -0.436121       -11.8675
  58   2.0000      -0.432989       -11.7822
  59   2.0000      -0.425253       -11.5717
  60   2.0000      -0.423477       -11.5234
  61   2.0000      -0.420443       -11.4408
  62   2.0000      -0.399610       -10.8739
  63   2.0000      -0.342755        -9.3268
  64   2.0000      -0.329973        -8.9790
  65   2.0000      -0.316879        -8.6227
  66   2.0000      -0.303114        -8.2481
  67   0.0000       0.039469         1.0740
  68   0.0000       0.045916         1.2494
  69   0.0000       0.106694         2.9033
  70   0.0000       0.112997         3.0748
  71   0.0000       0.129086         3.5126

MULLIKEN ATOMIC CHARGES
-----------------------
   0 S :    0.114410
   1 C :   -0.105034
   2 C :   -0.110968
   3 C :    0.066889
   4 C :   -0.166610
   5 H :    0.024031
   6 C :    0.038505
   7 H :    0.027229
   8 H :    0.022782
   9 C :   -0.031529
  10 H :    0.008997
  11 H :    0.018304
  12 C :   -0.057064
  13 H :    0.037115
  14 H :    0.035311
  15 H :    0.026100
  16 S :    0.104548
  17 C :   -0.097311
  18 C :   -0.023453
  19 C :   -0.060443
  20 C :   -0.165585
  21 H :    0.026605
  22 C :    0.083579
  23 H :    0.022048
  24 H :    0.027003
  25 C :   -0.099475
  26 H :    0.036845
  27 H :    0.020677
  28 C :    0.010327
  29 H :    0.026307
  30 H :    0.009631
  31 H :    0.036943
  32 H :    0.040299
  33 H :    0.052987
Sum of atomic charges:   -0.0000000

LOEWDIN ATOMIC CHARGES
----------------------
   0 S :    0.390746
   1 C :   -0.195823
   2 C :   -0.063369
   3 C :   -0.050032
   4 C :   -0.177410
   5 H :    0.040881
   6 C :   -0.030373
   7 H :    0.027690
   8 H :    0.031037
   9 C :   -0.033064
  10 H :    0.015112
  11 H :    0.022276
  12 C :   -0.071509
  13 H :    0.034341
  14 H :    0.026903
  15 H :    0.019288
  16 S :    0.396087
  17 C :   -0.167934
  18 C :   -0.073332
  19 C :   -0.061336
  20 C :   -0.214179
  21 H :    0.034512
  22 C :   -0.035406
  23 H :    0.032627
  24 H :    0.029229
  25 C :   -0.048483
  26 H :    0.028653
  27 H :    0.025132
  28 C :   -0.057697
  29 H :    0.024405
  30 H :    0.023396
  31 H :    0.027374
  32 H :    0.024155
  33 H :    0.026103

  Mayer bond orders larger than 0.100000
B(  0-S ,  1-C ) :   1.1331 B(  0-S ,  4-C ) :   1.1543 B(  1-C ,  2-C ) :   1.6028
B(  1-C ,  4-C ) :   0.1070 B(  1-C , 32-H ) :   0.9642 B(  2-C ,  3-C ) :   1.2750
B(  2-C ,  6-C ) :   1.0366 B(  3-C ,  4-C ) :   1.5607 B(  3-C ,  5-H ) :   0.9900
B(  4-C , 20-C ) :   1.0038 B(  6-C ,  7-H ) :   0.9449 B(  6-C ,  8-H ) :   0.9411
B(  6-C ,  9-C ) :   1.0511 B(  9-C , 10-H ) :   0.9559 B(  9-C , 11-H ) :   0.9561
B(  9-C , 12-C ) :   1.0799 B( 12-C , 13-H ) :   0.9732 B( 12-C , 14-H ) :   0.9754
B( 12-C , 15-H ) :   0.9755 B( 16-S , 17-C ) :   1.1412 B( 16-S , 20-C ) :   1.1539
B( 17-C , 18-C ) :   1.5957 B( 17-C , 33-H ) :   0.9767 B( 18-C , 19-C ) :   1.2660
B( 18-C , 21-H ) :   0.9787 B( 19-C , 20-C ) :   1.5846 B( 19-C , 22-C ) :   1.0488
B( 22-C , 23-H ) :   0.9283 B( 22-C , 24-H ) :   0.9363 B( 22-C , 25-C ) :   1.0456
B( 25-C , 26-H ) :   0.9611 B( 25-C , 27-H ) :   0.9508 B( 25-C , 28-C ) :   1.0830
B( 28-C , 29-H ) :   0.9719 B( 28-C , 30-H ) :   0.9655 B( 28-C , 31-H ) :   0.9736

Dispersion correction           -0.014467177
FINAL SINGLE POINT ENERGY     -1339.874493351631

DIPOLE MOMENT
-------------
                                X             Y             Z
Electronic contribution:     25.02070       5.32150      -4.69796
Nuclear contribution   :    -25.55820      -5.29484       4.90347
                        -----------------------------------------
Total Dipole Moment    :     -0.53750       0.02667       0.20551
                        -----------------------------------------
Magnitude (a.u.)       :      0.57606
Magnitude (Debye)      :      1.46423

Rotational constants in cm-1:     0.019161     0.008022     0.006999
Rotational constants in MHz :   574.437248   240.487904   209.818924

                             ****ORCA TERMINATED NORMALLY****
TOTAL RUN TIME: 0 days 0 hours 0 minutes 20 seconds 264 msec
