                         Program Version 4.2.1 -  RELEASE  -
|  1> ! wB97X-D3 SP def2-SVP
|  2> %pal
|  3> nprocs 24
|  4> end
|  5>
|  6> * xyz 0 1
|  7> S 	 -43.9863 	 -47.4651 	 -72.067
|  8> C 	 -43.9149 	 -45.736 	 -72.1248
|  9> C 	 -45.1751 	 -45.2006 	 -72.1373
| 10> C 	 -46.2413 	 -46.1528 	 -71.9661
| 11> C 	 -45.714 	 -47.4357 	 -71.9469
| 12> H 	 -47.2987 	 -46.0136 	 -71.9317
| 13> C 	 -45.4291 	 -43.8249 	 -72.5556
| 14> H 	 -44.5104 	 -43.2894 	 -72.402
| 15> H 	 -46.025 	 -43.2874 	 -71.815
| 16> C 	 -46.0491 	 -43.6307 	 -74.0347
| 17> H 	 -46.2205 	 -42.617 	 -74.3973
| 18> H 	 -45.2551 	 -43.8596 	 -74.654
| 19> C 	 -47.4051 	 -44.341 	 -74.3215
| 20> H 	 -48.2304 	 -44.1443 	 -73.575
| 21> H 	 -47.8032 	 -44.0875 	 -75.258
| 22> H 	 -47.2803 	 -45.3926 	 -74.3348
| 23> S 	 -45.5986 	 -49.7902 	 -70.5254
| 24> C 	 -46.9289 	 -50.9388 	 -70.4369
| 25> C 	 -47.9773 	 -50.4474 	 -71.2034
| 26> C 	 -47.6996 	 -49.0959 	 -71.7761
| 27> C 	 -46.4337 	 -48.6154 	 -71.4956
| 28> H 	 -48.8541 	 -51.0074 	 -71.4035
| 29> C 	 -48.6495 	 -48.4286 	 -72.7753
| 30> H 	 -48.5193 	 -47.3664 	 -72.8027
| 31> H 	 -49.6695 	 -48.5963 	 -72.3592
| 32> C 	 -48.4254 	 -49.0167 	 -74.2076
| 33> H 	 -48.7086 	 -50.0596 	 -74.064
| 34> H 	 -47.3634 	 -48.8954 	 -74.5145
| 35> C 	 -49.3188 	 -48.2833 	 -75.2497
| 36> H 	 -50.3649 	 -48.6275 	 -75.199
| 37> H 	 -49.0014 	 -48.5668 	 -76.3403
| 38> H 	 -49.2524 	 -47.1782 	 -75.139
| 39> H 	 -43.0289 	 -45.1928 	 -72.386
| 40> H 	 -46.9152 	 -51.9472 	 -70.042
| 41> *
| 42>
| 43>                          ****END OF INPUT****

CARTESIAN COORDINATES (ANGSTROEM)
---------------------------------
  S    -43.986300  -47.465100  -72.067000
  C    -43.914900  -45.736000  -72.124800
  C    -45.175100  -45.200600  -72.137300
  C    -46.241300  -46.152800  -71.966100
  C    -45.714000  -47.435700  -71.946900
  H    -47.298700  -46.013600  -71.931700
  C    -45.429100  -43.824900  -72.555600
  H    -44.510400  -43.289400  -72.402000
  H    -46.025000  -43.287400  -71.815000
  C    -46.049100  -43.630700  -74.034700
  H    -46.220500  -42.617000  -74.397300
  H    -45.255100  -43.859600  -74.654000
  C    -47.405100  -44.341000  -74.321500
  H    -48.230400  -44.144300  -73.575000
  H    -47.803200  -44.087500  -75.258000
  H    -47.280300  -45.392600  -74.334800
  S    -45.598600  -49.790200  -70.525400
  C    -46.928900  -50.938800  -70.436900
  C    -47.977300  -50.447400  -71.203400
  C    -47.699600  -49.095900  -71.776100
  C    -46.433700  -48.615400  -71.495600
  H    -48.854100  -51.007400  -71.403500
  C    -48.649500  -48.428600  -72.775300
  H    -48.519300  -47.366400  -72.802700
  H    -49.669500  -48.596300  -72.359200
  C    -48.425400  -49.016700  -74.207600
  H    -48.708600  -50.059600  -74.064000
  H    -47.363400  -48.895400  -74.514500
  C    -49.318800  -48.283300  -75.249700
  H    -50.364900  -48.627500  -75.199000
  H    -49.001400  -48.566800  -76.340300
  H    -49.252400  -47.178200  -75.139000
  H    -43.028900  -45.192800  -72.386000
  H    -46.915200  -51.947200  -70.042000

 Total Charge           Charge          ....    0
 Multiplicity           Mult            ....    1
 Number of Electrons    NEL             ....  134
 Basis Dimension        Dim             ....  322

ORBITAL ENERGIES
----------------

  NO   OCC          E(Eh)            E(eV)
   0   2.0000     -88.969063     -2420.9713
   1   2.0000     -88.961253     -2420.7588
   2   2.0000     -10.331296      -281.1289
   3   2.0000     -10.325584      -280.9734
   4   2.0000     -10.319873      -280.8180
   5   2.0000     -10.312167      -280.6083
   6   2.0000     -10.305059      -280.4149
   7   2.0000     -10.299740      -280.2702
   8   2.0000     -10.298789      -280.2443
   9   2.0000     -10.295718      -280.1607
  10   2.0000     -10.293476      -280.0997
  11   2.0000     -10.291963      -280.0586
  12   2.0000     -10.290921      -280.0302
  13   2.0000     -10.290710      -280.0244
  14   2.0000     -10.290483      -280.0183
  15   2.0000     -10.279704      -279.7250
  16   2.0000      -8.084431      -219.9886
  17   2.0000      -8.076040      -219.7602
  18   2.0000      -6.042922      -164.4363
  19   2.0000      -6.038849      -164.3254
  20   2.0000      -6.035176      -164.2255
  21   2.0000      -6.034800      -164.2152
  22   2.0000      -6.030345      -164.0940
  23   2.0000      -6.026702      -163.9949
  24   2.0000      -1.012062       -27.5396
  25   2.0000      -0.983793       -26.7704
  26   2.0000      -0.909737       -24.7552
  27   2.0000      -0.902784       -24.5660
  28   2.0000      -0.871940       -23.7267
  29   2.0000      -0.851891       -23.1811
  30   2.0000      -0.837057       -22.7775
  31   2.0000      -0.823110       -22.3980
  32   2.0000      -0.782153       -21.2835
  33   2.0000      -0.766420       -20.8554
  34   2.0000      -0.717091       -19.5130
  35   2.0000      -0.703265       -19.1368
  36   2.0000      -0.693901       -18.8820
  37   2.0000      -0.665894       -18.1199
  38   2.0000      -0.646519       -17.5927
  39   2.0000      -0.618746       -16.8369
  40   2.0000      -0.590423       -16.0662
  41   2.0000      -0.572159       -15.5692
  42   2.0000      -0.564993       -15.3742
  43   2.0000      -0.548402       -14.9228
  44   2.0000      -0.543075       -14.7778
  45   2.0000      -0.518994       -14.1225
  46   2.0000      -0.516419       -14.0525
  47   2.0000      -0.511799       -13.9268
  48   2.0000      -0.507559       -13.8114
  49   2.0000      -0.504021       -13.7151
  50   2.0000      -0.489412       -13.3176
  51   2.0000      -0.483854       -13.1663
  52   2.0000      -0.476830       -12.9752
  53   2.0000      -0.463609       -12.6154
  54   2.0000      -0.459788       -12.5115
  55   2.0000      -0.449638       -12.2353
  56   2.0000      -0.443297       -12.0627
  57   2.0000      -0.434463       -11.8223
  58   2.0000      -0.432796       -11.7770
  59   2.0000      -0.427553       -11.6343
  60   2.0000      -0.424952       -11.5635
  61   2.0000      -0.414582       -11.2813
  62   2.0000      -0.405129       -11.0241
  63   2.0000      -0.360317        -9.8047
  64   2.0000      -0.329583        -8.9684
  65   2.0000      -0.323330        -8.7983
  66   2.0000      -0.289911        -7.8889
  67   0.0000       0.025093         0.6828
  68   0.0000       0.079352         2.1593
  69   0.0000       0.107411         2.9228
  70   0.0000       0.116628         3.1736
  71   0.0000       0.127802         3.4777

MULLIKEN ATOMIC CHARGES
-----------------------
   0 S :    0.110776
   1 C :   -0.105065
   2 C :   -0.090611
   3 C :    0.023977
   4 C :   -0.131436
   5 H :    0.016194
   6 C :    0.073428
   7 H :    0.002352
   8 H :    0.023471
   9 C :   -0.026770
  10 H :    0.023111
  11 H :    0.009522
  12 C :   -0.060307
  13 H :    0.038688
  14 H :    0.022197
  15 H :    0.037702
  16 S :    0.086397
  17 C :   -0.088780
  18 C :   -0.019938
  19 C :   -0.090568
  20 C :   -0.112428
  21 H :    0.010796
  22 C :    0.052340
  23 H :   -0.010329
  24 H :    0.032900
  25 C :   -0.065715
  26 H :    0.030264
  27 H :    0.050865
  28 C :   -0.082446
  29 H :    0.037052
  30 H :    0.045899
  31 H :    0.043470
  32 H :    0.046970
  33 H :    0.066022
Sum of atomic charges:   -0.0000000

LOEWDIN ATOMIC CHARGES
----------------------
   0 S :    0.421513
   1 C :   -0.197284
   2 C :   -0.064043
   3 C :   -0.049791
   4 C :   -0.191161
   5 H :    0.028372
   6 C :   -0.035714
   7 H :    0.027608
   8 H :    0.029727
   9 C :   -0.029424
  10 H :    0.027983
  11 H :    0.015655
  12 C :   -0.065053
  13 H :    0.032318
  14 H :    0.020780
  15 H :    0.017083
  16 S :    0.398828
  17 C :   -0.187945
  18 C :   -0.065844
  19 C :   -0.062289
  20 C :   -0.201035
  21 H :    0.023173
  22 C :   -0.033840
  23 H :    0.015219
  24 H :    0.033178
  25 C :   -0.036063
  26 H :    0.024812
  27 H :    0.032706
  28 C :   -0.079502
  29 H :    0.025286
  30 H :    0.035584
  31 H :    0.026214
  32 H :    0.026972
  33 H :    0.035977

  Mayer bond orders larger than 0.100000
B(  0-S ,  1-C ) :   1.1300 B(  0-S ,  4-C ) :   1.1590 B(  1-C ,  2-C ) :   1.6128
B(  1-C , 32-H ) :   0.9678 B(  2-C ,  3-C ) :   1.2271 B(  2-C ,  6-C ) :   1.0544
B(  3-C ,  4-C ) :   1.5503 B(  3-C ,  5-H ) :   0.9919 B(  4-C , 20-C ) :   1.0521
B(  6-C ,  7-H ) :   0.9345 B(  6-C ,  8-H ) :   0.9335 B(  6-C ,  9-C ) :   1.0370
B(  9-C , 10-H ) :   0.9600 B(  9-C , 11-H ) :   0.9568 B(  9-C , 12-C ) :   1.0774
B( 12-C , 13-H ) :   0.9745 B( 12-C , 14-H ) :   0.9697 B( 12-C , 15-H ) :   0.9688
B( 16-S , 17-C ) :   1.1425 B( 16-S , 20-C ) :   1.1256 B( 17-C , 18-C ) :   1.6135
B( 17-C , 33-H ) :   0.9690 B( 18-C , 19-C ) :   1.2322 B( 18-C , 21-H ) :   0.9921
B( 19-C , 20-C ) :   1.6058 B( 19-C , 22-C ) :   1.0572 B( 22-C , 23-H ) :   0.9344
B( 22-C , 24-H ) :   0.9354 B( 22-C , 25-C ) :   1.0501 B( 25-C , 26-H ) :   0.9578
B( 25-C , 27-H ) :   0.9598 B( 25-C , 28-C ) :   1.0717 B( 28-C , 29-H ) :   0.9750
B( 28-C , 30-H ) :   0.9754 B( 28-C , 31-H ) :   0.9736

Dispersion correction           -0.015701572
FINAL SINGLE POINT ENERGY     -1339.867935789348

DIPOLE MOMENT
-------------
                                X             Y             Z
Electronic contribution:     18.58279     -14.46779      19.09560
Nuclear contribution   :    -18.99580      14.75927     -19.59832
                        -----------------------------------------
Total Dipole Moment    :     -0.41301       0.29148      -0.50272
                        -----------------------------------------
Magnitude (a.u.)       :      0.71292
Magnitude (Debye)      :      1.81210

Rotational constants in cm-1:     0.017629     0.010842     0.007345
Rotational constants in MHz :   528.493439   325.030836   220.209327

                             ****ORCA TERMINATED NORMALLY****
TOTAL RUN TIME: 0 days 0 hours 0 minutes 21 seconds 812 msec
