                         Program Version 4.2.1 -  RELEASE  -
|  1> ! wB97X-D3 SP def2-SVP
|  2> %pal
|  3> nprocs 24
|  4> end
|  5>
|  6> * xyz 0 1
|  7> S 	 -108.16 	 31.4041 	 -16.5247
|  8> C 	 -108.341 	 29.7566 	 -15.9872
|  9> C 	 -108.111 	 28.8722 	 -17.0246
| 10> C 	 -108.011 	 29.5833 	 -18.2772
| 11> C 	 -108.105 	 30.9673 	 -18.2333
| 12> H 	 -107.766 	 29.1031 	 -19.1983
| 13> C 	 -107.825 	 27.3873 	 -16.9379
| 14> H 	 -107.424 	 27.0284 	 -15.9978
| 15> H 	 -107.023 	 27.1216 	 -17.6051
| 16> C 	 -109.031 	 26.517 	 -17.3672
| 17> H 	 -109.923 	 26.8397 	 -16.8222
| 18> H 	 -109.348 	 26.8278 	 -18.3555
| 19> C 	 -108.949 	 24.9719 	 -17.2848
| 20> H 	 -109.903 	 24.5545 	 -16.9718
| 21> H 	 -108.616 	 24.5867 	 -18.169
| 22> H 	 -108.188 	 24.7327 	 -16.5661
| 23> S 	 -106.565 	 33.0423 	 -19.1649
| 24> C 	 -106.782 	 33.5809 	 -20.8491
| 25> C 	 -107.77 	 32.8549 	 -21.4659
| 26> C 	 -108.25 	 31.7953 	 -20.6751
| 27> C 	 -107.889 	 31.8685 	 -19.361
| 28> H 	 -108.186 	 32.9693 	 -22.5008
| 29> C 	 -109.231 	 30.8182 	 -21.2936
| 30> H 	 -110.022 	 31.3105 	 -21.8405
| 31> H 	 -109.864 	 30.3466 	 -20.5736
| 32> C 	 -108.57 	 29.7212 	 -22.0832
| 33> H 	 -107.828 	 29.2595 	 -21.4574
| 34> H 	 -107.94 	 30.0053 	 -22.9568
| 35> C 	 -109.519 	 28.4975 	 -22.4202
| 36> H 	 -110.45 	 28.6653 	 -23.0212
| 37> H 	 -109.905 	 28.1057 	 -21.472
| 38> H 	 -109.018 	 27.7276 	 -22.931
| 39> H 	 -108.283 	 29.3427 	 -14.9669
| 40> H 	 -106.194 	 34.3705 	 -21.3251
| 41> *
| 42>
| 43>                          ****END OF INPUT****

CARTESIAN COORDINATES (ANGSTROEM)
---------------------------------
  S    -108.160000   31.404100  -16.524700
  C    -108.341000   29.756600  -15.987200
  C    -108.111000   28.872200  -17.024600
  C    -108.011000   29.583300  -18.277200
  C    -108.105000   30.967300  -18.233300
  H    -107.766000   29.103100  -19.198300
  C    -107.825000   27.387300  -16.937900
  H    -107.424000   27.028400  -15.997800
  H    -107.023000   27.121600  -17.605100
  C    -109.031000   26.517000  -17.367200
  H    -109.923000   26.839700  -16.822200
  H    -109.348000   26.827800  -18.355500
  C    -108.949000   24.971900  -17.284800
  H    -109.903000   24.554500  -16.971800
  H    -108.616000   24.586700  -18.169000
  H    -108.188000   24.732700  -16.566100
  S    -106.565000   33.042300  -19.164900
  C    -106.782000   33.580900  -20.849100
  C    -107.770000   32.854900  -21.465900
  C    -108.250000   31.795300  -20.675100
  C    -107.889000   31.868500  -19.361000
  H    -108.186000   32.969300  -22.500800
  C    -109.231000   30.818200  -21.293600
  H    -110.022000   31.310500  -21.840500
  H    -109.864000   30.346600  -20.573600
  C    -108.570000   29.721200  -22.083200
  H    -107.828000   29.259500  -21.457400
  H    -107.940000   30.005300  -22.956800
  C    -109.519000   28.497500  -22.420200
  H    -110.450000   28.665300  -23.021200
  H    -109.905000   28.105700  -21.472000
  H    -109.018000   27.727600  -22.931000
  H    -108.283000   29.342700  -14.966900
  H    -106.194000   34.370500  -21.325100

 Total Charge           Charge          ....    0
 Multiplicity           Mult            ....    1
 Number of Electrons    NEL             ....  134
 Basis Dimension        Dim             ....  322

ORBITAL ENERGIES
----------------

  NO   OCC          E(Eh)            E(eV)
   0   2.0000     -88.969148     -2420.9736
   1   2.0000     -88.966033     -2420.8888
   2   2.0000     -10.333315      -281.1838
   3   2.0000     -10.330832      -281.1162
   4   2.0000     -10.323762      -280.9238
   5   2.0000     -10.317403      -280.7508
   6   2.0000     -10.304075      -280.3881
   7   2.0000     -10.300911      -280.3020
   8   2.0000     -10.297105      -280.1985
   9   2.0000     -10.294736      -280.1340
  10   2.0000     -10.293722      -280.1064
  11   2.0000     -10.291995      -280.0594
  12   2.0000     -10.288192      -279.9559
  13   2.0000     -10.283708      -279.8339
  14   2.0000     -10.282417      -279.7988
  15   2.0000     -10.272094      -279.5179
  16   2.0000      -8.083374      -219.9598
  17   2.0000      -8.080139      -219.8718
  18   2.0000      -6.042107      -164.4141
  19   2.0000      -6.038798      -164.3240
  20   2.0000      -6.037967      -164.3014
  21   2.0000      -6.034823      -164.2159
  22   2.0000      -6.033888      -164.1904
  23   2.0000      -6.030667      -164.1028
  24   2.0000      -1.007669       -27.4201
  25   2.0000      -0.985885       -26.8273
  26   2.0000      -0.911586       -24.8055
  27   2.0000      -0.909213       -24.7409
  28   2.0000      -0.872133       -23.7319
  29   2.0000      -0.850205       -23.1352
  30   2.0000      -0.846086       -23.0232
  31   2.0000      -0.814276       -22.1576
  32   2.0000      -0.786166       -21.3927
  33   2.0000      -0.778508       -21.1843
  34   2.0000      -0.709551       -19.3079
  35   2.0000      -0.704185       -19.1619
  36   2.0000      -0.700339       -19.0572
  37   2.0000      -0.667937       -18.1755
  38   2.0000      -0.641134       -17.4461
  39   2.0000      -0.620692       -16.8899
  40   2.0000      -0.605639       -16.4803
  41   2.0000      -0.569548       -15.4982
  42   2.0000      -0.557558       -15.1719
  43   2.0000      -0.553942       -15.0735
  44   2.0000      -0.530367       -14.4320
  45   2.0000      -0.525304       -14.2943
  46   2.0000      -0.520956       -14.1759
  47   2.0000      -0.514537       -14.0013
  48   2.0000      -0.507459       -13.8087
  49   2.0000      -0.499976       -13.6050
  50   2.0000      -0.495244       -13.4763
  51   2.0000      -0.482606       -13.1324
  52   2.0000      -0.469132       -12.7657
  53   2.0000      -0.463798       -12.6206
  54   2.0000      -0.458929       -12.4881
  55   2.0000      -0.454852       -12.3772
  56   2.0000      -0.445900       -12.1336
  57   2.0000      -0.441549       -12.0152
  58   2.0000      -0.438022       -11.9192
  59   2.0000      -0.426053       -11.5935
  60   2.0000      -0.421159       -11.4603
  61   2.0000      -0.412828       -11.2336
  62   2.0000      -0.409757       -11.1500
  63   2.0000      -0.354429        -9.6445
  64   2.0000      -0.333952        -9.0873
  65   2.0000      -0.327852        -8.9213
  66   2.0000      -0.293509        -7.9868
  67   0.0000       0.025024         0.6809
  68   0.0000       0.068059         1.8520
  69   0.0000       0.106569         2.8999
  70   0.0000       0.119455         3.2505
  71   0.0000       0.122834         3.3425

MULLIKEN ATOMIC CHARGES
-----------------------
   0 S :    0.109266
   1 C :   -0.103336
   2 C :   -0.104886
   3 C :    0.033484
   4 C :   -0.131635
   5 H :   -0.013958
   6 C :    0.089376
   7 H :    0.013315
   8 H :    0.021202
   9 C :   -0.116793
  10 H :    0.019339
  11 H :    0.011997
  12 C :    0.024263
  13 H :    0.039602
  14 H :    0.014638
  15 H :    0.014672
  16 S :    0.087209
  17 C :   -0.091553
  18 C :   -0.014343
  19 C :   -0.063071
  20 C :   -0.116090
  21 H :    0.037237
  22 C :    0.080797
  23 H :    0.021191
  24 H :    0.003678
  25 C :   -0.073068
  26 H :    0.018624
  27 H :    0.032714
  28 C :   -0.057791
  29 H :    0.034409
  30 H :    0.027232
  31 H :    0.027387
  32 H :    0.058373
  33 H :    0.066521
Sum of atomic charges:    0.0000000

LOEWDIN ATOMIC CHARGES
----------------------
   0 S :    0.405622
   1 C :   -0.203460
   2 C :   -0.061255
   3 C :   -0.055979
   4 C :   -0.195041
   5 H :    0.021148
   6 C :   -0.030125
   7 H :    0.025188
   8 H :    0.030415
   9 C :   -0.045907
  10 H :    0.022613
  11 H :    0.018114
  12 C :   -0.052356
  13 H :    0.032383
  14 H :    0.012895
  15 H :    0.023693
  16 S :    0.379009
  17 C :   -0.171244
  18 C :   -0.071408
  19 C :   -0.057254
  20 C :   -0.180042
  21 H :    0.043047
  22 C :   -0.033643
  23 H :    0.030614
  24 H :    0.028247
  25 C :   -0.039549
  26 H :    0.020501
  27 H :    0.026443
  28 C :   -0.066692
  29 H :    0.027482
  30 H :    0.024261
  31 H :    0.019028
  32 H :    0.039404
  33 H :    0.033848

  Mayer bond orders larger than 0.100000
B(  0-S ,  1-C ) :   1.1407 B(  0-S ,  4-C ) :   1.1378 B(  1-C ,  2-C ) :   1.6164
B(  1-C , 32-H ) :   0.9582 B(  2-C ,  3-C ) :   1.2585 B(  2-C ,  6-C ) :   1.0311
B(  3-C ,  4-C ) :   1.5564 B(  3-C ,  5-H ) :   0.9928 B(  4-C , 20-C ) :   1.0457
B(  6-C ,  7-H ) :   0.9401 B(  6-C ,  8-H ) :   0.9399 B(  6-C ,  9-C ) :   1.0531
B(  9-C , 10-H ) :   0.9605 B(  9-C , 11-H ) :   0.9585 B(  9-C , 12-C ) :   1.0667
B( 12-C , 13-H ) :   0.9774 B( 12-C , 14-H ) :   0.9756 B( 12-C , 15-H ) :   0.9751
B( 16-S , 17-C ) :   1.1428 B( 16-S , 20-C ) :   1.1189 B( 17-C , 18-C ) :   1.6027
B( 17-C , 33-H ) :   0.9672 B( 18-C , 19-C ) :   1.2421 B( 18-C , 21-H ) :   0.9785
B( 19-C , 20-C ) :   1.6326 B( 19-C , 22-C ) :   1.0479 B( 22-C , 23-H ) :   0.9375
B( 22-C , 24-H ) :   0.9311 B( 22-C , 25-C ) :   1.0496 B( 25-C , 26-H ) :   0.9497
B( 25-C , 27-H ) :   0.9543 B( 25-C , 28-C ) :   1.0745 B( 28-C , 29-H ) :   0.9777
B( 28-C , 30-H ) :   0.9742 B( 28-C , 31-H ) :   0.9767

Dispersion correction           -0.014268715
FINAL SINGLE POINT ENERGY     -1339.867039292538

DIPOLE MOMENT
-------------
                                X             Y             Z
Electronic contribution:      9.61680      30.36386      11.30680
Nuclear contribution   :     -9.58688     -31.03327     -11.75385
                        -----------------------------------------
Total Dipole Moment    :      0.02992      -0.66941      -0.44705
                        -----------------------------------------
Magnitude (a.u.)       :      0.80552
Magnitude (Debye)      :      2.04747

Rotational constants in cm-1:     0.017434     0.009263     0.006432
Rotational constants in MHz :   522.663401   277.687837   192.826982

                             ****ORCA TERMINATED NORMALLY****
TOTAL RUN TIME: 0 days 0 hours 0 minutes 21 seconds 926 msec
