                         Program Version 4.2.1 -  RELEASE  -
|  1> ! wB97X-D3 SP def2-SVP
|  2> %pal
|  3> nprocs 24
|  4> end
|  5>
|  6> * xyz 0 1
|  7> S 	 49.038 	 -36.1914 	 -120.196
|  8> C 	 48.2545 	 -35.1179 	 -121.32
|  9> C 	 47.9546 	 -33.93 	 -120.749
| 10> C 	 48.3625 	 -33.8681 	 -119.395
| 11> C 	 48.8921 	 -35.0291 	 -118.903
| 12> H 	 48.2071 	 -33.1233 	 -118.698
| 13> C 	 47.5384 	 -32.6791 	 -121.479
| 14> H 	 48.3117 	 -32.4101 	 -122.172
| 15> H 	 47.6592 	 -31.9591 	 -120.709
| 16> C 	 46.1227 	 -32.7406 	 -122.059
| 17> H 	 46.057 	 -31.7642 	 -122.571
| 18> H 	 46.0942 	 -33.6545 	 -122.75
| 19> C 	 45.1174 	 -32.9416 	 -120.899
| 20> H 	 45.285 	 -33.8188 	 -120.286
| 21> H 	 45.3268 	 -32.0155 	 -120.29
| 22> H 	 43.9634 	 -32.988 	 -121.21
| 23> S 	 50.813 	 -35.0965 	 -116.794
| 24> C 	 50.2751 	 -35.5607 	 -115.217
| 25> C 	 48.8863 	 -35.6702 	 -115.216
| 26> C 	 48.286 	 -35.5708 	 -116.484
| 27> C 	 49.2032 	 -35.3713 	 -117.511
| 28> H 	 48.3339 	 -35.8237 	 -114.298
| 29> C 	 46.7825 	 -35.7149 	 -116.609
| 30> H 	 46.4682 	 -36.6964 	 -116.117
| 31> H 	 46.5425 	 -35.8269 	 -117.652
| 32> C 	 45.8945 	 -34.6461 	 -115.967
| 33> H 	 45.9474 	 -34.6221 	 -114.909
| 34> H 	 44.86 	 -34.7862 	 -116.173
| 35> C 	 46.3747 	 -33.2062 	 -116.295
| 36> H 	 47.415 	 -33 	 -115.919
| 37> H 	 45.8238 	 -32.4678 	 -115.718
| 38> H 	 46.4466 	 -32.9538 	 -117.335
| 39> H 	 48.1128 	 -35.2999 	 -122.419
| 40> H 	 50.8077 	 -35.5788 	 -114.251
| 41> *
| 42>
| 43>                          ****END OF INPUT****

CARTESIAN COORDINATES (ANGSTROEM)
---------------------------------
  S     49.038000  -36.191400  -120.196000
  C     48.254500  -35.117900  -121.320000
  C     47.954600  -33.930000  -120.749000
  C     48.362500  -33.868100  -119.395000
  C     48.892100  -35.029100  -118.903000
  H     48.207100  -33.123300  -118.698000
  C     47.538400  -32.679100  -121.479000
  H     48.311700  -32.410100  -122.172000
  H     47.659200  -31.959100  -120.709000
  C     46.122700  -32.740600  -122.059000
  H     46.057000  -31.764200  -122.571000
  H     46.094200  -33.654500  -122.750000
  C     45.117400  -32.941600  -120.899000
  H     45.285000  -33.818800  -120.286000
  H     45.326800  -32.015500  -120.290000
  H     43.963400  -32.988000  -121.210000
  S     50.813000  -35.096500  -116.794000
  C     50.275100  -35.560700  -115.217000
  C     48.886300  -35.670200  -115.216000
  C     48.286000  -35.570800  -116.484000
  C     49.203200  -35.371300  -117.511000
  H     48.333900  -35.823700  -114.298000
  C     46.782500  -35.714900  -116.609000
  H     46.468200  -36.696400  -116.117000
  H     46.542500  -35.826900  -117.652000
  C     45.894500  -34.646100  -115.967000
  H     45.947400  -34.622100  -114.909000
  H     44.860000  -34.786200  -116.173000
  C     46.374700  -33.206200  -116.295000
  H     47.415000  -33.000000  -115.919000
  H     45.823800  -32.467800  -115.718000
  H     46.446600  -32.953800  -117.335000
  H     48.112800  -35.299900  -122.419000
  H     50.807700  -35.578800  -114.251000

 Total Charge           Charge          ....    0
 Multiplicity           Mult            ....    1
 Number of Electrons    NEL             ....  134
 Basis Dimension        Dim             ....  322

ORBITAL ENERGIES
----------------

  NO   OCC          E(Eh)            E(eV)
   0   2.0000     -88.968275     -2420.9499
   1   2.0000     -88.963695     -2420.8252
   2   2.0000     -10.327952      -281.0379
   3   2.0000     -10.325395      -280.9683
   4   2.0000     -10.321328      -280.8576
   5   2.0000     -10.313181      -280.6359
   6   2.0000     -10.302030      -280.3325
   7   2.0000     -10.298339      -280.2321
   8   2.0000     -10.293376      -280.0970
   9   2.0000     -10.292334      -280.0686
  10   2.0000     -10.292129      -280.0631
  11   2.0000     -10.289840      -280.0008
  12   2.0000     -10.285157      -279.8734
  13   2.0000     -10.284595      -279.8581
  14   2.0000     -10.284404      -279.8529
  15   2.0000     -10.275544      -279.6118
  16   2.0000      -8.082479      -219.9354
  17   2.0000      -8.078763      -219.8343
  18   2.0000      -6.041045      -164.3852
  19   2.0000      -6.037235      -164.2815
  20   2.0000      -6.037025      -164.2758
  21   2.0000      -6.033244      -164.1729
  22   2.0000      -6.033068      -164.1681
  23   2.0000      -6.029695      -164.0763
  24   2.0000      -1.008967       -27.4554
  25   2.0000      -0.988624       -26.9018
  26   2.0000      -0.916639       -24.9430
  27   2.0000      -0.908588       -24.7239
  28   2.0000      -0.867766       -23.6131
  29   2.0000      -0.847149       -23.0521
  30   2.0000      -0.846413       -23.0321
  31   2.0000      -0.812587       -22.1116
  32   2.0000      -0.782103       -21.2821
  33   2.0000      -0.773334       -21.0435
  34   2.0000      -0.709963       -19.3191
  35   2.0000      -0.702640       -19.1198
  36   2.0000      -0.694825       -18.9072
  37   2.0000      -0.655509       -17.8373
  38   2.0000      -0.645797       -17.5730
  39   2.0000      -0.611091       -16.6286
  40   2.0000      -0.594161       -16.1679
  41   2.0000      -0.580480       -15.7957
  42   2.0000      -0.550922       -14.9913
  43   2.0000      -0.548489       -14.9252
  44   2.0000      -0.542939       -14.7741
  45   2.0000      -0.538330       -14.6487
  46   2.0000      -0.519639       -14.1401
  47   2.0000      -0.512257       -13.9392
  48   2.0000      -0.502538       -13.6748
  49   2.0000      -0.495735       -13.4896
  50   2.0000      -0.490097       -13.3362
  51   2.0000      -0.476794       -12.9742
  52   2.0000      -0.468571       -12.7505
  53   2.0000      -0.463052       -12.6003
  54   2.0000      -0.458652       -12.4806
  55   2.0000      -0.447879       -12.1874
  56   2.0000      -0.442975       -12.0540
  57   2.0000      -0.434769       -11.8307
  58   2.0000      -0.433453       -11.7949
  59   2.0000      -0.424837       -11.5604
  60   2.0000      -0.418999       -11.4015
  61   2.0000      -0.414614       -11.2822
  62   2.0000      -0.411367       -11.1939
  63   2.0000      -0.336152        -9.1472
  64   2.0000      -0.329079        -8.9547
  65   2.0000      -0.322754        -8.7826
  66   2.0000      -0.313875        -8.5410
  67   0.0000       0.041263         1.1228
  68   0.0000       0.053056         1.4437
  69   0.0000       0.112898         3.0721
  70   0.0000       0.121349         3.3021
  71   0.0000       0.130006         3.5377

MULLIKEN ATOMIC CHARGES
-----------------------
   0 S :    0.116239
   1 C :   -0.138969
   2 C :   -0.109123
   3 C :    0.079808
   4 C :   -0.199033
   5 H :   -0.029284
   6 C :    0.077414
   7 H :    0.036498
   8 H :   -0.002638
   9 C :   -0.060172
  10 H :    0.045749
  11 H :    0.042477
  12 C :   -0.109682
  13 H :    0.056605
  14 H :    0.037434
  15 H :    0.056711
  16 S :    0.115183
  17 C :   -0.088619
  18 C :   -0.051477
  19 C :   -0.021582
  20 C :   -0.166654
  21 H :    0.016441
  22 C :    0.071248
  23 H :    0.041291
  24 H :    0.027700
  25 C :   -0.032744
  26 H :    0.014165
  27 H :    0.030059
  28 C :   -0.078408
  29 H :    0.036272
  30 H :    0.027065
  31 H :    0.026792
  32 H :    0.063896
  33 H :    0.069340
Sum of atomic charges:    0.0000000

LOEWDIN ATOMIC CHARGES
----------------------
   0 S :    0.413868
   1 C :   -0.202401
   2 C :   -0.074465
   3 C :   -0.052650
   4 C :   -0.196691
   5 H :    0.017035
   6 C :   -0.030154
   7 H :    0.031625
   8 H :    0.021599
   9 C :   -0.042426
  10 H :    0.030592
  11 H :    0.028773
  12 C :   -0.078996
  13 H :    0.024644
  14 H :    0.029994
  15 H :    0.038937
  16 S :    0.408720
  17 C :   -0.194632
  18 C :   -0.076035
  19 C :   -0.050694
  20 C :   -0.204834
  21 H :    0.029257
  22 C :   -0.030838
  23 H :    0.041605
  24 H :    0.028017
  25 C :   -0.033550
  26 H :    0.019239
  27 H :    0.024422
  28 C :   -0.070960
  29 H :    0.031591
  30 H :    0.024365
  31 H :    0.013919
  32 H :    0.039834
  33 H :    0.041291

  Mayer bond orders larger than 0.100000
B(  0-S ,  1-C ) :   1.1497 B(  0-S ,  4-C ) :   1.1534 B(  1-C ,  2-C ) :   1.6184
B(  1-C , 32-H ) :   0.9591 B(  2-C ,  3-C ) :   1.2313 B(  2-C ,  6-C ) :   0.9934
B(  3-C ,  4-C ) :   1.5996 B(  3-C ,  5-H ) :   1.0051 B(  4-C , 20-C ) :   1.0030
B(  6-C ,  7-H ) :   0.9401 B(  6-C ,  8-H ) :   0.9424 B(  6-C ,  9-C ) :   1.0556
B(  9-C , 10-H ) :   0.9588 B(  9-C , 11-H ) :   0.9574 B(  9-C , 12-C ) :   1.0535
B( 12-C , 13-H ) :   0.9722 B( 12-C , 14-H ) :   0.9751 B( 12-C , 15-H ) :   0.9735
B( 16-S , 17-C ) :   1.1692 B( 16-S , 20-C ) :   1.1400 B( 17-C , 18-C ) :   1.5851
B( 17-C , 20-C ) :   0.1013 B( 17-C , 33-H ) :   0.9624 B( 18-C , 19-C ) :   1.2703
B( 18-C , 21-H ) :   0.9903 B( 19-C , 20-C ) :   1.5724 B( 19-C , 22-C ) :   1.0420
B( 22-C , 23-H ) :   0.9395 B( 22-C , 24-H ) :   0.9318 B( 22-C , 25-C ) :   1.0716
B( 25-C , 26-H ) :   0.9515 B( 25-C , 27-H ) :   0.9572 B( 25-C , 28-C ) :   1.0769
B( 28-C , 29-H ) :   0.9663 B( 28-C , 30-H ) :   0.9711 B( 28-C , 31-H ) :   0.9745

Dispersion correction           -0.016580637
FINAL SINGLE POINT ENERGY     -1339.871042260310

DIPOLE MOMENT
-------------
                                X             Y             Z
Electronic contribution:     24.08777     -14.42894       1.35342
Nuclear contribution   :    -24.57870      14.85491      -1.16109
                        -----------------------------------------
Total Dipole Moment    :     -0.49092       0.42597       0.19233
                        -----------------------------------------
Magnitude (a.u.)       :      0.67782
Magnitude (Debye)      :      1.72289

Rotational constants in cm-1:     0.020426     0.009670     0.007593
Rotational constants in MHz :   612.359616   289.898203   227.619103

                             ****ORCA TERMINATED NORMALLY****
TOTAL RUN TIME: 0 days 0 hours 0 minutes 23 seconds 476 msec
