                         Program Version 4.2.1 -  RELEASE  -
|  1> ! wB97X-D3 SP def2-SVP
|  2> %pal
|  3> nprocs 24
|  4> end
|  5>
|  6> * xyz 0 1
|  7> S 	 28.2183 	 -5.51498 	 -120.147
|  8> C 	 26.4612 	 -5.79038 	 -120.425
|  9> C 	 26.0695 	 -6.83064 	 -119.596
| 10> C 	 27.133 	 -7.30599 	 -118.765
| 11> C 	 28.3188 	 -6.61864 	 -118.828
| 12> H 	 27.1413 	 -8.18742 	 -118.139
| 13> C 	 24.8067 	 -7.59419 	 -119.683
| 14> H 	 24.0074 	 -6.93906 	 -120.086
| 15> H 	 24.4442 	 -7.88712 	 -118.709
| 16> C 	 24.7429 	 -8.80554 	 -120.546
| 17> H 	 25.6659 	 -9.43946 	 -120.515
| 18> H 	 24.0133 	 -9.43541 	 -120.11
| 19> C 	 24.4733 	 -8.44809 	 -122.004
| 20> H 	 24.6894 	 -9.27787 	 -122.607
| 21> H 	 23.4116 	 -8.18883 	 -122.249
| 22> H 	 25.043 	 -7.61952 	 -122.343
| 23> S 	 30.8408 	 -7.63824 	 -119.111
| 24> C 	 31.901 	 -7.95472 	 -117.684
| 25> C 	 31.2765 	 -7.48761 	 -116.552
| 26> C 	 29.932 	 -6.99951 	 -116.759
| 27> C 	 29.5722 	 -6.95335 	 -118.131
| 28> H 	 31.6743 	 -7.71455 	 -115.584
| 29> C 	 29.0975 	 -6.69424 	 -115.581
| 30> H 	 29.2842 	 -7.5197 	 -114.938
| 31> H 	 28.0483 	 -6.69694 	 -115.939
| 32> C 	 29.1549 	 -5.24097 	 -114.949
| 33> H 	 28.8895 	 -4.61167 	 -115.754
| 34> H 	 30.1792 	 -5.05577 	 -114.604
| 35> C 	 28.1474 	 -5.04578 	 -113.762
| 36> H 	 28.2504 	 -3.99884 	 -113.521
| 37> H 	 28.5236 	 -5.51843 	 -112.786
| 38> H 	 27.1358 	 -5.31752 	 -114.019
| 39> H 	 25.6796 	 -5.32606 	 -121.02
| 40> H 	 32.8651 	 -8.51762 	 -117.716
| 41> *
| 42>
| 43>                          ****END OF INPUT****

CARTESIAN COORDINATES (ANGSTROEM)
---------------------------------
  S     28.218300   -5.514980  -120.147000
  C     26.461200   -5.790380  -120.425000
  C     26.069500   -6.830640  -119.596000
  C     27.133000   -7.305990  -118.765000
  C     28.318800   -6.618640  -118.828000
  H     27.141300   -8.187420  -118.139000
  C     24.806700   -7.594190  -119.683000
  H     24.007400   -6.939060  -120.086000
  H     24.444200   -7.887120  -118.709000
  C     24.742900   -8.805540  -120.546000
  H     25.665900   -9.439460  -120.515000
  H     24.013300   -9.435410  -120.110000
  C     24.473300   -8.448090  -122.004000
  H     24.689400   -9.277870  -122.607000
  H     23.411600   -8.188830  -122.249000
  H     25.043000   -7.619520  -122.343000
  S     30.840800   -7.638240  -119.111000
  C     31.901000   -7.954720  -117.684000
  C     31.276500   -7.487610  -116.552000
  C     29.932000   -6.999510  -116.759000
  C     29.572200   -6.953350  -118.131000
  H     31.674300   -7.714550  -115.584000
  C     29.097500   -6.694240  -115.581000
  H     29.284200   -7.519700  -114.938000
  H     28.048300   -6.696940  -115.939000
  C     29.154900   -5.240970  -114.949000
  H     28.889500   -4.611670  -115.754000
  H     30.179200   -5.055770  -114.604000
  C     28.147400   -5.045780  -113.762000
  H     28.250400   -3.998840  -113.521000
  H     28.523600   -5.518430  -112.786000
  H     27.135800   -5.317520  -114.019000
  H     25.679600   -5.326060  -121.020000
  H     32.865100   -8.517620  -117.716000

 Total Charge           Charge          ....    0
 Multiplicity           Mult            ....    1
 Number of Electrons    NEL             ....  134
 Basis Dimension        Dim             ....  322

ORBITAL ENERGIES
----------------

  NO   OCC          E(Eh)            E(eV)
   0   2.0000     -88.967789     -2420.9366
   1   2.0000     -88.965356     -2420.8704
   2   2.0000     -10.332921      -281.1731
   3   2.0000     -10.330341      -281.1029
   4   2.0000     -10.326796      -281.0064
   5   2.0000     -10.320314      -280.8300
   6   2.0000     -10.306773      -280.4616
   7   2.0000     -10.299600      -280.2664
   8   2.0000     -10.295135      -280.1449
   9   2.0000     -10.290250      -280.0119
  10   2.0000     -10.289043      -279.9791
  11   2.0000     -10.286548      -279.9112
  12   2.0000     -10.285982      -279.8958
  13   2.0000     -10.284067      -279.8437
  14   2.0000     -10.282570      -279.8030
  15   2.0000     -10.270659      -279.4788
  16   2.0000      -8.081897      -219.9196
  17   2.0000      -8.079400      -219.8517
  18   2.0000      -6.040638      -164.3741
  19   2.0000      -6.038074      -164.3043
  20   2.0000      -6.036380      -164.2583
  21   2.0000      -6.033888      -164.1905
  22   2.0000      -6.032504      -164.1528
  23   2.0000      -6.030124      -164.0880
  24   2.0000      -1.005503       -27.3611
  25   2.0000      -0.981176       -26.6992
  26   2.0000      -0.922248       -25.0956
  27   2.0000      -0.902890       -24.5689
  28   2.0000      -0.871117       -23.7043
  29   2.0000      -0.847314       -23.0566
  30   2.0000      -0.844456       -22.9788
  31   2.0000      -0.816685       -22.2231
  32   2.0000      -0.786005       -21.3883
  33   2.0000      -0.769208       -20.9312
  34   2.0000      -0.711239       -19.3538
  35   2.0000      -0.701341       -19.0844
  36   2.0000      -0.693005       -18.8576
  37   2.0000      -0.662801       -18.0357
  38   2.0000      -0.640565       -17.4307
  39   2.0000      -0.617623       -16.8064
  40   2.0000      -0.591670       -16.1002
  41   2.0000      -0.576220       -15.6797
  42   2.0000      -0.566769       -15.4226
  43   2.0000      -0.559730       -15.2310
  44   2.0000      -0.531119       -14.4525
  45   2.0000      -0.522570       -14.2199
  46   2.0000      -0.518544       -14.1103
  47   2.0000      -0.517086       -14.0706
  48   2.0000      -0.507181       -13.8011
  49   2.0000      -0.499585       -13.5944
  50   2.0000      -0.490948       -13.3594
  51   2.0000      -0.480689       -13.0802
  52   2.0000      -0.469647       -12.7797
  53   2.0000      -0.465701       -12.6724
  54   2.0000      -0.459324       -12.4988
  55   2.0000      -0.448042       -12.1918
  56   2.0000      -0.443161       -12.0590
  57   2.0000      -0.433039       -11.7836
  58   2.0000      -0.429140       -11.6775
  59   2.0000      -0.422962       -11.5094
  60   2.0000      -0.419015       -11.4020
  61   2.0000      -0.416849       -11.3430
  62   2.0000      -0.412533       -11.2256
  63   2.0000      -0.345957        -9.4140
  64   2.0000      -0.328322        -8.9341
  65   2.0000      -0.324645        -8.8340
  66   2.0000      -0.298275        -8.1165
  67   0.0000       0.034503         0.9389
  68   0.0000       0.056984         1.5506
  69   0.0000       0.109912         2.9909
  70   0.0000       0.115436         3.1412
  71   0.0000       0.126133         3.4322

MULLIKEN ATOMIC CHARGES
-----------------------
   0 S :    0.107432
   1 C :   -0.102167
   2 C :   -0.081789
   3 C :    0.036103
   4 C :   -0.158437
   5 H :    0.011784
   6 C :    0.048651
   7 H :    0.014164
   8 H :    0.015506
   9 C :   -0.041535
  10 H :    0.030223
  11 H :    0.017216
  12 C :   -0.035070
  13 H :    0.019368
  14 H :    0.028630
  15 H :    0.022635
  16 S :    0.096123
  17 C :   -0.118871
  18 C :   -0.007537
  19 C :   -0.052381
  20 C :   -0.145714
  21 H :    0.016096
  22 C :    0.047049
  23 H :    0.023546
  24 H :    0.016529
  25 C :   -0.058378
  26 H :    0.031369
  27 H :    0.028498
  28 C :   -0.052758
  29 H :    0.033075
  30 H :    0.039224
  31 H :    0.041563
  32 H :    0.048897
  33 H :    0.080957
Sum of atomic charges:    0.0000000

LOEWDIN ATOMIC CHARGES
----------------------
   0 S :    0.403684
   1 C :   -0.190791
   2 C :   -0.064358
   3 C :   -0.063907
   4 C :   -0.207433
   5 H :    0.030004
   6 C :   -0.037945
   7 H :    0.032981
   8 H :    0.028300
   9 C :   -0.037103
  10 H :    0.029716
  11 H :    0.021522
  12 C :   -0.061766
  13 H :    0.019853
  14 H :    0.028211
  15 H :    0.019698
  16 S :    0.389923
  17 C :   -0.174346
  18 C :   -0.070097
  19 C :   -0.053849
  20 C :   -0.204684
  21 H :    0.029010
  22 C :   -0.040467
  23 H :    0.026130
  24 H :    0.033360
  25 C :   -0.025187
  26 H :    0.022152
  27 H :    0.021727
  28 C :   -0.067642
  29 H :    0.027052
  30 H :    0.034089
  31 H :    0.022869
  32 H :    0.036591
  33 H :    0.042702

  Mayer bond orders larger than 0.100000
B(  0-S ,  1-C ) :   1.1218 B(  0-S ,  4-C ) :   1.1488 B(  1-C ,  2-C ) :   1.6118
B(  1-C , 32-H ) :   0.9624 B(  2-C ,  3-C ) :   1.2302 B(  2-C ,  6-C ) :   1.0555
B(  3-C ,  4-C ) :   1.5842 B(  3-C ,  5-H ) :   0.9939 B(  4-C , 20-C ) :   1.0072
B(  6-C ,  7-H ) :   0.9332 B(  6-C ,  8-H ) :   0.9348 B(  6-C ,  9-C ) :   1.0721
B(  9-C , 10-H ) :   0.9552 B(  9-C , 11-H ) :   0.9510 B(  9-C , 12-C ) :   1.0800
B( 12-C , 13-H ) :   0.9725 B( 12-C , 14-H ) :   0.9712 B( 12-C , 15-H ) :   0.9760
B( 16-S , 17-C ) :   1.1412 B( 16-S , 20-C ) :   1.1477 B( 17-C , 18-C ) :   1.6161
B( 17-C , 33-H ) :   0.9624 B( 18-C , 19-C ) :   1.2401 B( 18-C , 21-H ) :   0.9855
B( 19-C , 20-C ) :   1.5836 B( 19-C , 22-C ) :   1.0617 B( 22-C , 23-H ) :   0.9336
B( 22-C , 24-H ) :   0.9287 B( 22-C , 25-C ) :   1.0540 B( 25-C , 26-H ) :   0.9568
B( 25-C , 27-H ) :   0.9590 B( 25-C , 28-C ) :   1.0819 B( 28-C , 29-H ) :   0.9742
B( 28-C , 30-H ) :   0.9751 B( 28-C , 31-H ) :   0.9752

Dispersion correction           -0.013842432
FINAL SINGLE POINT ENERGY     -1339.861795435377

DIPOLE MOMENT
-------------
                                X             Y             Z
Electronic contribution:     18.67140       2.72336     -10.58935
Nuclear contribution   :    -19.04602      -3.12451      11.06058
                        -----------------------------------------
Total Dipole Moment    :     -0.37463      -0.40115       0.47123
                        -----------------------------------------
Magnitude (a.u.)       :      0.72342
Magnitude (Debye)      :      1.83877

Rotational constants in cm-1:     0.018864     0.007933     0.006621
Rotational constants in MHz :   565.532024   237.839709   198.488819

                             ****ORCA TERMINATED NORMALLY****
TOTAL RUN TIME: 0 days 0 hours 0 minutes 21 seconds 211 msec
