                         Program Version 4.2.1 -  RELEASE  -
|  1> ! wB97X-D3 SP def2-SVP
|  2> %pal
|  3> nprocs 24
|  4> end
|  5>
|  6> * xyz 0 1
|  7> S 	 -42.9889 	 -47.2084 	 -76.5626
|  8> C 	 -41.8544 	 -47.1806 	 -77.8559
|  9> C 	 -42.1912 	 -48.0931 	 -78.8653
| 10> C 	 -43.2993 	 -48.8679 	 -78.4917
| 11> C 	 -43.8741 	 -48.5641 	 -77.2597
| 12> H 	 -43.5835 	 -49.7296 	 -79.0202
| 13> C 	 -41.3576 	 -48.448 	 -80.0488
| 14> H 	 -41.3766 	 -47.6968 	 -80.8674
| 15> H 	 -41.7829 	 -49.3651 	 -80.3807
| 16> C 	 -39.8609 	 -48.6554 	 -79.7692
| 17> H 	 -39.3974 	 -47.7462 	 -79.3409
| 18> H 	 -39.811 	 -49.3955 	 -78.9339
| 19> C 	 -39.0183 	 -49.1055 	 -80.9201
| 20> H 	 -38.9058 	 -48.395 	 -81.6996
| 21> H 	 -38.0018 	 -49.3938 	 -80.534
| 22> H 	 -39.5449 	 -49.8579 	 -81.4919
| 23> S 	 -46.1971 	 -47.8419 	 -75.9146
| 24> C 	 -47.3928 	 -49.0245 	 -75.4278
| 25> C 	 -46.9164 	 -50.2638 	 -75.8206
| 26> C 	 -45.632 	 -50.3365 	 -76.4589
| 27> C 	 -45.0615 	 -49.0597 	 -76.5844
| 28> H 	 -47.5053 	 -51.1555 	 -75.5996
| 29> C 	 -44.9825 	 -51.6165 	 -76.9344
| 30> H 	 -45.2695 	 -52.351 	 -76.1168
| 31> H 	 -43.8957 	 -51.5601 	 -76.8098
| 32> C 	 -45.4133 	 -52.1449 	 -78.3599
| 33> H 	 -44.5667 	 -52.7653 	 -78.7396
| 34> H 	 -45.6442 	 -51.2745 	 -78.9372
| 35> C 	 -46.7729 	 -52.9082 	 -78.1956
| 36> H 	 -46.9199 	 -53.7196 	 -77.48
| 37> H 	 -47.2513 	 -53.2606 	 -79.0753
| 38> H 	 -47.5002 	 -52.2439 	 -77.8355
| 39> H 	 -41.0349 	 -46.4827 	 -77.9203
| 40> H 	 -48.3175 	 -48.9051 	 -74.8722
| 41> *
| 42>
| 43>                          ****END OF INPUT****

CARTESIAN COORDINATES (ANGSTROEM)
---------------------------------
  S    -42.988900  -47.208400  -76.562600
  C    -41.854400  -47.180600  -77.855900
  C    -42.191200  -48.093100  -78.865300
  C    -43.299300  -48.867900  -78.491700
  C    -43.874100  -48.564100  -77.259700
  H    -43.583500  -49.729600  -79.020200
  C    -41.357600  -48.448000  -80.048800
  H    -41.376600  -47.696800  -80.867400
  H    -41.782900  -49.365100  -80.380700
  C    -39.860900  -48.655400  -79.769200
  H    -39.397400  -47.746200  -79.340900
  H    -39.811000  -49.395500  -78.933900
  C    -39.018300  -49.105500  -80.920100
  H    -38.905800  -48.395000  -81.699600
  H    -38.001800  -49.393800  -80.534000
  H    -39.544900  -49.857900  -81.491900
  S    -46.197100  -47.841900  -75.914600
  C    -47.392800  -49.024500  -75.427800
  C    -46.916400  -50.263800  -75.820600
  C    -45.632000  -50.336500  -76.458900
  C    -45.061500  -49.059700  -76.584400
  H    -47.505300  -51.155500  -75.599600
  C    -44.982500  -51.616500  -76.934400
  H    -45.269500  -52.351000  -76.116800
  H    -43.895700  -51.560100  -76.809800
  C    -45.413300  -52.144900  -78.359900
  H    -44.566700  -52.765300  -78.739600
  H    -45.644200  -51.274500  -78.937200
  C    -46.772900  -52.908200  -78.195600
  H    -46.919900  -53.719600  -77.480000
  H    -47.251300  -53.260600  -79.075300
  H    -47.500200  -52.243900  -77.835500
  H    -41.034900  -46.482700  -77.920300
  H    -48.317500  -48.905100  -74.872200

 Total Charge           Charge          ....    0
 Multiplicity           Mult            ....    1
 Number of Electrons    NEL             ....  134
 Basis Dimension        Dim             ....  322

ORBITAL ENERGIES
----------------

  NO   OCC          E(Eh)            E(eV)
   0   2.0000     -88.968642     -2420.9598
   1   2.0000     -88.965105     -2420.8636
   2   2.0000     -10.333487      -281.1885
   3   2.0000     -10.332797      -281.1697
   4   2.0000     -10.320563      -280.8368
   5   2.0000     -10.315241      -280.6920
   6   2.0000     -10.306258      -280.4475
   7   2.0000     -10.300623      -280.2942
   8   2.0000     -10.299103      -280.2528
   9   2.0000     -10.298625      -280.2398
  10   2.0000     -10.295250      -280.1480
  11   2.0000     -10.292475      -280.0725
  12   2.0000     -10.291699      -280.0514
  13   2.0000     -10.288558      -279.9659
  14   2.0000     -10.278065      -279.6804
  15   2.0000     -10.272717      -279.5348
  16   2.0000      -8.083500      -219.9632
  17   2.0000      -8.079021      -219.8413
  18   2.0000      -6.041879      -164.4079
  19   2.0000      -6.037758      -164.2957
  20   2.0000      -6.037722      -164.2948
  21   2.0000      -6.034627      -164.2106
  22   2.0000      -6.033497      -164.1798
  23   2.0000      -6.029732      -164.0774
  24   2.0000      -1.006483       -27.3878
  25   2.0000      -0.983060       -26.7504
  26   2.0000      -0.917445       -24.9650
  27   2.0000      -0.904605       -24.6156
  28   2.0000      -0.870672       -23.6922
  29   2.0000      -0.857771       -23.3411
  30   2.0000      -0.843503       -22.9529
  31   2.0000      -0.815481       -22.1904
  32   2.0000      -0.784628       -21.3508
  33   2.0000      -0.772984       -21.0340
  34   2.0000      -0.715090       -19.4586
  35   2.0000      -0.705655       -19.2018
  36   2.0000      -0.695497       -18.9254
  37   2.0000      -0.662736       -18.0340
  38   2.0000      -0.642706       -17.4889
  39   2.0000      -0.623465       -16.9653
  40   2.0000      -0.595519       -16.2049
  41   2.0000      -0.570808       -15.5325
  42   2.0000      -0.563703       -15.3392
  43   2.0000      -0.545410       -14.8414
  44   2.0000      -0.542309       -14.7570
  45   2.0000      -0.530722       -14.4417
  46   2.0000      -0.519930       -14.1480
  47   2.0000      -0.509037       -13.8516
  48   2.0000      -0.507141       -13.8000
  49   2.0000      -0.500194       -13.6110
  50   2.0000      -0.496432       -13.5086
  51   2.0000      -0.485248       -13.2043
  52   2.0000      -0.474888       -12.9224
  53   2.0000      -0.464222       -12.6321
  54   2.0000      -0.460854       -12.5405
  55   2.0000      -0.448929       -12.2160
  56   2.0000      -0.439107       -11.9487
  57   2.0000      -0.437069       -11.8932
  58   2.0000      -0.433702       -11.8016
  59   2.0000      -0.429632       -11.6909
  60   2.0000      -0.425622       -11.5818
  61   2.0000      -0.412871       -11.2348
  62   2.0000      -0.409717       -11.1490
  63   2.0000      -0.352635        -9.5957
  64   2.0000      -0.333792        -9.0830
  65   2.0000      -0.329064        -8.9543
  66   2.0000      -0.287212        -7.8154
  67   0.0000       0.021296         0.5795
  68   0.0000       0.068815         1.8725
  69   0.0000       0.112479         3.0607
  70   0.0000       0.124222         3.3803
  71   0.0000       0.129893         3.5346

MULLIKEN ATOMIC CHARGES
-----------------------
   0 S :    0.120239
   1 C :   -0.116354
   2 C :   -0.082838
   3 C :    0.047233
   4 C :   -0.162011
   5 H :   -0.014271
   6 C :    0.093874
   7 H :    0.037370
   8 H :    0.005103
   9 C :   -0.117981
  10 H :    0.026599
  11 H :    0.032444
  12 C :   -0.016216
  13 H :    0.014292
  14 H :    0.051367
  15 H :    0.015232
  16 S :    0.093221
  17 C :   -0.084416
  18 C :   -0.049262
  19 C :   -0.044404
  20 C :   -0.131568
  21 H :    0.017992
  22 C :    0.005150
  23 H :    0.034486
  24 H :    0.035127
  25 C :   -0.030821
  26 H :    0.051906
  27 H :    0.047490
  28 C :   -0.034810
  29 H :    0.021576
  30 H :    0.018308
  31 H :    0.004746
  32 H :    0.047331
  33 H :    0.063866
Sum of atomic charges:    0.0000000

LOEWDIN ATOMIC CHARGES
----------------------
   0 S :    0.426367
   1 C :   -0.197741
   2 C :   -0.066891
   3 C :   -0.055781
   4 C :   -0.192623
   5 H :    0.021895
   6 C :   -0.030408
   7 H :    0.034892
   8 H :    0.024194
   9 C :   -0.046579
  10 H :    0.021950
  11 H :    0.026519
  12 C :   -0.067579
  13 H :    0.019120
  14 H :    0.039177
  15 H :    0.023933
  16 S :    0.388154
  17 C :   -0.191886
  18 C :   -0.076704
  19 C :   -0.063766
  20 C :   -0.183256
  21 H :    0.027585
  22 C :   -0.039814
  23 H :    0.038374
  24 H :    0.031171
  25 C :   -0.027208
  26 H :    0.031960
  27 H :    0.026609
  28 C :   -0.072814
  29 H :    0.025587
  30 H :    0.020836
  31 H :    0.020563
  32 H :    0.025445
  33 H :    0.038719

  Mayer bond orders larger than 0.100000
B(  0-S ,  1-C ) :   1.1716 B(  0-S ,  4-C ) :   1.1632 B(  1-C ,  2-C ) :   1.5499
B(  1-C ,  4-C ) :   0.1099 B(  1-C , 32-H ) :   0.9707 B(  2-C ,  3-C ) :   1.3010
B(  2-C ,  6-C ) :   1.0309 B(  3-C ,  4-C ) :   1.5274 B(  3-C ,  5-H ) :   0.9955
B(  4-C , 20-C ) :   1.0571 B(  6-C ,  7-H ) :   0.9267 B(  6-C ,  8-H ) :   0.9394
B(  6-C ,  9-C ) :   1.0719 B(  9-C , 10-H ) :   0.9485 B(  9-C , 11-H ) :   0.9569
B(  9-C , 12-C ) :   1.0910 B( 12-C , 13-H ) :   0.9685 B( 12-C , 14-H ) :   0.9709
B( 12-C , 15-H ) :   0.9697 B( 16-S , 17-C ) :   1.1408 B( 16-S , 20-C ) :   1.1384
B( 17-C , 18-C ) :   1.6032 B( 17-C , 20-C ) :   0.1027 B( 17-C , 33-H ) :   0.9682
B( 18-C , 19-C ) :   1.2567 B( 18-C , 21-H ) :   0.9775 B( 19-C , 20-C ) :   1.5713
B( 19-C , 22-C ) :   1.0478 B( 22-C , 23-H ) :   0.9381 B( 22-C , 24-H ) :   0.9399
B( 22-C , 25-C ) :   1.0369 B( 25-C , 26-H ) :   0.9613 B( 25-C , 27-H ) :   0.9550
B( 25-C , 28-C ) :   1.0626 B( 28-C , 29-H ) :   0.9779 B( 28-C , 30-H ) :   0.9722
B( 28-C , 31-H ) :   0.9694

Dispersion correction           -0.014129474
FINAL SINGLE POINT ENERGY     -1339.876202953244

DIPOLE MOMENT
-------------
                                X             Y             Z
Electronic contribution:    -10.69338      19.54682      18.27257
Nuclear contribution   :     10.85051     -20.04585     -18.65038
                        -----------------------------------------
Total Dipole Moment    :      0.15713      -0.49903      -0.37781
                        -----------------------------------------
Magnitude (a.u.)       :      0.64534
Magnitude (Debye)      :      1.64032

Rotational constants in cm-1:     0.020244     0.008024     0.005997
Rotational constants in MHz :   606.902377   240.555501   179.777895

                             ****ORCA TERMINATED NORMALLY****
TOTAL RUN TIME: 0 days 0 hours 0 minutes 21 seconds 359 msec
