                         Program Version 4.2.1 -  RELEASE  -
|  1> ! wB97X-D3 SP def2-SVP
|  2> %pal
|  3> nprocs 24
|  4> end
|  5>
|  6> * xyz 0 1
|  7> S 	 -49.6176 	 3.12435 	 -23.3499
|  8> C 	 -48.6362 	 1.75923 	 -23.9412
|  9> C 	 -49.4604 	 0.74576 	 -24.4892
| 10> C 	 -50.8402 	 1.08297 	 -24.4065
| 11> C 	 -51.1234 	 2.26112 	 -23.7027
| 12> H 	 -51.7159 	 0.491409 	 -24.7581
| 13> C 	 -49.0209 	 -0.706244 	 -24.7315
| 14> H 	 -47.9277 	 -0.613061 	 -24.7474
| 15> H 	 -49.4238 	 -1.09057 	 -25.6693
| 16> C 	 -49.3517 	 -1.71452 	 -23.6184
| 17> H 	 -48.9705 	 -1.3428 	 -22.6712
| 18> H 	 -50.4383 	 -1.83692 	 -23.4928
| 19> C 	 -48.6591 	 -2.96282 	 -23.8546
| 20> H 	 -48.9621 	 -3.41043 	 -24.8693
| 21> H 	 -47.561 	 -2.82337 	 -23.987
| 22> H 	 -48.9343 	 -3.79489 	 -23.0894
| 23> S 	 -53.0619 	 4.31286 	 -23.7345
| 24> C 	 -54.4415 	 4.16232 	 -22.7141
| 25> C 	 -54.3668 	 2.96369 	 -22.0495
| 26> C 	 -53.311 	 2.12278 	 -22.3577
| 27> C 	 -52.3995 	 2.75791 	 -23.1902
| 28> H 	 -55.1465 	 2.75333 	 -21.2852
| 29> C 	 -53.2719 	 0.706831 	 -21.7766
| 30> H 	 -52.6839 	 0.097828 	 -22.4026
| 31> H 	 -54.239 	 0.194504 	 -21.9224
| 32> C 	 -52.7785 	 0.423408 	 -20.3048
| 33> H 	 -52.6448 	 -0.611474 	 -20.1061
| 34> H 	 -53.5561 	 0.652274 	 -19.6232
| 35> C 	 -51.5733 	 1.26281 	 -19.9047
| 36> H 	 -51.2227 	 0.94151 	 -18.8976
| 37> H 	 -51.7589 	 2.29862 	 -19.8951
| 38> H 	 -50.6853 	 1.1674 	 -20.5463
| 39> H 	 -47.6581 	 1.56243 	 -23.6425
| 40> H 	 -55.2709 	 4.88333 	 -22.6795
| 41> *
| 42>
| 43>                          ****END OF INPUT****

CARTESIAN COORDINATES (ANGSTROEM)
---------------------------------
  S    -49.617600    3.124350  -23.349900
  C    -48.636200    1.759230  -23.941200
  C    -49.460400    0.745760  -24.489200
  C    -50.840200    1.082970  -24.406500
  C    -51.123400    2.261120  -23.702700
  H    -51.715900    0.491409  -24.758100
  C    -49.020900   -0.706244  -24.731500
  H    -47.927700   -0.613061  -24.747400
  H    -49.423800   -1.090570  -25.669300
  C    -49.351700   -1.714520  -23.618400
  H    -48.970500   -1.342800  -22.671200
  H    -50.438300   -1.836920  -23.492800
  C    -48.659100   -2.962820  -23.854600
  H    -48.962100   -3.410430  -24.869300
  H    -47.561000   -2.823370  -23.987000
  H    -48.934300   -3.794890  -23.089400
  S    -53.061900    4.312860  -23.734500
  C    -54.441500    4.162320  -22.714100
  C    -54.366800    2.963690  -22.049500
  C    -53.311000    2.122780  -22.357700
  C    -52.399500    2.757910  -23.190200
  H    -55.146500    2.753330  -21.285200
  C    -53.271900    0.706831  -21.776600
  H    -52.683900    0.097828  -22.402600
  H    -54.239000    0.194504  -21.922400
  C    -52.778500    0.423408  -20.304800
  H    -52.644800   -0.611474  -20.106100
  H    -53.556100    0.652274  -19.623200
  C    -51.573300    1.262810  -19.904700
  H    -51.222700    0.941510  -18.897600
  H    -51.758900    2.298620  -19.895100
  H    -50.685300    1.167400  -20.546300
  H    -47.658100    1.562430  -23.642500
  H    -55.270900    4.883330  -22.679500

 Total Charge           Charge          ....    0
 Multiplicity           Mult            ....    1
 Number of Electrons    NEL             ....  134
 Basis Dimension        Dim             ....  322

ORBITAL ENERGIES
----------------

  NO   OCC          E(Eh)            E(eV)
   0   2.0000     -88.968263     -2420.9495
   1   2.0000     -88.967065     -2420.9169
   2   2.0000     -10.334586      -281.2184
   3   2.0000     -10.331549      -281.1358
   4   2.0000     -10.318051      -280.7684
   5   2.0000     -10.316921      -280.7377
   6   2.0000     -10.307640      -280.4851
   7   2.0000     -10.304765      -280.4069
   8   2.0000     -10.299951      -280.2759
   9   2.0000     -10.297631      -280.2128
  10   2.0000     -10.291905      -280.0570
  11   2.0000     -10.290292      -280.0131
  12   2.0000     -10.290251      -280.0120
  13   2.0000     -10.284929      -279.8672
  14   2.0000     -10.282488      -279.8007
  15   2.0000     -10.269175      -279.4385
  16   2.0000      -8.081951      -219.9211
  17   2.0000      -8.081921      -219.9202
  18   2.0000      -6.040518      -164.3709
  19   2.0000      -6.040367      -164.3667
  20   2.0000      -6.036536      -164.2625
  21   2.0000      -6.036279      -164.2555
  22   2.0000      -6.032868      -164.1627
  23   2.0000      -6.032756      -164.1596
  24   2.0000      -1.007030       -27.4027
  25   2.0000      -0.981876       -26.7182
  26   2.0000      -0.920535       -25.0490
  27   2.0000      -0.904090       -24.6015
  28   2.0000      -0.870541       -23.6886
  29   2.0000      -0.852987       -23.2110
  30   2.0000      -0.846160       -23.0252
  31   2.0000      -0.811173       -22.0731
  32   2.0000      -0.785154       -21.3651
  33   2.0000      -0.769347       -20.9350
  34   2.0000      -0.710713       -19.3395
  35   2.0000      -0.700038       -19.0490
  36   2.0000      -0.694259       -18.8917
  37   2.0000      -0.655572       -17.8390
  38   2.0000      -0.643868       -17.5205
  39   2.0000      -0.617338       -16.7986
  40   2.0000      -0.598782       -16.2937
  41   2.0000      -0.577586       -15.7169
  42   2.0000      -0.563173       -15.3247
  43   2.0000      -0.547644       -14.9022
  44   2.0000      -0.542049       -14.7499
  45   2.0000      -0.527218       -14.3463
  46   2.0000      -0.515738       -14.0340
  47   2.0000      -0.509518       -13.8647
  48   2.0000      -0.503508       -13.7011
  49   2.0000      -0.498786       -13.5727
  50   2.0000      -0.496927       -13.5221
  51   2.0000      -0.477067       -12.9817
  52   2.0000      -0.472542       -12.8585
  53   2.0000      -0.461850       -12.5676
  54   2.0000      -0.455435       -12.3930
  55   2.0000      -0.450637       -12.2624
  56   2.0000      -0.442688       -12.0461
  57   2.0000      -0.433286       -11.7903
  58   2.0000      -0.428570       -11.6620
  59   2.0000      -0.425969       -11.5912
  60   2.0000      -0.423114       -11.5135
  61   2.0000      -0.415431       -11.3045
  62   2.0000      -0.411264       -11.1911
  63   2.0000      -0.340617        -9.2687
  64   2.0000      -0.335998        -9.1430
  65   2.0000      -0.330886        -9.0039
  66   2.0000      -0.294428        -8.0118
  67   0.0000       0.028875         0.7857
  68   0.0000       0.053773         1.4632
  69   0.0000       0.115352         3.1389
  70   0.0000       0.118435         3.2228
  71   0.0000       0.124566         3.3896

MULLIKEN ATOMIC CHARGES
-----------------------
   0 S :    0.106794
   1 C :   -0.091545
   2 C :   -0.089514
   3 C :    0.039688
   4 C :   -0.183104
   5 H :    0.031854
   6 C :    0.029742
   7 H :    0.019139
   8 H :    0.033027
   9 C :   -0.028012
  10 H :    0.022051
  11 H :    0.032660
  12 C :   -0.094789
  13 H :    0.023603
  14 H :    0.037446
  15 H :    0.055192
  16 S :    0.114696
  17 C :   -0.103468
  18 C :   -0.052838
  19 C :   -0.006262
  20 C :   -0.179318
  21 H :    0.028232
  22 C :    0.091109
  23 H :   -0.009239
  24 H :    0.026467
  25 C :   -0.025375
  26 H :    0.018133
  27 H :    0.011157
  28 C :   -0.053865
  29 H :    0.027840
  30 H :    0.033478
  31 H :    0.030135
  32 H :    0.035665
  33 H :    0.069222
Sum of atomic charges:   -0.0000000

LOEWDIN ATOMIC CHARGES
----------------------
   0 S :    0.391128
   1 C :   -0.185666
   2 C :   -0.059670
   3 C :   -0.065740
   4 C :   -0.184372
   5 H :    0.038396
   6 C :   -0.025212
   7 H :    0.029999
   8 H :    0.030261
   9 C :   -0.048605
  10 H :    0.025372
  11 H :    0.025283
  12 C :   -0.078927
  13 H :    0.025793
  14 H :    0.028149
  15 H :    0.038328
  16 S :    0.412162
  17 C :   -0.196771
  18 C :   -0.078771
  19 C :   -0.055410
  20 C :   -0.198598
  21 H :    0.036536
  22 C :   -0.029306
  23 H :    0.019304
  24 H :    0.036460
  25 C :   -0.031768
  26 H :    0.022289
  27 H :    0.017336
  28 C :   -0.065415
  29 H :    0.028681
  30 H :    0.020393
  31 H :    0.025349
  32 H :    0.015557
  33 H :    0.037453

  Mayer bond orders larger than 0.100000
B(  0-S ,  1-C ) :   1.1355 B(  0-S ,  4-C ) :   1.1499 B(  1-C ,  2-C ) :   1.6103
B(  1-C ,  4-C ) :   0.1075 B(  1-C , 32-H ) :   0.9690 B(  2-C ,  3-C ) :   1.2259
B(  2-C ,  6-C ) :   1.0349 B(  3-C ,  4-C ) :   1.5891 B(  3-C ,  5-H ) :   0.9845
B(  4-C , 20-C ) :   1.0298 B(  6-C ,  7-H ) :   0.9441 B(  6-C ,  8-H ) :   0.9389
B(  6-C ,  9-C ) :   1.0631 B(  9-C , 10-H ) :   0.9475 B(  9-C , 11-H ) :   0.9463
B(  9-C , 12-C ) :   1.0957 B( 12-C , 13-H ) :   0.9674 B( 12-C , 14-H ) :   0.9697
B( 12-C , 15-H ) :   0.9680 B( 16-S , 17-C ) :   1.1603 B( 16-S , 20-C ) :   1.1599
B( 17-C , 18-C ) :   1.5821 B( 17-C , 20-C ) :   0.1072 B( 17-C , 33-H ) :   0.9674
B( 18-C , 19-C ) :   1.2690 B( 18-C , 21-H ) :   0.9868 B( 19-C , 20-C ) :   1.5589
B( 19-C , 22-C ) :   1.0405 B( 22-C , 23-H ) :   0.9248 B( 22-C , 24-H ) :   0.9362
B( 22-C , 25-C ) :   1.0649 B( 25-C , 26-H ) :   0.9555 B( 25-C , 27-H ) :   0.9526
B( 25-C , 28-C ) :   1.0836 B( 28-C , 29-H ) :   0.9725 B( 28-C , 30-H ) :   0.9708
B( 28-C , 31-H ) :   0.9768

Dispersion correction           -0.015519740
FINAL SINGLE POINT ENERGY     -1339.870934450126

DIPOLE MOMENT
-------------
                                X             Y             Z
Electronic contribution:     -5.25162      27.92996      -9.72157
Nuclear contribution   :      5.01273     -28.65714      10.05055
                        -----------------------------------------
Total Dipole Moment    :     -0.23889      -0.72718       0.32898
                        -----------------------------------------
Magnitude (a.u.)       :      0.83312
Magnitude (Debye)      :      2.11762

Rotational constants in cm-1:     0.020017     0.009069     0.007390
Rotational constants in MHz :   600.093380   271.886352   221.539437

                             ****ORCA TERMINATED NORMALLY****
TOTAL RUN TIME: 0 days 0 hours 0 minutes 22 seconds 518 msec
