                         Program Version 4.2.1 -  RELEASE  -
|  1> ! wB97X-D3 SP def2-SVP
|  2> %pal
|  3> nprocs 24
|  4> end
|  5>
|  6> * xyz 0 1
|  7> S 	 -99.2235 	 -27.6852 	 -64.0298
|  8> C 	 -98.9129 	 -26.4233 	 -65.2274
|  9> C 	 -98.8856 	 -25.1446 	 -64.653
| 10> C 	 -98.8063 	 -25.2064 	 -63.2423
| 11> C 	 -98.9299 	 -26.5017 	 -62.7225
| 12> H 	 -98.713 	 -24.3654 	 -62.5088
| 13> C 	 -98.7769 	 -23.8434 	 -65.4074
| 14> H 	 -98.8833 	 -24.1429 	 -66.4062
| 15> H 	 -97.7929 	 -23.5287 	 -65.2328
| 16> C 	 -99.7904 	 -22.7873 	 -65.1785
| 17> H 	 -100.756 	 -23.2459 	 -65.4449
| 18> H 	 -99.6326 	 -22.4233 	 -64.115
| 19> C 	 -99.6169 	 -21.5137 	 -66.0917
| 20> H 	 -100.183 	 -21.7292 	 -67.0276
| 21> H 	 -100.16 	 -20.6791 	 -65.5832
| 22> H 	 -98.5632 	 -21.2344 	 -66.296
| 23> S 	 -98.368 	 -28.6943 	 -61.0859
| 24> C 	 -98.8141 	 -28.5794 	 -59.3639
| 25> C 	 -99.2878 	 -27.3385 	 -58.9894
| 26> C 	 -99.403 	 -26.4866 	 -60.1617
| 27> C 	 -98.8757 	 -27.0435 	 -61.3477
| 28> H 	 -99.5546 	 -27.0136 	 -57.9676
| 29> C 	 -100.175 	 -25.1423 	 -60.0555
| 30> H 	 -101.048 	 -25.3774 	 -59.5258
| 31> H 	 -100.503 	 -25.0484 	 -61.0539
| 32> C 	 -99.4808 	 -23.8555 	 -59.5156
| 33> H 	 -98.6159 	 -23.6201 	 -60.096
| 34> H 	 -99.1422 	 -23.9793 	 -58.5408
| 35> C 	 -100.379 	 -22.5689 	 -59.4791
| 36> H 	 -101.303 	 -22.8326 	 -58.9431
| 37> H 	 -100.712 	 -22.2069 	 -60.4756
| 38> H 	 -99.9373 	 -21.7179 	 -59.0483
| 39> H 	 -98.8136 	 -26.6538 	 -66.2497
| 40> H 	 -98.7726 	 -29.4723 	 -58.7377
| 41> *
| 42>
| 43>                          ****END OF INPUT****

CARTESIAN COORDINATES (ANGSTROEM)
---------------------------------
  S    -99.223500  -27.685200  -64.029800
  C    -98.912900  -26.423300  -65.227400
  C    -98.885600  -25.144600  -64.653000
  C    -98.806300  -25.206400  -63.242300
  C    -98.929900  -26.501700  -62.722500
  H    -98.713000  -24.365400  -62.508800
  C    -98.776900  -23.843400  -65.407400
  H    -98.883300  -24.142900  -66.406200
  H    -97.792900  -23.528700  -65.232800
  C    -99.790400  -22.787300  -65.178500
  H    -100.756000  -23.245900  -65.444900
  H    -99.632600  -22.423300  -64.115000
  C    -99.616900  -21.513700  -66.091700
  H    -100.183000  -21.729200  -67.027600
  H    -100.160000  -20.679100  -65.583200
  H    -98.563200  -21.234400  -66.296000
  S    -98.368000  -28.694300  -61.085900
  C    -98.814100  -28.579400  -59.363900
  C    -99.287800  -27.338500  -58.989400
  C    -99.403000  -26.486600  -60.161700
  C    -98.875700  -27.043500  -61.347700
  H    -99.554600  -27.013600  -57.967600
  C    -100.175000  -25.142300  -60.055500
  H    -101.048000  -25.377400  -59.525800
  H    -100.503000  -25.048400  -61.053900
  C    -99.480800  -23.855500  -59.515600
  H    -98.615900  -23.620100  -60.096000
  H    -99.142200  -23.979300  -58.540800
  C    -100.379000  -22.568900  -59.479100
  H    -101.303000  -22.832600  -58.943100
  H    -100.712000  -22.206900  -60.475600
  H    -99.937300  -21.717900  -59.048300
  H    -98.813600  -26.653800  -66.249700
  H    -98.772600  -29.472300  -58.737700

 Total Charge           Charge          ....    0
 Multiplicity           Mult            ....    1
 Number of Electrons    NEL             ....  134
 Basis Dimension        Dim             ....  322

ORBITAL ENERGIES
----------------

  NO   OCC          E(Eh)            E(eV)
   0   2.0000     -88.968398     -2420.9532
   1   2.0000     -88.965029     -2420.8615
   2   2.0000     -10.335405      -281.2407
   3   2.0000     -10.330625      -281.1106
   4   2.0000     -10.323871      -280.9268
   5   2.0000     -10.313664      -280.6491
   6   2.0000     -10.308598      -280.5112
   7   2.0000     -10.302722      -280.3513
   8   2.0000     -10.302102      -280.3345
   9   2.0000     -10.299139      -280.2538
  10   2.0000     -10.293401      -280.0977
  11   2.0000     -10.289656      -279.9958
  12   2.0000     -10.286764      -279.9171
  13   2.0000     -10.286701      -279.9154
  14   2.0000     -10.280616      -279.7498
  15   2.0000     -10.278422      -279.6901
  16   2.0000      -8.082599      -219.9387
  17   2.0000      -8.079043      -219.8419
  18   2.0000      -6.041163      -164.3884
  19   2.0000      -6.037565      -164.2905
  20   2.0000      -6.037270      -164.2825
  21   2.0000      -6.033770      -164.1872
  22   2.0000      -6.033239      -164.1728
  23   2.0000      -6.029711      -164.0768
  24   2.0000      -0.999596       -27.2004
  25   2.0000      -0.977594       -26.6017
  26   2.0000      -0.917192       -24.9581
  27   2.0000      -0.902253       -24.5516
  28   2.0000      -0.865468       -23.5506
  29   2.0000      -0.850329       -23.1386
  30   2.0000      -0.843016       -22.9396
  31   2.0000      -0.814657       -22.1680
  32   2.0000      -0.783588       -21.3225
  33   2.0000      -0.769384       -20.9360
  34   2.0000      -0.713164       -19.4062
  35   2.0000      -0.699056       -19.0223
  36   2.0000      -0.690659       -18.7938
  37   2.0000      -0.660445       -17.9716
  38   2.0000      -0.641386       -17.4530
  39   2.0000      -0.618619       -16.8335
  40   2.0000      -0.591322       -16.0907
  41   2.0000      -0.583173       -15.8689
  42   2.0000      -0.565807       -15.3964
  43   2.0000      -0.555863       -15.1258
  44   2.0000      -0.529029       -14.3956
  45   2.0000      -0.521172       -14.1818
  46   2.0000      -0.519655       -14.1405
  47   2.0000      -0.507102       -13.7990
  48   2.0000      -0.504193       -13.7198
  49   2.0000      -0.496754       -13.5174
  50   2.0000      -0.491825       -13.3832
  51   2.0000      -0.477377       -12.9901
  52   2.0000      -0.469542       -12.7769
  53   2.0000      -0.467703       -12.7268
  54   2.0000      -0.460226       -12.5234
  55   2.0000      -0.453328       -12.3357
  56   2.0000      -0.444599       -12.0981
  57   2.0000      -0.439951       -11.9717
  58   2.0000      -0.435590       -11.8530
  59   2.0000      -0.425918       -11.5898
  60   2.0000      -0.422229       -11.4894
  61   2.0000      -0.416587       -11.3359
  62   2.0000      -0.410438       -11.1686
  63   2.0000      -0.349677        -9.5152
  64   2.0000      -0.332467        -9.0469
  65   2.0000      -0.331002        -9.0070
  66   2.0000      -0.283646        -7.7184
  67   0.0000       0.019320         0.5257
  68   0.0000       0.077328         2.1042
  69   0.0000       0.096264         2.6195
  70   0.0000       0.117651         3.2015
  71   0.0000       0.122887         3.3439

MULLIKEN ATOMIC CHARGES
-----------------------
   0 S :    0.090847
   1 C :   -0.117481
   2 C :   -0.091358
   3 C :    0.007064
   4 C :   -0.153596
   5 H :    0.026541
   6 C :    0.134784
   7 H :   -0.010903
   8 H :    0.021830
   9 C :   -0.109727
  10 H :    0.040892
  11 H :    0.039481
  12 C :   -0.071776
  13 H :    0.040019
  14 H :    0.045123
  15 H :    0.043568
  16 S :    0.099258
  17 C :   -0.105923
  18 C :   -0.002621
  19 C :   -0.105094
  20 C :   -0.113015
  21 H :    0.036513
  22 C :    0.091152
  23 H :    0.008280
  24 H :    0.008919
  25 C :   -0.010887
  26 H :    0.020344
  27 H :    0.010767
  28 C :   -0.059620
  29 H :    0.029387
  30 H :    0.026819
  31 H :    0.029767
  32 H :    0.033704
  33 H :    0.066943
Sum of atomic charges:   -0.0000000

LOEWDIN ATOMIC CHARGES
----------------------
   0 S :    0.378266
   1 C :   -0.185795
   2 C :   -0.055601
   3 C :   -0.072366
   4 C :   -0.170323
   5 H :    0.039254
   6 C :   -0.031788
   7 H :    0.021910
   8 H :    0.025820
   9 C :   -0.041966
  10 H :    0.031741
  11 H :    0.027093
  12 C :   -0.070879
  13 H :    0.028784
  14 H :    0.032343
  15 H :    0.027178
  16 S :    0.392758
  17 C :   -0.170393
  18 C :   -0.070112
  19 C :   -0.048300
  20 C :   -0.210817
  21 H :    0.040120
  22 C :   -0.026168
  23 H :    0.023995
  24 H :    0.025300
  25 C :   -0.027773
  26 H :    0.018772
  27 H :    0.015890
  28 C :   -0.063284
  29 H :    0.025943
  30 H :    0.025217
  31 H :    0.019666
  32 H :    0.016241
  33 H :    0.029273

  Mayer bond orders larger than 0.100000
B(  0-S ,  1-C ) :   1.1334 B(  0-S ,  4-C ) :   1.1446 B(  1-C ,  2-C ) :   1.5961
B(  1-C ,  4-C ) :   0.1014 B(  1-C , 32-H ) :   0.9754 B(  2-C ,  3-C ) :   1.2326
B(  2-C ,  6-C ) :   1.0213 B(  3-C ,  4-C ) :   1.5765 B(  3-C ,  5-H ) :   0.9823
B(  4-C , 20-C ) :   1.0605 B(  6-C ,  7-H ) :   0.9286 B(  6-C ,  8-H ) :   0.9299
B(  6-C ,  9-C ) :   1.0794 B(  9-C , 10-H ) :   0.9575 B(  9-C , 11-H ) :   0.9550
B(  9-C , 12-C ) :   1.0739 B( 12-C , 13-H ) :   0.9776 B( 12-C , 14-H ) :   0.9772
B( 12-C , 15-H ) :   0.9756 B( 16-S , 17-C ) :   1.1503 B( 16-S , 20-C ) :   1.1268
B( 17-C , 18-C ) :   1.6011 B( 17-C , 33-H ) :   0.9662 B( 18-C , 19-C ) :   1.2440
B( 18-C , 21-H ) :   0.9864 B( 19-C , 20-C ) :   1.5843 B( 19-C , 22-C ) :   1.0304
B( 22-C , 23-H ) :   0.9333 B( 22-C , 24-H ) :   0.9291 B( 22-C , 25-C ) :   1.0575
B( 25-C , 26-H ) :   0.9551 B( 25-C , 27-H ) :   0.9535 B( 25-C , 28-C ) :   1.0781
B( 28-C , 29-H ) :   0.9766 B( 28-C , 30-H ) :   0.9773 B( 28-C , 31-H ) :   0.9764

Dispersion correction           -0.013735150
FINAL SINGLE POINT ENERGY     -1339.866344862626

DIPOLE MOMENT
-------------
                                X             Y             Z
Electronic contribution:      7.00426     -33.29826       1.25839
Nuclear contribution   :     -7.20459      33.93851      -1.10381
                        -----------------------------------------
Total Dipole Moment    :     -0.20033       0.64025       0.15459
                        -----------------------------------------
Magnitude (a.u.)       :      0.68844
Magnitude (Debye)      :      1.74988

Rotational constants in cm-1:     0.016977     0.009133     0.006120
Rotational constants in MHz :   508.970499   273.815060   183.467096

                             ****ORCA TERMINATED NORMALLY****
TOTAL RUN TIME: 0 days 0 hours 0 minutes 22 seconds 548 msec
