                         Program Version 4.2.1 -  RELEASE  -
|  1> ! wB97X-D3 SP def2-SVP
|  2> %pal
|  3> nprocs 24
|  4> end
|  5>
|  6> * xyz 0 1
|  7> S 	 -131.485 	 16.9567 	 -15.9806
|  8> C 	 -132.012 	 15.4388 	 -15.2814
|  9> C 	 -133.18 	 15.0305 	 -15.954
| 10> C 	 -133.54 	 15.8471 	 -17.0544
| 11> C 	 -132.828 	 17.0626 	 -17.065
| 12> H 	 -134.406 	 15.7019 	 -17.6916
| 13> C 	 -133.999 	 13.786 	 -15.5451
| 14> H 	 -133.325 	 12.9501 	 -15.6965
| 15> H 	 -134.854 	 13.5281 	 -16.1281
| 16> C 	 -134.425 	 13.8172 	 -14.092
| 17> H 	 -135.143 	 12.9841 	 -13.9296
| 18> H 	 -133.535 	 13.6517 	 -13.4075
| 19> C 	 -135.3 	 15.0891 	 -13.9331
| 20> H 	 -135.745 	 15.2329 	 -12.9178
| 21> H 	 -134.755 	 15.994 	 -14.1024
| 22> H 	 -136.137 	 15.1189 	 -14.6181
| 23> S 	 -134.714 	 18.7452 	 -18.0526
| 24> C 	 -134.352 	 19.9994 	 -19.1499
| 25> C 	 -132.963 	 19.9684 	 -19.4781
| 26> C 	 -132.214 	 18.9268 	 -18.7374
| 27> C 	 -133.056 	 18.1716 	 -17.9751
| 28> H 	 -132.487 	 20.6824 	 -20.165
| 29> C 	 -130.741 	 18.6464 	 -19.0276
| 30> H 	 -130.606 	 18.5891 	 -20.1485
| 31> H 	 -130.44 	 17.6602 	 -18.6793
| 32> C 	 -129.783 	 19.8042 	 -18.5819
| 33> H 	 -129.973 	 19.9876 	 -17.5392
| 34> H 	 -130.07 	 20.6843 	 -19.1637
| 35> C 	 -128.233 	 19.6455 	 -18.8333
| 36> H 	 -127.972 	 18.6732 	 -18.3707
| 37> H 	 -127.706 	 20.5576 	 -18.5057
| 38> H 	 -128.085 	 19.6502 	 -19.9459
| 39> H 	 -131.474 	 14.8472 	 -14.6079
| 40> H 	 -135 	 20.7974 	 -19.5098
| 41> *
| 42>
| 43>                          ****END OF INPUT****

CARTESIAN COORDINATES (ANGSTROEM)
---------------------------------
  S    -131.485000   16.956700  -15.980600
  C    -132.012000   15.438800  -15.281400
  C    -133.180000   15.030500  -15.954000
  C    -133.540000   15.847100  -17.054400
  C    -132.828000   17.062600  -17.065000
  H    -134.406000   15.701900  -17.691600
  C    -133.999000   13.786000  -15.545100
  H    -133.325000   12.950100  -15.696500
  H    -134.854000   13.528100  -16.128100
  C    -134.425000   13.817200  -14.092000
  H    -135.143000   12.984100  -13.929600
  H    -133.535000   13.651700  -13.407500
  C    -135.300000   15.089100  -13.933100
  H    -135.745000   15.232900  -12.917800
  H    -134.755000   15.994000  -14.102400
  H    -136.137000   15.118900  -14.618100
  S    -134.714000   18.745200  -18.052600
  C    -134.352000   19.999400  -19.149900
  C    -132.963000   19.968400  -19.478100
  C    -132.214000   18.926800  -18.737400
  C    -133.056000   18.171600  -17.975100
  H    -132.487000   20.682400  -20.165000
  C    -130.741000   18.646400  -19.027600
  H    -130.606000   18.589100  -20.148500
  H    -130.440000   17.660200  -18.679300
  C    -129.783000   19.804200  -18.581900
  H    -129.973000   19.987600  -17.539200
  H    -130.070000   20.684300  -19.163700
  C    -128.233000   19.645500  -18.833300
  H    -127.972000   18.673200  -18.370700
  H    -127.706000   20.557600  -18.505700
  H    -128.085000   19.650200  -19.945900
  H    -131.474000   14.847200  -14.607900
  H    -135.000000   20.797400  -19.509800

 Total Charge           Charge          ....    0
 Multiplicity           Mult            ....    1
 Number of Electrons    NEL             ....  134
 Basis Dimension        Dim             ....  322

ORBITAL ENERGIES
----------------

  NO   OCC          E(Eh)            E(eV)
   0   2.0000     -88.970691     -2421.0156
   1   2.0000     -88.967981     -2420.9418
   2   2.0000     -10.331972      -281.1472
   3   2.0000     -10.326839      -281.0076
   4   2.0000     -10.322668      -280.8941
   5   2.0000     -10.312827      -280.6263
   6   2.0000     -10.308475      -280.5079
   7   2.0000     -10.305318      -280.4220
   8   2.0000     -10.304123      -280.3894
   9   2.0000     -10.298232      -280.2291
  10   2.0000     -10.294488      -280.1273
  11   2.0000     -10.292815      -280.0817
  12   2.0000     -10.287546      -279.9384
  13   2.0000     -10.286899      -279.9207
  14   2.0000     -10.286365      -279.9062
  15   2.0000     -10.271707      -279.5074
  16   2.0000      -8.084897      -220.0012
  17   2.0000      -8.083195      -219.9549
  18   2.0000      -6.043362      -164.4482
  19   2.0000      -6.041701      -164.4030
  20   2.0000      -6.039246      -164.3362
  21   2.0000      -6.037533      -164.2896
  22   2.0000      -6.035986      -164.2475
  23   2.0000      -6.034011      -164.1938
  24   2.0000      -1.008345       -27.4385
  25   2.0000      -0.984302       -26.7842
  26   2.0000      -0.913102       -24.8468
  27   2.0000      -0.901212       -24.5232
  28   2.0000      -0.866749       -23.5854
  29   2.0000      -0.848105       -23.0781
  30   2.0000      -0.840937       -22.8831
  31   2.0000      -0.806228       -21.9386
  32   2.0000      -0.781182       -21.2570
  33   2.0000      -0.772890       -21.0314
  34   2.0000      -0.703588       -19.1456
  35   2.0000      -0.696389       -18.9497
  36   2.0000      -0.691208       -18.8087
  37   2.0000      -0.663885       -18.0652
  38   2.0000      -0.640438       -17.4272
  39   2.0000      -0.607631       -16.5345
  40   2.0000      -0.593878       -16.1603
  41   2.0000      -0.577351       -15.7105
  42   2.0000      -0.562109       -15.2958
  43   2.0000      -0.550709       -14.9856
  44   2.0000      -0.545736       -14.8502
  45   2.0000      -0.525574       -14.3016
  46   2.0000      -0.516771       -14.0621
  47   2.0000      -0.511687       -13.9237
  48   2.0000      -0.500409       -13.6168
  49   2.0000      -0.497618       -13.5409
  50   2.0000      -0.484124       -13.1737
  51   2.0000      -0.477972       -13.0063
  52   2.0000      -0.468437       -12.7468
  53   2.0000      -0.466131       -12.6841
  54   2.0000      -0.458812       -12.4849
  55   2.0000      -0.449749       -12.2383
  56   2.0000      -0.437559       -11.9066
  57   2.0000      -0.431527       -11.7425
  58   2.0000      -0.427342       -11.6286
  59   2.0000      -0.425971       -11.5913
  60   2.0000      -0.418822       -11.3967
  61   2.0000      -0.416235       -11.3263
  62   2.0000      -0.411562       -11.1992
  63   2.0000      -0.348873        -9.4933
  64   2.0000      -0.329921        -8.9776
  65   2.0000      -0.327542        -8.9129
  66   2.0000      -0.291304        -7.9268
  67   0.0000       0.026817         0.7297
  68   0.0000       0.069435         1.8894
  69   0.0000       0.104020         2.8305
  70   0.0000       0.120830         3.2880
  71   0.0000       0.130969         3.5638

MULLIKEN ATOMIC CHARGES
-----------------------
   0 S :    0.122636
   1 C :   -0.106691
   2 C :   -0.102724
   3 C :    0.025501
   4 C :   -0.153971
   5 H :    0.018554
   6 C :    0.076363
   7 H :    0.028323
   8 H :    0.014706
   9 C :   -0.090525
  10 H :    0.034469
  11 H :    0.044461
  12 C :   -0.055753
  13 H :    0.032577
  14 H :    0.042098
  15 H :    0.022383
  16 S :    0.120453
  17 C :   -0.092453
  18 C :   -0.054413
  19 C :   -0.023135
  20 C :   -0.159038
  21 H :    0.029753
  22 C :    0.042674
  23 H :    0.035314
  24 H :    0.022321
  25 C :   -0.108573
  26 H :    0.032428
  27 H :    0.024486
  28 C :   -0.054573
  29 H :    0.049536
  30 H :    0.048970
  31 H :    0.031651
  32 H :    0.032889
  33 H :    0.069303
Sum of atomic charges:   -0.0000000

LOEWDIN ATOMIC CHARGES
----------------------
   0 S :    0.430863
   1 C :   -0.202419
   2 C :   -0.051767
   3 C :   -0.071037
   4 C :   -0.199899
   5 H :    0.030061
   6 C :   -0.033284
   7 H :    0.030318
   8 H :    0.025136
   9 C :   -0.044067
  10 H :    0.028356
  11 H :    0.028427
  12 C :   -0.068020
  13 H :    0.027017
  14 H :    0.023182
  15 H :    0.024014
  16 S :    0.430076
  17 C :   -0.206716
  18 C :   -0.069078
  19 C :   -0.056068
  20 C :   -0.198602
  21 H :    0.030338
  22 C :   -0.036322
  23 H :    0.037790
  24 H :    0.019910
  25 C :   -0.042039
  26 H :    0.018086
  27 H :    0.020236
  28 C :   -0.069142
  29 H :    0.029873
  30 H :    0.032274
  31 H :    0.027408
  32 H :    0.018201
  33 H :    0.036894

  Mayer bond orders larger than 0.100000
B(  0-S ,  1-C ) :   1.1430 B(  0-S ,  4-C ) :   1.1771 B(  1-C ,  2-C ) :   1.5514
B(  1-C ,  4-C ) :   0.1111 B(  1-C , 32-H ) :   0.9826 B(  2-C ,  3-C ) :   1.2942
B(  2-C ,  6-C ) :   1.0077 B(  3-C ,  4-C ) :   1.5084 B(  3-C ,  5-H ) :   0.9892
B(  4-C , 20-C ) :   1.0370 B(  6-C ,  7-H ) :   0.9353 B(  6-C ,  8-H ) :   0.9510
B(  6-C ,  9-C ) :   1.0839 B(  9-C , 10-H ) :   0.9570 B(  9-C , 11-H ) :   0.9548
B(  9-C , 12-C ) :   1.0605 B( 12-C , 13-H ) :   0.9759 B( 12-C , 14-H ) :   0.9740
B( 12-C , 15-H ) :   0.9732 B( 16-S , 17-C ) :   1.1635 B( 16-S , 20-C ) :   1.1412
B( 17-C , 18-C ) :   1.5964 B( 17-C , 33-H ) :   0.9684 B( 18-C , 19-C ) :   1.2253
B( 18-C , 21-H ) :   0.9821 B( 19-C , 20-C ) :   1.6073 B( 19-C , 22-C ) :   1.0469
B( 22-C , 23-H ) :   0.9397 B( 22-C , 24-H ) :   0.9394 B( 22-C , 25-C ) :   1.0391
B( 25-C , 26-H ) :   0.9607 B( 25-C , 27-H ) :   0.9602 B( 25-C , 28-C ) :   1.0777
B( 28-C , 29-H ) :   0.9767 B( 28-C , 30-H ) :   0.9742 B( 28-C , 31-H ) :   0.9757

Dispersion correction           -0.014584370
FINAL SINGLE POINT ENERGY     -1339.878924211866

DIPOLE MOMENT
-------------
                                X             Y             Z
Electronic contribution:     -6.74866       5.10073      -3.19894
Nuclear contribution   :      6.79167      -5.20266       3.01825
                        -----------------------------------------
Total Dipole Moment    :      0.04301      -0.10193      -0.18069
                        -----------------------------------------
Magnitude (a.u.)       :      0.21187
Magnitude (Debye)      :      0.53854

Rotational constants in cm-1:     0.021995     0.008217     0.006363
Rotational constants in MHz :   659.381225   246.340075   190.771979

                             ****ORCA TERMINATED NORMALLY****
TOTAL RUN TIME: 0 days 0 hours 0 minutes 20 seconds 104 msec
