                         Program Version 4.2.1 -  RELEASE  -
|  1> ! wB97X-D3 SP def2-SVP
|  2> %pal
|  3> nprocs 24
|  4> end
|  5>
|  6> * xyz 0 1
|  7> S 	 -132.313 	 68.7991 	 -50.3936
|  8> C 	 -133.496 	 68.3425 	 -51.5879
|  9> C 	 -132.85 	 67.897 	 -52.7519
| 10> C 	 -131.417 	 68.1131 	 -52.6451
| 11> C 	 -130.953 	 68.3948 	 -51.3979
| 12> H 	 -130.757 	 67.9616 	 -53.5397
| 13> C 	 -133.467 	 67.5677 	 -54.0641
| 14> H 	 -134.372 	 67.0798 	 -54.0433
| 15> H 	 -132.803 	 66.7578 	 -54.3759
| 16> C 	 -133.454 	 68.7099 	 -55.0225
| 17> H 	 -132.385 	 69.0325 	 -55.2538
| 18> H 	 -133.802 	 68.1626 	 -55.9103
| 19> C 	 -134.353 	 69.9262 	 -54.7525
| 20> H 	 -134.044 	 70.7605 	 -55.2733
| 21> H 	 -135.339 	 69.6283 	 -55.084
| 22> H 	 -134.481 	 70.1618 	 -53.7328
| 23> S 	 -129.431 	 70.2232 	 -50.156
| 24> C 	 -127.613 	 70.0364 	 -50.2627
| 25> C 	 -127.24 	 68.8748 	 -50.8918
| 26> C 	 -128.374 	 68.1073 	 -51.2802
| 27> C 	 -129.569 	 68.7469 	 -51.0296
| 28> H 	 -126.145 	 68.6994 	 -50.9936
| 29> C 	 -128.242 	 66.7748 	 -52.0133
| 30> H 	 -129.305 	 66.4507 	 -52.2622
| 31> H 	 -127.928 	 66.0316 	 -51.195
| 32> C 	 -127.237 	 66.6029 	 -53.1755
| 33> H 	 -127.337 	 65.6138 	 -53.6768
| 34> H 	 -126.19 	 66.698 	 -52.8374
| 35> C 	 -127.625 	 67.6117 	 -54.2561
| 36> H 	 -126.984 	 67.526 	 -55.0828
| 37> H 	 -127.527 	 68.5953 	 -53.8391
| 38> H 	 -128.609 	 67.441 	 -54.6193
| 39> H 	 -134.555 	 68.3628 	 -51.4659
| 40> H 	 -126.939 	 70.8135 	 -49.8245
| 41> *
| 42>
| 43>                          ****END OF INPUT****

CARTESIAN COORDINATES (ANGSTROEM)
---------------------------------
  S    -132.313000   68.799100  -50.393600
  C    -133.496000   68.342500  -51.587900
  C    -132.850000   67.897000  -52.751900
  C    -131.417000   68.113100  -52.645100
  C    -130.953000   68.394800  -51.397900
  H    -130.757000   67.961600  -53.539700
  C    -133.467000   67.567700  -54.064100
  H    -134.372000   67.079800  -54.043300
  H    -132.803000   66.757800  -54.375900
  C    -133.454000   68.709900  -55.022500
  H    -132.385000   69.032500  -55.253800
  H    -133.802000   68.162600  -55.910300
  C    -134.353000   69.926200  -54.752500
  H    -134.044000   70.760500  -55.273300
  H    -135.339000   69.628300  -55.084000
  H    -134.481000   70.161800  -53.732800
  S    -129.431000   70.223200  -50.156000
  C    -127.613000   70.036400  -50.262700
  C    -127.240000   68.874800  -50.891800
  C    -128.374000   68.107300  -51.280200
  C    -129.569000   68.746900  -51.029600
  H    -126.145000   68.699400  -50.993600
  C    -128.242000   66.774800  -52.013300
  H    -129.305000   66.450700  -52.262200
  H    -127.928000   66.031600  -51.195000
  C    -127.237000   66.602900  -53.175500
  H    -127.337000   65.613800  -53.676800
  H    -126.190000   66.698000  -52.837400
  C    -127.625000   67.611700  -54.256100
  H    -126.984000   67.526000  -55.082800
  H    -127.527000   68.595300  -53.839100
  H    -128.609000   67.441000  -54.619300
  H    -134.555000   68.362800  -51.465900
  H    -126.939000   70.813500  -49.824500

 Total Charge           Charge          ....    0
 Multiplicity           Mult            ....    1
 Number of Electrons    NEL             ....  134
 Basis Dimension        Dim             ....  322

ORBITAL ENERGIES
----------------

  NO   OCC          E(Eh)            E(eV)
   0   2.0000     -88.964829     -2420.8561
   1   2.0000     -88.963390     -2420.8169
   2   2.0000     -10.327108      -281.0149
   3   2.0000     -10.326059      -280.9864
   4   2.0000     -10.324998      -280.9575
   5   2.0000     -10.313667      -280.6492
   6   2.0000     -10.305011      -280.4136
   7   2.0000     -10.300738      -280.2973
   8   2.0000     -10.299643      -280.2675
   9   2.0000     -10.298917      -280.2478
  10   2.0000     -10.294671      -280.1322
  11   2.0000     -10.292662      -280.0776
  12   2.0000     -10.289717      -279.9974
  13   2.0000     -10.282777      -279.8086
  14   2.0000     -10.267124      -279.3827
  15   2.0000     -10.265577      -279.3406
  16   2.0000      -8.079255      -219.8477
  17   2.0000      -8.078494      -219.8270
  18   2.0000      -6.037764      -164.2959
  19   2.0000      -6.037183      -164.2801
  20   2.0000      -6.034005      -164.1936
  21   2.0000      -6.032881      -164.1630
  22   2.0000      -6.029800      -164.0792
  23   2.0000      -6.029103      -164.0602
  24   2.0000      -1.008557       -27.4442
  25   2.0000      -0.983180       -26.7537
  26   2.0000      -0.921422       -25.0732
  27   2.0000      -0.906031       -24.6544
  28   2.0000      -0.869748       -23.6670
  29   2.0000      -0.849870       -23.1261
  30   2.0000      -0.843941       -22.9648
  31   2.0000      -0.816683       -22.2231
  32   2.0000      -0.789342       -21.4791
  33   2.0000      -0.771299       -20.9881
  34   2.0000      -0.707077       -19.2406
  35   2.0000      -0.697750       -18.9867
  36   2.0000      -0.691706       -18.8223
  37   2.0000      -0.657771       -17.8989
  38   2.0000      -0.639692       -17.4069
  39   2.0000      -0.624816       -17.0021
  40   2.0000      -0.590304       -16.0630
  41   2.0000      -0.570012       -15.5108
  42   2.0000      -0.555553       -15.1174
  43   2.0000      -0.552477       -15.0337
  44   2.0000      -0.545748       -14.8506
  45   2.0000      -0.537651       -14.6302
  46   2.0000      -0.521392       -14.1878
  47   2.0000      -0.514880       -14.0106
  48   2.0000      -0.500917       -13.6307
  49   2.0000      -0.494230       -13.4487
  50   2.0000      -0.492733       -13.4079
  51   2.0000      -0.477940       -13.0054
  52   2.0000      -0.471394       -12.8273
  53   2.0000      -0.465272       -12.6607
  54   2.0000      -0.459365       -12.4999
  55   2.0000      -0.451735       -12.2923
  56   2.0000      -0.445748       -12.1294
  57   2.0000      -0.441480       -12.0133
  58   2.0000      -0.430870       -11.7246
  59   2.0000      -0.425750       -11.5852
  60   2.0000      -0.416692       -11.3388
  61   2.0000      -0.412294       -11.2191
  62   2.0000      -0.404204       -10.9989
  63   2.0000      -0.353813        -9.6278
  64   2.0000      -0.331977        -9.0335
  65   2.0000      -0.321666        -8.7530
  66   2.0000      -0.290453        -7.9036
  67   0.0000       0.031410         0.8547
  68   0.0000       0.074565         2.0290
  69   0.0000       0.098427         2.6783
  70   0.0000       0.118742         3.2311
  71   0.0000       0.127611         3.4725

MULLIKEN ATOMIC CHARGES
-----------------------
   0 S :    0.091801
   1 C :   -0.105524
   2 C :   -0.107185
   3 C :   -0.012350
   4 C :   -0.118251
   5 H :    0.026154
   6 C :    0.096656
   7 H :   -0.003086
   8 H :    0.021240
   9 C :   -0.104738
  10 H :    0.035289
  11 H :    0.028271
  12 C :    0.030733
  13 H :    0.023969
  14 H :    0.013651
  15 H :    0.021372
  16 S :    0.093656
  17 C :   -0.126048
  18 C :   -0.035323
  19 C :   -0.044426
  20 C :   -0.132999
  21 H :    0.042497
  22 C :    0.008292
  23 H :    0.036422
  24 H :    0.046710
  25 C :   -0.071853
  26 H :    0.036856
  27 H :    0.036441
  28 C :   -0.015525
  29 H :    0.015743
  30 H :    0.036792
  31 H :    0.020939
  32 H :    0.041882
  33 H :    0.071941
Sum of atomic charges:    0.0000000

LOEWDIN ATOMIC CHARGES
----------------------
   0 S :    0.404536
   1 C :   -0.199058
   2 C :   -0.060679
   3 C :   -0.067811
   4 C :   -0.200629
   5 H :    0.033940
   6 C :   -0.036302
   7 H :    0.018871
   8 H :    0.038859
   9 C :   -0.039285
  10 H :    0.027779
  11 H :    0.027363
  12 C :   -0.050636
  13 H :    0.020287
  14 H :    0.026383
  15 H :    0.020533
  16 S :    0.380706
  17 C :   -0.163375
  18 C :   -0.073504
  19 C :   -0.065302
  20 C :   -0.197261
  21 H :    0.045304
  22 C :   -0.044911
  23 H :    0.036209
  24 H :    0.040413
  25 C :   -0.041675
  26 H :    0.031862
  27 H :    0.024212
  28 C :   -0.056382
  29 H :    0.017015
  30 H :    0.024812
  31 H :    0.018671
  32 H :    0.024128
  33 H :    0.034928

  Mayer bond orders larger than 0.100000
B(  0-S ,  1-C ) :   1.1373 B(  0-S ,  4-C ) :   1.1422 B(  1-C ,  2-C ) :   1.5924
B(  1-C , 32-H ) :   0.9734 B(  2-C ,  3-C ) :   1.2424 B(  2-C ,  6-C ) :   1.0337
B(  3-C ,  4-C ) :   1.5808 B(  3-C ,  5-H ) :   0.9772 B(  4-C , 20-C ) :   1.0184
B(  6-C ,  7-H ) :   0.9383 B(  6-C ,  8-H ) :   0.9249 B(  6-C ,  9-C ) :   1.0790
B(  9-C , 10-H ) :   0.9558 B(  9-C , 11-H ) :   0.9564 B(  9-C , 12-C ) :   1.0639
B( 12-C , 13-H ) :   0.9738 B( 12-C , 14-H ) :   0.9717 B( 12-C , 15-H ) :   0.9766
B( 16-S , 17-C ) :   1.1259 B( 16-S , 20-C ) :   1.1420 B( 17-C , 18-C ) :   1.6490
B( 17-C , 33-H ) :   0.9626 B( 18-C , 19-C ) :   1.1935 B( 18-C , 21-H ) :   0.9859
B( 19-C , 20-C ) :   1.6310 B( 19-C , 22-C ) :   1.0368 B( 22-C , 23-H ) :   0.9376
B( 22-C , 24-H ) :   0.9293 B( 22-C , 25-C ) :   1.0701 B( 25-C , 26-H ) :   0.9542
B( 25-C , 27-H ) :   0.9512 B( 25-C , 28-C ) :   1.0787 B( 28-C , 29-H ) :   0.9703
B( 28-C , 30-H ) :   0.9748 B( 28-C , 31-H ) :   0.9711

Dispersion correction           -0.015139022
FINAL SINGLE POINT ENERGY     -1339.865872524758

DIPOLE MOMENT
-------------
                                X             Y             Z
Electronic contribution:     -0.15099       7.81912      24.61109
Nuclear contribution   :      0.29160      -8.04400     -25.28803
                        -----------------------------------------
Total Dipole Moment    :      0.14061      -0.22488      -0.67693
                        -----------------------------------------
Magnitude (a.u.)       :      0.72704
Magnitude (Debye)      :      1.84798

Rotational constants in cm-1:     0.019254     0.009297     0.007292
Rotational constants in MHz :   577.211318   278.718978   218.623538

                             ****ORCA TERMINATED NORMALLY****
TOTAL RUN TIME: 0 days 0 hours 0 minutes 22 seconds 425 msec
