                         Program Version 4.2.1 -  RELEASE  -
|  1> ! wB97X-D3 SP def2-SVP
|  2> %pal
|  3> nprocs 24
|  4> end
|  5>
|  6> * xyz 0 1
|  7> S 	 -115.376 	 59.2384 	 -71.7314
|  8> C 	 -113.707 	 58.5884 	 -71.5528
|  9> C 	 -112.902 	 59.594 	 -70.9731
| 10> C 	 -113.562 	 60.8214 	 -70.7661
| 11> C 	 -114.927 	 60.7941 	 -71.0445
| 12> H 	 -113.183 	 61.7746 	 -70.4178
| 13> C 	 -111.378 	 59.4939 	 -70.7019
| 14> H 	 -110.841 	 60.1242 	 -71.3306
| 15> H 	 -111.039 	 58.4995 	 -71.0042
| 16> C 	 -110.929 	 59.7086 	 -69.2522
| 17> H 	 -109.81 	 59.6897 	 -69.1761
| 18> H 	 -111.288 	 60.6872 	 -68.9709
| 19> C 	 -111.288 	 58.6896 	 -68.2201
| 20> H 	 -112.385 	 58.6072 	 -68.0312
| 21> H 	 -110.894 	 57.6826 	 -68.3118
| 22> H 	 -111.101 	 59.1625 	 -67.2767
| 23> S 	 -116.481 	 62.006 	 -69.1303
| 24> C 	 -117.458 	 63.4055 	 -69.612
| 25> C 	 -117.278 	 63.8327 	 -70.9204
| 26> C 	 -116.414 	 62.902 	 -71.5805
| 27> C 	 -115.949 	 61.8054 	 -70.78
| 28> H 	 -117.688 	 64.8204 	 -71.1837
| 29> C 	 -116.046 	 63.1295 	 -73.0328
| 30> H 	 -114.988 	 63.3824 	 -73.1466
| 31> H 	 -116.662 	 63.991 	 -73.3963
| 32> C 	 -116.405 	 62.0207 	 -74.0129
| 33> H 	 -116.15 	 61.1199 	 -73.5349
| 34> H 	 -115.957 	 62.2709 	 -74.9548
| 35> C 	 -117.908 	 61.9481 	 -74.29
| 36> H 	 -118.351 	 62.9874 	 -74.3507
| 37> H 	 -118.491 	 61.3547 	 -73.6157
| 38> H 	 -118.109 	 61.4902 	 -75.2393
| 39> H 	 -113.338 	 57.6577 	 -71.8923
| 40> H 	 -118.009 	 64.0499 	 -69.0231
| 41> *
| 42>
| 43>                          ****END OF INPUT****

CARTESIAN COORDINATES (ANGSTROEM)
---------------------------------
  S    -115.376000   59.238400  -71.731400
  C    -113.707000   58.588400  -71.552800
  C    -112.902000   59.594000  -70.973100
  C    -113.562000   60.821400  -70.766100
  C    -114.927000   60.794100  -71.044500
  H    -113.183000   61.774600  -70.417800
  C    -111.378000   59.493900  -70.701900
  H    -110.841000   60.124200  -71.330600
  H    -111.039000   58.499500  -71.004200
  C    -110.929000   59.708600  -69.252200
  H    -109.810000   59.689700  -69.176100
  H    -111.288000   60.687200  -68.970900
  C    -111.288000   58.689600  -68.220100
  H    -112.385000   58.607200  -68.031200
  H    -110.894000   57.682600  -68.311800
  H    -111.101000   59.162500  -67.276700
  S    -116.481000   62.006000  -69.130300
  C    -117.458000   63.405500  -69.612000
  C    -117.278000   63.832700  -70.920400
  C    -116.414000   62.902000  -71.580500
  C    -115.949000   61.805400  -70.780000
  H    -117.688000   64.820400  -71.183700
  C    -116.046000   63.129500  -73.032800
  H    -114.988000   63.382400  -73.146600
  H    -116.662000   63.991000  -73.396300
  C    -116.405000   62.020700  -74.012900
  H    -116.150000   61.119900  -73.534900
  H    -115.957000   62.270900  -74.954800
  C    -117.908000   61.948100  -74.290000
  H    -118.351000   62.987400  -74.350700
  H    -118.491000   61.354700  -73.615700
  H    -118.109000   61.490200  -75.239300
  H    -113.338000   57.657700  -71.892300
  H    -118.009000   64.049900  -69.023100

 Total Charge           Charge          ....    0
 Multiplicity           Mult            ....    1
 Number of Electrons    NEL             ....  134
 Basis Dimension        Dim             ....  322

ORBITAL ENERGIES
----------------

  NO   OCC          E(Eh)            E(eV)
   0   2.0000     -88.972488     -2421.0645
   1   2.0000     -88.968924     -2420.9675
   2   2.0000     -10.333042      -281.1764
   3   2.0000     -10.329510      -281.0803
   4   2.0000     -10.322251      -280.8827
   5   2.0000     -10.314845      -280.6812
   6   2.0000     -10.310816      -280.5716
   7   2.0000     -10.308205      -280.5005
   8   2.0000     -10.298700      -280.2419
   9   2.0000     -10.296589      -280.1844
  10   2.0000     -10.288454      -279.9631
  11   2.0000     -10.286990      -279.9232
  12   2.0000     -10.285839      -279.8919
  13   2.0000     -10.271791      -279.5096
  14   2.0000     -10.271144      -279.4920
  15   2.0000     -10.267514      -279.3933
  16   2.0000      -8.086369      -220.0413
  17   2.0000      -8.081967      -219.9215
  18   2.0000      -6.044823      -164.4880
  19   2.0000      -6.041007      -164.3842
  20   2.0000      -6.040540      -164.3714
  21   2.0000      -6.037224      -164.2812
  22   2.0000      -6.036519      -164.2620
  23   2.0000      -6.032930      -164.1644
  24   2.0000      -1.001184       -27.2436
  25   2.0000      -0.978456       -26.6252
  26   2.0000      -0.910965       -24.7886
  27   2.0000      -0.908117       -24.7111
  28   2.0000      -0.870823       -23.6963
  29   2.0000      -0.847949       -23.0739
  30   2.0000      -0.843328       -22.9481
  31   2.0000      -0.815787       -22.1987
  32   2.0000      -0.787454       -21.4277
  33   2.0000      -0.768466       -20.9110
  34   2.0000      -0.712578       -19.3902
  35   2.0000      -0.692171       -18.8349
  36   2.0000      -0.684844       -18.6355
  37   2.0000      -0.660312       -17.9680
  38   2.0000      -0.644082       -17.5264
  39   2.0000      -0.619429       -16.8555
  40   2.0000      -0.593723       -16.1560
  41   2.0000      -0.573329       -15.6011
  42   2.0000      -0.555361       -15.1121
  43   2.0000      -0.552534       -15.0352
  44   2.0000      -0.547333       -14.8937
  45   2.0000      -0.541846       -14.7444
  46   2.0000      -0.522900       -14.2288
  47   2.0000      -0.515674       -14.0322
  48   2.0000      -0.503517       -13.7014
  49   2.0000      -0.486595       -13.2409
  50   2.0000      -0.480361       -13.0713
  51   2.0000      -0.474964       -12.9244
  52   2.0000      -0.467646       -12.7253
  53   2.0000      -0.466064       -12.6822
  54   2.0000      -0.460241       -12.5238
  55   2.0000      -0.443852       -12.0778
  56   2.0000      -0.442217       -12.0333
  57   2.0000      -0.434050       -11.8111
  58   2.0000      -0.431217       -11.7340
  59   2.0000      -0.424616       -11.5544
  60   2.0000      -0.418652       -11.3921
  61   2.0000      -0.407876       -11.0989
  62   2.0000      -0.402494       -10.9524
  63   2.0000      -0.340693        -9.2707
  64   2.0000      -0.332494        -9.0476
  65   2.0000      -0.318263        -8.6604
  66   2.0000      -0.306879        -8.3506
  67   0.0000       0.036206         0.9852
  68   0.0000       0.044934         1.2227
  69   0.0000       0.106924         2.9096
  70   0.0000       0.114418         3.1135
  71   0.0000       0.127805         3.4778

MULLIKEN ATOMIC CHARGES
-----------------------
   0 S :    0.108010
   1 C :   -0.099717
   2 C :   -0.088208
   3 C :    0.052326
   4 C :   -0.197991
   5 H :    0.015767
   6 C :    0.124459
   7 H :    0.020224
   8 H :   -0.003276
   9 C :   -0.094817
  10 H :    0.036126
  11 H :    0.021325
  12 C :   -0.041290
  13 H :    0.023593
  14 H :    0.041752
  15 H :    0.018470
  16 S :    0.131085
  17 C :   -0.053543
  18 C :   -0.057610
  19 C :   -0.026413
  20 C :   -0.164637
  21 H :    0.040254
  22 C :    0.054939
  23 H :    0.038890
  24 H :    0.009649
  25 C :   -0.010673
  26 H :    0.014042
  27 H :    0.025184
  28 C :   -0.064917
  29 H :    0.019825
  30 H :    0.030851
  31 H :    0.021172
  32 H :    0.035659
  33 H :    0.019490
Sum of atomic charges:    0.0000000

LOEWDIN ATOMIC CHARGES
----------------------
   0 S :    0.402351
   1 C :   -0.177935
   2 C :   -0.057709
   3 C :   -0.061611
   4 C :   -0.195465
   5 H :    0.034130
   6 C :   -0.025408
   7 H :    0.023979
   8 H :    0.024652
   9 C :   -0.043237
  10 H :    0.032995
  11 H :    0.020554
  12 C :   -0.074381
  13 H :    0.029029
  14 H :    0.025317
  15 H :    0.028960
  16 S :    0.417704
  17 C :   -0.165770
  18 C :   -0.072056
  19 C :   -0.042582
  20 C :   -0.226291
  21 H :    0.043691
  22 C :   -0.035433
  23 H :    0.032527
  24 H :    0.027292
  25 C :   -0.032262
  26 H :    0.005839
  27 H :    0.025244
  28 C :   -0.066539
  29 H :    0.024425
  30 H :    0.021355
  31 H :    0.021904
  32 H :    0.022325
  33 H :    0.012405

  Mayer bond orders larger than 0.100000
B(  0-S ,  1-C ) :   1.1378 B(  0-S ,  4-C ) :   1.1590 B(  1-C ,  2-C ) :   1.5950
B(  1-C ,  4-C ) :   0.1127 B(  1-C , 32-H ) :   0.9755 B(  2-C ,  3-C ) :   1.2289
B(  2-C ,  6-C ) :   1.0163 B(  3-C ,  4-C ) :   1.5888 B(  3-C ,  5-H ) :   0.9954
B(  4-C , 20-C ) :   1.0119 B(  6-C ,  7-H ) :   0.9410 B(  6-C ,  8-H ) :   0.9374
B(  6-C ,  9-C ) :   1.0713 B(  9-C , 10-H ) :   0.9539 B(  9-C , 11-H ) :   0.9555
B(  9-C , 12-C ) :   1.0919 B( 12-C , 13-H ) :   0.9667 B( 12-C , 14-H ) :   0.9750
B( 12-C , 15-H ) :   0.9643 B( 16-S , 17-C ) :   1.1677 B( 16-S , 20-C ) :   1.1405
B( 17-C , 18-C ) :   1.6220 B( 17-C , 33-H ) :   0.9650 B( 18-C , 19-C ) :   1.2598
B( 18-C , 21-H ) :   0.9836 B( 19-C , 20-C ) :   1.5587 B( 19-C , 22-C ) :   1.0379
B( 22-C , 23-H ) :   0.9289 B( 22-C , 24-H ) :   0.9411 B( 22-C , 25-C ) :   1.0832
B( 25-C , 26-H ) :   0.9520 B( 25-C , 27-H ) :   0.9532 B( 25-C , 28-C ) :   1.0782
B( 28-C , 29-H ) :   0.9733 B( 28-C , 30-H ) :   0.9757 B( 28-C , 31-H ) :   0.9757

Dispersion correction           -0.014799949
FINAL SINGLE POINT ENERGY     -1339.857541146208

DIPOLE MOMENT
-------------
                                X             Y             Z
Electronic contribution:    -10.70556      -0.25173       6.16647
Nuclear contribution   :     11.14593       0.61991      -6.24267
                        -----------------------------------------
Total Dipole Moment    :      0.44037       0.36818      -0.07619
                        -----------------------------------------
Magnitude (a.u.)       :      0.57904
Magnitude (Debye)      :      1.47179

Rotational constants in cm-1:     0.021665     0.008441     0.007021
Rotational constants in MHz :   649.487436   253.057383   210.493501

                             ****ORCA TERMINATED NORMALLY****
TOTAL RUN TIME: 0 days 0 hours 0 minutes 21 seconds 726 msec
