                         Program Version 4.2.1 -  RELEASE  -
|  1> ! wB97X-D3 SP def2-SVP
|  2> %pal
|  3> nprocs 24
|  4> end
|  5>
|  6> * xyz 0 1
|  7> S 	 39.7755 	 -25.7962 	 -124.395
|  8> C 	 38.954 	 -24.2819 	 -124.691
|  9> C 	 38.8036 	 -24.095 	 -126.052
| 10> C 	 39.416 	 -25.1325 	 -126.775
| 11> C 	 40.063 	 -26.1237 	 -126.032
| 12> H 	 39.5247 	 -25.2383 	 -127.866
| 13> C 	 38.0404 	 -22.8918 	 -126.746
| 14> H 	 37.0096 	 -23.2761 	 -126.963
| 15> H 	 38.4244 	 -22.7438 	 -127.79
| 16> C 	 37.8874 	 -21.5525 	 -126.023
| 17> H 	 37.6173 	 -21.7016 	 -124.927
| 18> H 	 38.8515 	 -20.9604 	 -126.151
| 19> C 	 36.8389 	 -20.6389 	 -126.683
| 20> H 	 36.7752 	 -19.7324 	 -126.093
| 21> H 	 37.1385 	 -20.5308 	 -127.712
| 22> H 	 35.8277 	 -20.9815 	 -126.655
| 23> S 	 40.2825 	 -28.6744 	 -127.044
| 24> C 	 41.8343 	 -29.4787 	 -127.027
| 25> C 	 42.7833 	 -28.5535 	 -126.965
| 26> C 	 42.3767 	 -27.2808 	 -126.509
| 27> C 	 40.9827 	 -27.2332 	 -126.431
| 28> H 	 43.7496 	 -28.9426 	 -127.228
| 29> C 	 43.331 	 -26.1916 	 -126.04
| 30> H 	 43.159 	 -25.9905 	 -125.008
| 31> H 	 43.1748 	 -25.1304 	 -126.478
| 32> C 	 44.8379 	 -26.3866 	 -126.435
| 33> H 	 44.8734 	 -26.4425 	 -127.507
| 34> H 	 45.1911 	 -27.3334 	 -126.09
| 35> C 	 45.768 	 -25.3148 	 -125.953
| 36> H 	 45.3908 	 -24.4107 	 -126.367
| 37> H 	 46.7996 	 -25.4284 	 -126.373
| 38> H 	 45.7768 	 -25.3039 	 -124.87
| 39> H 	 38.6233 	 -23.6018 	 -123.953
| 40> H 	 41.9998 	 -30.4896 	 -127.444
| 41> *
| 42>
| 43>                          ****END OF INPUT****

CARTESIAN COORDINATES (ANGSTROEM)
---------------------------------
  S     39.775500  -25.796200  -124.395000
  C     38.954000  -24.281900  -124.691000
  C     38.803600  -24.095000  -126.052000
  C     39.416000  -25.132500  -126.775000
  C     40.063000  -26.123700  -126.032000
  H     39.524700  -25.238300  -127.866000
  C     38.040400  -22.891800  -126.746000
  H     37.009600  -23.276100  -126.963000
  H     38.424400  -22.743800  -127.790000
  C     37.887400  -21.552500  -126.023000
  H     37.617300  -21.701600  -124.927000
  H     38.851500  -20.960400  -126.151000
  C     36.838900  -20.638900  -126.683000
  H     36.775200  -19.732400  -126.093000
  H     37.138500  -20.530800  -127.712000
  H     35.827700  -20.981500  -126.655000
  S     40.282500  -28.674400  -127.044000
  C     41.834300  -29.478700  -127.027000
  C     42.783300  -28.553500  -126.965000
  C     42.376700  -27.280800  -126.509000
  C     40.982700  -27.233200  -126.431000
  H     43.749600  -28.942600  -127.228000
  C     43.331000  -26.191600  -126.040000
  H     43.159000  -25.990500  -125.008000
  H     43.174800  -25.130400  -126.478000
  C     44.837900  -26.386600  -126.435000
  H     44.873400  -26.442500  -127.507000
  H     45.191100  -27.333400  -126.090000
  C     45.768000  -25.314800  -125.953000
  H     45.390800  -24.410700  -126.367000
  H     46.799600  -25.428400  -126.373000
  H     45.776800  -25.303900  -124.870000
  H     38.623300  -23.601800  -123.953000
  H     41.999800  -30.489600  -127.444000

 Total Charge           Charge          ....    0
 Multiplicity           Mult            ....    1
 Number of Electrons    NEL             ....  134
 Basis Dimension        Dim             ....  322

ORBITAL ENERGIES
----------------

  NO   OCC          E(Eh)            E(eV)
   0   2.0000     -88.963431     -2420.8180
   1   2.0000     -88.961074     -2420.7539
   2   2.0000     -10.328208      -281.0448
   3   2.0000     -10.326860      -281.0082
   4   2.0000     -10.310932      -280.5747
   5   2.0000     -10.310364      -280.5593
   6   2.0000     -10.307451      -280.4800
   7   2.0000     -10.305143      -280.4172
   8   2.0000     -10.304176      -280.3909
   9   2.0000     -10.300050      -280.2786
  10   2.0000     -10.296149      -280.1725
  11   2.0000     -10.293076      -280.0888
  12   2.0000     -10.286864      -279.9198
  13   2.0000     -10.280240      -279.7396
  14   2.0000     -10.277059      -279.6530
  15   2.0000     -10.275812      -279.6191
  16   2.0000      -8.078971      -219.8400
  17   2.0000      -8.076908      -219.7838
  18   2.0000      -6.037277      -164.2827
  19   2.0000      -6.035261      -164.2278
  20   2.0000      -6.033143      -164.1702
  21   2.0000      -6.031428      -164.1235
  22   2.0000      -6.030112      -164.0877
  23   2.0000      -6.027574      -164.0186
  24   2.0000      -1.013556       -27.5803
  25   2.0000      -0.993714       -27.0403
  26   2.0000      -0.908301       -24.7161
  27   2.0000      -0.907255       -24.6877
  28   2.0000      -0.872439       -23.7403
  29   2.0000      -0.852713       -23.2035
  30   2.0000      -0.846528       -23.0352
  31   2.0000      -0.817397       -22.2425
  32   2.0000      -0.783174       -21.3112
  33   2.0000      -0.771453       -20.9923
  34   2.0000      -0.703855       -19.1529
  35   2.0000      -0.700230       -19.0542
  36   2.0000      -0.693339       -18.8667
  37   2.0000      -0.648507       -17.6468
  38   2.0000      -0.641632       -17.4597
  39   2.0000      -0.613400       -16.6915
  40   2.0000      -0.600268       -16.3341
  41   2.0000      -0.580473       -15.7955
  42   2.0000      -0.571958       -15.5638
  43   2.0000      -0.562791       -15.3143
  44   2.0000      -0.528004       -14.3677
  45   2.0000      -0.523833       -14.2542
  46   2.0000      -0.518496       -14.1090
  47   2.0000      -0.510714       -13.8972
  48   2.0000      -0.502926       -13.6853
  49   2.0000      -0.500764       -13.6265
  50   2.0000      -0.494449       -13.4546
  51   2.0000      -0.478102       -13.0098
  52   2.0000      -0.471454       -12.8289
  53   2.0000      -0.465525       -12.6676
  54   2.0000      -0.461607       -12.5610
  55   2.0000      -0.453507       -12.3406
  56   2.0000      -0.436914       -11.8890
  57   2.0000      -0.433575       -11.7982
  58   2.0000      -0.430574       -11.7165
  59   2.0000      -0.424963       -11.5638
  60   2.0000      -0.421210       -11.4617
  61   2.0000      -0.416253       -11.3268
  62   2.0000      -0.412168       -11.2157
  63   2.0000      -0.336575        -9.1587
  64   2.0000      -0.330521        -8.9939
  65   2.0000      -0.320190        -8.7128
  66   2.0000      -0.310078        -8.4376
  67   0.0000       0.043341         1.1794
  68   0.0000       0.057595         1.5673
  69   0.0000       0.115099         3.1320
  70   0.0000       0.128641         3.5005
  71   0.0000       0.137200         3.7334

MULLIKEN ATOMIC CHARGES
-----------------------
   0 S :    0.118491
   1 C :   -0.130685
   2 C :   -0.042209
   3 C :    0.025485
   4 C :   -0.181294
   5 H :    0.013224
   6 C :    0.033643
   7 H :    0.041883
   8 H :    0.029969
   9 C :   -0.119574
  10 H :    0.043775
  11 H :    0.050507
  12 C :   -0.034959
  13 H :    0.034081
  14 H :    0.032839
  15 H :    0.023623
  16 S :    0.108640
  17 C :   -0.095914
  18 C :   -0.057914
  19 C :    0.039437
  20 C :   -0.177277
  21 H :    0.015059
  22 C :    0.032130
  23 H :    0.028112
  24 H :    0.034561
  25 C :   -0.089564
  26 H :    0.024199
  27 H :    0.018413
  28 C :   -0.009348
  29 H :    0.014547
  30 H :    0.039989
  31 H :    0.036360
  32 H :    0.033491
  33 H :    0.066280
Sum of atomic charges:   -0.0000000

LOEWDIN ATOMIC CHARGES
----------------------
   0 S :    0.440108
   1 C :   -0.198672
   2 C :   -0.064616
   3 C :   -0.072866
   4 C :   -0.219520
   5 H :    0.033294
   6 C :   -0.039811
   7 H :    0.036842
   8 H :    0.033109
   9 C :   -0.050570
  10 H :    0.028183
  11 H :    0.034924
  12 C :   -0.061676
  13 H :    0.029347
  14 H :    0.024900
  15 H :    0.019324
  16 S :    0.419064
  17 C :   -0.188530
  18 C :   -0.074908
  19 C :   -0.052591
  20 C :   -0.210307
  21 H :    0.032226
  22 C :   -0.035892
  23 H :    0.026574
  24 H :    0.041745
  25 C :   -0.041268
  26 H :    0.021325
  27 H :    0.012698
  28 C :   -0.057901
  29 H :    0.018582
  30 H :    0.034501
  31 H :    0.025926
  32 H :    0.019808
  33 H :    0.036648

  Mayer bond orders larger than 0.100000
B(  0-S ,  1-C ) :   1.1605 B(  0-S ,  4-C ) :   1.1876 B(  1-C ,  2-C ) :   1.5769
B(  1-C ,  4-C ) :   0.1076 B(  1-C , 32-H ) :   0.9767 B(  2-C ,  3-C ) :   1.2781
B(  2-C ,  6-C ) :   0.9928 B(  3-C ,  4-C ) :   1.5696 B(  3-C ,  5-H ) :   0.9944
B(  4-C , 20-C ) :   0.9761 B(  6-C ,  7-H ) :   0.9435 B(  6-C ,  8-H ) :   0.9451
B(  6-C ,  9-C ) :   1.0625 B(  9-C , 10-H ) :   0.9511 B(  9-C , 11-H ) :   0.9568
B(  9-C , 12-C ) :   1.0826 B( 12-C , 13-H ) :   0.9724 B( 12-C , 14-H ) :   0.9757
B( 12-C , 15-H ) :   0.9750 B( 16-S , 17-C ) :   1.1456 B( 16-S , 20-C ) :   1.1785
B( 17-C , 18-C ) :   1.6345 B( 17-C , 33-H ) :   0.9570 B( 18-C , 19-C ) :   1.2313
B( 18-C , 21-H ) :   0.9896 B( 19-C , 20-C ) :   1.5804 B( 19-C , 22-C ) :   1.0326
B( 22-C , 23-H ) :   0.9351 B( 22-C , 24-H ) :   0.9325 B( 22-C , 25-C ) :   1.0651
B( 25-C , 26-H ) :   0.9559 B( 25-C , 27-H ) :   0.9472 B( 25-C , 28-C ) :   1.0933
B( 28-C , 29-H ) :   0.9705 B( 28-C , 30-H ) :   0.9695 B( 28-C , 31-H ) :   0.9750

Dispersion correction           -0.013158633
FINAL SINGLE POINT ENERGY     -1339.864703804787

DIPOLE MOMENT
-------------
                                X             Y             Z
Electronic contribution:     -7.32072     -23.71777       3.89234
Nuclear contribution   :      7.58165      24.16064      -4.21047
                        -----------------------------------------
Total Dipole Moment    :      0.26093       0.44287      -0.31813
                        -----------------------------------------
Magnitude (a.u.)       :      0.60450
Magnitude (Debye)      :      1.53653

Rotational constants in cm-1:     0.019924     0.006858     0.005769
Rotational constants in MHz :   597.314866   205.585544   172.950612

                             ****ORCA TERMINATED NORMALLY****
TOTAL RUN TIME: 0 days 0 hours 0 minutes 20 seconds 300 msec
