                         Program Version 4.2.1 -  RELEASE  -
|  1> ! wB97X-D3 SP def2-SVP
|  2> %pal
|  3> nprocs 24
|  4> end
|  5>
|  6> * xyz 0 1
|  7> S 	 -84.582 	 -8.93652 	 -58.2405
|  8> C 	 -86.2046 	 -9.18567 	 -57.7928
|  9> C 	 -86.8139 	 -7.99151 	 -57.5212
| 10> C 	 -86.0201 	 -6.82519 	 -57.9139
| 11> C 	 -84.7819 	 -7.15829 	 -58.3413
| 12> H 	 -86.4824 	 -5.81268 	 -57.8422
| 13> C 	 -88.1538 	 -7.91423 	 -56.9252
| 14> H 	 -88.2728 	 -6.9497 	 -56.3083
| 15> H 	 -88.2178 	 -8.75201 	 -56.1943
| 16> C 	 -89.2376 	 -8.06914 	 -58.1038
| 17> H 	 -89.4464 	 -7.04056 	 -58.5214
| 18> H 	 -88.9144 	 -8.69173 	 -59.0211
| 19> C 	 -90.4347 	 -8.72795 	 -57.5886
| 20> H 	 -90.2525 	 -9.74441 	 -57.559
| 21> H 	 -90.7533 	 -8.30449 	 -56.654
| 22> H 	 -91.3009 	 -8.50168 	 -58.1802
| 23> S 	 -83.4443 	 -4.80795 	 -57.773
| 24> C 	 -82.151 	 -4.18391 	 -58.8273
| 25> C 	 -82.1217 	 -4.97901 	 -59.9533
| 26> C 	 -82.9448 	 -6.18143 	 -59.9132
| 27> C 	 -83.7808 	 -6.2286 	 -58.829
| 28> H 	 -81.4243 	 -4.78078 	 -60.6971
| 29> C 	 -82.8142 	 -7.29643 	 -60.9642
| 30> H 	 -82.9508 	 -8.25756 	 -60.3817
| 31> H 	 -81.8275 	 -7.27106 	 -61.3328
| 32> C 	 -83.9715 	 -7.31527 	 -61.9941
| 33> H 	 -83.9303 	 -6.40559 	 -62.544
| 34> H 	 -84.9326 	 -7.46904 	 -61.4359
| 35> C 	 -83.7648 	 -8.4224 	 -62.9559
| 36> H 	 -82.792 	 -8.37957 	 -63.4686
| 37> H 	 -84.5321 	 -8.41737 	 -63.6726
| 38> H 	 -83.8728 	 -9.36394 	 -62.3836
| 39> H 	 -86.5878 	 -10.1709 	 -57.5463
| 40> H 	 -81.6466 	 -3.28088 	 -58.6815
| 41> *
| 42>
| 43>                          ****END OF INPUT****

CARTESIAN COORDINATES (ANGSTROEM)
---------------------------------
  S    -84.582000   -8.936520  -58.240500
  C    -86.204600   -9.185670  -57.792800
  C    -86.813900   -7.991510  -57.521200
  C    -86.020100   -6.825190  -57.913900
  C    -84.781900   -7.158290  -58.341300
  H    -86.482400   -5.812680  -57.842200
  C    -88.153800   -7.914230  -56.925200
  H    -88.272800   -6.949700  -56.308300
  H    -88.217800   -8.752010  -56.194300
  C    -89.237600   -8.069140  -58.103800
  H    -89.446400   -7.040560  -58.521400
  H    -88.914400   -8.691730  -59.021100
  C    -90.434700   -8.727950  -57.588600
  H    -90.252500   -9.744410  -57.559000
  H    -90.753300   -8.304490  -56.654000
  H    -91.300900   -8.501680  -58.180200
  S    -83.444300   -4.807950  -57.773000
  C    -82.151000   -4.183910  -58.827300
  C    -82.121700   -4.979010  -59.953300
  C    -82.944800   -6.181430  -59.913200
  C    -83.780800   -6.228600  -58.829000
  H    -81.424300   -4.780780  -60.697100
  C    -82.814200   -7.296430  -60.964200
  H    -82.950800   -8.257560  -60.381700
  H    -81.827500   -7.271060  -61.332800
  C    -83.971500   -7.315270  -61.994100
  H    -83.930300   -6.405590  -62.544000
  H    -84.932600   -7.469040  -61.435900
  C    -83.764800   -8.422400  -62.955900
  H    -82.792000   -8.379570  -63.468600
  H    -84.532100   -8.417370  -63.672600
  H    -83.872800   -9.363940  -62.383600
  H    -86.587800  -10.170900  -57.546300
  H    -81.646600   -3.280880  -58.681500

 Total Charge           Charge          ....    0
 Multiplicity           Mult            ....    1
 Number of Electrons    NEL             ....  134
 Basis Dimension        Dim             ....  322

ORBITAL ENERGIES
----------------

  NO   OCC          E(Eh)            E(eV)
   0   2.0000     -88.964436     -2420.8454
   1   2.0000     -88.958939     -2420.6958
   2   2.0000     -10.332100      -281.1507
   3   2.0000     -10.327464      -281.0246
   4   2.0000     -10.317550      -280.7548
   5   2.0000     -10.308764      -280.5157
   6   2.0000     -10.303385      -280.3693
   7   2.0000     -10.300553      -280.2923
   8   2.0000     -10.298031      -280.2237
   9   2.0000     -10.296544      -280.1832
  10   2.0000     -10.295112      -280.1442
  11   2.0000     -10.291721      -280.0520
  12   2.0000     -10.288718      -279.9702
  13   2.0000     -10.279173      -279.7105
  14   2.0000     -10.267768      -279.4002
  15   2.0000     -10.263717      -279.2899
  16   2.0000      -8.079182      -219.8457
  17   2.0000      -8.072627      -219.6673
  18   2.0000      -6.037822      -164.2975
  19   2.0000      -6.033720      -164.1859
  20   2.0000      -6.031390      -164.1225
  21   2.0000      -6.029771      -164.0784
  22   2.0000      -6.027213      -164.0088
  23   2.0000      -6.023237      -163.9006
  24   2.0000      -1.004970       -27.3466
  25   2.0000      -0.980000       -26.6672
  26   2.0000      -0.913328       -24.8529
  27   2.0000      -0.908936       -24.7334
  28   2.0000      -0.876288       -23.8450
  29   2.0000      -0.855624       -23.2827
  30   2.0000      -0.847159       -23.0524
  31   2.0000      -0.818067       -22.2607
  32   2.0000      -0.775409       -21.0999
  33   2.0000      -0.763762       -20.7830
  34   2.0000      -0.706006       -19.2114
  35   2.0000      -0.694154       -18.8889
  36   2.0000      -0.687624       -18.7112
  37   2.0000      -0.670558       -18.2468
  38   2.0000      -0.640422       -17.4268
  39   2.0000      -0.616660       -16.7802
  40   2.0000      -0.591540       -16.0966
  41   2.0000      -0.575341       -15.6558
  42   2.0000      -0.573493       -15.6055
  43   2.0000      -0.561078       -15.2677
  44   2.0000      -0.529110       -14.3978
  45   2.0000      -0.525932       -14.3113
  46   2.0000      -0.519238       -14.1292
  47   2.0000      -0.514893       -14.0109
  48   2.0000      -0.514168       -13.9912
  49   2.0000      -0.507342       -13.8055
  50   2.0000      -0.493083       -13.4175
  51   2.0000      -0.476555       -12.9677
  52   2.0000      -0.467874       -12.7315
  53   2.0000      -0.461973       -12.5709
  54   2.0000      -0.460695       -12.5362
  55   2.0000      -0.441938       -12.0258
  56   2.0000      -0.441272       -12.0076
  57   2.0000      -0.432814       -11.7775
  58   2.0000      -0.430772       -11.7219
  59   2.0000      -0.420702       -11.4479
  60   2.0000      -0.418351       -11.3839
  61   2.0000      -0.413731       -11.2582
  62   2.0000      -0.405620       -11.0375
  63   2.0000      -0.353328        -9.6146
  64   2.0000      -0.324812        -8.8386
  65   2.0000      -0.321540        -8.7495
  66   2.0000      -0.293243        -7.9795
  67   0.0000       0.029834         0.8118
  68   0.0000       0.072686         1.9779
  69   0.0000       0.105269         2.8645
  70   0.0000       0.120804         3.2872
  71   0.0000       0.124273         3.3816

MULLIKEN ATOMIC CHARGES
-----------------------
   0 S :    0.101312
   1 C :   -0.122043
   2 C :   -0.101728
   3 C :    0.013179
   4 C :   -0.115262
   5 H :    0.034483
   6 C :    0.011361
   7 H :    0.049157
   8 H :    0.036428
   9 C :   -0.115226
  10 H :    0.035568
  11 H :    0.051474
  12 C :    0.011586
  13 H :    0.025464
  14 H :    0.016782
  15 H :    0.017995
  16 S :    0.073291
  17 C :   -0.065680
  18 C :   -0.012835
  19 C :   -0.043891
  20 C :   -0.145465
  21 H :   -0.005184
  22 C :    0.050841
  23 H :    0.024615
  24 H :    0.011804
  25 C :   -0.067289
  26 H :    0.019185
  27 H :    0.048532
  28 C :   -0.008399
  29 H :    0.029428
  30 H :    0.018552
  31 H :    0.025513
  32 H :    0.050872
  33 H :    0.045579
Sum of atomic charges:   -0.0000000

LOEWDIN ATOMIC CHARGES
----------------------
   0 S :    0.405651
   1 C :   -0.211289
   2 C :   -0.068568
   3 C :   -0.063761
   4 C :   -0.182955
   5 H :    0.041310
   6 C :   -0.040331
   7 H :    0.042085
   8 H :    0.032635
   9 C :   -0.042985
  10 H :    0.026616
  11 H :    0.035337
  12 C :   -0.063934
  13 H :    0.017701
  14 H :    0.022899
  15 H :    0.025942
  16 S :    0.366423
  17 C :   -0.160192
  18 C :   -0.064247
  19 C :   -0.053108
  20 C :   -0.177687
  21 H :    0.017874
  22 C :   -0.030093
  23 H :    0.027163
  24 H :    0.020275
  25 C :   -0.036365
  26 H :    0.016979
  27 H :    0.035357
  28 C :   -0.061363
  29 H :    0.026195
  30 H :    0.017235
  31 H :    0.027933
  32 H :    0.029777
  33 H :    0.021490

  Mayer bond orders larger than 0.100000
B(  0-S ,  1-C ) :   1.1341 B(  0-S ,  4-C ) :   1.1267 B(  1-C ,  2-C ) :   1.6186
B(  1-C , 32-H ) :   0.9687 B(  2-C ,  3-C ) :   1.2253 B(  2-C ,  6-C ) :   1.0346
B(  3-C ,  4-C ) :   1.5796 B(  3-C ,  5-H ) :   0.9886 B(  4-C , 20-C ) :   1.0525
B(  6-C ,  7-H ) :   0.9385 B(  6-C ,  8-H ) :   0.9530 B(  6-C ,  9-C ) :   1.0197
B(  9-C , 10-H ) :   0.9543 B(  9-C , 11-H ) :   0.9684 B(  9-C , 12-C ) :   1.0862
B( 12-C , 13-H ) :   0.9785 B( 12-C , 14-H ) :   0.9661 B( 12-C , 15-H ) :   0.9649
B( 16-S , 17-C ) :   1.1361 B( 16-S , 20-C ) :   1.1159 B( 17-C , 18-C ) :   1.6239
B( 17-C , 33-H ) :   0.9762 B( 18-C , 19-C ) :   1.2160 B( 18-C , 21-H ) :   0.9955
B( 19-C , 20-C ) :   1.6213 B( 19-C , 22-C ) :   1.0352 B( 22-C , 23-H ) :   0.9337
B( 22-C , 24-H ) :   0.9365 B( 22-C , 25-C ) :   1.0628 B( 25-C , 26-H ) :   0.9534
B( 25-C , 27-H ) :   0.9520 B( 25-C , 28-C ) :   1.1005 B( 28-C , 29-H ) :   0.9708
B( 28-C , 30-H ) :   0.9705 B( 28-C , 31-H ) :   0.9707

Dispersion correction           -0.014230254
FINAL SINGLE POINT ENERGY     -1339.865710020136

DIPOLE MOMENT
-------------
                                X             Y             Z
Electronic contribution:     17.12527       8.61501      11.84873
Nuclear contribution   :    -17.51765      -8.64866     -12.10079
                        -----------------------------------------
Total Dipole Moment    :     -0.39237      -0.03365      -0.25206
                        -----------------------------------------
Magnitude (a.u.)       :      0.46757
Magnitude (Debye)      :      1.18848

Rotational constants in cm-1:     0.019382     0.008140     0.006664
Rotational constants in MHz :   581.056009   244.043096   199.771586

                             ****ORCA TERMINATED NORMALLY****
TOTAL RUN TIME: 0 days 0 hours 0 minutes 20 seconds 282 msec
