                         Program Version 4.2.1 -  RELEASE  -
|  1> ! wB97X-D3 SP def2-SVP
|  2> %pal
|  3> nprocs 24
|  4> end
|  5>
|  6> * xyz 0 1
|  7> S 	 -80.4747 	 -3.62892 	 4.50042
|  8> C 	 -79.7528 	 -2.89663 	 3.01213
|  9> C 	 -78.9585 	 -3.84257 	 2.34618
| 10> C 	 -78.7664 	 -5.03921 	 3.11114
| 11> C 	 -79.6919 	 -5.16321 	 4.16091
| 12> H 	 -78.0752 	 -5.7372 	 2.8134
| 13> C 	 -78.163 	 -3.42759 	 1.13453
| 14> H 	 -78.7755 	 -3.06011 	 0.339474
| 15> H 	 -77.631 	 -4.31143 	 0.782926
| 16> C 	 -77.1821 	 -2.29547 	 1.36863
| 17> H 	 -76.567 	 -2.22682 	 0.448205
| 18> H 	 -77.6654 	 -1.35675 	 1.57654
| 19> C 	 -76.1514 	 -2.48759 	 2.47404
| 20> H 	 -75.6499 	 -1.57996 	 2.70754
| 21> H 	 -76.5871 	 -2.78681 	 3.38838
| 22> H 	 -75.5191 	 -3.32212 	 2.31271
| 23> S 	 -81.5597 	 -6.65346 	 5.66098
| 24> C 	 -80.9365 	 -7.99027 	 6.50954
| 25> C 	 -79.6295 	 -8.31976 	 6.22595
| 26> C 	 -79.0092 	 -7.39675 	 5.33883
| 27> C 	 -79.8886 	 -6.28937 	 5.09358
| 28> H 	 -79.1842 	 -9.2349 	 6.61668
| 29> C 	 -77.6595 	 -7.63663 	 4.69232
| 30> H 	 -77.1482 	 -8.23506 	 5.4282
| 31> H 	 -77.0617 	 -6.72854 	 4.50921
| 32> C 	 -77.7263 	 -8.35342 	 3.36833
| 33> H 	 -78.6123 	 -7.92458 	 2.88896
| 34> H 	 -77.8812 	 -9.43565 	 3.48328
| 35> C 	 -76.3904 	 -8.20957 	 2.60452
| 36> H 	 -76.2595 	 -7.23024 	 2.18377
| 37> H 	 -76.2431 	 -9.02692 	 1.83106
| 38> H 	 -75.5297 	 -8.59162 	 3.1717
| 39> H 	 -79.9463 	 -1.86842 	 2.72885
| 40> H 	 -81.6439 	 -8.55886 	 7.13187
| 41> *
| 42>
| 43>                          ****END OF INPUT****

CARTESIAN COORDINATES (ANGSTROEM)
---------------------------------
  S    -80.474700   -3.628920    4.500420
  C    -79.752800   -2.896630    3.012130
  C    -78.958500   -3.842570    2.346180
  C    -78.766400   -5.039210    3.111140
  C    -79.691900   -5.163210    4.160910
  H    -78.075200   -5.737200    2.813400
  C    -78.163000   -3.427590    1.134530
  H    -78.775500   -3.060110    0.339474
  H    -77.631000   -4.311430    0.782926
  C    -77.182100   -2.295470    1.368630
  H    -76.567000   -2.226820    0.448205
  H    -77.665400   -1.356750    1.576540
  C    -76.151400   -2.487590    2.474040
  H    -75.649900   -1.579960    2.707540
  H    -76.587100   -2.786810    3.388380
  H    -75.519100   -3.322120    2.312710
  S    -81.559700   -6.653460    5.660980
  C    -80.936500   -7.990270    6.509540
  C    -79.629500   -8.319760    6.225950
  C    -79.009200   -7.396750    5.338830
  C    -79.888600   -6.289370    5.093580
  H    -79.184200   -9.234900    6.616680
  C    -77.659500   -7.636630    4.692320
  H    -77.148200   -8.235060    5.428200
  H    -77.061700   -6.728540    4.509210
  C    -77.726300   -8.353420    3.368330
  H    -78.612300   -7.924580    2.888960
  H    -77.881200   -9.435650    3.483280
  C    -76.390400   -8.209570    2.604520
  H    -76.259500   -7.230240    2.183770
  H    -76.243100   -9.026920    1.831060
  H    -75.529700   -8.591620    3.171700
  H    -79.946300   -1.868420    2.728850
  H    -81.643900   -8.558860    7.131870

 Total Charge           Charge          ....    0
 Multiplicity           Mult            ....    1
 Number of Electrons    NEL             ....  134
 Basis Dimension        Dim             ....  322

ORBITAL ENERGIES
----------------

  NO   OCC          E(Eh)            E(eV)
   0   2.0000     -88.969862     -2420.9930
   1   2.0000     -88.966301     -2420.8961
   2   2.0000     -10.335659      -281.2476
   3   2.0000     -10.333118      -281.1784
   4   2.0000     -10.317223      -280.7459
   5   2.0000     -10.317089      -280.7423
   6   2.0000     -10.309589      -280.5382
   7   2.0000     -10.302827      -280.3542
   8   2.0000     -10.296336      -280.1775
   9   2.0000     -10.293002      -280.0868
  10   2.0000     -10.292228      -280.0657
  11   2.0000     -10.290008      -280.0054
  12   2.0000     -10.288738      -279.9708
  13   2.0000     -10.288229      -279.9570
  14   2.0000     -10.284117      -279.8451
  15   2.0000     -10.261050      -279.2174
  16   2.0000      -8.084679      -219.9953
  17   2.0000      -8.079921      -219.8658
  18   2.0000      -6.042984      -164.4379
  19   2.0000      -6.039366      -164.3395
  20   2.0000      -6.038526      -164.3166
  21   2.0000      -6.035463      -164.2333
  22   2.0000      -6.034573      -164.2091
  23   2.0000      -6.030669      -164.1028
  24   2.0000      -1.001159       -27.2429
  25   2.0000      -0.979032       -26.6408
  26   2.0000      -0.918337       -24.9892
  27   2.0000      -0.915727       -24.9182
  28   2.0000      -0.861597       -23.4452
  29   2.0000      -0.855622       -23.2827
  30   2.0000      -0.843239       -22.9457
  31   2.0000      -0.811964       -22.0947
  32   2.0000      -0.790539       -21.5117
  33   2.0000      -0.772843       -21.0301
  34   2.0000      -0.706774       -19.2323
  35   2.0000      -0.702814       -19.1245
  36   2.0000      -0.690677       -18.7943
  37   2.0000      -0.661848       -18.0098
  38   2.0000      -0.637512       -17.3476
  39   2.0000      -0.623094       -16.9552
  40   2.0000      -0.600415       -16.3381
  41   2.0000      -0.578936       -15.7536
  42   2.0000      -0.574460       -15.6319
  43   2.0000      -0.552810       -15.0427
  44   2.0000      -0.538819       -14.6620
  45   2.0000      -0.523345       -14.2409
  46   2.0000      -0.521792       -14.1987
  47   2.0000      -0.513727       -13.9792
  48   2.0000      -0.507785       -13.8175
  49   2.0000      -0.495334       -13.4787
  50   2.0000      -0.488575       -13.2948
  51   2.0000      -0.479541       -13.0490
  52   2.0000      -0.473820       -12.8933
  53   2.0000      -0.464690       -12.6449
  54   2.0000      -0.457960       -12.4617
  55   2.0000      -0.453068       -12.3286
  56   2.0000      -0.443104       -12.0575
  57   2.0000      -0.435745       -11.8572
  58   2.0000      -0.432598       -11.7716
  59   2.0000      -0.426963       -11.6182
  60   2.0000      -0.421220       -11.4620
  61   2.0000      -0.420572       -11.4443
  62   2.0000      -0.411459       -11.1964
  63   2.0000      -0.349799        -9.5185
  64   2.0000      -0.334760        -9.1093
  65   2.0000      -0.330733        -8.9997
  66   2.0000      -0.278711        -7.5841
  67   0.0000       0.017094         0.4652
  68   0.0000       0.070278         1.9124
  69   0.0000       0.100919         2.7461
  70   0.0000       0.112100         3.0504
  71   0.0000       0.121793         3.3141

MULLIKEN ATOMIC CHARGES
-----------------------
   0 S :    0.094219
   1 C :   -0.139738
   2 C :   -0.088488
   3 C :    0.051583
   4 C :   -0.103978
   5 H :   -0.068433
   6 C :    0.099356
   7 H :    0.032412
   8 H :    0.012505
   9 C :   -0.090546
  10 H :    0.033171
  11 H :    0.024851
  12 C :   -0.011873
  13 H :    0.028235
  14 H :    0.014992
  15 H :    0.008873
  16 S :    0.112014
  17 C :   -0.096577
  18 C :   -0.023573
  19 C :   -0.064588
  20 C :   -0.124989
  21 H :    0.019325
  22 C :    0.058678
  23 H :    0.016822
  24 H :    0.035993
  25 C :   -0.071271
  26 H :    0.046339
  27 H :    0.028304
  28 C :   -0.063288
  29 H :    0.047207
  30 H :    0.031644
  31 H :    0.030166
  32 H :    0.055680
  33 H :    0.064972
Sum of atomic charges:    0.0000000

LOEWDIN ATOMIC CHARGES
----------------------
   0 S :    0.383217
   1 C :   -0.183411
   2 C :   -0.054579
   3 C :   -0.064249
   4 C :   -0.178621
   5 H :    0.011188
   6 C :   -0.031426
   7 H :    0.034845
   8 H :    0.027482
   9 C :   -0.036148
  10 H :    0.029395
  11 H :    0.019534
  12 C :   -0.063161
  13 H :    0.025066
  14 H :    0.020533
  15 H :    0.018181
  16 S :    0.411125
  17 C :   -0.196338
  18 C :   -0.075448
  19 C :   -0.045126
  20 C :   -0.191747
  21 H :    0.034629
  22 C :   -0.035355
  23 H :    0.028027
  24 H :    0.033533
  25 C :   -0.043430
  26 H :    0.027605
  27 H :    0.027769
  28 C :   -0.075596
  29 H :    0.019215
  30 H :    0.035892
  31 H :    0.032024
  32 H :    0.025495
  33 H :    0.029877

  Mayer bond orders larger than 0.100000
B(  0-S ,  1-C ) :   1.1251 B(  0-S ,  4-C ) :   1.1619 B(  1-C ,  2-C ) :   1.5811
B(  1-C ,  4-C ) :   0.1060 B(  1-C , 32-H ) :   0.9741 B(  2-C ,  3-C ) :   1.2603
B(  2-C ,  6-C ) :   1.0338 B(  3-C ,  4-C ) :   1.5297 B(  3-C ,  5-H ) :   0.9978
B(  4-C , 20-C ) :   1.0605 B(  6-C ,  7-H ) :   0.9312 B(  6-C ,  8-H ) :   0.9386
B(  6-C ,  9-C ) :   1.0827 B(  9-C , 10-H ) :   0.9550 B(  9-C , 11-H ) :   0.9546
B(  9-C , 12-C ) :   1.0828 B( 12-C , 13-H ) :   0.9729 B( 12-C , 14-H ) :   0.9679
B( 12-C , 15-H ) :   0.9728 B( 16-S , 17-C ) :   1.1756 B( 16-S , 20-C ) :   1.1432
B( 17-C , 18-C ) :   1.5784 B( 17-C , 20-C ) :   0.1006 B( 17-C , 33-H ) :   0.9630
B( 18-C , 19-C ) :   1.2653 B( 18-C , 21-H ) :   0.9932 B( 19-C , 20-C ) :   1.5544
B( 19-C , 22-C ) :   1.0481 B( 22-C , 23-H ) :   0.9206 B( 22-C , 24-H ) :   0.9397
B( 22-C , 25-C ) :   1.0512 B( 25-C , 26-H ) :   0.9594 B( 25-C , 27-H ) :   0.9478
B( 25-C , 28-C ) :   1.0828 B( 28-C , 29-H ) :   0.9748 B( 28-C , 30-H ) :   0.9696
B( 28-C , 31-H ) :   0.9644

Dispersion correction           -0.015179048
FINAL SINGLE POINT ENERGY     -1339.866224580101

DIPOLE MOMENT
-------------
                                X             Y             Z
Electronic contribution:    -26.00475       1.23960      16.09694
Nuclear contribution   :     26.53871      -1.60049     -16.40865
                        -----------------------------------------
Total Dipole Moment    :      0.53396      -0.36090      -0.31171
                        -----------------------------------------
Magnitude (a.u.)       :      0.71591
Magnitude (Debye)      :      1.81969

Rotational constants in cm-1:     0.019047     0.009741     0.006949
Rotational constants in MHz :   571.013519   292.026276   208.311000

                             ****ORCA TERMINATED NORMALLY****
TOTAL RUN TIME: 0 days 0 hours 0 minutes 22 seconds 604 msec
