                         Program Version 4.2.1 -  RELEASE  -
|  1> ! wB97X-D3 SP def2-SVP
|  2> %pal
|  3> nprocs 24
|  4> end
|  5>
|  6> * xyz 0 1
|  7> S 	 -41.3152 	 -47.4717 	 -70.8106
|  8> C 	 -39.8879 	 -47.0076 	 -70.0005
|  9> C 	 -39.3348 	 -47.9904 	 -69.1139
| 10> C 	 -40.144 	 -49.1673 	 -69.1155
| 11> C 	 -41.1539 	 -49.0836 	 -70.0356
| 12> H 	 -40.017 	 -50.1375 	 -68.6784
| 13> C 	 -37.9567 	 -47.8188 	 -68.4768
| 14> H 	 -38.1708 	 -47.1127 	 -67.7348
| 15> H 	 -37.4252 	 -47.316 	 -69.268
| 16> C 	 -37.247 	 -49.1531 	 -68.0314
| 17> H 	 -37.8033 	 -49.6379 	 -67.1906
| 18> H 	 -37.0938 	 -49.8428 	 -68.873
| 19> C 	 -35.9001 	 -48.7653 	 -67.5339
| 20> H 	 -35.5086 	 -47.9241 	 -68.1699
| 21> H 	 -35.979 	 -48.38 	 -66.6085
| 22> H 	 -35.1394 	 -49.5567 	 -67.5925
| 23> S 	 -42.4075 	 -50.8623 	 -71.7933
| 24> C 	 -43.2907 	 -52.2348 	 -71.1422
| 25> C 	 -43.4089 	 -52.1569 	 -69.7471
| 26> C 	 -42.8035 	 -50.9521 	 -69.2677
| 27> C 	 -42.0857 	 -50.1579 	 -70.2238
| 28> H 	 -43.9234 	 -52.8421 	 -69.1139
| 29> C 	 -42.7128 	 -50.8106 	 -67.7557
| 30> H 	 -43.7 	 -50.601 	 -67.2292
| 31> H 	 -42.1689 	 -49.9588 	 -67.4508
| 32> C 	 -42.0741 	 -51.9569 	 -66.9029
| 33> H 	 -41.0047 	 -51.8789 	 -67.0551
| 34> H 	 -42.3703 	 -52.959 	 -67.2428
| 35> C 	 -42.439 	 -51.7355 	 -65.4261
| 36> H 	 -41.846 	 -50.9344 	 -65.0219
| 37> H 	 -42.216 	 -52.5805 	 -64.8859
| 38> H 	 -43.5422 	 -51.4867 	 -65.409
| 39> H 	 -39.2442 	 -46.1416 	 -70.1799
| 40> H 	 -43.5686 	 -53.1371 	 -71.6157
| 41> *
| 42>
| 43>                          ****END OF INPUT****

CARTESIAN COORDINATES (ANGSTROEM)
---------------------------------
  S    -41.315200  -47.471700  -70.810600
  C    -39.887900  -47.007600  -70.000500
  C    -39.334800  -47.990400  -69.113900
  C    -40.144000  -49.167300  -69.115500
  C    -41.153900  -49.083600  -70.035600
  H    -40.017000  -50.137500  -68.678400
  C    -37.956700  -47.818800  -68.476800
  H    -38.170800  -47.112700  -67.734800
  H    -37.425200  -47.316000  -69.268000
  C    -37.247000  -49.153100  -68.031400
  H    -37.803300  -49.637900  -67.190600
  H    -37.093800  -49.842800  -68.873000
  C    -35.900100  -48.765300  -67.533900
  H    -35.508600  -47.924100  -68.169900
  H    -35.979000  -48.380000  -66.608500
  H    -35.139400  -49.556700  -67.592500
  S    -42.407500  -50.862300  -71.793300
  C    -43.290700  -52.234800  -71.142200
  C    -43.408900  -52.156900  -69.747100
  C    -42.803500  -50.952100  -69.267700
  C    -42.085700  -50.157900  -70.223800
  H    -43.923400  -52.842100  -69.113900
  C    -42.712800  -50.810600  -67.755700
  H    -43.700000  -50.601000  -67.229200
  H    -42.168900  -49.958800  -67.450800
  C    -42.074100  -51.956900  -66.902900
  H    -41.004700  -51.878900  -67.055100
  H    -42.370300  -52.959000  -67.242800
  C    -42.439000  -51.735500  -65.426100
  H    -41.846000  -50.934400  -65.021900
  H    -42.216000  -52.580500  -64.885900
  H    -43.542200  -51.486700  -65.409000
  H    -39.244200  -46.141600  -70.179900
  H    -43.568600  -53.137100  -71.615700

 Total Charge           Charge          ....    0
 Multiplicity           Mult            ....    1
 Number of Electrons    NEL             ....  134
 Basis Dimension        Dim             ....  322

ORBITAL ENERGIES
----------------

  NO   OCC          E(Eh)            E(eV)
   0   2.0000     -88.972399     -2421.0621
   1   2.0000     -88.967776     -2420.9363
   2   2.0000     -10.328297      -281.0472
   3   2.0000     -10.326499      -280.9983
   4   2.0000     -10.317936      -280.7653
   5   2.0000     -10.311547      -280.5915
   6   2.0000     -10.305351      -280.4229
   7   2.0000     -10.303967      -280.3852
   8   2.0000     -10.295272      -280.1486
   9   2.0000     -10.293729      -280.1066
  10   2.0000     -10.292955      -280.0855
  11   2.0000     -10.292581      -280.0754
  12   2.0000     -10.286586      -279.9122
  13   2.0000     -10.286026      -279.8970
  14   2.0000     -10.275524      -279.6112
  15   2.0000     -10.270922      -279.4860
  16   2.0000      -8.086606      -220.0477
  17   2.0000      -8.081972      -219.9217
  18   2.0000      -6.045006      -164.4930
  19   2.0000      -6.041355      -164.3936
  20   2.0000      -6.040516      -164.3708
  21   2.0000      -6.037364      -164.2850
  22   2.0000      -6.036335      -164.2570
  23   2.0000      -6.032946      -164.1648
  24   2.0000      -1.002496       -27.2793
  25   2.0000      -0.978924       -26.6379
  26   2.0000      -0.915991       -24.9254
  27   2.0000      -0.905947       -24.6521
  28   2.0000      -0.873441       -23.7675
  29   2.0000      -0.858399       -23.3582
  30   2.0000      -0.847902       -23.0726
  31   2.0000      -0.817185       -22.2367
  32   2.0000      -0.778309       -21.1789
  33   2.0000      -0.761278       -20.7154
  34   2.0000      -0.713431       -19.4134
  35   2.0000      -0.697503       -18.9800
  36   2.0000      -0.690583       -18.7917
  37   2.0000      -0.659351       -17.9418
  38   2.0000      -0.642387       -17.4802
  39   2.0000      -0.617137       -16.7932
  40   2.0000      -0.598179       -16.2773
  41   2.0000      -0.582249       -15.8438
  42   2.0000      -0.565808       -15.3964
  43   2.0000      -0.564187       -15.3523
  44   2.0000      -0.534292       -14.5388
  45   2.0000      -0.524039       -14.2598
  46   2.0000      -0.515459       -14.0263
  47   2.0000      -0.512338       -13.9414
  48   2.0000      -0.504676       -13.7329
  49   2.0000      -0.497905       -13.5487
  50   2.0000      -0.486854       -13.2480
  51   2.0000      -0.470374       -12.7995
  52   2.0000      -0.470068       -12.7912
  53   2.0000      -0.462173       -12.5764
  54   2.0000      -0.459904       -12.5146
  55   2.0000      -0.454593       -12.3701
  56   2.0000      -0.444107       -12.0848
  57   2.0000      -0.441142       -12.0041
  58   2.0000      -0.435046       -11.8382
  59   2.0000      -0.432480       -11.7684
  60   2.0000      -0.420683       -11.4474
  61   2.0000      -0.416964       -11.3462
  62   2.0000      -0.413636       -11.2556
  63   2.0000      -0.348344        -9.4789
  64   2.0000      -0.332269        -9.0415
  65   2.0000      -0.323484        -8.8025
  66   2.0000      -0.283990        -7.7278
  67   0.0000       0.025853         0.7035
  68   0.0000       0.063984         1.7411
  69   0.0000       0.114255         3.1090
  70   0.0000       0.121656         3.3104
  71   0.0000       0.124208         3.3799

MULLIKEN ATOMIC CHARGES
-----------------------
   0 S :    0.138876
   1 C :   -0.114706
   2 C :   -0.113112
   3 C :    0.006474
   4 C :   -0.141398
   5 H :    0.015805
   6 C :    0.066868
   7 H :    0.033754
   8 H :    0.029706
   9 C :   -0.093143
  10 H :    0.044964
  11 H :    0.045581
  12 C :    0.004314
  13 H :    0.020024
  14 H :    0.003671
  15 H :    0.034604
  16 S :    0.113745
  17 C :   -0.069901
  18 C :   -0.034364
  19 C :    0.002337
  20 C :   -0.164554
  21 H :    0.020715
  22 C :   -0.002834
  23 H :    0.027335
  24 H :    0.007002
  25 C :   -0.086407
  26 H :    0.023937
  27 H :    0.025084
  28 C :   -0.023260
  29 H :    0.031157
  30 H :    0.019416
  31 H :    0.038988
  32 H :    0.042609
  33 H :    0.046712
Sum of atomic charges:   -0.0000000

LOEWDIN ATOMIC CHARGES
----------------------
   0 S :    0.412937
   1 C :   -0.227603
   2 C :   -0.056074
   3 C :   -0.055004
   4 C :   -0.184126
   5 H :    0.033761
   6 C :   -0.027971
   7 H :    0.029796
   8 H :    0.033216
   9 C :   -0.039134
  10 H :    0.030432
  11 H :    0.030884
  12 C :   -0.058144
  13 H :    0.029849
  14 H :    0.008183
  15 H :    0.027222
  16 S :    0.412761
  17 C :   -0.180863
  18 C :   -0.062113
  19 C :   -0.054258
  20 C :   -0.209145
  21 H :    0.029202
  22 C :   -0.044931
  23 H :    0.033053
  24 H :    0.019621
  25 C :   -0.036313
  26 H :    0.018119
  27 H :    0.017198
  28 C :   -0.055378
  29 H :    0.025229
  30 H :    0.014641
  31 H :    0.032917
  32 H :    0.027501
  33 H :    0.024536

  Mayer bond orders larger than 0.100000
B(  0-S ,  1-C ) :   1.1482 B(  0-S ,  4-C ) :   1.1322 B(  1-C ,  2-C ) :   1.6088
B(  1-C ,  4-C ) :   0.1012 B(  1-C , 32-H ) :   0.9610 B(  2-C ,  3-C ) :   1.2359
B(  2-C ,  6-C ) :   0.9838 B(  3-C ,  4-C ) :   1.5731 B(  3-C ,  5-H ) :   0.9962
B(  4-C , 20-C ) :   1.0691 B(  6-C ,  7-H ) :   0.9328 B(  6-C ,  8-H ) :   0.9423
B(  6-C ,  9-C ) :   1.0818 B(  9-C , 10-H ) :   0.9505 B(  9-C , 11-H ) :   0.9571
B(  9-C , 12-C ) :   1.0893 B( 12-C , 13-H ) :   0.9690 B( 12-C , 14-H ) :   0.9725
B( 12-C , 15-H ) :   0.9728 B( 16-S , 17-C ) :   1.1707 B( 16-S , 20-C ) :   1.1336
B( 17-C , 18-C ) :   1.5695 B( 17-C , 20-C ) :   0.1010 B( 17-C , 33-H ) :   0.9701
B( 18-C , 19-C ) :   1.2764 B( 18-C , 21-H ) :   0.9924 B( 19-C , 20-C ) :   1.5323
B( 19-C , 22-C ) :   1.0536 B( 22-C , 23-H ) :   0.9363 B( 22-C , 24-H ) :   0.9395
B( 22-C , 25-C ) :   1.0476 B( 25-C , 26-H ) :   0.9541 B( 25-C , 27-H ) :   0.9578
B( 25-C , 28-C ) :   1.0781 B( 28-C , 29-H ) :   0.9764 B( 28-C , 30-H ) :   0.9722
B( 28-C , 31-H ) :   0.9745

Dispersion correction           -0.013936772
FINAL SINGLE POINT ENERGY     -1339.846755917601

DIPOLE MOMENT
-------------
                                X             Y             Z
Electronic contribution:    -15.41725       6.28009     -26.57079
Nuclear contribution   :     15.92711      -6.56563      27.18956
                        -----------------------------------------
Total Dipole Moment    :      0.50986      -0.28554       0.61877
                        -----------------------------------------
Magnitude (a.u.)       :      0.85110
Magnitude (Debye)      :      2.16332

Rotational constants in cm-1:     0.015542     0.009253     0.006778
Rotational constants in MHz :   465.938935   277.397954   203.208788

                             ****ORCA TERMINATED NORMALLY****
TOTAL RUN TIME: 0 days 0 hours 0 minutes 20 seconds 457 msec
