                         Program Version 4.2.1 -  RELEASE  -
|  1> ! wB97X-D3 SP def2-SVP
|  2> %pal
|  3> nprocs 24
|  4> end
|  5>
|  6> * xyz 0 1
|  7> S 	 -17.2308 	 -29.5192 	 -101.591
|  8> C 	 -18.2303 	 -28.4919 	 -102.624
|  9> C 	 -19.3087 	 -29.1475 	 -103.174
| 10> C 	 -19.1848 	 -30.5502 	 -102.941
| 11> C 	 -18.1336 	 -30.9042 	 -102.123
| 12> H 	 -19.8045 	 -31.3293 	 -103.349
| 13> C 	 -20.2638 	 -28.5158 	 -104.132
| 14> H 	 -20.1169 	 -29.0674 	 -105.12
| 15> H 	 -19.9252 	 -27.4848 	 -104.271
| 16> C 	 -21.7604 	 -28.6256 	 -103.818
| 17> H 	 -22.3603 	 -28.3506 	 -104.694
| 18> H 	 -22.0926 	 -29.6606 	 -103.531
| 19> C 	 -22.2512 	 -27.6469 	 -102.724
| 20> H 	 -22.9723 	 -26.9341 	 -103.212
| 21> H 	 -22.9124 	 -28.1514 	 -102.002
| 22> H 	 -21.4963 	 -27.0035 	 -102.249
| 23> S 	 -16.3412 	 -32.9616 	 -101.958
| 24> C 	 -16.9895 	 -34.5545 	 -101.61
| 25> C 	 -18.3189 	 -34.5035 	 -101.255
| 26> C 	 -18.8874 	 -33.1744 	 -101.291
| 27> C 	 -17.9036 	 -32.2667 	 -101.724
| 28> H 	 -18.7337 	 -35.4535 	 -100.909
| 29> C 	 -20.3614 	 -32.9434 	 -101.141
| 30> H 	 -20.9095 	 -33.2435 	 -102.043
| 31> H 	 -20.6173 	 -31.9408 	 -100.899
| 32> C 	 -21.0515 	 -33.725 	 -100.014
| 33> H 	 -21.0682 	 -34.7791 	 -100.305
| 34> H 	 -22.117 	 -33.4002 	 -100.07
| 35> C 	 -20.6159 	 -33.2753 	 -98.5789
| 36> H 	 -19.5222 	 -33.4815 	 -98.404
| 37> H 	 -21.139 	 -33.7153 	 -97.6622
| 38> H 	 -20.7997 	 -32.1622 	 -98.6371
| 39> H 	 -18.034 	 -27.5175 	 -102.915
| 40> H 	 -16.4218 	 -35.4866 	 -101.513
| 41> *
| 42>
| 43>                          ****END OF INPUT****

CARTESIAN COORDINATES (ANGSTROEM)
---------------------------------
  S    -17.230800  -29.519200  -101.591000
  C    -18.230300  -28.491900  -102.624000
  C    -19.308700  -29.147500  -103.174000
  C    -19.184800  -30.550200  -102.941000
  C    -18.133600  -30.904200  -102.123000
  H    -19.804500  -31.329300  -103.349000
  C    -20.263800  -28.515800  -104.132000
  H    -20.116900  -29.067400  -105.120000
  H    -19.925200  -27.484800  -104.271000
  C    -21.760400  -28.625600  -103.818000
  H    -22.360300  -28.350600  -104.694000
  H    -22.092600  -29.660600  -103.531000
  C    -22.251200  -27.646900  -102.724000
  H    -22.972300  -26.934100  -103.212000
  H    -22.912400  -28.151400  -102.002000
  H    -21.496300  -27.003500  -102.249000
  S    -16.341200  -32.961600  -101.958000
  C    -16.989500  -34.554500  -101.610000
  C    -18.318900  -34.503500  -101.255000
  C    -18.887400  -33.174400  -101.291000
  C    -17.903600  -32.266700  -101.724000
  H    -18.733700  -35.453500  -100.909000
  C    -20.361400  -32.943400  -101.141000
  H    -20.909500  -33.243500  -102.043000
  H    -20.617300  -31.940800  -100.899000
  C    -21.051500  -33.725000  -100.014000
  H    -21.068200  -34.779100  -100.305000
  H    -22.117000  -33.400200  -100.070000
  C    -20.615900  -33.275300  -98.578900
  H    -19.522200  -33.481500  -98.404000
  H    -21.139000  -33.715300  -97.662200
  H    -20.799700  -32.162200  -98.637100
  H    -18.034000  -27.517500  -102.915000
  H    -16.421800  -35.486600  -101.513000

 Total Charge           Charge          ....    0
 Multiplicity           Mult            ....    1
 Number of Electrons    NEL             ....  134
 Basis Dimension        Dim             ....  322

ORBITAL ENERGIES
----------------

  NO   OCC          E(Eh)            E(eV)
   0   2.0000     -88.967668     -2420.9333
   1   2.0000     -88.966583     -2420.9038
   2   2.0000     -10.323888      -280.9273
   3   2.0000     -10.322075      -280.8779
   4   2.0000     -10.317058      -280.7414
   5   2.0000     -10.307490      -280.4811
   6   2.0000     -10.306949      -280.4663
   7   2.0000     -10.299149      -280.2541
   8   2.0000     -10.297737      -280.2157
   9   2.0000     -10.295299      -280.1493
  10   2.0000     -10.293995      -280.1139
  11   2.0000     -10.291546      -280.0472
  12   2.0000     -10.291012      -280.0327
  13   2.0000     -10.290165      -280.0096
  14   2.0000     -10.288428      -279.9624
  15   2.0000     -10.280655      -279.7509
  16   2.0000      -8.082702      -219.9415
  17   2.0000      -8.081225      -219.9013
  18   2.0000      -6.041184      -164.3890
  19   2.0000      -6.039776      -164.3507
  20   2.0000      -6.037198      -164.2805
  21   2.0000      -6.035856      -164.2440
  22   2.0000      -6.033458      -164.1787
  23   2.0000      -6.031850      -164.1350
  24   2.0000      -1.008562       -27.4444
  25   2.0000      -0.983887       -26.7729
  26   2.0000      -0.912336       -24.8259
  27   2.0000      -0.910826       -24.7848
  28   2.0000      -0.870585       -23.6898
  29   2.0000      -0.849346       -23.1119
  30   2.0000      -0.842529       -22.9264
  31   2.0000      -0.812230       -22.1019
  32   2.0000      -0.782497       -21.2928
  33   2.0000      -0.772057       -21.0087
  34   2.0000      -0.710830       -19.3427
  35   2.0000      -0.693299       -18.8656
  36   2.0000      -0.692062       -18.8320
  37   2.0000      -0.650708       -17.7067
  38   2.0000      -0.638639       -17.3782
  39   2.0000      -0.621660       -16.9162
  40   2.0000      -0.600018       -16.3273
  41   2.0000      -0.564925       -15.3724
  42   2.0000      -0.560432       -15.2501
  43   2.0000      -0.550669       -14.9845
  44   2.0000      -0.537833       -14.6352
  45   2.0000      -0.531575       -14.4649
  46   2.0000      -0.519311       -14.1312
  47   2.0000      -0.512001       -13.9322
  48   2.0000      -0.504054       -13.7160
  49   2.0000      -0.490189       -13.3387
  50   2.0000      -0.483959       -13.1692
  51   2.0000      -0.475439       -12.9373
  52   2.0000      -0.469218       -12.7681
  53   2.0000      -0.464653       -12.6439
  54   2.0000      -0.458388       -12.4734
  55   2.0000      -0.447662       -12.1815
  56   2.0000      -0.444266       -12.0891
  57   2.0000      -0.439776       -11.9669
  58   2.0000      -0.435019       -11.8375
  59   2.0000      -0.426043       -11.5932
  60   2.0000      -0.419543       -11.4163
  61   2.0000      -0.413772       -11.2593
  62   2.0000      -0.410497       -11.1702
  63   2.0000      -0.344625        -9.3777
  64   2.0000      -0.330219        -8.9857
  65   2.0000      -0.328871        -8.9490
  66   2.0000      -0.292381        -7.9561
  67   0.0000       0.029764         0.8099
  68   0.0000       0.076658         2.0860
  69   0.0000       0.112810         3.0697
  70   0.0000       0.118776         3.2320
  71   0.0000       0.122956         3.3458

MULLIKEN ATOMIC CHARGES
-----------------------
   0 S :    0.117209
   1 C :   -0.095632
   2 C :   -0.054423
   3 C :    0.012052
   4 C :   -0.142989
   5 H :    0.007011
   6 C :    0.040413
   7 H :    0.048119
   8 H :    0.020005
   9 C :   -0.078294
  10 H :    0.035344
  11 H :    0.037813
  12 C :   -0.077285
  13 H :    0.026412
  14 H :    0.034469
  15 H :    0.044466
  16 S :    0.121321
  17 C :   -0.102148
  18 C :   -0.058169
  19 C :   -0.001923
  20 C :   -0.169815
  21 H :    0.026649
  22 C :    0.047355
  23 H :    0.047813
  24 H :    0.021120
  25 C :   -0.094486
  26 H :    0.031197
  27 H :    0.030967
  28 C :   -0.095848
  29 H :    0.051727
  30 H :    0.055173
  31 H :    0.041751
  32 H :    0.012439
  33 H :    0.060186
Sum of atomic charges:   -0.0000000

LOEWDIN ATOMIC CHARGES
----------------------
   0 S :    0.398036
   1 C :   -0.182079
   2 C :   -0.061670
   3 C :   -0.055625
   4 C :   -0.199863
   5 H :    0.028498
   6 C :   -0.034188
   7 H :    0.044105
   8 H :    0.029431
   9 C :   -0.047916
  10 H :    0.028051
  11 H :    0.028766
  12 C :   -0.078113
  13 H :    0.029263
  14 H :    0.027863
  15 H :    0.026572
  16 S :    0.415710
  17 C :   -0.189779
  18 C :   -0.072227
  19 C :   -0.052756
  20 C :   -0.206754
  21 H :    0.034245
  22 C :   -0.033956
  23 H :    0.037947
  24 H :    0.025057
  25 C :   -0.046961
  26 H :    0.016386
  27 H :    0.029261
  28 C :   -0.080459
  29 H :    0.029521
  30 H :    0.034555
  31 H :    0.033866
  32 H :    0.011365
  33 H :    0.033850

  Mayer bond orders larger than 0.100000
B(  0-S ,  1-C ) :   1.1249 B(  0-S ,  4-C ) :   1.1383 B(  1-C ,  2-C ) :   1.6212
B(  1-C , 32-H ) :   0.9703 B(  2-C ,  3-C ) :   1.2120 B(  2-C ,  6-C ) :   1.0343
B(  3-C ,  4-C ) :   1.5898 B(  3-C ,  5-H ) :   0.9958 B(  4-C , 20-C ) :   1.0482
B(  6-C ,  7-H ) :   0.9377 B(  6-C ,  8-H ) :   0.9435 B(  6-C ,  9-C ) :   1.0693
B(  9-C , 10-H ) :   0.9648 B(  9-C , 11-H ) :   0.9639 B(  9-C , 12-C ) :   1.0463
B( 12-C , 13-H ) :   0.9828 B( 12-C , 14-H ) :   0.9786 B( 12-C , 15-H ) :   0.9819
B( 16-S , 17-C ) :   1.1418 B( 16-S , 20-C ) :   1.1523 B( 17-C , 18-C ) :   1.6472
B( 17-C , 33-H ) :   0.9624 B( 18-C , 19-C ) :   1.2046 B( 18-C , 21-H ) :   0.9846
B( 19-C , 20-C ) :   1.5787 B( 19-C , 22-C ) :   1.0547 B( 22-C , 23-H ) :   0.9308
B( 22-C , 24-H ) :   0.9290 B( 22-C , 25-C ) :   1.0788 B( 25-C , 26-H ) :   0.9527
B( 25-C , 27-H ) :   0.9575 B( 25-C , 28-C ) :   1.0484 B( 28-C , 29-H ) :   0.9772
B( 28-C , 30-H ) :   0.9766 B( 28-C , 31-H ) :   0.9712

Dispersion correction           -0.014377436
FINAL SINGLE POINT ENERGY     -1339.876264267348

DIPOLE MOMENT
-------------
                                X             Y             Z
Electronic contribution:     28.40148      -3.67189      -2.22649
Nuclear contribution   :    -29.08756       3.52953       1.99765
                        -----------------------------------------
Total Dipole Moment    :     -0.68608      -0.14236      -0.22885
                        -----------------------------------------
Magnitude (a.u.)       :      0.73712
Magnitude (Debye)      :      1.87360

Rotational constants in cm-1:     0.018151     0.009168     0.007035
Rotational constants in MHz :   544.159271   274.853581   210.906383

                             ****ORCA TERMINATED NORMALLY****
TOTAL RUN TIME: 0 days 0 hours 0 minutes 22 seconds 75 msec
