                         Program Version 4.2.1 -  RELEASE  -
|  1> ! wB97X-D3 SP def2-SVP
|  2> %pal
|  3> nprocs 24
|  4> end
|  5>
|  6> * xyz 0 1
|  7> S 	 -42.4172 	 10.0121 	 24.8641
|  8> C 	 -42.2613 	 10.9121 	 26.3461
|  9> C 	 -41.5114 	 10.2445 	 27.278
| 10> C 	 -40.8983 	 9.10814 	 26.7013
| 11> C 	 -41.1334 	 8.9107 	 25.3978
| 12> H 	 -40.3122 	 8.34397 	 27.1321
| 13> C 	 -41.23 	 10.7473 	 28.6572
| 14> H 	 -41.3546 	 11.8065 	 28.5001
| 15> H 	 -40.1671 	 10.5585 	 28.9839
| 16> C 	 -42.2561 	 10.3484 	 29.7448
| 17> H 	 -42.0775 	 11.0136 	 30.5375
| 18> H 	 -43.2044 	 10.8019 	 29.3271
| 19> C 	 -42.4236 	 8.86606 	 30.0755
| 20> H 	 -41.6497 	 8.43579 	 30.7229
| 21> H 	 -43.4101 	 8.63213 	 30.444
| 22> H 	 -42.357 	 8.36666 	 29.1498
| 23> S 	 -39.0077 	 7.96495 	 23.8063
| 24> C 	 -39.1082 	 6.38666 	 23.0879
| 25> C 	 -40.3537 	 5.84856 	 23.3865
| 26> C 	 -41.2156 	 6.69373 	 24.0755
| 27> C 	 -40.5925 	 7.82379 	 24.5291
| 28> H 	 -40.6536 	 4.93659 	 22.8413
| 29> C 	 -42.7045 	 6.39748 	 24.1883
| 30> H 	 -42.9226 	 6.23279 	 23.1257
| 31> H 	 -43.2863 	 7.36076 	 24.4702
| 32> C 	 -42.9571 	 5.24767 	 25.2083
| 33> H 	 -42.4115 	 4.40665 	 24.8897
| 34> H 	 -44.0083 	 4.8247 	 25.216
| 35> C 	 -42.6577 	 5.71516 	 26.6591
| 36> H 	 -42.1947 	 4.89167 	 27.1541
| 37> H 	 -43.5348 	 6.08679 	 27.2147
| 38> H 	 -42.0579 	 6.59415 	 26.7219
| 39> H 	 -42.824 	 11.7533 	 26.6873
| 40> H 	 -38.2337 	 5.83278 	 22.5673
| 41> *
| 42>
| 43>                          ****END OF INPUT****

CARTESIAN COORDINATES (ANGSTROEM)
---------------------------------
  S    -42.417200   10.012100   24.864100
  C    -42.261300   10.912100   26.346100
  C    -41.511400   10.244500   27.278000
  C    -40.898300    9.108140   26.701300
  C    -41.133400    8.910700   25.397800
  H    -40.312200    8.343970   27.132100
  C    -41.230000   10.747300   28.657200
  H    -41.354600   11.806500   28.500100
  H    -40.167100   10.558500   28.983900
  C    -42.256100   10.348400   29.744800
  H    -42.077500   11.013600   30.537500
  H    -43.204400   10.801900   29.327100
  C    -42.423600    8.866060   30.075500
  H    -41.649700    8.435790   30.722900
  H    -43.410100    8.632130   30.444000
  H    -42.357000    8.366660   29.149800
  S    -39.007700    7.964950   23.806300
  C    -39.108200    6.386660   23.087900
  C    -40.353700    5.848560   23.386500
  C    -41.215600    6.693730   24.075500
  C    -40.592500    7.823790   24.529100
  H    -40.653600    4.936590   22.841300
  C    -42.704500    6.397480   24.188300
  H    -42.922600    6.232790   23.125700
  H    -43.286300    7.360760   24.470200
  C    -42.957100    5.247670   25.208300
  H    -42.411500    4.406650   24.889700
  H    -44.008300    4.824700   25.216000
  C    -42.657700    5.715160   26.659100
  H    -42.194700    4.891670   27.154100
  H    -43.534800    6.086790   27.214700
  H    -42.057900    6.594150   26.721900
  H    -42.824000   11.753300   26.687300
  H    -38.233700    5.832780   22.567300

 Total Charge           Charge          ....    0
 Multiplicity           Mult            ....    1
 Number of Electrons    NEL             ....  134
 Basis Dimension        Dim             ....  322

ORBITAL ENERGIES
----------------

  NO   OCC          E(Eh)            E(eV)
   0   2.0000     -88.966225     -2420.8941
   1   2.0000     -88.965697     -2420.8797
   2   2.0000     -10.326719      -281.0043
   3   2.0000     -10.325243      -280.9641
   4   2.0000     -10.323807      -280.9251
   5   2.0000     -10.311230      -280.5828
   6   2.0000     -10.298411      -280.2340
   7   2.0000     -10.296967      -280.1947
   8   2.0000     -10.296509      -280.1822
   9   2.0000     -10.293386      -280.0973
  10   2.0000     -10.291554      -280.0474
  11   2.0000     -10.288744      -279.9710
  12   2.0000     -10.287591      -279.9396
  13   2.0000     -10.285415      -279.8804
  14   2.0000     -10.275409      -279.6081
  15   2.0000     -10.269462      -279.4463
  16   2.0000      -8.080615      -219.8847
  17   2.0000      -8.080481      -219.8811
  18   2.0000      -6.039004      -164.3296
  19   2.0000      -6.038981      -164.3290
  20   2.0000      -6.035234      -164.2271
  21   2.0000      -6.035046      -164.2219
  22   2.0000      -6.031530      -164.1263
  23   2.0000      -6.031091      -164.1143
  24   2.0000      -1.011296       -27.5188
  25   2.0000      -0.992571       -27.0092
  26   2.0000      -0.913386       -24.8545
  27   2.0000      -0.904394       -24.6098
  28   2.0000      -0.868478       -23.6325
  29   2.0000      -0.849747       -23.1228
  30   2.0000      -0.845888       -23.0178
  31   2.0000      -0.820232       -22.3197
  32   2.0000      -0.784198       -21.3391
  33   2.0000      -0.773453       -21.0467
  34   2.0000      -0.706337       -19.2204
  35   2.0000      -0.705409       -19.1951
  36   2.0000      -0.695336       -18.9211
  37   2.0000      -0.658568       -17.9206
  38   2.0000      -0.643551       -17.5119
  39   2.0000      -0.614192       -16.7130
  40   2.0000      -0.589855       -16.0508
  41   2.0000      -0.575084       -15.6488
  42   2.0000      -0.554110       -15.0781
  43   2.0000      -0.548696       -14.9308
  44   2.0000      -0.539350       -14.6765
  45   2.0000      -0.531775       -14.4703
  46   2.0000      -0.520504       -14.1636
  47   2.0000      -0.514315       -13.9952
  48   2.0000      -0.497632       -13.5413
  49   2.0000      -0.497066       -13.5258
  50   2.0000      -0.490189       -13.3387
  51   2.0000      -0.482366       -13.1258
  52   2.0000      -0.475821       -12.9477
  53   2.0000      -0.469468       -12.7749
  54   2.0000      -0.458028       -12.4636
  55   2.0000      -0.442981       -12.0541
  56   2.0000      -0.438935       -11.9440
  57   2.0000      -0.435356       -11.8466
  58   2.0000      -0.432925       -11.7805
  59   2.0000      -0.426442       -11.6041
  60   2.0000      -0.423153       -11.5146
  61   2.0000      -0.416378       -11.3302
  62   2.0000      -0.405533       -11.0351
  63   2.0000      -0.337951        -9.1961
  64   2.0000      -0.332507        -9.0480
  65   2.0000      -0.325057        -8.8453
  66   2.0000      -0.308406        -8.3922
  67   0.0000       0.041124         1.1191
  68   0.0000       0.055077         1.4987
  69   0.0000       0.109351         2.9756
  70   0.0000       0.118418         3.2223
  71   0.0000       0.129114         3.5134

MULLIKEN ATOMIC CHARGES
-----------------------
   0 S :    0.109458
   1 C :   -0.090918
   2 C :   -0.096103
   3 C :    0.068258
   4 C :   -0.182075
   5 H :    0.000456
   6 C :    0.038692
   7 H :    0.017277
   8 H :    0.042720
   9 C :   -0.056516
  10 H :    0.016005
  11 H :    0.011440
  12 C :    0.004393
  13 H :    0.038288
  14 H :    0.033054
  15 H :    0.011139
  16 S :    0.119683
  17 C :   -0.140407
  18 C :   -0.046291
  19 C :   -0.026369
  20 C :   -0.191792
  21 H :    0.029726
  22 C :    0.033290
  23 H :    0.039867
  24 H :    0.039041
  25 C :   -0.052720
  26 H :    0.015575
  27 H :    0.035834
  28 C :   -0.026926
  29 H :    0.033158
  30 H :    0.033396
  31 H :    0.009379
  32 H :    0.032386
  33 H :    0.097597
Sum of atomic charges:    0.0000000

LOEWDIN ATOMIC CHARGES
----------------------
   0 S :    0.398171
   1 C :   -0.190571
   2 C :   -0.069157
   3 C :   -0.058114
   4 C :   -0.181071
   5 H :    0.027104
   6 C :   -0.033779
   7 H :    0.032753
   8 H :    0.034219
   9 C :   -0.038851
  10 H :    0.015057
  11 H :    0.027880
  12 C :   -0.062414
  13 H :    0.029799
  14 H :    0.029285
  15 H :    0.022262
  16 S :    0.419329
  17 C :   -0.205734
  18 C :   -0.084967
  19 C :   -0.062675
  20 C :   -0.210127
  21 H :    0.035200
  22 C :   -0.035476
  23 H :    0.034137
  24 H :    0.029548
  25 C :   -0.037640
  26 H :    0.014052
  27 H :    0.030482
  28 C :   -0.064385
  29 H :    0.025753
  30 H :    0.030921
  31 H :    0.020136
  32 H :    0.024734
  33 H :    0.054138

  Mayer bond orders larger than 0.100000
B(  0-S ,  1-C ) :   1.1404 B(  0-S ,  4-C ) :   1.1234 B(  1-C ,  2-C ) :   1.6397
B(  1-C , 32-H ) :   0.9579 B(  2-C ,  3-C ) :   1.2037 B(  2-C ,  6-C ) :   1.0105
B(  3-C ,  4-C ) :   1.6328 B(  3-C ,  5-H ) :   0.9949 B(  4-C , 20-C ) :   0.9968
B(  6-C ,  7-H ) :   0.9345 B(  6-C ,  8-H ) :   0.9495 B(  6-C ,  9-C ) :   1.0774
B(  9-C , 10-H ) :   0.9565 B(  9-C , 11-H ) :   0.9513 B(  9-C , 12-C ) :   1.0652
B( 12-C , 13-H ) :   0.9740 B( 12-C , 14-H ) :   0.9722 B( 12-C , 15-H ) :   0.9731
B( 16-S , 17-C ) :   1.1750 B( 16-S , 20-C ) :   1.1613 B( 17-C , 18-C ) :   1.5835
B( 17-C , 20-C ) :   0.1050 B( 17-C , 33-H ) :   0.9545 B( 18-C , 19-C ) :   1.2819
B( 18-C , 21-H ) :   0.9781 B( 19-C , 20-C ) :   1.5755 B( 19-C , 22-C ) :   1.0118
B( 22-C , 23-H ) :   0.9413 B( 22-C , 24-H ) :   0.9404 B( 22-C , 25-C ) :   1.0584
B( 25-C , 26-H ) :   0.9666 B( 25-C , 27-H ) :   0.9588 B( 25-C , 28-C ) :   1.0530
B( 28-C , 29-H ) :   0.9723 B( 28-C , 30-H ) :   0.9726 B( 28-C , 31-H ) :   0.9817

Dispersion correction           -0.016141065
FINAL SINGLE POINT ENERGY     -1339.862145208365

DIPOLE MOMENT
-------------
                                X             Y             Z
Electronic contribution:     11.43742       7.77841     -21.23584
Nuclear contribution   :    -11.60277      -8.04258      21.58651
                        -----------------------------------------
Total Dipole Moment    :     -0.16535      -0.26416       0.35067
                        -----------------------------------------
Magnitude (a.u.)       :      0.46914
Magnitude (Debye)      :      1.19246

Rotational constants in cm-1:     0.020601     0.009066     0.007841
Rotational constants in MHz :   617.607362   271.789939   235.061943

                             ****ORCA TERMINATED NORMALLY****
TOTAL RUN TIME: 0 days 0 hours 0 minutes 21 seconds 643 msec
