                         Program Version 4.2.1 -  RELEASE  -
|  1> ! wB97X-D3 SP def2-SVP
|  2> %pal
|  3> nprocs 24
|  4> end
|  5>
|  6> * xyz 0 1
|  7> S 	 -107.586 	 52.8311 	 -87.8755
|  8> C 	 -108.308 	 51.7801 	 -86.683
|  9> C 	 -109.246 	 52.4089 	 -85.8749
| 10> C 	 -109.467 	 53.7751 	 -86.2123
| 11> C 	 -108.578 	 54.1837 	 -87.1987
| 12> H 	 -110.119 	 54.5105 	 -85.7961
| 13> C 	 -110.076 	 51.6954 	 -84.8329
| 14> H 	 -110.85 	 52.4521 	 -84.5331
| 15> H 	 -109.403 	 51.4939 	 -84.0095
| 16> C 	 -110.83 	 50.4347 	 -85.3201
| 17> H 	 -110.191 	 49.6267 	 -85.1375
| 18> H 	 -111.665 	 50.1764 	 -84.6233
| 19> C 	 -111.408 	 50.4315 	 -86.6646
| 20> H 	 -110.583 	 50.5833 	 -87.3178
| 21> H 	 -111.861 	 49.4932 	 -87.0469
| 22> H 	 -112.204 	 51.145 	 -86.8154
| 23> S 	 -106.796 	 56.0881 	 -87.5692
| 24> C 	 -107.235 	 57.7254 	 -88.051
| 25> C 	 -108.589 	 57.8524 	 -88.0548
| 26> C 	 -109.286 	 56.6339 	 -87.8312
| 27> C 	 -108.422 	 55.5078 	 -87.6145
| 28> H 	 -108.926 	 58.8883 	 -88.1941
| 29> C 	 -110.806 	 56.7397 	 -87.5896
| 30> H 	 -110.931 	 57.6357 	 -87.0142
| 31> H 	 -111.231 	 55.9373 	 -86.9772
| 32> C 	 -111.676 	 56.8227 	 -88.8363
| 33> H 	 -111.689 	 55.8889 	 -89.3514
| 34> H 	 -111.208 	 57.5496 	 -89.4969
| 35> C 	 -113.08 	 57.2701 	 -88.5877
| 36> H 	 -113.12 	 58.2578 	 -88.1016
| 37> H 	 -113.76 	 56.4953 	 -88.1459
| 38> H 	 -113.581 	 57.4204 	 -89.5501
| 39> H 	 -108.155 	 50.7048 	 -86.6562
| 40> H 	 -106.665 	 58.5886 	 -88.095
| 41> *
| 42>
| 43>                          ****END OF INPUT****

CARTESIAN COORDINATES (ANGSTROEM)
---------------------------------
  S    -107.586000   52.831100  -87.875500
  C    -108.308000   51.780100  -86.683000
  C    -109.246000   52.408900  -85.874900
  C    -109.467000   53.775100  -86.212300
  C    -108.578000   54.183700  -87.198700
  H    -110.119000   54.510500  -85.796100
  C    -110.076000   51.695400  -84.832900
  H    -110.850000   52.452100  -84.533100
  H    -109.403000   51.493900  -84.009500
  C    -110.830000   50.434700  -85.320100
  H    -110.191000   49.626700  -85.137500
  H    -111.665000   50.176400  -84.623300
  C    -111.408000   50.431500  -86.664600
  H    -110.583000   50.583300  -87.317800
  H    -111.861000   49.493200  -87.046900
  H    -112.204000   51.145000  -86.815400
  S    -106.796000   56.088100  -87.569200
  C    -107.235000   57.725400  -88.051000
  C    -108.589000   57.852400  -88.054800
  C    -109.286000   56.633900  -87.831200
  C    -108.422000   55.507800  -87.614500
  H    -108.926000   58.888300  -88.194100
  C    -110.806000   56.739700  -87.589600
  H    -110.931000   57.635700  -87.014200
  H    -111.231000   55.937300  -86.977200
  C    -111.676000   56.822700  -88.836300
  H    -111.689000   55.888900  -89.351400
  H    -111.208000   57.549600  -89.496900
  C    -113.080000   57.270100  -88.587700
  H    -113.120000   58.257800  -88.101600
  H    -113.760000   56.495300  -88.145900
  H    -113.581000   57.420400  -89.550100
  H    -108.155000   50.704800  -86.656200
  H    -106.665000   58.588600  -88.095000

 Total Charge           Charge          ....    0
 Multiplicity           Mult            ....    1
 Number of Electrons    NEL             ....  134
 Basis Dimension        Dim             ....  322

ORBITAL ENERGIES
----------------

  NO   OCC          E(Eh)            E(eV)
   0   2.0000     -88.972159     -2421.0555
   1   2.0000     -88.963318     -2420.8150
   2   2.0000     -10.329949      -281.0922
   3   2.0000     -10.326436      -280.9966
   4   2.0000     -10.314385      -280.6687
   5   2.0000     -10.308442      -280.5070
   6   2.0000     -10.307606      -280.4842
   7   2.0000     -10.301403      -280.3154
   8   2.0000     -10.295599      -280.1575
   9   2.0000     -10.294477      -280.1269
  10   2.0000     -10.291513      -280.0463
  11   2.0000     -10.288877      -279.9746
  12   2.0000     -10.281022      -279.7608
  13   2.0000     -10.279112      -279.7089
  14   2.0000     -10.277003      -279.6515
  15   2.0000     -10.268386      -279.4170
  16   2.0000      -8.085775      -220.0251
  17   2.0000      -8.078226      -219.8197
  18   2.0000      -6.044326      -164.4745
  19   2.0000      -6.040536      -164.3713
  20   2.0000      -6.036805      -164.2698
  21   2.0000      -6.036466      -164.2606
  22   2.0000      -6.032587      -164.1550
  23   2.0000      -6.028993      -164.0572
  24   2.0000      -1.008181       -27.4340
  25   2.0000      -0.981695       -26.7133
  26   2.0000      -0.916843       -24.9486
  27   2.0000      -0.910946       -24.7881
  28   2.0000      -0.878910       -23.9164
  29   2.0000      -0.857133       -23.3238
  30   2.0000      -0.846701       -23.0399
  31   2.0000      -0.817250       -22.2385
  32   2.0000      -0.783652       -21.3242
  33   2.0000      -0.769948       -20.9514
  34   2.0000      -0.713514       -19.4157
  35   2.0000      -0.704396       -19.1676
  36   2.0000      -0.691838       -18.8259
  37   2.0000      -0.662186       -18.0190
  38   2.0000      -0.639135       -17.3918
  39   2.0000      -0.613580       -16.6963
  40   2.0000      -0.593216       -16.1422
  41   2.0000      -0.574365       -15.6293
  42   2.0000      -0.569434       -15.4951
  43   2.0000      -0.562537       -15.3074
  44   2.0000      -0.545816       -14.8524
  45   2.0000      -0.520706       -14.1691
  46   2.0000      -0.519852       -14.1459
  47   2.0000      -0.510635       -13.8951
  48   2.0000      -0.504630       -13.7317
  49   2.0000      -0.499610       -13.5951
  50   2.0000      -0.496210       -13.5025
  51   2.0000      -0.481911       -13.1135
  52   2.0000      -0.476104       -12.9555
  53   2.0000      -0.468967       -12.7612
  54   2.0000      -0.456335       -12.4175
  55   2.0000      -0.452327       -12.3084
  56   2.0000      -0.443946       -12.0804
  57   2.0000      -0.441817       -12.0225
  58   2.0000      -0.431466       -11.7408
  59   2.0000      -0.419779       -11.4228
  60   2.0000      -0.414267       -11.2728
  61   2.0000      -0.411818       -11.2061
  62   2.0000      -0.405034       -11.0215
  63   2.0000      -0.355936        -9.6855
  64   2.0000      -0.333533        -9.0759
  65   2.0000      -0.326400        -8.8818
  66   2.0000      -0.282538        -7.6882
  67   0.0000       0.021174         0.5762
  68   0.0000       0.067066         1.8250
  69   0.0000       0.106191         2.8896
  70   0.0000       0.111235         3.0269
  71   0.0000       0.133870         3.6428

MULLIKEN ATOMIC CHARGES
-----------------------
   0 S :    0.126315
   1 C :   -0.118243
   2 C :   -0.116775
   3 C :    0.025021
   4 C :   -0.149708
   5 H :    0.012334
   6 C :    0.095081
   7 H :    0.024891
   8 H :    0.047252
   9 C :   -0.083672
  10 H :    0.008132
  11 H :    0.025823
  12 C :   -0.007819
  13 H :    0.016795
  14 H :    0.028975
  15 H :    0.026015
  16 S :    0.096978
  17 C :   -0.054608
  18 C :   -0.071906
  19 C :   -0.003380
  20 C :   -0.151199
  21 H :    0.029690
  22 C :    0.057705
  23 H :    0.015374
  24 H :    0.013038
  25 C :   -0.053090
  26 H :    0.026350
  27 H :    0.018581
  28 C :   -0.060074
  29 H :    0.033424
  30 H :    0.038053
  31 H :    0.026608
  32 H :    0.051430
  33 H :    0.026610
Sum of atomic charges:    0.0000000

LOEWDIN ATOMIC CHARGES
----------------------
   0 S :    0.392092
   1 C :   -0.201991
   2 C :   -0.063159
   3 C :   -0.048259
   4 C :   -0.178702
   5 H :    0.030438
   6 C :   -0.028328
   7 H :    0.033681
   8 H :    0.037191
   9 C :   -0.048544
  10 H :    0.014790
  11 H :    0.029892
  12 C :   -0.066801
  13 H :    0.020502
  14 H :    0.032495
  15 H :    0.024373
  16 S :    0.417429
  17 C :   -0.180842
  18 C :   -0.073318
  19 C :   -0.058535
  20 C :   -0.204991
  21 H :    0.038423
  22 C :   -0.030659
  23 H :    0.027203
  24 H :    0.023885
  25 C :   -0.041609
  26 H :    0.023921
  27 H :    0.022723
  28 C :   -0.073441
  29 H :    0.026273
  30 H :    0.029418
  31 H :    0.028831
  32 H :    0.027361
  33 H :    0.018261

  Mayer bond orders larger than 0.100000
B(  0-S ,  1-C ) :   1.1280 B(  0-S ,  4-C ) :   1.1318 B(  1-C ,  2-C ) :   1.6108
B(  1-C , 32-H ) :   0.9643 B(  2-C ,  3-C ) :   1.2366 B(  2-C ,  6-C ) :   1.0113
B(  3-C ,  4-C ) :   1.5702 B(  3-C ,  5-H ) :   0.9917 B(  4-C , 20-C ) :   1.0996
B(  6-C ,  7-H ) :   0.9429 B(  6-C ,  8-H ) :   0.9380 B(  6-C ,  9-C ) :   1.0631
B(  9-C , 10-H ) :   0.9490 B(  9-C , 11-H ) :   0.9540 B(  9-C , 12-C ) :   1.0987
B( 12-C , 13-H ) :   0.9604 B( 12-C , 14-H ) :   0.9670 B( 12-C , 15-H ) :   0.9726
B( 16-S , 17-C ) :   1.1426 B( 16-S , 20-C ) :   1.1580 B( 17-C , 18-C ) :   1.6290
B( 17-C , 20-C ) :   0.1047 B( 17-C , 33-H ) :   0.9705 B( 18-C , 19-C ) :   1.2488
B( 18-C , 21-H ) :   0.9850 B( 19-C , 20-C ) :   1.5348 B( 19-C , 22-C ) :   1.0316
B( 22-C , 23-H ) :   0.9394 B( 22-C , 24-H ) :   0.9386 B( 22-C , 25-C ) :   1.0700
B( 25-C , 26-H ) :   0.9495 B( 25-C , 27-H ) :   0.9549 B( 25-C , 28-C ) :   1.0992
B( 28-C , 29-H ) :   0.9709 B( 28-C , 30-H ) :   0.9712 B( 28-C , 31-H ) :   0.9693

Dispersion correction           -0.013969384
FINAL SINGLE POINT ENERGY     -1339.859952032267

DIPOLE MOMENT
-------------
                                X             Y             Z
Electronic contribution:     28.13085       3.73324      -3.21054
Nuclear contribution   :    -28.73357      -3.64879       3.49507
                        -----------------------------------------
Total Dipole Moment    :     -0.60273       0.08445       0.28452
                        -----------------------------------------
Magnitude (a.u.)       :      0.67184
Magnitude (Debye)      :      1.70768

Rotational constants in cm-1:     0.017719     0.008996     0.006547
Rotational constants in MHz :   531.202861   269.698919   196.282445

                             ****ORCA TERMINATED NORMALLY****
TOTAL RUN TIME: 0 days 0 hours 0 minutes 21 seconds 510 msec
