                         Program Version 4.2.1 -  RELEASE  -
|  1> ! wB97X-D3 SP def2-SVP
|  2> %pal
|  3> nprocs 24
|  4> end
|  5>
|  6> * xyz 0 1
|  7> S 	 -90.6083 	 -30.8881 	 -60.3911
|  8> C 	 -89.7461 	 -29.9559 	 -61.552
|  9> C 	 -88.7171 	 -29.1694 	 -60.9433
| 10> C 	 -88.7287 	 -29.287 	 -59.5597
| 11> C 	 -89.7044 	 -30.1491 	 -59.1121
| 12> H 	 -87.9888 	 -28.9638 	 -58.906
| 13> C 	 -87.929 	 -28.2104 	 -61.7655
| 14> H 	 -87.5363 	 -28.7834 	 -62.5861
| 15> H 	 -87.012 	 -27.7972 	 -61.3048
| 16> C 	 -88.7033 	 -26.9971 	 -62.3902
| 17> H 	 -88.0289 	 -26.6691 	 -63.2194
| 18> H 	 -89.5758 	 -27.4494 	 -62.8517
| 19> C 	 -89.251 	 -25.9622 	 -61.4785
| 20> H 	 -88.4857 	 -25.2841 	 -61.092
| 21> H 	 -89.9754 	 -25.339 	 -61.937
| 22> H 	 -89.9015 	 -26.4531 	 -60.6999
| 23> S 	 -89.5827 	 -32.3704 	 -57.5192
| 24> C 	 -89.8511 	 -32.1307 	 -55.8115
| 25> C 	 -89.8241 	 -30.8274 	 -55.4442
| 26> C 	 -89.9373 	 -29.9806 	 -56.5731
| 27> C 	 -89.8666 	 -30.6422 	 -57.7451
| 28> H 	 -90.032 	 -30.443 	 -54.4544
| 29> C 	 -89.8707 	 -28.4877 	 -56.4314
| 30> H 	 -90.4884 	 -28.0601 	 -57.2289
| 31> H 	 -88.8212 	 -28.2156 	 -56.5868
| 32> C 	 -90.2328 	 -27.8201 	 -55.1407
| 33> H 	 -90.0198 	 -26.7273 	 -55.2334
| 34> H 	 -89.5479 	 -28.1675 	 -54.3895
| 35> C 	 -91.6833 	 -28.029 	 -54.6704
| 36> H 	 -91.7312 	 -27.7287 	 -53.6881
| 37> H 	 -91.9619 	 -29.0545 	 -54.6193
| 38> H 	 -92.3285 	 -27.3545 	 -55.213
| 39> H 	 -90.0422 	 -29.9849 	 -62.5781
| 40> H 	 -90.2711 	 -32.9071 	 -55.2108
| 41> *
| 42>
| 43>                          ****END OF INPUT****

CARTESIAN COORDINATES (ANGSTROEM)
---------------------------------
  S    -90.608300  -30.888100  -60.391100
  C    -89.746100  -29.955900  -61.552000
  C    -88.717100  -29.169400  -60.943300
  C    -88.728700  -29.287000  -59.559700
  C    -89.704400  -30.149100  -59.112100
  H    -87.988800  -28.963800  -58.906000
  C    -87.929000  -28.210400  -61.765500
  H    -87.536300  -28.783400  -62.586100
  H    -87.012000  -27.797200  -61.304800
  C    -88.703300  -26.997100  -62.390200
  H    -88.028900  -26.669100  -63.219400
  H    -89.575800  -27.449400  -62.851700
  C    -89.251000  -25.962200  -61.478500
  H    -88.485700  -25.284100  -61.092000
  H    -89.975400  -25.339000  -61.937000
  H    -89.901500  -26.453100  -60.699900
  S    -89.582700  -32.370400  -57.519200
  C    -89.851100  -32.130700  -55.811500
  C    -89.824100  -30.827400  -55.444200
  C    -89.937300  -29.980600  -56.573100
  C    -89.866600  -30.642200  -57.745100
  H    -90.032000  -30.443000  -54.454400
  C    -89.870700  -28.487700  -56.431400
  H    -90.488400  -28.060100  -57.228900
  H    -88.821200  -28.215600  -56.586800
  C    -90.232800  -27.820100  -55.140700
  H    -90.019800  -26.727300  -55.233400
  H    -89.547900  -28.167500  -54.389500
  C    -91.683300  -28.029000  -54.670400
  H    -91.731200  -27.728700  -53.688100
  H    -91.961900  -29.054500  -54.619300
  H    -92.328500  -27.354500  -55.213000
  H    -90.042200  -29.984900  -62.578100
  H    -90.271100  -32.907100  -55.210800

 Total Charge           Charge          ....    0
 Multiplicity           Mult            ....    1
 Number of Electrons    NEL             ....  134
 Basis Dimension        Dim             ....  322

ORBITAL ENERGIES
----------------

  NO   OCC          E(Eh)            E(eV)
   0   2.0000     -88.968926     -2420.9676
   1   2.0000     -88.959107     -2420.7004
   2   2.0000     -10.321789      -280.8702
   3   2.0000     -10.315929      -280.7107
   4   2.0000     -10.313531      -280.6454
   5   2.0000     -10.310002      -280.5494
   6   2.0000     -10.301057      -280.3060
   7   2.0000     -10.291748      -280.0527
   8   2.0000     -10.288231      -279.9570
   9   2.0000     -10.287208      -279.9292
  10   2.0000     -10.286521      -279.9105
  11   2.0000     -10.286492      -279.9097
  12   2.0000     -10.284649      -279.8595
  13   2.0000     -10.284341      -279.8512
  14   2.0000     -10.274728      -279.5896
  15   2.0000     -10.266416      -279.3634
  16   2.0000      -8.084338      -219.9860
  17   2.0000      -8.074362      -219.7146
  18   2.0000      -6.042517      -164.4253
  19   2.0000      -6.038598      -164.3186
  20   2.0000      -6.035588      -164.2367
  21   2.0000      -6.032854      -164.1623
  22   2.0000      -6.029050      -164.0588
  23   2.0000      -6.024849      -163.9445
  24   2.0000      -1.012052       -27.5393
  25   2.0000      -0.989271       -26.9194
  26   2.0000      -0.914548       -24.8861
  27   2.0000      -0.911517       -24.8036
  28   2.0000      -0.868144       -23.6234
  29   2.0000      -0.859226       -23.3807
  30   2.0000      -0.848734       -23.0952
  31   2.0000      -0.817960       -22.2578
  32   2.0000      -0.790603       -21.5134
  33   2.0000      -0.773114       -21.0375
  34   2.0000      -0.702398       -19.1132
  35   2.0000      -0.698540       -19.0082
  36   2.0000      -0.692049       -18.8316
  37   2.0000      -0.661290       -17.9946
  38   2.0000      -0.649488       -17.6735
  39   2.0000      -0.615955       -16.7610
  40   2.0000      -0.599352       -16.3092
  41   2.0000      -0.575619       -15.6634
  42   2.0000      -0.562052       -15.2942
  43   2.0000      -0.548838       -14.9346
  44   2.0000      -0.543993       -14.8028
  45   2.0000      -0.538938       -14.6652
  46   2.0000      -0.519525       -14.1370
  47   2.0000      -0.514422       -13.9981
  48   2.0000      -0.507593       -13.8123
  49   2.0000      -0.497277       -13.5316
  50   2.0000      -0.489421       -13.3178
  51   2.0000      -0.483818       -13.1653
  52   2.0000      -0.470891       -12.8136
  53   2.0000      -0.466183       -12.6855
  54   2.0000      -0.456864       -12.4319
  55   2.0000      -0.450347       -12.2546
  56   2.0000      -0.443915       -12.0796
  57   2.0000      -0.441375       -12.0104
  58   2.0000      -0.431482       -11.7412
  59   2.0000      -0.425139       -11.5686
  60   2.0000      -0.422881       -11.5072
  61   2.0000      -0.412020       -11.2116
  62   2.0000      -0.406822       -11.0702
  63   2.0000      -0.345818        -9.4102
  64   2.0000      -0.330427        -8.9914
  65   2.0000      -0.324988        -8.8434
  66   2.0000      -0.291571        -7.9341
  67   0.0000       0.027987         0.7616
  68   0.0000       0.067050         1.8245
  69   0.0000       0.109821         2.9884
  70   0.0000       0.124255         3.3812
  71   0.0000       0.131995         3.5918

MULLIKEN ATOMIC CHARGES
-----------------------
   0 S :    0.132972
   1 C :   -0.134442
   2 C :   -0.067921
   3 C :    0.061040
   4 C :   -0.188230
   5 H :   -0.006878
   6 C :    0.060671
   7 H :    0.021682
   8 H :    0.018183
   9 C :   -0.079307
  10 H :    0.034308
  11 H :    0.012027
  12 C :   -0.026667
  13 H :    0.032594
  14 H :    0.020142
  15 H :    0.041865
  16 S :    0.093721
  17 C :   -0.086021
  18 C :   -0.020945
  19 C :   -0.073129
  20 C :   -0.134326
  21 H :    0.019532
  22 C :    0.076656
  23 H :    0.031175
  24 H :    0.039580
  25 C :   -0.113269
  26 H :    0.033824
  27 H :    0.017954
  28 C :    0.013041
  29 H :    0.004027
  30 H :    0.026975
  31 H :    0.031936
  32 H :    0.048918
  33 H :    0.058314
Sum of atomic charges:    0.0000000

LOEWDIN ATOMIC CHARGES
----------------------
   0 S :    0.441492
   1 C :   -0.203822
   2 C :   -0.061190
   3 C :   -0.051204
   4 C :   -0.203728
   5 H :    0.025718
   6 C :   -0.038677
   7 H :    0.031837
   8 H :    0.028275
   9 C :   -0.041915
  10 H :    0.028136
  11 H :    0.020241
  12 C :   -0.070572
  13 H :    0.024677
  14 H :    0.022867
  15 H :    0.038640
  16 S :    0.386678
  17 C :   -0.173577
  18 C :   -0.070970
  19 C :   -0.063408
  20 C :   -0.194026
  21 H :    0.029677
  22 C :   -0.035482
  23 H :    0.033142
  24 H :    0.036669
  25 C :   -0.045041
  26 H :    0.033433
  27 H :    0.016066
  28 C :   -0.056624
  29 H :    0.017525
  30 H :    0.022352
  31 H :    0.028244
  32 H :    0.019684
  33 H :    0.024884

  Mayer bond orders larger than 0.100000
B(  0-S ,  1-C ) :   1.1776 B(  0-S ,  4-C ) :   1.1847 B(  1-C ,  2-C ) :   1.5196
B(  1-C ,  4-C ) :   0.1120 B(  1-C , 32-H ) :   0.9760 B(  2-C ,  3-C ) :   1.2941
B(  2-C ,  6-C ) :   1.0357 B(  3-C ,  4-C ) :   1.5203 B(  3-C ,  5-H ) :   1.0064
B(  4-C , 20-C ) :   1.0126 B(  6-C ,  7-H ) :   0.9286 B(  6-C ,  8-H ) :   0.9449
B(  6-C ,  9-C ) :   1.0708 B(  9-C , 10-H ) :   0.9542 B(  9-C , 11-H ) :   0.9534
B(  9-C , 12-C ) :   1.0882 B( 12-C , 13-H ) :   0.9734 B( 12-C , 14-H ) :   0.9687
B( 12-C , 15-H ) :   0.9660 B( 16-S , 17-C ) :   1.1488 B( 16-S , 20-C ) :   1.1271
B( 17-C , 18-C ) :   1.6164 B( 17-C , 33-H ) :   0.9650 B( 18-C , 19-C ) :   1.2365
B( 18-C , 21-H ) :   0.9758 B( 19-C , 20-C ) :   1.6594 B( 19-C , 22-C ) :   1.0401
B( 22-C , 23-H ) :   0.9260 B( 22-C , 24-H ) :   0.9259 B( 22-C , 25-C ) :   1.0947
B( 25-C , 26-H ) :   0.9495 B( 25-C , 27-H ) :   0.9438 B( 25-C , 28-C ) :   1.0884
B( 28-C , 29-H ) :   0.9682 B( 28-C , 30-H ) :   0.9717 B( 28-C , 31-H ) :   0.9730

Dispersion correction           -0.014499747
FINAL SINGLE POINT ENERGY     -1339.866651599557

DIPOLE MOMENT
-------------
                                X             Y             Z
Electronic contribution:     -0.97980     -26.67050      -2.66418
Nuclear contribution   :      1.05204      27.27763       2.72430
                        -----------------------------------------
Total Dipole Moment    :      0.07223       0.60713       0.06011
                        -----------------------------------------
Magnitude (a.u.)       :      0.61436
Magnitude (Debye)      :      1.56158

Rotational constants in cm-1:     0.019465     0.008832     0.006698
Rotational constants in MHz :   583.550772   264.786604   200.814103

                             ****ORCA TERMINATED NORMALLY****
TOTAL RUN TIME: 0 days 0 hours 0 minutes 22 seconds 131 msec
