                         Program Version 4.2.1 -  RELEASE  -
|  1> ! wB97X-D3 SP def2-SVP
|  2> %pal
|  3> nprocs 24
|  4> end
|  5>
|  6> * xyz 0 1
|  7> S 	 -52.9206 	 11.0167 	 -102.677
|  8> C 	 -54.3035 	 10.2095 	 -103.248
|  9> C 	 -55.2815 	 11.0896 	 -103.677
| 10> C 	 -54.7775 	 12.4163 	 -103.65
| 11> C 	 -53.4309 	 12.5615 	 -103.316
| 12> H 	 -55.3392 	 13.2651 	 -103.832
| 13> C 	 -56.7458 	 10.8543 	 -104.145
| 14> H 	 -56.7933 	 9.89206 	 -104.719
| 15> H 	 -57.0303 	 11.6947 	 -104.823
| 16> C 	 -57.6952 	 10.9266 	 -103.019
| 17> H 	 -57.5718 	 9.9372 	 -102.521
| 18> H 	 -57.4404 	 11.7385 	 -102.297
| 19> C 	 -59.1338 	 11.0209 	 -103.534
| 20> H 	 -59.8392 	 11.4337 	 -102.774
| 21> H 	 -59.155 	 11.6878 	 -104.373
| 22> H 	 -59.3952 	 10.0308 	 -103.737
| 23> S 	 -51.9871 	 13.9665 	 -101.346
| 24> C 	 -51.2095 	 15.4599 	 -101.695
| 25> C 	 -51.5422 	 15.8875 	 -102.999
| 26> C 	 -52.3429 	 14.9275 	 -103.722
| 27> C 	 -52.6466 	 13.7807 	 -102.997
| 28> H 	 -51.38 	 16.8073 	 -103.344
| 29> C 	 -52.8359 	 15.2845 	 -105.129
| 30> H 	 -53.4664 	 14.5303 	 -105.458
| 31> H 	 -51.987 	 15.4792 	 -105.841
| 32> C 	 -53.7136 	 16.5467 	 -105.165
| 33> H 	 -54.1563 	 16.6185 	 -106.235
| 34> H 	 -53.1378 	 17.3783 	 -105.003
| 35> C 	 -54.9062 	 16.5944 	 -104.16
| 36> H 	 -55.3851 	 17.5102 	 -104.424
| 37> H 	 -54.638 	 16.6754 	 -103.11
| 38> H 	 -55.6618 	 15.7923 	 -104.177
| 39> H 	 -54.4122 	 9.09753 	 -103.244
| 40> H 	 -50.7243 	 16.0589 	 -100.974
| 41> *
| 42>
| 43>                          ****END OF INPUT****

CARTESIAN COORDINATES (ANGSTROEM)
---------------------------------
  S    -52.920600   11.016700  -102.677000
  C    -54.303500   10.209500  -103.248000
  C    -55.281500   11.089600  -103.677000
  C    -54.777500   12.416300  -103.650000
  C    -53.430900   12.561500  -103.316000
  H    -55.339200   13.265100  -103.832000
  C    -56.745800   10.854300  -104.145000
  H    -56.793300    9.892060  -104.719000
  H    -57.030300   11.694700  -104.823000
  C    -57.695200   10.926600  -103.019000
  H    -57.571800    9.937200  -102.521000
  H    -57.440400   11.738500  -102.297000
  C    -59.133800   11.020900  -103.534000
  H    -59.839200   11.433700  -102.774000
  H    -59.155000   11.687800  -104.373000
  H    -59.395200   10.030800  -103.737000
  S    -51.987100   13.966500  -101.346000
  C    -51.209500   15.459900  -101.695000
  C    -51.542200   15.887500  -102.999000
  C    -52.342900   14.927500  -103.722000
  C    -52.646600   13.780700  -102.997000
  H    -51.380000   16.807300  -103.344000
  C    -52.835900   15.284500  -105.129000
  H    -53.466400   14.530300  -105.458000
  H    -51.987000   15.479200  -105.841000
  C    -53.713600   16.546700  -105.165000
  H    -54.156300   16.618500  -106.235000
  H    -53.137800   17.378300  -105.003000
  C    -54.906200   16.594400  -104.160000
  H    -55.385100   17.510200  -104.424000
  H    -54.638000   16.675400  -103.110000
  H    -55.661800   15.792300  -104.177000
  H    -54.412200    9.097530  -103.244000
  H    -50.724300   16.058900  -100.974000

 Total Charge           Charge          ....    0
 Multiplicity           Mult            ....    1
 Number of Electrons    NEL             ....  134
 Basis Dimension        Dim             ....  322

ORBITAL ENERGIES
----------------

  NO   OCC          E(Eh)            E(eV)
   0   2.0000     -88.965629     -2420.8778
   1   2.0000     -88.964653     -2420.8513
   2   2.0000     -10.332587      -281.1640
   3   2.0000     -10.331584      -281.1367
   4   2.0000     -10.318492      -280.7805
   5   2.0000     -10.317140      -280.7437
   6   2.0000     -10.304159      -280.3904
   7   2.0000     -10.302126      -280.3351
   8   2.0000     -10.298754      -280.2433
   9   2.0000     -10.290145      -280.0091
  10   2.0000     -10.290139      -280.0089
  11   2.0000     -10.288321      -279.9594
  12   2.0000     -10.288023      -279.9514
  13   2.0000     -10.285565      -279.8845
  14   2.0000     -10.276158      -279.6285
  15   2.0000     -10.274892      -279.5940
  16   2.0000      -8.080408      -219.8791
  17   2.0000      -8.080176      -219.8728
  18   2.0000      -6.038889      -164.3265
  19   2.0000      -6.038724      -164.3220
  20   2.0000      -6.034680      -164.2120
  21   2.0000      -6.034603      -164.2099
  22   2.0000      -6.031216      -164.1177
  23   2.0000      -6.031008      -164.1121
  24   2.0000      -1.007772       -27.4229
  25   2.0000      -0.984909       -26.8007
  26   2.0000      -0.920836       -25.0572
  27   2.0000      -0.907854       -24.7040
  28   2.0000      -0.868119       -23.6227
  29   2.0000      -0.851503       -23.1706
  30   2.0000      -0.843014       -22.9396
  31   2.0000      -0.812328       -22.1046
  32   2.0000      -0.786012       -21.3885
  33   2.0000      -0.776042       -21.1172
  34   2.0000      -0.703576       -19.1453
  35   2.0000      -0.695554       -18.9270
  36   2.0000      -0.691590       -18.8191
  37   2.0000      -0.664896       -18.0927
  38   2.0000      -0.646081       -17.5808
  39   2.0000      -0.623586       -16.9686
  40   2.0000      -0.600079       -16.3290
  41   2.0000      -0.579244       -15.7620
  42   2.0000      -0.569475       -15.4962
  43   2.0000      -0.551895       -15.0178
  44   2.0000      -0.538486       -14.6530
  45   2.0000      -0.524528       -14.2731
  46   2.0000      -0.519399       -14.1336
  47   2.0000      -0.514600       -14.0030
  48   2.0000      -0.503212       -13.6931
  49   2.0000      -0.502420       -13.6715
  50   2.0000      -0.498820       -13.5736
  51   2.0000      -0.478721       -13.0267
  52   2.0000      -0.471393       -12.8273
  53   2.0000      -0.464156       -12.6303
  54   2.0000      -0.461109       -12.5474
  55   2.0000      -0.449222       -12.2239
  56   2.0000      -0.443932       -12.0800
  57   2.0000      -0.436971       -11.8906
  58   2.0000      -0.430351       -11.7104
  59   2.0000      -0.425783       -11.5861
  60   2.0000      -0.419256       -11.4085
  61   2.0000      -0.415734       -11.3127
  62   2.0000      -0.411763       -11.2046
  63   2.0000      -0.349970        -9.5232
  64   2.0000      -0.329660        -8.9705
  65   2.0000      -0.326299        -8.8790
  66   2.0000      -0.292412        -7.9569
  67   0.0000       0.030570         0.8319
  68   0.0000       0.063986         1.7411
  69   0.0000       0.110153         2.9974
  70   0.0000       0.122974         3.3463
  71   0.0000       0.128221         3.4891

MULLIKEN ATOMIC CHARGES
-----------------------
   0 S :    0.107553
   1 C :   -0.135197
   2 C :   -0.075443
   3 C :    0.057219
   4 C :   -0.138066
   5 H :   -0.034248
   6 C :    0.034744
   7 H :    0.040309
   8 H :    0.023085
   9 C :   -0.102212
  10 H :    0.028399
  11 H :    0.044274
  12 C :   -0.005687
  13 H :    0.040158
  14 H :    0.022745
  15 H :    0.023264
  16 S :    0.102765
  17 C :   -0.073822
  18 C :    0.019701
  19 C :   -0.066434
  20 C :   -0.159583
  21 H :   -0.036944
  22 C :    0.126475
  23 H :   -0.000449
  24 H :    0.045732
  25 C :   -0.103544
  26 H :    0.042757
  27 H :    0.014016
  28 C :   -0.058307
  29 H :    0.025257
  30 H :    0.040967
  31 H :    0.035259
  32 H :    0.063476
  33 H :    0.051779
Sum of atomic charges:   -0.0000000

LOEWDIN ATOMIC CHARGES
----------------------
   0 S :    0.430844
   1 C :   -0.213981
   2 C :   -0.066738
   3 C :   -0.051123
   4 C :   -0.196763
   5 H :    0.013556
   6 C :   -0.032725
   7 H :    0.035072
   8 H :    0.028442
   9 C :   -0.049818
  10 H :    0.027736
  11 H :    0.028488
  12 C :   -0.057621
  13 H :    0.032874
  14 H :    0.019181
  15 H :    0.020192
  16 S :    0.404835
  17 C :   -0.182655
  18 C :   -0.054760
  19 C :   -0.053309
  20 C :   -0.194333
  21 H :    0.004529
  22 C :   -0.026680
  23 H :    0.017014
  24 H :    0.040476
  25 C :   -0.032428
  26 H :    0.036145
  27 H :    0.007033
  28 C :   -0.069764
  29 H :    0.025084
  30 H :    0.027241
  31 H :    0.022854
  32 H :    0.037870
  33 H :    0.023230

  Mayer bond orders larger than 0.100000
B(  0-S ,  1-C ) :   1.1734 B(  0-S ,  4-C ) :   1.1592 B(  1-C ,  2-C ) :   1.5733
B(  1-C , 32-H ) :   0.9640 B(  2-C ,  3-C ) :   1.2857 B(  2-C ,  6-C ) :   1.0102
B(  3-C ,  4-C ) :   1.5380 B(  3-C ,  5-H ) :   1.0029 B(  4-C , 20-C ) :   1.0287
B(  6-C ,  7-H ) :   0.9436 B(  6-C ,  8-H ) :   0.9441 B(  6-C ,  9-C ) :   1.0636
B(  9-C , 10-H ) :   0.9553 B(  9-C , 11-H ) :   0.9588 B(  9-C , 12-C ) :   1.0686
B( 12-C , 13-H ) :   0.9749 B( 12-C , 14-H ) :   0.9761 B( 12-C , 15-H ) :   0.9762
B( 16-S , 17-C ) :   1.1716 B( 16-S , 20-C ) :   1.1360 B( 17-C , 18-C ) :   1.5682
B( 17-C , 33-H ) :   0.9744 B( 18-C , 19-C ) :   1.2520 B( 18-C , 21-H ) :   1.0087
B( 19-C , 20-C ) :   1.6017 B( 19-C , 22-C ) :   1.0489 B( 22-C , 23-H ) :   0.9296
B( 22-C , 24-H ) :   0.9378 B( 22-C , 25-C ) :   1.0683 B( 25-C , 26-H ) :   0.9596
B( 25-C , 27-H ) :   0.9556 B( 25-C , 28-C ) :   1.0697 B( 28-C , 29-H ) :   0.9716
B( 28-C , 30-H ) :   0.9717 B( 28-C , 31-H ) :   0.9766

Dispersion correction           -0.014433932
FINAL SINGLE POINT ENERGY     -1339.860870412807

DIPOLE MOMENT
-------------
                                X             Y             Z
Electronic contribution:     24.68061      -7.53529      11.96147
Nuclear contribution   :    -25.27485       7.85351     -12.18934
                        -----------------------------------------
Total Dipole Moment    :     -0.59425       0.31822      -0.22787
                        -----------------------------------------
Magnitude (a.u.)       :      0.71156
Magnitude (Debye)      :      1.80865

Rotational constants in cm-1:     0.019279     0.008491     0.006701
Rotational constants in MHz :   577.958399   254.548362   200.877484

                             ****ORCA TERMINATED NORMALLY****
TOTAL RUN TIME: 0 days 0 hours 0 minutes 21 seconds 733 msec
