                         Program Version 4.2.1 -  RELEASE  -
|  1> ! wB97X-D3 SP def2-SVP
|  2> %pal
|  3> nprocs 24
|  4> end
|  5>
|  6> * xyz 0 1
|  7> S 	 -131.613 	 8.37528 	 -8.29983
|  8> C 	 -130.154 	 7.4473 	 -8.43772
|  9> C 	 -129.488 	 7.80921 	 -9.62429
| 10> C 	 -130.172 	 8.70456 	 -10.4946
| 11> C 	 -131.308 	 9.16709 	 -9.91379
| 12> H 	 -129.813 	 9.18745 	 -11.3745
| 13> C 	 -128.184 	 7.22316 	 -10.0987
| 14> H 	 -128.395 	 6.7167 	 -11.0057
| 15> H 	 -127.986 	 6.3664 	 -9.53
| 16> C 	 -126.941 	 8.22245 	 -10.0965
| 17> H 	 -126.128 	 7.67619 	 -10.5165
| 18> H 	 -127.147 	 9.07368 	 -10.805
| 19> C 	 -126.725 	 8.75126 	 -8.7097
| 20> H 	 -127.569 	 9.26638 	 -8.26385
| 21> H 	 -126.396 	 8.0372 	 -7.97485
| 22> H 	 -125.918 	 9.48576 	 -8.79161
| 23> S 	 -132.892 	 11.3498 	 -9.32807
| 24> C 	 -133.758 	 12.1736 	 -10.5975
| 25> C 	 -133.445 	 11.6657 	 -11.8329
| 26> C 	 -132.557 	 10.4741 	 -11.774
| 27> C 	 -132.267 	 10.1693 	 -10.462
| 28> H 	 -133.849 	 12.0907 	 -12.6872
| 29> C 	 -132.132 	 9.6569 	 -13.0197
| 30> H 	 -132.046 	 8.57949 	 -12.8697
| 31> H 	 -131.082 	 10.0297 	 -13.022
| 32> C 	 -132.866 	 10.0116 	 -14.2506
| 33> H 	 -132.646 	 10.999 	 -14.5164
| 34> H 	 -133.957 	 9.87569 	 -14.2298
| 35> C 	 -132.315 	 9.20876 	 -15.3775
| 36> H 	 -132.832 	 9.53898 	 -16.2996
| 37> H 	 -132.403 	 8.12518 	 -15.3598
| 38> H 	 -131.287 	 9.60014 	 -15.6525
| 39> H 	 -129.757 	 6.71966 	 -7.75383
| 40> H 	 -134.441 	 13.0158 	 -10.3951
| 41> *
| 42>
| 43>                          ****END OF INPUT****

CARTESIAN COORDINATES (ANGSTROEM)
---------------------------------
  S    -131.613000    8.375280   -8.299830
  C    -130.154000    7.447300   -8.437720
  C    -129.488000    7.809210   -9.624290
  C    -130.172000    8.704560  -10.494600
  C    -131.308000    9.167090   -9.913790
  H    -129.813000    9.187450  -11.374500
  C    -128.184000    7.223160  -10.098700
  H    -128.395000    6.716700  -11.005700
  H    -127.986000    6.366400   -9.530000
  C    -126.941000    8.222450  -10.096500
  H    -126.128000    7.676190  -10.516500
  H    -127.147000    9.073680  -10.805000
  C    -126.725000    8.751260   -8.709700
  H    -127.569000    9.266380   -8.263850
  H    -126.396000    8.037200   -7.974850
  H    -125.918000    9.485760   -8.791610
  S    -132.892000   11.349800   -9.328070
  C    -133.758000   12.173600  -10.597500
  C    -133.445000   11.665700  -11.832900
  C    -132.557000   10.474100  -11.774000
  C    -132.267000   10.169300  -10.462000
  H    -133.849000   12.090700  -12.687200
  C    -132.132000    9.656900  -13.019700
  H    -132.046000    8.579490  -12.869700
  H    -131.082000   10.029700  -13.022000
  C    -132.866000   10.011600  -14.250600
  H    -132.646000   10.999000  -14.516400
  H    -133.957000    9.875690  -14.229800
  C    -132.315000    9.208760  -15.377500
  H    -132.832000    9.538980  -16.299600
  H    -132.403000    8.125180  -15.359800
  H    -131.287000    9.600140  -15.652500
  H    -129.757000    6.719660   -7.753830
  H    -134.441000   13.015800  -10.395100

 Total Charge           Charge          ....    0
 Multiplicity           Mult            ....    1
 Number of Electrons    NEL             ....  134
 Basis Dimension        Dim             ....  322

ORBITAL ENERGIES
----------------

  NO   OCC          E(Eh)            E(eV)
   0   2.0000     -88.964473     -2420.8464
   1   2.0000     -88.961235     -2420.7583
   2   2.0000     -10.333326      -281.1841
   3   2.0000     -10.324354      -280.9400
   4   2.0000     -10.318134      -280.7707
   5   2.0000     -10.314015      -280.6586
   6   2.0000     -10.308928      -280.5202
   7   2.0000     -10.298821      -280.2452
   8   2.0000     -10.296692      -280.1872
   9   2.0000     -10.293901      -280.1113
  10   2.0000     -10.291278      -280.0399
  11   2.0000     -10.289208      -279.9836
  12   2.0000     -10.281696      -279.7792
  13   2.0000     -10.281534      -279.7748
  14   2.0000     -10.279441      -279.7178
  15   2.0000     -10.270459      -279.4734
  16   2.0000      -8.078268      -219.8208
  17   2.0000      -8.076335      -219.7682
  18   2.0000      -6.036854      -164.2712
  19   2.0000      -6.034899      -164.2179
  20   2.0000      -6.032961      -164.1652
  21   2.0000      -6.030853      -164.1078
  22   2.0000      -6.028947      -164.0560
  23   2.0000      -6.026959      -164.0019
  24   2.0000      -1.000788       -27.2328
  25   2.0000      -0.979371       -26.6500
  26   2.0000      -0.925201       -25.1760
  27   2.0000      -0.905338       -24.6355
  28   2.0000      -0.868523       -23.6337
  29   2.0000      -0.852225       -23.1902
  30   2.0000      -0.845474       -23.0065
  31   2.0000      -0.818057       -22.2605
  32   2.0000      -0.781314       -21.2606
  33   2.0000      -0.768011       -20.8986
  34   2.0000      -0.708871       -19.2894
  35   2.0000      -0.701701       -19.0942
  36   2.0000      -0.692404       -18.8413
  37   2.0000      -0.655085       -17.8258
  38   2.0000      -0.641040       -17.4436
  39   2.0000      -0.622225       -16.9316
  40   2.0000      -0.601916       -16.3790
  41   2.0000      -0.583518       -15.8783
  42   2.0000      -0.564129       -15.3507
  43   2.0000      -0.547080       -14.8868
  44   2.0000      -0.537002       -14.6126
  45   2.0000      -0.531373       -14.4594
  46   2.0000      -0.517993       -14.0953
  47   2.0000      -0.517015       -14.0687
  48   2.0000      -0.499831       -13.6011
  49   2.0000      -0.496909       -13.5216
  50   2.0000      -0.492276       -13.3955
  51   2.0000      -0.481912       -13.1135
  52   2.0000      -0.472307       -12.8521
  53   2.0000      -0.457923       -12.4607
  54   2.0000      -0.456277       -12.4159
  55   2.0000      -0.453449       -12.3390
  56   2.0000      -0.445915       -12.1340
  57   2.0000      -0.436304       -11.8724
  58   2.0000      -0.427613       -11.6360
  59   2.0000      -0.426642       -11.6095
  60   2.0000      -0.421806       -11.4779
  61   2.0000      -0.412573       -11.2267
  62   2.0000      -0.409221       -11.1355
  63   2.0000      -0.356213        -9.6931
  64   2.0000      -0.328976        -8.9519
  65   2.0000      -0.324557        -8.8317
  66   2.0000      -0.286398        -7.7933
  67   0.0000       0.030303         0.8246
  68   0.0000       0.078533         2.1370
  69   0.0000       0.108360         2.9486
  70   0.0000       0.122028         3.3205
  71   0.0000       0.136105         3.7036

MULLIKEN ATOMIC CHARGES
-----------------------
   0 S :    0.095372
   1 C :   -0.096712
   2 C :   -0.133967
   3 C :    0.015790
   4 C :   -0.123428
   5 H :    0.009477
   6 C :    0.095042
   7 H :    0.013448
   8 H :   -0.015479
   9 C :   -0.052045
  10 H :    0.027638
  11 H :    0.034532
  12 C :   -0.042514
  13 H :    0.047865
  14 H :    0.023601
  15 H :    0.026169
  16 S :    0.093151
  17 C :   -0.088727
  18 C :   -0.014865
  19 C :   -0.063728
  20 C :   -0.129080
  21 H :   -0.007274
  22 C :    0.027857
  23 H :    0.045178
  24 H :    0.042767
  25 C :   -0.035169
  26 H :    0.015017
  27 H :    0.044833
  28 C :   -0.059229
  29 H :    0.018646
  30 H :    0.044611
  31 H :    0.027929
  32 H :    0.044910
  33 H :    0.068384
Sum of atomic charges:    0.0000000

LOEWDIN ATOMIC CHARGES
----------------------
   0 S :    0.375957
   1 C :   -0.206006
   2 C :   -0.059178
   3 C :   -0.064513
   4 C :   -0.156372
   5 H :    0.031269
   6 C :   -0.036555
   7 H :    0.026238
   8 H :    0.018274
   9 C :   -0.031337
  10 H :    0.021353
  11 H :    0.028019
  12 C :   -0.066301
  13 H :    0.030121
  14 H :    0.022479
  15 H :    0.027461
  16 S :    0.395816
  17 C :   -0.184922
  18 C :   -0.066786
  19 C :   -0.050681
  20 C :   -0.202410
  21 H :    0.017767
  22 C :   -0.033606
  23 H :    0.034505
  24 H :    0.041338
  25 C :   -0.046025
  26 H :    0.022581
  27 H :    0.031043
  28 C :   -0.067080
  29 H :    0.026962
  30 H :    0.023898
  31 H :    0.031069
  32 H :    0.029576
  33 H :    0.036046

  Mayer bond orders larger than 0.100000
B(  0-S ,  1-C ) :   1.1241 B(  0-S ,  4-C ) :   1.1325 B(  1-C ,  2-C ) :   1.6130
B(  1-C , 32-H ) :   0.9684 B(  2-C ,  3-C ) :   1.2149 B(  2-C ,  6-C ) :   1.0320
B(  3-C ,  4-C ) :   1.6076 B(  3-C ,  5-H ) :   0.9940 B(  4-C , 20-C ) :   1.0226
B(  6-C ,  7-H ) :   0.9369 B(  6-C ,  8-H ) :   0.9337 B(  6-C ,  9-C ) :   1.0511
B(  9-C , 10-H ) :   0.9568 B(  9-C , 11-H ) :   0.9596 B(  9-C , 12-C ) :   1.0759
B( 12-C , 13-H ) :   0.9719 B( 12-C , 14-H ) :   0.9749 B( 12-C , 15-H ) :   0.9711
B( 16-S , 17-C ) :   1.1422 B( 16-S , 20-C ) :   1.1317 B( 17-C , 18-C ) :   1.6263
B( 17-C , 33-H ) :   0.9633 B( 18-C , 19-C ) :   1.2068 B( 18-C , 21-H ) :   1.0001
B( 19-C , 20-C ) :   1.6483 B( 19-C , 22-C ) :   0.9952 B( 22-C , 23-H ) :   0.9509
B( 22-C , 24-H ) :   0.9213 B( 22-C , 25-C ) :   1.0985 B( 25-C , 26-H ) :   0.9289
B( 25-C , 27-H ) :   0.9512 B( 25-C , 28-C ) :   1.1051 B( 28-C , 29-H ) :   0.9675
B( 28-C , 30-H ) :   0.9738 B( 28-C , 31-H ) :   0.9701

Dispersion correction           -0.014068961
FINAL SINGLE POINT ENERGY     -1339.868282164927

DIPOLE MOMENT
-------------
                                X             Y             Z
Electronic contribution:    -16.24319       5.46856      19.61017
Nuclear contribution   :     16.59619      -5.47327     -20.34744
                        -----------------------------------------
Total Dipole Moment    :      0.35300      -0.00471      -0.73726
                        -----------------------------------------
Magnitude (a.u.)       :      0.81742
Magnitude (Debye)      :      2.07773

Rotational constants in cm-1:     0.017437     0.008729     0.006702
Rotational constants in MHz :   522.760364   261.688554   200.910720

                             ****ORCA TERMINATED NORMALLY****
TOTAL RUN TIME: 0 days 0 hours 0 minutes 21 seconds 452 msec
