                         Program Version 4.2.1 -  RELEASE  -
|  1> ! wB97X-D3 SP def2-SVP
|  2> %pal
|  3> nprocs 24
|  4> end
|  5>
|  6> * xyz 0 1
|  7> S 	 -65.424 	 7.64362 	 -75.2031
|  8> C 	 -64.8723 	 7.69833 	 -73.5697
|  9> C 	 -65.594 	 8.55729 	 -72.7395
| 10> C 	 -66.7343 	 9.03851 	 -73.4891
| 11> C 	 -66.6535 	 8.81817 	 -74.8914
| 12> H 	 -67.4133 	 9.73078 	 -72.9549
| 13> C 	 -65.4974 	 8.74355 	 -71.2439
| 14> H 	 -65.1211 	 9.67726 	 -71.0884
| 15> H 	 -64.6803 	 8.03885 	 -70.9808
| 16> C 	 -66.75 	 8.54792 	 -70.4674
| 17> H 	 -66.5795 	 8.78156 	 -69.3883
| 18> H 	 -67.563 	 9.17928 	 -70.8508
| 19> C 	 -67.37 	 7.12587 	 -70.5921
| 20> H 	 -68.3386 	 7.08266 	 -70.1658
| 21> H 	 -67.5641 	 6.90646 	 -71.6312
| 22> H 	 -66.6794 	 6.36293 	 -70.194
| 23> S 	 -67.0772 	 10.656 	 -76.9036
| 24> C 	 -68.3561 	 10.3521 	 -78.037
| 25> C 	 -69.1669 	 9.28911 	 -77.6612
| 26> C 	 -68.6944 	 8.67198 	 -76.4348
| 27> C 	 -67.5079 	 9.23176 	 -76.0071
| 28> H 	 -70.0753 	 9.12309 	 -78.2297
| 29> C 	 -69.3845 	 7.51346 	 -75.7305
| 30> H 	 -70.318 	 7.38888 	 -76.262
| 31> H 	 -69.6355 	 7.80025 	 -74.6092
| 32> C 	 -68.5754 	 6.23571 	 -75.7716
| 33> H 	 -68.9619 	 5.5155 	 -75.0723
| 34> H 	 -67.7178 	 6.47236 	 -75.2283
| 35> C 	 -68.2312 	 5.70152 	 -77.1508
| 36> H 	 -68.0222 	 6.47248 	 -77.8842
| 37> H 	 -69.1081 	 5.1839 	 -77.5537
| 38> H 	 -67.3375 	 5.13622 	 -77.0751
| 39> H 	 -64.0512 	 7.11741 	 -73.1885
| 40> H 	 -68.6392 	 10.9988 	 -78.7962
| 41> *
| 42>
| 43>                          ****END OF INPUT****

CARTESIAN COORDINATES (ANGSTROEM)
---------------------------------
  S    -65.424000    7.643620  -75.203100
  C    -64.872300    7.698330  -73.569700
  C    -65.594000    8.557290  -72.739500
  C    -66.734300    9.038510  -73.489100
  C    -66.653500    8.818170  -74.891400
  H    -67.413300    9.730780  -72.954900
  C    -65.497400    8.743550  -71.243900
  H    -65.121100    9.677260  -71.088400
  H    -64.680300    8.038850  -70.980800
  C    -66.750000    8.547920  -70.467400
  H    -66.579500    8.781560  -69.388300
  H    -67.563000    9.179280  -70.850800
  C    -67.370000    7.125870  -70.592100
  H    -68.338600    7.082660  -70.165800
  H    -67.564100    6.906460  -71.631200
  H    -66.679400    6.362930  -70.194000
  S    -67.077200   10.656000  -76.903600
  C    -68.356100   10.352100  -78.037000
  C    -69.166900    9.289110  -77.661200
  C    -68.694400    8.671980  -76.434800
  C    -67.507900    9.231760  -76.007100
  H    -70.075300    9.123090  -78.229700
  C    -69.384500    7.513460  -75.730500
  H    -70.318000    7.388880  -76.262000
  H    -69.635500    7.800250  -74.609200
  C    -68.575400    6.235710  -75.771600
  H    -68.961900    5.515500  -75.072300
  H    -67.717800    6.472360  -75.228300
  C    -68.231200    5.701520  -77.150800
  H    -68.022200    6.472480  -77.884200
  H    -69.108100    5.183900  -77.553700
  H    -67.337500    5.136220  -77.075100
  H    -64.051200    7.117410  -73.188500
  H    -68.639200   10.998800  -78.796200

 Total Charge           Charge          ....    0
 Multiplicity           Mult            ....    1
 Number of Electrons    NEL             ....  134
 Basis Dimension        Dim             ....  322

ORBITAL ENERGIES
----------------

  NO   OCC          E(Eh)            E(eV)
   0   2.0000     -88.969373     -2420.9797
   1   2.0000     -88.965471     -2420.8736
   2   2.0000     -10.331595      -281.1370
   3   2.0000     -10.320737      -280.8415
   4   2.0000     -10.313276      -280.6385
   5   2.0000     -10.311745      -280.5968
   6   2.0000     -10.302978      -280.3583
   7   2.0000     -10.301557      -280.3196
   8   2.0000     -10.300886      -280.3014
   9   2.0000     -10.296240      -280.1749
  10   2.0000     -10.293505      -280.1005
  11   2.0000     -10.292622      -280.0765
  12   2.0000     -10.288213      -279.9565
  13   2.0000     -10.273543      -279.5573
  14   2.0000     -10.266734      -279.3720
  15   2.0000     -10.266287      -279.3599
  16   2.0000      -8.083991      -219.9766
  17   2.0000      -8.080641      -219.8854
  18   2.0000      -6.042374      -164.4214
  19   2.0000      -6.039020      -164.3301
  20   2.0000      -6.038388      -164.3129
  21   2.0000      -6.035120      -164.2240
  22   2.0000      -6.034990      -164.2204
  23   2.0000      -6.031488      -164.1251
  24   2.0000      -1.007254       -27.4088
  25   2.0000      -0.985167       -26.8078
  26   2.0000      -0.921395       -25.0724
  27   2.0000      -0.909144       -24.7391
  28   2.0000      -0.866375       -23.5753
  29   2.0000      -0.845070       -22.9955
  30   2.0000      -0.843992       -22.9662
  31   2.0000      -0.811759       -22.0891
  32   2.0000      -0.790252       -21.5038
  33   2.0000      -0.774445       -21.0737
  34   2.0000      -0.714416       -19.4403
  35   2.0000      -0.698229       -18.9998
  36   2.0000      -0.687741       -18.7144
  37   2.0000      -0.662587       -18.0299
  38   2.0000      -0.634518       -17.2661
  39   2.0000      -0.625345       -17.0165
  40   2.0000      -0.586727       -15.9657
  41   2.0000      -0.570308       -15.5189
  42   2.0000      -0.563880       -15.3440
  43   2.0000      -0.550128       -14.9697
  44   2.0000      -0.544567       -14.8184
  45   2.0000      -0.539489       -14.6802
  46   2.0000      -0.520754       -14.1704
  47   2.0000      -0.513484       -13.9726
  48   2.0000      -0.494586       -13.4584
  49   2.0000      -0.490607       -13.3501
  50   2.0000      -0.485578       -13.2132
  51   2.0000      -0.478173       -13.0118
  52   2.0000      -0.473227       -12.8772
  53   2.0000      -0.471409       -12.8277
  54   2.0000      -0.458168       -12.4674
  55   2.0000      -0.447360       -12.1733
  56   2.0000      -0.445398       -12.1199
  57   2.0000      -0.439029       -11.9466
  58   2.0000      -0.428930       -11.6718
  59   2.0000      -0.427564       -11.6346
  60   2.0000      -0.424581       -11.5534
  61   2.0000      -0.416298       -11.3280
  62   2.0000      -0.401625       -10.9288
  63   2.0000      -0.334301        -9.0968
  64   2.0000      -0.328220        -8.9313
  65   2.0000      -0.317098        -8.6287
  66   2.0000      -0.311304        -8.4710
  67   0.0000       0.045487         1.2378
  68   0.0000       0.050498         1.3741
  69   0.0000       0.112239         3.0542
  70   0.0000       0.114184         3.1071
  71   0.0000       0.126211         3.4344

MULLIKEN ATOMIC CHARGES
-----------------------
   0 S :    0.128935
   1 C :   -0.113279
   2 C :   -0.155456
   3 C :    0.037524
   4 C :   -0.193058
   5 H :    0.022873
   6 C :    0.161211
   7 H :    0.014398
   8 H :    0.013903
   9 C :   -0.111147
  10 H :    0.043841
  11 H :    0.031962
  12 C :   -0.042743
  13 H :    0.026269
  14 H :    0.030663
  15 H :    0.035226
  16 S :    0.128039
  17 C :   -0.069940
  18 C :   -0.043859
  19 C :   -0.041807
  20 C :   -0.184005
  21 H :    0.023757
  22 C :    0.080230
  23 H :    0.005435
  24 H :    0.048920
  25 C :   -0.030212
  26 H :    0.008747
  27 H :   -0.000293
  28 C :   -0.018744
  29 H :    0.030083
  30 H :    0.031577
  31 H :    0.029869
  32 H :    0.038966
  33 H :    0.032114
Sum of atomic charges:    0.0000000

LOEWDIN ATOMIC CHARGES
----------------------
   0 S :    0.451040
   1 C :   -0.205764
   2 C :   -0.063810
   3 C :   -0.062334
   4 C :   -0.207672
   5 H :    0.031294
   6 C :   -0.027584
   7 H :    0.023058
   8 H :    0.035174
   9 C :   -0.041670
  10 H :    0.032112
  11 H :    0.025476
  12 C :   -0.062320
  13 H :    0.021258
  14 H :    0.024320
  15 H :    0.025863
  16 S :    0.423476
  17 C :   -0.179184
  18 C :   -0.072263
  19 C :   -0.050919
  20 C :   -0.221047
  21 H :    0.033511
  22 C :   -0.030982
  23 H :    0.020380
  24 H :    0.045713
  25 C :   -0.049994
  26 H :    0.023512
  27 H :    0.002798
  28 C :   -0.060187
  29 H :    0.026971
  30 H :    0.027372
  31 H :    0.025057
  32 H :    0.022247
  33 H :    0.015095

  Mayer bond orders larger than 0.100000
B(  0-S ,  1-C ) :   1.1636 B(  0-S ,  4-C ) :   1.1777 B(  1-C ,  2-C ) :   1.5957
B(  1-C ,  4-C ) :   0.1021 B(  1-C , 32-H ) :   0.9611 B(  2-C ,  3-C ) :   1.2658
B(  2-C ,  6-C ) :   1.0086 B(  3-C ,  4-C ) :   1.5637 B(  3-C ,  5-H ) :   0.9827
B(  4-C , 20-C ) :   0.9992 B(  6-C ,  7-H ) :   0.9168 B(  6-C ,  8-H ) :   0.9372
B(  6-C ,  9-C ) :   1.0863 B(  9-C , 10-H ) :   0.9526 B(  9-C , 11-H ) :   0.9481
B(  9-C , 12-C ) :   1.0779 B( 12-C , 13-H ) :   0.9737 B( 12-C , 14-H ) :   0.9716
B( 12-C , 15-H ) :   0.9764 B( 16-S , 17-C ) :   1.1647 B( 16-S , 20-C ) :   1.1544
B( 17-C , 18-C ) :   1.6177 B( 17-C , 33-H ) :   0.9718 B( 18-C , 19-C ) :   1.2268
B( 18-C , 21-H ) :   0.9876 B( 19-C , 20-C ) :   1.5996 B( 19-C , 22-C ) :   1.0367
B( 22-C , 23-H ) :   0.9315 B( 22-C , 24-H ) :   0.9326 B( 22-C , 25-C ) :   1.0739
B( 25-C , 26-H ) :   0.9405 B( 25-C , 27-H ) :   0.9519 B( 25-C , 28-C ) :   1.0647
B( 28-C , 29-H ) :   0.9738 B( 28-C , 30-H ) :   0.9751 B( 28-C , 31-H ) :   0.9716

Dispersion correction           -0.016329829
FINAL SINGLE POINT ENERGY     -1339.870893733270

DIPOLE MOMENT
-------------
                                X             Y             Z
Electronic contribution:      8.92489      13.91308     -15.54870
Nuclear contribution   :     -9.19993     -13.98720      15.98894
                        -----------------------------------------
Total Dipole Moment    :     -0.27504      -0.07412       0.44023
                        -----------------------------------------
Magnitude (a.u.)       :      0.52435
Magnitude (Debye)      :      1.33280

Rotational constants in cm-1:     0.021376     0.009139     0.008192
Rotational constants in MHz :   640.838104   273.968279   245.591392

                             ****ORCA TERMINATED NORMALLY****
TOTAL RUN TIME: 0 days 0 hours 0 minutes 23 seconds 141 msec
