                         Program Version 4.2.1 -  RELEASE  -
|  1> ! wB97X-D3 SP def2-SVP
|  2> %pal
|  3> nprocs 24
|  4> end
|  5>
|  6> * xyz 0 1
|  7> S 	 -121.283 	 62.9751 	 -53.8481
|  8> C 	 -119.879 	 63.9936 	 -53.8656
|  9> C 	 -120.224 	 65.344 	 -53.884
| 10> C 	 -121.645 	 65.5366 	 -53.959
| 11> C 	 -122.364 	 64.3893 	 -53.7111
| 12> H 	 -122.208 	 66.482 	 -54.0888
| 13> C 	 -119.249 	 66.5252 	 -53.9918
| 14> H 	 -118.421 	 66.1983 	 -54.6128
| 15> H 	 -118.838 	 66.7582 	 -52.9622
| 16> C 	 -119.807 	 67.8075 	 -54.5838
| 17> H 	 -120.167 	 67.5753 	 -55.5681
| 18> H 	 -120.722 	 68.2338 	 -54.1778
| 19> C 	 -118.861 	 68.968 	 -54.5798
| 20> H 	 -118.149 	 68.7311 	 -55.3399
| 21> H 	 -119.443 	 69.8628 	 -54.8456
| 22> H 	 -118.346 	 69.2266 	 -53.6595
| 23> S 	 -124.587 	 63.2055 	 -54.809
| 24> C 	 -126.171 	 63.5118 	 -54.0363
| 25> C 	 -126.069 	 64.3927 	 -53.0335
| 26> C 	 -124.704 	 64.8005 	 -52.7972
| 27> C 	 -123.772 	 64.1991 	 -53.6687
| 28> H 	 -126.948 	 64.5691 	 -52.4057
| 29> C 	 -124.339 	 65.6879 	 -51.6325
| 30> H 	 -125.006 	 66.5759 	 -51.5767
| 31> H 	 -123.336 	 66.0355 	 -51.7922
| 32> C 	 -124.339 	 64.9326 	 -50.337
| 33> H 	 -123.534 	 64.2238 	 -50.4275
| 34> H 	 -125.203 	 64.3184 	 -50.1784
| 35> C 	 -124.322 	 65.875 	 -49.1943
| 36> H 	 -125.308 	 66.3392 	 -48.9853
| 37> H 	 -123.465 	 66.5896 	 -49.3956
| 38> H 	 -124.05 	 65.4268 	 -48.2425
| 39> H 	 -118.887 	 63.5836 	 -53.868
| 40> H 	 -127.087 	 63.0971 	 -54.4416
| 41> *
| 42>
| 43>                          ****END OF INPUT****

CARTESIAN COORDINATES (ANGSTROEM)
---------------------------------
  S    -121.283000   62.975100  -53.848100
  C    -119.879000   63.993600  -53.865600
  C    -120.224000   65.344000  -53.884000
  C    -121.645000   65.536600  -53.959000
  C    -122.364000   64.389300  -53.711100
  H    -122.208000   66.482000  -54.088800
  C    -119.249000   66.525200  -53.991800
  H    -118.421000   66.198300  -54.612800
  H    -118.838000   66.758200  -52.962200
  C    -119.807000   67.807500  -54.583800
  H    -120.167000   67.575300  -55.568100
  H    -120.722000   68.233800  -54.177800
  C    -118.861000   68.968000  -54.579800
  H    -118.149000   68.731100  -55.339900
  H    -119.443000   69.862800  -54.845600
  H    -118.346000   69.226600  -53.659500
  S    -124.587000   63.205500  -54.809000
  C    -126.171000   63.511800  -54.036300
  C    -126.069000   64.392700  -53.033500
  C    -124.704000   64.800500  -52.797200
  C    -123.772000   64.199100  -53.668700
  H    -126.948000   64.569100  -52.405700
  C    -124.339000   65.687900  -51.632500
  H    -125.006000   66.575900  -51.576700
  H    -123.336000   66.035500  -51.792200
  C    -124.339000   64.932600  -50.337000
  H    -123.534000   64.223800  -50.427500
  H    -125.203000   64.318400  -50.178400
  C    -124.322000   65.875000  -49.194300
  H    -125.308000   66.339200  -48.985300
  H    -123.465000   66.589600  -49.395600
  H    -124.050000   65.426800  -48.242500
  H    -118.887000   63.583600  -53.868000
  H    -127.087000   63.097100  -54.441600

 Total Charge           Charge          ....    0
 Multiplicity           Mult            ....    1
 Number of Electrons    NEL             ....  134
 Basis Dimension        Dim             ....  322

ORBITAL ENERGIES
----------------

  NO   OCC          E(Eh)            E(eV)
   0   2.0000     -88.964152     -2420.8376
   1   2.0000     -88.961954     -2420.7778
   2   2.0000     -10.327509      -281.0258
   3   2.0000     -10.322333      -280.8850
   4   2.0000     -10.316140      -280.7164
   5   2.0000     -10.315245      -280.6921
   6   2.0000     -10.305588      -280.4293
   7   2.0000     -10.302784      -280.3530
   8   2.0000     -10.297997      -280.2227
   9   2.0000     -10.297927      -280.2209
  10   2.0000     -10.293149      -280.0908
  11   2.0000     -10.282953      -279.8134
  12   2.0000     -10.281681      -279.7788
  13   2.0000     -10.277446      -279.6635
  14   2.0000     -10.275164      -279.6014
  15   2.0000     -10.271483      -279.5013
  16   2.0000      -8.078852      -219.8367
  17   2.0000      -8.076936      -219.7846
  18   2.0000      -6.037346      -164.2845
  19   2.0000      -6.035478      -164.2337
  20   2.0000      -6.033401      -164.1772
  21   2.0000      -6.031437      -164.1238
  22   2.0000      -6.029597      -164.0737
  23   2.0000      -6.027613      -164.0197
  24   2.0000      -1.007251       -27.4087
  25   2.0000      -0.982703       -26.7407
  26   2.0000      -0.917914       -24.9777
  27   2.0000      -0.915789       -24.9199
  28   2.0000      -0.878401       -23.9025
  29   2.0000      -0.851313       -23.1654
  30   2.0000      -0.845788       -23.0151
  31   2.0000      -0.819836       -22.3089
  32   2.0000      -0.780762       -21.2456
  33   2.0000      -0.765156       -20.8210
  34   2.0000      -0.712806       -19.3964
  35   2.0000      -0.694606       -18.9012
  36   2.0000      -0.692320       -18.8390
  37   2.0000      -0.657573       -17.8935
  38   2.0000      -0.644934       -17.5496
  39   2.0000      -0.619227       -16.8500
  40   2.0000      -0.600469       -16.3396
  41   2.0000      -0.572032       -15.5658
  42   2.0000      -0.570855       -15.5338
  43   2.0000      -0.564607       -15.3637
  44   2.0000      -0.532228       -14.4827
  45   2.0000      -0.526568       -14.3286
  46   2.0000      -0.517036       -14.0693
  47   2.0000      -0.509648       -13.8682
  48   2.0000      -0.506759       -13.7896
  49   2.0000      -0.504098       -13.7172
  50   2.0000      -0.492961       -13.4141
  51   2.0000      -0.481455       -13.1011
  52   2.0000      -0.475133       -12.9290
  53   2.0000      -0.461758       -12.5651
  54   2.0000      -0.458096       -12.4654
  55   2.0000      -0.454017       -12.3544
  56   2.0000      -0.443337       -12.0638
  57   2.0000      -0.433980       -11.8092
  58   2.0000      -0.428157       -11.6508
  59   2.0000      -0.425897       -11.5892
  60   2.0000      -0.420303       -11.4370
  61   2.0000      -0.409947       -11.1552
  62   2.0000      -0.406563       -11.0631
  63   2.0000      -0.352051        -9.5798
  64   2.0000      -0.330446        -8.9919
  65   2.0000      -0.324928        -8.8417
  66   2.0000      -0.290436        -7.9032
  67   0.0000       0.029874         0.8129
  68   0.0000       0.068942         1.8760
  69   0.0000       0.112774         3.0687
  70   0.0000       0.126642         3.4461
  71   0.0000       0.132834         3.6146

MULLIKEN ATOMIC CHARGES
-----------------------
   0 S :    0.101762
   1 C :   -0.114930
   2 C :   -0.093515
   3 C :    0.029592
   4 C :   -0.184601
   5 H :    0.036835
   6 C :    0.080992
   7 H :    0.026511
   8 H :    0.044796
   9 C :   -0.106906
  10 H :    0.018827
  11 H :    0.020775
  12 C :   -0.015855
  13 H :    0.023576
  14 H :    0.030232
  15 H :    0.033261
  16 S :    0.097137
  17 C :   -0.100182
  18 C :   -0.015340
  19 C :   -0.066119
  20 C :   -0.135352
  21 H :    0.031397
  22 C :    0.080477
  23 H :    0.026853
  24 H :    0.008428
  25 C :   -0.048368
  26 H :    0.023072
  27 H :    0.013055
  28 C :   -0.044408
  29 H :    0.041654
  30 H :    0.029135
  31 H :    0.023282
  32 H :    0.046219
  33 H :    0.057708
Sum of atomic charges:    0.0000000

LOEWDIN ATOMIC CHARGES
----------------------
   0 S :    0.396336
   1 C :   -0.195637
   2 C :   -0.065793
   3 C :   -0.060657
   4 C :   -0.185883
   5 H :    0.040429
   6 C :   -0.031324
   7 H :    0.031363
   8 H :    0.038487
   9 C :   -0.051843
  10 H :    0.023662
  11 H :    0.020442
  12 C :   -0.058741
  13 H :    0.021729
  14 H :    0.031355
  15 H :    0.025114
  16 S :    0.394530
  17 C :   -0.166187
  18 C :   -0.072514
  19 C :   -0.049411
  20 C :   -0.219444
  21 H :    0.039349
  22 C :   -0.031998
  23 H :    0.030902
  24 H :    0.025037
  25 C :   -0.044132
  26 H :    0.026326
  27 H :    0.018486
  28 C :   -0.068466
  29 H :    0.030372
  30 H :    0.030132
  31 H :    0.022992
  32 H :    0.025639
  33 H :    0.029342

  Mayer bond orders larger than 0.100000
B(  0-S ,  1-C ) :   1.1465 B(  0-S ,  4-C ) :   1.1357 B(  1-C ,  2-C ) :   1.6047
B(  1-C ,  4-C ) :   0.1035 B(  1-C , 32-H ) :   0.9759 B(  2-C ,  3-C ) :   1.2412
B(  2-C ,  6-C ) :   1.0064 B(  3-C ,  4-C ) :   1.5785 B(  3-C ,  5-H ) :   0.9795
B(  4-C , 20-C ) :   1.0579 B(  6-C ,  7-H ) :   0.9428 B(  6-C ,  8-H ) :   0.9324
B(  6-C ,  9-C ) :   1.0839 B(  9-C , 10-H ) :   0.9484 B(  9-C , 11-H ) :   0.9484
B(  9-C , 12-C ) :   1.0862 B( 12-C , 13-H ) :   0.9744 B( 12-C , 14-H ) :   0.9724
B( 12-C , 15-H ) :   0.9751 B( 16-S , 17-C ) :   1.1361 B( 16-S , 20-C ) :   1.1380
B( 17-C , 18-C ) :   1.6402 B( 17-C , 33-H ) :   0.9665 B( 18-C , 19-C ) :   1.2195
B( 18-C , 21-H ) :   0.9880 B( 19-C , 20-C ) :   1.5897 B( 19-C , 22-C ) :   1.0603
B( 22-C , 23-H ) :   0.9378 B( 22-C , 24-H ) :   0.9123 B( 22-C , 25-C ) :   1.0640
B( 25-C , 26-H ) :   0.9481 B( 25-C , 27-H ) :   0.9580 B( 25-C , 28-C ) :   1.0857
B( 28-C , 29-H ) :   0.9728 B( 28-C , 30-H ) :   0.9691 B( 28-C , 31-H ) :   0.9699

Dispersion correction           -0.013782085
FINAL SINGLE POINT ENERGY     -1339.880254025154

DIPOLE MOMENT
-------------
                                X             Y             Z
Electronic contribution:     -7.60328     -23.72822     -13.06602
Nuclear contribution   :      7.62093      24.26575      13.29961
                        -----------------------------------------
Total Dipole Moment    :      0.01765       0.53753       0.23359
                        -----------------------------------------
Magnitude (a.u.)       :      0.58636
Magnitude (Debye)      :      1.49040

Rotational constants in cm-1:     0.017085     0.008443     0.006975
Rotational constants in MHz :   512.200983   253.107316   209.099492

                             ****ORCA TERMINATED NORMALLY****
TOTAL RUN TIME: 0 days 0 hours 0 minutes 21 seconds 545 msec
