                         Program Version 4.2.1 -  RELEASE  -
|  1> ! wB97X-D3 SP def2-SVP
|  2> %pal
|  3> nprocs 24
|  4> end
|  5>
|  6> * xyz 0 1
|  7> S 	 34.0962 	 -26.9612 	 -118.332
|  8> C 	 35.2525 	 -25.9709 	 -117.376
|  9> C 	 36.5265 	 -26.1795 	 -117.88
| 10> C 	 36.5427 	 -27.1843 	 -118.948
| 11> C 	 35.2976 	 -27.6085 	 -119.345
| 12> H 	 37.3734 	 -27.5216 	 -119.529
| 13> C 	 37.7937 	 -25.4162 	 -117.492
| 14> H 	 37.4364 	 -24.5776 	 -116.929
| 15> H 	 38.2907 	 -25.0226 	 -118.372
| 16> C 	 38.7861 	 -26.1677 	 -116.616
| 17> H 	 38.8839 	 -27.1256 	 -117.162
| 18> H 	 39.7376 	 -25.6884 	 -116.494
| 19> C 	 38.2548 	 -26.1995 	 -115.134
| 20> H 	 37.8824 	 -25.1913 	 -114.834
| 21> H 	 37.4628 	 -26.9205 	 -115.215
| 22> H 	 39.0016 	 -26.5626 	 -114.411
| 23> S 	 35.333 	 -28.5872 	 -121.985
| 24> C 	 34.2928 	 -29.9812 	 -122.306
| 25> C 	 33.9144 	 -30.5758 	 -121.13
| 26> C 	 34.2516 	 -29.8506 	 -119.967
| 27> C 	 34.9895 	 -28.7007 	 -120.219
| 28> H 	 33.2879 	 -31.4075 	 -121.116
| 29> C 	 33.8508 	 -30.368 	 -118.629
| 30> H 	 32.7733 	 -30.2134 	 -118.583
| 31> H 	 34.3101 	 -29.691 	 -117.923
| 32> C 	 34.1075 	 -31.8787 	 -118.464
| 33> H 	 33.586 	 -32.4336 	 -119.253
| 34> H 	 33.6674 	 -32.1047 	 -117.539
| 35> C 	 35.6342 	 -32.168 	 -118.582
| 36> H 	 35.9582 	 -33.1819 	 -118.359
| 37> H 	 36.3344 	 -31.6319 	 -117.944
| 38> H 	 35.9079 	 -31.9831 	 -119.581
| 39> H 	 35.0081 	 -25.2355 	 -116.582
| 40> H 	 33.995 	 -30.3813 	 -123.203
| 41> *
| 42>
| 43>                          ****END OF INPUT****

CARTESIAN COORDINATES (ANGSTROEM)
---------------------------------
  S     34.096200  -26.961200  -118.332000
  C     35.252500  -25.970900  -117.376000
  C     36.526500  -26.179500  -117.880000
  C     36.542700  -27.184300  -118.948000
  C     35.297600  -27.608500  -119.345000
  H     37.373400  -27.521600  -119.529000
  C     37.793700  -25.416200  -117.492000
  H     37.436400  -24.577600  -116.929000
  H     38.290700  -25.022600  -118.372000
  C     38.786100  -26.167700  -116.616000
  H     38.883900  -27.125600  -117.162000
  H     39.737600  -25.688400  -116.494000
  C     38.254800  -26.199500  -115.134000
  H     37.882400  -25.191300  -114.834000
  H     37.462800  -26.920500  -115.215000
  H     39.001600  -26.562600  -114.411000
  S     35.333000  -28.587200  -121.985000
  C     34.292800  -29.981200  -122.306000
  C     33.914400  -30.575800  -121.130000
  C     34.251600  -29.850600  -119.967000
  C     34.989500  -28.700700  -120.219000
  H     33.287900  -31.407500  -121.116000
  C     33.850800  -30.368000  -118.629000
  H     32.773300  -30.213400  -118.583000
  H     34.310100  -29.691000  -117.923000
  C     34.107500  -31.878700  -118.464000
  H     33.586000  -32.433600  -119.253000
  H     33.667400  -32.104700  -117.539000
  C     35.634200  -32.168000  -118.582000
  H     35.958200  -33.181900  -118.359000
  H     36.334400  -31.631900  -117.944000
  H     35.907900  -31.983100  -119.581000
  H     35.008100  -25.235500  -116.582000
  H     33.995000  -30.381300  -123.203000

 Total Charge           Charge          ....    0
 Multiplicity           Mult            ....    1
 Number of Electrons    NEL             ....  134
 Basis Dimension        Dim             ....  322

ORBITAL ENERGIES
----------------

  NO   OCC          E(Eh)            E(eV)
   0   2.0000     -88.966977     -2420.9145
   1   2.0000     -88.965611     -2420.8774
   2   2.0000     -10.325792      -280.9791
   3   2.0000     -10.324714      -280.9497
   4   2.0000     -10.323579      -280.9189
   5   2.0000     -10.314875      -280.6820
   6   2.0000     -10.309092      -280.5247
   7   2.0000     -10.297823      -280.2180
   8   2.0000     -10.292893      -280.0839
   9   2.0000     -10.288781      -279.9720
  10   2.0000     -10.288337      -279.9599
  11   2.0000     -10.286167      -279.9008
  12   2.0000     -10.285132      -279.8727
  13   2.0000     -10.284378      -279.8522
  14   2.0000     -10.280463      -279.7456
  15   2.0000     -10.269643      -279.4512
  16   2.0000      -8.081545      -219.9100
  17   2.0000      -8.079231      -219.8471
  18   2.0000      -6.040122      -164.3601
  19   2.0000      -6.037933      -164.3005
  20   2.0000      -6.035937      -164.2462
  21   2.0000      -6.033946      -164.1920
  22   2.0000      -6.032328      -164.1480
  23   2.0000      -6.029809      -164.0794
  24   2.0000      -1.007952       -27.4278
  25   2.0000      -0.982172       -26.7263
  26   2.0000      -0.914837       -24.8940
  27   2.0000      -0.911225       -24.7957
  28   2.0000      -0.871839       -23.7239
  29   2.0000      -0.844948       -22.9922
  30   2.0000      -0.838626       -22.8202
  31   2.0000      -0.815572       -22.1928
  32   2.0000      -0.784007       -21.3339
  33   2.0000      -0.775339       -21.0980
  34   2.0000      -0.715443       -19.4682
  35   2.0000      -0.707376       -19.2487
  36   2.0000      -0.692640       -18.8477
  37   2.0000      -0.665092       -18.0981
  38   2.0000      -0.639249       -17.3948
  39   2.0000      -0.616589       -16.7782
  40   2.0000      -0.598820       -16.2947
  41   2.0000      -0.574333       -15.6284
  42   2.0000      -0.556576       -15.1452
  43   2.0000      -0.550077       -14.9683
  44   2.0000      -0.545815       -14.8524
  45   2.0000      -0.540504       -14.7079
  46   2.0000      -0.527192       -14.3456
  47   2.0000      -0.510304       -13.8861
  48   2.0000      -0.507770       -13.8171
  49   2.0000      -0.492849       -13.4111
  50   2.0000      -0.485978       -13.2241
  51   2.0000      -0.477594       -12.9960
  52   2.0000      -0.470883       -12.8134
  53   2.0000      -0.464579       -12.6418
  54   2.0000      -0.462850       -12.5948
  55   2.0000      -0.447007       -12.1637
  56   2.0000      -0.444198       -12.0873
  57   2.0000      -0.435213       -11.8428
  58   2.0000      -0.429511       -11.6876
  59   2.0000      -0.427862       -11.6427
  60   2.0000      -0.424662       -11.5556
  61   2.0000      -0.414152       -11.2697
  62   2.0000      -0.405347       -11.0301
  63   2.0000      -0.346200        -9.4206
  64   2.0000      -0.330982        -9.0065
  65   2.0000      -0.327149        -8.9022
  66   2.0000      -0.295620        -8.0442
  67   0.0000       0.032653         0.8885
  68   0.0000       0.062420         1.6985
  69   0.0000       0.104946         2.8557
  70   0.0000       0.118215         3.2168
  71   0.0000       0.128150         3.4871

MULLIKEN ATOMIC CHARGES
-----------------------
   0 S :    0.103398
   1 C :   -0.136430
   2 C :   -0.101114
   3 C :    0.035486
   4 C :   -0.149262
   5 H :    0.005587
   6 C :    0.081983
   7 H :   -0.002580
   8 H :    0.038512
   9 C :   -0.069846
  10 H :    0.036942
  11 H :    0.030119
  12 C :   -0.074344
  13 H :    0.035420
  14 H :    0.035954
  15 H :    0.044126
  16 S :    0.096361
  17 C :   -0.038109
  18 C :   -0.022076
  19 C :   -0.081650
  20 C :   -0.159132
  21 H :   -0.005960
  22 C :    0.091468
  23 H :    0.033243
  24 H :    0.028780
  25 C :   -0.039626
  26 H :    0.032679
  27 H :    0.021097
  28 C :   -0.033228
  29 H :    0.022099
  30 H :    0.026201
  31 H :    0.028300
  32 H :    0.065402
  33 H :    0.020203
Sum of atomic charges:   -0.0000000

LOEWDIN ATOMIC CHARGES
----------------------
   0 S :    0.420917
   1 C :   -0.193940
   2 C :   -0.057618
   3 C :   -0.064797
   4 C :   -0.208587
   5 H :    0.026382
   6 C :   -0.029225
   7 H :    0.020781
   8 H :    0.033565
   9 C :   -0.039422
  10 H :    0.027311
  11 H :    0.019703
  12 C :   -0.065800
  13 H :    0.027111
  14 H :    0.023320
  15 H :    0.026722
  16 S :    0.374139
  17 C :   -0.153942
  18 C :   -0.066241
  19 C :   -0.053219
  20 C :   -0.193338
  21 H :    0.019646
  22 C :   -0.032008
  23 H :    0.034920
  24 H :    0.023018
  25 C :   -0.025315
  26 H :    0.026226
  27 H :    0.018136
  28 C :   -0.064914
  29 H :    0.023931
  30 H :    0.026724
  31 H :    0.021317
  32 H :    0.039623
  33 H :    0.014876

  Mayer bond orders larger than 0.100000
B(  0-S ,  1-C ) :   1.1240 B(  0-S ,  4-C ) :   1.1519 B(  1-C ,  2-C ) :   1.6226
B(  1-C , 32-H ) :   0.9645 B(  2-C ,  3-C ) :   1.2142 B(  2-C ,  6-C ) :   1.0212
B(  3-C ,  4-C ) :   1.5911 B(  3-C ,  5-H ) :   0.9923 B(  4-C , 20-C ) :   1.0253
B(  6-C ,  7-H ) :   0.9391 B(  6-C ,  8-H ) :   0.9435 B(  6-C ,  9-C ) :   1.0652
B(  9-C , 10-H ) :   0.9618 B(  9-C , 11-H ) :   0.9591 B(  9-C , 12-C ) :   1.0562
B( 12-C , 13-H ) :   0.9745 B( 12-C , 14-H ) :   0.9818 B( 12-C , 15-H ) :   0.9781
B( 16-S , 17-C ) :   1.1486 B( 16-S , 20-C ) :   1.1078 B( 17-C , 18-C ) :   1.6204
B( 17-C , 33-H ) :   0.9733 B( 18-C , 19-C ) :   1.2295 B( 18-C , 21-H ) :   0.9958
B( 19-C , 20-C ) :   1.6030 B( 19-C , 22-C ) :   1.0315 B( 22-C , 23-H ) :   0.9236
B( 22-C , 24-H ) :   0.9303 B( 22-C , 25-C ) :   1.0775 B( 25-C , 26-H ) :   0.9515
B( 25-C , 27-H ) :   0.9559 B( 25-C , 28-C ) :   1.0618 B( 28-C , 29-H ) :   0.9757
B( 28-C , 30-H ) :   0.9773 B( 28-C , 31-H ) :   0.9729

Dispersion correction           -0.014833436
FINAL SINGLE POINT ENERGY     -1339.865961991006

DIPOLE MOMENT
-------------
                                X             Y             Z
Electronic contribution:    -11.66547       6.93698     -18.12349
Nuclear contribution   :     11.77182      -7.14749      18.41450
                        -----------------------------------------
Total Dipole Moment    :      0.10636      -0.21050       0.29101
                        -----------------------------------------
Magnitude (a.u.)       :      0.37458
Magnitude (Debye)      :      0.95211

Rotational constants in cm-1:     0.021334     0.008027     0.007199
Rotational constants in MHz :   639.576886   240.629890   215.826186

                             ****ORCA TERMINATED NORMALLY****
TOTAL RUN TIME: 0 days 0 hours 0 minutes 20 seconds 853 msec
