                         Program Version 4.2.1 -  RELEASE  -
|  1> ! wB97X-D3 SP def2-SVP
|  2> %pal
|  3> nprocs 24
|  4> end
|  5>
|  6> * xyz 0 1
|  7> S 	 -35.6525 	 -4.94836 	 11.2638
|  8> C 	 -35.7286 	 -4.64614 	 13.0147
|  9> C 	 -36.3281 	 -5.71092 	 13.6226
| 10> C 	 -37.0453 	 -6.54309 	 12.7146
| 11> C 	 -36.9341 	 -6.13159 	 11.3931
| 12> H 	 -37.5854 	 -7.41268 	 12.943
| 13> C 	 -36.5166 	 -5.91602 	 15.099
| 14> H 	 -37.4691 	 -6.45244 	 15.2195
| 15> H 	 -36.691 	 -4.9561 	 15.4538
| 16> C 	 -35.425 	 -6.57866 	 15.9316
| 17> H 	 -35.6895 	 -6.69395 	 16.9363
| 18> H 	 -35.3309 	 -7.65425 	 15.6982
| 19> C 	 -34.1107 	 -5.80856 	 15.7104
| 20> H 	 -33.387 	 -5.97701 	 16.4701
| 21> H 	 -33.6211 	 -5.96911 	 14.7167
| 22> H 	 -34.3715 	 -4.72743 	 15.8036
| 23> S 	 -35.9737 	 -7.64644 	 9.34217
| 24> C 	 -37.1191 	 -8.28478 	 8.11088
| 25> C 	 -38.4175 	 -7.88426 	 8.36601
| 26> C 	 -38.5271 	 -7.22306 	 9.63888
| 27> C 	 -37.3166 	 -6.85346 	 10.199
| 28> H 	 -39.2743 	 -8.27805 	 7.75473
| 29> C 	 -39.8923 	 -6.99086 	 10.2163
| 30> H 	 -40.4384 	 -6.27948 	 9.57339
| 31> H 	 -39.6395 	 -6.37288 	 11.0451
| 32> C 	 -40.6039 	 -8.37385 	 10.5143
| 33> H 	 -40.0009 	 -9.10365 	 11.0401
| 34> H 	 -40.8469 	 -8.75422 	 9.51482
| 35> C 	 -41.9995 	 -8.15956 	 11.2976
| 36> H 	 -42.4126 	 -9.18426 	 11.4533
| 37> H 	 -42.6424 	 -7.60565 	 10.5521
| 38> H 	 -41.9085 	 -7.73573 	 12.3242
| 39> H 	 -35.0531 	 -3.94006 	 13.5816
| 40> H 	 -36.777 	 -8.82484 	 7.34102
| 41> *
| 42>
| 43>                          ****END OF INPUT****

CARTESIAN COORDINATES (ANGSTROEM)
---------------------------------
  S    -35.652500   -4.948360   11.263800
  C    -35.728600   -4.646140   13.014700
  C    -36.328100   -5.710920   13.622600
  C    -37.045300   -6.543090   12.714600
  C    -36.934100   -6.131590   11.393100
  H    -37.585400   -7.412680   12.943000
  C    -36.516600   -5.916020   15.099000
  H    -37.469100   -6.452440   15.219500
  H    -36.691000   -4.956100   15.453800
  C    -35.425000   -6.578660   15.931600
  H    -35.689500   -6.693950   16.936300
  H    -35.330900   -7.654250   15.698200
  C    -34.110700   -5.808560   15.710400
  H    -33.387000   -5.977010   16.470100
  H    -33.621100   -5.969110   14.716700
  H    -34.371500   -4.727430   15.803600
  S    -35.973700   -7.646440    9.342170
  C    -37.119100   -8.284780    8.110880
  C    -38.417500   -7.884260    8.366010
  C    -38.527100   -7.223060    9.638880
  C    -37.316600   -6.853460   10.199000
  H    -39.274300   -8.278050    7.754730
  C    -39.892300   -6.990860   10.216300
  H    -40.438400   -6.279480    9.573390
  H    -39.639500   -6.372880   11.045100
  C    -40.603900   -8.373850   10.514300
  H    -40.000900   -9.103650   11.040100
  H    -40.846900   -8.754220    9.514820
  C    -41.999500   -8.159560   11.297600
  H    -42.412600   -9.184260   11.453300
  H    -42.642400   -7.605650   10.552100
  H    -41.908500   -7.735730   12.324200
  H    -35.053100   -3.940060   13.581600
  H    -36.777000   -8.824840    7.341020

 Total Charge           Charge          ....    0
 Multiplicity           Mult            ....    1
 Number of Electrons    NEL             ....  134
 Basis Dimension        Dim             ....  322

ORBITAL ENERGIES
----------------

  NO   OCC          E(Eh)            E(eV)
   0   2.0000     -88.963503     -2420.8200
   1   2.0000     -88.960763     -2420.7454
   2   2.0000     -10.327879      -281.0359
   3   2.0000     -10.324945      -280.9560
   4   2.0000     -10.317454      -280.7522
   5   2.0000     -10.313826      -280.6535
   6   2.0000     -10.300499      -280.2908
   7   2.0000     -10.299172      -280.2547
   8   2.0000     -10.298228      -280.2290
   9   2.0000     -10.298041      -280.2239
  10   2.0000     -10.292976      -280.0861
  11   2.0000     -10.290942      -280.0308
  12   2.0000     -10.288884      -279.9748
  13   2.0000     -10.285252      -279.8759
  14   2.0000     -10.284724      -279.8616
  15   2.0000     -10.280872      -279.7567
  16   2.0000      -8.078027      -219.8143
  17   2.0000      -8.074714      -219.7241
  18   2.0000      -6.036581      -164.2637
  19   2.0000      -6.033363      -164.1762
  20   2.0000      -6.032791      -164.1606
  21   2.0000      -6.029436      -164.0693
  22   2.0000      -6.028489      -164.0435
  23   2.0000      -6.025258      -163.9556
  24   2.0000      -1.005532       -27.3619
  25   2.0000      -0.979405       -26.6510
  26   2.0000      -0.916652       -24.9434
  27   2.0000      -0.898858       -24.4592
  28   2.0000      -0.869278       -23.6543
  29   2.0000      -0.846813       -23.0430
  30   2.0000      -0.839181       -22.8353
  31   2.0000      -0.812203       -22.1012
  32   2.0000      -0.781912       -21.2769
  33   2.0000      -0.768662       -20.9164
  34   2.0000      -0.713844       -19.4247
  35   2.0000      -0.704148       -19.1608
  36   2.0000      -0.700606       -19.0645
  37   2.0000      -0.661271       -17.9941
  38   2.0000      -0.639682       -17.4066
  39   2.0000      -0.617718       -16.8090
  40   2.0000      -0.591520       -16.0961
  41   2.0000      -0.566116       -15.4048
  42   2.0000      -0.563511       -15.3339
  43   2.0000      -0.551166       -14.9980
  44   2.0000      -0.545457       -14.8426
  45   2.0000      -0.523150       -14.2356
  46   2.0000      -0.518138       -14.0992
  47   2.0000      -0.505588       -13.7578
  48   2.0000      -0.504508       -13.7283
  49   2.0000      -0.495539       -13.4843
  50   2.0000      -0.489312       -13.3149
  51   2.0000      -0.478512       -13.0210
  52   2.0000      -0.470476       -12.8023
  53   2.0000      -0.460604       -12.5337
  54   2.0000      -0.459645       -12.5076
  55   2.0000      -0.448021       -12.1913
  56   2.0000      -0.440737       -11.9931
  57   2.0000      -0.437378       -11.9017
  58   2.0000      -0.432280       -11.7629
  59   2.0000      -0.425037       -11.5659
  60   2.0000      -0.423592       -11.5265
  61   2.0000      -0.416121       -11.3232
  62   2.0000      -0.409363       -11.1393
  63   2.0000      -0.342351        -9.3158
  64   2.0000      -0.327723        -8.9178
  65   2.0000      -0.324034        -8.8174
  66   2.0000      -0.294441        -8.0121
  67   0.0000       0.030601         0.8327
  68   0.0000       0.054652         1.4872
  69   0.0000       0.107166         2.9161
  70   0.0000       0.118154         3.2151
  71   0.0000       0.125306         3.4098

MULLIKEN ATOMIC CHARGES
-----------------------
   0 S :    0.094061
   1 C :   -0.124242
   2 C :   -0.090556
   3 C :    0.061823
   4 C :   -0.156377
   5 H :   -0.005198
   6 C :    0.053961
   7 H :    0.019197
   8 H :    0.015285
   9 C :   -0.011407
  10 H :    0.013934
  11 H :    0.020832
  12 C :   -0.075649
  13 H :    0.026682
  14 H :    0.061166
  15 H :    0.021298
  16 S :    0.081323
  17 C :   -0.053274
  18 C :   -0.026117
  19 C :   -0.086305
  20 C :   -0.145978
  21 H :    0.045943
  22 C :    0.094698
  23 H :    0.035345
  24 H :    0.005989
  25 C :   -0.094785
  26 H :    0.043046
  27 H :    0.032841
  28 C :   -0.079979
  29 H :    0.038880
  30 H :    0.047787
  31 H :    0.053763
  32 H :    0.069112
  33 H :    0.012899
Sum of atomic charges:    0.0000000

LOEWDIN ATOMIC CHARGES
----------------------
   0 S :    0.394870
   1 C :   -0.194256
   2 C :   -0.063146
   3 C :   -0.048622
   4 C :   -0.193804
   5 H :    0.023461
   6 C :   -0.028925
   7 H :    0.031790
   8 H :    0.023404
   9 C :   -0.037129
  10 H :    0.018802
  11 H :    0.026127
  12 C :   -0.067524
  13 H :    0.019640
  14 H :    0.035102
  15 H :    0.024107
  16 S :    0.365993
  17 C :   -0.141848
  18 C :   -0.071754
  19 C :   -0.057291
  20 C :   -0.196542
  21 H :    0.042105
  22 C :   -0.036072
  23 H :    0.036019
  24 H :    0.022763
  25 C :   -0.029433
  26 H :    0.023950
  27 H :    0.024087
  28 C :   -0.075447
  29 H :    0.027521
  30 H :    0.032681
  31 H :    0.029787
  32 H :    0.039773
  33 H :   -0.000191

  Mayer bond orders larger than 0.100000
B(  0-S ,  1-C ) :   1.1248 B(  0-S ,  4-C ) :   1.1463 B(  1-C ,  2-C ) :   1.6183
B(  1-C , 32-H ) :   0.9595 B(  2-C ,  3-C ) :   1.2364 B(  2-C ,  6-C ) :   1.0080
B(  3-C ,  4-C ) :   1.5613 B(  3-C ,  5-H ) :   1.0057 B(  4-C , 20-C ) :   1.0330
B(  6-C ,  7-H ) :   0.9434 B(  6-C ,  8-H ) :   0.9441 B(  6-C ,  9-C ) :   1.0785
B(  9-C , 10-H ) :   0.9533 B(  9-C , 11-H ) :   0.9498 B(  9-C , 12-C ) :   1.0709
B( 12-C , 13-H ) :   0.9722 B( 12-C , 14-H ) :   0.9712 B( 12-C , 15-H ) :   0.9749
B( 16-S , 17-C ) :   1.1386 B( 16-S , 20-C ) :   1.1192 B( 17-C , 18-C ) :   1.6323
B( 17-C , 33-H ) :   0.9840 B( 18-C , 19-C ) :   1.2007 B( 18-C , 21-H ) :   0.9769
B( 19-C , 20-C ) :   1.6471 B( 19-C , 22-C ) :   1.0513 B( 22-C , 23-H ) :   0.9351
B( 22-C , 24-H ) :   0.9316 B( 22-C , 25-C ) :   1.0303 B( 25-C , 26-H ) :   0.9647
B( 25-C , 27-H ) :   0.9574 B( 25-C , 28-C ) :   1.0731 B( 28-C , 29-H ) :   0.9774
B( 28-C , 30-H ) :   0.9756 B( 28-C , 31-H ) :   0.9778

Dispersion correction           -0.014111686
FINAL SINGLE POINT ENERGY     -1339.847961438722

DIPOLE MOMENT
-------------
                                X             Y             Z
Electronic contribution:     13.28957       4.92704     -18.61064
Nuclear contribution   :    -13.67289      -5.33721      19.10514
                        -----------------------------------------
Total Dipole Moment    :     -0.38332      -0.41017       0.49450
                        -----------------------------------------
Magnitude (a.u.)       :      0.74813
Magnitude (Debye)      :      1.90160

Rotational constants in cm-1:     0.019598     0.008104     0.006448
Rotational constants in MHz :   587.538608   242.952754   193.294810

                             ****ORCA TERMINATED NORMALLY****
TOTAL RUN TIME: 0 days 0 hours 0 minutes 21 seconds 295 msec
