                         Program Version 4.2.1 -  RELEASE  -
|  1> ! wB97X-D3 SP def2-SVP
|  2> %pal
|  3> nprocs 24
|  4> end
|  5>
|  6> * xyz 0 1
|  7> S 	 -87.2415 	 -46.4359 	 -70.3469
|  8> C 	 -85.5316 	 -46.5041 	 -70.0865
|  9> C 	 -84.9507 	 -47.5558 	 -70.7486
| 10> C 	 -85.8906 	 -48.4189 	 -71.4666
| 11> C 	 -87.1808 	 -47.8192 	 -71.3786
| 12> H 	 -85.8451 	 -49.3912 	 -71.8773
| 13> C 	 -83.4608 	 -47.8212 	 -70.7297
| 14> H 	 -83.2849 	 -48.8901 	 -70.6398
| 15> H 	 -83.1073 	 -47.4311 	 -69.7669
| 16> C 	 -82.6655 	 -47.261 	 -71.8959
| 17> H 	 -81.6231 	 -47.5921 	 -71.8254
| 18> H 	 -83.132 	 -47.5748 	 -72.8616
| 19> C 	 -82.623 	 -45.7375 	 -71.8162
| 20> H 	 -82.1643 	 -45.3872 	 -70.8905
| 21> H 	 -82.0079 	 -45.2913 	 -72.6074
| 22> H 	 -83.6531 	 -45.3991 	 -71.8177
| 23> S 	 -88.6584 	 -46.8304 	 -73.4652
| 24> C 	 -89.6916 	 -47.9204 	 -74.3901
| 25> C 	 -89.622 	 -49.1996 	 -73.9042
| 26> C 	 -88.726 	 -49.3295 	 -72.7786
| 27> C 	 -88.2091 	 -48.128 	 -72.3572
| 28> H 	 -90.0899 	 -49.9735 	 -74.4241
| 29> C 	 -88.7925 	 -50.6555 	 -72.1587
| 30> H 	 -89.8249 	 -50.914 	 -72.0722
| 31> H 	 -88.5099 	 -50.3762 	 -71.1337
| 32> C 	 -88.0536 	 -51.9422 	 -72.6266
| 33> H 	 -87.9123 	 -52.6973 	 -71.818
| 34> H 	 -87.0365 	 -51.7641 	 -72.9375
| 35> C 	 -88.8405 	 -52.684 	 -73.7787
| 36> H 	 -88.2435 	 -53.5392 	 -74.1512
| 37> H 	 -89.097 	 -52.0851 	 -74.6496
| 38> H 	 -89.8112 	 -52.9921 	 -73.3304
| 39> H 	 -84.8692 	 -45.7564 	 -69.6028
| 40> H 	 -90.5014 	 -47.7663 	 -75.165
| 41> *
| 42>
| 43>                          ****END OF INPUT****

CARTESIAN COORDINATES (ANGSTROEM)
---------------------------------
  S    -87.241500  -46.435900  -70.346900
  C    -85.531600  -46.504100  -70.086500
  C    -84.950700  -47.555800  -70.748600
  C    -85.890600  -48.418900  -71.466600
  C    -87.180800  -47.819200  -71.378600
  H    -85.845100  -49.391200  -71.877300
  C    -83.460800  -47.821200  -70.729700
  H    -83.284900  -48.890100  -70.639800
  H    -83.107300  -47.431100  -69.766900
  C    -82.665500  -47.261000  -71.895900
  H    -81.623100  -47.592100  -71.825400
  H    -83.132000  -47.574800  -72.861600
  C    -82.623000  -45.737500  -71.816200
  H    -82.164300  -45.387200  -70.890500
  H    -82.007900  -45.291300  -72.607400
  H    -83.653100  -45.399100  -71.817700
  S    -88.658400  -46.830400  -73.465200
  C    -89.691600  -47.920400  -74.390100
  C    -89.622000  -49.199600  -73.904200
  C    -88.726000  -49.329500  -72.778600
  C    -88.209100  -48.128000  -72.357200
  H    -90.089900  -49.973500  -74.424100
  C    -88.792500  -50.655500  -72.158700
  H    -89.824900  -50.914000  -72.072200
  H    -88.509900  -50.376200  -71.133700
  C    -88.053600  -51.942200  -72.626600
  H    -87.912300  -52.697300  -71.818000
  H    -87.036500  -51.764100  -72.937500
  C    -88.840500  -52.684000  -73.778700
  H    -88.243500  -53.539200  -74.151200
  H    -89.097000  -52.085100  -74.649600
  H    -89.811200  -52.992100  -73.330400
  H    -84.869200  -45.756400  -69.602800
  H    -90.501400  -47.766300  -75.165000

 Total Charge           Charge          ....    0
 Multiplicity           Mult            ....    1
 Number of Electrons    NEL             ....  134
 Basis Dimension        Dim             ....  322

ORBITAL ENERGIES
----------------

  NO   OCC          E(Eh)            E(eV)
   0   2.0000     -88.973271     -2421.0858
   1   2.0000     -88.965005     -2420.8609
   2   2.0000     -10.331560      -281.1360
   3   2.0000     -10.327427      -281.0236
   4   2.0000     -10.316930      -280.7379
   5   2.0000     -10.315811      -280.7075
   6   2.0000     -10.305061      -280.4150
   7   2.0000     -10.301634      -280.3217
   8   2.0000     -10.296655      -280.1862
   9   2.0000     -10.296503      -280.1821
  10   2.0000     -10.289000      -279.9779
  11   2.0000     -10.287538      -279.9382
  12   2.0000     -10.286436      -279.9081
  13   2.0000     -10.286311      -279.9047
  14   2.0000     -10.282403      -279.7984
  15   2.0000     -10.272696      -279.5343
  16   2.0000      -8.088352      -220.0952
  17   2.0000      -8.079208      -219.8464
  18   2.0000      -6.046757      -164.5406
  19   2.0000      -6.042736      -164.4312
  20   2.0000      -6.039264      -164.3367
  21   2.0000      -6.037976      -164.3017
  22   2.0000      -6.033823      -164.1887
  23   2.0000      -6.029659      -164.0754
  24   2.0000      -1.008821       -27.4514
  25   2.0000      -0.984205       -26.7816
  26   2.0000      -0.916121       -24.9289
  27   2.0000      -0.906361       -24.6633
  28   2.0000      -0.871058       -23.7027
  29   2.0000      -0.851737       -23.1769
  30   2.0000      -0.846362       -23.0307
  31   2.0000      -0.814188       -22.1552
  32   2.0000      -0.781702       -21.2712
  33   2.0000      -0.771822       -21.0023
  34   2.0000      -0.714078       -19.4310
  35   2.0000      -0.698414       -19.0048
  36   2.0000      -0.687992       -18.7212
  37   2.0000      -0.664552       -18.0834
  38   2.0000      -0.643465       -17.5096
  39   2.0000      -0.612447       -16.6655
  40   2.0000      -0.589903       -16.0521
  41   2.0000      -0.575596       -15.6628
  42   2.0000      -0.553257       -15.0549
  43   2.0000      -0.546957       -14.8835
  44   2.0000      -0.541580       -14.7371
  45   2.0000      -0.538904       -14.6643
  46   2.0000      -0.525542       -14.3007
  47   2.0000      -0.506641       -13.7864
  48   2.0000      -0.506188       -13.7741
  49   2.0000      -0.496280       -13.5045
  50   2.0000      -0.493040       -13.4163
  51   2.0000      -0.477547       -12.9947
  52   2.0000      -0.469907       -12.7868
  53   2.0000      -0.465172       -12.6580
  54   2.0000      -0.460824       -12.5397
  55   2.0000      -0.449366       -12.2279
  56   2.0000      -0.442669       -12.0456
  57   2.0000      -0.435722       -11.8566
  58   2.0000      -0.433061       -11.7842
  59   2.0000      -0.426675       -11.6104
  60   2.0000      -0.421245       -11.4626
  61   2.0000      -0.415172       -11.2974
  62   2.0000      -0.404722       -11.0130
  63   2.0000      -0.346449        -9.4273
  64   2.0000      -0.331879        -9.0309
  65   2.0000      -0.325996        -8.8708
  66   2.0000      -0.293709        -7.9922
  67   0.0000       0.025304         0.6886
  68   0.0000       0.070878         1.9287
  69   0.0000       0.110676         3.0116
  70   0.0000       0.118555         3.2261
  71   0.0000       0.119513         3.2521

MULLIKEN ATOMIC CHARGES
-----------------------
   0 S :    0.131629
   1 C :   -0.112190
   2 C :   -0.125695
   3 C :    0.070261
   4 C :   -0.191297
   5 H :    0.010075
   6 C :    0.059226
   7 H :    0.023327
   8 H :    0.013155
   9 C :   -0.047858
  10 H :    0.032172
  11 H :    0.040813
  12 C :   -0.066502
  13 H :    0.015883
  14 H :    0.038436
  15 H :    0.040484
  16 S :    0.104915
  17 C :   -0.092059
  18 C :   -0.038989
  19 C :   -0.021891
  20 C :   -0.125522
  21 H :   -0.003218
  22 C :    0.026033
  23 H :    0.021480
  24 H :    0.017753
  25 C :   -0.038567
  26 H :    0.039290
  27 H :    0.021866
  28 C :   -0.088915
  29 H :    0.043338
  30 H :    0.037925
  31 H :    0.033929
  32 H :    0.060504
  33 H :    0.070208
Sum of atomic charges:   -0.0000000

LOEWDIN ATOMIC CHARGES
----------------------
   0 S :    0.431536
   1 C :   -0.216825
   2 C :   -0.060822
   3 C :   -0.041873
   4 C :   -0.206484
   5 H :    0.028906
   6 C :   -0.035714
   7 H :    0.029884
   8 H :    0.027892
   9 C :   -0.038703
  10 H :    0.025298
  11 H :    0.030280
  12 C :   -0.068500
  13 H :    0.019826
  14 H :    0.027119
  15 H :    0.024197
  16 S :    0.392920
  17 C :   -0.196178
  18 C :   -0.066132
  19 C :   -0.064977
  20 C :   -0.191771
  21 H :    0.019121
  22 C :   -0.041280
  23 H :    0.031410
  24 H :    0.033849
  25 C :   -0.036300
  26 H :    0.032949
  27 H :    0.017051
  28 C :   -0.071386
  29 H :    0.030058
  30 H :    0.020436
  31 H :    0.026828
  32 H :    0.039375
  33 H :    0.048005

  Mayer bond orders larger than 0.100000
B(  0-S ,  1-C ) :   1.1239 B(  0-S ,  4-C ) :   1.1728 B(  1-C ,  2-C ) :   1.6338
B(  1-C , 32-H ) :   0.9566 B(  2-C ,  3-C ) :   1.2239 B(  2-C ,  6-C ) :   1.0238
B(  3-C ,  4-C ) :   1.5444 B(  3-C ,  5-H ) :   0.9979 B(  4-C , 20-C ) :   1.0302
B(  6-C ,  7-H ) :   0.9387 B(  6-C ,  8-H ) :   0.9422 B(  6-C ,  9-C ) :   1.0697
B(  9-C , 10-H ) :   0.9540 B(  9-C , 11-H ) :   0.9548 B(  9-C , 12-C ) :   1.0764
B( 12-C , 13-H ) :   0.9734 B( 12-C , 14-H ) :   0.9730 B( 12-C , 15-H ) :   0.9757
B( 16-S , 17-C ) :   1.1287 B( 16-S , 20-C ) :   1.1183 B( 17-C , 18-C ) :   1.6613
B( 17-C , 33-H ) :   0.9516 B( 18-C , 19-C ) :   1.2088 B( 18-C , 21-H ) :   0.9926
B( 19-C , 20-C ) :   1.6195 B( 19-C , 22-C ) :   1.0491 B( 22-C , 23-H ) :   0.9445
B( 22-C , 24-H ) :   0.9290 B( 22-C , 25-C ) :   1.0531 B( 25-C , 26-H ) :   0.9563
B( 25-C , 27-H ) :   0.9581 B( 25-C , 28-C ) :   1.0688 B( 28-C , 29-H ) :   0.9732
B( 28-C , 30-H ) :   0.9773 B( 28-C , 31-H ) :   0.9770

Dispersion correction           -0.014449993
FINAL SINGLE POINT ENERGY     -1339.859665409857

DIPOLE MOMENT
-------------
                                X             Y             Z
Electronic contribution:    -14.09794      16.32512       3.48174
Nuclear contribution   :     14.41796     -16.84640      -3.55137
                        -----------------------------------------
Total Dipole Moment    :      0.32002      -0.52128      -0.06963
                        -----------------------------------------
Magnitude (a.u.)       :      0.61562
Magnitude (Debye)      :      1.56479

Rotational constants in cm-1:     0.020012     0.008068     0.006878
Rotational constants in MHz :   599.953462   241.869556   206.198041

                             ****ORCA TERMINATED NORMALLY****
TOTAL RUN TIME: 0 days 0 hours 0 minutes 21 seconds 572 msec
