                         Program Version 4.2.1 -  RELEASE  -
|  1> ! wB97X-D3 SP def2-SVP
|  2> %pal
|  3> nprocs 24
|  4> end
|  5>
|  6> * xyz 0 1
|  7> S 	 -124.713 	 17.6223 	 -19.7307
|  8> C 	 -123.635 	 18.2522 	 -18.5345
|  9> C 	 -123.015 	 19.4083 	 -18.9652
| 10> C 	 -123.394 	 19.6974 	 -20.3487
| 11> C 	 -124.274 	 18.7874 	 -20.9155
| 12> H 	 -122.996 	 20.5202 	 -20.9801
| 13> C 	 -122.079 	 20.275 	 -18.14
| 14> H 	 -121.775 	 19.6509 	 -17.2453
| 15> H 	 -122.794 	 20.955 	 -17.6576
| 16> C 	 -120.941 	 20.8782 	 -18.9101
| 17> H 	 -120.502 	 20.1642 	 -19.5109
| 18> H 	 -121.266 	 21.639 	 -19.5718
| 19> C 	 -119.822 	 21.5579 	 -17.9668
| 20> H 	 -120.288 	 22.2405 	 -17.3613
| 21> H 	 -119.334 	 20.8368 	 -17.3062
| 22> H 	 -119.054 	 22.0573 	 -18.5572
| 23> S 	 -125.688 	 20.43 	 -22.6186
| 24> C 	 -126.319 	 19.7451 	 -24.1147
| 25> C 	 -125.818 	 18.4925 	 -24.3376
| 26> C 	 -125.069 	 17.9877 	 -23.2314
| 27> C 	 -124.923 	 18.9392 	 -22.2185
| 28> H 	 -125.953 	 18.0613 	 -25.3207
| 29> C 	 -124.254 	 16.7277 	 -23.4485
| 30> H 	 -124.462 	 16.2881 	 -24.4717
| 31> H 	 -124.537 	 15.9008 	 -22.7023
| 32> C 	 -122.689 	 16.9343 	 -23.4278
| 33> H 	 -122.171 	 16.0531 	 -22.9266
| 34> H 	 -122.554 	 17.7029 	 -22.6964
| 35> C 	 -121.911 	 17.2851 	 -24.7378
| 36> H 	 -120.876 	 17.0832 	 -24.5717
| 37> H 	 -122.075 	 18.2229 	 -25.1103
| 38> H 	 -122.175 	 16.5853 	 -25.5495
| 39> H 	 -123.568 	 17.9484 	 -17.4527
| 40> H 	 -126.809 	 20.2632 	 -24.8836
| 41> *
| 42>
| 43>                          ****END OF INPUT****

CARTESIAN COORDINATES (ANGSTROEM)
---------------------------------
  S    -124.713000   17.622300  -19.730700
  C    -123.635000   18.252200  -18.534500
  C    -123.015000   19.408300  -18.965200
  C    -123.394000   19.697400  -20.348700
  C    -124.274000   18.787400  -20.915500
  H    -122.996000   20.520200  -20.980100
  C    -122.079000   20.275000  -18.140000
  H    -121.775000   19.650900  -17.245300
  H    -122.794000   20.955000  -17.657600
  C    -120.941000   20.878200  -18.910100
  H    -120.502000   20.164200  -19.510900
  H    -121.266000   21.639000  -19.571800
  C    -119.822000   21.557900  -17.966800
  H    -120.288000   22.240500  -17.361300
  H    -119.334000   20.836800  -17.306200
  H    -119.054000   22.057300  -18.557200
  S    -125.688000   20.430000  -22.618600
  C    -126.319000   19.745100  -24.114700
  C    -125.818000   18.492500  -24.337600
  C    -125.069000   17.987700  -23.231400
  C    -124.923000   18.939200  -22.218500
  H    -125.953000   18.061300  -25.320700
  C    -124.254000   16.727700  -23.448500
  H    -124.462000   16.288100  -24.471700
  H    -124.537000   15.900800  -22.702300
  C    -122.689000   16.934300  -23.427800
  H    -122.171000   16.053100  -22.926600
  H    -122.554000   17.702900  -22.696400
  C    -121.911000   17.285100  -24.737800
  H    -120.876000   17.083200  -24.571700
  H    -122.075000   18.222900  -25.110300
  H    -122.175000   16.585300  -25.549500
  H    -123.568000   17.948400  -17.452700
  H    -126.809000   20.263200  -24.883600

 Total Charge           Charge          ....    0
 Multiplicity           Mult            ....    1
 Number of Electrons    NEL             ....  134
 Basis Dimension        Dim             ....  322

ORBITAL ENERGIES
----------------

  NO   OCC          E(Eh)            E(eV)
   0   2.0000     -88.969599     -2420.9859
   1   2.0000     -88.966126     -2420.8914
   2   2.0000     -10.327912      -281.0368
   3   2.0000     -10.327710      -281.0313
   4   2.0000     -10.313807      -280.6530
   5   2.0000     -10.311555      -280.5917
   6   2.0000     -10.303484      -280.3720
   7   2.0000     -10.302473      -280.3445
   8   2.0000     -10.300221      -280.2833
   9   2.0000     -10.297693      -280.2145
  10   2.0000     -10.297009      -280.1959
  11   2.0000     -10.291400      -280.0432
  12   2.0000     -10.284998      -279.8690
  13   2.0000     -10.283901      -279.8392
  14   2.0000     -10.277291      -279.6593
  15   2.0000     -10.269424      -279.4452
  16   2.0000      -8.084266      -219.9841
  17   2.0000      -8.081406      -219.9062
  18   2.0000      -6.042740      -164.4313
  19   2.0000      -6.039944      -164.3552
  20   2.0000      -6.038777      -164.3235
  21   2.0000      -6.035744      -164.2409
  22   2.0000      -6.035069      -164.2226
  23   2.0000      -6.032181      -164.1440
  24   2.0000      -1.009657       -27.4742
  25   2.0000      -0.987144       -26.8616
  26   2.0000      -0.912998       -24.8439
  27   2.0000      -0.895437       -24.3661
  28   2.0000      -0.872214       -23.7341
  29   2.0000      -0.847869       -23.0717
  30   2.0000      -0.840870       -22.8812
  31   2.0000      -0.815336       -22.1864
  32   2.0000      -0.783783       -21.3278
  33   2.0000      -0.771999       -21.0072
  34   2.0000      -0.721219       -19.6254
  35   2.0000      -0.702033       -19.1033
  36   2.0000      -0.683106       -18.5882
  37   2.0000      -0.664650       -18.0861
  38   2.0000      -0.633475       -17.2377
  39   2.0000      -0.614074       -16.7098
  40   2.0000      -0.589610       -16.0441
  41   2.0000      -0.571177       -15.5425
  42   2.0000      -0.565144       -15.3784
  43   2.0000      -0.545782       -14.8515
  44   2.0000      -0.534915       -14.5558
  45   2.0000      -0.529513       -14.4088
  46   2.0000      -0.512973       -13.9587
  47   2.0000      -0.505363       -13.7516
  48   2.0000      -0.502856       -13.6834
  49   2.0000      -0.497431       -13.5358
  50   2.0000      -0.486216       -13.2306
  51   2.0000      -0.478287       -13.0149
  52   2.0000      -0.475609       -12.9420
  53   2.0000      -0.464046       -12.6273
  54   2.0000      -0.463682       -12.6174
  55   2.0000      -0.452591       -12.3156
  56   2.0000      -0.445660       -12.1270
  57   2.0000      -0.442759       -12.0481
  58   2.0000      -0.432788       -11.7768
  59   2.0000      -0.427475       -11.6322
  60   2.0000      -0.415066       -11.2945
  61   2.0000      -0.411779       -11.2051
  62   2.0000      -0.410622       -11.1736
  63   2.0000      -0.347161        -9.4467
  64   2.0000      -0.331576        -9.0227
  65   2.0000      -0.325947        -8.8695
  66   2.0000      -0.294623        -8.0171
  67   0.0000       0.030498         0.8299
  68   0.0000       0.071993         1.9590
  69   0.0000       0.105450         2.8694
  70   0.0000       0.126147         3.4326
  71   0.0000       0.135564         3.6889

MULLIKEN ATOMIC CHARGES
-----------------------
   0 S :    0.126334
   1 C :   -0.142966
   2 C :   -0.118800
   3 C :   -0.025806
   4 C :   -0.121887
   5 H :    0.025659
   6 C :    0.069847
   7 H :    0.020327
   8 H :    0.043147
   9 C :   -0.050152
  10 H :    0.021373
  11 H :    0.030163
  12 C :   -0.027355
  13 H :    0.012784
  14 H :    0.031204
  15 H :    0.035843
  16 S :    0.126209
  17 C :   -0.077175
  18 C :   -0.041757
  19 C :   -0.001345
  20 C :   -0.178481
  21 H :    0.023641
  22 C :    0.006448
  23 H :    0.027259
  24 H :    0.050485
  25 C :   -0.094134
  26 H :    0.032214
  27 H :    0.028137
  28 C :   -0.003040
  29 H :    0.029333
  30 H :    0.022550
  31 H :    0.017880
  32 H :    0.065561
  33 H :    0.036503
Sum of atomic charges:    0.0000000

LOEWDIN ATOMIC CHARGES
----------------------
   0 S :    0.432263
   1 C :   -0.223508
   2 C :   -0.062317
   3 C :   -0.079073
   4 C :   -0.209044
   5 H :    0.032458
   6 C :   -0.038102
   7 H :    0.035110
   8 H :    0.038720
   9 C :   -0.028611
  10 H :    0.017379
  11 H :    0.022815
  12 C :   -0.051581
  13 H :    0.011319
  14 H :    0.025340
  15 H :    0.027662
  16 S :    0.424485
  17 C :   -0.179476
  18 C :   -0.064340
  19 C :   -0.064835
  20 C :   -0.208702
  21 H :    0.033996
  22 C :   -0.042687
  23 H :    0.031415
  24 H :    0.041100
  25 C :   -0.044604
  26 H :    0.031564
  27 H :    0.019786
  28 C :   -0.056294
  29 H :    0.027872
  30 H :    0.011974
  31 H :    0.025645
  32 H :    0.042299
  33 H :    0.019973

  Mayer bond orders larger than 0.100000
B(  0-S ,  1-C ) :   1.1408 B(  0-S ,  4-C ) :   1.1615 B(  1-C ,  2-C ) :   1.6228
B(  1-C , 32-H ) :   0.9567 B(  2-C ,  3-C ) :   1.2372 B(  2-C ,  6-C ) :   1.0151
B(  3-C ,  4-C ) :   1.5507 B(  3-C ,  5-H ) :   0.9914 B(  4-C , 20-C ) :   1.0488
B(  6-C ,  7-H ) :   0.9423 B(  6-C ,  8-H ) :   0.9256 B(  6-C ,  9-C ) :   1.0637
B(  9-C , 10-H ) :   0.9648 B(  9-C , 11-H ) :   0.9451 B(  9-C , 12-C ) :   1.0789
B( 12-C , 13-H ) :   0.9773 B( 12-C , 14-H ) :   0.9791 B( 12-C , 15-H ) :   0.9779
B( 16-S , 17-C ) :   1.1488 B( 16-S , 20-C ) :   1.1546 B( 17-C , 18-C ) :   1.6220
B( 17-C , 33-H ) :   0.9686 B( 18-C , 19-C ) :   1.2523 B( 18-C , 21-H ) :   0.9868
B( 19-C , 20-C ) :   1.5557 B( 19-C , 22-C ) :   1.0482 B( 22-C , 23-H ) :   0.9516
B( 22-C , 24-H ) :   0.9293 B( 22-C , 25-C ) :   1.0469 B( 25-C , 26-H ) :   0.9593
B( 25-C , 27-H ) :   0.9595 B( 25-C , 28-C ) :   1.0752 B( 28-C , 29-H ) :   0.9738
B( 28-C , 30-H ) :   0.9794 B( 28-C , 31-H ) :   0.9726

Dispersion correction           -0.014454763
FINAL SINGLE POINT ENERGY     -1339.868972137729

DIPOLE MOMENT
-------------
                                X             Y             Z
Electronic contribution:    -23.52429      -0.65935       0.00107
Nuclear contribution   :     23.97860       0.86950      -0.07608
                        -----------------------------------------
Total Dipole Moment    :      0.45431       0.21015      -0.07501
                        -----------------------------------------
Magnitude (a.u.)       :      0.50614
Magnitude (Debye)      :      1.28652

Rotational constants in cm-1:     0.019095     0.007792     0.007413
Rotational constants in MHz :   572.439678   233.594151   222.244061

                             ****ORCA TERMINATED NORMALLY****
TOTAL RUN TIME: 0 days 0 hours 0 minutes 20 seconds 237 msec
