                         Program Version 4.2.1 -  RELEASE  -
|  1> ! wB97X-D3 SP def2-SVP
|  2> %pal
|  3> nprocs 24
|  4> end
|  5>
|  6> * xyz 0 1
|  7> S 	 36.9887 	 -1.26658 	 -121.909
|  8> C 	 37.0661 	 -2.70715 	 -122.93
|  9> C 	 37.2197 	 -3.82929 	 -122.165
| 10> C 	 37.6557 	 -3.51602 	 -120.796
| 11> C 	 37.4249 	 -2.20429 	 -120.465
| 12> H 	 38.0836 	 -4.20948 	 -120.066
| 13> C 	 37.2812 	 -5.15016 	 -122.927
| 14> H 	 38.0805 	 -4.96577 	 -123.746
| 15> H 	 36.3759 	 -5.15381 	 -123.531
| 16> C 	 37.4786 	 -6.4403 	 -122.057
| 17> H 	 38.3148 	 -6.18247 	 -121.452
| 18> H 	 36.7487 	 -6.52557 	 -121.319
| 19> C 	 37.6863 	 -7.69502 	 -122.872
| 20> H 	 38.1873 	 -8.36158 	 -122.242
| 21> H 	 36.6831 	 -8.01035 	 -123.212
| 22> H 	 38.2091 	 -7.52177 	 -123.816
| 23> S 	 38.6529 	 -0.239364 	 -119.088
| 24> C 	 38.706 	 -0.315904 	 -117.33
| 25> C 	 38.0442 	 -1.38688 	 -116.846
| 26> C 	 37.3937 	 -2.11828 	 -117.856
| 27> C 	 37.663 	 -1.66524 	 -119.15
| 28> H 	 38.0142 	 -1.54771 	 -115.771
| 29> C 	 36.5455 	 -3.303 	 -117.49
| 30> H 	 36.3051 	 -3.78208 	 -118.412
| 31> H 	 35.6219 	 -3.13537 	 -116.93
| 32> C 	 37.3085 	 -4.37866 	 -116.643
| 33> H 	 37.5766 	 -4.01619 	 -115.676
| 34> H 	 38.2714 	 -4.52262 	 -117.272
| 35> C 	 36.6263 	 -5.77001 	 -116.498
| 36> H 	 37.3809 	 -6.48439 	 -116.434
| 37> H 	 36.0951 	 -5.96486 	 -117.373
| 38> H 	 36.0246 	 -5.72123 	 -115.666
| 39> H 	 36.8012 	 -2.72758 	 -123.962
| 40> H 	 39.366 	 0.354498 	 -116.765
| 41> *
| 42>
| 43>                          ****END OF INPUT****

CARTESIAN COORDINATES (ANGSTROEM)
---------------------------------
  S     36.988700   -1.266580  -121.909000
  C     37.066100   -2.707150  -122.930000
  C     37.219700   -3.829290  -122.165000
  C     37.655700   -3.516020  -120.796000
  C     37.424900   -2.204290  -120.465000
  H     38.083600   -4.209480  -120.066000
  C     37.281200   -5.150160  -122.927000
  H     38.080500   -4.965770  -123.746000
  H     36.375900   -5.153810  -123.531000
  C     37.478600   -6.440300  -122.057000
  H     38.314800   -6.182470  -121.452000
  H     36.748700   -6.525570  -121.319000
  C     37.686300   -7.695020  -122.872000
  H     38.187300   -8.361580  -122.242000
  H     36.683100   -8.010350  -123.212000
  H     38.209100   -7.521770  -123.816000
  S     38.652900   -0.239364  -119.088000
  C     38.706000   -0.315904  -117.330000
  C     38.044200   -1.386880  -116.846000
  C     37.393700   -2.118280  -117.856000
  C     37.663000   -1.665240  -119.150000
  H     38.014200   -1.547710  -115.771000
  C     36.545500   -3.303000  -117.490000
  H     36.305100   -3.782080  -118.412000
  H     35.621900   -3.135370  -116.930000
  C     37.308500   -4.378660  -116.643000
  H     37.576600   -4.016190  -115.676000
  H     38.271400   -4.522620  -117.272000
  C     36.626300   -5.770010  -116.498000
  H     37.380900   -6.484390  -116.434000
  H     36.095100   -5.964860  -117.373000
  H     36.024600   -5.721230  -115.666000
  H     36.801200   -2.727580  -123.962000
  H     39.366000    0.354498  -116.765000

 Total Charge           Charge          ....    0
 Multiplicity           Mult            ....    1
 Number of Electrons    NEL             ....  134
 Basis Dimension        Dim             ....  322

ORBITAL ENERGIES
----------------

  NO   OCC          E(Eh)            E(eV)
   0   2.0000     -88.964251     -2420.8404
   1   2.0000     -88.962173     -2420.7838
   2   2.0000     -10.330232      -281.0999
   3   2.0000     -10.326290      -280.9926
   4   2.0000     -10.316165      -280.7171
   5   2.0000     -10.308924      -280.5201
   6   2.0000     -10.302890      -280.3559
   7   2.0000     -10.302816      -280.3539
   8   2.0000     -10.299661      -280.2680
   9   2.0000     -10.299638      -280.2674
  10   2.0000     -10.290002      -280.0052
  11   2.0000     -10.289851      -280.0011
  12   2.0000     -10.286278      -279.9038
  13   2.0000     -10.282299      -279.7956
  14   2.0000     -10.277702      -279.6705
  15   2.0000     -10.265237      -279.3313
  16   2.0000      -8.078302      -219.8218
  17   2.0000      -8.077495      -219.7998
  18   2.0000      -6.037023      -164.2758
  19   2.0000      -6.035907      -164.2454
  20   2.0000      -6.032972      -164.1655
  21   2.0000      -6.031907      -164.1365
  22   2.0000      -6.028805      -164.0521
  23   2.0000      -6.028325      -164.0391
  24   2.0000      -1.008726       -27.4488
  25   2.0000      -0.983433       -26.7606
  26   2.0000      -0.911026       -24.7903
  27   2.0000      -0.906637       -24.6708
  28   2.0000      -0.878196       -23.8969
  29   2.0000      -0.853946       -23.2371
  30   2.0000      -0.845102       -22.9964
  31   2.0000      -0.821746       -22.3608
  32   2.0000      -0.782756       -21.2999
  33   2.0000      -0.769498       -20.9391
  34   2.0000      -0.719517       -19.5790
  35   2.0000      -0.696876       -18.9630
  36   2.0000      -0.692618       -18.8471
  37   2.0000      -0.658303       -17.9133
  38   2.0000      -0.640830       -17.4379
  39   2.0000      -0.616611       -16.7789
  40   2.0000      -0.599506       -16.3134
  41   2.0000      -0.573850       -15.6153
  42   2.0000      -0.567198       -15.4343
  43   2.0000      -0.562752       -15.3133
  44   2.0000      -0.537542       -14.6273
  45   2.0000      -0.526339       -14.3224
  46   2.0000      -0.517548       -14.0832
  47   2.0000      -0.515570       -14.0294
  48   2.0000      -0.504721       -13.7342
  49   2.0000      -0.502796       -13.6818
  50   2.0000      -0.495491       -13.4830
  51   2.0000      -0.486307       -13.2331
  52   2.0000      -0.474509       -12.9120
  53   2.0000      -0.472088       -12.8462
  54   2.0000      -0.457393       -12.4463
  55   2.0000      -0.451215       -12.2782
  56   2.0000      -0.446576       -12.1520
  57   2.0000      -0.441467       -12.0129
  58   2.0000      -0.430604       -11.7173
  59   2.0000      -0.424820       -11.5599
  60   2.0000      -0.417680       -11.3657
  61   2.0000      -0.412105       -11.2139
  62   2.0000      -0.410712       -11.1761
  63   2.0000      -0.352278        -9.5860
  64   2.0000      -0.330768        -9.0007
  65   2.0000      -0.324288        -8.8243
  66   2.0000      -0.290069        -7.8932
  67   0.0000       0.026836         0.7302
  68   0.0000       0.075003         2.0409
  69   0.0000       0.110709         3.0125
  70   0.0000       0.117677         3.2022
  71   0.0000       0.124172         3.3789

MULLIKEN ATOMIC CHARGES
-----------------------
   0 S :    0.103766
   1 C :   -0.116466
   2 C :   -0.070914
   3 C :   -0.005228
   4 C :   -0.125005
   5 H :    0.029267
   6 C :   -0.024097
   7 H :    0.054734
   8 H :    0.027342
   9 C :   -0.048397
  10 H :    0.015712
  11 H :    0.013326
  12 C :    0.006139
  13 H :    0.031168
  14 H :    0.031592
  15 H :    0.029045
  16 S :    0.096329
  17 C :   -0.095213
  18 C :   -0.030003
  19 C :   -0.028084
  20 C :   -0.152318
  21 H :    0.026160
  22 C :    0.101012
  23 H :    0.001944
  24 H :    0.036095
  25 C :   -0.187181
  26 H :    0.027499
  27 H :    0.033768
  28 C :    0.062215
  29 H :    0.020381
  30 H :    0.007303
  31 H :    0.020728
  32 H :    0.044670
  33 H :    0.062709
Sum of atomic charges:   -0.0000000

LOEWDIN ATOMIC CHARGES
----------------------
   0 S :    0.379009
   1 C :   -0.187522
   2 C :   -0.061141
   3 C :   -0.066607
   4 C :   -0.186227
   5 H :    0.033122
   6 C :   -0.040598
   7 H :    0.044301
   8 H :    0.026790
   9 C :   -0.038503
  10 H :    0.018729
  11 H :    0.017781
  12 C :   -0.053930
  13 H :    0.021987
  14 H :    0.031079
  15 H :    0.028015
  16 S :    0.405867
  17 C :   -0.174363
  18 C :   -0.071568
  19 C :   -0.054661
  20 C :   -0.198476
  21 H :    0.037259
  22 C :   -0.032563
  23 H :    0.021034
  24 H :    0.030729
  25 C :   -0.038120
  26 H :    0.011738
  27 H :    0.025658
  28 C :   -0.042676
  29 H :    0.023048
  30 H :    0.018407
  31 H :    0.016708
  32 H :    0.024521
  33 H :    0.031172

  Mayer bond orders larger than 0.100000
B(  0-S ,  1-C ) :   1.1126 B(  0-S ,  4-C ) :   1.1308 B(  1-C ,  2-C ) :   1.6491
B(  1-C , 32-H ) :   0.9712 B(  2-C ,  3-C ) :   1.1949 B(  2-C ,  6-C ) :   1.0118
B(  3-C ,  4-C ) :   1.6003 B(  3-C ,  5-H ) :   0.9829 B(  4-C , 20-C ) :   1.0531
B(  6-C ,  7-H ) :   0.9510 B(  6-C ,  8-H ) :   0.9400 B(  6-C ,  9-C ) :   1.0577
B(  9-C , 10-H ) :   0.9500 B(  9-C , 11-H ) :   0.9551 B(  9-C , 12-C ) :   1.0819
B( 12-C , 13-H ) :   0.9728 B( 12-C , 14-H ) :   0.9738 B( 12-C , 15-H ) :   0.9759
B( 16-S , 17-C ) :   1.1547 B( 16-S , 20-C ) :   1.1459 B( 17-C , 18-C ) :   1.6165
B( 17-C , 33-H ) :   0.9640 B( 18-C , 19-C ) :   1.2304 B( 18-C , 21-H ) :   0.9940
B( 19-C , 20-C ) :   1.5814 B( 19-C , 22-C ) :   1.0583 B( 22-C , 23-H ) :   0.9258
B( 22-C , 24-H ) :   0.9344 B( 22-C , 25-C ) :   1.0516 B( 25-C , 26-H ) :   0.9579
B( 25-C , 27-H ) :   0.9624 B( 25-C , 28-C ) :   1.0744 B( 28-C , 29-H ) :   0.9738
B( 28-C , 30-H ) :   0.9722 B( 28-C , 31-H ) :   0.9758

Dispersion correction           -0.013794617
FINAL SINGLE POINT ENERGY     -1339.858306486753

DIPOLE MOMENT
-------------
                                X             Y             Z
Electronic contribution:      3.19284      32.22068      -4.25827
Nuclear contribution   :     -3.16368     -32.97885       4.49999
                        -----------------------------------------
Total Dipole Moment    :      0.02916      -0.75817       0.24171
                        -----------------------------------------
Magnitude (a.u.)       :      0.79630
Magnitude (Debye)      :      2.02404

Rotational constants in cm-1:     0.016102     0.009494     0.006386
Rotational constants in MHz :   482.724723   284.626831   191.436302

                             ****ORCA TERMINATED NORMALLY****
TOTAL RUN TIME: 0 days 0 hours 0 minutes 22 seconds 799 msec
